
     Program PWSCF v.6.6 starts on 26Jun2022 at 21:42:56 

     This program is part of the open-source Quantum ESPRESSO suite
     for quantum simulation of materials; please cite
         "P. Giannozzi et al., J. Phys.:Condens. Matter 21 395502 (2009);
         "P. Giannozzi et al., J. Phys.:Condens. Matter 29 465901 (2017);
          URL http://www.quantum-espresso.org", 
     in publications or presentations arising from this work. More details at
     http://www.quantum-espresso.org/quote

     Parallel version (MPI), running on    37 processors

     MPI processes distributed on     1 nodes
     R & G space division:  proc/nbgrp/npool/nimage =      37
     Fft bands division:     nmany     =       1
     Reading input from La2Zr2.in
Warning: card &CELL ignored
Warning: card / ignored

     Current dimensions of program PWSCF are:
     Max number of different atomic species (ntypx) = 10
     Max number of k-points (npk) =  40000
     Max angular momentum in pseudopotentials (lmaxx) =  3
     Presently stress not available with electric field and gates

     Message from routine cell_base_init:
     DEPRECATED: use true lattice parameter, not A to a.u. conversion factor
     file La.pbe-spfn-rrkjus_psl.1.0.0.UPF: wavefunction(s)  4F renormalized
     file Zr.pbe-spn-rrkjus_psl.1.0.0.UPF: wavefunction(s)  4S renormalized

     **************************************************************************
     Initializing libbeef V0.1.2 with the BEEF-vdW functional.
     Citation: Wellendorff et al., PRB 85, 235149 (2012).
     **************************************************************************


     IMPORTANT: XC functional enforced from input :
     Exchange-correlation= BEEF-VDW
                           (   1   4  43  14   2   0   0)
     Any further DFT definition will be discarded
     Please, verify this is what you really want


     Subspace diagonalization in iterative solution of the eigenvalue problem:
     a serial algorithm will be used

     Found symmetry operation: I + (  0.5000  0.0000  0.0000)
     This is a supercell, fractional translations are disabled

     Parallelization info
     --------------------
     sticks:   dense  smooth     PW     G-vecs:    dense   smooth      PW
     Min         174      69     19                42104    10645    1595
     Max         175      70     20                42119    10656    1614
     Sum        6455    2585    733              1558027   394033   59437



     bravais-lattice index     =            0
     lattice parameter (alat)  =       1.8897  a.u.
     unit-cell volume          =    7129.7607 (a.u.)^3
     number of atoms/cell      =           12
     number of atomic types    =            2
     number of electrons       =       138.00
     number of Kohn-Sham states=           83
     kinetic-energy cutoff     =      55.1240  Ry
     charge density cutoff     =     551.2396  Ry
     convergence threshold     =      1.0E-05
     mixing beta               =       0.1000
     number of iterations used =           10  plain     mixing
     Exchange-correlation= BEEF-VDW
                           (   1   4  43  14   2   0   0)

     celldm(1)=   1.889726  celldm(2)=   0.000000  celldm(3)=   0.000000
     celldm(4)=   0.000000  celldm(5)=   0.000000  celldm(6)=   0.000000

     crystal axes: (cart. coord. in units of alat)
               a(1) = (   6.795670   0.000000   0.000000 )  
               a(2) = (  -3.397835   6.066046   0.000000 )  
               a(3) = (   0.000000   0.000000  25.629519 )  

     reciprocal axes: (cart. coord. in units 2 pi/alat)
               b(1) = (  0.147153  0.082426 -0.000000 )  
               b(2) = (  0.000000  0.164852  0.000000 )  
               b(3) = (  0.000000 -0.000000  0.039018 )  


     PseudoPot. # 1 for La read from file:
     ../pseudo/La.pbe-spfn-rrkjus_psl.1.0.0.UPF
     MD5 check sum: e3bc141c2ecb461b8d0a035ce9ac970e
     Pseudo is Ultrasoft + core correction, Zval = 11.0
     Generated using "atomic" code by A. Dal Corso v.6.2.2
     Using radial grid of 1253 points,  8 beta functions with: 
                l(1) =   0
                l(2) =   0
                l(3) =   1
                l(4) =   1
                l(5) =   2
                l(6) =   2
                l(7) =   3
                l(8) =   3
     Q(r) pseudized with 0 coefficients 


     PseudoPot. # 2 for Zr read from file:
     ../pseudo/Zr.pbe-spn-rrkjus_psl.1.0.0.UPF
     MD5 check sum: 3d17ee99aa1707c2ccb6b09ed65e51a1
     Pseudo is Ultrasoft + core correction, Zval = 12.0
     Generated using "atomic" code by A. Dal Corso v.6.2.2
     Using radial grid of 1225 points,  6 beta functions with: 
                l(1) =   0
                l(2) =   0
                l(3) =   1
                l(4) =   1
                l(5) =   2
                l(6) =   2
     Q(r) pseudized with 0 coefficients 


     atomic species   valence    mass     pseudopotential
        La            11.00   138.90547     La( 1.00)
        Zr            12.00    91.22400     Zr( 1.00)

     No symmetry found



   Cartesian axes

     site n.     atom                  positions (alat units)
         1           La  tau(   1) = (   0.0000000   0.0000000  10.0000000  )
         2           La  tau(   2) = (   3.3978349   0.0000000  10.0000000  )
         3           Zr  tau(   3) = (   1.6989174   3.0330228  10.0000000  )
         4           Zr  tau(   4) = (  -1.6989174   3.0330228  10.0000000  )
         5           La  tau(   5) = (   3.3978349   1.9032633  12.8147594  )
         6           La  tau(   6) = (  -0.0000000   1.9032633  12.8147594  )
         7           Zr  tau(   7) = (  -1.6989174   4.9362860  12.8147594  )
         8           Zr  tau(   8) = (   1.6989174   4.9362860  12.8147594  )
         9           La  tau(   9) = (   0.0000067   3.8761019  15.7621589  )
        10           La  tau(  10) = (   3.3978429   3.8760977  15.7621565  )
        11           Zr  tau(  11) = (   5.0967350   0.6696908  15.3540645  )
        12           Zr  tau(  12) = (   1.6989135   0.6697016  15.3540537  )

     number of k points=    74  Fermi-Dirac smearing, width (Ry)=  0.0100
                       cart. coord. in units 2pi/alat
        k(    1) = (   0.0000000   0.0000000   0.0000000), wk =   0.0138889
        k(    2) = (   0.0000000   0.0137377   0.0000000), wk =   0.0277778
        k(    3) = (   0.0000000   0.0274753   0.0000000), wk =   0.0277778
        k(    4) = (   0.0000000   0.0412130   0.0000000), wk =   0.0277778
        k(    5) = (   0.0000000   0.0549507   0.0000000), wk =   0.0277778
        k(    6) = (   0.0000000   0.0686883   0.0000000), wk =   0.0277778
        k(    7) = (   0.0000000  -0.0824260   0.0000000), wk =   0.0138889
        k(    8) = (   0.0122627   0.0068688   0.0000000), wk =   0.0277778
        k(    9) = (   0.0122627   0.0206065   0.0000000), wk =   0.0277778
        k(   10) = (   0.0122627   0.0343442   0.0000000), wk =   0.0277778
        k(   11) = (   0.0122627   0.0480818   0.0000000), wk =   0.0277778
        k(   12) = (   0.0122627   0.0618195   0.0000000), wk =   0.0277778
        k(   13) = (   0.0122627   0.0755572   0.0000000), wk =   0.0277778
        k(   14) = (   0.0122627  -0.0755572   0.0000000), wk =   0.0277778
        k(   15) = (   0.0122627  -0.0618195   0.0000000), wk =   0.0277778
        k(   16) = (   0.0122627  -0.0480818   0.0000000), wk =   0.0277778
        k(   17) = (   0.0122627  -0.0343442   0.0000000), wk =   0.0277778
        k(   18) = (   0.0122627  -0.0206065   0.0000000), wk =   0.0277778
        k(   19) = (   0.0122627  -0.0068688   0.0000000), wk =   0.0277778
        k(   20) = (   0.0245254   0.0137377   0.0000000), wk =   0.0277778
        k(   21) = (   0.0245254   0.0274753   0.0000000), wk =   0.0277778
        k(   22) = (   0.0245254   0.0412130   0.0000000), wk =   0.0277778
        k(   23) = (   0.0245254   0.0549507   0.0000000), wk =   0.0277778
        k(   24) = (   0.0245254   0.0686883   0.0000000), wk =   0.0277778
        k(   25) = (   0.0245254   0.0824260   0.0000000), wk =   0.0277778
        k(   26) = (   0.0245254  -0.0686883   0.0000000), wk =   0.0277778
        k(   27) = (   0.0245254  -0.0549507   0.0000000), wk =   0.0277778
        k(   28) = (   0.0245254  -0.0412130   0.0000000), wk =   0.0277778
        k(   29) = (   0.0245254  -0.0274753   0.0000000), wk =   0.0277778
        k(   30) = (   0.0245254  -0.0137377   0.0000000), wk =   0.0277778
        k(   31) = (   0.0245254  -0.0000000   0.0000000), wk =   0.0277778
        k(   32) = (   0.0367881   0.0206065   0.0000000), wk =   0.0277778
        k(   33) = (   0.0367881   0.0343442   0.0000000), wk =   0.0277778
        k(   34) = (   0.0367881   0.0480818   0.0000000), wk =   0.0277778
        k(   35) = (   0.0367881   0.0618195   0.0000000), wk =   0.0277778
        k(   36) = (   0.0367881   0.0755572   0.0000000), wk =   0.0277778
        k(   37) = (   0.0367881   0.0892948   0.0000000), wk =   0.0277778
        k(   38) = (   0.0367881  -0.0618195   0.0000000), wk =   0.0277778
        k(   39) = (   0.0367881  -0.0480818   0.0000000), wk =   0.0277778
        k(   40) = (   0.0367881  -0.0343442   0.0000000), wk =   0.0277778
        k(   41) = (   0.0367881  -0.0206065   0.0000000), wk =   0.0277778
        k(   42) = (   0.0367881  -0.0068688   0.0000000), wk =   0.0277778
        k(   43) = (   0.0367881   0.0068688   0.0000000), wk =   0.0277778
        k(   44) = (   0.0490508   0.0274753   0.0000000), wk =   0.0277778
        k(   45) = (   0.0490508   0.0412130   0.0000000), wk =   0.0277778
        k(   46) = (   0.0490508   0.0549507   0.0000000), wk =   0.0277778
        k(   47) = (   0.0490508   0.0686883   0.0000000), wk =   0.0277778
        k(   48) = (   0.0490508   0.0824260   0.0000000), wk =   0.0277778
        k(   49) = (   0.0490508   0.0961637   0.0000000), wk =   0.0277778
        k(   50) = (   0.0490508  -0.0549507   0.0000000), wk =   0.0277778
        k(   51) = (   0.0490508  -0.0412130   0.0000000), wk =   0.0277778
        k(   52) = (   0.0490508  -0.0274753   0.0000000), wk =   0.0277778
        k(   53) = (   0.0490508  -0.0137377   0.0000000), wk =   0.0277778
        k(   54) = (   0.0490508   0.0000000   0.0000000), wk =   0.0277778
        k(   55) = (   0.0490508   0.0137377   0.0000000), wk =   0.0277778
        k(   56) = (   0.0613136   0.0343442   0.0000000), wk =   0.0277778
        k(   57) = (   0.0613136   0.0480818   0.0000000), wk =   0.0277778
        k(   58) = (   0.0613136   0.0618195   0.0000000), wk =   0.0277778
        k(   59) = (   0.0613136   0.0755572   0.0000000), wk =   0.0277778
        k(   60) = (   0.0613136   0.0892948   0.0000000), wk =   0.0277778
        k(   61) = (   0.0613136   0.1030325   0.0000000), wk =   0.0277778
        k(   62) = (   0.0613136  -0.0480818   0.0000000), wk =   0.0277778
        k(   63) = (   0.0613136  -0.0343442   0.0000000), wk =   0.0277778
        k(   64) = (   0.0613136  -0.0206065   0.0000000), wk =   0.0277778
        k(   65) = (   0.0613136  -0.0068688   0.0000000), wk =   0.0277778
        k(   66) = (   0.0613136   0.0068688   0.0000000), wk =   0.0277778
        k(   67) = (   0.0613136   0.0206065   0.0000000), wk =   0.0277778
        k(   68) = (  -0.0735763  -0.0412130   0.0000000), wk =   0.0138889
        k(   69) = (  -0.0735763  -0.0274753   0.0000000), wk =   0.0277778
        k(   70) = (  -0.0735763  -0.0137377   0.0000000), wk =   0.0277778
        k(   71) = (  -0.0735763   0.0000000   0.0000000), wk =   0.0277778
        k(   72) = (  -0.0735763   0.0137377   0.0000000), wk =   0.0277778
        k(   73) = (  -0.0735763   0.0274753   0.0000000), wk =   0.0277778
        k(   74) = (  -0.0735763  -0.1236390   0.0000000), wk =   0.0138889

     Dense  grid:  1558027 G-vectors     FFT dimensions: (  96, 100, 375)

     Smooth grid:   394033 G-vectors     FFT dimensions: (  64,  64, 240)

     Estimated max dynamical RAM per process >     537.27 MB

     Estimated total dynamical RAM >      19.41 GB

     Initial potential from superposition of free atoms

     starting charge  137.80836, renormalised to  138.00000

     negative rho (up, down):  5.345E-04 0.000E+00


     %%%%%%%%%%%%%%%%%%%%%%%%%%%%%%%%%%%%%%%%%%%%%%%%%%%%%%%%%%%%%%%%%%%%%%%%
     %                                                                      %
     % You are using vdW-DF, which was implemented by the Thonhauser group. %
     % Please cite the following two papers that made this development      %
     % possible and the two reviews that describe the various versions:     %
     %                                                                      %
     %   T. Thonhauser et al., PRL 115, 136402 (2015).                      %
     %   T. Thonhauser et al., PRB 76, 125112 (2007).                       %
     %   K. Berland et al., Rep. Prog. Phys. 78, 066501 (2015).             %
     %   D.C. Langreth et al., J. Phys.: Condens. Matter 21, 084203 (2009). %
     %                                                                      %
     %                                                                      %
     % If you are calculating the stress with vdW-DF, please also cite:     %
     %                                                                      %
     %   R. Sabatini et al., J. Phys.: Condens. Matter 24, 424209 (2012).   %
     %                                                                      %
     %%%%%%%%%%%%%%%%%%%%%%%%%%%%%%%%%%%%%%%%%%%%%%%%%%%%%%%%%%%%%%%%%%%%%%%%



     Adding external electric field

     Computed dipole along edir(3) : 
        Dipole                0.0224 Ry au,          0.0570 Debye
        Dipole field          0.0000 Ry au, 

        Potential amp.       -0.0037 Ry
        Total length         47.2219 bohr

     Starting wfcs are  198 randomized atomic wfcs

     total cpu time spent up to now is      387.4 secs

     Self-consistent Calculation

     iteration #  1     ecut=    55.12 Ry     beta= 0.10
     Davidson diagonalization with overlap
     ethr =  1.00E-02,  avg # of iterations =  2.0

     negative rho (up, down):  4.473E-04 0.000E+00

     Adding external electric field

     Computed dipole along edir(3) : 
        Dipole               -0.3928 Ry au,         -0.9985 Debye
        Dipole field         -0.0007 Ry au, 

        Potential amp.        0.0654 Ry
        Total length         47.2219 bohr


     total cpu time spent up to now is      745.7 secs

     total energy              =   -1362.86252157 Ry
     estimated scf accuracy    <      10.48164009 Ry

     iteration #  2     ecut=    55.12 Ry     beta= 0.10
     Davidson diagonalization with overlap
     ethr =  7.60E-03,  avg # of iterations =  4.6

     negative rho (up, down):  3.952E-04 0.000E+00

     Adding external electric field

     Computed dipole along edir(3) : 
        Dipole                1.0986 Ry au,          2.7924 Debye
        Dipole field          0.0019 Ry au, 

        Potential amp.       -0.1829 Ry
        Total length         47.2219 bohr


     total cpu time spent up to now is     1104.9 secs

     total energy              =   -1363.36246006 Ry
     estimated scf accuracy    <       5.55340912 Ry

     iteration #  3     ecut=    55.12 Ry     beta= 0.10
     Davidson diagonalization with overlap
     ethr =  4.02E-03,  avg # of iterations =  5.2

     negative rho (up, down):  4.661E-04 0.000E+00

     Adding external electric field

     Computed dipole along edir(3) : 
        Dipole               -0.0731 Ry au,         -0.1859 Debye
        Dipole field         -0.0001 Ry au, 

        Potential amp.        0.0122 Ry
        Total length         47.2219 bohr


     total cpu time spent up to now is     1394.9 secs

     total energy              =   -1363.28228744 Ry
     estimated scf accuracy    <      37.30381679 Ry

     iteration #  4     ecut=    55.12 Ry     beta= 0.10
     Davidson diagonalization with overlap
     ethr =  4.02E-03,  avg # of iterations =  1.2

     negative rho (up, down):  3.637E-04 0.000E+00

     Adding external electric field

     Computed dipole along edir(3) : 
        Dipole               -0.1563 Ry au,         -0.3973 Debye
        Dipole field         -0.0003 Ry au, 

        Potential amp.        0.0260 Ry
        Total length         47.2219 bohr


     total cpu time spent up to now is     1744.4 secs

     total energy              =   -1363.69193287 Ry
     estimated scf accuracy    <       0.64115983 Ry

     iteration #  5     ecut=    55.12 Ry     beta= 0.10
     Davidson diagonalization with overlap
     ethr =  4.65E-04,  avg # of iterations =  8.0

     negative rho (up, down):  3.174E-04 0.000E+00

     Adding external electric field

     Computed dipole along edir(3) : 
        Dipole                0.2727 Ry au,          0.6930 Debye
        Dipole field          0.0005 Ry au, 

        Potential amp.       -0.0454 Ry
        Total length         47.2219 bohr


     total cpu time spent up to now is     2276.1 secs

     total energy              =   -1363.73809360 Ry
     estimated scf accuracy    <       1.49461053 Ry

     iteration #  6     ecut=    55.12 Ry     beta= 0.10
     Davidson diagonalization with overlap
     ethr =  4.65E-04,  avg # of iterations =  2.2

     negative rho (up, down):  3.175E-04 0.000E+00

     Adding external electric field

     Computed dipole along edir(3) : 
        Dipole                0.1882 Ry au,          0.4782 Debye
        Dipole field          0.0003 Ry au, 

        Potential amp.       -0.0313 Ry
        Total length         47.2219 bohr


     total cpu time spent up to now is     2634.8 secs

     total energy              =   -1363.78044227 Ry
     estimated scf accuracy    <       1.55315051 Ry

     iteration #  7     ecut=    55.12 Ry     beta= 0.10
     Davidson diagonalization with overlap
     ethr =  4.65E-04,  avg # of iterations =  1.1

     negative rho (up, down):  3.436E-04 0.000E+00

     Adding external electric field

     Computed dipole along edir(3) : 
        Dipole                0.0975 Ry au,          0.2478 Debye
        Dipole field          0.0002 Ry au, 

        Potential amp.       -0.0162 Ry
        Total length         47.2219 bohr


     total cpu time spent up to now is     2952.1 secs

     total energy              =   -1363.77541464 Ry
     estimated scf accuracy    <       0.48429312 Ry

     iteration #  8     ecut=    55.12 Ry     beta= 0.10
     Davidson diagonalization with overlap
     ethr =  3.51E-04,  avg # of iterations =  1.0

     negative rho (up, down):  4.890E-04 0.000E+00

     Adding external electric field

     Computed dipole along edir(3) : 
        Dipole                0.0259 Ry au,          0.0658 Debye
        Dipole field          0.0000 Ry au, 

        Potential amp.       -0.0043 Ry
        Total length         47.2219 bohr


     total cpu time spent up to now is     3251.4 secs

     total energy              =   -1363.77936392 Ry
     estimated scf accuracy    <       0.04277841 Ry

     iteration #  9     ecut=    55.12 Ry     beta= 0.10
     Davidson diagonalization with overlap
     c_bands:  1 eigenvalues not converged
     c_bands:  2 eigenvalues not converged
     c_bands:  2 eigenvalues not converged
     c_bands:  1 eigenvalues not converged
     c_bands:  2 eigenvalues not converged
     c_bands:  1 eigenvalues not converged
     c_bands:  2 eigenvalues not converged
     c_bands:  2 eigenvalues not converged
     c_bands:  1 eigenvalues not converged
     c_bands:  2 eigenvalues not converged
     ethr =  3.10E-05,  avg # of iterations = 14.5

     negative rho (up, down):  4.480E-04 0.000E+00

     Adding external electric field

     Computed dipole along edir(3) : 
        Dipole                0.0710 Ry au,          0.1806 Debye
        Dipole field          0.0001 Ry au, 

        Potential amp.       -0.0118 Ry
        Total length         47.2219 bohr


     total cpu time spent up to now is     4066.8 secs

     total energy              =   -1363.79106677 Ry
     estimated scf accuracy    <       0.24080540 Ry

     iteration # 10     ecut=    55.12 Ry     beta= 0.10
     Davidson diagonalization with overlap
     c_bands:  1 eigenvalues not converged
     c_bands:  1 eigenvalues not converged
     ethr =  3.10E-05,  avg # of iterations =  2.6

     negative rho (up, down):  5.940E-04 0.000E+00

     Adding external electric field

     Computed dipole along edir(3) : 
        Dipole                0.1397 Ry au,          0.3551 Debye
        Dipole field          0.0002 Ry au, 

        Potential amp.       -0.0233 Ry
        Total length         47.2219 bohr


     total cpu time spent up to now is     4400.8 secs

     total energy              =   -1363.78840543 Ry
     estimated scf accuracy    <       0.11306470 Ry

     iteration # 11     ecut=    55.12 Ry     beta= 0.10
     Davidson diagonalization with overlap
     ethr =  3.10E-05,  avg # of iterations =  2.2

     negative rho (up, down):  5.533E-04 0.000E+00

     Adding external electric field

     Computed dipole along edir(3) : 
        Dipole                0.1021 Ry au,          0.2595 Debye
        Dipole field          0.0002 Ry au, 

        Potential amp.       -0.0170 Ry
        Total length         47.2219 bohr


     total cpu time spent up to now is     4744.1 secs

     total energy              =   -1363.79084209 Ry
     estimated scf accuracy    <       0.01520222 Ry

     iteration # 12     ecut=    55.12 Ry     beta= 0.10
     Davidson diagonalization with overlap
     c_bands:  1 eigenvalues not converged
     c_bands:  1 eigenvalues not converged
     ethr =  1.10E-05,  avg # of iterations =  7.4

     negative rho (up, down):  5.623E-04 0.000E+00

     Adding external electric field

     Computed dipole along edir(3) : 
        Dipole                0.1152 Ry au,          0.2928 Debye
        Dipole field          0.0002 Ry au, 

        Potential amp.       -0.0192 Ry
        Total length         47.2219 bohr


     total cpu time spent up to now is     5124.5 secs

     total energy              =   -1363.79191719 Ry
     estimated scf accuracy    <       0.00185361 Ry

     iteration # 13     ecut=    55.12 Ry     beta= 0.10
     Davidson diagonalization with overlap
     c_bands:  2 eigenvalues not converged
     c_bands:  1 eigenvalues not converged
     c_bands:  1 eigenvalues not converged
     c_bands:  2 eigenvalues not converged
     c_bands:  2 eigenvalues not converged
     c_bands:  2 eigenvalues not converged
     c_bands:  2 eigenvalues not converged
     c_bands:  1 eigenvalues not converged
     c_bands:  2 eigenvalues not converged
     c_bands:  1 eigenvalues not converged
     c_bands:  2 eigenvalues not converged
     c_bands:  2 eigenvalues not converged
     c_bands:  1 eigenvalues not converged
     c_bands:  2 eigenvalues not converged
     c_bands:  2 eigenvalues not converged
     c_bands:  1 eigenvalues not converged
     c_bands:  1 eigenvalues not converged
     c_bands:  2 eigenvalues not converged
     c_bands:  1 eigenvalues not converged
     c_bands:  2 eigenvalues not converged
     c_bands:  2 eigenvalues not converged
     c_bands:  1 eigenvalues not converged
     c_bands:  1 eigenvalues not converged
     c_bands:  2 eigenvalues not converged
     c_bands:  2 eigenvalues not converged
     c_bands:  1 eigenvalues not converged
     c_bands:  1 eigenvalues not converged
     c_bands:  1 eigenvalues not converged
     ethr =  1.34E-06,  avg # of iterations = 16.5

     negative rho (up, down):  4.933E-04 0.000E+00

     Adding external electric field

     Computed dipole along edir(3) : 
        Dipole                0.1217 Ry au,          0.3093 Debye
        Dipole field          0.0002 Ry au, 

        Potential amp.       -0.0203 Ry
        Total length         47.2219 bohr


     total cpu time spent up to now is     5847.5 secs

     total energy              =   -1363.79242508 Ry
     estimated scf accuracy    <       0.00807526 Ry

     iteration # 14     ecut=    55.12 Ry     beta= 0.10
     Davidson diagonalization with overlap
     c_bands:  1 eigenvalues not converged
     c_bands:  1 eigenvalues not converged
     ethr =  1.34E-06,  avg # of iterations =  3.8

     negative rho (up, down):  4.810E-04 0.000E+00

     Adding external electric field

     Computed dipole along edir(3) : 
        Dipole                0.1017 Ry au,          0.2585 Debye
        Dipole field          0.0002 Ry au, 

        Potential amp.       -0.0169 Ry
        Total length         47.2219 bohr


     total cpu time spent up to now is     6200.1 secs

     total energy              =   -1363.79192550 Ry
     estimated scf accuracy    <       0.00790858 Ry

     iteration # 15     ecut=    55.12 Ry     beta= 0.10
     Davidson diagonalization with overlap
     c_bands:  1 eigenvalues not converged
     c_bands:  1 eigenvalues not converged
     ethr =  1.34E-06,  avg # of iterations =  6.9

     negative rho (up, down):  4.653E-04 0.000E+00

     Adding external electric field

     Computed dipole along edir(3) : 
        Dipole                0.1058 Ry au,          0.2690 Debye
        Dipole field          0.0002 Ry au, 

        Potential amp.       -0.0176 Ry
        Total length         47.2219 bohr


     total cpu time spent up to now is     6663.9 secs

     total energy              =   -1363.79231224 Ry
     estimated scf accuracy    <       0.00072573 Ry

     iteration # 16     ecut=    55.12 Ry     beta= 0.10
     Davidson diagonalization with overlap
     ethr =  5.26E-07,  avg # of iterations =  4.2

     negative rho (up, down):  4.894E-04 0.000E+00

     Adding external electric field

     Computed dipole along edir(3) : 
        Dipole                0.1057 Ry au,          0.2686 Debye
        Dipole field          0.0002 Ry au, 

        Potential amp.       -0.0176 Ry
        Total length         47.2219 bohr


     total cpu time spent up to now is     7029.1 secs

     total energy              =   -1363.79235545 Ry
     estimated scf accuracy    <       0.00019966 Ry

     iteration # 17     ecut=    55.12 Ry     beta= 0.10
     Davidson diagonalization with overlap
     ethr =  1.45E-07,  avg # of iterations =  5.6

     negative rho (up, down):  4.912E-04 0.000E+00

     Adding external electric field

     Computed dipole along edir(3) : 
        Dipole                0.1034 Ry au,          0.2629 Debye
        Dipole field          0.0002 Ry au, 

        Potential amp.       -0.0172 Ry
        Total length         47.2219 bohr


     total cpu time spent up to now is     7466.9 secs

     total energy              =   -1363.79239814 Ry
     estimated scf accuracy    <       0.00010950 Ry

     iteration # 18     ecut=    55.12 Ry     beta= 0.10
     Davidson diagonalization with overlap
     ethr =  7.93E-08,  avg # of iterations =  6.7

     negative rho (up, down):  4.538E-04 0.000E+00

     Adding external electric field

     Computed dipole along edir(3) : 
        Dipole                0.1032 Ry au,          0.2622 Debye
        Dipole field          0.0002 Ry au, 

        Potential amp.       -0.0172 Ry
        Total length         47.2219 bohr


     total cpu time spent up to now is     8056.8 secs

     total energy              =   -1363.79240670 Ry
     estimated scf accuracy    <       0.00016518 Ry

     iteration # 19     ecut=    55.12 Ry     beta= 0.10
     Davidson diagonalization with overlap
     ethr =  7.93E-08,  avg # of iterations =  3.7

     negative rho (up, down):  4.254E-04 0.000E+00

     Adding external electric field

     Computed dipole along edir(3) : 
        Dipole                0.1023 Ry au,          0.2601 Debye
        Dipole field          0.0002 Ry au, 

        Potential amp.       -0.0170 Ry
        Total length         47.2219 bohr


     total cpu time spent up to now is     8425.3 secs

     total energy              =   -1363.79240382 Ry
     estimated scf accuracy    <       0.00004754 Ry

     iteration # 20     ecut=    55.12 Ry     beta= 0.10
     Davidson diagonalization with overlap
     ethr =  3.45E-08,  avg # of iterations =  5.6

     negative rho (up, down):  4.088E-04 0.000E+00

     Adding external electric field

     Computed dipole along edir(3) : 
        Dipole                0.1026 Ry au,          0.2607 Debye
        Dipole field          0.0002 Ry au, 

        Potential amp.       -0.0171 Ry
        Total length         47.2219 bohr


     total cpu time spent up to now is     8951.8 secs

     total energy              =   -1363.79241333 Ry
     estimated scf accuracy    <       0.00001716 Ry

     iteration # 21     ecut=    55.12 Ry     beta= 0.10
     Davidson diagonalization with overlap
     ethr =  1.24E-08,  avg # of iterations =  4.5

     negative rho (up, down):  3.119E-04 0.000E+00

     Adding external electric field

     Computed dipole along edir(3) : 
        Dipole                0.1214 Ry au,          0.3085 Debye
        Dipole field          0.0002 Ry au, 

        Potential amp.       -0.0202 Ry
        Total length         47.2219 bohr


     total cpu time spent up to now is     9358.7 secs

     End of self-consistent calculation

          k = 0.0000 0.0000 0.0000 ( 49351 PWs)   bands (ev):

   -47.6857 -47.6645 -47.4749 -47.4531 -47.3586 -47.3371 -31.1626 -31.0576
   -30.9791 -30.8728 -30.5236 -30.3337 -25.7119 -25.7039 -25.6748 -25.6556
   -25.6225 -25.5542 -25.5470 -25.5168 -25.4737 -25.4438 -25.4364 -25.4359
   -25.3621 -25.3288 -25.2723 -25.1884 -25.1624 -25.1584 -15.5907 -15.5052
   -15.1284 -15.0389 -14.9053 -14.8842 -14.8045 -14.7047 -14.6741 -14.6073
   -14.5046 -14.2497 -14.0679 -14.0586 -14.0349 -13.9713 -13.8715 -13.4787
    -1.9649  -1.0471  -0.7216  -0.5669  -0.5330  -0.1236  -0.0255   0.0043
     0.2776   0.2953   0.3768   0.4375   0.5014   0.5946   0.6066   1.1159
     1.3007   1.4132   1.8159   1.9983   2.0442   2.1046   2.4476   2.5252
     2.6226   2.7399   2.8847   2.8853   2.9519   3.0117   3.0371   3.0828
     3.1279   3.1500   3.2625

          k = 0.0000 0.0137 0.0000 ( 49305 PWs)   bands (ev):

   -47.6857 -47.6645 -47.4749 -47.4531 -47.3586 -47.3371 -31.1628 -31.0578
   -30.9792 -30.8729 -30.5238 -30.3337 -25.7117 -25.7037 -25.6747 -25.6548
   -25.6224 -25.5539 -25.5467 -25.5168 -25.4731 -25.4436 -25.4364 -25.4357
   -25.3617 -25.3288 -25.2723 -25.1884 -25.1624 -25.1583 -15.5920 -15.5065
   -15.1307 -15.0400 -14.9063 -14.8836 -14.8076 -14.7078 -14.6738 -14.6085
   -14.5056 -14.2510 -14.0681 -14.0590 -14.0361 -13.9715 -13.8717 -13.4789
    -1.9169  -1.0032  -0.6795  -0.5303  -0.4896  -0.1014   0.0052   0.0508
     0.3032   0.3054   0.4085   0.4583   0.5237   0.5932   0.6748   1.1280
     1.3134   1.4174   1.7993   1.9921   2.0416   2.0954   2.4368   2.4950
     2.5207   2.6388   2.8547   2.8741   2.9069   3.0019   3.0491   3.0526
     3.1073   3.1400   3.2153

          k = 0.0000 0.0275 0.0000 ( 49303 PWs)   bands (ev):

   -47.6857 -47.6645 -47.4749 -47.4531 -47.3586 -47.3371 -31.1633 -31.0583
   -30.9793 -30.8731 -30.5244 -30.3338 -25.7109 -25.7033 -25.6746 -25.6528
   -25.6220 -25.5531 -25.5461 -25.5166 -25.4716 -25.4432 -25.4364 -25.4352
   -25.3604 -25.3288 -25.2723 -25.1884 -25.1624 -25.1583 -15.5954 -15.5102
   -15.1372 -15.0429 -14.9093 -14.8823 -14.8161 -14.7159 -14.6732 -14.6120
   -14.5084 -14.2546 -14.0687 -14.0600 -14.0394 -13.9721 -13.8721 -13.4795
    -1.7771  -0.8789  -0.5597  -0.4228  -0.3655  -0.0373   0.0928   0.1857
     0.3290   0.3902   0.5008   0.5167   0.5882   0.6503   0.8135   1.1600
     1.3499   1.4269   1.7456   1.9573   2.0236   2.0418   2.3466   2.3935
     2.4142   2.4401   2.7493   2.7547   2.7783   2.9290   2.9616   3.0300
     3.0931   3.1363   3.1700

          k = 0.0000 0.0412 0.0000 ( 49309 PWs)   bands (ev):

   -47.6857 -47.6645 -47.4749 -47.4531 -47.3586 -47.3371 -31.1639 -31.0591
   -30.9795 -30.8734 -30.5251 -30.3339 -25.7099 -25.7027 -25.6745 -25.6500
   -25.6216 -25.5521 -25.5452 -25.5164 -25.4696 -25.4427 -25.4363 -25.4345
   -25.3586 -25.3288 -25.2722 -25.1883 -25.1625 -25.1583 -15.6002 -15.5151
   -15.1459 -15.0470 -14.9132 -14.8807 -14.8278 -14.7268 -14.6723 -14.6167
   -14.5121 -14.2599 -14.0694 -14.0609 -14.0440 -13.9730 -13.8727 -13.4802
    -1.5574  -0.7023  -0.3815  -0.2564  -0.1753   0.0601   0.2243   0.3772
     0.3853   0.5427   0.6018   0.6409   0.6902   0.7642   1.0080   1.1956
     1.4010   1.4387   1.6535   1.8667   1.9074   1.9655   2.1850   2.1854
     2.2943   2.3525   2.5770   2.6101   2.6106   2.7494   2.8740   2.9603
     2.9757   3.0581   3.0734

          k = 0.0000 0.0550 0.0000 ( 49253 PWs)   bands (ev):

   -47.6857 -47.6645 -47.4749 -47.4531 -47.3586 -47.3371 -31.1645 -31.0598
   -30.9797 -30.8736 -30.5258 -30.3340 -25.7089 -25.7021 -25.6744 -25.6472
   -25.6211 -25.5510 -25.5443 -25.5162 -25.4676 -25.4422 -25.4363 -25.4338
   -25.3569 -25.3288 -25.2722 -25.1883 -25.1625 -25.1583 -15.6049 -15.5200
   -15.1545 -15.0510 -14.9172 -14.8793 -14.8395 -14.7373 -14.6715 -14.6215
   -14.5157 -14.2656 -14.0702 -14.0615 -14.0487 -13.9738 -13.8731 -13.4809
    -1.2800  -0.5457  -0.1707  -0.0576   0.0557   0.1706   0.3814   0.4564
     0.5811   0.6953   0.7751   0.7938   0.8216   0.9382   1.2051   1.2273
     1.4167   1.4788   1.5610   1.7301   1.7323   1.8688   1.9883   2.0552
     2.1320   2.2192   2.3233   2.4841   2.4945   2.5663   2.6659   2.7577
     2.7650   2.9009   2.9418

          k = 0.0000 0.0687 0.0000 ( 49179 PWs)   bands (ev):

   -47.6857 -47.6645 -47.4748 -47.4531 -47.3586 -47.3371 -31.1650 -31.0604
   -30.9799 -30.8738 -30.5264 -30.3341 -25.7082 -25.7016 -25.6743 -25.6452
   -25.6208 -25.5502 -25.5436 -25.5160 -25.4661 -25.4418 -25.4363 -25.4332
   -25.3556 -25.3288 -25.2721 -25.1882 -25.1626 -25.1583 -15.6083 -15.5236
   -15.1608 -15.0540 -14.9200 -14.8783 -14.8483 -14.7448 -14.6709 -14.6250
   -14.5184 -14.2700 -14.0707 -14.0617 -14.0523 -13.9744 -13.8734 -13.4815
    -0.9828  -0.5233   0.0422   0.1286   0.2571   0.2721   0.5411   0.5586
     0.7142   0.7755   0.8133   0.9569   1.0834   1.1632   1.2006   1.3158
     1.4031   1.5093   1.5552   1.6125   1.6502   1.7990   1.8948   1.9216
     2.0410   2.0570   2.0896   2.2484   2.3097   2.4398   2.4544   2.5259
     2.5689   2.5964   2.7856

          k = 0.0000-0.0824 0.0000 ( 49168 PWs)   bands (ev):

   -47.6857 -47.6645 -47.4748 -47.4531 -47.3586 -47.3371 -31.1652 -31.0606
   -30.9800 -30.8739 -30.5266 -30.3341 -25.7079 -25.7014 -25.6743 -25.6444
   -25.6207 -25.5499 -25.5434 -25.5160 -25.4655 -25.4417 -25.4362 -25.4330
   -25.3551 -25.3288 -25.2721 -25.1882 -25.1626 -25.1583 -15.6096 -15.5249
   -15.1630 -15.0551 -14.9211 -14.8779 -14.8516 -14.7475 -14.6707 -14.6263
   -14.5193 -14.2717 -14.0709 -14.0617 -14.0536 -13.9746 -13.8735 -13.4817
    -0.7763  -0.6193   0.1545   0.2174   0.2806   0.3635   0.6109   0.6392
     0.7666   0.7779   0.8138   1.0326   1.1052   1.2223   1.3069   1.3295
     1.4902   1.4919   1.4995   1.6345   1.6827   1.7896   1.8230   1.8509
     1.9550   2.0037   2.0901   2.0903   2.1970   2.3106   2.3847   2.3954
     2.4193   2.5610   2.6997

          k = 0.0123 0.0069 0.0000 ( 49333 PWs)   bands (ev):

   -47.6853 -47.6648 -47.4745 -47.4534 -47.3582 -47.3374 -31.1597 -31.0546
   -30.9824 -30.8762 -30.5206 -30.3371 -25.7073 -25.7033 -25.6752 -25.6548
   -25.6228 -25.5494 -25.5464 -25.5173 -25.4730 -25.4441 -25.4412 -25.4312
   -25.3614 -25.3293 -25.2772 -25.1880 -25.1631 -25.1628 -15.5683 -15.4826
   -15.1255 -15.0160 -14.9101 -14.8805 -14.8023 -14.7025 -14.6776 -14.6118
   -14.5092 -14.2468 -14.0985 -14.0556 -14.0393 -14.0019 -13.8749 -13.5101
    -1.9175  -1.0015  -0.6795  -0.5332  -0.4988  -0.0742  -0.0040   0.0367
     0.3013   0.3402   0.4079   0.4934   0.5309   0.6046   0.6450   1.1374
     1.3063   1.4217   1.8093   1.9982   2.0529   2.0998   2.3891   2.5167
     2.6223   2.7054   2.8468   2.8686   2.8896   2.9345   3.0334   3.0620
     3.0978   3.1505   3.2202

          k = 0.0123 0.0206 0.0000 ( 49318 PWs)   bands (ev):

   -47.6853 -47.6648 -47.4745 -47.4534 -47.3582 -47.3374 -31.1600 -31.0550
   -30.9825 -30.8763 -30.5209 -30.3372 -25.7068 -25.7030 -25.6752 -25.6534
   -25.6226 -25.5489 -25.5459 -25.5172 -25.4720 -25.4438 -25.4412 -25.4309
   -25.3606 -25.3293 -25.2772 -25.1880 -25.1631 -25.1629 -15.5707 -15.4852
   -15.1300 -15.0181 -14.9120 -14.8796 -14.8082 -14.7082 -14.6771 -14.6141
   -14.5110 -14.2492 -14.0989 -14.0563 -14.0416 -14.0022 -13.8752 -13.5104
    -1.8235  -0.9162  -0.5979  -0.4619  -0.4182  -0.0301   0.0564   0.1233
     0.3571   0.3573   0.4711   0.5318   0.5748   0.6339   0.7502   1.1599
     1.3304   1.4298   1.7745   1.9781   2.0425   2.0724   2.3377   2.4606
     2.4860   2.5272   2.7774   2.7775   2.8418   2.9363   2.9889   3.0317
     3.0927   3.1259   3.1311

          k = 0.0123 0.0343 0.0000 ( 49298 PWs)   bands (ev):

   -47.6853 -47.6648 -47.4745 -47.4535 -47.3582 -47.3374 -31.1605 -31.0556
   -30.9827 -30.8765 -30.5216 -30.3373 -25.7059 -25.7025 -25.6751 -25.6509
   -25.6223 -25.5480 -25.5451 -25.5170 -25.4702 -25.4434 -25.4411 -25.4302
   -25.3590 -25.3293 -25.2771 -25.1879 -25.1631 -25.1629 -15.5748 -15.4895
   -15.1377 -15.0216 -14.9154 -14.8781 -14.8184 -14.7178 -14.6764 -14.6181
   -14.5141 -14.2537 -14.0994 -14.0573 -14.0455 -14.0029 -13.8757 -13.5110
    -1.6431  -0.7615  -0.4471  -0.3251  -0.2672   0.0529   0.1671   0.2870
     0.3947   0.4712   0.5912   0.6030   0.6577   0.7246   0.9175   1.1958
     1.3750   1.4412   1.7004   1.9145   1.9770   1.9987   2.2248   2.2821
     2.3492   2.3985   2.6193   2.6553   2.7071   2.8133   2.9077   2.9869
     2.9891   3.0793   3.1247

          k = 0.0123 0.0481 0.0000 ( 49276 PWs)   bands (ev):

   -47.6853 -47.6648 -47.4745 -47.4535 -47.3582 -47.3374 -31.1612 -31.0564
   -30.9829 -30.8768 -30.5223 -30.3374 -25.7049 -25.7019 -25.6750 -25.6481
   -25.6219 -25.5469 -25.5442 -25.5168 -25.4681 -25.4429 -25.4411 -25.4295
   -25.3572 -25.3293 -25.2771 -25.1878 -25.1631 -25.1630 -15.5796 -15.4945
   -15.1464 -15.0258 -14.9192 -14.8765 -14.8302 -14.7287 -14.6755 -14.6227
   -14.5176 -14.2592 -14.1000 -14.0581 -14.0502 -14.0036 -13.8762 -13.5116
    -1.3927  -0.5830  -0.2503  -0.1401  -0.0648   0.1614   0.3127   0.4587
     0.4923   0.6520   0.6918   0.7458   0.7741   0.8696   1.1253   1.2243
     1.4197   1.4621   1.5994   1.7942   1.8215   1.9064   2.0528   2.0685
     2.2156   2.2934   2.4018   2.5381   2.5608   2.6306   2.7477   2.8135
     2.9112   2.9286   3.0076

          k = 0.0123 0.0618 0.0000 ( 49229 PWs)   bands (ev):

   -47.6853 -47.6648 -47.4745 -47.4535 -47.3582 -47.3374 -31.1617 -31.0571
   -30.9831 -30.8770 -30.5230 -30.3374 -25.7040 -25.7013 -25.6749 -25.6456
   -25.6215 -25.5459 -25.5434 -25.5166 -25.4663 -25.4425 -25.4411 -25.4289
   -25.3557 -25.3293 -25.2771 -25.1878 -25.1631 -25.1630 -15.5838 -15.4989
   -15.1539 -15.0293 -14.9226 -14.8753 -14.8406 -14.7377 -14.6748 -14.6268
   -14.5207 -14.2643 -14.1006 -14.0585 -14.0543 -14.0043 -13.8765 -13.5122
    -1.1008  -0.4815  -0.0306   0.0594   0.1538   0.2674   0.4743   0.5563
     0.6696   0.7771   0.8073   0.9105   0.9536   1.0638   1.2099   1.3361
     1.3820   1.5294   1.5400   1.6548   1.6695   1.8014   1.9012   1.9418
     2.0945   2.1140   2.1423   2.3513   2.3923   2.4746   2.5629   2.5845
     2.6429   2.8044   2.8346

          k = 0.0123 0.0756 0.0000 ( 49158 PWs)   bands (ev):

   -47.6853 -47.6648 -47.4745 -47.4535 -47.3582 -47.3374 -31.1621 -31.0574
   -30.9832 -30.8771 -30.5234 -30.3375 -25.7034 -25.7010 -25.6748 -25.6442
   -25.6213 -25.5454 -25.5430 -25.5165 -25.4653 -25.4423 -25.4411 -25.4285
   -25.3548 -25.3293 -25.2770 -25.1877 -25.1631 -25.1630 -15.5862 -15.5014
   -15.1582 -15.0314 -14.9245 -14.8746 -14.8468 -14.7429 -14.6744 -14.6291
   -14.5224 -14.2674 -14.1009 -14.0587 -14.0567 -14.0046 -13.8767 -13.5125
    -0.8211  -0.5427   0.1572   0.2124   0.3103   0.3245   0.6202   0.6479
     0.7674   0.7918   0.8407   1.0219   1.1279   1.2235   1.2649   1.3109
     1.4833   1.4837   1.5055   1.6323   1.6819   1.7717   1.7970   1.8481
     1.9453   1.9676   2.0906   2.1010   2.2103   2.3381   2.3964   2.4140
     2.5295   2.5682   2.7033

          k = 0.0123-0.0756 0.0000 ( 49158 PWs)   bands (ev):

   -47.6853 -47.6648 -47.4745 -47.4535 -47.3582 -47.3374 -31.1621 -31.0574
   -30.9832 -30.8771 -30.5234 -30.3375 -25.7034 -25.7010 -25.6748 -25.6442
   -25.6213 -25.5454 -25.5430 -25.5165 -25.4653 -25.4423 -25.4411 -25.4285
   -25.3548 -25.3293 -25.2770 -25.1877 -25.1631 -25.1630 -15.5862 -15.5014
   -15.1582 -15.0314 -14.9245 -14.8746 -14.8468 -14.7429 -14.6744 -14.6291
   -14.5224 -14.2674 -14.1009 -14.0587 -14.0567 -14.0046 -13.8767 -13.5125
    -0.8211  -0.5427   0.1572   0.2124   0.3103   0.3245   0.6202   0.6479
     0.7674   0.7918   0.8407   1.0219   1.1279   1.2235   1.2649   1.3109
     1.4833   1.4837   1.5055   1.6323   1.6819   1.7717   1.7970   1.8481
     1.9453   1.9676   2.0906   2.1010   2.2103   2.3381   2.3964   2.4140
     2.5296   2.5682   2.7033

          k = 0.0123-0.0618 0.0000 ( 49229 PWs)   bands (ev):

   -47.6853 -47.6648 -47.4745 -47.4535 -47.3582 -47.3374 -31.1617 -31.0571
   -30.9831 -30.8770 -30.5230 -30.3374 -25.7040 -25.7013 -25.6749 -25.6456
   -25.6215 -25.5459 -25.5434 -25.5166 -25.4663 -25.4425 -25.4411 -25.4289
   -25.3557 -25.3293 -25.2771 -25.1878 -25.1631 -25.1630 -15.5838 -15.4989
   -15.1539 -15.0293 -14.9226 -14.8753 -14.8406 -14.7377 -14.6748 -14.6268
   -14.5207 -14.2643 -14.1006 -14.0585 -14.0543 -14.0043 -13.8765 -13.5122
    -1.1008  -0.4815  -0.0306   0.0594   0.1538   0.2674   0.4743   0.5563
     0.6696   0.7771   0.8072   0.9105   0.9536   1.0638   1.2099   1.3361
     1.3820   1.5294   1.5400   1.6548   1.6695   1.8014   1.9011   1.9418
     2.0945   2.1140   2.1423   2.3513   2.3923   2.4745   2.5629   2.5845
     2.6429   2.8044   2.8347

          k = 0.0123-0.0481 0.0000 ( 49276 PWs)   bands (ev):

   -47.6853 -47.6648 -47.4745 -47.4535 -47.3582 -47.3374 -31.1612 -31.0564
   -30.9829 -30.8768 -30.5223 -30.3374 -25.7049 -25.7019 -25.6750 -25.6481
   -25.6219 -25.5469 -25.5442 -25.5168 -25.4681 -25.4429 -25.4411 -25.4295
   -25.3572 -25.3293 -25.2771 -25.1878 -25.1631 -25.1630 -15.5796 -15.4945
   -15.1464 -15.0258 -14.9192 -14.8765 -14.8302 -14.7287 -14.6755 -14.6227
   -14.5176 -14.2592 -14.1000 -14.0581 -14.0502 -14.0036 -13.8762 -13.5116
    -1.3927  -0.5830  -0.2503  -0.1401  -0.0648   0.1614   0.3127   0.4587
     0.4923   0.6520   0.6918   0.7458   0.7741   0.8696   1.1253   1.2243
     1.4197   1.4621   1.5994   1.7942   1.8215   1.9064   2.0528   2.0685
     2.2156   2.2934   2.4018   2.5381   2.5608   2.6306   2.7477   2.8134
     2.9113   2.9284   3.0077

          k = 0.0123-0.0343 0.0000 ( 49298 PWs)   bands (ev):

   -47.6853 -47.6648 -47.4745 -47.4535 -47.3582 -47.3374 -31.1605 -31.0556
   -30.9827 -30.8765 -30.5216 -30.3373 -25.7059 -25.7025 -25.6751 -25.6509
   -25.6223 -25.5480 -25.5451 -25.5170 -25.4702 -25.4434 -25.4411 -25.4302
   -25.3590 -25.3293 -25.2771 -25.1879 -25.1631 -25.1629 -15.5748 -15.4895
   -15.1377 -15.0216 -14.9154 -14.8781 -14.8184 -14.7178 -14.6764 -14.6181
   -14.5141 -14.2537 -14.0994 -14.0573 -14.0455 -14.0029 -13.8757 -13.5110
    -1.6431  -0.7615  -0.4471  -0.3251  -0.2672   0.0529   0.1671   0.2870
     0.3947   0.4712   0.5912   0.6030   0.6577   0.7246   0.9175   1.1958
     1.3750   1.4412   1.7004   1.9145   1.9770   1.9987   2.2248   2.2821
     2.3492   2.3985   2.6193   2.6553   2.7070   2.8134   2.9077   2.9869
     2.9891   3.0791   3.1245

          k = 0.0123-0.0206 0.0000 ( 49318 PWs)   bands (ev):

   -47.6853 -47.6648 -47.4745 -47.4534 -47.3582 -47.3374 -31.1600 -31.0550
   -30.9825 -30.8763 -30.5209 -30.3372 -25.7068 -25.7030 -25.6752 -25.6534
   -25.6226 -25.5489 -25.5459 -25.5172 -25.4720 -25.4438 -25.4412 -25.4309
   -25.3606 -25.3293 -25.2772 -25.1880 -25.1631 -25.1629 -15.5707 -15.4852
   -15.1300 -15.0181 -14.9120 -14.8796 -14.8082 -14.7082 -14.6771 -14.6141
   -14.5110 -14.2492 -14.0989 -14.0563 -14.0416 -14.0022 -13.8752 -13.5104
    -1.8235  -0.9162  -0.5979  -0.4619  -0.4182  -0.0301   0.0564   0.1233
     0.3571   0.3573   0.4711   0.5318   0.5748   0.6339   0.7502   1.1599
     1.3304   1.4298   1.7745   1.9781   2.0425   2.0724   2.3377   2.4606
     2.4859   2.5272   2.7774   2.7775   2.8418   2.9363   2.9889   3.0318
     3.0928   3.1260   3.1323

          k = 0.0123-0.0069 0.0000 ( 49333 PWs)   bands (ev):

   -47.6853 -47.6648 -47.4745 -47.4534 -47.3582 -47.3374 -31.1597 -31.0546
   -30.9824 -30.8762 -30.5206 -30.3371 -25.7073 -25.7033 -25.6752 -25.6548
   -25.6228 -25.5494 -25.5464 -25.5173 -25.4730 -25.4441 -25.4412 -25.4312
   -25.3614 -25.3293 -25.2772 -25.1880 -25.1631 -25.1628 -15.5683 -15.4826
   -15.1255 -15.0160 -14.9101 -14.8805 -14.8023 -14.7025 -14.6776 -14.6118
   -14.5092 -14.2468 -14.0985 -14.0556 -14.0393 -14.0019 -13.8749 -13.5101
    -1.9175  -1.0015  -0.6795  -0.5332  -0.4988  -0.0742  -0.0040   0.0367
     0.3013   0.3402   0.4079   0.4934   0.5309   0.6046   0.6450   1.1374
     1.3063   1.4217   1.8093   1.9982   2.0529   2.0998   2.3891   2.5167
     2.6223   2.7053   2.8468   2.8686   2.8896   2.9345   3.0334   3.0620
     3.0978   3.1504   3.2204

          k = 0.0245 0.0137 0.0000 ( 49321 PWs)   bands (ev):

   -47.6843 -47.6659 -47.4734 -47.4545 -47.3571 -47.3385 -31.1509 -31.0458
   -30.9920 -30.8859 -30.5115 -30.3471 -25.7017 -25.6937 -25.6765 -25.6525
   -25.6239 -25.5447 -25.5355 -25.5185 -25.4710 -25.4550 -25.4451 -25.4176
   -25.3595 -25.3306 -25.2914 -25.1867 -25.1772 -25.1641 -15.5019 -15.4159
   -15.1171 -14.9484 -14.9239 -14.8698 -14.7957 -14.6955 -14.6877 -14.6250
   -14.5223 -14.2382 -14.1864 -14.0916 -14.0522 -14.0461 -13.8849 -13.6009
    -1.7794  -0.8690  -0.5568  -0.4481  -0.3953   0.0578   0.0650   0.1231
     0.3744   0.4676   0.4992   0.6062   0.6643   0.6667   0.7307   1.1972
     1.3198   1.4472   1.7830   1.9826   2.0733   2.0738   2.2531   2.4707
     2.5761   2.5888   2.6691   2.7081   2.8373   2.8810   2.9526   3.0146
     3.0482   3.0567   3.1106

          k = 0.0245 0.0275 0.0000 ( 49296 PWs)   bands (ev):

   -47.6843 -47.6659 -47.4734 -47.4545 -47.3571 -47.3385 -31.1513 -31.0463
   -30.9921 -30.8860 -30.5120 -30.3471 -25.7013 -25.6930 -25.6765 -25.6506
   -25.6237 -25.5441 -25.5348 -25.5184 -25.4697 -25.4551 -25.4448 -25.4171
   -25.3583 -25.3307 -25.2914 -25.1867 -25.1772 -25.1642 -15.5051 -15.4193
   -15.1229 -14.9512 -14.9262 -14.8686 -14.8035 -14.7030 -14.6872 -14.6276
   -14.5243 -14.2414 -14.1867 -14.0919 -14.0550 -14.0469 -13.8853 -13.6011
    -1.6444  -0.7492  -0.4426  -0.3534  -0.2957   0.1305   0.1442   0.2299
     0.4577   0.4949   0.5929   0.6615   0.7225   0.7354   0.8654   1.2246
     1.3510   1.4607   1.7288   1.9359   2.0104   2.0285   2.1952   2.3276
     2.3992   2.4584   2.5729   2.6352   2.7881   2.7897   2.8965   2.9418
     2.9729   3.0237   3.0957

          k = 0.0245 0.0412 0.0000 ( 49275 PWs)   bands (ev):

   -47.6843 -47.6659 -47.4734 -47.4545 -47.3571 -47.3385 -31.1519 -31.0470
   -30.9923 -30.8862 -30.5127 -30.3472 -25.7008 -25.6920 -25.6764 -25.6481
   -25.6235 -25.5432 -25.5338 -25.5183 -25.4678 -25.4551 -25.4445 -25.4164
   -25.3566 -25.3308 -25.2915 -25.1866 -25.1772 -25.1642 -15.5095 -15.4239
   -15.1308 -14.9550 -14.9292 -14.8672 -14.8141 -14.7130 -14.6865 -14.6312
   -14.5269 -14.2461 -14.1870 -14.0922 -14.0589 -14.0478 -13.8857 -13.6013
    -1.4316  -0.5778  -0.2707  -0.2054  -0.1427   0.2307   0.2721   0.3982
     0.5461   0.5928   0.7343   0.7453   0.8071   0.8626   1.0495   1.2581
     1.3957   1.4800   1.6403   1.8390   1.8911   1.9246   2.0741   2.1026
     2.2306   2.3647   2.4082   2.5387   2.6441   2.6555   2.7534   2.8072
     2.8942   3.0028   3.0160

          k = 0.0245 0.0550 0.0000 ( 49248 PWs)   bands (ev):

   -47.6843 -47.6659 -47.4734 -47.4546 -47.3571 -47.3385 -31.1525 -31.0477
   -30.9924 -30.8864 -30.5134 -30.3472 -25.7002 -25.6911 -25.6763 -25.6455
   -25.6232 -25.5424 -25.5328 -25.5182 -25.4659 -25.4551 -25.4442 -25.4157
   -25.3550 -25.3309 -25.2915 -25.1866 -25.1772 -25.1643 -15.5139 -15.4286
   -15.1386 -14.9588 -14.9323 -14.8658 -14.8248 -14.7226 -14.6858 -14.6349
   -14.5296 -14.2511 -14.1873 -14.0925 -14.0629 -14.0485 -13.8860 -13.6016
    -1.1615  -0.4249  -0.0608  -0.0266   0.0423   0.3463   0.4253   0.5988
     0.6317   0.7608   0.8336   0.8920   0.9177   1.0180   1.2062   1.3194
     1.4155   1.5214   1.5509   1.6985   1.7548   1.7926   1.8990   1.9182
     2.1057   2.1868   2.1936   2.4012   2.4456   2.4612   2.5965   2.6320
     2.7865   2.8420   2.9923

          k = 0.0245 0.0687 0.0000 ( 49211 PWs)   bands (ev):

   -47.6843 -47.6659 -47.4734 -47.4546 -47.3571 -47.3385 -31.1529 -31.0482
   -30.9925 -30.8865 -30.5139 -30.3472 -25.6998 -25.6904 -25.6763 -25.6436
   -25.6231 -25.5418 -25.5321 -25.5181 -25.4646 -25.4551 -25.4439 -25.4152
   -25.3538 -25.3310 -25.2915 -25.1865 -25.1773 -25.1643 -15.5171 -15.4319
   -15.1443 -14.9615 -14.9345 -14.8649 -14.8327 -14.7295 -14.6854 -14.6375
   -14.5315 -14.2549 -14.1875 -14.0927 -14.0659 -14.0488 -13.8862 -13.6018
    -0.8702  -0.4039   0.1350   0.1643   0.2211   0.4366   0.5831   0.7470
     0.7663   0.8251   0.9013   1.0332   1.0784   1.1554   1.2554   1.3435
     1.4694   1.4796   1.5280   1.6162   1.6925   1.6998   1.7970   1.8153
     1.9491   1.9642   2.1012   2.1099   2.2053   2.3521   2.4198   2.5408
     2.5806   2.7092   2.7241

          k = 0.0245 0.0824 0.0000 ( 49206 PWs)   bands (ev):

   -47.6843 -47.6659 -47.4734 -47.4546 -47.3571 -47.3385 -31.1531 -31.0484
   -30.9926 -30.8866 -30.5141 -30.3473 -25.6996 -25.6901 -25.6763 -25.6429
   -25.6230 -25.5416 -25.5318 -25.5180 -25.4641 -25.4551 -25.4439 -25.4150
   -25.3534 -25.3310 -25.2915 -25.1865 -25.1773 -25.1643 -15.5183 -15.4331
   -15.1464 -14.9625 -14.9354 -14.8645 -14.8357 -14.7319 -14.6852 -14.6385
   -14.5322 -14.2563 -14.1876 -14.0928 -14.0670 -14.0489 -13.8862 -13.6019
    -0.6703  -0.4962   0.2040   0.2920   0.3084   0.4565   0.6830   0.7748
     0.8066   0.8285   0.9440   1.0748   1.1669   1.2116   1.2810   1.3529
     1.4447   1.4633   1.5891   1.6045   1.6608   1.7027   1.7259   1.7497
     1.8452   1.9336   1.9689   2.0274   2.2375   2.2512   2.3158   2.4195
     2.5575   2.5737   2.6566

          k = 0.0245-0.0687 0.0000 ( 49211 PWs)   bands (ev):

   -47.6843 -47.6659 -47.4734 -47.4546 -47.3571 -47.3385 -31.1529 -31.0482
   -30.9925 -30.8865 -30.5139 -30.3472 -25.6998 -25.6904 -25.6763 -25.6436
   -25.6231 -25.5418 -25.5321 -25.5181 -25.4646 -25.4551 -25.4439 -25.4152
   -25.3538 -25.3310 -25.2915 -25.1865 -25.1773 -25.1643 -15.5171 -15.4319
   -15.1443 -14.9615 -14.9345 -14.8649 -14.8327 -14.7295 -14.6854 -14.6375
   -14.5315 -14.2549 -14.1875 -14.0927 -14.0659 -14.0488 -13.8862 -13.6018
    -0.8702  -0.4039   0.1350   0.1643   0.2211   0.4366   0.5831   0.7470
     0.7663   0.8251   0.9013   1.0332   1.0784   1.1554   1.2554   1.3435
     1.4694   1.4796   1.5280   1.6162   1.6925   1.6998   1.7970   1.8153
     1.9491   1.9642   2.1012   2.1099   2.2053   2.3521   2.4198   2.5408
     2.5806   2.7093   2.7241

          k = 0.0245-0.0550 0.0000 ( 49248 PWs)   bands (ev):

   -47.6843 -47.6659 -47.4734 -47.4546 -47.3571 -47.3385 -31.1525 -31.0477
   -30.9924 -30.8864 -30.5134 -30.3472 -25.7002 -25.6911 -25.6763 -25.6455
   -25.6232 -25.5424 -25.5328 -25.5182 -25.4659 -25.4551 -25.4442 -25.4157
   -25.3550 -25.3309 -25.2915 -25.1866 -25.1772 -25.1643 -15.5139 -15.4286
   -15.1386 -14.9588 -14.9323 -14.8658 -14.8248 -14.7226 -14.6858 -14.6349
   -14.5296 -14.2511 -14.1873 -14.0925 -14.0629 -14.0485 -13.8860 -13.6016
    -1.1615  -0.4249  -0.0608  -0.0266   0.0423   0.3463   0.4253   0.5988
     0.6317   0.7608   0.8336   0.8920   0.9177   1.0180   1.2062   1.3194
     1.4155   1.5214   1.5509   1.6985   1.7548   1.7926   1.8990   1.9182
     2.1057   2.1868   2.1936   2.4012   2.4456   2.4612   2.5966   2.6319
     2.7867   2.8420   2.9923

          k = 0.0245-0.0412 0.0000 ( 49275 PWs)   bands (ev):

   -47.6843 -47.6659 -47.4734 -47.4545 -47.3571 -47.3385 -31.1519 -31.0470
   -30.9923 -30.8862 -30.5127 -30.3472 -25.7008 -25.6920 -25.6764 -25.6481
   -25.6235 -25.5432 -25.5338 -25.5183 -25.4678 -25.4551 -25.4445 -25.4164
   -25.3566 -25.3308 -25.2915 -25.1866 -25.1772 -25.1642 -15.5095 -15.4239
   -15.1308 -14.9550 -14.9292 -14.8672 -14.8141 -14.7130 -14.6865 -14.6312
   -14.5269 -14.2461 -14.1870 -14.0922 -14.0589 -14.0478 -13.8857 -13.6013
    -1.4316  -0.5778  -0.2707  -0.2054  -0.1427   0.2307   0.2721   0.3982
     0.5461   0.5928   0.7343   0.7453   0.8071   0.8626   1.0495   1.2581
     1.3957   1.4800   1.6403   1.8390   1.8911   1.9246   2.0741   2.1026
     2.2306   2.3647   2.4082   2.5387   2.6441   2.6555   2.7534   2.8072
     2.8942   3.0028   3.0160

          k = 0.0245-0.0275 0.0000 ( 49296 PWs)   bands (ev):

   -47.6843 -47.6659 -47.4734 -47.4545 -47.3571 -47.3385 -31.1513 -31.0463
   -30.9921 -30.8860 -30.5120 -30.3471 -25.7013 -25.6930 -25.6765 -25.6506
   -25.6237 -25.5441 -25.5348 -25.5184 -25.4697 -25.4551 -25.4448 -25.4171
   -25.3583 -25.3307 -25.2914 -25.1867 -25.1772 -25.1642 -15.5051 -15.4193
   -15.1229 -14.9512 -14.9262 -14.8686 -14.8035 -14.7030 -14.6872 -14.6276
   -14.5243 -14.2414 -14.1867 -14.0919 -14.0550 -14.0469 -13.8853 -13.6011
    -1.6444  -0.7492  -0.4426  -0.3534  -0.2957   0.1305   0.1442   0.2299
     0.4577   0.4949   0.5929   0.6615   0.7225   0.7354   0.8654   1.2246
     1.3510   1.4607   1.7288   1.9359   2.0104   2.0285   2.1952   2.3276
     2.3992   2.4583   2.5728   2.6351   2.7880   2.7898   2.8965   2.9417
     2.9729   3.0235   3.0927

          k = 0.0245-0.0137 0.0000 ( 49321 PWs)   bands (ev):

   -47.6843 -47.6659 -47.4734 -47.4545 -47.3571 -47.3385 -31.1509 -31.0458
   -30.9920 -30.8859 -30.5115 -30.3471 -25.7017 -25.6937 -25.6765 -25.6525
   -25.6239 -25.5447 -25.5355 -25.5185 -25.4710 -25.4550 -25.4451 -25.4176
   -25.3595 -25.3306 -25.2914 -25.1867 -25.1772 -25.1641 -15.5019 -15.4159
   -15.1171 -14.9484 -14.9239 -14.8698 -14.7957 -14.6955 -14.6877 -14.6250
   -14.5223 -14.2382 -14.1864 -14.0916 -14.0522 -14.0461 -13.8849 -13.6009
    -1.7794  -0.8690  -0.5568  -0.4481  -0.3953   0.0578   0.0650   0.1231
     0.3744   0.4676   0.4992   0.6062   0.6643   0.6667   0.7307   1.1972
     1.3198   1.4472   1.7830   1.9826   2.0733   2.0738   2.2531   2.4707
     2.5760   2.5890   2.6693   2.7081   2.8374   2.8810   2.9526   3.0149
     3.0481   3.0570   3.1117

          k = 0.0245-0.0000 0.0000 ( 49327 PWs)   bands (ev):

   -47.6843 -47.6659 -47.4734 -47.4545 -47.3571 -47.3385 -31.1508 -31.0456
   -30.9920 -30.8858 -30.5113 -30.3471 -25.7019 -25.6939 -25.6765 -25.6532
   -25.6239 -25.5449 -25.5358 -25.5186 -25.4715 -25.4550 -25.4451 -25.4178
   -25.3599 -25.3306 -25.2914 -25.1867 -25.1772 -25.1641 -15.5007 -15.4147
   -15.1149 -14.9473 -14.9231 -14.8703 -14.7928 -14.6928 -14.6879 -14.6240
   -14.5216 -14.2371 -14.1864 -14.0915 -14.0512 -14.0457 -13.8848 -13.6008
    -1.8256  -0.9111  -0.5968  -0.4804  -0.4297   0.0272   0.0425   0.0866
     0.3463   0.4590   0.4668   0.5874   0.6468   0.6554   0.6688   1.1868
     1.3091   1.4418   1.8005   1.9947   2.0835   2.0878   2.2732   2.5088
     2.6662   2.6923   2.7032   2.7291   2.8314   2.8875   2.9546   3.0235
     3.0799   3.0935   3.1272

          k = 0.0368 0.0206 0.0000 ( 49282 PWs)   bands (ev):

   -47.6826 -47.6676 -47.4717 -47.4563 -47.3554 -47.3402 -31.1369 -31.0318
   -31.0072 -30.9012 -30.4970 -30.3628 -25.6992 -25.6786 -25.6719 -25.6491
   -25.6256 -25.5420 -25.5207 -25.5132 -25.4772 -25.4679 -25.4467 -25.3958
   -25.3564 -25.3328 -25.3140 -25.1996 -25.1845 -25.1662 -15.3945 -15.3080
   -15.1030 -14.9453 -14.8529 -14.8393 -14.7845 -14.7036 -14.6839 -14.6450
   -14.5424 -14.3234 -14.2302 -14.2226 -14.0722 -14.0325 -13.9006 -13.7415
    -1.5619  -0.6627  -0.3658  -0.3543  -0.2327   0.1464   0.2431   0.2654
     0.4974   0.6430   0.6482   0.7524   0.7827   0.8527   0.9081   1.2781
     1.3338   1.4942   1.7234   1.9251   1.9787   2.0577   2.1251   2.3167
     2.3777   2.4551   2.5189   2.5667   2.6820   2.7810   2.8233   2.9071
     2.9185   3.0006   3.0709

          k = 0.0368 0.0343 0.0000 ( 49285 PWs)   bands (ev):

   -47.6826 -47.6676 -47.4717 -47.4563 -47.3554 -47.3402 -31.1374 -31.0323
   -31.0073 -30.9013 -30.4976 -30.3628 -25.6988 -25.6786 -25.6712 -25.6470
   -25.6256 -25.5413 -25.5207 -25.5124 -25.4773 -25.4664 -25.4466 -25.3952
   -25.3551 -25.3330 -25.3141 -25.1997 -25.1845 -25.1662 -15.3982 -15.3119
   -15.1093 -14.9472 -14.8517 -14.8424 -14.7929 -14.7032 -14.6919 -14.6470
   -14.5437 -14.3231 -14.2301 -14.2259 -14.0750 -14.0333 -13.9008 -13.7412
    -1.3947  -0.5202  -0.2782  -0.2309  -0.1293   0.2540   0.3499   0.3507
     0.6006   0.6799   0.7584   0.8139   0.8939   0.9645   1.0083   1.3021
     1.3662   1.5209   1.6570   1.8441   1.9032   1.9389   2.0784   2.1349
     2.2014   2.3777   2.4260   2.5097   2.6095   2.6592   2.6972   2.8153
     2.8577   2.9620   3.0095

          k = 0.0368 0.0481 0.0000 ( 49283 PWs)   bands (ev):

   -47.6826 -47.6676 -47.4717 -47.4563 -47.3554 -47.3402 -31.1379 -31.0330
   -31.0074 -30.9014 -30.4983 -30.3628 -25.6982 -25.6786 -25.6703 -25.6446
   -25.6257 -25.5406 -25.5207 -25.5115 -25.4774 -25.4647 -25.4465 -25.3946
   -25.3535 -25.3333 -25.3142 -25.1998 -25.1844 -25.1663 -15.4023 -15.3163
   -15.1164 -14.9493 -14.8504 -14.8460 -14.8027 -14.7027 -14.7009 -14.6494
   -14.5452 -14.3229 -14.2320 -14.2281 -14.0782 -14.0340 -13.9011 -13.7409
    -1.1605  -0.3522  -0.1779  -0.0498   0.0208   0.3946   0.4625   0.5075
     0.7410   0.7420   0.8944   0.9010   1.0275   1.0342   1.1591   1.3606
     1.3988   1.5507   1.5756   1.7207   1.7780   1.8147   1.9262   1.9474
     2.0589   2.2298   2.2604   2.4107   2.4452   2.4845   2.5820   2.6681
     2.8374   2.8749   2.9375

          k = 0.0368 0.0618 0.0000 ( 49250 PWs)   bands (ev):

   -47.6826 -47.6676 -47.4717 -47.4563 -47.3554 -47.3402 -31.1384 -31.0335
   -31.0074 -30.9015 -30.4988 -30.3627 -25.6978 -25.6786 -25.6695 -25.6425
   -25.6257 -25.5399 -25.5206 -25.5106 -25.4775 -25.4631 -25.4464 -25.3940
   -25.3522 -25.3335 -25.3143 -25.1999 -25.1844 -25.1663 -15.4059 -15.3200
   -15.1225 -14.9511 -14.8493 -14.8490 -14.8112 -14.7085 -14.7023 -14.6516
   -14.5465 -14.3227 -14.2355 -14.2282 -14.0810 -14.0344 -13.9012 -13.7408
    -0.8840  -0.2563  -0.0774   0.1694   0.1977   0.5471   0.5737   0.6937
     0.8495   0.8742   0.9672   1.0215   1.1082   1.1120   1.2393   1.3826
     1.4906   1.5088   1.5584   1.5810   1.6324   1.7416   1.7737   1.8369
     1.9688   2.0094   2.1161   2.1286   2.2469   2.3367   2.4838   2.5813
     2.6614   2.7144   2.8762

          k = 0.0368 0.0756 0.0000 ( 49246 PWs)   bands (ev):

   -47.6826 -47.6676 -47.4717 -47.4563 -47.3554 -47.3402 -31.1387 -31.0338
   -31.0075 -30.9016 -30.4991 -30.3627 -25.6975 -25.6786 -25.6691 -25.6413
   -25.6258 -25.5395 -25.5206 -25.5102 -25.4776 -25.4623 -25.4464 -25.3937
   -25.3514 -25.3336 -25.3143 -25.1999 -25.1843 -25.1664 -15.4080 -15.3222
   -15.1260 -14.9522 -14.8508 -14.8487 -14.8161 -14.7128 -14.7021 -14.6528
   -14.5473 -14.3226 -14.2378 -14.2281 -14.0826 -14.0346 -13.9013 -13.7407
    -0.6180  -0.3172  -0.0119   0.3462   0.3867   0.6193   0.6738   0.8200
     0.8831   0.9795   1.0068   1.0859   1.1607   1.2051   1.2824   1.3205
     1.4208   1.5051   1.5184   1.5796   1.5953   1.6917   1.7173   1.7959
     1.8031   1.8867   1.9121   2.1072   2.1781   2.2751   2.3044   2.4752
     2.5117   2.6715   2.6755

          k = 0.0368 0.0893 0.0000 ( 49246 PWs)   bands (ev):

   -47.6826 -47.6676 -47.4717 -47.4563 -47.3554 -47.3402 -31.1387 -31.0338
   -31.0075 -30.9016 -30.4991 -30.3627 -25.6975 -25.6786 -25.6691 -25.6413
   -25.6258 -25.5395 -25.5206 -25.5102 -25.4776 -25.4623 -25.4464 -25.3937
   -25.3514 -25.3336 -25.3143 -25.1999 -25.1843 -25.1664 -15.4080 -15.3222
   -15.1260 -14.9522 -14.8508 -14.8487 -14.8161 -14.7128 -14.7021 -14.6528
   -14.5473 -14.3226 -14.2378 -14.2281 -14.0826 -14.0346 -13.9013 -13.7407
    -0.6180  -0.3172  -0.0119   0.3462   0.3867   0.6193   0.6738   0.8200
     0.8831   0.9795   1.0068   1.0859   1.1607   1.2051   1.2824   1.3205
     1.4208   1.5051   1.5184   1.5796   1.5953   1.6917   1.7173   1.7959
     1.8031   1.8867   1.9121   2.1072   2.1781   2.2751   2.3044   2.4752
     2.5116   2.6715   2.6755

          k = 0.0368-0.0618 0.0000 ( 49250 PWs)   bands (ev):

   -47.6826 -47.6676 -47.4717 -47.4563 -47.3554 -47.3402 -31.1384 -31.0335
   -31.0074 -30.9015 -30.4988 -30.3627 -25.6978 -25.6786 -25.6695 -25.6425
   -25.6257 -25.5399 -25.5206 -25.5106 -25.4775 -25.4631 -25.4464 -25.3940
   -25.3522 -25.3335 -25.3143 -25.1999 -25.1844 -25.1663 -15.4059 -15.3200
   -15.1225 -14.9511 -14.8493 -14.8490 -14.8112 -14.7085 -14.7023 -14.6516
   -14.5465 -14.3227 -14.2355 -14.2282 -14.0810 -14.0344 -13.9012 -13.7408
    -0.8840  -0.2563  -0.0774   0.1694   0.1977   0.5471   0.5737   0.6937
     0.8495   0.8742   0.9672   1.0215   1.1082   1.1119   1.2393   1.3826
     1.4906   1.5088   1.5584   1.5810   1.6324   1.7416   1.7737   1.8369
     1.9688   2.0094   2.1161   2.1286   2.2469   2.3367   2.4838   2.5813
     2.6613   2.7143   2.8768

          k = 0.0368-0.0481 0.0000 ( 49283 PWs)   bands (ev):

   -47.6826 -47.6676 -47.4717 -47.4563 -47.3554 -47.3402 -31.1379 -31.0330
   -31.0074 -30.9014 -30.4983 -30.3628 -25.6982 -25.6786 -25.6703 -25.6446
   -25.6257 -25.5406 -25.5207 -25.5115 -25.4774 -25.4647 -25.4465 -25.3946
   -25.3535 -25.3333 -25.3142 -25.1998 -25.1844 -25.1663 -15.4023 -15.3163
   -15.1164 -14.9493 -14.8504 -14.8460 -14.8027 -14.7027 -14.7009 -14.6494
   -14.5452 -14.3229 -14.2320 -14.2281 -14.0782 -14.0340 -13.9011 -13.7409
    -1.1605  -0.3522  -0.1779  -0.0498   0.0208   0.3946   0.4625   0.5075
     0.7410   0.7420   0.8944   0.9010   1.0275   1.0342   1.1591   1.3606
     1.3988   1.5507   1.5756   1.7207   1.7780   1.8147   1.9262   1.9474
     2.0589   2.2298   2.2604   2.4107   2.4452   2.4844   2.5820   2.6680
     2.8374   2.8745   2.9374

          k = 0.0368-0.0343 0.0000 ( 49285 PWs)   bands (ev):

   -47.6826 -47.6676 -47.4717 -47.4563 -47.3554 -47.3402 -31.1374 -31.0323
   -31.0073 -30.9013 -30.4976 -30.3628 -25.6988 -25.6786 -25.6712 -25.6470
   -25.6256 -25.5413 -25.5207 -25.5124 -25.4773 -25.4664 -25.4466 -25.3952
   -25.3551 -25.3330 -25.3141 -25.1997 -25.1845 -25.1662 -15.3982 -15.3119
   -15.1093 -14.9472 -14.8517 -14.8424 -14.7929 -14.7032 -14.6919 -14.6470
   -14.5437 -14.3231 -14.2301 -14.2259 -14.0750 -14.0333 -13.9008 -13.7412
    -1.3947  -0.5202  -0.2782  -0.2309  -0.1293   0.2540   0.3499   0.3507
     0.6005   0.6799   0.7584   0.8139   0.8939   0.9645   1.0083   1.3021
     1.3662   1.5209   1.6570   1.8441   1.9032   1.9389   2.0784   2.1349
     2.2014   2.3777   2.4260   2.5097   2.6095   2.6591   2.6972   2.8155
     2.8577   2.9616   3.0092

          k = 0.0368-0.0206 0.0000 ( 49282 PWs)   bands (ev):

   -47.6826 -47.6676 -47.4717 -47.4563 -47.3554 -47.3402 -31.1369 -31.0318
   -31.0072 -30.9012 -30.4970 -30.3628 -25.6992 -25.6786 -25.6719 -25.6491
   -25.6256 -25.5420 -25.5207 -25.5132 -25.4772 -25.4679 -25.4467 -25.3958
   -25.3564 -25.3328 -25.3140 -25.1996 -25.1845 -25.1662 -15.3945 -15.3080
   -15.1030 -14.9453 -14.8529 -14.8393 -14.7845 -14.7036 -14.6839 -14.6450
   -14.5424 -14.3234 -14.2302 -14.2226 -14.0722 -14.0325 -13.9006 -13.7415
    -1.5619  -0.6627  -0.3658  -0.3543  -0.2327   0.1464   0.2431   0.2654
     0.4974   0.6430   0.6482   0.7524   0.7827   0.8527   0.9081   1.2781
     1.3338   1.4942   1.7234   1.9251   1.9787   2.0577   2.1251   2.3167
     2.3777   2.4551   2.5188   2.5667   2.6820   2.7811   2.8233   2.9070
     2.9189   3.0010   3.0672

          k = 0.0368-0.0069 0.0000 ( 49292 PWs)   bands (ev):

   -47.6826 -47.6676 -47.4717 -47.4563 -47.3554 -47.3402 -31.1366 -31.0314
   -31.0072 -30.9012 -30.4967 -30.3628 -25.6995 -25.6786 -25.6724 -25.6503
   -25.6256 -25.5424 -25.5207 -25.5137 -25.4771 -25.4688 -25.4468 -25.3961
   -25.3571 -25.3327 -25.3140 -25.1995 -25.1846 -25.1662 -15.3924 -15.3058
   -15.0994 -14.9443 -14.8537 -14.8376 -14.7796 -14.7039 -14.6791 -14.6438
   -14.5417 -14.3236 -14.2305 -14.2206 -14.0707 -14.0319 -13.9005 -13.7417
    -1.6486  -0.7402  -0.4382  -0.3943  -0.2842   0.0891   0.1870   0.2209
     0.4436   0.5805   0.6350   0.7198   0.7305   0.7558   0.8766   1.2653
     1.3164   1.4786   1.7584   1.9612   2.0208   2.1187   2.1332   2.4097
     2.4540   2.4635   2.5817   2.6779   2.7362   2.8620   2.8631   2.9357
     2.9432   3.0432   3.0747

          k = 0.0368 0.0069 0.0000 ( 49292 PWs)   bands (ev):

   -47.6826 -47.6676 -47.4717 -47.4563 -47.3554 -47.3402 -31.1366 -31.0314
   -31.0072 -30.9012 -30.4967 -30.3628 -25.6995 -25.6786 -25.6724 -25.6503
   -25.6256 -25.5424 -25.5207 -25.5137 -25.4771 -25.4688 -25.4468 -25.3961
   -25.3571 -25.3327 -25.3140 -25.1995 -25.1846 -25.1662 -15.3924 -15.3058
   -15.0994 -14.9443 -14.8537 -14.8376 -14.7796 -14.7039 -14.6791 -14.6438
   -14.5417 -14.3236 -14.2305 -14.2206 -14.0707 -14.0319 -13.9005 -13.7417
    -1.6486  -0.7402  -0.4382  -0.3943  -0.2842   0.0891   0.1870   0.2209
     0.4436   0.5805   0.6350   0.7198   0.7305   0.7558   0.8766   1.2653
     1.3164   1.4786   1.7584   1.9612   2.0208   2.1187   2.1332   2.4097
     2.4541   2.4635   2.5817   2.6779   2.7362   2.8619   2.8630   2.9356
     2.9433   3.0433   3.0745

          k = 0.0491 0.0275 0.0000 ( 49323 PWs)   bands (ev):

   -47.6804 -47.6698 -47.4694 -47.4585 -47.3532 -47.3425 -31.1185 -31.0268
   -31.0133 -30.9210 -30.4780 -30.3831 -25.6960 -25.6814 -25.6448 -25.6437
   -25.6281 -25.5386 -25.5235 -25.5058 -25.4843 -25.4642 -25.4491 -25.3673
   -25.3526 -25.3433 -25.3358 -25.2286 -25.1819 -25.1689 -15.2513 -15.1641
   -15.0837 -14.9719 -14.8310 -14.7687 -14.7291 -14.6918 -14.6675 -14.6670
   -14.5672 -14.4953 -14.4028 -14.2043 -14.0974 -14.0143 -13.9207 -13.9180
    -1.2835  -0.4070  -0.3230  -0.1298  -0.0515   0.2428   0.3875   0.4811
     0.6550   0.8145   0.8180   0.9422   0.9489   1.0111   1.1470   1.3550
     1.3698   1.5756   1.6268   1.7996   1.8292   1.9502   2.0137   2.1378
     2.1442   2.3742   2.3762   2.4567   2.5246   2.6012   2.6360   2.8034
     2.8307   2.8693   2.9078

          k = 0.0491 0.0412 0.0000 ( 49301 PWs)   bands (ev):

   -47.6804 -47.6698 -47.4694 -47.4585 -47.3532 -47.3425 -31.1189 -31.0268
   -31.0138 -30.9210 -30.4786 -30.3830 -25.6956 -25.6815 -25.6430 -25.6428
   -25.6285 -25.5380 -25.5236 -25.5060 -25.4835 -25.4628 -25.4493 -25.3668
   -25.3514 -25.3434 -25.3362 -25.2287 -25.1818 -25.1689 -15.2549 -15.1679
   -15.0893 -14.9727 -14.8299 -14.7765 -14.7292 -14.6934 -14.6749 -14.6686
   -14.5671 -14.4944 -14.4018 -14.2074 -14.0994 -14.0150 -13.9208 -13.9171
    -1.0968  -0.3181  -0.2602   0.0056   0.0331   0.3595   0.4851   0.5736
     0.7670   0.8337   0.9271   0.9890   1.0587   1.1425   1.1805   1.3947
     1.4061   1.5619   1.6084   1.6960   1.8032   1.8261   1.9504   1.9561
     2.0627   2.2347   2.2674   2.3953   2.4650   2.4875   2.5606   2.6759
     2.7743   2.8553   2.9304

          k = 0.0491 0.0550 0.0000 ( 49286 PWs)   bands (ev):

   -47.6804 -47.6698 -47.4694 -47.4585 -47.3532 -47.3425 -31.1194 -31.0268
   -31.0143 -30.9210 -30.4791 -30.3829 -25.6951 -25.6816 -25.6422 -25.6408
   -25.6289 -25.5373 -25.5237 -25.5063 -25.4827 -25.4613 -25.4495 -25.3662
   -25.3501 -25.3436 -25.3366 -25.2289 -25.1818 -25.1690 -15.2584 -15.1716
   -15.0949 -14.9734 -14.8289 -14.7843 -14.7294 -14.6951 -14.6821 -14.6702
   -14.5671 -14.4937 -14.4009 -14.2106 -14.1014 -14.0154 -13.9208 -13.9164
    -0.8562  -0.3022  -0.1230   0.1564   0.1766   0.4978   0.6090   0.6787
     0.8881   0.9008   1.0328   1.0396   1.1150   1.2041   1.2129   1.3856
     1.5021   1.5375   1.5772   1.6143   1.6709   1.7939   1.7984   1.8345
     2.0292   2.0320   2.1484   2.1492   2.3410   2.4077   2.5113   2.5671
     2.7005   2.7272   2.9033

          k = 0.0491 0.0687 0.0000 ( 49265 PWs)   bands (ev):

   -47.6804 -47.6698 -47.4694 -47.4586 -47.3532 -47.3425 -31.1197 -31.0268
   -31.0147 -30.9210 -30.4795 -30.3828 -25.6948 -25.6817 -25.6416 -25.6393
   -25.6293 -25.5368 -25.5237 -25.5065 -25.4821 -25.4602 -25.4496 -25.3658
   -25.3492 -25.3437 -25.3370 -25.2291 -25.1817 -25.1690 -15.2609 -15.1743
   -15.0990 -14.9739 -14.8281 -14.7899 -14.7295 -14.6964 -14.6871 -14.6713
   -14.5670 -14.4932 -14.4003 -14.2129 -14.1029 -14.0156 -13.9209 -13.9160
    -0.5929  -0.2847  -0.1087   0.2890   0.3899   0.6242   0.7429   0.7442
     0.9714   0.9897   1.0410   1.0731   1.1964   1.2186   1.2512   1.3399
     1.3973   1.4764   1.5578   1.5682   1.6804   1.7063   1.7306   1.8275
     1.8419   1.8927   1.9955   2.1416   2.2511   2.3589   2.3618   2.4802
     2.5369   2.7076   2.7234

          k = 0.0491 0.0824 0.0000 ( 49237 PWs)   bands (ev):

   -47.6804 -47.6698 -47.4694 -47.4586 -47.3532 -47.3425 -31.1198 -31.0268
   -31.0148 -30.9210 -30.4796 -30.3827 -25.6947 -25.6817 -25.6413 -25.6388
   -25.6294 -25.5367 -25.5237 -25.5065 -25.4819 -25.4598 -25.4497 -25.3657
   -25.3489 -25.3437 -25.3371 -25.2291 -25.1817 -25.1690 -15.2618 -15.1752
   -15.1004 -14.9741 -14.8278 -14.7920 -14.7296 -14.6969 -14.6890 -14.6718
   -14.5670 -14.4930 -14.4002 -14.2138 -14.1035 -14.0156 -13.9209 -13.9158
    -0.4198  -0.2772  -0.1892   0.3562   0.5462   0.6746   0.7155   0.8412
     0.9044   1.0522   1.0697   1.0816   1.2223   1.2527   1.2921   1.3546
     1.3737   1.3967   1.4171   1.5431   1.6890   1.7123   1.7273   1.7994
     1.8143   1.8258   1.8910   2.1990   2.2609   2.3346   2.3378   2.4014
     2.4365   2.6197   2.7183

          k = 0.0491 0.0962 0.0000 ( 49265 PWs)   bands (ev):

   -47.6804 -47.6698 -47.4694 -47.4586 -47.3532 -47.3425 -31.1197 -31.0268
   -31.0147 -30.9210 -30.4795 -30.3828 -25.6948 -25.6817 -25.6416 -25.6393
   -25.6293 -25.5368 -25.5237 -25.5065 -25.4821 -25.4602 -25.4496 -25.3658
   -25.3492 -25.3437 -25.3370 -25.2291 -25.1817 -25.1690 -15.2609 -15.1743
   -15.0990 -14.9739 -14.8281 -14.7899 -14.7295 -14.6964 -14.6871 -14.6713
   -14.5670 -14.4932 -14.4003 -14.2129 -14.1029 -14.0156 -13.9209 -13.9160
    -0.5929  -0.2847  -0.1087   0.2890   0.3899   0.6242   0.7429   0.7442
     0.9714   0.9897   1.0410   1.0731   1.1964   1.2186   1.2512   1.3399
     1.3973   1.4764   1.5578   1.5682   1.6804   1.7063   1.7306   1.8275
     1.8419   1.8927   1.9955   2.1416   2.2511   2.3589   2.3618   2.4802
     2.5369   2.7078   2.7235

          k = 0.0491-0.0550 0.0000 ( 49286 PWs)   bands (ev):

   -47.6804 -47.6698 -47.4694 -47.4585 -47.3532 -47.3425 -31.1194 -31.0268
   -31.0143 -30.9210 -30.4791 -30.3829 -25.6951 -25.6816 -25.6422 -25.6408
   -25.6289 -25.5373 -25.5237 -25.5063 -25.4827 -25.4613 -25.4495 -25.3662
   -25.3501 -25.3436 -25.3366 -25.2289 -25.1818 -25.1690 -15.2584 -15.1716
   -15.0949 -14.9734 -14.8289 -14.7843 -14.7294 -14.6951 -14.6821 -14.6702
   -14.5671 -14.4937 -14.4009 -14.2106 -14.1014 -14.0154 -13.9208 -13.9164
    -0.8562  -0.3022  -0.1230   0.1564   0.1766   0.4978   0.6090   0.6787
     0.8881   0.9008   1.0328   1.0396   1.1150   1.2041   1.2129   1.3856
     1.5021   1.5375   1.5772   1.6143   1.6709   1.7939   1.7984   1.8345
     2.0292   2.0320   2.1484   2.1492   2.3410   2.4077   2.5113   2.5671
     2.7005   2.7270   2.9034

          k = 0.0491-0.0412 0.0000 ( 49301 PWs)   bands (ev):

   -47.6804 -47.6698 -47.4694 -47.4585 -47.3532 -47.3425 -31.1189 -31.0268
   -31.0138 -30.9210 -30.4786 -30.3830 -25.6956 -25.6815 -25.6430 -25.6428
   -25.6285 -25.5380 -25.5236 -25.5060 -25.4835 -25.4628 -25.4493 -25.3668
   -25.3514 -25.3434 -25.3362 -25.2287 -25.1818 -25.1689 -15.2549 -15.1679
   -15.0893 -14.9727 -14.8299 -14.7765 -14.7292 -14.6934 -14.6749 -14.6686
   -14.5671 -14.4944 -14.4018 -14.2074 -14.0994 -14.0150 -13.9208 -13.9171
    -1.0968  -0.3181  -0.2602   0.0056   0.0331   0.3595   0.4851   0.5736
     0.7670   0.8337   0.9271   0.9890   1.0587   1.1425   1.1805   1.3947
     1.4061   1.5619   1.6084   1.6960   1.8032   1.8261   1.9504   1.9561
     2.0627   2.2347   2.2674   2.3953   2.4651   2.4876   2.5606   2.6758
     2.7745   2.8554   2.8727

          k = 0.0491-0.0275 0.0000 ( 49323 PWs)   bands (ev):

   -47.6804 -47.6698 -47.4694 -47.4585 -47.3532 -47.3425 -31.1185 -31.0268
   -31.0133 -30.9210 -30.4780 -30.3831 -25.6960 -25.6814 -25.6448 -25.6437
   -25.6281 -25.5386 -25.5235 -25.5058 -25.4843 -25.4642 -25.4491 -25.3673
   -25.3526 -25.3433 -25.3358 -25.2286 -25.1819 -25.1689 -15.2513 -15.1641
   -15.0837 -14.9719 -14.8310 -14.7687 -14.7291 -14.6918 -14.6675 -14.6670
   -14.5672 -14.4953 -14.4028 -14.2043 -14.0974 -14.0143 -13.9207 -13.9180
    -1.2835  -0.4070  -0.3230  -0.1298  -0.0515   0.2428   0.3875   0.4811
     0.6550   0.8145   0.8180   0.9422   0.9489   1.0111   1.1470   1.3550
     1.3698   1.5756   1.6268   1.7996   1.8292   1.9502   2.0137   2.1378
     2.1443   2.3742   2.3762   2.4568   2.5247   2.6013   2.6360   2.8034
     2.8307   2.8693   2.9076

          k = 0.0491-0.0137 0.0000 ( 49292 PWs)   bands (ev):

   -47.6804 -47.6698 -47.4694 -47.4585 -47.3532 -47.3425 -31.1182 -31.0268
   -31.0129 -30.9210 -30.4776 -30.3832 -25.6963 -25.6814 -25.6463 -25.6442
   -25.6279 -25.5391 -25.5234 -25.5056 -25.4849 -25.4652 -25.4490 -25.3677
   -25.3535 -25.3431 -25.3355 -25.2284 -25.1819 -25.1688 -15.2487 -15.1613
   -15.0795 -14.9714 -14.8318 -14.7630 -14.7291 -14.6906 -14.6658 -14.6619
   -14.5673 -14.4961 -14.4037 -14.2022 -14.0959 -14.0136 -13.9207 -13.9189
    -1.4007  -0.5062  -0.3180  -0.2191  -0.0928   0.1616   0.3225   0.4205
     0.5866   0.7366   0.8191   0.8534   0.8788   0.9224   1.1191   1.3452
     1.3487   1.5403   1.6730   1.8526   1.8741   2.0240   2.0476   2.1918
     2.2630   2.3217   2.4501   2.5320   2.5606   2.7099   2.7454   2.8286
     2.9130   2.9169   2.9626

          k = 0.0491 0.0000 0.0000 ( 49267 PWs)   bands (ev):

   -47.6804 -47.6698 -47.4694 -47.4585 -47.3532 -47.3425 -31.1181 -31.0268
   -31.0128 -30.9210 -30.4775 -30.3832 -25.6965 -25.6814 -25.6469 -25.6443
   -25.6278 -25.5393 -25.5234 -25.5056 -25.4851 -25.4656 -25.4490 -25.3678
   -25.3538 -25.3431 -25.3354 -25.2284 -25.1819 -25.1688 -15.2477 -15.1603
   -15.0780 -14.9712 -14.8322 -14.7609 -14.7291 -14.6902 -14.6653 -14.6598
   -14.5673 -14.4964 -14.4040 -14.2014 -14.0954 -14.0133 -13.9207 -13.9193
    -1.4406  -0.5406  -0.3139  -0.2503  -0.1029   0.1309   0.2986   0.3996
     0.5652   0.7106   0.8202   0.8215   0.8257   0.9132   1.1082   1.3357
     1.3491   1.5261   1.6891   1.8616   1.8981   2.0225   2.1391   2.1935
     2.2043   2.3478   2.4367   2.5830   2.5947   2.7814   2.8184   2.8405
     2.8781   2.9291   3.0217

          k = 0.0491 0.0137 0.0000 ( 49292 PWs)   bands (ev):

   -47.6804 -47.6698 -47.4694 -47.4585 -47.3532 -47.3425 -31.1182 -31.0268
   -31.0129 -30.9210 -30.4776 -30.3832 -25.6963 -25.6814 -25.6463 -25.6442
   -25.6279 -25.5391 -25.5234 -25.5056 -25.4849 -25.4652 -25.4490 -25.3677
   -25.3535 -25.3431 -25.3355 -25.2284 -25.1819 -25.1688 -15.2487 -15.1613
   -15.0795 -14.9714 -14.8318 -14.7630 -14.7291 -14.6906 -14.6658 -14.6619
   -14.5673 -14.4961 -14.4037 -14.2022 -14.0959 -14.0136 -13.9207 -13.9189
    -1.4007  -0.5062  -0.3180  -0.2191  -0.0928   0.1616   0.3225   0.4205
     0.5866   0.7366   0.8191   0.8534   0.8788   0.9224   1.1191   1.3452
     1.3487   1.5403   1.6730   1.8526   1.8741   2.0240   2.0476   2.1918
     2.2630   2.3217   2.4501   2.5320   2.5606   2.7099   2.7453   2.8286
     2.9132   2.9169   2.9622

          k = 0.0613 0.0343 0.0000 ( 49263 PWs)   bands (ev):

   -47.6778 -47.6723 -47.4668 -47.4612 -47.3506 -47.3451 -31.0968 -31.0494
   -30.9915 -30.9437 -30.4556 -30.4065 -25.6924 -25.6848 -25.6402 -25.6317
   -25.6104 -25.5396 -25.5343 -25.5269 -25.4601 -25.4532 -25.4495 -25.3775
   -25.3481 -25.3397 -25.3338 -25.2622 -25.1787 -25.1720 -15.0797 -15.0596
   -15.0051 -14.9874 -14.8058 -14.7513 -14.7496 -14.6974 -14.6874 -14.6475
   -14.5958 -14.5944 -14.5151 -14.1814 -14.1253 -14.1161 -13.9916 -13.9437
    -0.9715  -0.4290  -0.1456   0.0710   0.1095   0.3172   0.5486   0.6583
     0.8136   0.8862   0.9609   1.0841   1.1054   1.1850   1.2329   1.4003
     1.4572   1.5755   1.6442   1.6870   1.7469   1.8717   1.8858   1.9450
     2.0340   2.2065   2.2922   2.3478   2.4493   2.4669   2.5773   2.6115
     2.6643   2.8057   2.8220

          k = 0.0613 0.0481 0.0000 ( 49276 PWs)   bands (ev):

   -47.6778 -47.6724 -47.4668 -47.4612 -47.3506 -47.3451 -31.0972 -31.0492
   -30.9919 -30.9436 -30.4560 -30.4062 -25.6920 -25.6850 -25.6386 -25.6325
   -25.6098 -25.5399 -25.5339 -25.5271 -25.4589 -25.4535 -25.4491 -25.3779
   -25.3470 -25.3403 -25.3334 -25.2625 -25.1787 -25.1721 -15.0827 -15.0638
   -15.0048 -14.9901 -14.8049 -14.7555 -14.7514 -14.6957 -14.6860 -14.6530
   -14.5942 -14.5924 -14.5181 -14.1833 -14.1261 -14.1145 -13.9921 -13.9436
    -0.7843  -0.5040  -0.0231   0.0995   0.2084   0.3889   0.6266   0.7165
     0.8780   0.9076   1.0457   1.0811   1.1635   1.2292   1.2404   1.3121
     1.5609   1.5705   1.6409   1.6781   1.7244   1.7909   1.8234   1.8607
     2.0361   2.0722   2.2155   2.2189   2.4007   2.4877   2.5103   2.5464
     2.6780   2.7426   2.8121

          k = 0.0613 0.0618 0.0000 ( 49271 PWs)   bands (ev):

   -47.6778 -47.6724 -47.4668 -47.4612 -47.3506 -47.3451 -31.0975 -31.0491
   -30.9923 -30.9435 -30.4564 -30.4060 -25.6917 -25.6851 -25.6371 -25.6332
   -25.6093 -25.5400 -25.5336 -25.5273 -25.4579 -25.4536 -25.4489 -25.3783
   -25.3460 -25.3408 -25.3331 -25.2627 -25.1786 -25.1721 -15.0852 -15.0675
   -15.0046 -14.9923 -14.8041 -14.7603 -14.7515 -14.6943 -14.6853 -14.6573
   -14.5934 -14.5908 -14.5206 -14.1847 -14.1268 -14.1133 -13.9926 -13.9435
    -0.5598  -0.5538   0.0531   0.1493   0.3300   0.4514   0.7176   0.7485
     0.9202   0.9851   1.0618   1.0797   1.2077   1.2243   1.2618   1.2802
     1.4808   1.5287   1.5969   1.6536   1.6829   1.7431   1.7907   1.8690
     1.9099   2.0239   2.0800   2.1806   2.3812   2.4238   2.4536   2.5765
     2.5812   2.7116   2.7428

          k = 0.0613 0.0756 0.0000 ( 49278 PWs)   bands (ev):

   -47.6778 -47.6724 -47.4668 -47.4612 -47.3506 -47.3451 -31.0976 -31.0491
   -30.9925 -30.9434 -30.4567 -30.4059 -25.6915 -25.6852 -25.6362 -25.6336
   -25.6090 -25.5401 -25.5334 -25.5274 -25.4573 -25.4536 -25.4488 -25.3785
   -25.3454 -25.3411 -25.3329 -25.2629 -25.1786 -25.1722 -15.0867 -15.0696
   -15.0046 -14.9933 -14.8036 -14.7629 -14.7516 -14.6936 -14.6851 -14.6595
   -14.5931 -14.5899 -14.5220 -14.1855 -14.1272 -14.1127 -13.9930 -13.9434
    -0.5780  -0.3484  -0.0000   0.1911   0.4832   0.4872   0.7153   0.8111
     0.9487   0.9776   1.0665   1.1214   1.1737   1.2504   1.2675   1.3495
     1.3724   1.4684   1.5243   1.5878   1.6529   1.6935   1.7616   1.8471
     1.9444   1.9660   2.0344   2.1994   2.2918   2.4037   2.4044   2.5386
     2.5843   2.6175   2.7807

          k = 0.0613 0.0893 0.0000 ( 49278 PWs)   bands (ev):

   -47.6778 -47.6724 -47.4668 -47.4612 -47.3506 -47.3451 -31.0976 -31.0491
   -30.9925 -30.9434 -30.4567 -30.4059 -25.6915 -25.6852 -25.6362 -25.6336
   -25.6090 -25.5401 -25.5334 -25.5274 -25.4573 -25.4536 -25.4488 -25.3785
   -25.3454 -25.3411 -25.3329 -25.2629 -25.1786 -25.1722 -15.0867 -15.0696
   -15.0046 -14.9933 -14.8036 -14.7629 -14.7516 -14.6936 -14.6851 -14.6595
   -14.5931 -14.5899 -14.5220 -14.1855 -14.1272 -14.1127 -13.9930 -13.9434
    -0.5780  -0.3484  -0.0000   0.1911   0.4832   0.4872   0.7153   0.8111
     0.9487   0.9776   1.0665   1.1214   1.1737   1.2504   1.2675   1.3495
     1.3724   1.4684   1.5243   1.5878   1.6529   1.6935   1.7615   1.8471
     1.9444   1.9660   2.0344   2.1994   2.2918   2.4037   2.4044   2.5386
     2.5843   2.6175   2.7808

          k = 0.0613 0.1030 0.0000 ( 49271 PWs)   bands (ev):

   -47.6778 -47.6724 -47.4668 -47.4612 -47.3506 -47.3451 -31.0975 -31.0491
   -30.9923 -30.9435 -30.4564 -30.4060 -25.6917 -25.6851 -25.6371 -25.6332
   -25.6093 -25.5400 -25.5336 -25.5273 -25.4579 -25.4536 -25.4488 -25.3783
   -25.3460 -25.3408 -25.3331 -25.2627 -25.1786 -25.1721 -15.0852 -15.0675
   -15.0046 -14.9923 -14.8041 -14.7603 -14.7515 -14.6943 -14.6853 -14.6573
   -14.5934 -14.5908 -14.5206 -14.1847 -14.1268 -14.1133 -13.9926 -13.9435
    -0.5598  -0.5538   0.0531   0.1493   0.3300   0.4514   0.7176   0.7485
     0.9202   0.9851   1.0618   1.0797   1.2077   1.2243   1.2618   1.2802
     1.4808   1.5287   1.5969   1.6536   1.6829   1.7431   1.7907   1.8690
     1.9099   2.0239   2.0800   2.1806   2.3812   2.4238   2.4536   2.5765
     2.5813   2.7116   2.7428

          k = 0.0613-0.0481 0.0000 ( 49276 PWs)   bands (ev):

   -47.6778 -47.6724 -47.4668 -47.4612 -47.3506 -47.3451 -31.0972 -31.0492
   -30.9919 -30.9436 -30.4560 -30.4062 -25.6920 -25.6850 -25.6386 -25.6325
   -25.6098 -25.5399 -25.5339 -25.5271 -25.4589 -25.4535 -25.4491 -25.3779
   -25.3470 -25.3403 -25.3334 -25.2625 -25.1787 -25.1721 -15.0827 -15.0638
   -15.0048 -14.9901 -14.8049 -14.7555 -14.7514 -14.6957 -14.6860 -14.6530
   -14.5942 -14.5924 -14.5181 -14.1833 -14.1261 -14.1145 -13.9921 -13.9436
    -0.7843  -0.5040  -0.0231   0.0995   0.2084   0.3889   0.6266   0.7165
     0.8780   0.9076   1.0457   1.0811   1.1635   1.2292   1.2404   1.3121
     1.5609   1.5705   1.6409   1.6781   1.7244   1.7909   1.8234   1.8607
     2.0361   2.0722   2.2155   2.2189   2.4008   2.4877   2.5103   2.5464
     2.6780   2.7425   2.8121

          k = 0.0613-0.0343 0.0000 ( 49263 PWs)   bands (ev):

   -47.6778 -47.6723 -47.4668 -47.4612 -47.3506 -47.3451 -31.0968 -31.0494
   -30.9915 -30.9437 -30.4556 -30.4065 -25.6924 -25.6848 -25.6402 -25.6317
   -25.6104 -25.5396 -25.5343 -25.5269 -25.4601 -25.4532 -25.4495 -25.3775
   -25.3481 -25.3397 -25.3338 -25.2622 -25.1787 -25.1720 -15.0797 -15.0596
   -15.0051 -14.9874 -14.8058 -14.7513 -14.7496 -14.6974 -14.6874 -14.6475
   -14.5958 -14.5944 -14.5151 -14.1814 -14.1253 -14.1161 -13.9916 -13.9437
    -0.9715  -0.4290  -0.1456   0.0710   0.1095   0.3172   0.5486   0.6582
     0.8136   0.8862   0.9609   1.0841   1.1054   1.1850   1.2329   1.4003
     1.4572   1.5755   1.6442   1.6870   1.7469   1.8717   1.8858   1.9450
     2.0340   2.2065   2.2922   2.3478   2.4493   2.4669   2.5773   2.6113
     2.6644   2.8058   2.8215

          k = 0.0613-0.0206 0.0000 ( 49285 PWs)   bands (ev):

   -47.6778 -47.6723 -47.4668 -47.4612 -47.3506 -47.3451 -31.0965 -31.0495
   -30.9911 -30.9439 -30.4552 -30.4067 -25.6927 -25.6847 -25.6417 -25.6310
   -25.6110 -25.5394 -25.5347 -25.5267 -25.4611 -25.4527 -25.4502 -25.3772
   -25.3491 -25.3391 -25.3343 -25.2620 -25.1788 -25.1720 -15.0769 -15.0558
   -15.0056 -14.9848 -14.8065 -14.7513 -14.7439 -14.6990 -14.6892 -14.6419
   -14.5979 -14.5962 -14.5125 -14.1794 -14.1247 -14.1176 -13.9913 -13.9439
    -1.1032  -0.3379  -0.2410   0.0313   0.0746   0.2409   0.4862   0.6051
     0.7446   0.8912   0.9275   0.9936   1.0652   1.1290   1.2096   1.4172
     1.4581   1.5833   1.6161   1.7037   1.7224   1.8746   1.9224   1.9977
     2.1146   2.2592   2.3215   2.3617   2.4527   2.5677   2.5908   2.7106
     2.7172   2.8234   2.8711

          k = 0.0613-0.0069 0.0000 ( 49311 PWs)   bands (ev):

   -47.6779 -47.6723 -47.4668 -47.4612 -47.3506 -47.3451 -31.0963 -31.0495
   -30.9909 -30.9439 -30.4549 -30.4068 -25.6929 -25.6846 -25.6425 -25.6305
   -25.6114 -25.5392 -25.5349 -25.5266 -25.4617 -25.4520 -25.4509 -25.3770
   -25.3497 -25.3386 -25.3347 -25.2618 -25.1788 -25.1719 -15.0753 -15.0537
   -15.0059 -14.9832 -14.8070 -14.7513 -14.7402 -14.6999 -14.6907 -14.6381
   -14.5996 -14.5973 -14.5109 -14.1782 -14.1244 -14.1187 -13.9911 -13.9440
    -1.1708  -0.2908  -0.2627  -0.0113   0.1021   0.1680   0.4430   0.5748
     0.7196   0.8683   0.9340   0.9443   0.9724   1.1402   1.1831   1.4240
     1.4733   1.5862   1.5885   1.6834   1.7736   1.8564   1.9544   1.9776
     2.1825   2.2202   2.3063   2.3928   2.4026   2.6384   2.6685   2.7197
     2.8359   2.8586   2.9357

          k = 0.0613 0.0069 0.0000 ( 49311 PWs)   bands (ev):

   -47.6779 -47.6723 -47.4668 -47.4612 -47.3506 -47.3451 -31.0963 -31.0495
   -30.9909 -30.9439 -30.4549 -30.4068 -25.6929 -25.6846 -25.6425 -25.6305
   -25.6114 -25.5392 -25.5349 -25.5266 -25.4617 -25.4520 -25.4509 -25.3770
   -25.3497 -25.3386 -25.3347 -25.2618 -25.1788 -25.1719 -15.0753 -15.0537
   -15.0059 -14.9832 -14.8070 -14.7513 -14.7402 -14.6999 -14.6907 -14.6381
   -14.5996 -14.5973 -14.5109 -14.1782 -14.1244 -14.1187 -13.9911 -13.9440
    -1.1708  -0.2908  -0.2627  -0.0113   0.1021   0.1680   0.4430   0.5748
     0.7196   0.8683   0.9340   0.9443   0.9724   1.1402   1.1831   1.4240
     1.4733   1.5862   1.5885   1.6834   1.7736   1.8564   1.9544   1.9776
     2.1825   2.2202   2.3063   2.3928   2.4026   2.6384   2.6685   2.7198
     2.8358   2.8588   2.9367

          k = 0.0613 0.0206 0.0000 ( 49285 PWs)   bands (ev):

   -47.6778 -47.6723 -47.4668 -47.4612 -47.3506 -47.3451 -31.0965 -31.0495
   -30.9911 -30.9439 -30.4552 -30.4067 -25.6927 -25.6847 -25.6417 -25.6310
   -25.6110 -25.5394 -25.5347 -25.5267 -25.4611 -25.4527 -25.4502 -25.3772
   -25.3491 -25.3391 -25.3343 -25.2620 -25.1788 -25.1720 -15.0769 -15.0558
   -15.0056 -14.9848 -14.8065 -14.7513 -14.7439 -14.6990 -14.6892 -14.6419
   -14.5979 -14.5962 -14.5125 -14.1794 -14.1247 -14.1176 -13.9913 -13.9439
    -1.1032  -0.3379  -0.2410   0.0313   0.0746   0.2409   0.4863   0.6051
     0.7446   0.8912   0.9275   0.9936   1.0652   1.1290   1.2096   1.4172
     1.4581   1.5833   1.6161   1.7037   1.7224   1.8746   1.9224   1.9977
     2.1146   2.2592   2.3215   2.3617   2.4527   2.5677   2.5908   2.7106
     2.7172   2.8234   2.8711

          k =-0.0736-0.0412 0.0000 ( 49264 PWs)   bands (ev):

   -47.6751 -47.6751 -47.4640 -47.4640 -47.3478 -47.3478 -31.0732 -31.0732
   -30.9678 -30.9678 -30.4312 -30.4312 -25.6885 -25.6885 -25.6357 -25.6357
   -25.5749 -25.5749 -25.5307 -25.5307 -25.4561 -25.4560 -25.4140 -25.4140
   -25.3437 -25.3437 -25.2982 -25.2982 -25.1754 -25.1754 -15.0320 -15.0320
   -14.8883 -14.8883 -14.8006 -14.8006 -14.7761 -14.7761 -14.7234 -14.7234
   -14.6209 -14.6209 -14.3203 -14.3203 -14.1535 -14.1535 -13.9680 -13.9679
    -0.6667  -0.6667   0.0427   0.0427   0.2828   0.2828   0.6846   0.6846
     0.8831   0.8831   1.0803   1.0803   1.2110   1.2110   1.2612   1.2612
     1.5887   1.5887   1.6959   1.6959   1.7615   1.7615   1.8542   1.8542
     2.0546   2.0547   2.3006   2.3006   2.3895   2.3895   2.5478   2.5479
     2.7157   2.7161   2.7766

          k =-0.0736-0.0275 0.0000 ( 49295 PWs)   bands (ev):

   -47.6751 -47.6751 -47.4640 -47.4640 -47.3478 -47.3478 -31.0735 -31.0730
   -30.9681 -30.9675 -30.4315 -30.4308 -25.6888 -25.6883 -25.6370 -25.6345
   -25.5754 -25.5744 -25.5311 -25.5303 -25.4569 -25.4552 -25.4145 -25.4135
   -25.3446 -25.3428 -25.2985 -25.2978 -25.1754 -25.1753 -15.0345 -15.0295
   -14.8904 -14.8859 -14.8028 -14.7975 -14.7766 -14.7762 -14.7271 -14.7198
   -14.6248 -14.6173 -14.3224 -14.3181 -14.1542 -14.1530 -13.9683 -13.9676
    -0.7879  -0.5080  -0.0066   0.1083   0.2617   0.2932   0.6546   0.7092
     0.8592   0.9226   1.0155   1.1257   1.1464   1.2414   1.2514   1.3272
     1.5071   1.5864   1.6037   1.7138   1.7380   1.7660   1.8309   1.9435
     1.9664   2.1340   2.2152   2.2586   2.4368   2.4906   2.5154   2.5843
     2.6155   2.7323   2.7909

          k =-0.0736-0.0137 0.0000 ( 49320 PWs)   bands (ev):

   -47.6751 -47.6751 -47.4640 -47.4640 -47.3478 -47.3478 -31.0736 -31.0728
   -30.9683 -30.9673 -30.4318 -30.4306 -25.6890 -25.6881 -25.6378 -25.6336
   -25.5757 -25.5741 -25.5313 -25.5301 -25.4574 -25.4546 -25.4149 -25.4132
   -25.3452 -25.3422 -25.2988 -25.2975 -25.1755 -25.1753 -15.0363 -15.0276
   -14.8918 -14.8841 -14.8041 -14.7946 -14.7772 -14.7769 -14.7300 -14.7174
   -14.6278 -14.6147 -14.3238 -14.3162 -14.1548 -14.1528 -13.9686 -13.9675
    -0.8627  -0.3374  -0.0326   0.1296   0.2444   0.3120   0.6132   0.7210
     0.8573   0.9807   0.9851   1.0613   1.1489   1.1592   1.2958   1.4351
     1.4660   1.5348   1.5519   1.6469   1.6940   1.7045   1.8585   1.8978
     2.0673   2.1062   2.1849   2.2541   2.3307   2.5055   2.5148   2.5866
     2.7369   2.7711   2.8630

          k =-0.0736 0.0000 0.0000 ( 49313 PWs)   bands (ev):

   -47.6751 -47.6751 -47.4640 -47.4640 -47.3478 -47.3478 -31.0737 -31.0728
   -30.9683 -30.9672 -30.4319 -30.4305 -25.6891 -25.6880 -25.6381 -25.6333
   -25.5759 -25.5740 -25.5314 -25.5300 -25.4577 -25.4543 -25.4151 -25.4130
   -25.3454 -25.3419 -25.2989 -25.2975 -25.1755 -25.1753 -15.0369 -15.0269
   -14.8923 -14.8833 -14.8045 -14.7933 -14.7775 -14.7774 -14.7311 -14.7165
   -14.6289 -14.6138 -14.3243 -14.3155 -14.1551 -14.1527 -13.9687 -13.9674
    -0.8879  -0.2416  -0.0402   0.0935   0.2381   0.3479   0.5800   0.7236
     0.8621   1.0105   1.0205   1.0356   1.0626   1.1375   1.3509   1.4716
     1.4720   1.5103   1.5235   1.6344   1.6507   1.6694   1.8107   1.9699
     2.0446   2.1415   2.1785   2.2216   2.2620   2.5155   2.5282   2.5545
     2.8169   2.8587   2.8600

          k =-0.0736 0.0137 0.0000 ( 49320 PWs)   bands (ev):

   -47.6751 -47.6751 -47.4640 -47.4640 -47.3478 -47.3478 -31.0736 -31.0728
   -30.9683 -30.9673 -30.4318 -30.4306 -25.6890 -25.6881 -25.6378 -25.6336
   -25.5757 -25.5741 -25.5313 -25.5301 -25.4574 -25.4546 -25.4149 -25.4132
   -25.3452 -25.3422 -25.2988 -25.2975 -25.1755 -25.1753 -15.0363 -15.0276
   -14.8918 -14.8841 -14.8041 -14.7946 -14.7772 -14.7769 -14.7300 -14.7174
   -14.6278 -14.6147 -14.3238 -14.3162 -14.1548 -14.1528 -13.9686 -13.9675
    -0.8627  -0.3374  -0.0326   0.1296   0.2444   0.3120   0.6132   0.7210
     0.8573   0.9807   0.9851   1.0613   1.1489   1.1592   1.2958   1.4351
     1.4660   1.5348   1.5519   1.6469   1.6940   1.7045   1.8585   1.8978
     2.0673   2.1062   2.1849   2.2541   2.3307   2.5055   2.5148   2.5866
     2.7370   2.7709   2.8630

          k =-0.0736 0.0275 0.0000 ( 49295 PWs)   bands (ev):

   -47.6751 -47.6751 -47.4640 -47.4640 -47.3478 -47.3478 -31.0735 -31.0730
   -30.9681 -30.9675 -30.4315 -30.4308 -25.6888 -25.6883 -25.6370 -25.6345
   -25.5754 -25.5744 -25.5311 -25.5303 -25.4569 -25.4552 -25.4145 -25.4135
   -25.3446 -25.3428 -25.2985 -25.2978 -25.1754 -25.1753 -15.0345 -15.0295
   -14.8904 -14.8859 -14.8028 -14.7975 -14.7766 -14.7762 -14.7271 -14.7198
   -14.6248 -14.6173 -14.3224 -14.3181 -14.1542 -14.1530 -13.9683 -13.9676
    -0.7879  -0.5080  -0.0066   0.1083   0.2617   0.2932   0.6546   0.7092
     0.8592   0.9226   1.0155   1.1257   1.1464   1.2414   1.2514   1.3272
     1.5071   1.5864   1.6037   1.7138   1.7380   1.7660   1.8309   1.9435
     1.9664   2.1340   2.2152   2.2586   2.4368   2.4906   2.5154   2.5844
     2.6154   2.7321   2.7907

          k =-0.0736-0.1236 0.0000 ( 49264 PWs)   bands (ev):

   -47.6751 -47.6751 -47.4640 -47.4640 -47.3478 -47.3478 -31.0732 -31.0732
   -30.9678 -30.9678 -30.4312 -30.4312 -25.6885 -25.6885 -25.6357 -25.6357
   -25.5749 -25.5749 -25.5307 -25.5307 -25.4561 -25.4560 -25.4140 -25.4140
   -25.3437 -25.3437 -25.2982 -25.2982 -25.1754 -25.1754 -15.0320 -15.0320
   -14.8883 -14.8883 -14.8006 -14.8006 -14.7761 -14.7761 -14.7234 -14.7234
   -14.6209 -14.6209 -14.3203 -14.3203 -14.1535 -14.1535 -13.9680 -13.9679
    -0.6667  -0.6667   0.0427   0.0427   0.2828   0.2828   0.6846   0.6846
     0.8831   0.8831   1.0803   1.0803   1.2110   1.2110   1.2612   1.2612
     1.5887   1.5887   1.6958   1.6958   1.7615   1.7615   1.8542   1.8542
     2.0547   2.0547   2.3005   2.3005   2.3895   2.3895   2.5478   2.5479
     2.7157   2.7159   2.7767

     the Fermi energy is     1.8137 ev

!    total energy              =   -1363.79240384 Ry
     estimated scf accuracy    <       0.00000682 Ry
     smearing contrib. (-TS)   =      -0.10033200 Ry
     internal energy E=F+TS    =   -1363.69207184 Ry

     The total energy is F=E-TS. E is the sum of the following terms:
     one-electron contribution =   -6332.93769389 Ry
     hartree contribution      =    3171.07334179 Ry
     xc contribution           =    -559.36134965 Ry
     ewald contribution        =    2357.53360395 Ry
     electric field correction =       0.00002597 Ry

     convergence has been achieved in  21 iterations

     negative rho (up, down):  3.119E-04 0.000E+00

     Forces acting on atoms (cartesian axes, Ry/au):

     atom    1 type  1   force =    -0.00000912   -0.00675683   -0.01313571
     atom    2 type  1   force =    -0.00001096   -0.00675394   -0.01313554
     atom    3 type  2   force =    -0.00000681    0.01002780    0.02520445
     atom    4 type  2   force =    -0.00000693    0.01002853    0.02520358
     atom    5 type  1   force =     0.00004284    0.00606785   -0.01028526
     atom    6 type  1   force =     0.00004141    0.00607140   -0.01028703
     atom    7 type  2   force =    -0.00000600   -0.00832515   -0.00097472
     atom    8 type  2   force =    -0.00000698   -0.00832381   -0.00097523
     atom    9 type  1   force =    -0.00001137   -0.00170623   -0.00079342
     atom   10 type  1   force =    -0.00001419   -0.00170845   -0.00079703
     atom   11 type  2   force =    -0.00000601    0.00069028   -0.00001357
     atom   12 type  2   force =    -0.00000589    0.00068855   -0.00001050

     Total force =     0.048392     Total SCF correction =     0.008476
     SCF correction compared to forces is large: reduce conv_thr to get better values

     Writing output data file ./La2Zr2/La2Zr2_beef.save/

     init_run     :    382.90s CPU    384.33s WALL (       1 calls)
     electrons    :   8929.58s CPU   8972.40s WALL (       1 calls)
     forces       :    135.58s CPU    136.19s WALL (       1 calls)

     Called by init_run:
     wfcinit      :    358.52s CPU    359.39s WALL (       1 calls)
     potinit      :     12.13s CPU     12.27s WALL (       1 calls)
     hinit0       :      6.58s CPU      6.59s WALL (       1 calls)

     Called by electrons:
     c_bands      :   7835.11s CPU   7854.47s WALL (      21 calls)
     sum_band     :    967.65s CPU    979.69s WALL (      21 calls)
     v_of_rho     :     59.98s CPU     62.68s WALL (      22 calls)
     newd         :     76.77s CPU     84.98s WALL (      22 calls)
     mix_rho      :      2.48s CPU      2.55s WALL (      21 calls)
     vdW_kernel   :      6.31s CPU      6.32s WALL (       1 calls)

     Called by c_bands:
     init_us_2    :     31.14s CPU     31.28s WALL (    3256 calls)
     cegterg      :   7741.05s CPU   7757.92s WALL (    1554 calls)

     Called by *egterg:
     cdiaghg      :    175.82s CPU    175.99s WALL (    9653 calls)
     h_psi        :   4327.18s CPU   4341.81s WALL (    9727 calls)
     s_psi        :   1352.74s CPU   1353.23s WALL (    9727 calls)
     g_psi        :      2.68s CPU      2.71s WALL (    8099 calls)

     Called by h_psi:
     h_psi:calbec :   1420.49s CPU   1422.40s WALL (    9727 calls)
     vloc_psi     :   1536.38s CPU   1548.35s WALL (    9727 calls)
     add_vuspsi   :   1360.40s CPU   1361.01s WALL (    9727 calls)

     General routines
     calbec       :   2062.82s CPU   2065.65s WALL (   11577 calls)
     fft          :     46.68s CPU     48.07s WALL (    1445 calls)
     ffts         :      0.29s CPU      0.29s WALL (      43 calls)
     fftw         :   1746.16s CPU   1759.22s WALL (  806740 calls)
     interpolate  :      0.60s CPU      0.62s WALL (      22 calls)

     Parallel routines
     fft_scatt_xy :    110.91s CPU    111.92s WALL (  808228 calls)
     fft_scatt_yz :    967.14s CPU    974.06s WALL (  808228 calls)

     PWSCF        :      2h37m CPU      2h38m WALL


   This run was terminated on:   0:21:41  27Jun2022            

=------------------------------------------------------------------------------=
   JOB DONE.
=------------------------------------------------------------------------------=
