
     Program PWSCF v.6.6 starts on 27Jun2022 at 16: 9:52 

     This program is part of the open-source Quantum ESPRESSO suite
     for quantum simulation of materials; please cite
         "P. Giannozzi et al., J. Phys.:Condens. Matter 21 395502 (2009);
         "P. Giannozzi et al., J. Phys.:Condens. Matter 29 465901 (2017);
          URL http://www.quantum-espresso.org", 
     in publications or presentations arising from this work. More details at
     http://www.quantum-espresso.org/quote

     Parallel version (MPI), running on    37 processors

     MPI processes distributed on     1 nodes
     R & G space division:  proc/nbgrp/npool/nimage =      37
     Fft bands division:     nmany     =       1
     Reading input from Mn2Cd2.in
Warning: card &CELL ignored
Warning: card / ignored

     Current dimensions of program PWSCF are:
     Max number of different atomic species (ntypx) = 10
     Max number of k-points (npk) =  40000
     Max angular momentum in pseudopotentials (lmaxx) =  3
     Presently stress not available with electric field and gates

     Message from routine cell_base_init:
     DEPRECATED: use true lattice parameter, not A to a.u. conversion factor
     file Mn.pbe-spn-rrkjus_psl.0.3.1.UPF: wavefunction(s)  3D renormalized
     file Cd.pbe-n-rrkjus_psl.1.0.0.UPF: wavefunction(s)  4D renormalized

     **************************************************************************
     Initializing libbeef V0.1.2 with the BEEF-vdW functional.
     Citation: Wellendorff et al., PRB 85, 235149 (2012).
     **************************************************************************


     IMPORTANT: XC functional enforced from input :
     Exchange-correlation= BEEF-VDW
                           (   1   4  43  14   2   0   0)
     Any further DFT definition will be discarded
     Please, verify this is what you really want


     Subspace diagonalization in iterative solution of the eigenvalue problem:
     a serial algorithm will be used


     Parallelization info
     --------------------
     sticks:   dense  smooth     PW     G-vecs:    dense   smooth      PW
     Min         129      51     14                30337     7663    1156
     Max         130      52     15                30356     7680    1177
     Sum        4797    1923    547              1122851   284079   43133



     bravais-lattice index     =            0
     lattice parameter (alat)  =       1.8897  a.u.
     unit-cell volume          =    5137.3905 (a.u.)^3
     number of atoms/cell      =           12
     number of atomic types    =            2
     number of electrons       =       162.00
     number of Kohn-Sham states=           97
     kinetic-energy cutoff     =      55.1240  Ry
     charge density cutoff     =     551.2396  Ry
     convergence threshold     =      1.0E-05
     mixing beta               =       0.1000
     number of iterations used =           10  plain     mixing
     Exchange-correlation= BEEF-VDW
                           (   1   4  43  14   2   0   0)

     celldm(1)=   1.889726  celldm(2)=   0.000000  celldm(3)=   0.000000
     celldm(4)=   0.000000  celldm(5)=   0.000000  celldm(6)=   0.000000

     crystal axes: (cart. coord. in units of alat)
               a(1) = (   5.884909   0.000000   0.000000 )  
               a(2) = (   2.744132   5.205948   0.000000 )  
               a(3) = (   0.000000   0.000000  24.848861 )  

     reciprocal axes: (cart. coord. in units 2 pi/alat)
               b(1) = (  0.169926 -0.089571  0.000000 )  
               b(2) = (  0.000000  0.192088  0.000000 )  
               b(3) = (  0.000000  0.000000  0.040243 )  


     PseudoPot. # 1 for Mn read from file:
     ../pseudo/Mn.pbe-spn-rrkjus_psl.0.3.1.UPF
     MD5 check sum: e1cac159bdd2ba70c18e85765a5d4279
     Pseudo is Ultrasoft + core correction, Zval = 15.0
     Generated using "atomic" code by A. Dal Corso v.6.2.2
     Using radial grid of 1187 points,  6 beta functions with: 
                l(1) =   0
                l(2) =   0
                l(3) =   1
                l(4) =   1
                l(5) =   2
                l(6) =   2
     Q(r) pseudized with 0 coefficients 


     PseudoPot. # 2 for Cd read from file:
     ../pseudo/Cd.pbe-n-rrkjus_psl.1.0.0.UPF
     MD5 check sum: a744746c89d2344a134ead0d8ab94e7a
     Pseudo is Ultrasoft + core correction, Zval = 12.0
     Generated using "atomic" code by A. Dal Corso v.6.3
     Using radial grid of 1239 points,  6 beta functions with: 
                l(1) =   0
                l(2) =   0
                l(3) =   1
                l(4) =   1
                l(5) =   2
                l(6) =   2
     Q(r) pseudized with 0 coefficients 


     atomic species   valence    mass     pseudopotential
        Mn            15.00    54.93804     Mn( 1.00)
        Cd            12.00   112.41400     Cd( 1.00)

     Starting magnetic structure 
     atomic species   magnetization
        Mn           0.667
        Cd           0.000

     No symmetry found



   Cartesian axes

     site n.     atom                  positions (alat units)
         1           Mn  tau(   1) = (   0.0000000   0.0000000  10.0000000  )
         2           Mn  tau(   2) = (   4.3145207   2.6029742  10.0000000  )
         3           Cd  tau(   3) = (   2.9424547   0.0000000  10.0000000  )
         4           Cd  tau(   4) = (   1.3720659   2.6029742  10.0000000  )
         5           Mn  tau(   5) = (   5.8849095   3.5503985  12.4244303  )
         6           Mn  tau(   6) = (   1.5703888   0.9474243  12.4244303  )
         7           Cd  tau(   7) = (   2.9424547   3.5503985  12.4244303  )
         8           Cd  tau(   8) = (   4.5128435   0.9474243  12.4244303  )
         9           Mn  tau(   9) = (   3.1177777   1.8809736  14.8003433  )
        10           Mn  tau(  10) = (   7.4323069   4.4839511  14.8003076  )
        11           Cd  tau(  11) = (   6.0818940   1.8939760  15.0084961  )
        12           Cd  tau(  12) = (   4.5114463   4.4970469  15.0084911  )

     number of k points=    74  Fermi-Dirac smearing, width (Ry)=  0.0100
                       cart. coord. in units 2pi/alat
        k(    1) = (   0.0000000   0.0000000   0.0000000), wk =   0.0069444
        k(    2) = (   0.0000000   0.0160073   0.0000000), wk =   0.0138889
        k(    3) = (   0.0000000   0.0320147   0.0000000), wk =   0.0138889
        k(    4) = (   0.0000000   0.0480220   0.0000000), wk =   0.0138889
        k(    5) = (   0.0000000   0.0640293   0.0000000), wk =   0.0138889
        k(    6) = (   0.0000000   0.0800367   0.0000000), wk =   0.0138889
        k(    7) = (   0.0000000  -0.0960440   0.0000000), wk =   0.0069444
        k(    8) = (   0.0141605  -0.0074642   0.0000000), wk =   0.0138889
        k(    9) = (   0.0141605   0.0085431   0.0000000), wk =   0.0138889
        k(   10) = (   0.0141605   0.0245504   0.0000000), wk =   0.0138889
        k(   11) = (   0.0141605   0.0405578   0.0000000), wk =   0.0138889
        k(   12) = (   0.0141605   0.0565651   0.0000000), wk =   0.0138889
        k(   13) = (   0.0141605   0.0725724   0.0000000), wk =   0.0138889
        k(   14) = (   0.0141605  -0.1035082   0.0000000), wk =   0.0138889
        k(   15) = (   0.0141605  -0.0875009   0.0000000), wk =   0.0138889
        k(   16) = (   0.0141605  -0.0714935   0.0000000), wk =   0.0138889
        k(   17) = (   0.0141605  -0.0554862   0.0000000), wk =   0.0138889
        k(   18) = (   0.0141605  -0.0394789   0.0000000), wk =   0.0138889
        k(   19) = (   0.0141605  -0.0234715   0.0000000), wk =   0.0138889
        k(   20) = (   0.0283210  -0.0149284   0.0000000), wk =   0.0138889
        k(   21) = (   0.0283210   0.0010789   0.0000000), wk =   0.0138889
        k(   22) = (   0.0283210   0.0170862   0.0000000), wk =   0.0138889
        k(   23) = (   0.0283210   0.0330936   0.0000000), wk =   0.0138889
        k(   24) = (   0.0283210   0.0491009   0.0000000), wk =   0.0138889
        k(   25) = (   0.0283210   0.0651082   0.0000000), wk =   0.0138889
        k(   26) = (   0.0283210  -0.1109724   0.0000000), wk =   0.0138889
        k(   27) = (   0.0283210  -0.0949651   0.0000000), wk =   0.0138889
        k(   28) = (   0.0283210  -0.0789578   0.0000000), wk =   0.0138889
        k(   29) = (   0.0283210  -0.0629504   0.0000000), wk =   0.0138889
        k(   30) = (   0.0283210  -0.0469431   0.0000000), wk =   0.0138889
        k(   31) = (   0.0283210  -0.0309358   0.0000000), wk =   0.0138889
        k(   32) = (   0.0424815  -0.0223926   0.0000000), wk =   0.0138889
        k(   33) = (   0.0424815  -0.0063853   0.0000000), wk =   0.0138889
        k(   34) = (   0.0424815   0.0096220   0.0000000), wk =   0.0138889
        k(   35) = (   0.0424815   0.0256293   0.0000000), wk =   0.0138889
        k(   36) = (   0.0424815   0.0416367   0.0000000), wk =   0.0138889
        k(   37) = (   0.0424815   0.0576440   0.0000000), wk =   0.0138889
        k(   38) = (   0.0424815  -0.1184366   0.0000000), wk =   0.0138889
        k(   39) = (   0.0424815  -0.1024293   0.0000000), wk =   0.0138889
        k(   40) = (   0.0424815  -0.0864220   0.0000000), wk =   0.0138889
        k(   41) = (   0.0424815  -0.0704146   0.0000000), wk =   0.0138889
        k(   42) = (   0.0424815  -0.0544073   0.0000000), wk =   0.0138889
        k(   43) = (   0.0424815  -0.0384000   0.0000000), wk =   0.0138889
        k(   44) = (   0.0566421  -0.0298569   0.0000000), wk =   0.0138889
        k(   45) = (   0.0566421  -0.0138495   0.0000000), wk =   0.0138889
        k(   46) = (   0.0566421   0.0021578   0.0000000), wk =   0.0138889
        k(   47) = (   0.0566421   0.0181651   0.0000000), wk =   0.0138889
        k(   48) = (   0.0566421   0.0341725   0.0000000), wk =   0.0138889
        k(   49) = (   0.0566421   0.0501798   0.0000000), wk =   0.0138889
        k(   50) = (   0.0566421  -0.1259008   0.0000000), wk =   0.0138889
        k(   51) = (   0.0566421  -0.1098935   0.0000000), wk =   0.0138889
        k(   52) = (   0.0566421  -0.0938862   0.0000000), wk =   0.0138889
        k(   53) = (   0.0566421  -0.0778789   0.0000000), wk =   0.0138889
        k(   54) = (   0.0566421  -0.0618715   0.0000000), wk =   0.0138889
        k(   55) = (   0.0566421  -0.0458642   0.0000000), wk =   0.0138889
        k(   56) = (   0.0708026  -0.0373211   0.0000000), wk =   0.0138889
        k(   57) = (   0.0708026  -0.0213137   0.0000000), wk =   0.0138889
        k(   58) = (   0.0708026  -0.0053064   0.0000000), wk =   0.0138889
        k(   59) = (   0.0708026   0.0107009   0.0000000), wk =   0.0138889
        k(   60) = (   0.0708026   0.0267082   0.0000000), wk =   0.0138889
        k(   61) = (   0.0708026   0.0427156   0.0000000), wk =   0.0138889
        k(   62) = (   0.0708026  -0.1333651   0.0000000), wk =   0.0138889
        k(   63) = (   0.0708026  -0.1173577   0.0000000), wk =   0.0138889
        k(   64) = (   0.0708026  -0.1013504   0.0000000), wk =   0.0138889
        k(   65) = (   0.0708026  -0.0853431   0.0000000), wk =   0.0138889
        k(   66) = (   0.0708026  -0.0693357   0.0000000), wk =   0.0138889
        k(   67) = (   0.0708026  -0.0533284   0.0000000), wk =   0.0138889
        k(   68) = (  -0.0849631   0.0447853   0.0000000), wk =   0.0069444
        k(   69) = (  -0.0849631   0.0607926   0.0000000), wk =   0.0138889
        k(   70) = (  -0.0849631   0.0768000   0.0000000), wk =   0.0138889
        k(   71) = (  -0.0849631   0.0928073   0.0000000), wk =   0.0138889
        k(   72) = (  -0.0849631   0.1088146   0.0000000), wk =   0.0138889
        k(   73) = (  -0.0849631   0.1248219   0.0000000), wk =   0.0138889
        k(   74) = (  -0.0849631  -0.0512587   0.0000000), wk =   0.0069444

     Dense  grid:  1122851 G-vectors     FFT dimensions: (  90,  90, 360)

     Smooth grid:   284079 G-vectors     FFT dimensions: (  54,  54, 225)

     Estimated max dynamical RAM per process >     347.43 MB

     Estimated total dynamical RAM >      12.55 GB

     Check: negative core charge=   -0.000003
     Generating pointlists ...
     new r_m :   1.2000 (alat units)  2.2676 (a.u.) for type    1
     new r_m :   1.2000 (alat units)  2.2676 (a.u.) for type    2

     Initial potential from superposition of free atoms

     starting charge  161.96771, renormalised to  162.00000


     %%%%%%%%%%%%%%%%%%%%%%%%%%%%%%%%%%%%%%%%%%%%%%%%%%%%%%%%%%%%%%%%%%%%%%%%
     %                                                                      %
     % You are using vdW-DF, which was implemented by the Thonhauser group. %
     % Please cite the following two papers that made this development      %
     % possible and the two reviews that describe the various versions:     %
     %                                                                      %
     %   T. Thonhauser et al., PRL 115, 136402 (2015).                      %
     %   T. Thonhauser et al., PRB 76, 125112 (2007).                       %
     %   K. Berland et al., Rep. Prog. Phys. 78, 066501 (2015).             %
     %   D.C. Langreth et al., J. Phys.: Condens. Matter 21, 084203 (2009). %
     %                                                                      %
     %                                                                      %
     % If you are calculating the stress with vdW-DF, please also cite:     %
     %                                                                      %
     %   R. Sabatini et al., J. Phys.: Condens. Matter 24, 424209 (2012).   %
     %                                                                      %
     %%%%%%%%%%%%%%%%%%%%%%%%%%%%%%%%%%%%%%%%%%%%%%%%%%%%%%%%%%%%%%%%%%%%%%%%



     Adding external electric field

     Computed dipole along edir(3) : 
        Dipole                0.0020 Ry au,          0.0050 Debye
        Dipole field          0.0000 Ry au, 

        Potential amp.       -0.0004 Ry
        Total length         45.7836 bohr


     Adding external electric field

     Computed dipole along edir(3) : 
        Dipole                0.0020 Ry au,          0.0050 Debye
        Dipole field          0.0000 Ry au, 

        Potential amp.       -0.0004 Ry
        Total length         45.7836 bohr

     Starting wfcs are  114 randomized atomic wfcs

     total cpu time spent up to now is      220.6 secs

     Self-consistent Calculation

     iteration #  1     ecut=    55.12 Ry     beta= 0.10
     Davidson diagonalization with overlap
     ethr =  1.00E-02,  avg # of iterations =  3.0

     Adding external electric field

     Computed dipole along edir(3) : 
        Dipole               -0.0014 Ry au,         -0.0036 Debye
        Dipole field         -0.0000 Ry au, 

        Potential amp.        0.0003 Ry
        Total length         45.7836 bohr


     Adding external electric field

     Computed dipole along edir(3) : 
        Dipole               -0.0014 Ry au,         -0.0036 Debye
        Dipole field         -0.0000 Ry au, 

        Potential amp.        0.0003 Ry
        Total length         45.7836 bohr


     total cpu time spent up to now is      766.5 secs

     total energy              =   -1893.38453377 Ry
     estimated scf accuracy    <       4.73416718 Ry

     total magnetization       =    30.08 Bohr mag/cell
     absolute magnetization    =    30.51 Bohr mag/cell

     iteration #  2     ecut=    55.12 Ry     beta= 0.10
     Davidson diagonalization with overlap
     ethr =  2.92E-03,  avg # of iterations =  2.3

     Adding external electric field

     Computed dipole along edir(3) : 
        Dipole               -0.1110 Ry au,         -0.2821 Debye
        Dipole field         -0.0003 Ry au, 

        Potential amp.        0.0249 Ry
        Total length         45.7836 bohr


     Adding external electric field

     Computed dipole along edir(3) : 
        Dipole               -0.1110 Ry au,         -0.2821 Debye
        Dipole field         -0.0003 Ry au, 

        Potential amp.        0.0249 Ry
        Total length         45.7836 bohr


     total cpu time spent up to now is     1258.1 secs

     total energy              =   -1897.99396410 Ry
     estimated scf accuracy    <       3.71895231 Ry

     total magnetization       =    29.89 Bohr mag/cell
     absolute magnetization    =    30.41 Bohr mag/cell

     iteration #  3     ecut=    55.12 Ry     beta= 0.10
     Davidson diagonalization with overlap
     ethr =  2.30E-03,  avg # of iterations =  3.8

     Adding external electric field

     Computed dipole along edir(3) : 
        Dipole                0.0901 Ry au,          0.2291 Debye
        Dipole field          0.0002 Ry au, 

        Potential amp.       -0.0202 Ry
        Total length         45.7836 bohr


     Adding external electric field

     Computed dipole along edir(3) : 
        Dipole                0.0901 Ry au,          0.2291 Debye
        Dipole field          0.0002 Ry au, 

        Potential amp.       -0.0202 Ry
        Total length         45.7836 bohr


     total cpu time spent up to now is     1773.4 secs

     total energy              =   -1898.32464240 Ry
     estimated scf accuracy    <       1.49515482 Ry

     total magnetization       =    27.94 Bohr mag/cell
     absolute magnetization    =    29.32 Bohr mag/cell

     iteration #  4     ecut=    55.12 Ry     beta= 0.10
     Davidson diagonalization with overlap
     ethr =  9.23E-04,  avg # of iterations =  2.4

     Adding external electric field

     Computed dipole along edir(3) : 
        Dipole               -0.2809 Ry au,         -0.7140 Debye
        Dipole field         -0.0007 Ry au, 

        Potential amp.        0.0629 Ry
        Total length         45.7836 bohr


     Adding external electric field

     Computed dipole along edir(3) : 
        Dipole               -0.2809 Ry au,         -0.7140 Debye
        Dipole field         -0.0007 Ry au, 

        Potential amp.        0.0629 Ry
        Total length         45.7836 bohr


     total cpu time spent up to now is     2277.4 secs

     total energy              =   -1899.45199655 Ry
     estimated scf accuracy    <       1.07564958 Ry

     total magnetization       =    27.72 Bohr mag/cell
     absolute magnetization    =    29.08 Bohr mag/cell

     iteration #  5     ecut=    55.12 Ry     beta= 0.10
     Davidson diagonalization with overlap
     ethr =  6.64E-04,  avg # of iterations =  2.8

     Adding external electric field

     Computed dipole along edir(3) : 
        Dipole               -0.0175 Ry au,         -0.0446 Debye
        Dipole field         -0.0000 Ry au, 

        Potential amp.        0.0039 Ry
        Total length         45.7836 bohr


     Adding external electric field

     Computed dipole along edir(3) : 
        Dipole               -0.0175 Ry au,         -0.0446 Debye
        Dipole field         -0.0000 Ry au, 

        Potential amp.        0.0039 Ry
        Total length         45.7836 bohr


     total cpu time spent up to now is     2787.7 secs

     total energy              =   -1900.49832103 Ry
     estimated scf accuracy    <       1.44739100 Ry

     total magnetization       =    26.46 Bohr mag/cell
     absolute magnetization    =    28.05 Bohr mag/cell

     iteration #  6     ecut=    55.12 Ry     beta= 0.10
     Davidson diagonalization with overlap
     ethr =  6.64E-04,  avg # of iterations =  1.8

     Adding external electric field

     Computed dipole along edir(3) : 
        Dipole               -0.0703 Ry au,         -0.1786 Debye
        Dipole field         -0.0002 Ry au, 

        Potential amp.        0.0157 Ry
        Total length         45.7836 bohr


     Adding external electric field

     Computed dipole along edir(3) : 
        Dipole               -0.0703 Ry au,         -0.1786 Debye
        Dipole field         -0.0002 Ry au, 

        Potential amp.        0.0157 Ry
        Total length         45.7836 bohr


     total cpu time spent up to now is     3267.9 secs

     total energy              =   -1901.45785343 Ry
     estimated scf accuracy    <       0.71652726 Ry

     total magnetization       =    25.53 Bohr mag/cell
     absolute magnetization    =    27.32 Bohr mag/cell

     iteration #  7     ecut=    55.12 Ry     beta= 0.10
     Davidson diagonalization with overlap
     ethr =  4.42E-04,  avg # of iterations =  7.6

     Adding external electric field

     Computed dipole along edir(3) : 
        Dipole                0.0029 Ry au,          0.0074 Debye
        Dipole field          0.0000 Ry au, 

        Potential amp.       -0.0007 Ry
        Total length         45.7836 bohr


     Adding external electric field

     Computed dipole along edir(3) : 
        Dipole                0.0029 Ry au,          0.0074 Debye
        Dipole field          0.0000 Ry au, 

        Potential amp.       -0.0007 Ry
        Total length         45.7836 bohr


     total cpu time spent up to now is     3875.4 secs

     total energy              =   -1901.33349847 Ry
     estimated scf accuracy    <       3.80375636 Ry

     total magnetization       =    22.93 Bohr mag/cell
     absolute magnetization    =    24.66 Bohr mag/cell

     iteration #  8     ecut=    55.12 Ry     beta= 0.10
     Davidson diagonalization with overlap
     ethr =  4.42E-04,  avg # of iterations =  2.0

     Adding external electric field

     Computed dipole along edir(3) : 
        Dipole               -0.0972 Ry au,         -0.2470 Debye
        Dipole field         -0.0002 Ry au, 

        Potential amp.        0.0218 Ry
        Total length         45.7836 bohr


     Adding external electric field

     Computed dipole along edir(3) : 
        Dipole               -0.0972 Ry au,         -0.2470 Debye
        Dipole field         -0.0002 Ry au, 

        Potential amp.        0.0218 Ry
        Total length         45.7836 bohr


     total cpu time spent up to now is     4370.8 secs

     total energy              =   -1900.52618790 Ry
     estimated scf accuracy    <       0.74006981 Ry

     total magnetization       =    24.12 Bohr mag/cell
     absolute magnetization    =    25.85 Bohr mag/cell

     iteration #  9     ecut=    55.12 Ry     beta= 0.10
     Davidson diagonalization with overlap
     ethr =  4.42E-04,  avg # of iterations =  1.2

     Adding external electric field

     Computed dipole along edir(3) : 
        Dipole               -0.0125 Ry au,         -0.0317 Debye
        Dipole field         -0.0000 Ry au, 

        Potential amp.        0.0028 Ry
        Total length         45.7836 bohr


     Adding external electric field

     Computed dipole along edir(3) : 
        Dipole               -0.0125 Ry au,         -0.0317 Debye
        Dipole field         -0.0000 Ry au, 

        Potential amp.        0.0028 Ry
        Total length         45.7836 bohr


     total cpu time spent up to now is     4803.7 secs

     total energy              =   -1899.87003434 Ry
     estimated scf accuracy    <       0.84978369 Ry

     total magnetization       =    24.42 Bohr mag/cell
     absolute magnetization    =    26.10 Bohr mag/cell

     iteration # 10     ecut=    55.12 Ry     beta= 0.10
     Davidson diagonalization with overlap
     ethr =  4.42E-04,  avg # of iterations =  1.8

     Adding external electric field

     Computed dipole along edir(3) : 
        Dipole               -0.0214 Ry au,         -0.0545 Debye
        Dipole field         -0.0001 Ry au, 

        Potential amp.        0.0048 Ry
        Total length         45.7836 bohr


     Adding external electric field

     Computed dipole along edir(3) : 
        Dipole               -0.0214 Ry au,         -0.0545 Debye
        Dipole field         -0.0001 Ry au, 

        Potential amp.        0.0048 Ry
        Total length         45.7836 bohr


     total cpu time spent up to now is     5290.6 secs

     total energy              =   -1899.78728724 Ry
     estimated scf accuracy    <       0.04503468 Ry

     total magnetization       =    24.58 Bohr mag/cell
     absolute magnetization    =    26.30 Bohr mag/cell

     iteration # 11     ecut=    55.12 Ry     beta= 0.10
     Davidson diagonalization with overlap
     c_bands:  1 eigenvalues not converged
     c_bands:  1 eigenvalues not converged
     c_bands:  1 eigenvalues not converged
     c_bands:  1 eigenvalues not converged
     c_bands:  1 eigenvalues not converged
     ethr =  2.78E-05,  avg # of iterations = 10.0

     Adding external electric field

     Computed dipole along edir(3) : 
        Dipole               -0.0213 Ry au,         -0.0542 Debye
        Dipole field         -0.0001 Ry au, 

        Potential amp.        0.0048 Ry
        Total length         45.7836 bohr


     Adding external electric field

     Computed dipole along edir(3) : 
        Dipole               -0.0213 Ry au,         -0.0542 Debye
        Dipole field         -0.0001 Ry au, 

        Potential amp.        0.0048 Ry
        Total length         45.7836 bohr


     total cpu time spent up to now is     6111.0 secs

     total energy              =   -1899.40569936 Ry
     estimated scf accuracy    <       0.05619717 Ry

     total magnetization       =    24.34 Bohr mag/cell
     absolute magnetization    =    26.04 Bohr mag/cell

     iteration # 12     ecut=    55.12 Ry     beta= 0.10
     Davidson diagonalization with overlap
     ethr =  2.78E-05,  avg # of iterations =  1.1

     Adding external electric field

     Computed dipole along edir(3) : 
        Dipole               -0.0249 Ry au,         -0.0634 Debye
        Dipole field         -0.0001 Ry au, 

        Potential amp.        0.0056 Ry
        Total length         45.7836 bohr


     Adding external electric field

     Computed dipole along edir(3) : 
        Dipole               -0.0249 Ry au,         -0.0634 Debye
        Dipole field         -0.0001 Ry au, 

        Potential amp.        0.0056 Ry
        Total length         45.7836 bohr


     total cpu time spent up to now is     6528.2 secs

     total energy              =   -1899.04197665 Ry
     estimated scf accuracy    <       0.05091626 Ry

     total magnetization       =    24.35 Bohr mag/cell
     absolute magnetization    =    26.05 Bohr mag/cell

     iteration # 13     ecut=    55.12 Ry     beta= 0.10
     Davidson diagonalization with overlap
     ethr =  2.78E-05,  avg # of iterations =  1.0

     Adding external electric field

     Computed dipole along edir(3) : 
        Dipole               -0.0085 Ry au,         -0.0217 Debye
        Dipole field         -0.0000 Ry au, 

        Potential amp.        0.0019 Ry
        Total length         45.7836 bohr


     Adding external electric field

     Computed dipole along edir(3) : 
        Dipole               -0.0085 Ry au,         -0.0217 Debye
        Dipole field         -0.0000 Ry au, 

        Potential amp.        0.0019 Ry
        Total length         45.7836 bohr


     total cpu time spent up to now is     6953.3 secs

     total energy              =   -1898.77472660 Ry
     estimated scf accuracy    <       0.04671799 Ry

     total magnetization       =    24.38 Bohr mag/cell
     absolute magnetization    =    26.07 Bohr mag/cell

     iteration # 14     ecut=    55.12 Ry     beta= 0.10
     Davidson diagonalization with overlap
     ethr =  2.78E-05,  avg # of iterations =  1.1

     Adding external electric field

     Computed dipole along edir(3) : 
        Dipole               -0.0042 Ry au,         -0.0107 Debye
        Dipole field         -0.0000 Ry au, 

        Potential amp.        0.0009 Ry
        Total length         45.7836 bohr


     Adding external electric field

     Computed dipole along edir(3) : 
        Dipole               -0.0042 Ry au,         -0.0107 Debye
        Dipole field         -0.0000 Ry au, 

        Potential amp.        0.0009 Ry
        Total length         45.7836 bohr


     total cpu time spent up to now is     7375.1 secs

     total energy              =   -1898.69361224 Ry
     estimated scf accuracy    <       0.01053507 Ry

     total magnetization       =    24.38 Bohr mag/cell
     absolute magnetization    =    26.08 Bohr mag/cell

     iteration # 15     ecut=    55.12 Ry     beta= 0.10
     Davidson diagonalization with overlap
     c_bands:  1 eigenvalues not converged
     c_bands:  1 eigenvalues not converged
     ethr =  6.50E-06,  avg # of iterations =  5.9

     Adding external electric field

     Computed dipole along edir(3) : 
        Dipole               -0.0097 Ry au,         -0.0246 Debye
        Dipole field         -0.0000 Ry au, 

        Potential amp.        0.0022 Ry
        Total length         45.7836 bohr


     Adding external electric field

     Computed dipole along edir(3) : 
        Dipole               -0.0097 Ry au,         -0.0246 Debye
        Dipole field         -0.0000 Ry au, 

        Potential amp.        0.0022 Ry
        Total length         45.7836 bohr


     total cpu time spent up to now is     7973.9 secs

     total energy              =   -1898.40060126 Ry
     estimated scf accuracy    <       0.02315565 Ry

     total magnetization       =    24.33 Bohr mag/cell
     absolute magnetization    =    26.04 Bohr mag/cell

     iteration # 16     ecut=    55.12 Ry     beta= 0.10
     Davidson diagonalization with overlap
     ethr =  6.50E-06,  avg # of iterations =  1.1

     Adding external electric field

     Computed dipole along edir(3) : 
        Dipole               -0.0118 Ry au,         -0.0300 Debye
        Dipole field         -0.0000 Ry au, 

        Potential amp.        0.0026 Ry
        Total length         45.7836 bohr


     Adding external electric field

     Computed dipole along edir(3) : 
        Dipole               -0.0118 Ry au,         -0.0300 Debye
        Dipole field         -0.0000 Ry au, 

        Potential amp.        0.0026 Ry
        Total length         45.7836 bohr


     total cpu time spent up to now is     8396.8 secs

     total energy              =   -1898.14954435 Ry
     estimated scf accuracy    <       0.00751900 Ry

     total magnetization       =    24.31 Bohr mag/cell
     absolute magnetization    =    26.01 Bohr mag/cell

     iteration # 17     ecut=    55.12 Ry     beta= 0.10
     Davidson diagonalization with overlap
     ethr =  4.64E-06,  avg # of iterations =  2.2

     Adding external electric field

     Computed dipole along edir(3) : 
        Dipole               -0.0130 Ry au,         -0.0329 Debye
        Dipole field         -0.0000 Ry au, 

        Potential amp.        0.0029 Ry
        Total length         45.7836 bohr


     Adding external electric field

     Computed dipole along edir(3) : 
        Dipole               -0.0130 Ry au,         -0.0329 Debye
        Dipole field         -0.0000 Ry au, 

        Potential amp.        0.0029 Ry
        Total length         45.7836 bohr


     total cpu time spent up to now is     8887.3 secs

     total energy              =   -1897.88628691 Ry
     estimated scf accuracy    <       0.00168495 Ry

     total magnetization       =    24.22 Bohr mag/cell
     absolute magnetization    =    25.95 Bohr mag/cell

     iteration # 18     ecut=    55.12 Ry     beta= 0.10
     Davidson diagonalization with overlap
     c_bands:  1 eigenvalues not converged
     c_bands:  1 eigenvalues not converged
     c_bands:  1 eigenvalues not converged
     ethr =  1.04E-06,  avg # of iterations =  6.5

     Adding external electric field

     Computed dipole along edir(3) : 
        Dipole               -0.0137 Ry au,         -0.0348 Debye
        Dipole field         -0.0000 Ry au, 

        Potential amp.        0.0031 Ry
        Total length         45.7836 bohr


     Adding external electric field

     Computed dipole along edir(3) : 
        Dipole               -0.0137 Ry au,         -0.0348 Debye
        Dipole field         -0.0000 Ry au, 

        Potential amp.        0.0031 Ry
        Total length         45.7836 bohr


     total cpu time spent up to now is     9458.7 secs

     total energy              =   -1897.69431895 Ry
     estimated scf accuracy    <       0.00126467 Ry

     total magnetization       =    24.22 Bohr mag/cell
     absolute magnetization    =    25.94 Bohr mag/cell

     iteration # 19     ecut=    55.12 Ry     beta= 0.10
     Davidson diagonalization with overlap
     c_bands:  1 eigenvalues not converged
     ethr =  7.81E-07,  avg # of iterations =  1.3

     Adding external electric field

     Computed dipole along edir(3) : 
        Dipole               -0.0130 Ry au,         -0.0330 Debye
        Dipole field         -0.0000 Ry au, 

        Potential amp.        0.0029 Ry
        Total length         45.7836 bohr


     Adding external electric field

     Computed dipole along edir(3) : 
        Dipole               -0.0130 Ry au,         -0.0330 Debye
        Dipole field         -0.0000 Ry au, 

        Potential amp.        0.0029 Ry
        Total length         45.7836 bohr


     total cpu time spent up to now is     9893.7 secs

     total energy              =   -1897.50767842 Ry
     estimated scf accuracy    <       0.00058014 Ry

     total magnetization       =    24.22 Bohr mag/cell
     absolute magnetization    =    25.94 Bohr mag/cell

     iteration # 20     ecut=    55.12 Ry     beta= 0.10
     Davidson diagonalization with overlap
     c_bands:  1 eigenvalues not converged
     ethr =  3.58E-07,  avg # of iterations =  3.0

     Adding external electric field

     Computed dipole along edir(3) : 
        Dipole               -0.0127 Ry au,         -0.0323 Debye
        Dipole field         -0.0000 Ry au, 

        Potential amp.        0.0028 Ry
        Total length         45.7836 bohr


     Adding external electric field

     Computed dipole along edir(3) : 
        Dipole               -0.0127 Ry au,         -0.0323 Debye
        Dipole field         -0.0000 Ry au, 

        Potential amp.        0.0028 Ry
        Total length         45.7836 bohr


     total cpu time spent up to now is    10418.3 secs

     total energy              =   -1897.36042469 Ry
     estimated scf accuracy    <       0.00014374 Ry

     total magnetization       =    24.25 Bohr mag/cell
     absolute magnetization    =    25.97 Bohr mag/cell

     iteration # 21     ecut=    55.12 Ry     beta= 0.10
     Davidson diagonalization with overlap
     ethr =  8.87E-08,  avg # of iterations =  6.9

     Adding external electric field

     Computed dipole along edir(3) : 
        Dipole               -0.0131 Ry au,         -0.0332 Debye
        Dipole field         -0.0000 Ry au, 

        Potential amp.        0.0029 Ry
        Total length         45.7836 bohr


     Adding external electric field

     Computed dipole along edir(3) : 
        Dipole               -0.0131 Ry au,         -0.0332 Debye
        Dipole field         -0.0000 Ry au, 

        Potential amp.        0.0029 Ry
        Total length         45.7836 bohr


     total cpu time spent up to now is    11064.0 secs

     total energy              =   -1897.22419642 Ry
     estimated scf accuracy    <       0.00006390 Ry

     total magnetization       =    24.23 Bohr mag/cell
     absolute magnetization    =    25.96 Bohr mag/cell

     iteration # 22     ecut=    55.12 Ry     beta= 0.10
     Davidson diagonalization with overlap
     ethr =  3.94E-08,  avg # of iterations =  2.5

     Adding external electric field

     Computed dipole along edir(3) : 
        Dipole               -0.0137 Ry au,         -0.0349 Debye
        Dipole field         -0.0000 Ry au, 

        Potential amp.        0.0031 Ry
        Total length         45.7836 bohr


     Adding external electric field

     Computed dipole along edir(3) : 
        Dipole               -0.0137 Ry au,         -0.0349 Debye
        Dipole field         -0.0000 Ry au, 

        Potential amp.        0.0031 Ry
        Total length         45.7836 bohr


     total cpu time spent up to now is    11565.1 secs

     total energy              =   -1897.10635890 Ry
     estimated scf accuracy    <       0.00003280 Ry

     total magnetization       =    24.22 Bohr mag/cell
     absolute magnetization    =    25.95 Bohr mag/cell

     iteration # 23     ecut=    55.12 Ry     beta= 0.10
     Davidson diagonalization with overlap
     ethr =  2.02E-08,  avg # of iterations =  5.5

     Adding external electric field

     Computed dipole along edir(3) : 
        Dipole               -0.0132 Ry au,         -0.0336 Debye
        Dipole field         -0.0000 Ry au, 

        Potential amp.        0.0030 Ry
        Total length         45.7836 bohr


     Adding external electric field

     Computed dipole along edir(3) : 
        Dipole               -0.0132 Ry au,         -0.0336 Debye
        Dipole field         -0.0000 Ry au, 

        Potential amp.        0.0030 Ry
        Total length         45.7836 bohr


     total cpu time spent up to now is    12200.6 secs

     total energy              =   -1896.99735361 Ry
     estimated scf accuracy    <       0.00002763 Ry

     total magnetization       =    24.21 Bohr mag/cell
     absolute magnetization    =    25.94 Bohr mag/cell

     iteration # 24     ecut=    55.12 Ry     beta= 0.10
     Davidson diagonalization with overlap
     ethr =  1.71E-08,  avg # of iterations =  5.8

     Adding external electric field

     Computed dipole along edir(3) : 
        Dipole               -0.0134 Ry au,         -0.0339 Debye
        Dipole field         -0.0000 Ry au, 

        Potential amp.        0.0030 Ry
        Total length         45.7836 bohr


     Adding external electric field

     Computed dipole along edir(3) : 
        Dipole               -0.0134 Ry au,         -0.0339 Debye
        Dipole field         -0.0000 Ry au, 

        Potential amp.        0.0030 Ry
        Total length         45.7836 bohr


     total cpu time spent up to now is    12917.4 secs

     total energy              =   -1896.90072700 Ry
     estimated scf accuracy    <       0.00002779 Ry

     total magnetization       =    24.21 Bohr mag/cell
     absolute magnetization    =    25.94 Bohr mag/cell

     iteration # 25     ecut=    55.12 Ry     beta= 0.10
     Davidson diagonalization with overlap
     ethr =  1.71E-08,  avg # of iterations =  2.0

     Adding external electric field

     Computed dipole along edir(3) : 
        Dipole               -0.0153 Ry au,         -0.0390 Debye
        Dipole field         -0.0000 Ry au, 

        Potential amp.        0.0034 Ry
        Total length         45.7836 bohr


     Adding external electric field

     Computed dipole along edir(3) : 
        Dipole               -0.0153 Ry au,         -0.0390 Debye
        Dipole field         -0.0000 Ry au, 

        Potential amp.        0.0034 Ry
        Total length         45.7836 bohr


     Magnetic moment per site:
     atom:    1    charge:   13.7027    magn:    4.0501    constr:    0.0000
     atom:    2    charge:   13.7027    magn:    4.0501    constr:    0.0000
     atom:    3    charge:   10.4764    magn:   -0.0448    constr:    0.0000
     atom:    4    charge:   10.4763    magn:   -0.0448    constr:    0.0000
     atom:    5    charge:   13.7730    magn:    3.8778    constr:    0.0000
     atom:    6    charge:   13.7729    magn:    3.8779    constr:    0.0000
     atom:    7    charge:   10.5318    magn:   -0.0733    constr:    0.0000
     atom:    8    charge:   10.5318    magn:   -0.0733    constr:    0.0000
     atom:    9    charge:   13.7116    magn:    4.0285    constr:    0.0000
     atom:   10    charge:   13.7117    magn:    4.0284    constr:    0.0000
     atom:   11    charge:   10.4515    magn:   -0.0435    constr:    0.0000
     atom:   12    charge:   10.4514    magn:   -0.0435    constr:    0.0000

     total cpu time spent up to now is    13414.2 secs

     End of self-consistent calculation

     Number of k-points >= 100: set verbosity='high' to print the bands.

     the Fermi energy is     0.5720 ev

!    total energy              =   -1896.25852786 Ry
     estimated scf accuracy    <       0.00000407 Ry
     smearing contrib. (-TS)   =      -0.05033640 Ry
     internal energy E=F+TS    =   -1896.20819146 Ry

     The total energy is F=E-TS. E is the sum of the following terms:
     one-electron contribution =  -12959.87871704 Ry
     hartree contribution      =    6516.99010859 Ry
     xc contribution           =    -317.35268728 Ry
     ewald contribution        =    4864.03310369 Ry
     electric field correction =       0.00000057 Ry

     total magnetization       =    24.21 Bohr mag/cell
     absolute magnetization    =    25.94 Bohr mag/cell

     convergence has been achieved in  25 iterations

     Forces acting on atoms (cartesian axes, Ry/au):

     atom    1 type  1   force =     0.00437621    0.00265564    0.00113280
     atom    2 type  1   force =     0.00438426    0.00262870    0.00112303
     atom    3 type  2   force =    -0.00262579   -0.00156549   -0.01464615
     atom    4 type  2   force =    -0.00261838   -0.00159562   -0.01465347
     atom    5 type  1   force =    -0.00258453   -0.00156822    0.00657482
     atom    6 type  1   force =    -0.00259610   -0.00156923    0.00659337
     atom    7 type  2   force =     0.00338882    0.00204645    0.00235553
     atom    8 type  2   force =     0.00337671    0.00203935    0.00233903
     atom    9 type  1   force =    -0.00122019   -0.00075148    0.00271963
     atom   10 type  1   force =    -0.00122701   -0.00072897    0.00273697
     atom   11 type  2   force =    -0.00132906   -0.00079876    0.00186337
     atom   12 type  2   force =    -0.00132494   -0.00079237    0.00186107

     Total force =     0.026093     Total SCF correction =     0.007189
     SCF correction compared to forces is large: reduce conv_thr to get better values

     Writing output data file ./Mn2Cd2/Mn2Cd2_beef.save/

     init_run     :    217.01s CPU    218.45s WALL (       1 calls)
     electrons    :  13119.43s CPU  13194.34s WALL (       1 calls)
     forces       :    156.10s CPU    156.86s WALL (       1 calls)

     Called by init_run:
     wfcinit      :    202.58s CPU    203.66s WALL (       1 calls)
     potinit      :      9.24s CPU      9.41s WALL (       1 calls)
     hinit0       :      2.21s CPU      2.23s WALL (       1 calls)

     Called by electrons:
     c_bands      :  11675.71s CPU  11729.24s WALL (      25 calls)
     sum_band     :   1330.00s CPU   1342.85s WALL (      25 calls)
     v_of_rho     :     68.48s CPU     72.30s WALL (      26 calls)
     newd         :     50.72s CPU     54.96s WALL (      26 calls)
     mix_rho      :      2.98s CPU      3.09s WALL (      25 calls)
     vdW_kernel   :      5.70s CPU      5.72s WALL (       1 calls)

     Called by c_bands:
     init_us_2    :     43.90s CPU     44.60s WALL (    7696 calls)
     cegterg      :  11575.14s CPU  11621.97s WALL (    3700 calls)

     Called by *egterg:
     cdiaghg      :    441.72s CPU    442.32s WALL (   16235 calls)
     h_psi        :   5446.67s CPU   5477.85s WALL (   16383 calls)
     s_psi        :   1932.62s CPU   1937.01s WALL (   16383 calls)
     g_psi        :      3.64s CPU      3.68s WALL (   12535 calls)

     Called by h_psi:
     h_psi:calbec :   1955.21s CPU   1961.08s WALL (   16383 calls)
     vloc_psi     :   1510.37s CPU   1531.24s WALL (   16383 calls)
     add_vuspsi   :   1957.35s CPU   1961.55s WALL (   16383 calls)

     General routines
     calbec       :   2942.08s CPU   2950.88s WALL (   20675 calls)
     fft          :     45.90s CPU     47.57s WALL (    2391 calls)
     ffts         :      0.20s CPU      0.21s WALL (     102 calls)
     fftw         :   1726.29s CPU   1750.19s WALL ( 2000034 calls)
     interpolate  :      1.04s CPU      1.09s WALL (      52 calls)

     Parallel routines
     fft_scatt_xy :    150.15s CPU    152.21s WALL ( 2002527 calls)
     fft_scatt_yz :    320.80s CPU    326.33s WALL ( 2002527 calls)

     PWSCF        :      3h45m CPU      3h47m WALL


   This run was terminated on:  19:56:54  27Jun2022            

=------------------------------------------------------------------------------=
   JOB DONE.
=------------------------------------------------------------------------------=
