
     Program PWSCF v.6.6 starts on 28Jun2022 at  2:15:56 

     This program is part of the open-source Quantum ESPRESSO suite
     for quantum simulation of materials; please cite
         "P. Giannozzi et al., J. Phys.:Condens. Matter 21 395502 (2009);
         "P. Giannozzi et al., J. Phys.:Condens. Matter 29 465901 (2017);
          URL http://www.quantum-espresso.org", 
     in publications or presentations arising from this work. More details at
     http://www.quantum-espresso.org/quote

     Parallel version (MPI), running on    37 processors

     MPI processes distributed on     1 nodes
     R & G space division:  proc/nbgrp/npool/nimage =      37
     Fft bands division:     nmany     =       1
     Reading input from Mn2Ir2.in
Warning: card &CELL ignored
Warning: card / ignored

     Current dimensions of program PWSCF are:
     Max number of different atomic species (ntypx) = 10
     Max number of k-points (npk) =  40000
     Max angular momentum in pseudopotentials (lmaxx) =  3
     Presently stress not available with electric field and gates

     Message from routine cell_base_init:
     DEPRECATED: use true lattice parameter, not A to a.u. conversion factor
     file Mn.pbe-spn-rrkjus_psl.0.3.1.UPF: wavefunction(s)  3D renormalized
     file Ir.pbe-n-rrkjus_psl.0.2.3.UPF: wavefunction(s)  5D renormalized

     **************************************************************************
     Initializing libbeef V0.1.2 with the BEEF-vdW functional.
     Citation: Wellendorff et al., PRB 85, 235149 (2012).
     **************************************************************************


     IMPORTANT: XC functional enforced from input :
     Exchange-correlation= BEEF-VDW
                           (   1   4  43  14   2   0   0)
     Any further DFT definition will be discarded
     Please, verify this is what you really want


     Subspace diagonalization in iterative solution of the eigenvalue problem:
     a serial algorithm will be used


     Parallelization info
     --------------------
     sticks:   dense  smooth     PW     G-vecs:    dense   smooth      PW
     Min         108      43     12                24838     6275     960
     Max         109      44     13                24857     6292     981
     Sum        4011    1599    457               919239   232551   35817



     bravais-lattice index     =            0
     lattice parameter (alat)  =       1.8897  a.u.
     unit-cell volume          =    4204.3763 (a.u.)^3
     number of atoms/cell      =           12
     number of atomic types    =            2
     number of electrons       =       144.00
     number of Kohn-Sham states=           86
     kinetic-energy cutoff     =      55.1240  Ry
     charge density cutoff     =     551.2396  Ry
     convergence threshold     =      1.0E-05
     mixing beta               =       0.1000
     number of iterations used =           10  plain     mixing
     Exchange-correlation= BEEF-VDW
                           (   1   4  43  14   2   0   0)

     celldm(1)=   1.889726  celldm(2)=   0.000000  celldm(3)=   0.000000
     celldm(4)=   0.000000  celldm(5)=   0.000000  celldm(6)=   0.000000

     crystal axes: (cart. coord. in units of alat)
               a(1) = (   5.302402   0.000000   0.000000 )  
               a(2) = (   2.216324   4.816989   0.000000 )  
               a(3) = (   0.000000   0.000000  24.392525 )  

     reciprocal axes: (cart. coord. in units 2 pi/alat)
               b(1) = (  0.188594 -0.086773  0.000000 )  
               b(2) = (  0.000000  0.207599  0.000000 )  
               b(3) = (  0.000000  0.000000  0.040996 )  


     PseudoPot. # 1 for Mn read from file:
     ../pseudo/Mn.pbe-spn-rrkjus_psl.0.3.1.UPF
     MD5 check sum: e1cac159bdd2ba70c18e85765a5d4279
     Pseudo is Ultrasoft + core correction, Zval = 15.0
     Generated using "atomic" code by A. Dal Corso v.6.2.2
     Using radial grid of 1187 points,  6 beta functions with: 
                l(1) =   0
                l(2) =   0
                l(3) =   1
                l(4) =   1
                l(5) =   2
                l(6) =   2
     Q(r) pseudized with 0 coefficients 


     PseudoPot. # 2 for Ir read from file:
     ../pseudo/Ir.pbe-n-rrkjus_psl.0.2.3.UPF
     MD5 check sum: a93e608e8ddc29ee62145620b5f41564
     Pseudo is Ultrasoft + core correction, Zval =  9.0
     Generated using "atomic" code by A. Dal Corso v.5.0.2 svn rev. 9415
     Using radial grid of 1277 points,  6 beta functions with: 
                l(1) =   0
                l(2) =   0
                l(3) =   1
                l(4) =   1
                l(5) =   2
                l(6) =   2
     Q(r) pseudized with 0 coefficients 


     atomic species   valence    mass     pseudopotential
        Mn            15.00    54.93804     Mn( 1.00)
        Ir             9.00   192.21700     Ir( 1.00)

     Starting magnetic structure 
     atomic species   magnetization
        Mn           0.667
        Ir           0.000

     No symmetry found



   Cartesian axes

     site n.     atom                  positions (alat units)
         1           Mn  tau(   1) = (   0.0000000   0.0000000  10.0000000  )
         2           Mn  tau(   2) = (   3.7593629   2.4084943  10.0000000  )
         3           Ir  tau(   3) = (   2.6512011   0.0000000  10.0000000  )
         4           Ir  tau(   4) = (   1.1081618   2.4084943  10.0000000  )
         5           Mn  tau(   5) = (   5.3024022   3.3970665  12.1962627  )
         6           Mn  tau(   6) = (   1.5430393   0.9885722  12.1962627  )
         7           Ir  tau(   7) = (   2.6512011   3.3970665  12.1962627  )
         8           Ir  tau(   8) = (   4.1942405   0.9885722  12.1962627  )
         9           Mn  tau(   9) = (   3.4339760   2.2000318  14.5277954  )
        10           Mn  tau(  10) = (   7.1930678   4.6083500  14.5277320  )
        11           Ir  tau(  11) = (   6.0890340   2.2027032  14.2464583  )
        12           Ir  tau(  12) = (   4.5461790   4.6109119  14.2464578  )

     number of k points=    74  Fermi-Dirac smearing, width (Ry)=  0.0100
                       cart. coord. in units 2pi/alat
        k(    1) = (   0.0000000   0.0000000   0.0000000), wk =   0.0069444
        k(    2) = (   0.0000000   0.0172999   0.0000000), wk =   0.0138889
        k(    3) = (   0.0000000   0.0345998   0.0000000), wk =   0.0138889
        k(    4) = (   0.0000000   0.0518996   0.0000000), wk =   0.0138889
        k(    5) = (   0.0000000   0.0691995   0.0000000), wk =   0.0138889
        k(    6) = (   0.0000000   0.0864994   0.0000000), wk =   0.0138889
        k(    7) = (   0.0000000  -0.1037993   0.0000000), wk =   0.0069444
        k(    8) = (   0.0157161  -0.0072311   0.0000000), wk =   0.0138889
        k(    9) = (   0.0157161   0.0100688   0.0000000), wk =   0.0138889
        k(   10) = (   0.0157161   0.0273687   0.0000000), wk =   0.0138889
        k(   11) = (   0.0157161   0.0446686   0.0000000), wk =   0.0138889
        k(   12) = (   0.0157161   0.0619684   0.0000000), wk =   0.0138889
        k(   13) = (   0.0157161   0.0792683   0.0000000), wk =   0.0138889
        k(   14) = (   0.0157161  -0.1110304   0.0000000), wk =   0.0138889
        k(   15) = (   0.0157161  -0.0937305   0.0000000), wk =   0.0138889
        k(   16) = (   0.0157161  -0.0764306   0.0000000), wk =   0.0138889
        k(   17) = (   0.0157161  -0.0591307   0.0000000), wk =   0.0138889
        k(   18) = (   0.0157161  -0.0418308   0.0000000), wk =   0.0138889
        k(   19) = (   0.0157161  -0.0245310   0.0000000), wk =   0.0138889
        k(   20) = (   0.0314323  -0.0144622   0.0000000), wk =   0.0138889
        k(   21) = (   0.0314323   0.0028377   0.0000000), wk =   0.0138889
        k(   22) = (   0.0314323   0.0201376   0.0000000), wk =   0.0138889
        k(   23) = (   0.0314323   0.0374375   0.0000000), wk =   0.0138889
        k(   24) = (   0.0314323   0.0547373   0.0000000), wk =   0.0138889
        k(   25) = (   0.0314323   0.0720372   0.0000000), wk =   0.0138889
        k(   26) = (   0.0314323  -0.1182615   0.0000000), wk =   0.0138889
        k(   27) = (   0.0314323  -0.1009616   0.0000000), wk =   0.0138889
        k(   28) = (   0.0314323  -0.0836617   0.0000000), wk =   0.0138889
        k(   29) = (   0.0314323  -0.0663618   0.0000000), wk =   0.0138889
        k(   30) = (   0.0314323  -0.0490619   0.0000000), wk =   0.0138889
        k(   31) = (   0.0314323  -0.0317621   0.0000000), wk =   0.0138889
        k(   32) = (   0.0471484  -0.0216933   0.0000000), wk =   0.0138889
        k(   33) = (   0.0471484  -0.0043934   0.0000000), wk =   0.0138889
        k(   34) = (   0.0471484   0.0129065   0.0000000), wk =   0.0138889
        k(   35) = (   0.0471484   0.0302064   0.0000000), wk =   0.0138889
        k(   36) = (   0.0471484   0.0475063   0.0000000), wk =   0.0138889
        k(   37) = (   0.0471484   0.0648061   0.0000000), wk =   0.0138889
        k(   38) = (   0.0471484  -0.1254925   0.0000000), wk =   0.0138889
        k(   39) = (   0.0471484  -0.1081927   0.0000000), wk =   0.0138889
        k(   40) = (   0.0471484  -0.0908928   0.0000000), wk =   0.0138889
        k(   41) = (   0.0471484  -0.0735929   0.0000000), wk =   0.0138889
        k(   42) = (   0.0471484  -0.0562930   0.0000000), wk =   0.0138889
        k(   43) = (   0.0471484  -0.0389931   0.0000000), wk =   0.0138889
        k(   44) = (   0.0628646  -0.0289244   0.0000000), wk =   0.0138889
        k(   45) = (   0.0628646  -0.0116245   0.0000000), wk =   0.0138889
        k(   46) = (   0.0628646   0.0056754   0.0000000), wk =   0.0138889
        k(   47) = (   0.0628646   0.0229753   0.0000000), wk =   0.0138889
        k(   48) = (   0.0628646   0.0402752   0.0000000), wk =   0.0138889
        k(   49) = (   0.0628646   0.0575750   0.0000000), wk =   0.0138889
        k(   50) = (   0.0628646  -0.1327236   0.0000000), wk =   0.0138889
        k(   51) = (   0.0628646  -0.1154238   0.0000000), wk =   0.0138889
        k(   52) = (   0.0628646  -0.0981239   0.0000000), wk =   0.0138889
        k(   53) = (   0.0628646  -0.0808240   0.0000000), wk =   0.0138889
        k(   54) = (   0.0628646  -0.0635241   0.0000000), wk =   0.0138889
        k(   55) = (   0.0628646  -0.0462242   0.0000000), wk =   0.0138889
        k(   56) = (   0.0785807  -0.0361554   0.0000000), wk =   0.0138889
        k(   57) = (   0.0785807  -0.0188556   0.0000000), wk =   0.0138889
        k(   58) = (   0.0785807  -0.0015557   0.0000000), wk =   0.0138889
        k(   59) = (   0.0785807   0.0157442   0.0000000), wk =   0.0138889
        k(   60) = (   0.0785807   0.0330441   0.0000000), wk =   0.0138889
        k(   61) = (   0.0785807   0.0503440   0.0000000), wk =   0.0138889
        k(   62) = (   0.0785807  -0.1399547   0.0000000), wk =   0.0138889
        k(   63) = (   0.0785807  -0.1226548   0.0000000), wk =   0.0138889
        k(   64) = (   0.0785807  -0.1053550   0.0000000), wk =   0.0138889
        k(   65) = (   0.0785807  -0.0880551   0.0000000), wk =   0.0138889
        k(   66) = (   0.0785807  -0.0707552   0.0000000), wk =   0.0138889
        k(   67) = (   0.0785807  -0.0534553   0.0000000), wk =   0.0138889
        k(   68) = (  -0.0942969   0.0433865   0.0000000), wk =   0.0069444
        k(   69) = (  -0.0942969   0.0606864   0.0000000), wk =   0.0138889
        k(   70) = (  -0.0942969   0.0779863   0.0000000), wk =   0.0138889
        k(   71) = (  -0.0942969   0.0952862   0.0000000), wk =   0.0138889
        k(   72) = (  -0.0942969   0.1125861   0.0000000), wk =   0.0138889
        k(   73) = (  -0.0942969   0.1298859   0.0000000), wk =   0.0138889
        k(   74) = (  -0.0942969  -0.0604127   0.0000000), wk =   0.0069444

     Dense  grid:   919239 G-vectors     FFT dimensions: (  75,  75, 360)

     Smooth grid:   232551 G-vectors     FFT dimensions: (  48,  48, 225)

     Estimated max dynamical RAM per process >     264.47 MB

     Estimated total dynamical RAM >       9.56 GB

     Check: negative core charge=   -0.000002
     Generating pointlists ...
     new r_m :   1.0311 (alat units)  1.9486 (a.u.) for type    1
     new r_m :   1.0311 (alat units)  1.9486 (a.u.) for type    2

     Initial potential from superposition of free atoms

     starting charge  143.99612, renormalised to  144.00000


     %%%%%%%%%%%%%%%%%%%%%%%%%%%%%%%%%%%%%%%%%%%%%%%%%%%%%%%%%%%%%%%%%%%%%%%%
     %                                                                      %
     % You are using vdW-DF, which was implemented by the Thonhauser group. %
     % Please cite the following two papers that made this development      %
     % possible and the two reviews that describe the various versions:     %
     %                                                                      %
     %   T. Thonhauser et al., PRL 115, 136402 (2015).                      %
     %   T. Thonhauser et al., PRB 76, 125112 (2007).                       %
     %   K. Berland et al., Rep. Prog. Phys. 78, 066501 (2015).             %
     %   D.C. Langreth et al., J. Phys.: Condens. Matter 21, 084203 (2009). %
     %                                                                      %
     %                                                                      %
     % If you are calculating the stress with vdW-DF, please also cite:     %
     %                                                                      %
     %   R. Sabatini et al., J. Phys.: Condens. Matter 24, 424209 (2012).   %
     %                                                                      %
     %%%%%%%%%%%%%%%%%%%%%%%%%%%%%%%%%%%%%%%%%%%%%%%%%%%%%%%%%%%%%%%%%%%%%%%%



     Adding external electric field

     Computed dipole along edir(3) : 
        Dipole                0.0001 Ry au,          0.0003 Debye
        Dipole field          0.0000 Ry au, 

        Potential amp.       -0.0000 Ry
        Total length         44.9428 bohr


     Adding external electric field

     Computed dipole along edir(3) : 
        Dipole                0.0001 Ry au,          0.0003 Debye
        Dipole field          0.0000 Ry au, 

        Potential amp.       -0.0000 Ry
        Total length         44.9428 bohr

     Starting wfcs are  114 randomized atomic wfcs

     total cpu time spent up to now is      149.3 secs

     Self-consistent Calculation

     iteration #  1     ecut=    55.12 Ry     beta= 0.10
     Davidson diagonalization with overlap
     ethr =  1.00E-02,  avg # of iterations =  2.1

     Adding external electric field

     Computed dipole along edir(3) : 
        Dipole                0.0134 Ry au,          0.0340 Debye
        Dipole field          0.0000 Ry au, 

        Potential amp.       -0.0036 Ry
        Total length         44.9428 bohr


     Adding external electric field

     Computed dipole along edir(3) : 
        Dipole                0.0134 Ry au,          0.0340 Debye
        Dipole field          0.0000 Ry au, 

        Potential amp.       -0.0036 Ry
        Total length         44.9428 bohr


     total cpu time spent up to now is      483.4 secs

     total energy              =   -1665.03274728 Ry
     estimated scf accuracy    <       6.47100128 Ry

     total magnetization       =    27.86 Bohr mag/cell
     absolute magnetization    =    29.30 Bohr mag/cell

     iteration #  2     ecut=    55.12 Ry     beta= 0.10
     Davidson diagonalization with overlap
     ethr =  4.49E-03,  avg # of iterations =  1.0

     Adding external electric field

     Computed dipole along edir(3) : 
        Dipole                0.1429 Ry au,          0.3631 Debye
        Dipole field          0.0004 Ry au, 

        Potential amp.       -0.0384 Ry
        Total length         44.9428 bohr


     Adding external electric field

     Computed dipole along edir(3) : 
        Dipole                0.1429 Ry au,          0.3631 Debye
        Dipole field          0.0004 Ry au, 

        Potential amp.       -0.0384 Ry
        Total length         44.9428 bohr


     total cpu time spent up to now is      743.2 secs

     total energy              =   -1667.21346672 Ry
     estimated scf accuracy    <       4.32561338 Ry

     total magnetization       =    27.32 Bohr mag/cell
     absolute magnetization    =    29.04 Bohr mag/cell

     iteration #  3     ecut=    55.12 Ry     beta= 0.10
     Davidson diagonalization with overlap
     ethr =  3.00E-03,  avg # of iterations =  2.5

     Adding external electric field

     Computed dipole along edir(3) : 
        Dipole               -0.0155 Ry au,         -0.0394 Debye
        Dipole field         -0.0000 Ry au, 

        Potential amp.        0.0042 Ry
        Total length         44.9428 bohr


     Adding external electric field

     Computed dipole along edir(3) : 
        Dipole               -0.0155 Ry au,         -0.0394 Debye
        Dipole field         -0.0000 Ry au, 

        Potential amp.        0.0042 Ry
        Total length         44.9428 bohr


     total cpu time spent up to now is     1057.3 secs

     total energy              =   -1666.66685982 Ry
     estimated scf accuracy    <       3.03334871 Ry

     total magnetization       =    24.62 Bohr mag/cell
     absolute magnetization    =    28.35 Bohr mag/cell

     iteration #  4     ecut=    55.12 Ry     beta= 0.10
     Davidson diagonalization with overlap
     ethr =  2.11E-03,  avg # of iterations =  1.1

     Adding external electric field

     Computed dipole along edir(3) : 
        Dipole                0.2205 Ry au,          0.5605 Debye
        Dipole field          0.0007 Ry au, 

        Potential amp.       -0.0592 Ry
        Total length         44.9428 bohr


     Adding external electric field

     Computed dipole along edir(3) : 
        Dipole                0.2205 Ry au,          0.5605 Debye
        Dipole field          0.0007 Ry au, 

        Potential amp.       -0.0592 Ry
        Total length         44.9428 bohr


     total cpu time spent up to now is     1321.5 secs

     total energy              =   -1667.17888283 Ry
     estimated scf accuracy    <       2.30843937 Ry

     total magnetization       =    25.26 Bohr mag/cell
     absolute magnetization    =    28.58 Bohr mag/cell

     iteration #  5     ecut=    55.12 Ry     beta= 0.10
     Davidson diagonalization with overlap
     ethr =  1.60E-03,  avg # of iterations =  1.4

     Adding external electric field

     Computed dipole along edir(3) : 
        Dipole               -0.0119 Ry au,         -0.0302 Debye
        Dipole field         -0.0000 Ry au, 

        Potential amp.        0.0032 Ry
        Total length         44.9428 bohr


     Adding external electric field

     Computed dipole along edir(3) : 
        Dipole               -0.0119 Ry au,         -0.0302 Debye
        Dipole field         -0.0000 Ry au, 

        Potential amp.        0.0032 Ry
        Total length         44.9428 bohr


     total cpu time spent up to now is     1597.4 secs

     total energy              =   -1669.03327053 Ry
     estimated scf accuracy    <       2.91565438 Ry

     total magnetization       =    25.60 Bohr mag/cell
     absolute magnetization    =    28.42 Bohr mag/cell

     iteration #  6     ecut=    55.12 Ry     beta= 0.10
     Davidson diagonalization with overlap
     ethr =  1.60E-03,  avg # of iterations =  1.3

     Adding external electric field

     Computed dipole along edir(3) : 
        Dipole                0.0330 Ry au,          0.0839 Debye
        Dipole field          0.0001 Ry au, 

        Potential amp.       -0.0089 Ry
        Total length         44.9428 bohr


     Adding external electric field

     Computed dipole along edir(3) : 
        Dipole                0.0330 Ry au,          0.0839 Debye
        Dipole field          0.0001 Ry au, 

        Potential amp.       -0.0089 Ry
        Total length         44.9428 bohr


     total cpu time spent up to now is     1869.0 secs

     total energy              =   -1672.74357739 Ry
     estimated scf accuracy    <       1.30215842 Ry

     total magnetization       =    23.16 Bohr mag/cell
     absolute magnetization    =    27.76 Bohr mag/cell

     iteration #  7     ecut=    55.12 Ry     beta= 0.10
     Davidson diagonalization with overlap
     ethr =  9.04E-04,  avg # of iterations =  2.1

     Adding external electric field

     Computed dipole along edir(3) : 
        Dipole                0.0271 Ry au,          0.0690 Debye
        Dipole field          0.0001 Ry au, 

        Potential amp.       -0.0073 Ry
        Total length         44.9428 bohr


     Adding external electric field

     Computed dipole along edir(3) : 
        Dipole                0.0271 Ry au,          0.0690 Debye
        Dipole field          0.0001 Ry au, 

        Potential amp.       -0.0073 Ry
        Total length         44.9428 bohr


     total cpu time spent up to now is     2172.6 secs

     total energy              =   -1672.40016499 Ry
     estimated scf accuracy    <       0.37420830 Ry

     total magnetization       =    21.70 Bohr mag/cell
     absolute magnetization    =    26.54 Bohr mag/cell

     iteration #  8     ecut=    55.12 Ry     beta= 0.10
     Davidson diagonalization with overlap
     ethr =  2.60E-04,  avg # of iterations =  5.2

     Adding external electric field

     Computed dipole along edir(3) : 
        Dipole                0.0824 Ry au,          0.2095 Debye
        Dipole field          0.0002 Ry au, 

        Potential amp.       -0.0221 Ry
        Total length         44.9428 bohr


     Adding external electric field

     Computed dipole along edir(3) : 
        Dipole                0.0824 Ry au,          0.2095 Debye
        Dipole field          0.0002 Ry au, 

        Potential amp.       -0.0221 Ry
        Total length         44.9428 bohr


     total cpu time spent up to now is     2519.4 secs

     total energy              =   -1673.16222894 Ry
     estimated scf accuracy    <       0.11757390 Ry

     total magnetization       =    22.11 Bohr mag/cell
     absolute magnetization    =    25.69 Bohr mag/cell

     iteration #  9     ecut=    55.12 Ry     beta= 0.10
     Davidson diagonalization with overlap
     c_bands:  1 eigenvalues not converged
     c_bands:  1 eigenvalues not converged
     c_bands:  1 eigenvalues not converged
     c_bands:  1 eigenvalues not converged
     c_bands:  1 eigenvalues not converged
     c_bands:  1 eigenvalues not converged
     c_bands:  1 eigenvalues not converged
     c_bands:  1 eigenvalues not converged
     c_bands:  1 eigenvalues not converged
     ethr =  8.16E-05,  avg # of iterations = 10.7

     Adding external electric field

     Computed dipole along edir(3) : 
        Dipole                0.0491 Ry au,          0.1248 Debye
        Dipole field          0.0001 Ry au, 

        Potential amp.       -0.0132 Ry
        Total length         44.9428 bohr


     Adding external electric field

     Computed dipole along edir(3) : 
        Dipole                0.0491 Ry au,          0.1248 Debye
        Dipole field          0.0001 Ry au, 

        Potential amp.       -0.0132 Ry
        Total length         44.9428 bohr


     total cpu time spent up to now is     3093.8 secs

     total energy              =   -1672.68009244 Ry
     estimated scf accuracy    <       0.13241890 Ry

     total magnetization       =    21.50 Bohr mag/cell
     absolute magnetization    =    24.09 Bohr mag/cell

     iteration # 10     ecut=    55.12 Ry     beta= 0.10
     Davidson diagonalization with overlap
     ethr =  8.16E-05,  avg # of iterations =  2.1

     Adding external electric field

     Computed dipole along edir(3) : 
        Dipole                0.0554 Ry au,          0.1408 Debye
        Dipole field          0.0002 Ry au, 

        Potential amp.       -0.0149 Ry
        Total length         44.9428 bohr


     Adding external electric field

     Computed dipole along edir(3) : 
        Dipole                0.0554 Ry au,          0.1408 Debye
        Dipole field          0.0002 Ry au, 

        Potential amp.       -0.0149 Ry
        Total length         44.9428 bohr


     total cpu time spent up to now is     3373.5 secs

     total energy              =   -1672.21220748 Ry
     estimated scf accuracy    <       0.03132264 Ry

     total magnetization       =    21.25 Bohr mag/cell
     absolute magnetization    =    23.92 Bohr mag/cell

     iteration # 11     ecut=    55.12 Ry     beta= 0.10
     Davidson diagonalization with overlap
     c_bands:  1 eigenvalues not converged
     c_bands:  1 eigenvalues not converged
     ethr =  2.18E-05,  avg # of iterations =  6.4

     Adding external electric field

     Computed dipole along edir(3) : 
        Dipole                0.0453 Ry au,          0.1151 Debye
        Dipole field          0.0001 Ry au, 

        Potential amp.       -0.0122 Ry
        Total length         44.9428 bohr


     Adding external electric field

     Computed dipole along edir(3) : 
        Dipole                0.0453 Ry au,          0.1151 Debye
        Dipole field          0.0001 Ry au, 

        Potential amp.       -0.0122 Ry
        Total length         44.9428 bohr


     total cpu time spent up to now is     3713.2 secs

     total energy              =   -1672.00613949 Ry
     estimated scf accuracy    <       0.04803153 Ry

     total magnetization       =    21.42 Bohr mag/cell
     absolute magnetization    =    23.83 Bohr mag/cell

     iteration # 12     ecut=    55.12 Ry     beta= 0.10
     Davidson diagonalization with overlap
     c_bands:  1 eigenvalues not converged
     c_bands:  1 eigenvalues not converged
     ethr =  2.18E-05,  avg # of iterations =  6.2

     Adding external electric field

     Computed dipole along edir(3) : 
        Dipole                0.0362 Ry au,          0.0920 Debye
        Dipole field          0.0001 Ry au, 

        Potential amp.       -0.0097 Ry
        Total length         44.9428 bohr


     Adding external electric field

     Computed dipole along edir(3) : 
        Dipole                0.0362 Ry au,          0.0920 Debye
        Dipole field          0.0001 Ry au, 

        Potential amp.       -0.0097 Ry
        Total length         44.9428 bohr


     total cpu time spent up to now is     4094.2 secs

     total energy              =   -1671.44375104 Ry
     estimated scf accuracy    <       0.01663091 Ry

     total magnetization       =    20.97 Bohr mag/cell
     absolute magnetization    =    23.40 Bohr mag/cell

     iteration # 13     ecut=    55.12 Ry     beta= 0.10
     Davidson diagonalization with overlap
     ethr =  1.15E-05,  avg # of iterations =  3.9

     Adding external electric field

     Computed dipole along edir(3) : 
        Dipole                0.0425 Ry au,          0.1079 Debye
        Dipole field          0.0001 Ry au, 

        Potential amp.       -0.0114 Ry
        Total length         44.9428 bohr


     Adding external electric field

     Computed dipole along edir(3) : 
        Dipole                0.0425 Ry au,          0.1079 Debye
        Dipole field          0.0001 Ry au, 

        Potential amp.       -0.0114 Ry
        Total length         44.9428 bohr


     total cpu time spent up to now is     4427.4 secs

     total energy              =   -1670.90883467 Ry
     estimated scf accuracy    <       0.02191384 Ry

     total magnetization       =    21.38 Bohr mag/cell
     absolute magnetization    =    23.50 Bohr mag/cell

     iteration # 14     ecut=    55.12 Ry     beta= 0.10
     Davidson diagonalization with overlap
     c_bands:  1 eigenvalues not converged
     c_bands:  1 eigenvalues not converged
     c_bands:  1 eigenvalues not converged
     c_bands:  1 eigenvalues not converged
     c_bands:  2 eigenvalues not converged
     c_bands:  1 eigenvalues not converged
     c_bands:  1 eigenvalues not converged
     c_bands:  1 eigenvalues not converged
     c_bands:  4 eigenvalues not converged
     c_bands:  2 eigenvalues not converged
     c_bands:  3 eigenvalues not converged
     c_bands:  2 eigenvalues not converged
     ethr =  1.15E-05,  avg # of iterations = 10.3

     Adding external electric field

     Computed dipole along edir(3) : 
        Dipole                0.0390 Ry au,          0.0992 Debye
        Dipole field          0.0001 Ry au, 

        Potential amp.       -0.0105 Ry
        Total length         44.9428 bohr


     Adding external electric field

     Computed dipole along edir(3) : 
        Dipole                0.0390 Ry au,          0.0992 Debye
        Dipole field          0.0001 Ry au, 

        Potential amp.       -0.0105 Ry
        Total length         44.9428 bohr


     total cpu time spent up to now is     4809.7 secs

     total energy              =   -1670.52850452 Ry
     estimated scf accuracy    <       0.04146300 Ry

     total magnetization       =    21.19 Bohr mag/cell
     absolute magnetization    =    23.33 Bohr mag/cell

     iteration # 15     ecut=    55.12 Ry     beta= 0.10
     Davidson diagonalization with overlap
     ethr =  1.15E-05,  avg # of iterations =  1.4

     Adding external electric field

     Computed dipole along edir(3) : 
        Dipole                0.0526 Ry au,          0.1338 Debye
        Dipole field          0.0002 Ry au, 

        Potential amp.       -0.0141 Ry
        Total length         44.9428 bohr


     Adding external electric field

     Computed dipole along edir(3) : 
        Dipole                0.0526 Ry au,          0.1338 Debye
        Dipole field          0.0002 Ry au, 

        Potential amp.       -0.0141 Ry
        Total length         44.9428 bohr


     total cpu time spent up to now is     5072.8 secs

     total energy              =   -1670.33693696 Ry
     estimated scf accuracy    <       0.03304126 Ry

     total magnetization       =    21.24 Bohr mag/cell
     absolute magnetization    =    23.37 Bohr mag/cell

     iteration # 16     ecut=    55.12 Ry     beta= 0.10
     Davidson diagonalization with overlap
     c_bands:  2 eigenvalues not converged
     c_bands:  1 eigenvalues not converged
     c_bands:  3 eigenvalues not converged
     ethr =  1.15E-05,  avg # of iterations =  2.6

     Adding external electric field

     Computed dipole along edir(3) : 
        Dipole                0.0589 Ry au,          0.1497 Debye
        Dipole field          0.0002 Ry au, 

        Potential amp.       -0.0158 Ry
        Total length         44.9428 bohr


     Adding external electric field

     Computed dipole along edir(3) : 
        Dipole                0.0589 Ry au,          0.1497 Debye
        Dipole field          0.0002 Ry au, 

        Potential amp.       -0.0158 Ry
        Total length         44.9428 bohr


     total cpu time spent up to now is     5359.6 secs

     total energy              =   -1670.14970212 Ry
     estimated scf accuracy    <       0.04040907 Ry

     total magnetization       =    21.12 Bohr mag/cell
     absolute magnetization    =    23.12 Bohr mag/cell

     iteration # 17     ecut=    55.12 Ry     beta= 0.10
     Davidson diagonalization with overlap
     ethr =  1.15E-05,  avg # of iterations =  2.0

     Adding external electric field

     Computed dipole along edir(3) : 
        Dipole                0.0478 Ry au,          0.1214 Debye
        Dipole field          0.0001 Ry au, 

        Potential amp.       -0.0128 Ry
        Total length         44.9428 bohr


     Adding external electric field

     Computed dipole along edir(3) : 
        Dipole                0.0478 Ry au,          0.1214 Debye
        Dipole field          0.0001 Ry au, 

        Potential amp.       -0.0128 Ry
        Total length         44.9428 bohr


     total cpu time spent up to now is     5648.9 secs

     total energy              =   -1669.75668927 Ry
     estimated scf accuracy    <       0.00609946 Ry

     total magnetization       =    21.26 Bohr mag/cell
     absolute magnetization    =    23.07 Bohr mag/cell

     iteration # 18     ecut=    55.12 Ry     beta= 0.10
     Davidson diagonalization with overlap
     c_bands:  1 eigenvalues not converged
     c_bands:  1 eigenvalues not converged
     c_bands:  1 eigenvalues not converged
     c_bands:  1 eigenvalues not converged
     ethr =  4.24E-06,  avg # of iterations =  5.5

     Adding external electric field

     Computed dipole along edir(3) : 
        Dipole                0.0419 Ry au,          0.1065 Debye
        Dipole field          0.0001 Ry au, 

        Potential amp.       -0.0113 Ry
        Total length         44.9428 bohr


     Adding external electric field

     Computed dipole along edir(3) : 
        Dipole                0.0419 Ry au,          0.1065 Debye
        Dipole field          0.0001 Ry au, 

        Potential amp.       -0.0113 Ry
        Total length         44.9428 bohr


     total cpu time spent up to now is     5973.4 secs

     total energy              =   -1669.55294337 Ry
     estimated scf accuracy    <       0.00154205 Ry

     total magnetization       =    21.31 Bohr mag/cell
     absolute magnetization    =    23.12 Bohr mag/cell

     iteration # 19     ecut=    55.12 Ry     beta= 0.10
     Davidson diagonalization with overlap
     c_bands:  3 eigenvalues not converged
     c_bands:  1 eigenvalues not converged
     c_bands:  1 eigenvalues not converged
     c_bands:  1 eigenvalues not converged
     c_bands:  1 eigenvalues not converged
     c_bands:  2 eigenvalues not converged
     c_bands:  1 eigenvalues not converged
     c_bands:  1 eigenvalues not converged
     c_bands:  1 eigenvalues not converged
     c_bands:  1 eigenvalues not converged
     c_bands:  1 eigenvalues not converged
     c_bands:  3 eigenvalues not converged
     c_bands:  4 eigenvalues not converged
     c_bands:  4 eigenvalues not converged
     c_bands:  1 eigenvalues not converged
     c_bands:  1 eigenvalues not converged
     c_bands:  2 eigenvalues not converged
     c_bands:  2 eigenvalues not converged
     c_bands:  1 eigenvalues not converged
     c_bands:  2 eigenvalues not converged
     c_bands:  1 eigenvalues not converged
     c_bands:  1 eigenvalues not converged
     c_bands:  1 eigenvalues not converged
     c_bands:  1 eigenvalues not converged
     c_bands:  1 eigenvalues not converged
     c_bands:  2 eigenvalues not converged
     c_bands:  1 eigenvalues not converged
     ethr =  1.07E-06,  avg # of iterations = 12.7

     Adding external electric field

     Computed dipole along edir(3) : 
        Dipole                0.0440 Ry au,          0.1119 Debye
        Dipole field          0.0001 Ry au, 

        Potential amp.       -0.0118 Ry
        Total length         44.9428 bohr


     Adding external electric field

     Computed dipole along edir(3) : 
        Dipole                0.0440 Ry au,          0.1119 Debye
        Dipole field          0.0001 Ry au, 

        Potential amp.       -0.0118 Ry
        Total length         44.9428 bohr


     total cpu time spent up to now is     6435.2 secs

     total energy              =   -1669.45220860 Ry
     estimated scf accuracy    <       0.00195299 Ry

     total magnetization       =    21.29 Bohr mag/cell
     absolute magnetization    =    23.03 Bohr mag/cell

     iteration # 20     ecut=    55.12 Ry     beta= 0.10
     Davidson diagonalization with overlap
     c_bands:  1 eigenvalues not converged
     c_bands:  1 eigenvalues not converged
     c_bands:  1 eigenvalues not converged
     ethr =  1.07E-06,  avg # of iterations =  4.4

     Adding external electric field

     Computed dipole along edir(3) : 
        Dipole                0.0426 Ry au,          0.1084 Debye
        Dipole field          0.0001 Ry au, 

        Potential amp.       -0.0115 Ry
        Total length         44.9428 bohr


     Adding external electric field

     Computed dipole along edir(3) : 
        Dipole                0.0426 Ry au,          0.1084 Debye
        Dipole field          0.0001 Ry au, 

        Potential amp.       -0.0115 Ry
        Total length         44.9428 bohr


     total cpu time spent up to now is     6759.4 secs

     total energy              =   -1669.30901117 Ry
     estimated scf accuracy    <       0.00080447 Ry

     total magnetization       =    21.32 Bohr mag/cell
     absolute magnetization    =    22.93 Bohr mag/cell

     iteration # 21     ecut=    55.12 Ry     beta= 0.10
     Davidson diagonalization with overlap
     c_bands:  1 eigenvalues not converged
     c_bands:  1 eigenvalues not converged
     c_bands:  1 eigenvalues not converged
     c_bands:  3 eigenvalues not converged
     c_bands:  1 eigenvalues not converged
     ethr =  5.59E-07,  avg # of iterations =  7.8

     Adding external electric field

     Computed dipole along edir(3) : 
        Dipole                0.0422 Ry au,          0.1072 Debye
        Dipole field          0.0001 Ry au, 

        Potential amp.       -0.0113 Ry
        Total length         44.9428 bohr


     Adding external electric field

     Computed dipole along edir(3) : 
        Dipole                0.0422 Ry au,          0.1072 Debye
        Dipole field          0.0001 Ry au, 

        Potential amp.       -0.0113 Ry
        Total length         44.9428 bohr


     total cpu time spent up to now is     7138.2 secs

     total energy              =   -1669.11114764 Ry
     estimated scf accuracy    <       0.00022126 Ry

     total magnetization       =    21.37 Bohr mag/cell
     absolute magnetization    =    22.87 Bohr mag/cell

     iteration # 22     ecut=    55.12 Ry     beta= 0.10
     Davidson diagonalization with overlap
     c_bands:  1 eigenvalues not converged
     c_bands:  1 eigenvalues not converged
     c_bands:  1 eigenvalues not converged
     ethr =  1.54E-07,  avg # of iterations =  8.1

     Adding external electric field

     Computed dipole along edir(3) : 
        Dipole                0.0438 Ry au,          0.1112 Debye
        Dipole field          0.0001 Ry au, 

        Potential amp.       -0.0118 Ry
        Total length         44.9428 bohr


     Adding external electric field

     Computed dipole along edir(3) : 
        Dipole                0.0438 Ry au,          0.1112 Debye
        Dipole field          0.0001 Ry au, 

        Potential amp.       -0.0118 Ry
        Total length         44.9428 bohr


     total cpu time spent up to now is     7601.1 secs

     total energy              =   -1668.97101417 Ry
     estimated scf accuracy    <       0.00031097 Ry

     total magnetization       =    21.36 Bohr mag/cell
     absolute magnetization    =    22.84 Bohr mag/cell

     iteration # 23     ecut=    55.12 Ry     beta= 0.10
     Davidson diagonalization with overlap
     c_bands:  1 eigenvalues not converged
     ethr =  1.54E-07,  avg # of iterations =  2.3

     Adding external electric field

     Computed dipole along edir(3) : 
        Dipole                0.0443 Ry au,          0.1126 Debye
        Dipole field          0.0001 Ry au, 

        Potential amp.       -0.0119 Ry
        Total length         44.9428 bohr


     Adding external electric field

     Computed dipole along edir(3) : 
        Dipole                0.0443 Ry au,          0.1126 Debye
        Dipole field          0.0001 Ry au, 

        Potential amp.       -0.0119 Ry
        Total length         44.9428 bohr


     total cpu time spent up to now is     7906.6 secs

     total energy              =   -1668.81002591 Ry
     estimated scf accuracy    <       0.00007071 Ry

     total magnetization       =    21.39 Bohr mag/cell
     absolute magnetization    =    22.82 Bohr mag/cell

     iteration # 24     ecut=    55.12 Ry     beta= 0.10
     Davidson diagonalization with overlap
     c_bands:  1 eigenvalues not converged
     c_bands:  1 eigenvalues not converged
     c_bands:  1 eigenvalues not converged
     c_bands:  1 eigenvalues not converged
     c_bands:  2 eigenvalues not converged
     c_bands:  1 eigenvalues not converged
     c_bands:  3 eigenvalues not converged
     c_bands:  1 eigenvalues not converged
     c_bands:  1 eigenvalues not converged
     c_bands:  1 eigenvalues not converged
     c_bands:  1 eigenvalues not converged
     c_bands:  1 eigenvalues not converged
     c_bands:  1 eigenvalues not converged
     c_bands:  1 eigenvalues not converged
     ethr =  4.91E-08,  avg # of iterations = 10.0

     Adding external electric field

     Computed dipole along edir(3) : 
        Dipole                0.0458 Ry au,          0.1164 Debye
        Dipole field          0.0001 Ry au, 

        Potential amp.       -0.0123 Ry
        Total length         44.9428 bohr


     Adding external electric field

     Computed dipole along edir(3) : 
        Dipole                0.0458 Ry au,          0.1164 Debye
        Dipole field          0.0001 Ry au, 

        Potential amp.       -0.0123 Ry
        Total length         44.9428 bohr


     total cpu time spent up to now is     8378.9 secs

     total energy              =   -1668.69504146 Ry
     estimated scf accuracy    <       0.00011434 Ry

     total magnetization       =    21.44 Bohr mag/cell
     absolute magnetization    =    22.82 Bohr mag/cell

     iteration # 25     ecut=    55.12 Ry     beta= 0.10
     Davidson diagonalization with overlap
     c_bands:  1 eigenvalues not converged
     c_bands:  1 eigenvalues not converged
     c_bands:  1 eigenvalues not converged
     ethr =  4.91E-08,  avg # of iterations =  4.3

     Adding external electric field

     Computed dipole along edir(3) : 
        Dipole                0.0443 Ry au,          0.1126 Debye
        Dipole field          0.0001 Ry au, 

        Potential amp.       -0.0119 Ry
        Total length         44.9428 bohr


     Adding external electric field

     Computed dipole along edir(3) : 
        Dipole                0.0443 Ry au,          0.1126 Debye
        Dipole field          0.0001 Ry au, 

        Potential amp.       -0.0119 Ry
        Total length         44.9428 bohr


     total cpu time spent up to now is     8709.2 secs

     total energy              =   -1668.52710612 Ry
     estimated scf accuracy    <       0.00002266 Ry

     total magnetization       =    21.44 Bohr mag/cell
     absolute magnetization    =    22.80 Bohr mag/cell

     iteration # 26     ecut=    55.12 Ry     beta= 0.10
     Davidson diagonalization with overlap
     c_bands:  1 eigenvalues not converged
     c_bands:  1 eigenvalues not converged
     c_bands:  1 eigenvalues not converged
     c_bands:  1 eigenvalues not converged
     c_bands:  1 eigenvalues not converged
     c_bands:  1 eigenvalues not converged
     c_bands:  1 eigenvalues not converged
     c_bands:  2 eigenvalues not converged
     c_bands:  2 eigenvalues not converged
     c_bands:  1 eigenvalues not converged
     c_bands:  2 eigenvalues not converged
     c_bands:  1 eigenvalues not converged
     c_bands:  1 eigenvalues not converged
     c_bands:  1 eigenvalues not converged
     c_bands:  1 eigenvalues not converged
     ethr =  1.57E-08,  avg # of iterations = 10.5

     Adding external electric field

     Computed dipole along edir(3) : 
        Dipole                0.0440 Ry au,          0.1120 Debye
        Dipole field          0.0001 Ry au, 

        Potential amp.       -0.0118 Ry
        Total length         44.9428 bohr


     Adding external electric field

     Computed dipole along edir(3) : 
        Dipole                0.0440 Ry au,          0.1120 Debye
        Dipole field          0.0001 Ry au, 

        Potential amp.       -0.0118 Ry
        Total length         44.9428 bohr


     total cpu time spent up to now is     9174.3 secs

     total energy              =   -1668.40674750 Ry
     estimated scf accuracy    <       0.00007976 Ry

     total magnetization       =    21.44 Bohr mag/cell
     absolute magnetization    =    22.80 Bohr mag/cell

     iteration # 27     ecut=    55.12 Ry     beta= 0.10
     Davidson diagonalization with overlap
     c_bands:  1 eigenvalues not converged
     c_bands:  1 eigenvalues not converged
     c_bands:  2 eigenvalues not converged
     c_bands:  1 eigenvalues not converged
     ethr =  1.57E-08,  avg # of iterations =  6.2

     Adding external electric field

     Computed dipole along edir(3) : 
        Dipole                0.0437 Ry au,          0.1112 Debye
        Dipole field          0.0001 Ry au, 

        Potential amp.       -0.0118 Ry
        Total length         44.9428 bohr


     Adding external electric field

     Computed dipole along edir(3) : 
        Dipole                0.0437 Ry au,          0.1112 Debye
        Dipole field          0.0001 Ry au, 

        Potential amp.       -0.0118 Ry
        Total length         44.9428 bohr


     total cpu time spent up to now is     9559.3 secs

     total energy              =   -1668.30513981 Ry
     estimated scf accuracy    <       0.00001699 Ry

     total magnetization       =    21.46 Bohr mag/cell
     absolute magnetization    =    22.80 Bohr mag/cell

     iteration # 28     ecut=    55.12 Ry     beta= 0.10
     Davidson diagonalization with overlap
     c_bands:  1 eigenvalues not converged
     c_bands:  1 eigenvalues not converged
     c_bands:  1 eigenvalues not converged
     ethr =  1.18E-08,  avg # of iterations =  4.6

     Adding external electric field

     Computed dipole along edir(3) : 
        Dipole                0.0306 Ry au,          0.0778 Debye
        Dipole field          0.0001 Ry au, 

        Potential amp.       -0.0082 Ry
        Total length         44.9428 bohr


     Adding external electric field

     Computed dipole along edir(3) : 
        Dipole                0.0306 Ry au,          0.0778 Debye
        Dipole field          0.0001 Ry au, 

        Potential amp.       -0.0082 Ry
        Total length         44.9428 bohr


     Magnetic moment per site:
     atom:    1    charge:   13.1960    magn:    3.5227    constr:    0.0000
     atom:    2    charge:   13.1961    magn:    3.5227    constr:    0.0000
     atom:    3    charge:    6.1606    magn:   -0.0379    constr:    0.0000
     atom:    4    charge:    6.1606    magn:   -0.0380    constr:    0.0000
     atom:    5    charge:   13.3014    magn:    3.0321    constr:    0.0000
     atom:    6    charge:   13.3012    magn:    3.0324    constr:    0.0000
     atom:    7    charge:    6.1683    magn:    0.0894    constr:    0.0000
     atom:    8    charge:    6.1683    magn:    0.0894    constr:    0.0000
     atom:    9    charge:   13.1633    magn:    3.6190    constr:    0.0000
     atom:   10    charge:   13.1634    magn:    3.6189    constr:    0.0000
     atom:   11    charge:    6.1746    magn:   -0.0317    constr:    0.0000
     atom:   12    charge:    6.1746    magn:   -0.0317    constr:    0.0000

     total cpu time spent up to now is     9889.8 secs

     End of self-consistent calculation

     Number of k-points >= 100: set verbosity='high' to print the bands.

     the Fermi energy is     0.9342 ev

!    total energy              =   -1667.32792531 Ry
     estimated scf accuracy    <       0.00000925 Ry
     smearing contrib. (-TS)   =      -0.05775958 Ry
     internal energy E=F+TS    =   -1667.27016573 Ry

     The total energy is F=E-TS. E is the sum of the following terms:
     one-electron contribution =  -12521.15324568 Ry
     hartree contribution      =    6292.38666416 Ry
     xc contribution           =    -369.48680414 Ry
     ewald contribution        =    4930.98321712 Ry
     electric field correction =       0.00000280 Ry

     total magnetization       =    21.46 Bohr mag/cell
     absolute magnetization    =    22.79 Bohr mag/cell

     convergence has been achieved in  28 iterations

     Forces acting on atoms (cartesian axes, Ry/au):

     atom    1 type  1   force =    -0.00259179   -0.00166214   -0.02667454
     atom    2 type  1   force =    -0.00259015   -0.00164699   -0.02668704
     atom    3 type  2   force =    -0.00218395   -0.00140179    0.03269813
     atom    4 type  2   force =    -0.00218753   -0.00140076    0.03269360
     atom    5 type  1   force =     0.00444027    0.00286561   -0.03139960
     atom    6 type  1   force =     0.00448352    0.00285283   -0.03134566
     atom    7 type  2   force =     0.00042098    0.00026897    0.01383537
     atom    8 type  2   force =     0.00041333    0.00026671    0.01383418
     atom    9 type  1   force =     0.00044709    0.00027849    0.00680274
     atom   10 type  1   force =     0.00052414    0.00032799    0.00678072
     atom   11 type  2   force =    -0.00052444   -0.00047065    0.00473113
     atom   12 type  2   force =    -0.00065147   -0.00027826    0.00473095

     Total force =     0.078363     Total SCF correction =     0.021552
     SCF correction compared to forces is large: reduce conv_thr to get better values

     Writing output data file ./Mn2Ir2/Mn2Ir2_beef.save/

     init_run     :    145.77s CPU    147.35s WALL (       1 calls)
     electrons    :   9579.29s CPU   9740.90s WALL (       1 calls)
     forces       :    100.20s CPU    103.78s WALL (       1 calls)

     Called by init_run:
     wfcinit      :    133.61s CPU    134.89s WALL (       1 calls)
     potinit      :      8.15s CPU      8.27s WALL (       1 calls)
     hinit0       :      1.88s CPU      1.91s WALL (       1 calls)

     Called by electrons:
     c_bands      :   8522.99s CPU   8655.09s WALL (      28 calls)
     sum_band     :    972.45s CPU    994.43s WALL (      28 calls)
     v_of_rho     :     46.54s CPU     49.58s WALL (      29 calls)
     newd         :     42.89s CPU     47.02s WALL (      29 calls)
     mix_rho      :      1.94s CPU      2.04s WALL (      28 calls)
     vdW_kernel   :      5.72s CPU      5.74s WALL (       1 calls)

     Called by c_bands:
     init_us_2    :     36.69s CPU     37.93s WALL (    8584 calls)
     cegterg      :   8425.96s CPU   8550.87s WALL (    4144 calls)

     Called by *egterg:
     cdiaghg      :    488.64s CPU    491.93s WALL (   24716 calls)
     h_psi        :   4197.41s CPU   4270.43s WALL (   24864 calls)
     s_psi        :   1469.85s CPU   1489.76s WALL (   24864 calls)
     g_psi        :      3.21s CPU      3.26s WALL (   20572 calls)

     Called by h_psi:
     h_psi:calbec :   1548.65s CPU   1570.28s WALL (   24864 calls)
     vloc_psi     :   1111.55s CPU   1140.20s WALL (   24864 calls)
     add_vuspsi   :   1520.56s CPU   1542.87s WALL (   24864 calls)

     General routines
     calbec       :   2267.96s CPU   2302.10s WALL (   29600 calls)
     fft          :     28.90s CPU     30.29s WALL (    2658 calls)
     ffts         :      0.17s CPU      0.19s WALL (     114 calls)
     fftw         :   1269.57s CPU   1303.02s WALL ( 2089856 calls)
     interpolate  :      0.62s CPU      0.66s WALL (      58 calls)

     Parallel routines
     fft_scatt_xy :     99.79s CPU    101.75s WALL ( 2092628 calls)
     fft_scatt_yz :    253.49s CPU    260.51s WALL ( 2092628 calls)

     PWSCF        :      2h43m CPU      2h47m WALL


   This run was terminated on:   5: 3: 9  28Jun2022            

=------------------------------------------------------------------------------=
   JOB DONE.
=------------------------------------------------------------------------------=
