
     Program PWSCF v.6.6 starts on 29Jun2022 at  1:22: 3 

     This program is part of the open-source Quantum ESPRESSO suite
     for quantum simulation of materials; please cite
         "P. Giannozzi et al., J. Phys.:Condens. Matter 21 395502 (2009);
         "P. Giannozzi et al., J. Phys.:Condens. Matter 29 465901 (2017);
          URL http://www.quantum-espresso.org", 
     in publications or presentations arising from this work. More details at
     http://www.quantum-espresso.org/quote

     Parallel version (MPI), running on    37 processors

     MPI processes distributed on     1 nodes
     R & G space division:  proc/nbgrp/npool/nimage =      37
     Fft bands division:     nmany     =       1
     Reading input from Mn2Pd2.in
Warning: card &CELL ignored
Warning: card / ignored

     Current dimensions of program PWSCF are:
     Max number of different atomic species (ntypx) = 10
     Max number of k-points (npk) =  40000
     Max angular momentum in pseudopotentials (lmaxx) =  3
     Presently stress not available with electric field and gates

     Message from routine cell_base_init:
     DEPRECATED: use true lattice parameter, not A to a.u. conversion factor
     file Mn.pbe-spn-rrkjus_psl.0.3.1.UPF: wavefunction(s)  3D renormalized
     file Pd.pbe-n-rrkjus_psl.1.0.0.UPF: wavefunction(s)  4D renormalized

     **************************************************************************
     Initializing libbeef V0.1.2 with the BEEF-vdW functional.
     Citation: Wellendorff et al., PRB 85, 235149 (2012).
     **************************************************************************


     IMPORTANT: XC functional enforced from input :
     Exchange-correlation= BEEF-VDW
                           (   1   4  43  14   2   0   0)
     Any further DFT definition will be discarded
     Please, verify this is what you really want


     Subspace diagonalization in iterative solution of the eigenvalue problem:
     a serial algorithm will be used

     Found symmetry operation: I + (  0.5000 -0.5000  0.0000)
     This is a supercell, fractional translations are disabled

     Parallelization info
     --------------------
     sticks:   dense  smooth     PW     G-vecs:    dense   smooth      PW
     Min         117      47     13                27137     6865    1039
     Max         118      48     14                27160     6876    1045
     Sum        4355    1751    499              1004521   254229   38543



     bravais-lattice index     =            0
     lattice parameter (alat)  =       1.8897  a.u.
     unit-cell volume          =    4594.8018 (a.u.)^3
     number of atoms/cell      =           12
     number of atomic types    =            2
     number of electrons       =       150.00
     number of Kohn-Sham states=           90
     kinetic-energy cutoff     =      55.1240  Ry
     charge density cutoff     =     551.2396  Ry
     convergence threshold     =      1.0E-05
     mixing beta               =       0.1000
     number of iterations used =           10  plain     mixing
     Exchange-correlation= BEEF-VDW
                           (   1   4  43  14   2   0   0)

     celldm(1)=   1.889726  celldm(2)=   0.000000  celldm(3)=   0.000000
     celldm(4)=   0.000000  celldm(5)=   0.000000  celldm(6)=   0.000000

     crystal axes: (cart. coord. in units of alat)
               a(1) = (   5.471943   0.000000   0.000000 )  
               a(2) = (   2.045570   5.075214   0.000000 )  
               a(3) = (   0.000000   0.000000  24.517396 )  

     reciprocal axes: (cart. coord. in units 2 pi/alat)
               b(1) = (  0.182750 -0.073658  0.000000 )  
               b(2) = (  0.000000  0.197036  0.000000 )  
               b(3) = (  0.000000  0.000000  0.040787 )  


     PseudoPot. # 1 for Mn read from file:
     ../pseudo/Mn.pbe-spn-rrkjus_psl.0.3.1.UPF
     MD5 check sum: e1cac159bdd2ba70c18e85765a5d4279
     Pseudo is Ultrasoft + core correction, Zval = 15.0
     Generated using "atomic" code by A. Dal Corso v.6.2.2
     Using radial grid of 1187 points,  6 beta functions with: 
                l(1) =   0
                l(2) =   0
                l(3) =   1
                l(4) =   1
                l(5) =   2
                l(6) =   2
     Q(r) pseudized with 0 coefficients 


     PseudoPot. # 2 for Pd read from file:
     ../pseudo/Pd.pbe-n-rrkjus_psl.1.0.0.UPF
     MD5 check sum: d9f693bf1c5b493397a6bd6f2231cfc3
     Pseudo is Ultrasoft + core correction, Zval = 10.0
     Generated using "atomic" code by A. Dal Corso v.6.3
     Using radial grid of 1235 points,  6 beta functions with: 
                l(1) =   0
                l(2) =   0
                l(3) =   1
                l(4) =   1
                l(5) =   2
                l(6) =   2
     Q(r) pseudized with 0 coefficients 


     atomic species   valence    mass     pseudopotential
        Mn            15.00    54.93804     Mn( 1.00)
        Pd            10.00   106.42000     Pd( 1.00)

     Starting magnetic structure 
     atomic species   magnetization
        Mn           0.667
        Pd           0.000

     No symmetry found



   Cartesian axes

     site n.     atom                  positions (alat units)
         1           Mn  tau(   1) = (   0.0000000   0.0000000  10.0000000  )
         2           Mn  tau(   2) = (   3.7587564   2.5376070  10.0000000  )
         3           Pd  tau(   3) = (   2.7359713   0.0000000  10.0000000  )
         4           Pd  tau(   4) = (   1.0227851   2.5376070  10.0000000  )
         5           Mn  tau(   5) = (   5.4719425   3.6942111  12.2586979  )
         6           Mn  tau(   6) = (   1.7131861   1.1566041  12.2586979  )
         7           Pd  tau(   7) = (   2.7359713   3.6942111  12.2586979  )
         8           Pd  tau(   8) = (   4.4491574   1.1566041  12.2586979  )
         9           Mn  tau(   9) = (   3.5854422   2.4206018  14.5405855  )
        10           Mn  tau(  10) = (   7.3441999   4.9582050  14.5406010  )
        11           Pd  tau(  11) = (   6.3217931   2.4208515  14.4240277  )
        12           Pd  tau(  12) = (   4.6086013   4.9584633  14.4240175  )

     number of k points=    74  Fermi-Dirac smearing, width (Ry)=  0.0100
                       cart. coord. in units 2pi/alat
        k(    1) = (   0.0000000   0.0000000   0.0000000), wk =   0.0069444
        k(    2) = (   0.0000000   0.0164197   0.0000000), wk =   0.0138889
        k(    3) = (   0.0000000   0.0328393   0.0000000), wk =   0.0138889
        k(    4) = (   0.0000000   0.0492590   0.0000000), wk =   0.0138889
        k(    5) = (   0.0000000   0.0656787   0.0000000), wk =   0.0138889
        k(    6) = (   0.0000000   0.0820983   0.0000000), wk =   0.0138889
        k(    7) = (   0.0000000  -0.0985180   0.0000000), wk =   0.0069444
        k(    8) = (   0.0152292  -0.0061381   0.0000000), wk =   0.0138889
        k(    9) = (   0.0152292   0.0102815   0.0000000), wk =   0.0138889
        k(   10) = (   0.0152292   0.0267012   0.0000000), wk =   0.0138889
        k(   11) = (   0.0152292   0.0431209   0.0000000), wk =   0.0138889
        k(   12) = (   0.0152292   0.0595405   0.0000000), wk =   0.0138889
        k(   13) = (   0.0152292   0.0759602   0.0000000), wk =   0.0138889
        k(   14) = (   0.0152292  -0.1046562   0.0000000), wk =   0.0138889
        k(   15) = (   0.0152292  -0.0882365   0.0000000), wk =   0.0138889
        k(   16) = (   0.0152292  -0.0718168   0.0000000), wk =   0.0138889
        k(   17) = (   0.0152292  -0.0553972   0.0000000), wk =   0.0138889
        k(   18) = (   0.0152292  -0.0389775   0.0000000), wk =   0.0138889
        k(   19) = (   0.0152292  -0.0225578   0.0000000), wk =   0.0138889
        k(   20) = (   0.0304584  -0.0122763   0.0000000), wk =   0.0138889
        k(   21) = (   0.0304584   0.0041434   0.0000000), wk =   0.0138889
        k(   22) = (   0.0304584   0.0205630   0.0000000), wk =   0.0138889
        k(   23) = (   0.0304584   0.0369827   0.0000000), wk =   0.0138889
        k(   24) = (   0.0304584   0.0534024   0.0000000), wk =   0.0138889
        k(   25) = (   0.0304584   0.0698221   0.0000000), wk =   0.0138889
        k(   26) = (   0.0304584  -0.1107943   0.0000000), wk =   0.0138889
        k(   27) = (   0.0304584  -0.0943746   0.0000000), wk =   0.0138889
        k(   28) = (   0.0304584  -0.0779550   0.0000000), wk =   0.0138889
        k(   29) = (   0.0304584  -0.0615353   0.0000000), wk =   0.0138889
        k(   30) = (   0.0304584  -0.0451156   0.0000000), wk =   0.0138889
        k(   31) = (   0.0304584  -0.0286960   0.0000000), wk =   0.0138889
        k(   32) = (   0.0456876  -0.0184144   0.0000000), wk =   0.0138889
        k(   33) = (   0.0456876  -0.0019948   0.0000000), wk =   0.0138889
        k(   34) = (   0.0456876   0.0144249   0.0000000), wk =   0.0138889
        k(   35) = (   0.0456876   0.0308446   0.0000000), wk =   0.0138889
        k(   36) = (   0.0456876   0.0472642   0.0000000), wk =   0.0138889
        k(   37) = (   0.0456876   0.0636839   0.0000000), wk =   0.0138889
        k(   38) = (   0.0456876  -0.1169324   0.0000000), wk =   0.0138889
        k(   39) = (   0.0456876  -0.1005128   0.0000000), wk =   0.0138889
        k(   40) = (   0.0456876  -0.0840931   0.0000000), wk =   0.0138889
        k(   41) = (   0.0456876  -0.0676734   0.0000000), wk =   0.0138889
        k(   42) = (   0.0456876  -0.0512538   0.0000000), wk =   0.0138889
        k(   43) = (   0.0456876  -0.0348341   0.0000000), wk =   0.0138889
        k(   44) = (   0.0609168  -0.0245526   0.0000000), wk =   0.0138889
        k(   45) = (   0.0609168  -0.0081329   0.0000000), wk =   0.0138889
        k(   46) = (   0.0609168   0.0082868   0.0000000), wk =   0.0138889
        k(   47) = (   0.0609168   0.0247064   0.0000000), wk =   0.0138889
        k(   48) = (   0.0609168   0.0411261   0.0000000), wk =   0.0138889
        k(   49) = (   0.0609168   0.0575458   0.0000000), wk =   0.0138889
        k(   50) = (   0.0609168  -0.1230706   0.0000000), wk =   0.0138889
        k(   51) = (   0.0609168  -0.1066509   0.0000000), wk =   0.0138889
        k(   52) = (   0.0609168  -0.0902313   0.0000000), wk =   0.0138889
        k(   53) = (   0.0609168  -0.0738116   0.0000000), wk =   0.0138889
        k(   54) = (   0.0609168  -0.0573919   0.0000000), wk =   0.0138889
        k(   55) = (   0.0609168  -0.0409723   0.0000000), wk =   0.0138889
        k(   56) = (   0.0761460  -0.0306907   0.0000000), wk =   0.0138889
        k(   57) = (   0.0761460  -0.0142711   0.0000000), wk =   0.0138889
        k(   58) = (   0.0761460   0.0021486   0.0000000), wk =   0.0138889
        k(   59) = (   0.0761460   0.0185683   0.0000000), wk =   0.0138889
        k(   60) = (   0.0761460   0.0349879   0.0000000), wk =   0.0138889
        k(   61) = (   0.0761460   0.0514076   0.0000000), wk =   0.0138889
        k(   62) = (   0.0761460  -0.1292087   0.0000000), wk =   0.0138889
        k(   63) = (   0.0761460  -0.1127891   0.0000000), wk =   0.0138889
        k(   64) = (   0.0761460  -0.0963694   0.0000000), wk =   0.0138889
        k(   65) = (   0.0761460  -0.0799497   0.0000000), wk =   0.0138889
        k(   66) = (   0.0761460  -0.0635301   0.0000000), wk =   0.0138889
        k(   67) = (   0.0761460  -0.0471104   0.0000000), wk =   0.0138889
        k(   68) = (  -0.0913752   0.0368289   0.0000000), wk =   0.0069444
        k(   69) = (  -0.0913752   0.0532485   0.0000000), wk =   0.0138889
        k(   70) = (  -0.0913752   0.0696682   0.0000000), wk =   0.0138889
        k(   71) = (  -0.0913752   0.0860879   0.0000000), wk =   0.0138889
        k(   72) = (  -0.0913752   0.1025075   0.0000000), wk =   0.0138889
        k(   73) = (  -0.0913752   0.1189272   0.0000000), wk =   0.0138889
        k(   74) = (  -0.0913752  -0.0616891   0.0000000), wk =   0.0069444

     Dense  grid:  1004521 G-vectors     FFT dimensions: (  80,  80, 360)

     Smooth grid:   254229 G-vectors     FFT dimensions: (  50,  50, 225)

     Estimated max dynamical RAM per process >     296.73 MB

     Estimated total dynamical RAM >      10.72 GB

     Check: negative core charge=   -0.000003
     Generating pointlists ...
     new r_m :   1.0939 (alat units)  2.0671 (a.u.) for type    1
     new r_m :   1.0939 (alat units)  2.0671 (a.u.) for type    2

     Initial potential from superposition of free atoms

     starting charge  149.99358, renormalised to  150.00000


     %%%%%%%%%%%%%%%%%%%%%%%%%%%%%%%%%%%%%%%%%%%%%%%%%%%%%%%%%%%%%%%%%%%%%%%%
     %                                                                      %
     % You are using vdW-DF, which was implemented by the Thonhauser group. %
     % Please cite the following two papers that made this development      %
     % possible and the two reviews that describe the various versions:     %
     %                                                                      %
     %   T. Thonhauser et al., PRL 115, 136402 (2015).                      %
     %   T. Thonhauser et al., PRB 76, 125112 (2007).                       %
     %   K. Berland et al., Rep. Prog. Phys. 78, 066501 (2015).             %
     %   D.C. Langreth et al., J. Phys.: Condens. Matter 21, 084203 (2009). %
     %                                                                      %
     %                                                                      %
     % If you are calculating the stress with vdW-DF, please also cite:     %
     %                                                                      %
     %   R. Sabatini et al., J. Phys.: Condens. Matter 24, 424209 (2012).   %
     %                                                                      %
     %%%%%%%%%%%%%%%%%%%%%%%%%%%%%%%%%%%%%%%%%%%%%%%%%%%%%%%%%%%%%%%%%%%%%%%%



     Adding external electric field

     Computed dipole along edir(3) : 
        Dipole               -0.0001 Ry au,         -0.0002 Debye
        Dipole field         -0.0000 Ry au, 

        Potential amp.        0.0000 Ry
        Total length         45.1729 bohr


     Adding external electric field

     Computed dipole along edir(3) : 
        Dipole               -0.0001 Ry au,         -0.0002 Debye
        Dipole field         -0.0000 Ry au, 

        Potential amp.        0.0000 Ry
        Total length         45.1729 bohr

     Starting wfcs are  114 randomized atomic wfcs

     total cpu time spent up to now is      173.5 secs

     Self-consistent Calculation

     iteration #  1     ecut=    55.12 Ry     beta= 0.10
     Davidson diagonalization with overlap
     ethr =  1.00E-02,  avg # of iterations =  2.4

     Adding external electric field

     Computed dipole along edir(3) : 
        Dipole                0.0395 Ry au,          0.1004 Debye
        Dipole field          0.0001 Ry au, 

        Potential amp.       -0.0098 Ry
        Total length         45.1729 bohr


     Adding external electric field

     Computed dipole along edir(3) : 
        Dipole                0.0395 Ry au,          0.1004 Debye
        Dipole field          0.0001 Ry au, 

        Potential amp.       -0.0098 Ry
        Total length         45.1729 bohr


     total cpu time spent up to now is      580.1 secs

     total energy              =   -1698.05566105 Ry
     estimated scf accuracy    <       4.64367835 Ry

     total magnetization       =    29.88 Bohr mag/cell
     absolute magnetization    =    30.04 Bohr mag/cell

     iteration #  2     ecut=    55.12 Ry     beta= 0.10
     Davidson diagonalization with overlap
     ethr =  3.10E-03,  avg # of iterations =  1.1

     Adding external electric field

     Computed dipole along edir(3) : 
        Dipole               -0.0328 Ry au,         -0.0834 Debye
        Dipole field         -0.0001 Ry au, 

        Potential amp.        0.0081 Ry
        Total length         45.1729 bohr


     Adding external electric field

     Computed dipole along edir(3) : 
        Dipole               -0.0328 Ry au,         -0.0834 Debye
        Dipole field         -0.0001 Ry au, 

        Potential amp.        0.0081 Ry
        Total length         45.1729 bohr


     total cpu time spent up to now is      901.3 secs

     total energy              =   -1701.58882465 Ry
     estimated scf accuracy    <       3.60631610 Ry

     total magnetization       =    29.81 Bohr mag/cell
     absolute magnetization    =    30.00 Bohr mag/cell

     iteration #  3     ecut=    55.12 Ry     beta= 0.10
     Davidson diagonalization with overlap
     ethr =  2.40E-03,  avg # of iterations =  2.0

     Adding external electric field

     Computed dipole along edir(3) : 
        Dipole                0.1595 Ry au,          0.4055 Debye
        Dipole field          0.0004 Ry au, 

        Potential amp.       -0.0394 Ry
        Total length         45.1729 bohr


     Adding external electric field

     Computed dipole along edir(3) : 
        Dipole                0.1595 Ry au,          0.4055 Debye
        Dipole field          0.0004 Ry au, 

        Potential amp.       -0.0394 Ry
        Total length         45.1729 bohr


     total cpu time spent up to now is     1268.4 secs

     total energy              =   -1702.46351176 Ry
     estimated scf accuracy    <       1.80909868 Ry

     total magnetization       =    29.25 Bohr mag/cell
     absolute magnetization    =    29.67 Bohr mag/cell

     iteration #  4     ecut=    55.12 Ry     beta= 0.10
     Davidson diagonalization with overlap
     ethr =  1.21E-03,  avg # of iterations =  1.2

     Adding external electric field

     Computed dipole along edir(3) : 
        Dipole               -0.1217 Ry au,         -0.3092 Debye
        Dipole field         -0.0003 Ry au, 

        Potential amp.        0.0301 Ry
        Total length         45.1729 bohr


     Adding external electric field

     Computed dipole along edir(3) : 
        Dipole               -0.1217 Ry au,         -0.3092 Debye
        Dipole field         -0.0003 Ry au, 

        Potential amp.        0.0301 Ry
        Total length         45.1729 bohr


     total cpu time spent up to now is     1593.0 secs

     total energy              =   -1704.81612343 Ry
     estimated scf accuracy    <       1.18627918 Ry

     total magnetization       =    29.14 Bohr mag/cell
     absolute magnetization    =    29.44 Bohr mag/cell

     iteration #  5     ecut=    55.12 Ry     beta= 0.10
     Davidson diagonalization with overlap
     ethr =  7.91E-04,  avg # of iterations =  1.6

     Adding external electric field

     Computed dipole along edir(3) : 
        Dipole                0.1102 Ry au,          0.2801 Debye
        Dipole field          0.0003 Ry au, 

        Potential amp.       -0.0272 Ry
        Total length         45.1729 bohr


     Adding external electric field

     Computed dipole along edir(3) : 
        Dipole                0.1102 Ry au,          0.2801 Debye
        Dipole field          0.0003 Ry au, 

        Potential amp.       -0.0272 Ry
        Total length         45.1729 bohr


     total cpu time spent up to now is     1933.8 secs

     total energy              =   -1706.28142763 Ry
     estimated scf accuracy    <       0.64219424 Ry

     total magnetization       =    28.65 Bohr mag/cell
     absolute magnetization    =    28.99 Bohr mag/cell

     iteration #  6     ecut=    55.12 Ry     beta= 0.10
     Davidson diagonalization with overlap
     ethr =  4.28E-04,  avg # of iterations =  2.0

     Adding external electric field

     Computed dipole along edir(3) : 
        Dipole               -0.0322 Ry au,         -0.0818 Debye
        Dipole field         -0.0001 Ry au, 

        Potential amp.        0.0080 Ry
        Total length         45.1729 bohr


     Adding external electric field

     Computed dipole along edir(3) : 
        Dipole               -0.0322 Ry au,         -0.0818 Debye
        Dipole field         -0.0001 Ry au, 

        Potential amp.        0.0080 Ry
        Total length         45.1729 bohr


     total cpu time spent up to now is     2302.8 secs

     total energy              =   -1706.93838380 Ry
     estimated scf accuracy    <       0.26806677 Ry

     total magnetization       =    28.14 Bohr mag/cell
     absolute magnetization    =    28.52 Bohr mag/cell

     iteration #  7     ecut=    55.12 Ry     beta= 0.10
     Davidson diagonalization with overlap
     ethr =  1.79E-04,  avg # of iterations =  4.6

     Adding external electric field

     Computed dipole along edir(3) : 
        Dipole                0.0862 Ry au,          0.2190 Debye
        Dipole field          0.0002 Ry au, 

        Potential amp.       -0.0213 Ry
        Total length         45.1729 bohr


     Adding external electric field

     Computed dipole along edir(3) : 
        Dipole                0.0862 Ry au,          0.2190 Debye
        Dipole field          0.0002 Ry au, 

        Potential amp.       -0.0213 Ry
        Total length         45.1729 bohr


     total cpu time spent up to now is     2720.4 secs

     total energy              =   -1706.55682884 Ry
     estimated scf accuracy    <       0.21805538 Ry

     total magnetization       =    27.54 Bohr mag/cell
     absolute magnetization    =    27.99 Bohr mag/cell

     iteration #  8     ecut=    55.12 Ry     beta= 0.10
     Davidson diagonalization with overlap
     ethr =  1.45E-04,  avg # of iterations =  4.7

     Adding external electric field

     Computed dipole along edir(3) : 
        Dipole                0.0426 Ry au,          0.1082 Debye
        Dipole field          0.0001 Ry au, 

        Potential amp.       -0.0105 Ry
        Total length         45.1729 bohr


     Adding external electric field

     Computed dipole along edir(3) : 
        Dipole                0.0426 Ry au,          0.1082 Debye
        Dipole field          0.0001 Ry au, 

        Potential amp.       -0.0105 Ry
        Total length         45.1729 bohr


     total cpu time spent up to now is     3154.5 secs

     total energy              =   -1706.06627638 Ry
     estimated scf accuracy    <       0.26780633 Ry

     total magnetization       =    27.38 Bohr mag/cell
     absolute magnetization    =    27.82 Bohr mag/cell

     iteration #  9     ecut=    55.12 Ry     beta= 0.10
     Davidson diagonalization with overlap
     ethr =  1.45E-04,  avg # of iterations =  1.2

     Adding external electric field

     Computed dipole along edir(3) : 
        Dipole               -0.0048 Ry au,         -0.0122 Debye
        Dipole field         -0.0000 Ry au, 

        Potential amp.        0.0012 Ry
        Total length         45.1729 bohr


     Adding external electric field

     Computed dipole along edir(3) : 
        Dipole               -0.0048 Ry au,         -0.0122 Debye
        Dipole field         -0.0000 Ry au, 

        Potential amp.        0.0012 Ry
        Total length         45.1729 bohr


     total cpu time spent up to now is     3471.7 secs

     total energy              =   -1705.52831458 Ry
     estimated scf accuracy    <       0.07459845 Ry

     total magnetization       =    27.47 Bohr mag/cell
     absolute magnetization    =    27.89 Bohr mag/cell

     iteration # 10     ecut=    55.12 Ry     beta= 0.10
     Davidson diagonalization with overlap
     ethr =  4.97E-05,  avg # of iterations =  4.2

     Adding external electric field

     Computed dipole along edir(3) : 
        Dipole                0.0182 Ry au,          0.0464 Debye
        Dipole field          0.0000 Ry au, 

        Potential amp.       -0.0045 Ry
        Total length         45.1729 bohr


     Adding external electric field

     Computed dipole along edir(3) : 
        Dipole                0.0182 Ry au,          0.0464 Debye
        Dipole field          0.0000 Ry au, 

        Potential amp.       -0.0045 Ry
        Total length         45.1729 bohr


     total cpu time spent up to now is     3891.8 secs

     total energy              =   -1705.19296824 Ry
     estimated scf accuracy    <       0.04574851 Ry

     total magnetization       =    27.51 Bohr mag/cell
     absolute magnetization    =    27.95 Bohr mag/cell

     iteration # 11     ecut=    55.12 Ry     beta= 0.10
     Davidson diagonalization with overlap
     ethr =  3.05E-05,  avg # of iterations =  2.2

     Adding external electric field

     Computed dipole along edir(3) : 
        Dipole                0.0246 Ry au,          0.0625 Debye
        Dipole field          0.0001 Ry au, 

        Potential amp.       -0.0061 Ry
        Total length         45.1729 bohr


     Adding external electric field

     Computed dipole along edir(3) : 
        Dipole                0.0246 Ry au,          0.0625 Debye
        Dipole field          0.0001 Ry au, 

        Potential amp.       -0.0061 Ry
        Total length         45.1729 bohr


     total cpu time spent up to now is     4251.5 secs

     total energy              =   -1704.78575350 Ry
     estimated scf accuracy    <       0.00326554 Ry

     total magnetization       =    27.46 Bohr mag/cell
     absolute magnetization    =    27.91 Bohr mag/cell

     iteration # 12     ecut=    55.12 Ry     beta= 0.10
     Davidson diagonalization with overlap
     c_bands:  1 eigenvalues not converged
     c_bands:  1 eigenvalues not converged
     c_bands:  1 eigenvalues not converged
     c_bands:  1 eigenvalues not converged
     ethr =  2.18E-06,  avg # of iterations =  9.5

     Adding external electric field

     Computed dipole along edir(3) : 
        Dipole                0.0310 Ry au,          0.0788 Debye
        Dipole field          0.0001 Ry au, 

        Potential amp.       -0.0077 Ry
        Total length         45.1729 bohr


     Adding external electric field

     Computed dipole along edir(3) : 
        Dipole                0.0310 Ry au,          0.0788 Debye
        Dipole field          0.0001 Ry au, 

        Potential amp.       -0.0077 Ry
        Total length         45.1729 bohr


     total cpu time spent up to now is     4912.6 secs

     total energy              =   -1704.31158840 Ry
     estimated scf accuracy    <       0.00864394 Ry

     total magnetization       =    27.50 Bohr mag/cell
     absolute magnetization    =    27.97 Bohr mag/cell

     iteration # 13     ecut=    55.12 Ry     beta= 0.10
     Davidson diagonalization with overlap
     ethr =  2.18E-06,  avg # of iterations =  1.2

     Adding external electric field

     Computed dipole along edir(3) : 
        Dipole                0.0148 Ry au,          0.0375 Debye
        Dipole field          0.0000 Ry au, 

        Potential amp.       -0.0036 Ry
        Total length         45.1729 bohr


     Adding external electric field

     Computed dipole along edir(3) : 
        Dipole                0.0148 Ry au,          0.0375 Debye
        Dipole field          0.0000 Ry au, 

        Potential amp.       -0.0036 Ry
        Total length         45.1729 bohr


     total cpu time spent up to now is     5233.1 secs

     total energy              =   -1704.02654451 Ry
     estimated scf accuracy    <       0.01031948 Ry

     total magnetization       =    27.50 Bohr mag/cell
     absolute magnetization    =    27.97 Bohr mag/cell

     iteration # 14     ecut=    55.12 Ry     beta= 0.10
     Davidson diagonalization with overlap
     ethr =  2.18E-06,  avg # of iterations =  6.7

     Adding external electric field

     Computed dipole along edir(3) : 
        Dipole                0.0228 Ry au,          0.0580 Debye
        Dipole field          0.0001 Ry au, 

        Potential amp.       -0.0056 Ry
        Total length         45.1729 bohr


     Adding external electric field

     Computed dipole along edir(3) : 
        Dipole                0.0228 Ry au,          0.0580 Debye
        Dipole field          0.0001 Ry au, 

        Potential amp.       -0.0056 Ry
        Total length         45.1729 bohr


     total cpu time spent up to now is     5756.2 secs

     total energy              =   -1703.64257334 Ry
     estimated scf accuracy    <       0.00161111 Ry

     total magnetization       =    27.51 Bohr mag/cell
     absolute magnetization    =    28.00 Bohr mag/cell

     iteration # 15     ecut=    55.12 Ry     beta= 0.10
     Davidson diagonalization with overlap
     ethr =  1.07E-06,  avg # of iterations =  1.7

     Adding external electric field

     Computed dipole along edir(3) : 
        Dipole                0.0208 Ry au,          0.0528 Debye
        Dipole field          0.0001 Ry au, 

        Potential amp.       -0.0051 Ry
        Total length         45.1729 bohr


     Adding external electric field

     Computed dipole along edir(3) : 
        Dipole                0.0208 Ry au,          0.0528 Debye
        Dipole field          0.0001 Ry au, 

        Potential amp.       -0.0051 Ry
        Total length         45.1729 bohr


     total cpu time spent up to now is     6103.1 secs

     total energy              =   -1703.38941405 Ry
     estimated scf accuracy    <       0.00018308 Ry

     total magnetization       =    27.50 Bohr mag/cell
     absolute magnetization    =    27.99 Bohr mag/cell

     iteration # 16     ecut=    55.12 Ry     beta= 0.10
     Davidson diagonalization with overlap
     ethr =  1.22E-07,  avg # of iterations =  4.8

     Adding external electric field

     Computed dipole along edir(3) : 
        Dipole                0.0197 Ry au,          0.0502 Debye
        Dipole field          0.0001 Ry au, 

        Potential amp.       -0.0049 Ry
        Total length         45.1729 bohr


     Adding external electric field

     Computed dipole along edir(3) : 
        Dipole                0.0197 Ry au,          0.0502 Debye
        Dipole field          0.0001 Ry au, 

        Potential amp.       -0.0049 Ry
        Total length         45.1729 bohr


     total cpu time spent up to now is     6550.9 secs

     total energy              =   -1703.14983082 Ry
     estimated scf accuracy    <       0.00031198 Ry

     total magnetization       =    27.50 Bohr mag/cell
     absolute magnetization    =    28.00 Bohr mag/cell

     iteration # 17     ecut=    55.12 Ry     beta= 0.10
     Davidson diagonalization with overlap
     ethr =  1.22E-07,  avg # of iterations =  4.1

     Adding external electric field

     Computed dipole along edir(3) : 
        Dipole                0.0210 Ry au,          0.0533 Debye
        Dipole field          0.0001 Ry au, 

        Potential amp.       -0.0052 Ry
        Total length         45.1729 bohr


     Adding external electric field

     Computed dipole along edir(3) : 
        Dipole                0.0210 Ry au,          0.0533 Debye
        Dipole field          0.0001 Ry au, 

        Potential amp.       -0.0052 Ry
        Total length         45.1729 bohr


     total cpu time spent up to now is     6998.3 secs

     total energy              =   -1702.86795688 Ry
     estimated scf accuracy    <       0.00012125 Ry

     total magnetization       =    27.50 Bohr mag/cell
     absolute magnetization    =    28.02 Bohr mag/cell

     iteration # 18     ecut=    55.12 Ry     beta= 0.10
     Davidson diagonalization with overlap
     ethr =  8.08E-08,  avg # of iterations =  2.7

     Adding external electric field

     Computed dipole along edir(3) : 
        Dipole                0.0217 Ry au,          0.0552 Debye
        Dipole field          0.0001 Ry au, 

        Potential amp.       -0.0054 Ry
        Total length         45.1729 bohr


     Adding external electric field

     Computed dipole along edir(3) : 
        Dipole                0.0217 Ry au,          0.0552 Debye
        Dipole field          0.0001 Ry au, 

        Potential amp.       -0.0054 Ry
        Total length         45.1729 bohr


     total cpu time spent up to now is     7375.2 secs

     total energy              =   -1702.64144465 Ry
     estimated scf accuracy    <       0.00001683 Ry

     total magnetization       =    27.50 Bohr mag/cell
     absolute magnetization    =    28.02 Bohr mag/cell

     iteration # 19     ecut=    55.12 Ry     beta= 0.10
     Davidson diagonalization with overlap
     ethr =  1.12E-08,  avg # of iterations =  6.3

     Adding external electric field

     Computed dipole along edir(3) : 
        Dipole                0.0083 Ry au,          0.0211 Debye
        Dipole field          0.0000 Ry au, 

        Potential amp.       -0.0020 Ry
        Total length         45.1729 bohr


     Adding external electric field

     Computed dipole along edir(3) : 
        Dipole                0.0083 Ry au,          0.0211 Debye
        Dipole field          0.0000 Ry au, 

        Potential amp.       -0.0020 Ry
        Total length         45.1729 bohr


     Magnetic moment per site:
     atom:    1    charge:   13.3325    magn:    4.1386    constr:    0.0000
     atom:    2    charge:   13.3325    magn:    4.1386    constr:    0.0000
     atom:    3    charge:    8.2774    magn:    0.2636    constr:    0.0000
     atom:    4    charge:    8.2774    magn:    0.2636    constr:    0.0000
     atom:    5    charge:   13.4091    magn:    4.0001    constr:    0.0000
     atom:    6    charge:   13.4091    magn:    4.0001    constr:    0.0000
     atom:    7    charge:    8.2972    magn:    0.3315    constr:    0.0000
     atom:    8    charge:    8.2972    magn:    0.3315    constr:    0.0000
     atom:    9    charge:   13.3295    magn:    4.1378    constr:    0.0000
     atom:   10    charge:   13.3295    magn:    4.1378    constr:    0.0000
     atom:   11    charge:    8.2886    magn:    0.2748    constr:    0.0000
     atom:   12    charge:    8.2886    magn:    0.2748    constr:    0.0000

     total cpu time spent up to now is     7932.1 secs

     End of self-consistent calculation

     Number of k-points >= 100: set verbosity='high' to print the bands.

     the Fermi energy is     0.4598 ev

!    total energy              =   -1700.16305111 Ry
     estimated scf accuracy    <       0.00000735 Ry
     smearing contrib. (-TS)   =      -0.02675946 Ry
     internal energy E=F+TS    =   -1700.13629164 Ry

     The total energy is F=E-TS. E is the sum of the following terms:
     one-electron contribution =  -12580.44029821 Ry
     hartree contribution      =    6327.70186384 Ry
     xc contribution           =    -309.42357664 Ry
     ewald contribution        =    4862.02571917 Ry
     electric field correction =       0.00000019 Ry

     total magnetization       =    27.49 Bohr mag/cell
     absolute magnetization    =    28.02 Bohr mag/cell

     convergence has been achieved in  19 iterations

     Forces acting on atoms (cartesian axes, Ry/au):

     atom    1 type  1   force =    -0.00201404   -0.00136101   -0.00277388
     atom    2 type  1   force =    -0.00200962   -0.00136863   -0.00276678
     atom    3 type  2   force =    -0.00252434   -0.00170525    0.01208391
     atom    4 type  2   force =    -0.00252584   -0.00170591    0.01208373
     atom    5 type  1   force =     0.00260390    0.00175865   -0.01200232
     atom    6 type  1   force =     0.00259764    0.00175688   -0.01200771
     atom    7 type  2   force =     0.00162629    0.00109819    0.00194762
     atom    8 type  2   force =     0.00162764    0.00109791    0.00194788
     atom    9 type  1   force =    -0.00007604   -0.00003300   -0.00191573
     atom   10 type  1   force =    -0.00006511   -0.00004749   -0.00191937
     atom   11 type  2   force =     0.00037984    0.00025611    0.00266095
     atom   12 type  2   force =     0.00037968    0.00025356    0.00266169

     Total force =     0.026134     Total SCF correction =     0.013570
     SCF correction compared to forces is large: reduce conv_thr to get better values

     Writing output data file ./Mn2Pd2/Mn2Pd2_beef.save/

     init_run     :    170.41s CPU    171.37s WALL (       1 calls)
     electrons    :   7620.09s CPU   7759.50s WALL (       1 calls)
     forces       :    119.70s CPU    120.17s WALL (       1 calls)

     Called by init_run:
     wfcinit      :    157.59s CPU    158.27s WALL (       1 calls)
     potinit      :      8.44s CPU      8.57s WALL (       1 calls)
     hinit0       :      2.00s CPU      2.01s WALL (       1 calls)

     Called by electrons:
     c_bands      :   6768.75s CPU   6885.71s WALL (      19 calls)
     sum_band     :    786.23s CPU    802.54s WALL (      19 calls)
     v_of_rho     :     39.09s CPU     41.37s WALL (      20 calls)
     newd         :     32.73s CPU     35.80s WALL (      20 calls)
     mix_rho      :      1.47s CPU      1.56s WALL (      19 calls)
     vdW_kernel   :      5.75s CPU      5.75s WALL (       1 calls)

     Called by c_bands:
     init_us_2    :     28.33s CPU     29.28s WALL (    5920 calls)
     cegterg      :   6702.31s CPU   6813.70s WALL (    2812 calls)

     Called by *egterg:
     cdiaghg      :    286.93s CPU    289.48s WALL (   12325 calls)
     h_psi        :   3401.69s CPU   3464.00s WALL (   12473 calls)
     s_psi        :   1160.14s CPU   1177.52s WALL (   12473 calls)
     g_psi        :      2.36s CPU      2.39s WALL (    9513 calls)

     Called by h_psi:
     h_psi:calbec :   1207.79s CPU   1226.03s WALL (   12473 calls)
     vloc_psi     :    947.51s CPU    970.97s WALL (   12473 calls)
     add_vuspsi   :   1233.20s CPU   1253.46s WALL (   12473 calls)

     General routines
     calbec       :   1815.11s CPU   1840.07s WALL (   15877 calls)
     fft          :     24.41s CPU     25.44s WALL (    1857 calls)
     ffts         :      0.14s CPU      0.15s WALL (      78 calls)
     fftw         :   1093.72s CPU   1121.05s WALL ( 1469624 calls)
     interpolate  :      0.53s CPU      0.56s WALL (      40 calls)

     Parallel routines
     fft_scatt_xy :     88.92s CPU     91.00s WALL ( 1471559 calls)
     fft_scatt_yz :    197.67s CPU    202.86s WALL ( 1471559 calls)

     PWSCF        :      2h12m CPU      2h14m WALL


   This run was terminated on:   3:36:59  29Jun2022            

=------------------------------------------------------------------------------=
   JOB DONE.
=------------------------------------------------------------------------------=
