
     Program PWSCF v.6.6 starts on  2Jul2022 at 22:34:44 

     This program is part of the open-source Quantum ESPRESSO suite
     for quantum simulation of materials; please cite
         "P. Giannozzi et al., J. Phys.:Condens. Matter 21 395502 (2009);
         "P. Giannozzi et al., J. Phys.:Condens. Matter 29 465901 (2017);
          URL http://www.quantum-espresso.org", 
     in publications or presentations arising from this work. More details at
     http://www.quantum-espresso.org/quote

     Parallel version (MPI), running on    37 processors

     MPI processes distributed on     1 nodes
     R & G space division:  proc/nbgrp/npool/nimage =      37
     Fft bands division:     nmany     =       1
     Reading input from Mn2Re2.in
Warning: card &CELL ignored
Warning: card / ignored

     Current dimensions of program PWSCF are:
     Max number of different atomic species (ntypx) = 10
     Max number of k-points (npk) =  40000
     Max angular momentum in pseudopotentials (lmaxx) =  3
     Presently stress not available with electric field and gates

     Message from routine cell_base_init:
     DEPRECATED: use true lattice parameter, not A to a.u. conversion factor
     file Mn.pbe-spn-rrkjus_psl.0.3.1.UPF: wavefunction(s)  3D renormalized

     **************************************************************************
     Initializing libbeef V0.1.2 with the BEEF-vdW functional.
     Citation: Wellendorff et al., PRB 85, 235149 (2012).
     **************************************************************************


     IMPORTANT: XC functional enforced from input :
     Exchange-correlation= BEEF-VDW
                           (   1   4  43  14   2   0   0)
     Any further DFT definition will be discarded
     Please, verify this is what you really want


     Subspace diagonalization in iterative solution of the eigenvalue problem:
     a serial algorithm will be used


     Parallelization info
     --------------------
     sticks:   dense  smooth     PW     G-vecs:    dense   smooth      PW
     Min         103      41     11                23625     5965     917
     Max         104      42     12                23634     5983     944
     Sum        3825    1523    437               874287   221151   34557



     bravais-lattice index     =            0
     lattice parameter (alat)  =       1.8897  a.u.
     unit-cell volume          =    3999.1109 (a.u.)^3
     number of atoms/cell      =           12
     number of atomic types    =            2
     number of electrons       =       180.00
     number of Kohn-Sham states=          108
     kinetic-energy cutoff     =      55.1240  Ry
     charge density cutoff     =     551.2396  Ry
     convergence threshold     =      1.0E-05
     mixing beta               =       0.1000
     number of iterations used =           10  plain     mixing
     Exchange-correlation= BEEF-VDW
                           (   1   4  43  14   2   0   0)

     celldm(1)=   1.889726  celldm(2)=   0.000000  celldm(3)=   0.000000
     celldm(4)=   0.000000  celldm(5)=   0.000000  celldm(6)=   0.000000

     crystal axes: (cart. coord. in units of alat)
               a(1) = (   5.286691   0.000000   0.000000 )  
               a(2) = (   2.592643   4.607310   0.000000 )  
               a(3) = (   0.000000   0.000000  24.329634 )  

     reciprocal axes: (cart. coord. in units 2 pi/alat)
               b(1) = (  0.189154 -0.106442  0.000000 )  
               b(2) = (  0.000000  0.217046  0.000000 )  
               b(3) = (  0.000000  0.000000  0.041102 )  


     PseudoPot. # 1 for Mn read from file:
     ../pseudo/Mn.pbe-spn-rrkjus_psl.0.3.1.UPF
     MD5 check sum: e1cac159bdd2ba70c18e85765a5d4279
     Pseudo is Ultrasoft + core correction, Zval = 15.0
     Generated using "atomic" code by A. Dal Corso v.6.2.2
     Using radial grid of 1187 points,  6 beta functions with: 
                l(1) =   0
                l(2) =   0
                l(3) =   1
                l(4) =   1
                l(5) =   2
                l(6) =   2
     Q(r) pseudized with 0 coefficients 


     PseudoPot. # 2 for Re read from file:
     ../pseudo/Re.pbe-spn-rrkjus_psl.1.0.0.UPF
     MD5 check sum: 1282f1ec51ad523723a04c61ae80a9e6
     Pseudo is Ultrasoft + core correction, Zval = 15.0
     Generated using "atomic" code by A. Dal Corso v.6.2.2
     Using radial grid of 1275 points,  6 beta functions with: 
                l(1) =   0
                l(2) =   0
                l(3) =   1
                l(4) =   1
                l(5) =   2
                l(6) =   2
     Q(r) pseudized with 0 coefficients 


     atomic species   valence    mass     pseudopotential
        Mn            15.00    54.93804     Mn( 1.00)
        Re            15.00   186.20700     Re( 1.00)

     Starting magnetic structure 
     atomic species   magnetization
        Mn           0.330
        Re           0.000

     No symmetry found



   Cartesian axes

     site n.     atom                  positions (alat units)
         1           Mn  tau(   1) = (   0.0000000   0.0000000  10.0000000  )
         2           Mn  tau(   2) = (   3.9396667   2.3036550  10.0000000  )
         3           Re  tau(   3) = (   2.6433455   0.0000000  10.0000000  )
         4           Re  tau(   4) = (   1.2963213   2.3036550  10.0000000  )
         5           Mn  tau(   5) = (   5.2866909   3.0913051  12.1648172  )
         6           Mn  tau(   6) = (   1.3470242   0.7876501  12.1648172  )
         7           Re  tau(   7) = (   2.6433455   3.0913051  12.1648172  )
         8           Re  tau(   8) = (   3.9903696   0.7876501  12.1648172  )
         9           Mn  tau(   9) = (   2.7097777   1.5844952  14.3705073  )
        10           Mn  tau(  10) = (   6.6495616   3.8882202  14.3705785  )
        11           Re  tau(  11) = (   5.3546014   1.5853565  14.2406004  )
        12           Re  tau(  12) = (   4.0075765   3.8890231  14.2405982  )

     number of k points=    74  Fermi-Dirac smearing, width (Ry)=  0.0100
                       cart. coord. in units 2pi/alat
        k(    1) = (   0.0000000   0.0000000   0.0000000), wk =   0.0069444
        k(    2) = (   0.0000000   0.0180872   0.0000000), wk =   0.0138889
        k(    3) = (   0.0000000   0.0361744   0.0000000), wk =   0.0138889
        k(    4) = (   0.0000000   0.0542616   0.0000000), wk =   0.0138889
        k(    5) = (   0.0000000   0.0723488   0.0000000), wk =   0.0138889
        k(    6) = (   0.0000000   0.0904360   0.0000000), wk =   0.0138889
        k(    7) = (   0.0000000  -0.1085232   0.0000000), wk =   0.0069444
        k(    8) = (   0.0157629  -0.0088701   0.0000000), wk =   0.0138889
        k(    9) = (   0.0157629   0.0092171   0.0000000), wk =   0.0138889
        k(   10) = (   0.0157629   0.0273043   0.0000000), wk =   0.0138889
        k(   11) = (   0.0157629   0.0453915   0.0000000), wk =   0.0138889
        k(   12) = (   0.0157629   0.0634787   0.0000000), wk =   0.0138889
        k(   13) = (   0.0157629   0.0815659   0.0000000), wk =   0.0138889
        k(   14) = (   0.0157629  -0.1173933   0.0000000), wk =   0.0138889
        k(   15) = (   0.0157629  -0.0993061   0.0000000), wk =   0.0138889
        k(   16) = (   0.0157629  -0.0812189   0.0000000), wk =   0.0138889
        k(   17) = (   0.0157629  -0.0631317   0.0000000), wk =   0.0138889
        k(   18) = (   0.0157629  -0.0450445   0.0000000), wk =   0.0138889
        k(   19) = (   0.0157629  -0.0269573   0.0000000), wk =   0.0138889
        k(   20) = (   0.0315257  -0.0177403   0.0000000), wk =   0.0138889
        k(   21) = (   0.0315257   0.0003469   0.0000000), wk =   0.0138889
        k(   22) = (   0.0315257   0.0184341   0.0000000), wk =   0.0138889
        k(   23) = (   0.0315257   0.0365213   0.0000000), wk =   0.0138889
        k(   24) = (   0.0315257   0.0546085   0.0000000), wk =   0.0138889
        k(   25) = (   0.0315257   0.0726957   0.0000000), wk =   0.0138889
        k(   26) = (   0.0315257  -0.1262635   0.0000000), wk =   0.0138889
        k(   27) = (   0.0315257  -0.1081763   0.0000000), wk =   0.0138889
        k(   28) = (   0.0315257  -0.0900891   0.0000000), wk =   0.0138889
        k(   29) = (   0.0315257  -0.0720019   0.0000000), wk =   0.0138889
        k(   30) = (   0.0315257  -0.0539147   0.0000000), wk =   0.0138889
        k(   31) = (   0.0315257  -0.0358275   0.0000000), wk =   0.0138889
        k(   32) = (   0.0472886  -0.0266104   0.0000000), wk =   0.0138889
        k(   33) = (   0.0472886  -0.0085232   0.0000000), wk =   0.0138889
        k(   34) = (   0.0472886   0.0095640   0.0000000), wk =   0.0138889
        k(   35) = (   0.0472886   0.0276512   0.0000000), wk =   0.0138889
        k(   36) = (   0.0472886   0.0457384   0.0000000), wk =   0.0138889
        k(   37) = (   0.0472886   0.0638256   0.0000000), wk =   0.0138889
        k(   38) = (   0.0472886  -0.1351336   0.0000000), wk =   0.0138889
        k(   39) = (   0.0472886  -0.1170464   0.0000000), wk =   0.0138889
        k(   40) = (   0.0472886  -0.0989592   0.0000000), wk =   0.0138889
        k(   41) = (   0.0472886  -0.0808720   0.0000000), wk =   0.0138889
        k(   42) = (   0.0472886  -0.0627848   0.0000000), wk =   0.0138889
        k(   43) = (   0.0472886  -0.0446976   0.0000000), wk =   0.0138889
        k(   44) = (   0.0630514  -0.0354805   0.0000000), wk =   0.0138889
        k(   45) = (   0.0630514  -0.0173933   0.0000000), wk =   0.0138889
        k(   46) = (   0.0630514   0.0006939   0.0000000), wk =   0.0138889
        k(   47) = (   0.0630514   0.0187811   0.0000000), wk =   0.0138889
        k(   48) = (   0.0630514   0.0368683   0.0000000), wk =   0.0138889
        k(   49) = (   0.0630514   0.0549555   0.0000000), wk =   0.0138889
        k(   50) = (   0.0630514  -0.1440037   0.0000000), wk =   0.0138889
        k(   51) = (   0.0630514  -0.1259165   0.0000000), wk =   0.0138889
        k(   52) = (   0.0630514  -0.1078293   0.0000000), wk =   0.0138889
        k(   53) = (   0.0630514  -0.0897421   0.0000000), wk =   0.0138889
        k(   54) = (   0.0630514  -0.0716549   0.0000000), wk =   0.0138889
        k(   55) = (   0.0630514  -0.0535677   0.0000000), wk =   0.0138889
        k(   56) = (   0.0788143  -0.0443507   0.0000000), wk =   0.0138889
        k(   57) = (   0.0788143  -0.0262635   0.0000000), wk =   0.0138889
        k(   58) = (   0.0788143  -0.0081763   0.0000000), wk =   0.0138889
        k(   59) = (   0.0788143   0.0099109   0.0000000), wk =   0.0138889
        k(   60) = (   0.0788143   0.0279981   0.0000000), wk =   0.0138889
        k(   61) = (   0.0788143   0.0460853   0.0000000), wk =   0.0138889
        k(   62) = (   0.0788143  -0.1528739   0.0000000), wk =   0.0138889
        k(   63) = (   0.0788143  -0.1347867   0.0000000), wk =   0.0138889
        k(   64) = (   0.0788143  -0.1166995   0.0000000), wk =   0.0138889
        k(   65) = (   0.0788143  -0.0986123   0.0000000), wk =   0.0138889
        k(   66) = (   0.0788143  -0.0805251   0.0000000), wk =   0.0138889
        k(   67) = (   0.0788143  -0.0624379   0.0000000), wk =   0.0138889
        k(   68) = (  -0.0945771   0.0532208   0.0000000), wk =   0.0069444
        k(   69) = (  -0.0945771   0.0713080   0.0000000), wk =   0.0138889
        k(   70) = (  -0.0945771   0.0893952   0.0000000), wk =   0.0138889
        k(   71) = (  -0.0945771   0.1074824   0.0000000), wk =   0.0138889
        k(   72) = (  -0.0945771   0.1255696   0.0000000), wk =   0.0138889
        k(   73) = (  -0.0945771   0.1436568   0.0000000), wk =   0.0138889
        k(   74) = (  -0.0945771  -0.0553024   0.0000000), wk =   0.0069444

     Dense  grid:   874287 G-vectors     FFT dimensions: (  75,  75, 360)

     Smooth grid:   221151 G-vectors     FFT dimensions: (  48,  48, 225)

     Estimated max dynamical RAM per process >     289.42 MB

     Estimated total dynamical RAM >      10.46 GB

     Check: negative core charge=   -0.000003
     Generating pointlists ...
     new r_m :   1.0582 (alat units)  1.9998 (a.u.) for type    1
     new r_m :   1.0582 (alat units)  1.9998 (a.u.) for type    2

     Initial potential from superposition of free atoms

     starting charge  179.99521, renormalised to  180.00000


     %%%%%%%%%%%%%%%%%%%%%%%%%%%%%%%%%%%%%%%%%%%%%%%%%%%%%%%%%%%%%%%%%%%%%%%%
     %                                                                      %
     % You are using vdW-DF, which was implemented by the Thonhauser group. %
     % Please cite the following two papers that made this development      %
     % possible and the two reviews that describe the various versions:     %
     %                                                                      %
     %   T. Thonhauser et al., PRL 115, 136402 (2015).                      %
     %   T. Thonhauser et al., PRB 76, 125112 (2007).                       %
     %   K. Berland et al., Rep. Prog. Phys. 78, 066501 (2015).             %
     %   D.C. Langreth et al., J. Phys.: Condens. Matter 21, 084203 (2009). %
     %                                                                      %
     %                                                                      %
     % If you are calculating the stress with vdW-DF, please also cite:     %
     %                                                                      %
     %   R. Sabatini et al., J. Phys.: Condens. Matter 24, 424209 (2012).   %
     %                                                                      %
     %%%%%%%%%%%%%%%%%%%%%%%%%%%%%%%%%%%%%%%%%%%%%%%%%%%%%%%%%%%%%%%%%%%%%%%%



     Adding external electric field

     Computed dipole along edir(3) : 
        Dipole                0.0000 Ry au,          0.0001 Debye
        Dipole field          0.0000 Ry au, 

        Potential amp.       -0.0000 Ry
        Total length         44.8269 bohr


     Adding external electric field

     Computed dipole along edir(3) : 
        Dipole                0.0000 Ry au,          0.0001 Debye
        Dipole field          0.0000 Ry au, 

        Potential amp.       -0.0000 Ry
        Total length         44.8269 bohr

     Starting wfcs are  120 randomized atomic wfcs

     total cpu time spent up to now is      178.2 secs

     Self-consistent Calculation

     iteration #  1     ecut=    55.12 Ry     beta= 0.10
     Davidson diagonalization with overlap
     ethr =  1.00E-02,  avg # of iterations =  2.5

     Adding external electric field

     Computed dipole along edir(3) : 
        Dipole               -0.1288 Ry au,         -0.3274 Debye
        Dipole field         -0.0004 Ry au, 

        Potential amp.        0.0363 Ry
        Total length         44.8269 bohr


     Adding external electric field

     Computed dipole along edir(3) : 
        Dipole               -0.1288 Ry au,         -0.3274 Debye
        Dipole field         -0.0004 Ry au, 

        Potential amp.        0.0363 Ry
        Total length         44.8269 bohr


     total cpu time spent up to now is      635.7 secs

     total energy              =   -2363.76733738 Ry
     estimated scf accuracy    <       4.93908363 Ry

     total magnetization       =    18.75 Bohr mag/cell
     absolute magnetization    =    21.19 Bohr mag/cell

     iteration #  2     ecut=    55.12 Ry     beta= 0.10
     Davidson diagonalization with overlap
     ethr =  2.74E-03,  avg # of iterations =  2.6

     Adding external electric field

     Computed dipole along edir(3) : 
        Dipole                0.3492 Ry au,          0.8875 Debye
        Dipole field          0.0011 Ry au, 

        Potential amp.       -0.0984 Ry
        Total length         44.8269 bohr


     Adding external electric field

     Computed dipole along edir(3) : 
        Dipole                0.3492 Ry au,          0.8875 Debye
        Dipole field          0.0011 Ry au, 

        Potential amp.       -0.0984 Ry
        Total length         44.8269 bohr


     total cpu time spent up to now is     1051.2 secs

     total energy              =   -2364.14801560 Ry
     estimated scf accuracy    <       3.37106089 Ry

     total magnetization       =    18.76 Bohr mag/cell
     absolute magnetization    =    21.59 Bohr mag/cell

     iteration #  3     ecut=    55.12 Ry     beta= 0.10
     Davidson diagonalization with overlap
     ethr =  1.87E-03,  avg # of iterations =  1.6

     Adding external electric field

     Computed dipole along edir(3) : 
        Dipole               -0.0782 Ry au,         -0.1987 Debye
        Dipole field         -0.0002 Ry au, 

        Potential amp.        0.0220 Ry
        Total length         44.8269 bohr


     Adding external electric field

     Computed dipole along edir(3) : 
        Dipole               -0.0782 Ry au,         -0.1987 Debye
        Dipole field         -0.0002 Ry au, 

        Potential amp.        0.0220 Ry
        Total length         44.8269 bohr


     total cpu time spent up to now is     1440.6 secs

     total energy              =   -2364.28093749 Ry
     estimated scf accuracy    <       8.76865824 Ry

     total magnetization       =    19.07 Bohr mag/cell
     absolute magnetization    =    21.97 Bohr mag/cell

     iteration #  4     ecut=    55.12 Ry     beta= 0.10
     Davidson diagonalization with overlap
     ethr =  1.87E-03,  avg # of iterations =  1.2

     Adding external electric field

     Computed dipole along edir(3) : 
        Dipole                0.0195 Ry au,          0.0496 Debye
        Dipole field          0.0001 Ry au, 

        Potential amp.       -0.0055 Ry
        Total length         44.8269 bohr


     Adding external electric field

     Computed dipole along edir(3) : 
        Dipole                0.0195 Ry au,          0.0496 Debye
        Dipole field          0.0001 Ry au, 

        Potential amp.       -0.0055 Ry
        Total length         44.8269 bohr


     total cpu time spent up to now is     1798.1 secs

     total energy              =   -2364.39222286 Ry
     estimated scf accuracy    <       0.98110880 Ry

     total magnetization       =    19.33 Bohr mag/cell
     absolute magnetization    =    22.56 Bohr mag/cell

     iteration #  5     ecut=    55.12 Ry     beta= 0.10
     Davidson diagonalization with overlap
     ethr =  5.45E-04,  avg # of iterations =  2.4

     Adding external electric field

     Computed dipole along edir(3) : 
        Dipole                0.0256 Ry au,          0.0650 Debye
        Dipole field          0.0001 Ry au, 

        Potential amp.       -0.0072 Ry
        Total length         44.8269 bohr


     Adding external electric field

     Computed dipole along edir(3) : 
        Dipole                0.0256 Ry au,          0.0650 Debye
        Dipole field          0.0001 Ry au, 

        Potential amp.       -0.0072 Ry
        Total length         44.8269 bohr


     total cpu time spent up to now is     2211.9 secs

     total energy              =   -2364.41403261 Ry
     estimated scf accuracy    <       0.32479350 Ry

     total magnetization       =    18.70 Bohr mag/cell
     absolute magnetization    =    22.35 Bohr mag/cell

     iteration #  6     ecut=    55.12 Ry     beta= 0.10
     Davidson diagonalization with overlap
     ethr =  1.80E-04,  avg # of iterations =  4.7

     Adding external electric field

     Computed dipole along edir(3) : 
        Dipole                0.0363 Ry au,          0.0922 Debye
        Dipole field          0.0001 Ry au, 

        Potential amp.       -0.0102 Ry
        Total length         44.8269 bohr


     Adding external electric field

     Computed dipole along edir(3) : 
        Dipole                0.0363 Ry au,          0.0922 Debye
        Dipole field          0.0001 Ry au, 

        Potential amp.       -0.0102 Ry
        Total length         44.8269 bohr


     total cpu time spent up to now is     2683.4 secs

     total energy              =   -2364.91214171 Ry
     estimated scf accuracy    <       0.19238296 Ry

     total magnetization       =    17.71 Bohr mag/cell
     absolute magnetization    =    22.12 Bohr mag/cell

     iteration #  7     ecut=    55.12 Ry     beta= 0.10
     Davidson diagonalization with overlap
     ethr =  1.07E-04,  avg # of iterations =  3.5

     Adding external electric field

     Computed dipole along edir(3) : 
        Dipole                0.0169 Ry au,          0.0429 Debye
        Dipole field          0.0001 Ry au, 

        Potential amp.       -0.0048 Ry
        Total length         44.8269 bohr


     Adding external electric field

     Computed dipole along edir(3) : 
        Dipole                0.0169 Ry au,          0.0429 Debye
        Dipole field          0.0001 Ry au, 

        Potential amp.       -0.0048 Ry
        Total length         44.8269 bohr


     total cpu time spent up to now is     3117.9 secs

     total energy              =   -2365.35016854 Ry
     estimated scf accuracy    <       0.13965377 Ry

     total magnetization       =    16.63 Bohr mag/cell
     absolute magnetization    =    21.78 Bohr mag/cell

     iteration #  8     ecut=    55.12 Ry     beta= 0.10
     Davidson diagonalization with overlap
     ethr =  7.76E-05,  avg # of iterations =  2.9

     Adding external electric field

     Computed dipole along edir(3) : 
        Dipole                0.0315 Ry au,          0.0801 Debye
        Dipole field          0.0001 Ry au, 

        Potential amp.       -0.0089 Ry
        Total length         44.8269 bohr


     Adding external electric field

     Computed dipole along edir(3) : 
        Dipole                0.0315 Ry au,          0.0801 Debye
        Dipole field          0.0001 Ry au, 

        Potential amp.       -0.0089 Ry
        Total length         44.8269 bohr


     total cpu time spent up to now is     3533.9 secs

     total energy              =   -2365.60723602 Ry
     estimated scf accuracy    <       0.06502458 Ry

     total magnetization       =    15.04 Bohr mag/cell
     absolute magnetization    =    21.11 Bohr mag/cell

     iteration #  9     ecut=    55.12 Ry     beta= 0.10
     Davidson diagonalization with overlap
     c_bands:  3 eigenvalues not converged
     c_bands:  2 eigenvalues not converged
     ethr =  3.61E-05,  avg # of iterations =  5.8

     Adding external electric field

     Computed dipole along edir(3) : 
        Dipole                0.0316 Ry au,          0.0802 Debye
        Dipole field          0.0001 Ry au, 

        Potential amp.       -0.0089 Ry
        Total length         44.8269 bohr


     Adding external electric field

     Computed dipole along edir(3) : 
        Dipole                0.0316 Ry au,          0.0802 Debye
        Dipole field          0.0001 Ry au, 

        Potential amp.       -0.0089 Ry
        Total length         44.8269 bohr


     total cpu time spent up to now is     4021.8 secs

     total energy              =   -2365.82791596 Ry
     estimated scf accuracy    <       0.02753677 Ry

     total magnetization       =    14.19 Bohr mag/cell
     absolute magnetization    =    20.71 Bohr mag/cell

     iteration # 10     ecut=    55.12 Ry     beta= 0.10
     Davidson diagonalization with overlap
     c_bands:  1 eigenvalues not converged
     ethr =  1.53E-05,  avg # of iterations =  8.7

     Adding external electric field

     Computed dipole along edir(3) : 
        Dipole                0.0307 Ry au,          0.0780 Debye
        Dipole field          0.0001 Ry au, 

        Potential amp.       -0.0086 Ry
        Total length         44.8269 bohr


     Adding external electric field

     Computed dipole along edir(3) : 
        Dipole                0.0307 Ry au,          0.0780 Debye
        Dipole field          0.0001 Ry au, 

        Potential amp.       -0.0086 Ry
        Total length         44.8269 bohr


     total cpu time spent up to now is     4576.3 secs

     total energy              =   -2365.86110319 Ry
     estimated scf accuracy    <       0.01554687 Ry

     total magnetization       =    13.29 Bohr mag/cell
     absolute magnetization    =    20.05 Bohr mag/cell

     iteration # 11     ecut=    55.12 Ry     beta= 0.10
     Davidson diagonalization with overlap
     c_bands:  1 eigenvalues not converged
     ethr =  8.64E-06,  avg # of iterations =  5.2

     Adding external electric field

     Computed dipole along edir(3) : 
        Dipole                0.0293 Ry au,          0.0745 Debye
        Dipole field          0.0001 Ry au, 

        Potential amp.       -0.0083 Ry
        Total length         44.8269 bohr


     Adding external electric field

     Computed dipole along edir(3) : 
        Dipole                0.0293 Ry au,          0.0745 Debye
        Dipole field          0.0001 Ry au, 

        Potential amp.       -0.0083 Ry
        Total length         44.8269 bohr


     total cpu time spent up to now is     5040.6 secs

     total energy              =   -2365.75309201 Ry
     estimated scf accuracy    <       0.00982395 Ry

     total magnetization       =    12.75 Bohr mag/cell
     absolute magnetization    =    19.66 Bohr mag/cell

     iteration # 12     ecut=    55.12 Ry     beta= 0.10
     Davidson diagonalization with overlap
     c_bands:  1 eigenvalues not converged
     c_bands:  1 eigenvalues not converged
     ethr =  5.46E-06,  avg # of iterations =  5.2

     Adding external electric field

     Computed dipole along edir(3) : 
        Dipole                0.0194 Ry au,          0.0494 Debye
        Dipole field          0.0001 Ry au, 

        Potential amp.       -0.0055 Ry
        Total length         44.8269 bohr


     Adding external electric field

     Computed dipole along edir(3) : 
        Dipole                0.0194 Ry au,          0.0494 Debye
        Dipole field          0.0001 Ry au, 

        Potential amp.       -0.0055 Ry
        Total length         44.8269 bohr


     total cpu time spent up to now is     5537.4 secs

     total energy              =   -2365.87465208 Ry
     estimated scf accuracy    <       0.01796385 Ry

     total magnetization       =    12.78 Bohr mag/cell
     absolute magnetization    =    19.54 Bohr mag/cell

     iteration # 13     ecut=    55.12 Ry     beta= 0.10
     Davidson diagonalization with overlap
     ethr =  5.46E-06,  avg # of iterations =  2.3

     Adding external electric field

     Computed dipole along edir(3) : 
        Dipole                0.0228 Ry au,          0.0580 Debye
        Dipole field          0.0001 Ry au, 

        Potential amp.       -0.0064 Ry
        Total length         44.8269 bohr


     Adding external electric field

     Computed dipole along edir(3) : 
        Dipole                0.0228 Ry au,          0.0580 Debye
        Dipole field          0.0001 Ry au, 

        Potential amp.       -0.0064 Ry
        Total length         44.8269 bohr


     total cpu time spent up to now is     5960.1 secs

     total energy              =   -2365.87694321 Ry
     estimated scf accuracy    <       0.00674559 Ry

     total magnetization       =    12.16 Bohr mag/cell
     absolute magnetization    =    19.07 Bohr mag/cell

     iteration # 14     ecut=    55.12 Ry     beta= 0.10
     Davidson diagonalization with overlap
     ethr =  3.75E-06,  avg # of iterations =  5.2

     Adding external electric field

     Computed dipole along edir(3) : 
        Dipole                0.0218 Ry au,          0.0554 Debye
        Dipole field          0.0001 Ry au, 

        Potential amp.       -0.0061 Ry
        Total length         44.8269 bohr


     Adding external electric field

     Computed dipole along edir(3) : 
        Dipole                0.0218 Ry au,          0.0554 Debye
        Dipole field          0.0001 Ry au, 

        Potential amp.       -0.0061 Ry
        Total length         44.8269 bohr


     total cpu time spent up to now is     6398.5 secs

     total energy              =   -2365.75319426 Ry
     estimated scf accuracy    <       0.00698843 Ry

     total magnetization       =    11.84 Bohr mag/cell
     absolute magnetization    =    18.74 Bohr mag/cell

     iteration # 15     ecut=    55.12 Ry     beta= 0.10
     Davidson diagonalization with overlap
     ethr =  3.75E-06,  avg # of iterations =  1.4

     Adding external electric field

     Computed dipole along edir(3) : 
        Dipole                0.0272 Ry au,          0.0691 Debye
        Dipole field          0.0001 Ry au, 

        Potential amp.       -0.0077 Ry
        Total length         44.8269 bohr


     Adding external electric field

     Computed dipole along edir(3) : 
        Dipole                0.0272 Ry au,          0.0691 Debye
        Dipole field          0.0001 Ry au, 

        Potential amp.       -0.0077 Ry
        Total length         44.8269 bohr


     total cpu time spent up to now is     6773.9 secs

     total energy              =   -2365.80737238 Ry
     estimated scf accuracy    <       0.00296510 Ry

     total magnetization       =    11.73 Bohr mag/cell
     absolute magnetization    =    18.63 Bohr mag/cell

     iteration # 16     ecut=    55.12 Ry     beta= 0.10
     Davidson diagonalization with overlap
     ethr =  1.65E-06,  avg # of iterations =  8.5

     Adding external electric field

     Computed dipole along edir(3) : 
        Dipole                0.0226 Ry au,          0.0574 Debye
        Dipole field          0.0001 Ry au, 

        Potential amp.       -0.0064 Ry
        Total length         44.8269 bohr


     Adding external electric field

     Computed dipole along edir(3) : 
        Dipole                0.0226 Ry au,          0.0574 Debye
        Dipole field          0.0001 Ry au, 

        Potential amp.       -0.0064 Ry
        Total length         44.8269 bohr


     total cpu time spent up to now is     7324.3 secs

     total energy              =   -2365.63584757 Ry
     estimated scf accuracy    <       0.00271750 Ry

     total magnetization       =    11.30 Bohr mag/cell
     absolute magnetization    =    18.16 Bohr mag/cell

     iteration # 17     ecut=    55.12 Ry     beta= 0.10
     Davidson diagonalization with overlap
     ethr =  1.51E-06,  avg # of iterations =  1.5

     Adding external electric field

     Computed dipole along edir(3) : 
        Dipole                0.0234 Ry au,          0.0595 Debye
        Dipole field          0.0001 Ry au, 

        Potential amp.       -0.0066 Ry
        Total length         44.8269 bohr


     Adding external electric field

     Computed dipole along edir(3) : 
        Dipole                0.0234 Ry au,          0.0595 Debye
        Dipole field          0.0001 Ry au, 

        Potential amp.       -0.0066 Ry
        Total length         44.8269 bohr


     total cpu time spent up to now is     7723.0 secs

     total energy              =   -2365.55778528 Ry
     estimated scf accuracy    <       0.00143521 Ry

     total magnetization       =    11.31 Bohr mag/cell
     absolute magnetization    =    18.16 Bohr mag/cell

     iteration # 18     ecut=    55.12 Ry     beta= 0.10
     Davidson diagonalization with overlap
     c_bands:  1 eigenvalues not converged
     ethr =  7.97E-07,  avg # of iterations =  2.0

     Adding external electric field

     Computed dipole along edir(3) : 
        Dipole                0.0255 Ry au,          0.0649 Debye
        Dipole field          0.0001 Ry au, 

        Potential amp.       -0.0072 Ry
        Total length         44.8269 bohr


     Adding external electric field

     Computed dipole along edir(3) : 
        Dipole                0.0255 Ry au,          0.0649 Debye
        Dipole field          0.0001 Ry au, 

        Potential amp.       -0.0072 Ry
        Total length         44.8269 bohr


     total cpu time spent up to now is     8129.5 secs

     total energy              =   -2365.56187310 Ry
     estimated scf accuracy    <       0.00130509 Ry

     total magnetization       =    11.18 Bohr mag/cell
     absolute magnetization    =    18.04 Bohr mag/cell

     iteration # 19     ecut=    55.12 Ry     beta= 0.10
     Davidson diagonalization with overlap
     c_bands:  1 eigenvalues not converged
     c_bands:  1 eigenvalues not converged
     ethr =  7.25E-07,  avg # of iterations =  6.7

     Adding external electric field

     Computed dipole along edir(3) : 
        Dipole                0.0265 Ry au,          0.0673 Debye
        Dipole field          0.0001 Ry au, 

        Potential amp.       -0.0075 Ry
        Total length         44.8269 bohr


     Adding external electric field

     Computed dipole along edir(3) : 
        Dipole                0.0265 Ry au,          0.0673 Debye
        Dipole field          0.0001 Ry au, 

        Potential amp.       -0.0075 Ry
        Total length         44.8269 bohr


     total cpu time spent up to now is     8690.1 secs

     total energy              =   -2365.54240109 Ry
     estimated scf accuracy    <       0.00106208 Ry

     total magnetization       =    10.95 Bohr mag/cell
     absolute magnetization    =    17.70 Bohr mag/cell

     iteration # 20     ecut=    55.12 Ry     beta= 0.10
     Davidson diagonalization with overlap
     ethr =  5.90E-07,  avg # of iterations =  6.6

     Adding external electric field

     Computed dipole along edir(3) : 
        Dipole                0.0247 Ry au,          0.0629 Debye
        Dipole field          0.0001 Ry au, 

        Potential amp.       -0.0070 Ry
        Total length         44.8269 bohr


     Adding external electric field

     Computed dipole along edir(3) : 
        Dipole                0.0247 Ry au,          0.0629 Debye
        Dipole field          0.0001 Ry au, 

        Potential amp.       -0.0070 Ry
        Total length         44.8269 bohr


     total cpu time spent up to now is     9227.0 secs

     total energy              =   -2365.47019161 Ry
     estimated scf accuracy    <       0.00111922 Ry

     total magnetization       =    10.81 Bohr mag/cell
     absolute magnetization    =    17.39 Bohr mag/cell

     iteration # 21     ecut=    55.12 Ry     beta= 0.10
     Davidson diagonalization with overlap
     ethr =  5.90E-07,  avg # of iterations =  2.9

     Adding external electric field

     Computed dipole along edir(3) : 
        Dipole                0.0242 Ry au,          0.0615 Debye
        Dipole field          0.0001 Ry au, 

        Potential amp.       -0.0068 Ry
        Total length         44.8269 bohr


     Adding external electric field

     Computed dipole along edir(3) : 
        Dipole                0.0242 Ry au,          0.0615 Debye
        Dipole field          0.0001 Ry au, 

        Potential amp.       -0.0068 Ry
        Total length         44.8269 bohr


     total cpu time spent up to now is     9653.9 secs

     total energy              =   -2365.37093320 Ry
     estimated scf accuracy    <       0.00086662 Ry

     total magnetization       =    10.74 Bohr mag/cell
     absolute magnetization    =    17.26 Bohr mag/cell

     iteration # 22     ecut=    55.12 Ry     beta= 0.10
     Davidson diagonalization with overlap
     ethr =  4.81E-07,  avg # of iterations =  1.8

     Adding external electric field

     Computed dipole along edir(3) : 
        Dipole                0.0241 Ry au,          0.0614 Debye
        Dipole field          0.0001 Ry au, 

        Potential amp.       -0.0068 Ry
        Total length         44.8269 bohr


     Adding external electric field

     Computed dipole along edir(3) : 
        Dipole                0.0241 Ry au,          0.0614 Debye
        Dipole field          0.0001 Ry au, 

        Potential amp.       -0.0068 Ry
        Total length         44.8269 bohr


     total cpu time spent up to now is    10018.1 secs

     total energy              =   -2365.47716789 Ry
     estimated scf accuracy    <       0.00083946 Ry

     total magnetization       =    10.70 Bohr mag/cell
     absolute magnetization    =    17.20 Bohr mag/cell

     iteration # 23     ecut=    55.12 Ry     beta= 0.10
     Davidson diagonalization with overlap
     c_bands:  1 eigenvalues not converged
     c_bands:  1 eigenvalues not converged
     ethr =  4.66E-07,  avg # of iterations =  6.4

     Adding external electric field

     Computed dipole along edir(3) : 
        Dipole                0.0243 Ry au,          0.0616 Debye
        Dipole field          0.0001 Ry au, 

        Potential amp.       -0.0068 Ry
        Total length         44.8269 bohr


     Adding external electric field

     Computed dipole along edir(3) : 
        Dipole                0.0243 Ry au,          0.0616 Debye
        Dipole field          0.0001 Ry au, 

        Potential amp.       -0.0068 Ry
        Total length         44.8269 bohr


     total cpu time spent up to now is    10607.2 secs

     total energy              =   -2365.26730798 Ry
     estimated scf accuracy    <       0.00076424 Ry

     total magnetization       =    10.33 Bohr mag/cell
     absolute magnetization    =    16.73 Bohr mag/cell

     iteration # 24     ecut=    55.12 Ry     beta= 0.10
     Davidson diagonalization with overlap
     ethr =  4.25E-07,  avg # of iterations =  2.1

     Adding external electric field

     Computed dipole along edir(3) : 
        Dipole                0.0227 Ry au,          0.0577 Debye
        Dipole field          0.0001 Ry au, 

        Potential amp.       -0.0064 Ry
        Total length         44.8269 bohr


     Adding external electric field

     Computed dipole along edir(3) : 
        Dipole                0.0227 Ry au,          0.0577 Debye
        Dipole field          0.0001 Ry au, 

        Potential amp.       -0.0064 Ry
        Total length         44.8269 bohr


     total cpu time spent up to now is    11047.6 secs

     total energy              =   -2365.22075948 Ry
     estimated scf accuracy    <       0.00089351 Ry

     total magnetization       =    10.46 Bohr mag/cell
     absolute magnetization    =    16.88 Bohr mag/cell

     iteration # 25     ecut=    55.12 Ry     beta= 0.10
     Davidson diagonalization with overlap
     ethr =  4.25E-07,  avg # of iterations =  1.6

     Adding external electric field

     Computed dipole along edir(3) : 
        Dipole                0.0219 Ry au,          0.0557 Debye
        Dipole field          0.0001 Ry au, 

        Potential amp.       -0.0062 Ry
        Total length         44.8269 bohr


     Adding external electric field

     Computed dipole along edir(3) : 
        Dipole                0.0219 Ry au,          0.0557 Debye
        Dipole field          0.0001 Ry au, 

        Potential amp.       -0.0062 Ry
        Total length         44.8269 bohr


     total cpu time spent up to now is    11438.9 secs

     total energy              =   -2365.23921342 Ry
     estimated scf accuracy    <       0.00067757 Ry

     total magnetization       =    10.37 Bohr mag/cell
     absolute magnetization    =    16.76 Bohr mag/cell

     iteration # 26     ecut=    55.12 Ry     beta= 0.10
     Davidson diagonalization with overlap
     ethr =  3.76E-07,  avg # of iterations =  6.1

     Adding external electric field

     Computed dipole along edir(3) : 
        Dipole                0.0228 Ry au,          0.0581 Debye
        Dipole field          0.0001 Ry au, 

        Potential amp.       -0.0064 Ry
        Total length         44.8269 bohr


     Adding external electric field

     Computed dipole along edir(3) : 
        Dipole                0.0228 Ry au,          0.0581 Debye
        Dipole field          0.0001 Ry au, 

        Potential amp.       -0.0064 Ry
        Total length         44.8269 bohr


     total cpu time spent up to now is    12062.5 secs

     total energy              =   -2365.31695914 Ry
     estimated scf accuracy    <       0.00071064 Ry

     total magnetization       =    10.21 Bohr mag/cell
     absolute magnetization    =    16.49 Bohr mag/cell

     iteration # 27     ecut=    55.12 Ry     beta= 0.10
     Davidson diagonalization with overlap
     ethr =  3.76E-07,  avg # of iterations =  6.2

     Adding external electric field

     Computed dipole along edir(3) : 
        Dipole                0.0260 Ry au,          0.0660 Debye
        Dipole field          0.0001 Ry au, 

        Potential amp.       -0.0073 Ry
        Total length         44.8269 bohr


     Adding external electric field

     Computed dipole along edir(3) : 
        Dipole                0.0260 Ry au,          0.0660 Debye
        Dipole field          0.0001 Ry au, 

        Potential amp.       -0.0073 Ry
        Total length         44.8269 bohr


     total cpu time spent up to now is    12710.9 secs

     total energy              =   -2365.36683428 Ry
     estimated scf accuracy    <       0.00074535 Ry

     total magnetization       =     9.93 Bohr mag/cell
     absolute magnetization    =    16.11 Bohr mag/cell

     iteration # 28     ecut=    55.12 Ry     beta= 0.10
     Davidson diagonalization with overlap
     ethr =  3.76E-07,  avg # of iterations =  5.3

     Adding external electric field

     Computed dipole along edir(3) : 
        Dipole                0.0227 Ry au,          0.0578 Debye
        Dipole field          0.0001 Ry au, 

        Potential amp.       -0.0064 Ry
        Total length         44.8269 bohr


     Adding external electric field

     Computed dipole along edir(3) : 
        Dipole                0.0227 Ry au,          0.0578 Debye
        Dipole field          0.0001 Ry au, 

        Potential amp.       -0.0064 Ry
        Total length         44.8269 bohr


     total cpu time spent up to now is    13233.2 secs

     total energy              =   -2365.20978381 Ry
     estimated scf accuracy    <       0.00091879 Ry

     total magnetization       =     9.69 Bohr mag/cell
     absolute magnetization    =    15.81 Bohr mag/cell

     iteration # 29     ecut=    55.12 Ry     beta= 0.10
     Davidson diagonalization with overlap
     ethr =  3.76E-07,  avg # of iterations =  1.2

     Adding external electric field

     Computed dipole along edir(3) : 
        Dipole                0.0233 Ry au,          0.0591 Debye
        Dipole field          0.0001 Ry au, 

        Potential amp.       -0.0066 Ry
        Total length         44.8269 bohr


     Adding external electric field

     Computed dipole along edir(3) : 
        Dipole                0.0233 Ry au,          0.0591 Debye
        Dipole field          0.0001 Ry au, 

        Potential amp.       -0.0066 Ry
        Total length         44.8269 bohr


     total cpu time spent up to now is    13617.7 secs

     total energy              =   -2365.27574684 Ry
     estimated scf accuracy    <       0.00070153 Ry

     total magnetization       =     9.76 Bohr mag/cell
     absolute magnetization    =    15.86 Bohr mag/cell

     iteration # 30     ecut=    55.12 Ry     beta= 0.10
     Davidson diagonalization with overlap
     ethr =  3.76E-07,  avg # of iterations =  6.5

     Adding external electric field

     Computed dipole along edir(3) : 
        Dipole                0.0235 Ry au,          0.0597 Debye
        Dipole field          0.0001 Ry au, 

        Potential amp.       -0.0066 Ry
        Total length         44.8269 bohr


     Adding external electric field

     Computed dipole along edir(3) : 
        Dipole                0.0235 Ry au,          0.0597 Debye
        Dipole field          0.0001 Ry au, 

        Potential amp.       -0.0066 Ry
        Total length         44.8269 bohr


     total cpu time spent up to now is    14181.0 secs

     total energy              =   -2365.16198267 Ry
     estimated scf accuracy    <       0.00078460 Ry

     total magnetization       =     9.51 Bohr mag/cell
     absolute magnetization    =    15.51 Bohr mag/cell

     iteration # 31     ecut=    55.12 Ry     beta= 0.10
     Davidson diagonalization with overlap
     ethr =  3.76E-07,  avg # of iterations =  1.0

     Adding external electric field

     Computed dipole along edir(3) : 
        Dipole                0.0238 Ry au,          0.0604 Debye
        Dipole field          0.0001 Ry au, 

        Potential amp.       -0.0067 Ry
        Total length         44.8269 bohr


     Adding external electric field

     Computed dipole along edir(3) : 
        Dipole                0.0238 Ry au,          0.0604 Debye
        Dipole field          0.0001 Ry au, 

        Potential amp.       -0.0067 Ry
        Total length         44.8269 bohr


     total cpu time spent up to now is    14579.1 secs

     total energy              =   -2365.08867131 Ry
     estimated scf accuracy    <       0.00090952 Ry

     total magnetization       =     9.54 Bohr mag/cell
     absolute magnetization    =    15.52 Bohr mag/cell

     iteration # 32     ecut=    55.12 Ry     beta= 0.10
     Davidson diagonalization with overlap
     ethr =  3.76E-07,  avg # of iterations =  1.0

     Adding external electric field

     Computed dipole along edir(3) : 
        Dipole                0.0234 Ry au,          0.0595 Debye
        Dipole field          0.0001 Ry au, 

        Potential amp.       -0.0066 Ry
        Total length         44.8269 bohr


     Adding external electric field

     Computed dipole along edir(3) : 
        Dipole                0.0234 Ry au,          0.0595 Debye
        Dipole field          0.0001 Ry au, 

        Potential amp.       -0.0066 Ry
        Total length         44.8269 bohr


     total cpu time spent up to now is    14910.0 secs

     total energy              =   -2364.97723503 Ry
     estimated scf accuracy    <       0.00084719 Ry

     total magnetization       =     9.50 Bohr mag/cell
     absolute magnetization    =    15.49 Bohr mag/cell

     iteration # 33     ecut=    55.12 Ry     beta= 0.10
     Davidson diagonalization with overlap
     ethr =  3.76E-07,  avg # of iterations =  1.0

     Adding external electric field

     Computed dipole along edir(3) : 
        Dipole                0.0237 Ry au,          0.0603 Debye
        Dipole field          0.0001 Ry au, 

        Potential amp.       -0.0067 Ry
        Total length         44.8269 bohr


     Adding external electric field

     Computed dipole along edir(3) : 
        Dipole                0.0237 Ry au,          0.0603 Debye
        Dipole field          0.0001 Ry au, 

        Potential amp.       -0.0067 Ry
        Total length         44.8269 bohr


     total cpu time spent up to now is    15274.5 secs

     total energy              =   -2364.92193192 Ry
     estimated scf accuracy    <       0.00075994 Ry

     total magnetization       =     9.52 Bohr mag/cell
     absolute magnetization    =    15.55 Bohr mag/cell

     iteration # 34     ecut=    55.12 Ry     beta= 0.10
     Davidson diagonalization with overlap
     ethr =  3.76E-07,  avg # of iterations =  1.0

     Adding external electric field

     Computed dipole along edir(3) : 
        Dipole                0.0257 Ry au,          0.0652 Debye
        Dipole field          0.0001 Ry au, 

        Potential amp.       -0.0072 Ry
        Total length         44.8269 bohr


     Adding external electric field

     Computed dipole along edir(3) : 
        Dipole                0.0257 Ry au,          0.0652 Debye
        Dipole field          0.0001 Ry au, 

        Potential amp.       -0.0072 Ry
        Total length         44.8269 bohr


     total cpu time spent up to now is    15654.7 secs

     total energy              =   -2364.68628192 Ry
     estimated scf accuracy    <       0.00072638 Ry

     total magnetization       =     9.49 Bohr mag/cell
     absolute magnetization    =    15.52 Bohr mag/cell

     iteration # 35     ecut=    55.12 Ry     beta= 0.10
     Davidson diagonalization with overlap
     ethr =  3.76E-07,  avg # of iterations =  5.6

     Adding external electric field

     Computed dipole along edir(3) : 
        Dipole                0.0246 Ry au,          0.0626 Debye
        Dipole field          0.0001 Ry au, 

        Potential amp.       -0.0069 Ry
        Total length         44.8269 bohr


     Adding external electric field

     Computed dipole along edir(3) : 
        Dipole                0.0246 Ry au,          0.0626 Debye
        Dipole field          0.0001 Ry au, 

        Potential amp.       -0.0069 Ry
        Total length         44.8269 bohr


     total cpu time spent up to now is    16208.7 secs

     total energy              =   -2364.72427095 Ry
     estimated scf accuracy    <       0.00080000 Ry

     total magnetization       =     9.79 Bohr mag/cell
     absolute magnetization    =    15.91 Bohr mag/cell

     iteration # 36     ecut=    55.12 Ry     beta= 0.10
     Davidson diagonalization with overlap
     ethr =  3.76E-07,  avg # of iterations =  3.0

     Adding external electric field

     Computed dipole along edir(3) : 
        Dipole                0.0225 Ry au,          0.0573 Debye
        Dipole field          0.0001 Ry au, 

        Potential amp.       -0.0063 Ry
        Total length         44.8269 bohr


     Adding external electric field

     Computed dipole along edir(3) : 
        Dipole                0.0225 Ry au,          0.0573 Debye
        Dipole field          0.0001 Ry au, 

        Potential amp.       -0.0063 Ry
        Total length         44.8269 bohr


     total cpu time spent up to now is    16640.8 secs

     total energy              =   -2364.83879156 Ry
     estimated scf accuracy    <       0.00051262 Ry

     total magnetization       =     9.62 Bohr mag/cell
     absolute magnetization    =    15.74 Bohr mag/cell

     iteration # 37     ecut=    55.12 Ry     beta= 0.10
     Davidson diagonalization with overlap
     ethr =  2.85E-07,  avg # of iterations =  6.8

     Adding external electric field

     Computed dipole along edir(3) : 
        Dipole                0.0223 Ry au,          0.0567 Debye
        Dipole field          0.0001 Ry au, 

        Potential amp.       -0.0063 Ry
        Total length         44.8269 bohr


     Adding external electric field

     Computed dipole along edir(3) : 
        Dipole                0.0223 Ry au,          0.0567 Debye
        Dipole field          0.0001 Ry au, 

        Potential amp.       -0.0063 Ry
        Total length         44.8269 bohr


     total cpu time spent up to now is    17291.1 secs

     total energy              =   -2364.66713331 Ry
     estimated scf accuracy    <       0.00083561 Ry

     total magnetization       =     9.39 Bohr mag/cell
     absolute magnetization    =    15.36 Bohr mag/cell

     iteration # 38     ecut=    55.12 Ry     beta= 0.10
     Davidson diagonalization with overlap
     ethr =  2.85E-07,  avg # of iterations =  4.1

     Adding external electric field

     Computed dipole along edir(3) : 
        Dipole                0.0243 Ry au,          0.0617 Debye
        Dipole field          0.0001 Ry au, 

        Potential amp.       -0.0068 Ry
        Total length         44.8269 bohr


     Adding external electric field

     Computed dipole along edir(3) : 
        Dipole                0.0243 Ry au,          0.0617 Debye
        Dipole field          0.0001 Ry au, 

        Potential amp.       -0.0068 Ry
        Total length         44.8269 bohr


     total cpu time spent up to now is    17768.8 secs

     total energy              =   -2364.79754034 Ry
     estimated scf accuracy    <       0.00077044 Ry

     total magnetization       =     9.56 Bohr mag/cell
     absolute magnetization    =    15.57 Bohr mag/cell

     iteration # 39     ecut=    55.12 Ry     beta= 0.10
     Davidson diagonalization with overlap
     ethr =  2.85E-07,  avg # of iterations =  5.8

     Adding external electric field

     Computed dipole along edir(3) : 
        Dipole                0.0251 Ry au,          0.0639 Debye
        Dipole field          0.0001 Ry au, 

        Potential amp.       -0.0071 Ry
        Total length         44.8269 bohr


     Adding external electric field

     Computed dipole along edir(3) : 
        Dipole                0.0251 Ry au,          0.0639 Debye
        Dipole field          0.0001 Ry au, 

        Potential amp.       -0.0071 Ry
        Total length         44.8269 bohr


     total cpu time spent up to now is    18314.5 secs

     total energy              =   -2364.70085410 Ry
     estimated scf accuracy    <       0.00101852 Ry

     total magnetization       =     9.35 Bohr mag/cell
     absolute magnetization    =    15.31 Bohr mag/cell

     iteration # 40     ecut=    55.12 Ry     beta= 0.10
     Davidson diagonalization with overlap
     ethr =  2.85E-07,  avg # of iterations =  1.6

     Adding external electric field

     Computed dipole along edir(3) : 
        Dipole                0.0238 Ry au,          0.0606 Debye
        Dipole field          0.0001 Ry au, 

        Potential amp.       -0.0067 Ry
        Total length         44.8269 bohr


     Adding external electric field

     Computed dipole along edir(3) : 
        Dipole                0.0238 Ry au,          0.0606 Debye
        Dipole field          0.0001 Ry au, 

        Potential amp.       -0.0067 Ry
        Total length         44.8269 bohr


     total cpu time spent up to now is    18701.1 secs

     total energy              =   -2364.72658096 Ry
     estimated scf accuracy    <       0.00086692 Ry

     total magnetization       =     9.39 Bohr mag/cell
     absolute magnetization    =    15.36 Bohr mag/cell

     iteration # 41     ecut=    55.12 Ry     beta= 0.10
     Davidson diagonalization with overlap
     ethr =  2.85E-07,  avg # of iterations =  2.3

     Adding external electric field

     Computed dipole along edir(3) : 
        Dipole                0.0226 Ry au,          0.0574 Debye
        Dipole field          0.0001 Ry au, 

        Potential amp.       -0.0064 Ry
        Total length         44.8269 bohr


     Adding external electric field

     Computed dipole along edir(3) : 
        Dipole                0.0226 Ry au,          0.0574 Debye
        Dipole field          0.0001 Ry au, 

        Potential amp.       -0.0064 Ry
        Total length         44.8269 bohr


     total cpu time spent up to now is    19128.4 secs

     total energy              =   -2364.66586449 Ry
     estimated scf accuracy    <       0.00092357 Ry

     total magnetization       =     9.30 Bohr mag/cell
     absolute magnetization    =    15.21 Bohr mag/cell

     iteration # 42     ecut=    55.12 Ry     beta= 0.10
     Davidson diagonalization with overlap
     ethr =  2.85E-07,  avg # of iterations =  1.0

     Adding external electric field

     Computed dipole along edir(3) : 
        Dipole                0.0237 Ry au,          0.0602 Debye
        Dipole field          0.0001 Ry au, 

        Potential amp.       -0.0067 Ry
        Total length         44.8269 bohr


     Adding external electric field

     Computed dipole along edir(3) : 
        Dipole                0.0237 Ry au,          0.0602 Debye
        Dipole field          0.0001 Ry au, 

        Potential amp.       -0.0067 Ry
        Total length         44.8269 bohr


     total cpu time spent up to now is    19494.2 secs

     total energy              =   -2364.76212207 Ry
     estimated scf accuracy    <       0.00117967 Ry

     total magnetization       =     9.33 Bohr mag/cell
     absolute magnetization    =    15.23 Bohr mag/cell

     iteration # 43     ecut=    55.12 Ry     beta= 0.10
     Davidson diagonalization with overlap
     ethr =  2.85E-07,  avg # of iterations =  6.3

     Adding external electric field

     Computed dipole along edir(3) : 
        Dipole                0.0233 Ry au,          0.0592 Debye
        Dipole field          0.0001 Ry au, 

        Potential amp.       -0.0066 Ry
        Total length         44.8269 bohr


     Adding external electric field

     Computed dipole along edir(3) : 
        Dipole                0.0233 Ry au,          0.0592 Debye
        Dipole field          0.0001 Ry au, 

        Potential amp.       -0.0066 Ry
        Total length         44.8269 bohr


     total cpu time spent up to now is    20047.9 secs

     total energy              =   -2364.45892903 Ry
     estimated scf accuracy    <       0.00108355 Ry

     total magnetization       =     9.11 Bohr mag/cell
     absolute magnetization    =    14.95 Bohr mag/cell

     iteration # 44     ecut=    55.12 Ry     beta= 0.10
     Davidson diagonalization with overlap
     ethr =  2.85E-07,  avg # of iterations =  9.1

     Adding external electric field

     Computed dipole along edir(3) : 
        Dipole                0.0243 Ry au,          0.0619 Debye
        Dipole field          0.0001 Ry au, 

        Potential amp.       -0.0069 Ry
        Total length         44.8269 bohr


     Adding external electric field

     Computed dipole along edir(3) : 
        Dipole                0.0243 Ry au,          0.0619 Debye
        Dipole field          0.0001 Ry au, 

        Potential amp.       -0.0069 Ry
        Total length         44.8269 bohr


     total cpu time spent up to now is    20832.7 secs

     total energy              =   -2364.69685432 Ry
     estimated scf accuracy    <       0.00106532 Ry

     total magnetization       =     9.66 Bohr mag/cell
     absolute magnetization    =    15.66 Bohr mag/cell

     iteration # 45     ecut=    55.12 Ry     beta= 0.10
     Davidson diagonalization with overlap
     ethr =  2.85E-07,  avg # of iterations =  9.2

     Adding external electric field

     Computed dipole along edir(3) : 
        Dipole                0.0236 Ry au,          0.0599 Debye
        Dipole field          0.0001 Ry au, 

        Potential amp.       -0.0066 Ry
        Total length         44.8269 bohr


     Adding external electric field

     Computed dipole along edir(3) : 
        Dipole                0.0236 Ry au,          0.0599 Debye
        Dipole field          0.0001 Ry au, 

        Potential amp.       -0.0066 Ry
        Total length         44.8269 bohr


     total cpu time spent up to now is    21607.9 secs

     total energy              =   -2364.72343628 Ry
     estimated scf accuracy    <       0.00099582 Ry

     total magnetization       =    10.10 Bohr mag/cell
     absolute magnetization    =    16.26 Bohr mag/cell

     iteration # 46     ecut=    55.12 Ry     beta= 0.10
     Davidson diagonalization with overlap
     ethr =  2.85E-07,  avg # of iterations =  2.3

     Adding external electric field

     Computed dipole along edir(3) : 
        Dipole                0.0238 Ry au,          0.0604 Debye
        Dipole field          0.0001 Ry au, 

        Potential amp.       -0.0067 Ry
        Total length         44.8269 bohr


     Adding external electric field

     Computed dipole along edir(3) : 
        Dipole                0.0238 Ry au,          0.0604 Debye
        Dipole field          0.0001 Ry au, 

        Potential amp.       -0.0067 Ry
        Total length         44.8269 bohr


     total cpu time spent up to now is    21872.0 secs

     total energy              =   -2364.62112966 Ry
     estimated scf accuracy    <       0.00108878 Ry

     total magnetization       =    10.17 Bohr mag/cell
     absolute magnetization    =    16.36 Bohr mag/cell

     iteration # 47     ecut=    55.12 Ry     beta= 0.10
     Davidson diagonalization with overlap
     ethr =  2.85E-07,  avg # of iterations =  2.1

     Adding external electric field

     Computed dipole along edir(3) : 
        Dipole                0.0219 Ry au,          0.0556 Debye
        Dipole field          0.0001 Ry au, 

        Potential amp.       -0.0062 Ry
        Total length         44.8269 bohr


     Adding external electric field

     Computed dipole along edir(3) : 
        Dipole                0.0219 Ry au,          0.0556 Debye
        Dipole field          0.0001 Ry au, 

        Potential amp.       -0.0062 Ry
        Total length         44.8269 bohr


     total cpu time spent up to now is    22297.5 secs

     total energy              =   -2364.70829433 Ry
     estimated scf accuracy    <       0.00093577 Ry

     total magnetization       =    10.05 Bohr mag/cell
     absolute magnetization    =    16.22 Bohr mag/cell

     iteration # 48     ecut=    55.12 Ry     beta= 0.10
     Davidson diagonalization with overlap
     c_bands:  1 eigenvalues not converged
     c_bands:  1 eigenvalues not converged
     ethr =  2.85E-07,  avg # of iterations = 11.3

     Adding external electric field

     Computed dipole along edir(3) : 
        Dipole                0.0227 Ry au,          0.0577 Debye
        Dipole field          0.0001 Ry au, 

        Potential amp.       -0.0064 Ry
        Total length         44.8269 bohr


     Adding external electric field

     Computed dipole along edir(3) : 
        Dipole                0.0227 Ry au,          0.0577 Debye
        Dipole field          0.0001 Ry au, 

        Potential amp.       -0.0064 Ry
        Total length         44.8269 bohr


     total cpu time spent up to now is    23248.5 secs

     total energy              =   -2364.72981976 Ry
     estimated scf accuracy    <       0.00107609 Ry

     total magnetization       =     9.14 Bohr mag/cell
     absolute magnetization    =    15.08 Bohr mag/cell

     iteration # 49     ecut=    55.12 Ry     beta= 0.10
     Davidson diagonalization with overlap
     ethr =  2.85E-07,  avg # of iterations =  2.0

     Adding external electric field

     Computed dipole along edir(3) : 
        Dipole                0.0231 Ry au,          0.0588 Debye
        Dipole field          0.0001 Ry au, 

        Potential amp.       -0.0065 Ry
        Total length         44.8269 bohr


     Adding external electric field

     Computed dipole along edir(3) : 
        Dipole                0.0231 Ry au,          0.0588 Debye
        Dipole field          0.0001 Ry au, 

        Potential amp.       -0.0065 Ry
        Total length         44.8269 bohr


     total cpu time spent up to now is    23678.1 secs

     total energy              =   -2364.78255888 Ry
     estimated scf accuracy    <       0.00109427 Ry

     total magnetization       =     9.06 Bohr mag/cell
     absolute magnetization    =    14.97 Bohr mag/cell

     iteration # 50     ecut=    55.12 Ry     beta= 0.10
     Davidson diagonalization with overlap
     ethr =  2.85E-07,  avg # of iterations =  6.3

     Adding external electric field

     Computed dipole along edir(3) : 
        Dipole                0.0227 Ry au,          0.0577 Debye
        Dipole field          0.0001 Ry au, 

        Potential amp.       -0.0064 Ry
        Total length         44.8269 bohr


     Adding external electric field

     Computed dipole along edir(3) : 
        Dipole                0.0227 Ry au,          0.0577 Debye
        Dipole field          0.0001 Ry au, 

        Potential amp.       -0.0064 Ry
        Total length         44.8269 bohr


     total cpu time spent up to now is    24225.1 secs

     total energy              =   -2364.53749721 Ry
     estimated scf accuracy    <       0.00121743 Ry

     total magnetization       =     8.93 Bohr mag/cell
     absolute magnetization    =    14.81 Bohr mag/cell

     iteration # 51     ecut=    55.12 Ry     beta= 0.10
     Davidson diagonalization with overlap
     ethr =  2.85E-07,  avg # of iterations = 10.1

     Adding external electric field

     Computed dipole along edir(3) : 
        Dipole                0.0218 Ry au,          0.0555 Debye
        Dipole field          0.0001 Ry au, 

        Potential amp.       -0.0062 Ry
        Total length         44.8269 bohr


     Adding external electric field

     Computed dipole along edir(3) : 
        Dipole                0.0218 Ry au,          0.0555 Debye
        Dipole field          0.0001 Ry au, 

        Potential amp.       -0.0062 Ry
        Total length         44.8269 bohr


     total cpu time spent up to now is    25086.6 secs

     total energy              =   -2364.49051419 Ry
     estimated scf accuracy    <       0.00083299 Ry

     total magnetization       =     9.59 Bohr mag/cell
     absolute magnetization    =    15.68 Bohr mag/cell

     iteration # 52     ecut=    55.12 Ry     beta= 0.10
     Davidson diagonalization with overlap
     ethr =  2.85E-07,  avg # of iterations =  5.7

     Adding external electric field

     Computed dipole along edir(3) : 
        Dipole                0.0238 Ry au,          0.0605 Debye
        Dipole field          0.0001 Ry au, 

        Potential amp.       -0.0067 Ry
        Total length         44.8269 bohr


     Adding external electric field

     Computed dipole along edir(3) : 
        Dipole                0.0238 Ry au,          0.0605 Debye
        Dipole field          0.0001 Ry au, 

        Potential amp.       -0.0067 Ry
        Total length         44.8269 bohr


     total cpu time spent up to now is    25689.4 secs

     total energy              =   -2364.53480961 Ry
     estimated scf accuracy    <       0.00091448 Ry

     total magnetization       =     9.36 Bohr mag/cell
     absolute magnetization    =    15.34 Bohr mag/cell

     iteration # 53     ecut=    55.12 Ry     beta= 0.10
     Davidson diagonalization with overlap
     ethr =  2.85E-07,  avg # of iterations =  5.6

     Adding external electric field

     Computed dipole along edir(3) : 
        Dipole                0.0232 Ry au,          0.0589 Debye
        Dipole field          0.0001 Ry au, 

        Potential amp.       -0.0065 Ry
        Total length         44.8269 bohr


     Adding external electric field

     Computed dipole along edir(3) : 
        Dipole                0.0232 Ry au,          0.0589 Debye
        Dipole field          0.0001 Ry au, 

        Potential amp.       -0.0065 Ry
        Total length         44.8269 bohr


     total cpu time spent up to now is    26242.0 secs

     total energy              =   -2364.70538941 Ry
     estimated scf accuracy    <       0.00073187 Ry

     total magnetization       =     9.57 Bohr mag/cell
     absolute magnetization    =    15.66 Bohr mag/cell

     iteration # 54     ecut=    55.12 Ry     beta= 0.10
     Davidson diagonalization with overlap
     ethr =  2.85E-07,  avg # of iterations =  5.9

     Adding external electric field

     Computed dipole along edir(3) : 
        Dipole                0.0232 Ry au,          0.0591 Debye
        Dipole field          0.0001 Ry au, 

        Potential amp.       -0.0065 Ry
        Total length         44.8269 bohr


     Adding external electric field

     Computed dipole along edir(3) : 
        Dipole                0.0232 Ry au,          0.0591 Debye
        Dipole field          0.0001 Ry au, 

        Potential amp.       -0.0065 Ry
        Total length         44.8269 bohr


     total cpu time spent up to now is    26877.4 secs

     total energy              =   -2364.74977574 Ry
     estimated scf accuracy    <       0.00095697 Ry

     total magnetization       =     9.88 Bohr mag/cell
     absolute magnetization    =    16.06 Bohr mag/cell

     iteration # 55     ecut=    55.12 Ry     beta= 0.10
     Davidson diagonalization with overlap
     ethr =  2.85E-07,  avg # of iterations =  2.6

     Adding external electric field

     Computed dipole along edir(3) : 
        Dipole                0.0234 Ry au,          0.0596 Debye
        Dipole field          0.0001 Ry au, 

        Potential amp.       -0.0066 Ry
        Total length         44.8269 bohr


     Adding external electric field

     Computed dipole along edir(3) : 
        Dipole                0.0234 Ry au,          0.0596 Debye
        Dipole field          0.0001 Ry au, 

        Potential amp.       -0.0066 Ry
        Total length         44.8269 bohr


     total cpu time spent up to now is    27329.6 secs

     total energy              =   -2364.72878986 Ry
     estimated scf accuracy    <       0.00102164 Ry

     total magnetization       =     9.99 Bohr mag/cell
     absolute magnetization    =    16.18 Bohr mag/cell

     iteration # 56     ecut=    55.12 Ry     beta= 0.10
     Davidson diagonalization with overlap
     ethr =  2.85E-07,  avg # of iterations =  1.1

     Adding external electric field

     Computed dipole along edir(3) : 
        Dipole                0.0237 Ry au,          0.0602 Debye
        Dipole field          0.0001 Ry au, 

        Potential amp.       -0.0067 Ry
        Total length         44.8269 bohr


     Adding external electric field

     Computed dipole along edir(3) : 
        Dipole                0.0237 Ry au,          0.0602 Debye
        Dipole field          0.0001 Ry au, 

        Potential amp.       -0.0067 Ry
        Total length         44.8269 bohr


     total cpu time spent up to now is    27795.1 secs

     total energy              =   -2364.67640692 Ry
     estimated scf accuracy    <       0.00095504 Ry

     total magnetization       =     9.99 Bohr mag/cell
     absolute magnetization    =    16.20 Bohr mag/cell

     iteration # 57     ecut=    55.12 Ry     beta= 0.10
     Davidson diagonalization with overlap
     ethr =  2.85E-07,  avg # of iterations =  1.0

     Adding external electric field

     Computed dipole along edir(3) : 
        Dipole                0.0249 Ry au,          0.0633 Debye
        Dipole field          0.0001 Ry au, 

        Potential amp.       -0.0070 Ry
        Total length         44.8269 bohr


     Adding external electric field

     Computed dipole along edir(3) : 
        Dipole                0.0249 Ry au,          0.0633 Debye
        Dipole field          0.0001 Ry au, 

        Potential amp.       -0.0070 Ry
        Total length         44.8269 bohr


     total cpu time spent up to now is    28305.0 secs

     total energy              =   -2365.10911640 Ry
     estimated scf accuracy    <       0.00082263 Ry

     total magnetization       =     9.94 Bohr mag/cell
     absolute magnetization    =    16.16 Bohr mag/cell

     iteration # 58     ecut=    55.12 Ry     beta= 0.10
     Davidson diagonalization with overlap
     c_bands:  1 eigenvalues not converged
     c_bands:  1 eigenvalues not converged
     ethr =  2.85E-07,  avg # of iterations = 10.6

     Adding external electric field

     Computed dipole along edir(3) : 
        Dipole                0.0242 Ry au,          0.0615 Debye
        Dipole field          0.0001 Ry au, 

        Potential amp.       -0.0068 Ry
        Total length         44.8269 bohr


     Adding external electric field

     Computed dipole along edir(3) : 
        Dipole                0.0242 Ry au,          0.0615 Debye
        Dipole field          0.0001 Ry au, 

        Potential amp.       -0.0068 Ry
        Total length         44.8269 bohr


     total cpu time spent up to now is    29227.6 secs

     total energy              =   -2364.48651292 Ry
     estimated scf accuracy    <       0.00111147 Ry

     total magnetization       =    10.52 Bohr mag/cell
     absolute magnetization    =    16.96 Bohr mag/cell

     iteration # 59     ecut=    55.12 Ry     beta= 0.10
     Davidson diagonalization with overlap
     c_bands:  1 eigenvalues not converged
     c_bands:  1 eigenvalues not converged
     ethr =  2.85E-07,  avg # of iterations = 11.4

     Adding external electric field

     Computed dipole along edir(3) : 
        Dipole                0.0253 Ry au,          0.0644 Debye
        Dipole field          0.0001 Ry au, 

        Potential amp.       -0.0071 Ry
        Total length         44.8269 bohr


     Adding external electric field

     Computed dipole along edir(3) : 
        Dipole                0.0253 Ry au,          0.0644 Debye
        Dipole field          0.0001 Ry au, 

        Potential amp.       -0.0071 Ry
        Total length         44.8269 bohr


     total cpu time spent up to now is    29869.0 secs

     total energy              =   -2364.92403435 Ry
     estimated scf accuracy    <       0.00071466 Ry

     total magnetization       =     9.62 Bohr mag/cell
     absolute magnetization    =    15.75 Bohr mag/cell

     iteration # 60     ecut=    55.12 Ry     beta= 0.10
     Davidson diagonalization with overlap
     c_bands:  1 eigenvalues not converged
     c_bands:  1 eigenvalues not converged
     c_bands:  2 eigenvalues not converged
     c_bands:  1 eigenvalues not converged
     ethr =  2.85E-07,  avg # of iterations = 12.5

     Adding external electric field

     Computed dipole along edir(3) : 
        Dipole                0.0249 Ry au,          0.0633 Debye
        Dipole field          0.0001 Ry au, 

        Potential amp.       -0.0070 Ry
        Total length         44.8269 bohr


     Adding external electric field

     Computed dipole along edir(3) : 
        Dipole                0.0249 Ry au,          0.0633 Debye
        Dipole field          0.0001 Ry au, 

        Potential amp.       -0.0070 Ry
        Total length         44.8269 bohr


     total cpu time spent up to now is    30609.9 secs

     total energy              =   -2364.98581479 Ry
     estimated scf accuracy    <       0.00156204 Ry

     total magnetization       =     8.74 Bohr mag/cell
     absolute magnetization    =    14.57 Bohr mag/cell

     iteration # 61     ecut=    55.12 Ry     beta= 0.10
     Davidson diagonalization with overlap
     ethr =  2.85E-07,  avg # of iterations =  6.5

     Adding external electric field

     Computed dipole along edir(3) : 
        Dipole                0.0253 Ry au,          0.0642 Debye
        Dipole field          0.0001 Ry au, 

        Potential amp.       -0.0071 Ry
        Total length         44.8269 bohr


     Adding external electric field

     Computed dipole along edir(3) : 
        Dipole                0.0253 Ry au,          0.0642 Debye
        Dipole field          0.0001 Ry au, 

        Potential amp.       -0.0071 Ry
        Total length         44.8269 bohr


     total cpu time spent up to now is    31185.5 secs

     total energy              =   -2365.04867646 Ry
     estimated scf accuracy    <       0.00187164 Ry

     total magnetization       =     8.56 Bohr mag/cell
     absolute magnetization    =    14.37 Bohr mag/cell

     iteration # 62     ecut=    55.12 Ry     beta= 0.10
     Davidson diagonalization with overlap
     ethr =  2.85E-07,  avg # of iterations =  6.1

     Adding external electric field

     Computed dipole along edir(3) : 
        Dipole                0.0243 Ry au,          0.0618 Debye
        Dipole field          0.0001 Ry au, 

        Potential amp.       -0.0068 Ry
        Total length         44.8269 bohr


     Adding external electric field

     Computed dipole along edir(3) : 
        Dipole                0.0243 Ry au,          0.0618 Debye
        Dipole field          0.0001 Ry au, 

        Potential amp.       -0.0068 Ry
        Total length         44.8269 bohr


     total cpu time spent up to now is    31893.0 secs

     total energy              =   -2364.58739464 Ry
     estimated scf accuracy    <       0.00355157 Ry

     total magnetization       =     8.40 Bohr mag/cell
     absolute magnetization    =    14.17 Bohr mag/cell

     iteration # 63     ecut=    55.12 Ry     beta= 0.10
     Davidson diagonalization with overlap
     ethr =  2.85E-07,  avg # of iterations =  9.3

     Adding external electric field

     Computed dipole along edir(3) : 
        Dipole                0.0241 Ry au,          0.0611 Debye
        Dipole field          0.0001 Ry au, 

        Potential amp.       -0.0068 Ry
        Total length         44.8269 bohr


     Adding external electric field

     Computed dipole along edir(3) : 
        Dipole                0.0241 Ry au,          0.0611 Debye
        Dipole field          0.0001 Ry au, 

        Potential amp.       -0.0068 Ry
        Total length         44.8269 bohr


     total cpu time spent up to now is    32742.5 secs

     total energy              =   -2364.60877642 Ry
     estimated scf accuracy    <       0.00189171 Ry

     total magnetization       =     8.99 Bohr mag/cell
     absolute magnetization    =    14.83 Bohr mag/cell

     iteration # 64     ecut=    55.12 Ry     beta= 0.10
     Davidson diagonalization with overlap
     ethr =  2.85E-07,  avg # of iterations =  1.5

     Adding external electric field

     Computed dipole along edir(3) : 
        Dipole                0.0238 Ry au,          0.0604 Debye
        Dipole field          0.0001 Ry au, 

        Potential amp.       -0.0067 Ry
        Total length         44.8269 bohr


     Adding external electric field

     Computed dipole along edir(3) : 
        Dipole                0.0238 Ry au,          0.0604 Debye
        Dipole field          0.0001 Ry au, 

        Potential amp.       -0.0067 Ry
        Total length         44.8269 bohr


     total cpu time spent up to now is    33123.8 secs

     total energy              =   -2364.85878118 Ry
     estimated scf accuracy    <       0.00185861 Ry

     total magnetization       =     8.91 Bohr mag/cell
     absolute magnetization    =    14.75 Bohr mag/cell

     iteration # 65     ecut=    55.12 Ry     beta= 0.10
     Davidson diagonalization with overlap
     ethr =  2.85E-07,  avg # of iterations =  8.6

     Adding external electric field

     Computed dipole along edir(3) : 
        Dipole                0.0239 Ry au,          0.0607 Debye
        Dipole field          0.0001 Ry au, 

        Potential amp.       -0.0067 Ry
        Total length         44.8269 bohr


     Adding external electric field

     Computed dipole along edir(3) : 
        Dipole                0.0239 Ry au,          0.0607 Debye
        Dipole field          0.0001 Ry au, 

        Potential amp.       -0.0067 Ry
        Total length         44.8269 bohr


     total cpu time spent up to now is    33872.6 secs

     total energy              =   -2364.76375739 Ry
     estimated scf accuracy    <       0.00356149 Ry

     total magnetization       =     8.50 Bohr mag/cell
     absolute magnetization    =    14.25 Bohr mag/cell

     iteration # 66     ecut=    55.12 Ry     beta= 0.10
     Davidson diagonalization with overlap
     ethr =  2.85E-07,  avg # of iterations =  1.0

     Adding external electric field

     Computed dipole along edir(3) : 
        Dipole                0.0240 Ry au,          0.0610 Debye
        Dipole field          0.0001 Ry au, 

        Potential amp.       -0.0068 Ry
        Total length         44.8269 bohr


     Adding external electric field

     Computed dipole along edir(3) : 
        Dipole                0.0240 Ry au,          0.0610 Debye
        Dipole field          0.0001 Ry au, 

        Potential amp.       -0.0068 Ry
        Total length         44.8269 bohr


     total cpu time spent up to now is    34251.3 secs

     total energy              =   -2364.58248207 Ry
     estimated scf accuracy    <       0.00343477 Ry

     total magnetization       =     8.56 Bohr mag/cell
     absolute magnetization    =    14.30 Bohr mag/cell

     iteration # 67     ecut=    55.12 Ry     beta= 0.10
     Davidson diagonalization with overlap
     ethr =  2.85E-07,  avg # of iterations =  5.8

     Adding external electric field

     Computed dipole along edir(3) : 
        Dipole                0.0239 Ry au,          0.0607 Debye
        Dipole field          0.0001 Ry au, 

        Potential amp.       -0.0067 Ry
        Total length         44.8269 bohr


     Adding external electric field

     Computed dipole along edir(3) : 
        Dipole                0.0239 Ry au,          0.0607 Debye
        Dipole field          0.0001 Ry au, 

        Potential amp.       -0.0067 Ry
        Total length         44.8269 bohr


     total cpu time spent up to now is    34822.7 secs

[...]
     c_bands:  1 eigenvalues not converged
     c_bands:  2 eigenvalues not converged
     c_bands:  1 eigenvalues not converged
     c_bands:  1 eigenvalues not converged
     ethr =  2.85E-07,  avg # of iterations = 19.7

     Adding external electric field

     Computed dipole along edir(3) : 
        Dipole                0.0244 Ry au,          0.0619 Debye
        Dipole field          0.0001 Ry au, 

        Potential amp.       -0.0069 Ry
        Total length         44.8269 bohr


     Adding external electric field

     Computed dipole along edir(3) : 
        Dipole                0.0244 Ry au,          0.0619 Debye
        Dipole field          0.0001 Ry au, 

        Potential amp.       -0.0069 Ry
        Total length         44.8269 bohr


     total cpu time spent up to now is    65602.1 secs

     total energy              =   -2365.18930821 Ry
     estimated scf accuracy    <       0.00104838 Ry

     total magnetization       =     8.96 Bohr mag/cell
     absolute magnetization    =    14.81 Bohr mag/cell

     iteration #104     ecut=    55.12 Ry     beta= 0.10
     Davidson diagonalization with overlap
     c_bands:  1 eigenvalues not converged
     c_bands:  1 eigenvalues not converged
     c_bands:  1 eigenvalues not converged
     c_bands:  1 eigenvalues not converged
     c_bands:  1 eigenvalues not converged
     ethr =  2.85E-07,  avg # of iterations =  9.9

     Adding external electric field

     Computed dipole along edir(3) : 
        Dipole                0.0245 Ry au,          0.0622 Debye
        Dipole field          0.0001 Ry au, 

        Potential amp.       -0.0069 Ry
        Total length         44.8269 bohr


     Adding external electric field

     Computed dipole along edir(3) : 
        Dipole                0.0245 Ry au,          0.0622 Debye
        Dipole field          0.0001 Ry au, 

        Potential amp.       -0.0069 Ry
        Total length         44.8269 bohr


     total cpu time spent up to now is    66384.6 secs

     total energy              =   -2365.43651187 Ry
     estimated scf accuracy    <       0.00067387 Ry

     total magnetization       =     9.35 Bohr mag/cell
     absolute magnetization    =    15.33 Bohr mag/cell

     iteration #105     ecut=    55.12 Ry     beta= 0.10
     Davidson diagonalization with overlap
     c_bands:  1 eigenvalues not converged
     c_bands:  1 eigenvalues not converged
     c_bands:  1 eigenvalues not converged
     c_bands:  1 eigenvalues not converged
     c_bands:  1 eigenvalues not converged
     ethr =  2.85E-07,  avg # of iterations = 10.3

     Adding external electric field

     Computed dipole along edir(3) : 
        Dipole                0.0249 Ry au,          0.0632 Debye
        Dipole field          0.0001 Ry au, 

        Potential amp.       -0.0070 Ry
        Total length         44.8269 bohr


     Adding external electric field

     Computed dipole along edir(3) : 
        Dipole                0.0249 Ry au,          0.0632 Debye
        Dipole field          0.0001 Ry au, 

        Potential amp.       -0.0070 Ry
        Total length         44.8269 bohr


     total cpu time spent up to now is    67205.1 secs

     total energy              =   -2365.40805190 Ry
     estimated scf accuracy    <       0.00052762 Ry

     total magnetization       =     9.80 Bohr mag/cell
     absolute magnetization    =    15.94 Bohr mag/cell

     iteration #106     ecut=    55.12 Ry     beta= 0.10
     Davidson diagonalization with overlap
     c_bands:  1 eigenvalues not converged
     ethr =  2.85E-07,  avg # of iterations =  2.6

     Adding external electric field

     Computed dipole along edir(3) : 
        Dipole                0.0249 Ry au,          0.0632 Debye
        Dipole field          0.0001 Ry au, 

        Potential amp.       -0.0070 Ry
        Total length         44.8269 bohr


     Adding external electric field

     Computed dipole along edir(3) : 
        Dipole                0.0249 Ry au,          0.0632 Debye
        Dipole field          0.0001 Ry au, 

        Potential amp.       -0.0070 Ry
        Total length         44.8269 bohr


     total cpu time spent up to now is    67585.9 secs

     total energy              =   -2365.30196437 Ry
     estimated scf accuracy    <       0.00061378 Ry

     total magnetization       =     9.89 Bohr mag/cell
     absolute magnetization    =    16.06 Bohr mag/cell

     iteration #107     ecut=    55.12 Ry     beta= 0.10
     Davidson diagonalization with overlap
     ethr =  2.85E-07,  avg # of iterations =  1.0

     Adding external electric field

     Computed dipole along edir(3) : 
        Dipole                0.0248 Ry au,          0.0630 Debye
        Dipole field          0.0001 Ry au, 

        Potential amp.       -0.0070 Ry
        Total length         44.8269 bohr


     Adding external electric field

     Computed dipole along edir(3) : 
        Dipole                0.0248 Ry au,          0.0630 Debye
        Dipole field          0.0001 Ry au, 

        Potential amp.       -0.0070 Ry
        Total length         44.8269 bohr


     total cpu time spent up to now is    67947.6 secs

     total energy              =   -2365.59864332 Ry
     estimated scf accuracy    <       0.00062893 Ry

     total magnetization       =     9.87 Bohr mag/cell
     absolute magnetization    =    16.03 Bohr mag/cell

     iteration #108     ecut=    55.12 Ry     beta= 0.10
     Davidson diagonalization with overlap
     ethr =  2.85E-07,  avg # of iterations = 10.7

     Adding external electric field

     Computed dipole along edir(3) : 
        Dipole                0.0235 Ry au,          0.0598 Debye
        Dipole field          0.0001 Ry au, 

        Potential amp.       -0.0066 Ry
        Total length         44.8269 bohr


     Adding external electric field

     Computed dipole along edir(3) : 
        Dipole                0.0235 Ry au,          0.0598 Debye
        Dipole field          0.0001 Ry au, 

        Potential amp.       -0.0066 Ry
        Total length         44.8269 bohr


     total cpu time spent up to now is    68853.3 secs

     total energy              =   -2364.65421518 Ry
     estimated scf accuracy    <       0.00086564 Ry

     total magnetization       =    10.37 Bohr mag/cell
     absolute magnetization    =    16.69 Bohr mag/cell

     iteration #109     ecut=    55.12 Ry     beta= 0.10
     Davidson diagonalization with overlap
     c_bands:  1 eigenvalues not converged
     c_bands:  1 eigenvalues not converged
     c_bands:  1 eigenvalues not converged
     c_bands:  1 eigenvalues not converged
     c_bands:  1 eigenvalues not converged
     c_bands:  1 eigenvalues not converged
     ethr =  2.85E-07,  avg # of iterations = 13.3

     Adding external electric field

     Computed dipole along edir(3) : 
        Dipole                0.0237 Ry au,          0.0602 Debye
        Dipole field          0.0001 Ry au, 

        Potential amp.       -0.0067 Ry
        Total length         44.8269 bohr


     Adding external electric field

     Computed dipole along edir(3) : 
        Dipole                0.0237 Ry au,          0.0602 Debye
        Dipole field          0.0001 Ry au, 

        Potential amp.       -0.0067 Ry
        Total length         44.8269 bohr


     total cpu time spent up to now is    70000.6 secs

     total energy              =   -2364.52117260 Ry
     estimated scf accuracy    <       0.00076799 Ry

     total magnetization       =     9.24 Bohr mag/cell
     absolute magnetization    =    15.19 Bohr mag/cell

     iteration #110     ecut=    55.12 Ry     beta= 0.10
     Davidson diagonalization with overlap
     c_bands:  2 eigenvalues not converged
     ethr =  2.85E-07,  avg # of iterations =  6.4

     Adding external electric field

     Computed dipole along edir(3) : 
        Dipole                0.0239 Ry au,          0.0607 Debye
        Dipole field          0.0001 Ry au, 

        Potential amp.       -0.0067 Ry
        Total length         44.8269 bohr


     Adding external electric field

     Computed dipole along edir(3) : 
        Dipole                0.0239 Ry au,          0.0607 Debye
        Dipole field          0.0001 Ry au, 

        Potential amp.       -0.0067 Ry
        Total length         44.8269 bohr


     total cpu time spent up to now is    70536.5 secs

     total energy              =   -2364.50552160 Ry
     estimated scf accuracy    <       0.00097852 Ry

     total magnetization       =     8.96 Bohr mag/cell
     absolute magnetization    =    14.82 Bohr mag/cell

     iteration #111     ecut=    55.12 Ry     beta= 0.10
     Davidson diagonalization with overlap
     ethr =  2.85E-07,  avg # of iterations =  3.1

     Adding external electric field

     Computed dipole along edir(3) : 
        Dipole                0.0242 Ry au,          0.0616 Debye
        Dipole field          0.0001 Ry au, 

        Potential amp.       -0.0068 Ry
        Total length         44.8269 bohr


     Adding external electric field

     Computed dipole along edir(3) : 
        Dipole                0.0242 Ry au,          0.0616 Debye
        Dipole field          0.0001 Ry au, 

        Potential amp.       -0.0068 Ry
        Total length         44.8269 bohr


     total cpu time spent up to now is    70954.9 secs

     total energy              =   -2364.50310790 Ry
     estimated scf accuracy    <       0.00113292 Ry

     total magnetization       =     8.84 Bohr mag/cell
     absolute magnetization    =    14.67 Bohr mag/cell

     iteration #112     ecut=    55.12 Ry     beta= 0.10
     Davidson diagonalization with overlap
     ethr =  2.85E-07,  avg # of iterations =  2.9

     Adding external electric field

     Computed dipole along edir(3) : 
        Dipole                0.0234 Ry au,          0.0594 Debye
        Dipole field          0.0001 Ry au, 

        Potential amp.       -0.0066 Ry
        Total length         44.8269 bohr


     Adding external electric field

     Computed dipole along edir(3) : 
        Dipole                0.0234 Ry au,          0.0594 Debye
        Dipole field          0.0001 Ry au, 

        Potential amp.       -0.0066 Ry
        Total length         44.8269 bohr


     total cpu time spent up to now is    71348.2 secs

     total energy              =   -2364.54872967 Ry
     estimated scf accuracy    <       0.00094402 Ry

     total magnetization       =     8.82 Bohr mag/cell
     absolute magnetization    =    14.63 Bohr mag/cell

     iteration #113     ecut=    55.12 Ry     beta= 0.10
     Davidson diagonalization with overlap
     ethr =  2.85E-07,  avg # of iterations =  6.3

     Adding external electric field

     Computed dipole along edir(3) : 
        Dipole                0.0234 Ry au,          0.0594 Debye
        Dipole field          0.0001 Ry au, 

        Potential amp.       -0.0066 Ry
        Total length         44.8269 bohr


     Adding external electric field

     Computed dipole along edir(3) : 
        Dipole                0.0234 Ry au,          0.0594 Debye
        Dipole field          0.0001 Ry au, 

        Potential amp.       -0.0066 Ry
        Total length         44.8269 bohr


     total cpu time spent up to now is    71935.6 secs

     total energy              =   -2364.72851495 Ry
     estimated scf accuracy    <       0.00145972 Ry

     total magnetization       =     8.63 Bohr mag/cell
     absolute magnetization    =    14.43 Bohr mag/cell

     iteration #114     ecut=    55.12 Ry     beta= 0.10
     Davidson diagonalization with overlap
     ethr =  2.85E-07,  avg # of iterations = 10.1

     Adding external electric field

     Computed dipole along edir(3) : 
        Dipole                0.0233 Ry au,          0.0591 Debye
        Dipole field          0.0001 Ry au, 

        Potential amp.       -0.0066 Ry
        Total length         44.8269 bohr


     Adding external electric field

     Computed dipole along edir(3) : 
        Dipole                0.0233 Ry au,          0.0591 Debye
        Dipole field          0.0001 Ry au, 

        Potential amp.       -0.0066 Ry
        Total length         44.8269 bohr


     total cpu time spent up to now is    72748.0 secs

     total energy              =   -2364.70878647 Ry
     estimated scf accuracy    <       0.00141274 Ry

     total magnetization       =     9.26 Bohr mag/cell
     absolute magnetization    =    15.22 Bohr mag/cell

     iteration #115     ecut=    55.12 Ry     beta= 0.10
     Davidson diagonalization with overlap
     ethr =  2.85E-07,  avg # of iterations =  1.1

     Adding external electric field

     Computed dipole along edir(3) : 
        Dipole                0.0239 Ry au,          0.0607 Debye
        Dipole field          0.0001 Ry au, 

        Potential amp.       -0.0067 Ry
        Total length         44.8269 bohr


     Adding external electric field

     Computed dipole along edir(3) : 
        Dipole                0.0239 Ry au,          0.0607 Debye
        Dipole field          0.0001 Ry au, 

        Potential amp.       -0.0067 Ry
        Total length         44.8269 bohr


     total cpu time spent up to now is    73096.3 secs

     total energy              =   -2365.15128565 Ry
     estimated scf accuracy    <       0.00163175 Ry

     total magnetization       =     9.28 Bohr mag/cell
     absolute magnetization    =    15.22 Bohr mag/cell

     iteration #116     ecut=    55.12 Ry     beta= 0.10
     Davidson diagonalization with overlap
     ethr =  2.85E-07,  avg # of iterations = 10.8

     Adding external electric field

     Computed dipole along edir(3) : 
        Dipole                0.0245 Ry au,          0.0624 Debye
        Dipole field          0.0001 Ry au, 

        Potential amp.       -0.0069 Ry
        Total length         44.8269 bohr


     Adding external electric field

     Computed dipole along edir(3) : 
        Dipole                0.0245 Ry au,          0.0624 Debye
        Dipole field          0.0001 Ry au, 

        Potential amp.       -0.0069 Ry
        Total length         44.8269 bohr


     total cpu time spent up to now is    74252.8 secs

     total energy              =   -2365.65438863 Ry
     estimated scf accuracy    <       0.00171794 Ry

     total magnetization       =     9.98 Bohr mag/cell
     absolute magnetization    =    16.14 Bohr mag/cell

     iteration #117     ecut=    55.12 Ry     beta= 0.10
     Davidson diagonalization with overlap
     c_bands:  1 eigenvalues not converged
     c_bands:  1 eigenvalues not converged
     c_bands:  1 eigenvalues not converged
     c_bands:  1 eigenvalues not converged
     c_bands:  1 eigenvalues not converged
     c_bands:  1 eigenvalues not converged
     c_bands:  1 eigenvalues not converged
     ethr =  2.85E-07,  avg # of iterations = 13.1

     Adding external electric field

     Computed dipole along edir(3) : 
        Dipole                0.0244 Ry au,          0.0620 Debye
        Dipole field          0.0001 Ry au, 

        Potential amp.       -0.0069 Ry
        Total length         44.8269 bohr


     Adding external electric field

     Computed dipole along edir(3) : 
        Dipole                0.0244 Ry au,          0.0620 Debye
        Dipole field          0.0001 Ry au, 

        Potential amp.       -0.0069 Ry
        Total length         44.8269 bohr


     total cpu time spent up to now is    75215.1 secs

     total energy              =   -2365.38077732 Ry
     estimated scf accuracy    <       0.00311881 Ry

     total magnetization       =    10.76 Bohr mag/cell
     absolute magnetization    =    17.15 Bohr mag/cell

     iteration #118     ecut=    55.12 Ry     beta= 0.10
     Davidson diagonalization with overlap
     ethr =  2.85E-07,  avg # of iterations =  5.8

     Adding external electric field

     Computed dipole along edir(3) : 
        Dipole                0.0234 Ry au,          0.0594 Debye
        Dipole field          0.0001 Ry au, 

        Potential amp.       -0.0066 Ry
        Total length         44.8269 bohr


     Adding external electric field

     Computed dipole along edir(3) : 
        Dipole                0.0234 Ry au,          0.0594 Debye
        Dipole field          0.0001 Ry au, 

        Potential amp.       -0.0066 Ry
        Total length         44.8269 bohr


     total cpu time spent up to now is    75739.0 secs

     total energy              =   -2364.47194771 Ry
     estimated scf accuracy    <       0.00242473 Ry

     total magnetization       =    10.54 Bohr mag/cell
     absolute magnetization    =    16.88 Bohr mag/cell

     iteration #119     ecut=    55.12 Ry     beta= 0.10
     Davidson diagonalization with overlap
     c_bands:  1 eigenvalues not converged
     c_bands:  1 eigenvalues not converged
     c_bands:  1 eigenvalues not converged
     c_bands:  1 eigenvalues not converged
     c_bands:  1 eigenvalues not converged
     c_bands:  1 eigenvalues not converged
     ethr =  2.85E-07,  avg # of iterations = 13.5

     Adding external electric field

     Computed dipole along edir(3) : 
        Dipole                0.0232 Ry au,          0.0590 Debye
        Dipole field          0.0001 Ry au, 

        Potential amp.       -0.0065 Ry
        Total length         44.8269 bohr


     Adding external electric field

     Computed dipole along edir(3) : 
        Dipole                0.0232 Ry au,          0.0590 Debye
        Dipole field          0.0001 Ry au, 

        Potential amp.       -0.0065 Ry
        Total length         44.8269 bohr


     total cpu time spent up to now is    76845.8 secs

     total energy              =   -2364.61064348 Ry
     estimated scf accuracy    <       0.00131870 Ry

     total magnetization       =     9.30 Bohr mag/cell
     absolute magnetization    =    15.24 Bohr mag/cell

     iteration #120     ecut=    55.12 Ry     beta= 0.10
     Davidson diagonalization with overlap
     ethr =  2.85E-07,  avg # of iterations =  8.6

     Adding external electric field

     Computed dipole along edir(3) : 
        Dipole                0.0226 Ry au,          0.0576 Debye
        Dipole field          0.0001 Ry au, 

        Potential amp.       -0.0064 Ry
        Total length         44.8269 bohr


     Adding external electric field

     Computed dipole along edir(3) : 
        Dipole                0.0226 Ry au,          0.0576 Debye
        Dipole field          0.0001 Ry au, 

        Potential amp.       -0.0064 Ry
        Total length         44.8269 bohr


     total cpu time spent up to now is    77537.0 secs

     total energy              =   -2364.73169840 Ry
     estimated scf accuracy    <       0.00173305 Ry

     total magnetization       =     8.89 Bohr mag/cell
     absolute magnetization    =    14.71 Bohr mag/cell

     iteration #121     ecut=    55.12 Ry     beta= 0.10
     Davidson diagonalization with overlap
     ethr =  2.85E-07,  avg # of iterations =  6.7

     Adding external electric field

     Computed dipole along edir(3) : 
        Dipole                0.0223 Ry au,          0.0567 Debye
        Dipole field          0.0001 Ry au, 

        Potential amp.       -0.0063 Ry
        Total length         44.8269 bohr


     Adding external electric field

     Computed dipole along edir(3) : 
        Dipole                0.0223 Ry au,          0.0567 Debye
        Dipole field          0.0001 Ry au, 

        Potential amp.       -0.0063 Ry
        Total length         44.8269 bohr


     total cpu time spent up to now is    78103.7 secs

     total energy              =   -2365.11374277 Ry
     estimated scf accuracy    <       0.00237555 Ry

     total magnetization       =     8.66 Bohr mag/cell
     absolute magnetization    =    14.42 Bohr mag/cell

     iteration #122     ecut=    55.12 Ry     beta= 0.10
     Davidson diagonalization with overlap
     c_bands:  1 eigenvalues not converged
