
     Program PWSCF v.6.6 starts on 10Jul2022 at 13:57:19 

     This program is part of the open-source Quantum ESPRESSO suite
     for quantum simulation of materials; please cite
         "P. Giannozzi et al., J. Phys.:Condens. Matter 21 395502 (2009);
         "P. Giannozzi et al., J. Phys.:Condens. Matter 29 465901 (2017);
          URL http://www.quantum-espresso.org", 
     in publications or presentations arising from this work. More details at
     http://www.quantum-espresso.org/quote

     Parallel version (MPI), running on    37 processors

     MPI processes distributed on     1 nodes
     R & G space division:  proc/nbgrp/npool/nimage =      37
     Fft bands division:     nmany     =       1
     Reading input from Mo2Ag2.in
Warning: card &CELL ignored
Warning: card / ignored

     Current dimensions of program PWSCF are:
     Max number of different atomic species (ntypx) = 10
     Max number of k-points (npk) =  40000
     Max angular momentum in pseudopotentials (lmaxx) =  3
     Presently stress not available with electric field and gates

     Message from routine cell_base_init:
     DEPRECATED: use true lattice parameter, not A to a.u. conversion factor
     file Mo.pbe-spn-rrkjus_psl.1.0.0.UPF: wavefunction(s)  4S renormalized

     **************************************************************************
     Initializing libbeef V0.1.2 with the BEEF-vdW functional.
     Citation: Wellendorff et al., PRB 85, 235149 (2012).
     **************************************************************************


     IMPORTANT: XC functional enforced from input :
     Exchange-correlation= BEEF-VDW
                           (   1   4  43  14   2   0   0)
     Any further DFT definition will be discarded
     Please, verify this is what you really want


     Subspace diagonalization in iterative solution of the eigenvalue problem:
     a serial algorithm will be used


     Parallelization info
     --------------------
     sticks:   dense  smooth     PW     G-vecs:    dense   smooth      PW
     Min         121      48     14                28271     7146    1106
     Max         122      49     15                28290     7163    1120
     Sum        4511    1797    525              1046567   264705   41227



     bravais-lattice index     =            0
     lattice parameter (alat)  =       1.8897  a.u.
     unit-cell volume          =    4788.5588 (a.u.)^3
     number of atoms/cell      =           12
     number of atomic types    =            2
     number of electrons       =       150.00
     number of Kohn-Sham states=           90
     kinetic-energy cutoff     =      55.1240  Ry
     charge density cutoff     =     551.2396  Ry
     convergence threshold     =      1.0E-05
     mixing beta               =       0.1000
     number of iterations used =           10  plain     mixing
     Exchange-correlation= BEEF-VDW
                           (   1   4  43  14   2   0   0)

     celldm(1)=   1.889726  celldm(2)=   0.000000  celldm(3)=   0.000000
     celldm(4)=   0.000000  celldm(5)=   0.000000  celldm(6)=   0.000000

     crystal axes: (cart. coord. in units of alat)
               a(1) = (   5.363906   0.000000   0.000000 )  
               a(2) = (  -2.681953   5.367536   0.000000 )  
               a(3) = (   0.000000   0.000000  24.646326 )  

     reciprocal axes: (cart. coord. in units 2 pi/alat)
               b(1) = (  0.186431  0.093153 -0.000000 )  
               b(2) = (  0.000000  0.186305  0.000000 )  
               b(3) = (  0.000000 -0.000000  0.040574 )  


     PseudoPot. # 1 for Mo read from file:
     ../pseudo/Mo.pbe-spn-rrkjus_psl.1.0.0.UPF
     MD5 check sum: 03f09b12e49601d1a456a78ce8b2d514
     Pseudo is Ultrasoft + core correction, Zval = 14.0
     Generated using "atomic" code by A. Dal Corso v.6.3
     Using radial grid of 1229 points,  6 beta functions with: 
                l(1) =   0
                l(2) =   0
                l(3) =   1
                l(4) =   1
                l(5) =   2
                l(6) =   2
     Q(r) pseudized with 0 coefficients 


     PseudoPot. # 2 for Ag read from file:
     ../pseudo/Ag.pbe-n-rrkjus_psl.1.0.0.UPF
     MD5 check sum: d841cbfac2b0861aec33b46768a516bf
     Pseudo is Ultrasoft + core correction, Zval = 11.0
     Generated using "atomic" code by A. Dal Corso v.6.2.2
     Using radial grid of 1237 points,  6 beta functions with: 
                l(1) =   0
                l(2) =   0
                l(3) =   1
                l(4) =   1
                l(5) =   2
                l(6) =   2
     Q(r) pseudized with 0 coefficients 


     atomic species   valence    mass     pseudopotential
        Mo            14.00    95.95000     Mo( 1.00)
        Ag            11.00   107.86820     Ag( 1.00)

     No symmetry found



   Cartesian axes

     site n.     atom                  positions (alat units)
         1           Mo  tau(   1) = (   0.0000000   0.0000000  10.0000000  )
         2           Mo  tau(   2) = (   2.6819529   0.0000000  10.0000000  )
         3           Ag  tau(   3) = (   1.3409764   2.6837681  10.0000000  )
         4           Ag  tau(   4) = (  -1.3409764   2.6837681  10.0000000  )
         5           Mo  tau(   5) = (   2.6819529   1.3400694  12.3231628  )
         6           Mo  tau(   6) = (  -0.0000000   1.3400694  12.3231628  )
         7           Ag  tau(   7) = (  -1.3409764   4.0238376  12.3231628  )
         8           Ag  tau(   8) = (   1.3409764   4.0238376  12.3231628  )
         9           Mo  tau(   9) = (   0.0002767   2.4822058  14.4595903  )
        10           Mo  tau(  10) = (   2.6821701   2.4817775  14.4595566  )
        11           Ag  tau(  11) = (   1.3398488   5.2421863  14.8672207  )
        12           Ag  tau(  12) = (  -1.3386730   5.2421750  14.8672220  )

     number of k points=    74  Fermi-Dirac smearing, width (Ry)=  0.0100
                       cart. coord. in units 2pi/alat
        k(    1) = (   0.0000000   0.0000000   0.0000000), wk =   0.0138889
        k(    2) = (   0.0000000   0.0155254   0.0000000), wk =   0.0277778
        k(    3) = (   0.0000000   0.0310509   0.0000000), wk =   0.0277778
        k(    4) = (   0.0000000   0.0465763   0.0000000), wk =   0.0277778
        k(    5) = (   0.0000000   0.0621017   0.0000000), wk =   0.0277778
        k(    6) = (   0.0000000   0.0776272   0.0000000), wk =   0.0277778
        k(    7) = (   0.0000000  -0.0931526   0.0000000), wk =   0.0138889
        k(    8) = (   0.0155359   0.0077627   0.0000000), wk =   0.0277778
        k(    9) = (   0.0155359   0.0232882   0.0000000), wk =   0.0277778
        k(   10) = (   0.0155359   0.0388136   0.0000000), wk =   0.0277778
        k(   11) = (   0.0155359   0.0543390   0.0000000), wk =   0.0277778
        k(   12) = (   0.0155359   0.0698645   0.0000000), wk =   0.0277778
        k(   13) = (   0.0155359   0.0853899   0.0000000), wk =   0.0277778
        k(   14) = (   0.0155359  -0.0853899   0.0000000), wk =   0.0277778
        k(   15) = (   0.0155359  -0.0698645   0.0000000), wk =   0.0277778
        k(   16) = (   0.0155359  -0.0543390   0.0000000), wk =   0.0277778
        k(   17) = (   0.0155359  -0.0388136   0.0000000), wk =   0.0277778
        k(   18) = (   0.0155359  -0.0232882   0.0000000), wk =   0.0277778
        k(   19) = (   0.0155359  -0.0077627   0.0000000), wk =   0.0277778
        k(   20) = (   0.0310719   0.0155254   0.0000000), wk =   0.0277778
        k(   21) = (   0.0310719   0.0310509   0.0000000), wk =   0.0277778
        k(   22) = (   0.0310719   0.0465763   0.0000000), wk =   0.0277778
        k(   23) = (   0.0310719   0.0621017   0.0000000), wk =   0.0277778
        k(   24) = (   0.0310719   0.0776272   0.0000000), wk =   0.0277778
        k(   25) = (   0.0310719   0.0931526   0.0000000), wk =   0.0277778
        k(   26) = (   0.0310719  -0.0776272   0.0000000), wk =   0.0277778
        k(   27) = (   0.0310719  -0.0621017   0.0000000), wk =   0.0277778
        k(   28) = (   0.0310719  -0.0465763   0.0000000), wk =   0.0277778
        k(   29) = (   0.0310719  -0.0310509   0.0000000), wk =   0.0277778
        k(   30) = (   0.0310719  -0.0155254   0.0000000), wk =   0.0277778
        k(   31) = (   0.0310719  -0.0000000   0.0000000), wk =   0.0277778
        k(   32) = (   0.0466078   0.0232882   0.0000000), wk =   0.0277778
        k(   33) = (   0.0466078   0.0388136   0.0000000), wk =   0.0277778
        k(   34) = (   0.0466078   0.0543390   0.0000000), wk =   0.0277778
        k(   35) = (   0.0466078   0.0698645   0.0000000), wk =   0.0277778
        k(   36) = (   0.0466078   0.0853899   0.0000000), wk =   0.0277778
        k(   37) = (   0.0466078   0.1009153   0.0000000), wk =   0.0277778
        k(   38) = (   0.0466078  -0.0698645   0.0000000), wk =   0.0277778
        k(   39) = (   0.0466078  -0.0543390   0.0000000), wk =   0.0277778
        k(   40) = (   0.0466078  -0.0388136   0.0000000), wk =   0.0277778
        k(   41) = (   0.0466078  -0.0232882   0.0000000), wk =   0.0277778
        k(   42) = (   0.0466078  -0.0077627   0.0000000), wk =   0.0277778
        k(   43) = (   0.0466078   0.0077627   0.0000000), wk =   0.0277778
        k(   44) = (   0.0621438   0.0310509   0.0000000), wk =   0.0277778
        k(   45) = (   0.0621438   0.0465763   0.0000000), wk =   0.0277778
        k(   46) = (   0.0621438   0.0621017   0.0000000), wk =   0.0277778
        k(   47) = (   0.0621438   0.0776272   0.0000000), wk =   0.0277778
        k(   48) = (   0.0621438   0.0931526   0.0000000), wk =   0.0277778
        k(   49) = (   0.0621438   0.1086780   0.0000000), wk =   0.0277778
        k(   50) = (   0.0621438  -0.0621017   0.0000000), wk =   0.0277778
        k(   51) = (   0.0621438  -0.0465763   0.0000000), wk =   0.0277778
        k(   52) = (   0.0621438  -0.0310509   0.0000000), wk =   0.0277778
        k(   53) = (   0.0621438  -0.0155254   0.0000000), wk =   0.0277778
        k(   54) = (   0.0621438   0.0000000   0.0000000), wk =   0.0277778
        k(   55) = (   0.0621438   0.0155254   0.0000000), wk =   0.0277778
        k(   56) = (   0.0776797   0.0388136   0.0000000), wk =   0.0277778
        k(   57) = (   0.0776797   0.0543390   0.0000000), wk =   0.0277778
        k(   58) = (   0.0776797   0.0698645   0.0000000), wk =   0.0277778
        k(   59) = (   0.0776797   0.0853899   0.0000000), wk =   0.0277778
        k(   60) = (   0.0776797   0.1009153   0.0000000), wk =   0.0277778
        k(   61) = (   0.0776797   0.1164408   0.0000000), wk =   0.0277778
        k(   62) = (   0.0776797  -0.0543390   0.0000000), wk =   0.0277778
        k(   63) = (   0.0776797  -0.0388136   0.0000000), wk =   0.0277778
        k(   64) = (   0.0776797  -0.0232882   0.0000000), wk =   0.0277778
        k(   65) = (   0.0776797  -0.0077627   0.0000000), wk =   0.0277778
        k(   66) = (   0.0776797   0.0077627   0.0000000), wk =   0.0277778
        k(   67) = (   0.0776797   0.0232882   0.0000000), wk =   0.0277778
        k(   68) = (  -0.0932157  -0.0465763   0.0000000), wk =   0.0138889
        k(   69) = (  -0.0932157  -0.0310509   0.0000000), wk =   0.0277778
        k(   70) = (  -0.0932157  -0.0155254   0.0000000), wk =   0.0277778
        k(   71) = (  -0.0932157   0.0000000   0.0000000), wk =   0.0277778
        k(   72) = (  -0.0932157   0.0155254   0.0000000), wk =   0.0277778
        k(   73) = (  -0.0932157   0.0310509   0.0000000), wk =   0.0277778
        k(   74) = (  -0.0932157  -0.1397289   0.0000000), wk =   0.0138889

     Dense  grid:  1046567 G-vectors     FFT dimensions: (  75,  90, 360)

     Smooth grid:   264705 G-vectors     FFT dimensions: (  48,  54, 225)

     Estimated max dynamical RAM per process >     205.06 MB

     Estimated total dynamical RAM >       7.41 GB

     Initial potential from superposition of free atoms

     starting charge  149.99232, renormalised to  150.00000

     negative rho (up, down):  4.358E-04 0.000E+00


     %%%%%%%%%%%%%%%%%%%%%%%%%%%%%%%%%%%%%%%%%%%%%%%%%%%%%%%%%%%%%%%%%%%%%%%%
     %                                                                      %
     % You are using vdW-DF, which was implemented by the Thonhauser group. %
     % Please cite the following two papers that made this development      %
     % possible and the two reviews that describe the various versions:     %
     %                                                                      %
     %   T. Thonhauser et al., PRL 115, 136402 (2015).                      %
     %   T. Thonhauser et al., PRB 76, 125112 (2007).                       %
     %   K. Berland et al., Rep. Prog. Phys. 78, 066501 (2015).             %
     %   D.C. Langreth et al., J. Phys.: Condens. Matter 21, 084203 (2009). %
     %                                                                      %
     %                                                                      %
     % If you are calculating the stress with vdW-DF, please also cite:     %
     %                                                                      %
     %   R. Sabatini et al., J. Phys.: Condens. Matter 24, 424209 (2012).   %
     %                                                                      %
     %%%%%%%%%%%%%%%%%%%%%%%%%%%%%%%%%%%%%%%%%%%%%%%%%%%%%%%%%%%%%%%%%%%%%%%%



     Adding external electric field

     Computed dipole along edir(3) : 
        Dipole               -0.0003 Ry au,         -0.0006 Debye
        Dipole field         -0.0000 Ry au, 

        Potential amp.        0.0001 Ry
        Total length         45.4104 bohr

     Starting wfcs are  114 randomized atomic wfcs

     total cpu time spent up to now is       88.5 secs

     Self-consistent Calculation

     iteration #  1     ecut=    55.12 Ry     beta= 0.10
     Davidson diagonalization with overlap
     ethr =  1.00E-02,  avg # of iterations =  2.3

     negative rho (up, down):  3.320E-04 0.000E+00

     Adding external electric field

     Computed dipole along edir(3) : 
        Dipole               -0.5574 Ry au,         -1.4168 Debye
        Dipole field         -0.0015 Ry au, 

        Potential amp.        0.1329 Ry
        Total length         45.4104 bohr


     total cpu time spent up to now is      271.5 secs

     total energy              =   -1350.33961452 Ry
     estimated scf accuracy    <       2.94812147 Ry

     iteration #  2     ecut=    55.12 Ry     beta= 0.10
     Davidson diagonalization with overlap
     ethr =  1.97E-03,  avg # of iterations =  2.4

     negative rho (up, down):  3.495E-04 0.000E+00

     Adding external electric field

     Computed dipole along edir(3) : 
        Dipole                0.2202 Ry au,          0.5597 Debye
        Dipole field          0.0006 Ry au, 

        Potential amp.       -0.0525 Ry
        Total length         45.4104 bohr


     total cpu time spent up to now is      452.0 secs

     total energy              =   -1350.27030179 Ry
     estimated scf accuracy    <      16.72353285 Ry

     iteration #  3     ecut=    55.12 Ry     beta= 0.10
     Davidson diagonalization with overlap
     ethr =  1.97E-03,  avg # of iterations =  1.3

     negative rho (up, down):  3.555E-04 0.000E+00

     Adding external electric field

     Computed dipole along edir(3) : 
        Dipole               -0.0165 Ry au,         -0.0420 Debye
        Dipole field         -0.0000 Ry au, 

        Potential amp.        0.0039 Ry
        Total length         45.4104 bohr


     total cpu time spent up to now is      607.0 secs

     total energy              =   -1350.58199742 Ry
     estimated scf accuracy    <       3.05862694 Ry

     iteration #  4     ecut=    55.12 Ry     beta= 0.10
     Davidson diagonalization with overlap
     ethr =  1.97E-03,  avg # of iterations =  1.0

     negative rho (up, down):  3.578E-04 0.000E+00

     Adding external electric field

     Computed dipole along edir(3) : 
        Dipole               -0.0027 Ry au,         -0.0068 Debye
        Dipole field         -0.0000 Ry au, 

        Potential amp.        0.0006 Ry
        Total length         45.4104 bohr


     total cpu time spent up to now is      754.5 secs

     total energy              =   -1350.62161667 Ry
     estimated scf accuracy    <       0.22433210 Ry

     iteration #  5     ecut=    55.12 Ry     beta= 0.10
     Davidson diagonalization with overlap
     ethr =  1.50E-04,  avg # of iterations =  7.1

     negative rho (up, down):  3.860E-04 0.000E+00

     Adding external electric field

     Computed dipole along edir(3) : 
        Dipole               -0.0404 Ry au,         -0.1028 Debye
        Dipole field         -0.0001 Ry au, 

        Potential amp.        0.0096 Ry
        Total length         45.4104 bohr


     total cpu time spent up to now is      957.4 secs

     total energy              =   -1350.63229768 Ry
     estimated scf accuracy    <       0.07160320 Ry

     iteration #  6     ecut=    55.12 Ry     beta= 0.10
     Davidson diagonalization with overlap
     c_bands:  1 eigenvalues not converged
     ethr =  4.77E-05,  avg # of iterations =  2.7

     negative rho (up, down):  4.693E-04 0.000E+00

     Adding external electric field

     Computed dipole along edir(3) : 
        Dipole               -0.0465 Ry au,         -0.1183 Debye
        Dipole field         -0.0001 Ry au, 

        Potential amp.        0.0111 Ry
        Total length         45.4104 bohr


     total cpu time spent up to now is     1132.6 secs

     total energy              =   -1350.63057904 Ry
     estimated scf accuracy    <       0.03037838 Ry

     iteration #  7     ecut=    55.12 Ry     beta= 0.10
     Davidson diagonalization with overlap
     c_bands:  1 eigenvalues not converged
     c_bands:  1 eigenvalues not converged
     ethr =  2.03E-05,  avg # of iterations =  4.1

     negative rho (up, down):  5.572E-04 0.000E+00

     Adding external electric field

     Computed dipole along edir(3) : 
        Dipole               -0.0212 Ry au,         -0.0540 Debye
        Dipole field         -0.0001 Ry au, 

        Potential amp.        0.0051 Ry
        Total length         45.4104 bohr


     total cpu time spent up to now is     1324.3 secs

     total energy              =   -1350.63188903 Ry
     estimated scf accuracy    <       0.00965932 Ry

     iteration #  8     ecut=    55.12 Ry     beta= 0.10
     Davidson diagonalization with overlap
     c_bands:  1 eigenvalues not converged
     c_bands:  1 eigenvalues not converged
     ethr =  6.44E-06,  avg # of iterations =  7.2

     negative rho (up, down):  5.900E-04 0.000E+00

     Adding external electric field

     Computed dipole along edir(3) : 
        Dipole               -0.0360 Ry au,         -0.0915 Debye
        Dipole field         -0.0001 Ry au, 

        Potential amp.        0.0086 Ry
        Total length         45.4104 bohr


     total cpu time spent up to now is     1558.7 secs

     total energy              =   -1350.63212061 Ry
     estimated scf accuracy    <       0.00873389 Ry

     iteration #  9     ecut=    55.12 Ry     beta= 0.10
     Davidson diagonalization with overlap
     ethr =  5.82E-06,  avg # of iterations =  2.6

     negative rho (up, down):  5.865E-04 0.000E+00

     Adding external electric field

     Computed dipole along edir(3) : 
        Dipole               -0.0390 Ry au,         -0.0990 Debye
        Dipole field         -0.0001 Ry au, 

        Potential amp.        0.0093 Ry
        Total length         45.4104 bohr


     total cpu time spent up to now is     1746.2 secs

     total energy              =   -1350.63401576 Ry
     estimated scf accuracy    <       0.00212454 Ry

     iteration # 10     ecut=    55.12 Ry     beta= 0.10
     Davidson diagonalization with overlap
     ethr =  1.42E-06,  avg # of iterations =  2.1

     negative rho (up, down):  5.918E-04 0.000E+00

     Adding external electric field

     Computed dipole along edir(3) : 
        Dipole               -0.0371 Ry au,         -0.0944 Debye
        Dipole field         -0.0001 Ry au, 

        Potential amp.        0.0089 Ry
        Total length         45.4104 bohr


     total cpu time spent up to now is     1918.3 secs

     total energy              =   -1350.63372211 Ry
     estimated scf accuracy    <       0.00195770 Ry

     iteration # 11     ecut=    55.12 Ry     beta= 0.10
     Davidson diagonalization with overlap
     ethr =  1.31E-06,  avg # of iterations =  2.1

     negative rho (up, down):  5.944E-04 0.000E+00

     Adding external electric field

     Computed dipole along edir(3) : 
        Dipole               -0.0323 Ry au,         -0.0821 Debye
        Dipole field         -0.0001 Ry au, 

        Potential amp.        0.0077 Ry
        Total length         45.4104 bohr


     total cpu time spent up to now is     2095.2 secs

     total energy              =   -1350.63387567 Ry
     estimated scf accuracy    <       0.00038096 Ry

     iteration # 12     ecut=    55.12 Ry     beta= 0.10
     Davidson diagonalization with overlap
     ethr =  2.54E-07,  avg # of iterations =  6.1

     negative rho (up, down):  5.817E-04 0.000E+00

     Adding external electric field

     Computed dipole along edir(3) : 
        Dipole               -0.0324 Ry au,         -0.0825 Debye
        Dipole field         -0.0001 Ry au, 

        Potential amp.        0.0077 Ry
        Total length         45.4104 bohr


     total cpu time spent up to now is     2301.6 secs

     total energy              =   -1350.63389944 Ry
     estimated scf accuracy    <       0.00034719 Ry

     iteration # 13     ecut=    55.12 Ry     beta= 0.10
     Davidson diagonalization with overlap
     ethr =  2.31E-07,  avg # of iterations =  2.1

     negative rho (up, down):  5.677E-04 0.000E+00

     Adding external electric field

     Computed dipole along edir(3) : 
        Dipole               -0.0323 Ry au,         -0.0820 Debye
        Dipole field         -0.0001 Ry au, 

        Potential amp.        0.0077 Ry
        Total length         45.4104 bohr


     total cpu time spent up to now is     2481.1 secs

     total energy              =   -1350.63395185 Ry
     estimated scf accuracy    <       0.00003282 Ry

     iteration # 14     ecut=    55.12 Ry     beta= 0.10
     Davidson diagonalization with overlap
     ethr =  2.19E-08,  avg # of iterations =  6.5

     negative rho (up, down):  5.530E-04 0.000E+00

     Adding external electric field

     Computed dipole along edir(3) : 
        Dipole               -0.0317 Ry au,         -0.0806 Debye
        Dipole field         -0.0001 Ry au, 

        Potential amp.        0.0076 Ry
        Total length         45.4104 bohr


     total cpu time spent up to now is     2702.1 secs

     total energy              =   -1350.63394760 Ry
     estimated scf accuracy    <       0.00004356 Ry

     iteration # 15     ecut=    55.12 Ry     beta= 0.10
     Davidson diagonalization with overlap
     ethr =  2.19E-08,  avg # of iterations =  2.9

     negative rho (up, down):  4.991E-04 0.000E+00

     Adding external electric field

     Computed dipole along edir(3) : 
        Dipole               -0.0372 Ry au,         -0.0944 Debye
        Dipole field         -0.0001 Ry au, 

        Potential amp.        0.0089 Ry
        Total length         45.4104 bohr


     total cpu time spent up to now is     2888.3 secs

     End of self-consistent calculation

          k = 0.0000 0.0000 0.0000 ( 33071 PWs)   bands (ev):

   -60.2705 -60.1371 -60.1281 -59.9983 -59.9900 -59.8603 -34.8972 -34.7807
   -34.7548 -34.5612 -34.4733 -34.3151 -34.2284 -34.1891 -34.1601 -34.1080
   -34.0387 -34.0377 -33.9170 -33.7130 -33.5574 -33.5210 -33.4565 -33.4383
    -5.6672  -5.1115  -5.0875  -4.9846  -4.9102  -4.7432  -4.6661  -4.6051
    -4.5354  -4.4374  -4.2784  -4.2692  -4.2460  -4.1239  -3.9682  -3.8870
    -3.7874  -3.6104  -3.4629  -3.4431  -3.1278  -3.0142  -2.9937  -2.9433
    -2.9371  -2.7393  -2.5881  -2.5843  -2.3824  -2.3173  -2.1129  -2.0778
    -1.7049  -1.6056  -1.4413  -1.3931  -1.3126  -1.0395  -0.9735  -0.8893
    -0.5110  -0.2932  -0.0702   0.3316   0.4932   0.5413   0.6319   0.6674
     1.0227   1.4446   1.4474   1.7930   1.8205   1.8689   2.2689   2.3387
     2.4534   2.6101   2.9600   2.9998   3.0043   3.0437   3.0603   3.0978
     3.3079   3.4640

          k = 0.0000 0.0155 0.0000 ( 33050 PWs)   bands (ev):

   -60.2706 -60.1371 -60.1281 -59.9982 -59.9900 -59.8602 -34.8973 -34.7808
   -34.7548 -34.5612 -34.4733 -34.3153 -34.2284 -34.1891 -34.1602 -34.1079
   -34.0387 -34.0377 -33.9170 -33.7130 -33.5574 -33.5210 -33.4565 -33.4383
    -5.6323  -5.0981  -5.0751  -4.9699  -4.8979  -4.7288  -4.6542  -4.5987
    -4.5184  -4.4063  -4.2644  -4.2553  -4.2313  -4.0990  -3.9690  -3.8655
    -3.7719  -3.5821  -3.4514  -3.4434  -3.1169  -3.0384  -2.9911  -2.9337
    -2.9315  -2.7496  -2.5894  -2.5846  -2.3804  -2.3165  -2.1129  -2.0892
    -1.7201  -1.6455  -1.5171  -1.3951  -1.3332  -1.0736  -0.9298  -0.8965
    -0.5441  -0.3039  -0.1360   0.2122   0.2796   0.4800   0.6279   0.8565
     1.0281   1.2826   1.4308   1.6249   1.7168   1.8619   2.1477   2.3664
     2.4706   2.6256   2.7434   2.8674   2.9843   2.9858   3.1049   3.2987
     3.4233   3.4571

          k = 0.0000 0.0311 0.0000 ( 33078 PWs)   bands (ev):

   -60.2707 -60.1371 -60.1282 -59.9981 -59.9901 -59.8601 -34.8975 -34.7809
   -34.7549 -34.5613 -34.4734 -34.3159 -34.2283 -34.1891 -34.1605 -34.1079
   -34.0389 -34.0378 -33.9171 -33.7131 -33.5575 -33.5210 -33.4565 -33.4383
    -5.5378  -5.0630  -5.0340  -4.9262  -4.8670  -4.6865  -4.6242  -4.5757
    -4.4702  -4.3200  -4.2251  -4.2175  -4.1869  -4.0288  -3.9714  -3.8013
    -3.7236  -3.5040  -3.4440  -3.4162  -3.0873  -3.0863  -2.9843  -2.9240
    -2.9147  -2.7760  -2.6036  -2.5749  -2.3754  -2.3138  -2.1307  -2.1129
    -1.8173  -1.7581  -1.6247  -1.4240  -1.3753  -1.1634  -0.9189  -0.8791
    -0.6316  -0.3656  -0.2963  -0.0441   0.0907   0.2980   0.4302   0.8766
     1.0456   1.1110   1.3265   1.3396   1.4768   1.8428   1.9465   2.1392
     2.4025   2.5240   2.8532   2.9330   2.9369   2.9678   3.1164   3.2745
     3.4386   3.8866

          k = 0.0000 0.0466 0.0000 ( 33042 PWs)   bands (ev):

   -60.2706 -60.1370 -60.1282 -59.9981 -59.9901 -59.8601 -34.8977 -34.7811
   -34.7549 -34.5614 -34.4735 -34.3166 -34.2282 -34.1892 -34.1608 -34.1079
   -34.0391 -34.0380 -33.9173 -33.7131 -33.5575 -33.5210 -33.4565 -33.4383
    -5.4174  -5.0189  -4.9558  -4.8576  -4.8258  -4.6254  -4.5881  -4.5240
    -4.4012  -4.2114  -4.1732  -4.1696  -4.0886  -3.9747  -3.9327  -3.6990
    -3.6472  -3.4441  -3.3937  -3.3607  -3.1271  -3.0443  -2.9758  -2.9095
    -2.9039  -2.8015  -2.6222  -2.5615  -2.3696  -2.3087  -2.2398  -2.1129
    -2.0316  -1.9005  -1.6594  -1.5223  -1.4250  -1.2607  -0.9602  -0.9344
    -0.7403  -0.4872  -0.4610  -0.3312  -0.0142   0.0418   0.1435   0.5340
     0.7368   1.0639   1.0838   1.1422   1.4602   1.8167   1.9154   2.0342
     2.3753   2.4047   2.7201   2.8786   3.0499   3.1217   3.2060   3.2448
     3.4139   4.4112

          k = 0.0000 0.0621 0.0000 ( 33024 PWs)   bands (ev):

   -60.2706 -60.1370 -60.1281 -59.9980 -59.9901 -59.8600 -34.8979 -34.7814
   -34.7550 -34.5615 -34.4736 -34.3174 -34.2281 -34.1892 -34.1612 -34.1079
   -34.0393 -34.0381 -33.9175 -33.7131 -33.5575 -33.5210 -33.4566 -33.4383
    -5.3201  -4.9778  -4.8683  -4.7787  -4.7593  -4.5952  -4.4984  -4.4432
    -4.3295  -4.1508  -4.1114  -4.1090  -3.9766  -3.9191  -3.8553  -3.5780
    -3.5715  -3.4430  -3.3165  -3.2795  -3.0967  -3.0050  -2.9681  -2.9048
    -2.8940  -2.7991  -2.6343  -2.5481  -2.4586  -2.3651  -2.3019  -2.2740
    -2.1129  -1.9910  -1.6773  -1.6722  -1.5356  -1.2962  -1.1010  -1.0264
    -0.8893  -0.5978  -0.5753  -0.5455  -0.2016  -0.1202  -0.1084   0.1182
     0.4559   0.8081   0.9182   1.0744   1.4564   1.7906   2.0434   2.0805
     2.2951   2.4004   2.6274   2.8235   3.0895   3.1151   3.2232   3.3838
     3.3902   4.4111

          k = 0.0000 0.0776 0.0000 ( 32980 PWs)   bands (ev):

   -60.2706 -60.1369 -60.1281 -59.9979 -59.9901 -59.8599 -34.8981 -34.7815
   -34.7551 -34.5616 -34.4736 -34.3179 -34.2281 -34.1892 -34.1614 -34.1079
   -34.0394 -34.0383 -33.9176 -33.7132 -33.5575 -33.5210 -33.4566 -33.4383
    -5.2670  -4.9488  -4.8306  -4.7142  -4.6795  -4.5891  -4.4176  -4.2775
    -4.2723  -4.1304  -4.0664  -4.0401  -3.9751  -3.8542  -3.7316  -3.5385
    -3.4846  -3.4416  -3.2720  -3.2055  -3.0210  -2.9640  -2.9628  -2.9582
    -2.8821  -2.7708  -2.6347  -2.6331  -2.5384  -2.4760  -2.3625  -2.2960
    -2.1130  -2.0338  -1.8400  -1.6761  -1.6607  -1.2992  -1.2751  -1.1056
    -1.0366  -0.7232  -0.6506  -0.6011  -0.3448  -0.2700  -0.2619  -0.2084
     0.3870   0.6123   0.7299   1.0789   1.4531   1.7714   2.0794   2.2003
     2.2146   2.4824   2.5781   2.7845   3.0985   3.1014   3.2143   3.3736
     3.4271   4.4112

          k = 0.0000-0.0932 0.0000 ( 33008 PWs)   bands (ev):

   -60.2707 -60.1369 -60.1282 -59.9979 -59.9902 -59.8599 -34.8982 -34.7816
   -34.7551 -34.5616 -34.4737 -34.3181 -34.2280 -34.1892 -34.1616 -34.1079
   -34.0394 -34.0383 -33.9176 -33.7132 -33.5575 -33.5211 -33.4566 -33.4384
    -5.2508  -4.9383  -4.8213  -4.6890  -4.6484  -4.5905  -4.3929  -4.2593
    -4.1241  -4.1182  -4.0493  -4.0115  -3.9734  -3.9155  -3.6268  -3.5476
    -3.4577  -3.4409  -3.2039  -3.1944  -3.0757  -2.9937  -2.9611  -2.9295
    -2.8777  -2.7571  -2.6496  -2.6261  -2.5442  -2.5349  -2.3618  -2.2937
    -2.1130  -2.0624  -1.9056  -1.7231  -1.6741  -1.3533  -1.2984  -1.1437
    -1.0981  -0.7697  -0.6509  -0.6324  -0.4046  -0.3814  -0.3244  -0.2577
     0.3818   0.5425   0.6556   1.0800   1.4518   1.7643   2.0996   2.1812
     2.2306   2.5383   2.5632   2.7703   3.0947   3.0993   3.2124   3.3677
     3.4154   4.4111

          k = 0.0155 0.0078 0.0000 ( 33112 PWs)   bands (ev):

   -60.2684 -60.1394 -60.1261 -60.0004 -59.9880 -59.8625 -34.8949 -34.7637
   -34.7571 -34.5444 -34.4566 -34.3131 -34.2264 -34.1913 -34.1581 -34.1100
   -34.0408 -34.0357 -33.9191 -33.7323 -33.5559 -33.5397 -33.4583 -33.4570
    -5.6088  -5.0863  -5.0517  -4.9590  -4.8633  -4.7144  -4.6373  -4.5811
    -4.5114  -4.4178  -4.2771  -4.2591  -4.2221  -4.0951  -3.9459  -3.8682
    -3.7748  -3.5935  -3.4591  -3.4255  -3.1297  -3.0875  -3.0167  -2.9737
    -2.8745  -2.7466  -2.6230  -2.6021  -2.4158  -2.3515  -2.1440  -2.0248
    -1.7301  -1.5556  -1.4791  -1.3559  -1.2645  -1.0350  -0.9910  -0.8563
    -0.6264  -0.2735  -0.1780   0.3167   0.4242   0.5170   0.6449   0.7378
     1.0437   1.3642   1.4371   1.5052   1.6783   1.7972   2.2711   2.3172
     2.5208   2.5586   2.7415   2.7455   2.9394   3.0888   3.1683   3.2259
     3.3658   3.5143

          k = 0.0155 0.0233 0.0000 ( 33107 PWs)   bands (ev):

   -60.2684 -60.1394 -60.1261 -60.0004 -59.9880 -59.8624 -34.8950 -34.7638
   -34.7571 -34.5445 -34.4566 -34.3134 -34.2263 -34.1913 -34.1583 -34.1100
   -34.0409 -34.0358 -33.9191 -33.7324 -33.5559 -33.5397 -33.4583 -33.4570
    -5.5414  -5.0609  -5.0269  -4.9301  -4.8400  -4.6868  -4.6125  -4.5706
    -4.4783  -4.3595  -4.2505  -4.2327  -4.1936  -4.0482  -3.9470  -3.8263
    -3.7427  -3.5408  -3.4361  -3.4260  -3.1128  -3.1091  -3.0200  -2.9662
    -2.8669  -2.7656  -2.6175  -2.6115  -2.4125  -2.3512  -2.1448  -2.0456
    -1.7576  -1.6468  -1.6081  -1.3600  -1.2933  -1.0969  -0.9698  -0.8414
    -0.6753  -0.3012  -0.2876   0.1207   0.1989   0.4146   0.4733   0.9457
     1.0586   1.1490   1.3879   1.4469   1.4986   1.5825   2.0773   2.1520
     2.5418   2.5546   2.7706   2.7875   2.8830   3.0766   3.1288   3.2795
     3.4745   3.6089

          k = 0.0155 0.0388 0.0000 ( 33084 PWs)   bands (ev):

   -60.2684 -60.1394 -60.1260 -60.0003 -59.9880 -59.8623 -34.8952 -34.7640
   -34.7572 -34.5446 -34.4567 -34.3141 -34.2263 -34.1913 -34.1586 -34.1100
   -34.0411 -34.0359 -33.9193 -33.7324 -33.5559 -33.5397 -33.4583 -33.4570
    -5.4277  -5.0197  -4.9695  -4.8734  -4.8043  -4.6319  -4.5768  -4.5405
    -4.4184  -4.2612  -4.2138  -4.1715  -4.1347  -3.9651  -3.9490  -3.7441
    -3.6782  -3.4481  -3.4258  -3.3896  -3.1553  -3.0723  -3.0184  -2.9565
    -2.8546  -2.7934  -2.6279  -2.6087  -2.4079  -2.3510  -2.1497  -2.1055
    -1.9049  -1.7938  -1.6917  -1.4151  -1.3321  -1.1877  -0.9881  -0.8825
    -0.7232  -0.4661  -0.3923  -0.1431   0.0623   0.1715   0.2125   0.7255
     0.9585   1.0230   1.1607   1.2194   1.4546   1.6456   1.8732   1.9835
     2.4376   2.4701   2.7338   2.9365   2.9857   3.0029   3.1442   3.2643
     3.4643   4.0619

          k = 0.0155 0.0543 0.0000 ( 33065 PWs)   bands (ev):

   -60.2684 -60.1393 -60.1260 -60.0003 -59.9880 -59.8623 -34.8954 -34.7642
   -34.7573 -34.5447 -34.4568 -34.3149 -34.2262 -34.1914 -34.1590 -34.1100
   -34.0413 -34.0360 -33.9195 -33.7324 -33.5559 -33.5397 -33.4583 -33.4570
    -5.3135  -4.9757  -4.8755  -4.7973  -4.7609  -4.5657  -4.5368  -4.4747
    -4.3457  -4.1850  -4.1581  -4.1066  -4.0072  -3.9484  -3.8756  -3.6322
    -3.5972  -3.4259  -3.3363  -3.3355  -3.1719  -3.0313  -3.0162  -2.9479
    -2.8390  -2.8070  -2.6440  -2.6007  -2.4077  -2.3546  -2.2767  -2.1424
    -2.1412  -1.9102  -1.7126  -1.5412  -1.4153  -1.2337  -1.0487  -1.0222
    -0.7882  -0.6447  -0.5111  -0.3729  -0.1148  -0.0394  -0.0293   0.3594
     0.5704   0.8304   1.0134   1.1233   1.4536   1.6486   1.9563   1.9718
     2.3290   2.4390   2.6385   2.8569   3.0576   3.0585   3.1399   3.2898
     3.5432   4.2219

          k = 0.0155 0.0699 0.0000 ( 33019 PWs)   bands (ev):

   -60.2684 -60.1393 -60.1260 -60.0002 -59.9879 -59.8622 -34.8956 -34.7644
   -34.7573 -34.5448 -34.4569 -34.3155 -34.2261 -34.1914 -34.1593 -34.1100
   -34.0414 -34.0362 -33.9196 -33.7324 -33.5559 -33.5397 -33.4583 -33.4570
    -5.2393  -4.9395  -4.8020  -4.7217  -4.6944  -4.5512  -4.4407  -4.3519
    -4.2816  -4.1592  -4.0817  -4.0523  -3.9536  -3.8328  -3.8213  -3.5389
    -3.5220  -3.4241  -3.3080  -3.2406  -3.1106  -3.0187  -2.9945  -2.9490
    -2.8359  -2.7888  -2.6485  -2.5997  -2.5211  -2.3915  -2.3727  -2.3470
    -2.1442  -1.9588  -1.7226  -1.7075  -1.5318  -1.2365  -1.1950  -1.1378
    -0.9416  -0.7473  -0.5921  -0.5185  -0.3231  -0.2303  -0.1369  -0.0417
     0.4334   0.6051   0.8177   1.1075   1.4529   1.6131   2.0135   2.1312
     2.2365   2.4748   2.5758   2.7986   3.0547   3.0820   3.1062   3.2906
     3.6158   4.2570

          k = 0.0155 0.0854 0.0000 ( 32974 PWs)   bands (ev):

   -60.2684 -60.1392 -60.1260 -60.0001 -59.9880 -59.8621 -34.8957 -34.7645
   -34.7574 -34.5448 -34.4570 -34.3159 -34.2260 -34.1914 -34.1595 -34.1100
   -34.0415 -34.0362 -33.9197 -33.7324 -33.5559 -33.5397 -33.4583 -33.4570
    -5.2067  -4.9191  -4.7784  -4.6736  -4.6434  -4.5478  -4.3925  -4.2461
    -4.1467  -4.1463  -4.0383  -4.0118  -3.9515  -3.8817  -3.6682  -3.5287
    -3.4686  -3.4229  -3.2457  -3.2021  -3.0740  -3.0253  -2.9896  -2.9509
    -2.8952  -2.7646  -2.6529  -2.6045  -2.5499  -2.5197  -2.3964  -2.3520
    -2.1440  -1.9906  -1.8308  -1.7250  -1.6248  -1.3218  -1.2325  -1.2119
    -1.0550  -0.7986  -0.6133  -0.6042  -0.4245  -0.3126  -0.3043  -0.2052
     0.4126   0.4764   0.6877   1.1037   1.4522   1.5979   2.0510   2.1781
     2.2065   2.5467   2.5506   2.7846   3.0219   3.0825   3.0872   3.2850
     3.6125   4.3671

          k = 0.0155-0.0854 0.0000 ( 32974 PWs)   bands (ev):

   -60.2684 -60.1392 -60.1260 -60.0001 -59.9880 -59.8621 -34.8957 -34.7645
   -34.7574 -34.5448 -34.4570 -34.3159 -34.2260 -34.1914 -34.1595 -34.1100
   -34.0415 -34.0362 -33.9197 -33.7324 -33.5559 -33.5397 -33.4583 -33.4570
    -5.2067  -4.9191  -4.7784  -4.6736  -4.6434  -4.5478  -4.3925  -4.2461
    -4.1467  -4.1463  -4.0382  -4.0119  -3.9515  -3.8817  -3.6682  -3.5287
    -3.4686  -3.4229  -3.2457  -3.2021  -3.0740  -3.0253  -2.9897  -2.9509
    -2.8952  -2.7646  -2.6529  -2.6045  -2.5500  -2.5197  -2.3963  -2.3520
    -2.1440  -1.9906  -1.8308  -1.7250  -1.6248  -1.3218  -1.2325  -1.2119
    -1.0550  -0.7986  -0.6133  -0.6042  -0.4245  -0.3126  -0.3043  -0.2052
     0.4126   0.4764   0.6876   1.1037   1.4522   1.5980   2.0510   2.1781
     2.2064   2.5467   2.5506   2.7846   3.0219   3.0825   3.0872   3.2850
     3.6125   4.3672

          k = 0.0155-0.0699 0.0000 ( 33019 PWs)   bands (ev):

   -60.2684 -60.1393 -60.1260 -60.0002 -59.9879 -59.8622 -34.8956 -34.7644
   -34.7573 -34.5448 -34.4569 -34.3155 -34.2261 -34.1914 -34.1593 -34.1100
   -34.0414 -34.0362 -33.9196 -33.7324 -33.5559 -33.5397 -33.4583 -33.4570
    -5.2393  -4.9395  -4.8020  -4.7217  -4.6944  -4.5512  -4.4407  -4.3519
    -4.2816  -4.1592  -4.0817  -4.0523  -3.9535  -3.8328  -3.8213  -3.5389
    -3.5220  -3.4240  -3.3080  -3.2406  -3.1105  -3.0187  -2.9945  -2.9491
    -2.8359  -2.7888  -2.6485  -2.5997  -2.5211  -2.3915  -2.3727  -2.3470
    -2.1442  -1.9587  -1.7226  -1.7075  -1.5318  -1.2365  -1.1950  -1.1378
    -0.9416  -0.7474  -0.5921  -0.5183  -0.3231  -0.2303  -0.1369  -0.0417
     0.4334   0.6051   0.8177   1.1075   1.4530   1.6132   2.0135   2.1312
     2.2365   2.4748   2.5758   2.7987   3.0547   3.0820   3.1062   3.2906
     3.6158   4.2570

          k = 0.0155-0.0543 0.0000 ( 33065 PWs)   bands (ev):

   -60.2684 -60.1393 -60.1260 -60.0003 -59.9880 -59.8623 -34.8954 -34.7642
   -34.7573 -34.5447 -34.4568 -34.3149 -34.2262 -34.1914 -34.1590 -34.1100
   -34.0413 -34.0360 -33.9195 -33.7324 -33.5559 -33.5397 -33.4583 -33.4570
    -5.3135  -4.9757  -4.8755  -4.7973  -4.7609  -4.5657  -4.5368  -4.4747
    -4.3457  -4.1851  -4.1581  -4.1066  -4.0072  -3.9484  -3.8756  -3.6322
    -3.5972  -3.4259  -3.3363  -3.3355  -3.1719  -3.0313  -3.0161  -2.9480
    -2.8390  -2.8070  -2.6440  -2.6007  -2.4078  -2.3546  -2.2766  -2.1424
    -2.1412  -1.9102  -1.7126  -1.5413  -1.4152  -1.2337  -1.0488  -1.0221
    -0.7882  -0.6448  -0.5111  -0.3727  -0.1148  -0.0394  -0.0293   0.3594
     0.5704   0.8305   1.0134   1.1232   1.4536   1.6487   1.9562   1.9717
     2.3290   2.4390   2.6385   2.8569   3.0576   3.0585   3.1399   3.2898
     3.5431   4.2224

          k = 0.0155-0.0388 0.0000 ( 33084 PWs)   bands (ev):

   -60.2684 -60.1394 -60.1260 -60.0003 -59.9880 -59.8623 -34.8952 -34.7640
   -34.7572 -34.5446 -34.4567 -34.3141 -34.2263 -34.1913 -34.1586 -34.1100
   -34.0411 -34.0359 -33.9193 -33.7324 -33.5559 -33.5397 -33.4583 -33.4570
    -5.4277  -5.0197  -4.9695  -4.8734  -4.8043  -4.6319  -4.5768  -4.5405
    -4.4184  -4.2612  -4.2138  -4.1715  -4.1347  -3.9651  -3.9490  -3.7441
    -3.6782  -3.4481  -3.4258  -3.3896  -3.1552  -3.0723  -3.0184  -2.9565
    -2.8546  -2.7934  -2.6279  -2.6087  -2.4079  -2.3510  -2.1497  -2.1055
    -1.9049  -1.7938  -1.6917  -1.4152  -1.3321  -1.1877  -0.9882  -0.8824
    -0.7231  -0.4663  -0.3923  -0.1429   0.0623   0.1715   0.2125   0.7255
     0.9585   1.0231   1.1607   1.2193   1.4547   1.6455   1.8733   1.9834
     2.4376   2.4701   2.7337   2.9365   2.9858   3.0028   3.1442   3.2643
     3.4643   4.0622

          k = 0.0155-0.0233 0.0000 ( 33107 PWs)   bands (ev):

   -60.2684 -60.1394 -60.1261 -60.0004 -59.9880 -59.8624 -34.8950 -34.7638
   -34.7571 -34.5445 -34.4566 -34.3134 -34.2263 -34.1913 -34.1583 -34.1100
   -34.0409 -34.0358 -33.9191 -33.7324 -33.5559 -33.5397 -33.4583 -33.4570
    -5.5414  -5.0609  -5.0269  -4.9301  -4.8400  -4.6868  -4.6125  -4.5706
    -4.4783  -4.3595  -4.2505  -4.2327  -4.1936  -4.0482  -3.9470  -3.8263
    -3.7427  -3.5408  -3.4361  -3.4260  -3.1128  -3.1091  -3.0199  -2.9663
    -2.8669  -2.7656  -2.6175  -2.6115  -2.4125  -2.3512  -2.1448  -2.0456
    -1.7576  -1.6468  -1.6081  -1.3601  -1.2933  -1.0969  -0.9698  -0.8414
    -0.6753  -0.3012  -0.2877   0.1209   0.1989   0.4146   0.4733   0.9457
     1.0586   1.1490   1.3878   1.4470   1.4986   1.5824   2.0774   2.1519
     2.5418   2.5546   2.7704   2.7873   2.8832   3.0766   3.1288   3.2795
     3.4744   3.6090

          k = 0.0155-0.0078 0.0000 ( 33112 PWs)   bands (ev):

   -60.2684 -60.1394 -60.1261 -60.0004 -59.9880 -59.8625 -34.8949 -34.7637
   -34.7571 -34.5444 -34.4566 -34.3131 -34.2264 -34.1913 -34.1581 -34.1100
   -34.0408 -34.0357 -33.9191 -33.7323 -33.5559 -33.5397 -33.4583 -33.4570
    -5.6088  -5.0863  -5.0517  -4.9590  -4.8633  -4.7144  -4.6373  -4.5811
    -4.5114  -4.4178  -4.2771  -4.2591  -4.2221  -4.0951  -3.9459  -3.8682
    -3.7749  -3.5935  -3.4591  -3.4254  -3.1298  -3.0875  -3.0167  -2.9737
    -2.8745  -2.7466  -2.6230  -2.6021  -2.4158  -2.3515  -2.1440  -2.0248
    -1.7301  -1.5556  -1.4791  -1.3559  -1.2645  -1.0350  -0.9910  -0.8563
    -0.6264  -0.2735  -0.1781   0.3167   0.4242   0.5170   0.6449   0.7378
     1.0437   1.3641   1.4371   1.5053   1.6783   1.7972   2.2712   2.3172
     2.5206   2.5587   2.7416   2.7455   2.9394   3.0889   3.1684   3.2259
     3.3658   3.5143

          k = 0.0311 0.0155 0.0000 ( 33121 PWs)   bands (ev):

   -60.2619 -60.1461 -60.1197 -60.0070 -59.9816 -59.8690 -34.8879 -34.7647
   -34.7128 -34.4950 -34.4075 -34.3070 -34.2205 -34.1978 -34.1522 -34.1161
   -34.0470 -34.0298 -33.9252 -33.7886 -33.5947 -33.5510 -33.5112 -33.4633
    -5.4371  -5.0122  -4.9507  -4.8836  -4.7301  -4.6410  -4.5731  -4.4741
    -4.4429  -4.3666  -4.2728  -4.2329  -4.1483  -4.0173  -3.8827  -3.8154
    -3.7361  -3.5477  -3.4526  -3.3739  -3.2329  -3.1359  -3.0998  -2.9927
    -2.8096  -2.7676  -2.7158  -2.6559  -2.5118  -2.4375  -2.2272  -1.8775
    -1.8405  -1.5465  -1.4531  -1.2488  -1.0997  -1.0531  -0.9936  -0.9534
    -0.7612  -0.4416  -0.2268   0.2553   0.3683   0.4440   0.5567   0.8535
     1.0181   1.0814   1.2538   1.3753   1.4991   1.5221   1.9828   2.0414
     2.4440   2.4891   2.5489   2.6871   2.8517   3.0100   3.2234   3.2559
     3.5775   3.7121

          k = 0.0311 0.0311 0.0000 ( 33103 PWs)   bands (ev):

   -60.2618 -60.1461 -60.1197 -60.0070 -59.9816 -59.8690 -34.8881 -34.7647
   -34.7129 -34.4951 -34.4076 -34.3075 -34.2204 -34.1978 -34.1525 -34.1160
   -34.0471 -34.0299 -33.9253 -33.7886 -33.5947 -33.5510 -33.5112 -33.4633
    -5.3414  -4.9777  -4.9171  -4.8421  -4.6942  -4.6119  -4.5348  -4.4605
    -4.3971  -4.2956  -4.2496  -4.1787  -4.1107  -3.9591  -3.8833  -3.7588
    -3.6861  -3.4815  -3.4197  -3.3741  -3.2589  -3.1089  -3.1054  -2.9940
    -2.8032  -2.7906  -2.7085  -2.6669  -2.5090  -2.4389  -2.2292  -1.9036
    -1.8551  -1.7274  -1.6186  -1.2372  -1.1538  -1.0829  -1.0431  -1.0047
    -0.7367  -0.5359  -0.2696   0.0165   0.1856   0.1967   0.3650   0.8367
     0.9859   1.0251   1.1179   1.2502   1.3964   1.4281   1.7937   1.8402
     2.3988   2.4994   2.5721   2.8406   2.9225   3.0109   3.1709   3.3343
     3.6202   3.7150

          k = 0.0311 0.0466 0.0000 ( 33093 PWs)   bands (ev):

   -60.2618 -60.1461 -60.1196 -60.0069 -59.9816 -59.8689 -34.8883 -34.7648
   -34.7132 -34.4952 -34.4077 -34.3082 -34.2203 -34.1978 -34.1528 -34.1160
   -34.0473 -34.0300 -33.9255 -33.7886 -33.5947 -33.5510 -33.5112 -33.4634
    -5.2193  -4.9334  -4.8478  -4.7754  -4.6579  -4.5540  -4.4743  -4.4410
    -4.3307  -4.2264  -4.2047  -4.0852  -4.0471  -3.8834  -3.8805  -3.6690
    -3.6105  -3.3930  -3.3726  -3.3705  -3.2896  -3.1125  -3.0723  -2.9936
    -2.8117  -2.7926  -2.6995  -2.6814  -2.5085  -2.4420  -2.2327  -2.0123
    -1.9836  -1.8471  -1.7691  -1.3191  -1.2194  -1.1814  -1.0686  -1.0607
    -0.7511  -0.6716  -0.3617  -0.2432  -0.1228   0.1008   0.1365   0.5975
     0.6967   0.7695   1.0007   1.1774   1.4311   1.4327   1.7554   1.8241
     2.3165   2.4611   2.5183   2.9332   2.9449   2.9730   3.1012   3.2143
     3.7380   3.8168

          k = 0.0311 0.0621 0.0000 ( 33075 PWs)   bands (ev):

   -60.2618 -60.1461 -60.1196 -60.0069 -59.9816 -59.8688 -34.8885 -34.7649
   -34.7134 -34.4953 -34.4078 -34.3089 -34.2202 -34.1978 -34.1531 -34.1160
   -34.0475 -34.0301 -33.9256 -33.7886 -33.5947 -33.5511 -33.5112 -33.4634
    -5.1244  -4.8919  -4.7450  -4.6960  -4.6314  -4.4689  -4.4254  -4.3741
    -4.2624  -4.2024  -4.1249  -4.0170  -3.9224  -3.8707  -3.8172  -3.5645
    -3.5368  -3.3735  -3.3730  -3.2961  -3.2474  -3.1256  -3.0375  -2.9932
    -2.8095  -2.7849  -2.6913  -2.6911  -2.5196  -2.4501  -2.2593  -2.2189
    -2.2096  -1.8699  -1.8180  -1.4670  -1.3112  -1.3014  -1.1462  -1.0628
    -0.8591  -0.7813  -0.4526  -0.4347  -0.3616  -0.0910   0.0171   0.2275
     0.5127   0.5385   0.8813   1.1499   1.3464   1.4426   1.8787   1.9179
     2.2310   2.4474   2.4687   2.8264   2.9291   3.0292   3.0756   3.1483
     3.8354   3.8623

          k = 0.0311 0.0776 0.0000 ( 33068 PWs)   bands (ev):

   -60.2618 -60.1461 -60.1196 -60.0068 -59.9816 -59.8688 -34.8887 -34.7649
   -34.7135 -34.4953 -34.4078 -34.3094 -34.2202 -34.1978 -34.1533 -34.1160
   -34.0476 -34.0302 -33.9258 -33.7886 -33.5947 -33.5511 -33.5112 -33.4634
    -5.0762  -4.8625  -4.6682  -4.6288  -4.6140  -4.4222  -4.3898  -4.2183
    -4.1932  -4.1832  -4.0629  -3.9719  -3.8890  -3.8223  -3.7519  -3.5005
    -3.4981  -3.3705  -3.3521  -3.2356  -3.1946  -3.1299  -3.0032  -3.0020
    -2.8216  -2.7874  -2.7085  -2.6911  -2.5423  -2.4624  -2.4153  -2.3573
    -2.2269  -1.8857  -1.8350  -1.6145  -1.4224  -1.3864  -1.2528  -1.0495
    -0.9933  -0.8206  -0.5633  -0.5209  -0.5026  -0.2221  -0.0741  -0.0475
     0.3451   0.4926   0.7662   1.1380   1.2879   1.4489   1.9371   2.0415
     2.1610   2.4374   2.4586   2.7889   2.9189   3.0340   3.0490   3.1129
     3.8516   3.8686

          k = 0.0311 0.0932 0.0000 ( 33046 PWs)   bands (ev):

   -60.2618 -60.1460 -60.1196 -60.0068 -59.9816 -59.8688 -34.8887 -34.7649
   -34.7136 -34.4954 -34.4079 -34.3096 -34.2201 -34.1978 -34.1534 -34.1160
   -34.0476 -34.0303 -33.9258 -33.7887 -33.5947 -33.5511 -33.5112 -33.4634
    -5.0622  -4.8518  -4.6452  -4.6070  -4.6020  -4.4153  -4.3691  -4.2068
    -4.1731  -4.0383  -4.0286  -3.9531  -3.8976  -3.8872  -3.6816  -3.4944
    -3.4919  -3.3700  -3.3058  -3.2212  -3.2053  -3.0850  -3.0437  -2.9763
    -2.8774  -2.7762  -2.7250  -2.6931  -2.5341  -2.4928  -2.4637  -2.3609
    -2.2250  -1.8918  -1.8500  -1.6791  -1.4665  -1.4245  -1.3054  -1.0435
    -1.0401  -0.8338  -0.6182  -0.5761  -0.5131  -0.2573  -0.1693  -0.0942
     0.2873   0.4921   0.7134   1.1347   1.2711   1.4509   1.9644   2.0793
     2.1304   2.4271   2.4647   2.7937   2.9372   2.9889   3.0535   3.1016
     3.8525   3.8585

          k = 0.0311-0.0776 0.0000 ( 33068 PWs)   bands (ev):

   -60.2618 -60.1461 -60.1196 -60.0068 -59.9816 -59.8688 -34.8887 -34.7649
   -34.7135 -34.4953 -34.4078 -34.3094 -34.2202 -34.1978 -34.1533 -34.1160
   -34.0476 -34.0302 -33.9258 -33.7886 -33.5947 -33.5511 -33.5112 -33.4634
    -5.0762  -4.8625  -4.6682  -4.6288  -4.6140  -4.4222  -4.3899  -4.2183
    -4.1932  -4.1831  -4.0629  -3.9719  -3.8890  -3.8223  -3.7519  -3.5005
    -3.4981  -3.3705  -3.3521  -3.2356  -3.1945  -3.1299  -3.0033  -3.0020
    -2.8216  -2.7874  -2.7085  -2.6911  -2.5424  -2.4624  -2.4153  -2.3572
    -2.2269  -1.8857  -1.8350  -1.6146  -1.4224  -1.3863  -1.2528  -1.0495
    -0.9934  -0.8205  -0.5633  -0.5207  -0.5026  -0.2221  -0.0741  -0.0475
     0.3451   0.4926   0.7662   1.1380   1.2880   1.4489   1.9371   2.0415
     2.1610   2.4374   2.4586   2.7889   2.9188   3.0340   3.0490   3.1129
     3.8515   3.8685

          k = 0.0311-0.0621 0.0000 ( 33075 PWs)   bands (ev):

   -60.2618 -60.1461 -60.1196 -60.0069 -59.9816 -59.8688 -34.8885 -34.7649
   -34.7134 -34.4953 -34.4078 -34.3089 -34.2202 -34.1978 -34.1531 -34.1160
   -34.0475 -34.0301 -33.9256 -33.7886 -33.5947 -33.5511 -33.5112 -33.4634
    -5.1244  -4.8919  -4.7450  -4.6960  -4.6314  -4.4689  -4.4254  -4.3741
    -4.2624  -4.2024  -4.1250  -4.0170  -3.9224  -3.8707  -3.8172  -3.5645
    -3.5369  -3.3735  -3.3730  -3.2961  -3.2473  -3.1255  -3.0374  -2.9933
    -2.8095  -2.7849  -2.6913  -2.6911  -2.5197  -2.4500  -2.2593  -2.2189
    -2.2096  -1.8699  -1.8180  -1.4670  -1.3112  -1.3014  -1.1463  -1.0628
    -0.8593  -0.7812  -0.4526  -0.4347  -0.3614  -0.0911   0.0171   0.2275
     0.5127   0.5385   0.8812   1.1498   1.3466   1.4426   1.8787   1.9179
     2.2310   2.4474   2.4686   2.8265   2.9290   3.0292   3.0755   3.1483
     3.8355   3.8623

          k = 0.0311-0.0466 0.0000 ( 33093 PWs)   bands (ev):

   -60.2618 -60.1461 -60.1196 -60.0069 -59.9816 -59.8689 -34.8883 -34.7648
   -34.7132 -34.4952 -34.4077 -34.3082 -34.2203 -34.1978 -34.1528 -34.1160
   -34.0473 -34.0300 -33.9255 -33.7886 -33.5947 -33.5510 -33.5112 -33.4634
    -5.2193  -4.9334  -4.8478  -4.7754  -4.6580  -4.5540  -4.4743  -4.4411
    -4.3307  -4.2264  -4.2047  -4.0852  -4.0471  -3.8834  -3.8805  -3.6690
    -3.6106  -3.3930  -3.3726  -3.3704  -3.2896  -3.1124  -3.0723  -2.9937
    -2.8117  -2.7926  -2.6995  -2.6814  -2.5085  -2.4420  -2.2327  -2.0123
    -1.9836  -1.8471  -1.7691  -1.3192  -1.2193  -1.1814  -1.0686  -1.0607
    -0.7511  -0.6717  -0.3617  -0.2431  -0.1227   0.1007   0.1365   0.5975
     0.6966   0.7696   1.0007   1.1772   1.4311   1.4328   1.7553   1.8241
     2.3166   2.4611   2.5183   2.9332   2.9448   2.9731   3.1012   3.2144
     3.7379   3.8170

          k = 0.0311-0.0311 0.0000 ( 33103 PWs)   bands (ev):

   -60.2618 -60.1461 -60.1197 -60.0070 -59.9816 -59.8690 -34.8881 -34.7647
   -34.7129 -34.4951 -34.4076 -34.3075 -34.2204 -34.1978 -34.1525 -34.1160
   -34.0471 -34.0299 -33.9253 -33.7886 -33.5947 -33.5510 -33.5112 -33.4633
    -5.3414  -4.9777  -4.9171  -4.8421  -4.6942  -4.6119  -4.5347  -4.4605
    -4.3971  -4.2956  -4.2496  -4.1787  -4.1107  -3.9591  -3.8834  -3.7588
    -3.6861  -3.4815  -3.4197  -3.3741  -3.2589  -3.1089  -3.1053  -2.9940
    -2.8032  -2.7906  -2.7085  -2.6669  -2.5090  -2.4389  -2.2292  -1.9036
    -1.8552  -1.7275  -1.6186  -1.2373  -1.1537  -1.0829  -1.0432  -1.0046
    -0.7366  -0.5361  -0.2695   0.0166   0.1857   0.1966   0.3650   0.8366
     0.9860   1.0251   1.1179   1.2500   1.3964   1.4282   1.7938   1.8402
     2.3988   2.4995   2.5720   2.8407   2.9223   3.0109   3.1709   3.3344
     3.6202   3.7152

          k = 0.0311-0.0155 0.0000 ( 33121 PWs)   bands (ev):

   -60.2619 -60.1461 -60.1197 -60.0070 -59.9816 -59.8690 -34.8879 -34.7647
   -34.7128 -34.4950 -34.4075 -34.3070 -34.2205 -34.1978 -34.1522 -34.1161
   -34.0470 -34.0298 -33.9252 -33.7886 -33.5947 -33.5510 -33.5112 -33.4633
    -5.4371  -5.0122  -4.9507  -4.8836  -4.7301  -4.6410  -4.5731  -4.4741
    -4.4429  -4.3666  -4.2729  -4.2329  -4.1483  -4.0173  -3.8827  -3.8154
    -3.7361  -3.5477  -3.4525  -3.3739  -3.2329  -3.1359  -3.0998  -2.9927
    -2.8096  -2.7676  -2.7158  -2.6559  -2.5118  -2.4375  -2.2272  -1.8775
    -1.8405  -1.5465  -1.4531  -1.2488  -1.0996  -1.0532  -0.9936  -0.9533
    -0.7612  -0.4417  -0.2268   0.2553   0.3683   0.4441   0.5567   0.8536
     1.0179   1.0813   1.2539   1.3751   1.4992   1.5221   1.9829   2.0413
     2.4439   2.4891   2.5488   2.6873   2.8515   3.0100   3.2234   3.2560
     3.5776   3.7121

          k = 0.0311-0.0000 0.0000 ( 33128 PWs)   bands (ev):

   -60.2619 -60.1462 -60.1197 -60.0070 -59.9816 -59.8690 -34.8879 -34.7647
   -34.7127 -34.4950 -34.4075 -34.3068 -34.2205 -34.1978 -34.1521 -34.1161
   -34.0470 -34.0297 -33.9252 -33.7886 -33.5947 -33.5510 -33.5112 -33.4633
    -5.4722  -5.0253  -4.9607  -4.8973  -4.7449  -4.6498  -4.5863  -4.4792
    -4.4590  -4.3934  -4.2828  -4.2489  -4.1617  -4.0382  -3.8825  -3.8343
    -3.7528  -3.5719  -3.4634  -3.3735  -3.2246  -3.1455  -3.0973  -2.9916
    -2.8117  -2.7582  -2.7187  -2.6520  -2.5132  -2.4372  -2.2265  -1.8718
    -1.8369  -1.4684  -1.3655  -1.2859  -1.0818  -1.0568  -0.9690  -0.9301
    -0.7787  -0.4066  -0.2203   0.3666   0.4949   0.5537   0.6798   0.6913
     0.9889   1.0540   1.3651   1.4279   1.5878   1.5958   2.1308   2.1820
     2.4014   2.4036   2.5478   2.7264   2.8271   2.9040   3.0071   3.2252
     3.8083   3.8342

          k = 0.0466 0.0233 0.0000 ( 33143 PWs)   bands (ev):

   -60.2514 -60.1569 -60.1095 -60.0175 -59.9714 -59.8794 -34.8768 -34.7762
   -34.6318 -34.4159 -34.3289 -34.2973 -34.2110 -34.2081 -34.1428 -34.1256
   -34.0569 -34.0204 -33.9350 -33.8773 -33.6811 -33.5982 -33.5422 -33.4714
    -5.1643  -4.8937  -4.8051  -4.7625  -4.5880  -4.4966  -4.4712  -4.3564
    -4.3046  -4.2673  -4.2632  -4.1675  -4.0357  -3.9168  -3.7878  -3.7480
    -3.6726  -3.4861  -3.4786  -3.3746  -3.2950  -3.2482  -3.1444  -2.9817
    -2.8944  -2.8016  -2.7452  -2.7443  -2.6604  -2.5124  -2.3469  -2.0828
    -1.6649  -1.5824  -1.4310  -1.3806  -1.1453  -1.0682  -0.9589  -0.7843
    -0.7111  -0.6505  -0.1820   0.1169   0.2950   0.3708   0.5147   0.5450
     0.9630   1.0596   1.0618   1.2043   1.2485   1.3555   1.6839   1.6959
     2.2108   2.2834   2.3292   2.5631   2.8318   2.9428   3.3317   3.4391
     3.4916   3.6668

          k = 0.0466 0.0388 0.0000 ( 33102 PWs)   bands (ev):

   -60.2513 -60.1569 -60.1094 -60.0174 -59.9713 -59.8794 -34.8770 -34.7763
   -34.6319 -34.4160 -34.3289 -34.2978 -34.2110 -34.2081 -34.1431 -34.1256
   -34.0570 -34.0204 -33.9351 -33.8773 -33.6810 -33.5982 -33.5422 -33.4714
    -5.0461  -4.8534  -4.7749  -4.7118  -4.5371  -4.4643  -4.4398  -4.3119
    -4.2612  -4.2432  -4.2180  -4.0925  -3.9928  -3.8647  -3.7880  -3.6920
    -3.6095  -3.4770  -3.4226  -3.3660  -3.2935  -3.2605  -3.1183  -2.9861
    -2.9033  -2.8237  -2.7528  -2.7311  -2.6577  -2.4991  -2.3513  -2.1025
    -1.7859  -1.6859  -1.5949  -1.5255  -1.1674  -1.1084  -0.9771  -0.8313
    -0.7411  -0.6729  -0.2151  -0.1574   0.0121   0.2464   0.3450   0.5300
     0.7503   0.7788   1.0081   1.1554   1.2682   1.3358   1.5655   1.7050
     2.1891   2.2392   2.3417   2.7979   2.8095   2.9600   3.2199   3.3958
     3.4717   3.8600

          k = 0.0466 0.0543 0.0000 ( 33086 PWs)   bands (ev):

   -60.2514 -60.1568 -60.1094 -60.0174 -59.9714 -59.8793 -34.8772 -34.7763
   -34.6321 -34.4161 -34.3290 -34.2985 -34.2109 -34.2080 -34.1433 -34.1256
   -34.0571 -34.0206 -33.9352 -33.8773 -33.6810 -33.5982 -33.5422 -33.4714
    -4.9287  -4.8087  -4.7106  -4.6384  -4.4724  -4.4378  -4.3717  -4.2737
    -4.2198  -4.2174  -4.1456  -3.9930  -3.9331  -3.8071  -3.7855  -3.6163
    -3.5343  -3.5057  -3.3537  -3.3308  -3.2878  -3.2687  -3.0902  -2.9950
    -2.9132  -2.8343  -2.7611  -2.7241  -2.6568  -2.4827  -2.3556  -2.1351
    -2.0111  -1.8966  -1.6526  -1.6499  -1.2103  -1.1862  -1.0256  -0.8723
    -0.7707  -0.7572  -0.3933  -0.2769  -0.2376   0.1085   0.1631   0.4204
     0.4625   0.6423   0.8464   1.1452   1.2244   1.3760   1.6266   1.7537
     2.1455   2.2016   2.3311   2.7609   2.9213   2.9316   3.0099   3.2457
     3.3756   3.9095

          k = 0.0466 0.0699 0.0000 ( 33075 PWs)   bands (ev):

   -60.2513 -60.1568 -60.1094 -60.0174 -59.9714 -59.8793 -34.8774 -34.7763
   -34.6323 -34.4161 -34.3291 -34.2990 -34.2108 -34.2079 -34.1436 -34.1256
   -34.0573 -34.0207 -33.9354 -33.8773 -33.6810 -33.5981 -33.5422 -33.4714
    -4.8667  -4.7715  -4.6240  -4.5591  -4.4394  -4.3890  -4.2552  -4.2513
    -4.1875  -4.1720  -4.0768  -3.9226  -3.8440  -3.7794  -3.7762  -3.5747
    -3.5058  -3.4750  -3.3322  -3.3080  -3.2716  -3.2257  -3.0655  -3.0178
    -2.9201  -2.8255  -2.7639  -2.7330  -2.6632  -2.4918  -2.3565  -2.2393
    -2.1486  -2.0927  -1.7779  -1.6523  -1.2934  -1.2581  -1.0876  -0.9494
    -0.8503  -0.7527  -0.5423  -0.4647  -0.3386  -0.0730   0.0933   0.2377
     0.2878   0.5997   0.7770   1.1008   1.1381   1.4075   1.7391   1.8181
     2.0861   2.1788   2.3002   2.6810   2.8569   2.9485   2.9769   3.1554
     3.3690   3.9442

          k = 0.0466 0.0854 0.0000 ( 33053 PWs)   bands (ev):

   -60.2513 -60.1568 -60.1094 -60.0173 -59.9714 -59.8793 -34.8774 -34.7763
   -34.6324 -34.4162 -34.3292 -34.2994 -34.2108 -34.2079 -34.1437 -34.1256
   -34.0573 -34.0207 -33.9354 -33.8773 -33.6810 -33.5981 -33.5422 -33.4714
    -4.8448  -4.7502  -4.5743  -4.5045  -4.4326  -4.3534  -4.2481  -4.2028
    -4.1477  -4.0324  -4.0322  -3.8915  -3.8367  -3.7872  -3.7483  -3.5949
    -3.4484  -3.4476  -3.3527  -3.2970  -3.2531  -3.1516  -3.0693  -3.0425
    -2.9227  -2.8121  -2.7636  -2.7605  -2.6818  -2.5299  -2.3622  -2.3578
    -2.1804  -2.1344  -1.8550  -1.6560  -1.3902  -1.2900  -1.1242  -1.0402
    -0.8322  -0.7430  -0.6524  -0.6046  -0.3762  -0.1467   0.0396   0.1339
     0.1998   0.5738   0.7856   1.0056   1.1344   1.4226   1.8033   1.8723
     2.0361   2.1677   2.2664   2.6224   2.8210   2.9514   2.9977   3.1238
     3.3687   3.9933

          k = 0.0466 0.1009 0.0000 ( 33053 PWs)   bands (ev):

   -60.2513 -60.1568 -60.1094 -60.0173 -59.9714 -59.8793 -34.8774 -34.7763
   -34.6324 -34.4162 -34.3292 -34.2994 -34.2108 -34.2079 -34.1437 -34.1256
   -34.0573 -34.0207 -33.9354 -33.8773 -33.6810 -33.5981 -33.5422 -33.4714
    -4.8448  -4.7502  -4.5743  -4.5045  -4.4326  -4.3534  -4.2481  -4.2028
    -4.1477  -4.0324  -4.0322  -3.8915  -3.8367  -3.7872  -3.7483  -3.5949
    -3.4485  -3.4476  -3.3527  -3.2970  -3.2532  -3.1516  -3.0693  -3.0425
    -2.9227  -2.8121  -2.7636  -2.7604  -2.6818  -2.5299  -2.3622  -2.3578
    -2.1804  -2.1344  -1.8550  -1.6560  -1.3903  -1.2900  -1.1242  -1.0403
    -0.8322  -0.7430  -0.6524  -0.6046  -0.3762  -0.1467   0.0397   0.1339
     0.1998   0.5738   0.7855   1.0057   1.1344   1.4226   1.8033   1.8723
     2.0361   2.1677   2.2663   2.6224   2.8210   2.9514   2.9977   3.1238
     3.3687   3.9934

          k = 0.0466-0.0699 0.0000 ( 33075 PWs)   bands (ev):

   -60.2513 -60.1568 -60.1094 -60.0174 -59.9714 -59.8793 -34.8774 -34.7763
   -34.6323 -34.4161 -34.3291 -34.2990 -34.2108 -34.2079 -34.1436 -34.1256
   -34.0573 -34.0207 -33.9354 -33.8773 -33.6810 -33.5981 -33.5422 -33.4714
    -4.8667  -4.7715  -4.6240  -4.5591  -4.4394  -4.3890  -4.2552  -4.2513
    -4.1875  -4.1720  -4.0768  -3.9226  -3.8439  -3.7794  -3.7762  -3.5747
    -3.5058  -3.4750  -3.3322  -3.3079  -3.2716  -3.2257  -3.0654  -3.0178
    -2.9202  -2.8255  -2.7639  -2.7329  -2.6632  -2.4918  -2.3566  -2.2393
    -2.1486  -2.0926  -1.7779  -1.6523  -1.2935  -1.2582  -1.0875  -0.9495
    -0.8502  -0.7527  -0.5423  -0.4645  -0.3386  -0.0730   0.0933   0.2377
     0.2878   0.5997   0.7769   1.1010   1.1380   1.4075   1.7391   1.8181
     2.0862   2.1788   2.3002   2.6809   2.8569   2.9485   2.9770   3.1555
     3.3691   3.9442

          k = 0.0466-0.0543 0.0000 ( 33086 PWs)   bands (ev):

   -60.2514 -60.1568 -60.1094 -60.0174 -59.9714 -59.8793 -34.8772 -34.7763
   -34.6321 -34.4161 -34.3290 -34.2985 -34.2109 -34.2080 -34.1433 -34.1256
   -34.0571 -34.0206 -33.9352 -33.8773 -33.6810 -33.5982 -33.5422 -33.4714
    -4.9288  -4.8087  -4.7106  -4.6384  -4.4724  -4.4378  -4.3717  -4.2737
    -4.2198  -4.2174  -4.1457  -3.9930  -3.9331  -3.8071  -3.7855  -3.6163
    -3.5344  -3.5057  -3.3537  -3.3308  -3.2877  -3.2686  -3.0901  -2.9951
    -2.9132  -2.8343  -2.7611  -2.7241  -2.6568  -2.4827  -2.3556  -2.1351
    -2.0112  -1.8966  -1.6525  -1.6498  -1.2104  -1.1862  -1.0255  -0.8724
    -0.7707  -0.7572  -0.3933  -0.2769  -0.2373   0.1085   0.1631   0.4204
     0.4625   0.6422   0.8464   1.1452   1.2245   1.3760   1.6266   1.7537
     2.1456   2.2016   2.3312   2.7608   2.9213   2.9316   3.0100   3.2457
     3.3758   3.9094

          k = 0.0466-0.0388 0.0000 ( 33102 PWs)   bands (ev):

   -60.2513 -60.1569 -60.1094 -60.0174 -59.9713 -59.8794 -34.8770 -34.7763
   -34.6319 -34.4160 -34.3289 -34.2978 -34.2110 -34.2081 -34.1431 -34.1256
   -34.0570 -34.0204 -33.9351 -33.8773 -33.6810 -33.5982 -33.5422 -33.4714
    -5.0461  -4.8534  -4.7749  -4.7118  -4.5371  -4.4643  -4.4398  -4.3120
    -4.2612  -4.2432  -4.2181  -4.0925  -3.9928  -3.8647  -3.7880  -3.6920
    -3.6095  -3.4769  -3.4226  -3.3660  -3.2934  -3.2604  -3.1183  -2.9861
    -2.9034  -2.8236  -2.7528  -2.7311  -2.6577  -2.4991  -2.3513  -2.1025
    -1.7860  -1.6859  -1.5949  -1.5254  -1.1674  -1.1084  -0.9771  -0.8314
    -0.7411  -0.6730  -0.2151  -0.1574   0.0123   0.2464   0.3449   0.5299
     0.7502   0.7788   1.0081   1.1554   1.2682   1.3357   1.5655   1.7051
     2.1891   2.2393   2.3418   2.7979   2.8094   2.9599   3.2200   3.3959
     3.4717   3.8599

          k = 0.0466-0.0233 0.0000 ( 33143 PWs)   bands (ev):

   -60.2514 -60.1569 -60.1095 -60.0175 -59.9714 -59.8794 -34.8768 -34.7762
   -34.6318 -34.4159 -34.3289 -34.2973 -34.2110 -34.2081 -34.1428 -34.1256
   -34.0569 -34.0204 -33.9350 -33.8773 -33.6811 -33.5982 -33.5422 -33.4714
    -5.1643  -4.8937  -4.8051  -4.7625  -4.5880  -4.4966  -4.4712  -4.3564
    -4.3046  -4.2673  -4.2632  -4.1675  -4.0357  -3.9168  -3.7878  -3.7480
    -3.6726  -3.4861  -3.4785  -3.3746  -3.2950  -3.2482  -3.1444  -2.9817
    -2.8945  -2.8016  -2.7452  -2.7443  -2.6604  -2.5124  -2.3469  -2.0828
    -1.6649  -1.5825  -1.4309  -1.3806  -1.1453  -1.0682  -0.9589  -0.7844
    -0.7111  -0.6505  -0.1819   0.1170   0.2952   0.3707   0.5147   0.5451
     0.9630   1.0596   1.0618   1.2042   1.2485   1.3555   1.6839   1.6960
     2.2107   2.2834   2.3293   2.5632   2.8318   2.9427   3.3317   3.4392
     3.4915   3.6669

          k = 0.0466-0.0078 0.0000 ( 33114 PWs)   bands (ev):

   -60.2514 -60.1568 -60.1094 -60.0174 -59.9714 -59.8794 -34.8767 -34.7762
   -34.6317 -34.4158 -34.3288 -34.2969 -34.2111 -34.2081 -34.1427 -34.1256
   -34.0568 -34.0203 -33.9349 -33.8773 -33.6810 -33.5982 -33.5422 -33.4714
    -5.2322  -4.9174  -4.8176  -4.7875  -4.6160  -4.5184  -4.4836  -4.3832
    -4.3413  -4.2849  -4.2749  -4.2042  -4.0592  -3.9466  -3.7875  -3.7761
    -3.7066  -3.5238  -3.4884  -3.3716  -3.2951  -3.2402  -3.1595  -2.9792
    -2.8889  -2.7845  -2.7539  -2.7421  -2.6628  -2.5186  -2.3444  -2.0733
    -1.6626  -1.4505  -1.3844  -1.2216  -1.1424  -1.0836  -0.9490  -0.7530
    -0.6897  -0.6617  -0.1770   0.3183   0.4568   0.5001   0.5906   0.6608
     0.8205   1.0731   1.1653   1.2904   1.3172   1.4804   1.8434   1.8681
     2.1910   2.2250   2.2888   2.4238   2.8310   2.8377   2.9164   3.4581
     3.4911   3.7864

          k = 0.0466 0.0078 0.0000 ( 33114 PWs)   bands (ev):

   -60.2514 -60.1568 -60.1094 -60.0174 -59.9714 -59.8794 -34.8767 -34.7762
   -34.6317 -34.4158 -34.3288 -34.2969 -34.2111 -34.2081 -34.1427 -34.1256
   -34.0568 -34.0203 -33.9349 -33.8773 -33.6810 -33.5982 -33.5422 -33.4714
    -5.2322  -4.9174  -4.8176  -4.7875  -4.6160  -4.5184  -4.4836  -4.3831
    -4.3413  -4.2849  -4.2749  -4.2042  -4.0592  -3.9466  -3.7875  -3.7761
    -3.7066  -3.5238  -3.4884  -3.3716  -3.2952  -3.2403  -3.1595  -2.9792
    -2.8889  -2.7845  -2.7539  -2.7421  -2.6628  -2.5186  -2.3444  -2.0733
    -1.6626  -1.4505  -1.3845  -1.2215  -1.1424  -1.0836  -0.9490  -0.7530
    -0.6897  -0.6617  -0.1770   0.3183   0.4567   0.5002   0.5904   0.6608
     0.8206   1.0731   1.1653   1.2904   1.3173   1.4803   1.8433   1.8682
     2.1908   2.2251   2.2887   2.4238   2.8310   2.8377   2.9164   3.4581
     3.4911   3.7863

          k = 0.0621 0.0311 0.0000 ( 33128 PWs)   bands (ev):

   -60.2377 -60.1708 -60.0961 -60.0310 -59.9580 -59.8930 -34.8623 -34.7912
   -34.5251 -34.3118 -34.2845 -34.2255 -34.2215 -34.1988 -34.1381 -34.1305
   -34.0697 -34.0080 -33.9915 -33.9477 -33.7924 -33.7088 -33.5321 -33.4819
    -4.8309  -4.7400  -4.6365  -4.6056  -4.4862  -4.3899  -4.3396  -4.2836
    -4.1935  -4.1489  -4.0836  -3.9933  -3.8954  -3.8418  -3.7286  -3.6743
    -3.5981  -3.5728  -3.4701  -3.4268  -3.3281  -3.2281  -3.1231  -3.0787
    -2.9694  -2.9036  -2.8523  -2.8174  -2.7993  -2.5257  -2.4323  -2.4141
    -1.9795  -1.5759  -1.5009  -1.3431  -1.2481  -1.0617  -1.0227  -0.6708
    -0.6089  -0.3060  -0.1107  -0.0160   0.1768   0.2985   0.4609   0.5182
     0.7715   0.7903   0.9057   1.0667   1.1243   1.1922   1.4442   1.5510
     1.7904   2.0376   2.2014   2.5172   2.6963   2.9046   2.9936   3.2911
     3.4705   3.4892

          k = 0.0621 0.0466 0.0000 ( 33103 PWs)   bands (ev):

   -60.2377 -60.1708 -60.0961 -60.0310 -59.9580 -59.8930 -34.8625 -34.7912
   -34.5253 -34.3119 -34.2851 -34.2255 -34.2213 -34.1987 -34.1381 -34.1307
   -34.0698 -34.0081 -33.9914 -33.9478 -33.7924 -33.7088 -33.5321 -33.4819
    -4.6995  -4.6973  -4.6270  -4.5511  -4.4494  -4.3390  -4.3246  -4.2415
    -4.1759  -4.0872  -4.0157  -3.9685  -3.8531  -3.8192  -3.7151  -3.6716
    -3.5872  -3.5343  -3.4514  -3.3813  -3.3136  -3.2161  -3.1143  -3.0993
    -2.9681  -2.9183  -2.8639  -2.8223  -2.7852  -2.5122  -2.4671  -2.3900
    -2.0879  -1.7761  -1.6059  -1.3884  -1.3738  -1.0439  -1.0186  -0.7073
    -0.6965  -0.3332  -0.2140  -0.1297  -0.0977   0.2607   0.3267   0.4555
     0.5108   0.7143   0.8302   1.0779   1.1748   1.2226   1.3767   1.5825
     1.7720   2.0282   2.1884   2.6228   2.7206   2.9491   2.9818   3.2093
     3.3589   3.5212

          k = 0.0621 0.0621 0.0000 ( 33110 PWs)   bands (ev):

   -60.2377 -60.1708 -60.0961 -60.0310 -59.9580 -59.8929 -34.8626 -34.7912
   -34.5255 -34.3120 -34.2856 -34.2256 -34.2212 -34.1987 -34.1381 -34.1309
   -34.0698 -34.0082 -33.9914 -33.9479 -33.7924 -33.7087 -33.5321 -33.4819
    -4.6542  -4.6187  -4.5680  -4.4752  -4.4011  -4.3131  -4.2599  -4.2025
    -4.1596  -4.0231  -3.9458  -3.9442  -3.8045  -3.7988  -3.7140  -3.6628
    -3.5995  -3.4723  -3.4397  -3.3441  -3.2770  -3.2002  -3.1319  -3.1106
    -2.9625  -2.9252  -2.8884  -2.8242  -2.7719  -2.5146  -2.5068  -2.3722
    -2.2039  -1.9736  -1.7796  -1.4238  -1.4044  -1.0340  -1.0107  -0.8287
    -0.7726  -0.3682  -0.3526  -0.3349  -0.1578   0.1181   0.1989   0.3748
     0.4620   0.6970   0.7391   1.0951   1.1236   1.2753   1.4134   1.6070
     1.7719   1.9985   2.1372   2.5369   2.8227   2.8285   2.9664   3.0643
     3.2643   3.4292

          k = 0.0621 0.0776 0.0000 ( 33086 PWs)   bands (ev):

   -60.2376 -60.1708 -60.0961 -60.0309 -59.9581 -59.8929 -34.8627 -34.7912
   -34.5256 -34.3120 -34.2860 -34.2257 -34.2211 -34.1986 -34.1381 -34.1311
   -34.0699 -34.0082 -33.9914 -33.9479 -33.7923 -33.7087 -33.5321 -33.4819
    -4.6225  -4.6117  -4.4932  -4.3977  -4.3518  -4.3066  -4.1954  -4.1795
    -4.0886  -3.9839  -3.9295  -3.8890  -3.8045  -3.7606  -3.7440  -3.6501
    -3.5996  -3.4303  -3.4151  -3.3266  -3.2576  -3.1833  -3.1439  -3.1122
    -2.9619  -2.9249  -2.9210  -2.8259  -2.7604  -2.5579  -2.5061  -2.4005
    -2.2854  -2.1231  -1.8758  -1.4429  -1.4065  -1.0636  -1.0486  -0.8779
    -0.8087  -0.5687  -0.4563  -0.3249  -0.1908   0.0165   0.1566   0.2802
     0.4425   0.6391   0.7726   1.0485   1.1015   1.3207   1.4724   1.6267
     1.7794   1.9690   2.0620   2.4621   2.6238   2.8826   2.9662   3.0122
     3.1977   3.4849

          k = 0.0621 0.0932 0.0000 ( 33076 PWs)   bands (ev):

   -60.2376 -60.1708 -60.0961 -60.0309 -59.9581 -59.8928 -34.8628 -34.7912
   -34.5256 -34.3121 -34.2861 -34.2257 -34.2210 -34.1986 -34.1381 -34.1312
   -34.0699 -34.0083 -33.9914 -33.9479 -33.7923 -33.7087 -33.5321 -33.4819
    -4.6108  -4.6092  -4.4725  -4.3612  -4.3304  -4.3047  -4.1907  -4.1744
    -3.9826  -3.9747  -3.9335  -3.8644  -3.8542  -3.7569  -3.7415  -3.6441
    -3.5974  -3.4160  -3.3892  -3.3240  -3.2746  -3.1751  -3.1259  -3.1135
    -2.9718  -2.9345  -2.9238  -2.8281  -2.7552  -2.5737  -2.5061  -2.4312
    -2.3124  -2.1815  -1.8907  -1.4475  -1.4037  -1.0953  -1.0869  -0.8603
    -0.8028  -0.6637  -0.4888  -0.3231  -0.2049  -0.0118   0.1424   0.2453
     0.4330   0.6074   0.8107   1.0111   1.1027   1.3373   1.4984   1.6346
     1.7844   1.9564   2.0239   2.4224   2.5569   2.9016   2.9622   2.9992
     3.1876   3.5053

          k = 0.0621 0.1087 0.0000 ( 33086 PWs)   bands (ev):

   -60.2376 -60.1708 -60.0961 -60.0309 -59.9581 -59.8929 -34.8627 -34.7912
   -34.5256 -34.3120 -34.2860 -34.2257 -34.2211 -34.1986 -34.1381 -34.1311
   -34.0699 -34.0082 -33.9914 -33.9479 -33.7923 -33.7087 -33.5321 -33.4819
    -4.6225  -4.6117  -4.4932  -4.3977  -4.3518  -4.3067  -4.1954  -4.1795
    -4.0887  -3.9839  -3.9296  -3.8890  -3.8045  -3.7606  -3.7440  -3.6501
    -3.5996  -3.4303  -3.4151  -3.3266  -3.2576  -3.1833  -3.1439  -3.1121
    -2.9620  -2.9249  -2.9209  -2.8259  -2.7604  -2.5579  -2.5061  -2.4006
    -2.2854  -2.1232  -1.8758  -1.4429  -1.4064  -1.0635  -1.0487  -0.8779
    -0.8086  -0.5686  -0.4563  -0.3249  -0.1909   0.0165   0.1565   0.2802
     0.4425   0.6391   0.7725   1.0485   1.1015   1.3207   1.4724   1.6268
     1.7794   1.9690   2.0620   2.4621   2.6238   2.8826   2.9663   3.0122
     3.1978   3.4850

          k = 0.0621-0.0621 0.0000 ( 33110 PWs)   bands (ev):

   -60.2377 -60.1708 -60.0961 -60.0310 -59.9580 -59.8929 -34.8626 -34.7912
   -34.5255 -34.3120 -34.2856 -34.2256 -34.2212 -34.1987 -34.1381 -34.1309
   -34.0698 -34.0082 -33.9914 -33.9479 -33.7924 -33.7087 -33.5321 -33.4819
    -4.6542  -4.6187  -4.5680  -4.4752  -4.4011  -4.3131  -4.2599  -4.2025
    -4.1596  -4.0231  -3.9458  -3.9443  -3.8045  -3.7987  -3.7140  -3.6628
    -3.5995  -3.4723  -3.4397  -3.3441  -3.2770  -3.2002  -3.1319  -3.1105
    -2.9626  -2.9253  -2.8884  -2.8242  -2.7719  -2.5146  -2.5068  -2.3722
    -2.2039  -1.9736  -1.7796  -1.4238  -1.4044  -1.0339  -1.0108  -0.8288
    -0.7725  -0.3681  -0.3525  -0.3350  -0.1577   0.1181   0.1989   0.3748
     0.4620   0.6969   0.7392   1.0951   1.1237   1.2753   1.4135   1.6070
     1.7720   1.9985   2.1373   2.5368   2.8227   2.8285   2.9664   3.0643
     3.2644   3.4293

          k = 0.0621-0.0466 0.0000 ( 33103 PWs)   bands (ev):

   -60.2377 -60.1708 -60.0961 -60.0310 -59.9580 -59.8930 -34.8625 -34.7912
   -34.5253 -34.3119 -34.2851 -34.2255 -34.2213 -34.1987 -34.1381 -34.1307
   -34.0698 -34.0081 -33.9914 -33.9478 -33.7924 -33.7088 -33.5321 -33.4819
    -4.6995  -4.6974  -4.6270  -4.5511  -4.4494  -4.3390  -4.3246  -4.2415
    -4.1759  -4.0872  -4.0157  -3.9685  -3.8531  -3.8191  -3.7151  -3.6716
    -3.5872  -3.5344  -3.4513  -3.3813  -3.3136  -3.2160  -3.1142  -3.0994
    -2.9681  -2.9183  -2.8638  -2.8223  -2.7852  -2.5122  -2.4671  -2.3900
    -2.0879  -1.7762  -1.6059  -1.3885  -1.3738  -1.0438  -1.0186  -0.7073
    -0.6965  -0.3333  -0.2140  -0.1296  -0.0975   0.2607   0.3267   0.4555
     0.5108   0.7143   0.8303   1.0778   1.1747   1.2225   1.3767   1.5826
     1.7720   2.0282   2.1885   2.6227   2.7206   2.9492   2.9817   3.2094
     3.3590   3.5214

          k = 0.0621-0.0311 0.0000 ( 33128 PWs)   bands (ev):

   -60.2377 -60.1708 -60.0961 -60.0310 -59.9580 -59.8930 -34.8623 -34.7912
   -34.5251 -34.3118 -34.2845 -34.2255 -34.2215 -34.1988 -34.1381 -34.1305
   -34.0697 -34.0080 -33.9915 -33.9477 -33.7924 -33.7088 -33.5321 -33.4819
    -4.8309  -4.7400  -4.6365  -4.6056  -4.4862  -4.3899  -4.3396  -4.2836
    -4.1935  -4.1489  -4.0836  -3.9934  -3.8954  -3.8417  -3.7286  -3.6743
    -3.5981  -3.5728  -3.4701  -3.4268  -3.3281  -3.2281  -3.1231  -3.0787
    -2.9695  -2.9036  -2.8522  -2.8174  -2.7993  -2.5257  -2.4323  -2.4141
    -1.9795  -1.5760  -1.5009  -1.3431  -1.2482  -1.0617  -1.0227  -0.6708
    -0.6089  -0.3060  -0.1106  -0.0160   0.1770   0.2984   0.4609   0.5182
     0.7715   0.7903   0.9057   1.0667   1.1243   1.1921   1.4443   1.5511
     1.7904   2.0376   2.2015   2.5172   2.6962   2.9047   2.9935   3.2912
     3.4705   3.4893

          k = 0.0621-0.0155 0.0000 ( 33109 PWs)   bands (ev):

   -60.2377 -60.1708 -60.0961 -60.0310 -59.9580 -59.8930 -34.8622 -34.7912
   -34.5250 -34.3117 -34.2841 -34.2254 -34.2216 -34.1989 -34.1381 -34.1303
   -34.0696 -34.0080 -33.9915 -33.9476 -33.7924 -33.7088 -33.5321 -33.4819
    -4.9212  -4.7698  -4.6434  -4.6365  -4.5102  -4.4197  -4.3534  -4.3165
    -4.2092  -4.1895  -4.1312  -4.0108  -3.9242  -3.8589  -3.7372  -3.6748
    -3.6437  -3.5637  -3.4911  -3.4638  -3.3270  -3.2363  -3.1305  -3.0720
    -2.9647  -2.8896  -2.8498  -2.8122  -2.8111  -2.5411  -2.4255  -2.4123
    -1.9085  -1.4770  -1.4335  -1.2834  -1.0995  -1.0877  -0.9914  -0.7085
    -0.5629  -0.2766  -0.0960   0.1851   0.2732   0.4149   0.5549   0.5800
     0.8511   0.9110   1.0655   1.0861   1.1548   1.2139   1.4842   1.5449
     1.8502   2.0107   2.1976   2.2636   2.7455   2.7836   2.9618   2.9739
     3.2826   3.5878

          k = 0.0621 0.0000 0.0000 ( 33100 PWs)   bands (ev):

   -60.2377 -60.1707 -60.0961 -60.0310 -59.9580 -59.8930 -34.8622 -34.7912
   -34.5249 -34.3117 -34.2839 -34.2254 -34.2216 -34.1989 -34.1380 -34.1303
   -34.0696 -34.0080 -33.9915 -33.9475 -33.7924 -33.7088 -33.5321 -33.4819
    -4.9529  -4.7801  -4.6463  -4.6459  -4.5186  -4.4297  -4.3593  -4.3293
    -4.2155  -4.2029  -4.1483  -4.0169  -3.9344  -3.8654  -3.7395  -3.6754
    -3.6594  -3.5604  -3.5004  -3.4779  -3.3249  -3.2394  -3.1332  -3.0714
    -2.9612  -2.8840  -2.8504  -2.8158  -2.8099  -2.5476  -2.4283  -2.4058
    -1.8844  -1.4725  -1.3922  -1.2326  -1.1125  -1.0637  -0.9276  -0.7545
    -0.5521  -0.2657  -0.0893   0.2557   0.2998   0.4214   0.6365   0.6819
     0.8000   0.9427   1.0447   1.1373   1.2099   1.3618   1.4004   1.5914
     1.9205   1.9682   2.1940   2.2452   2.4704   2.7648   2.8718   2.9624
     3.2663   3.5403

          k = 0.0621 0.0155 0.0000 ( 33109 PWs)   bands (ev):

   -60.2377 -60.1708 -60.0961 -60.0310 -59.9580 -59.8930 -34.8622 -34.7912
   -34.5250 -34.3117 -34.2841 -34.2254 -34.2216 -34.1989 -34.1381 -34.1303
   -34.0696 -34.0080 -33.9915 -33.9476 -33.7924 -33.7088 -33.5321 -33.4819
    -4.9212  -4.7698  -4.6434  -4.6365  -4.5102  -4.4197  -4.3534  -4.3165
    -4.2092  -4.1895  -4.1312  -4.0108  -3.9242  -3.8589  -3.7372  -3.6748
    -3.6437  -3.5637  -3.4911  -3.4638  -3.3270  -3.2363  -3.1305  -3.0720
    -2.9646  -2.8896  -2.8498  -2.8122  -2.8111  -2.5411  -2.4255  -2.4123
    -1.9085  -1.4770  -1.4334  -1.2834  -1.0994  -1.0877  -0.9914  -0.7085
    -0.5630  -0.2766  -0.0960   0.1851   0.2732   0.4148   0.5549   0.5801
     0.8512   0.9110   1.0655   1.0862   1.1547   1.2139   1.4841   1.5449
     1.8502   2.0108   2.1975   2.2635   2.7455   2.7836   2.9617   2.9740
     3.2827   3.5878

          k = 0.0777 0.0388 0.0000 ( 33093 PWs)   bands (ev):

   -60.2217 -60.1870 -60.0805 -60.0468 -59.9424 -59.9087 -34.8453 -34.8085
   -34.3995 -34.2695 -34.2369 -34.1891 -34.1853 -34.1526 -34.1230 -34.1150
   -34.1034 -34.0845 -33.9936 -33.9623 -33.9204 -33.8361 -33.5201 -33.4941
    -4.6049  -4.5773  -4.4424  -4.4421  -4.3626  -4.3407  -4.2625  -4.2600
    -4.0441  -4.0436  -3.9690  -3.8304  -3.7916  -3.7628  -3.6750  -3.5993
    -3.5714  -3.5317  -3.4679  -3.3852  -3.3291  -3.2446  -3.2374  -3.1018
    -3.0461  -3.0161  -2.9725  -2.8666  -2.8627  -2.8091  -2.6658  -2.4878
    -2.2523  -1.7101  -1.5075  -1.4616  -1.1670  -1.1360  -0.9194  -0.6779
    -0.5326  -0.0991   0.0141   0.0829   0.1731   0.4414   0.4949   0.5629
     0.5638   0.7045   0.7657   0.9604   1.0633   1.0762   1.2145   1.2768
     1.3956   1.7604   2.1340   2.3991   2.5057   2.6150   2.9859   3.0327
     3.3820   3.5236

          k = 0.0777 0.0543 0.0000 ( 33151 PWs)   bands (ev):

   -60.2217 -60.1871 -60.0805 -60.0468 -59.9425 -59.9088 -34.8454 -34.8085
   -34.3996 -34.2700 -34.2367 -34.1892 -34.1852 -34.1526 -34.1230 -34.1151
   -34.1035 -34.0845 -33.9936 -33.9624 -33.9203 -33.8361 -33.5201 -33.4941
    -4.5584  -4.5410  -4.4064  -4.4052  -4.3460  -4.3068  -4.2352  -4.2346
    -4.0444  -4.0103  -3.9123  -3.8347  -3.7830  -3.7411  -3.6805  -3.6027
    -3.5491  -3.4903  -3.4613  -3.3609  -3.3172  -3.2510  -3.2305  -3.1169
    -3.0506  -3.0194  -2.9608  -2.8977  -2.8512  -2.8292  -2.6615  -2.5808
    -2.2112  -1.8150  -1.5800  -1.5657  -1.1570  -1.1326  -0.8544  -0.7818
    -0.5821  -0.2574  -0.1261   0.0288   0.1645   0.3268   0.4332   0.5301
     0.5610   0.7504   0.7820   0.9904   1.0609   1.0849   1.2011   1.2466
     1.4050   1.7442   2.0490   2.4650   2.5246   2.6989   2.9645   2.9791
     3.2581   3.3795

          k = 0.0777 0.0699 0.0000 ( 33127 PWs)   bands (ev):

   -60.2216 -60.1871 -60.0805 -60.0468 -59.9425 -59.9087 -34.8455 -34.8084
   -34.3998 -34.2704 -34.2364 -34.1893 -34.1852 -34.1527 -34.1230 -34.1151
   -34.1036 -34.0845 -33.9937 -33.9625 -33.9203 -33.8360 -33.5201 -33.4941
    -4.5291  -4.5051  -4.3715  -4.3664  -4.3100  -4.2783  -4.2088  -4.1926
    -4.0459  -4.0126  -3.8469  -3.8385  -3.7817  -3.7228  -3.6876  -3.6021
    -3.5168  -3.4606  -3.4507  -3.3480  -3.3345  -3.2302  -3.2281  -3.1286
    -3.0712  -3.0285  -2.9513  -2.9470  -2.8361  -2.8347  -2.6588  -2.6541
    -2.2009  -1.9233  -1.6454  -1.6261  -1.1498  -1.1108  -0.8627  -0.8417
    -0.5598  -0.4022  -0.2448   0.0493   0.1698   0.2227   0.3056   0.4555
     0.6633   0.7619   0.8415   1.0469   1.0663   1.0888   1.1935   1.2731
     1.4353   1.7162   1.9145   2.3164   2.6166   2.7013   2.8066   2.9578
     3.1344   3.1778

          k = 0.0777 0.0854 0.0000 ( 33103 PWs)   bands (ev):

   -60.2216 -60.1870 -60.0805 -60.0467 -59.9425 -59.9087 -34.8456 -34.8084
   -34.3998 -34.2706 -34.2363 -34.1893 -34.1852 -34.1526 -34.1230 -34.1152
   -34.1036 -34.0844 -33.9937 -33.9625 -33.9203 -33.8360 -33.5201 -33.4940
    -4.5163  -4.4836  -4.3564  -4.3390  -4.2730  -4.2680  -4.1715  -4.1571
    -4.0523  -4.0354  -3.8476  -3.8014  -3.7912  -3.7057  -3.6877  -3.5988
    -3.4872  -3.4536  -3.4320  -3.3713  -3.3460  -3.2326  -3.1877  -3.1344
    -3.1031  -3.0408  -2.9784  -2.9466  -2.8360  -2.8230  -2.6936  -2.6545
    -2.2173  -1.9869  -1.6749  -1.6543  -1.1514  -1.0774  -0.8961  -0.8947
    -0.4900  -0.4726  -0.2962   0.0456   0.1513   0.1773   0.2575   0.4046
     0.7023   0.7592   0.9128   1.0632   1.0769   1.0862   1.1947   1.3442
     1.4602   1.6959   1.7974   2.2547   2.4072   2.6727   2.8493   2.9375
     3.0890   3.1273

          k = 0.0777 0.1009 0.0000 ( 33103 PWs)   bands (ev):

   -60.2216 -60.1870 -60.0805 -60.0467 -59.9425 -59.9087 -34.8456 -34.8084
   -34.3998 -34.2706 -34.2363 -34.1893 -34.1852 -34.1526 -34.1230 -34.1152
   -34.1036 -34.0844 -33.9937 -33.9625 -33.9203 -33.8360 -33.5201 -33.4940
    -4.5163  -4.4836  -4.3564  -4.3390  -4.2730  -4.2680  -4.1715  -4.1571
    -4.0523  -4.0354  -3.8476  -3.8015  -3.7912  -3.7057  -3.6877  -3.5988
    -3.4872  -3.4536  -3.4320  -3.3713  -3.3460  -3.2326  -3.1876  -3.1344
    -3.1031  -3.0408  -2.9784  -2.9466  -2.8360  -2.8230  -2.6936  -2.6545
    -2.2173  -1.9869  -1.6749  -1.6543  -1.1514  -1.0774  -0.8961  -0.8947
    -0.4900  -0.4725  -0.2962   0.0455   0.1514   0.1773   0.2575   0.4046
     0.7024   0.7592   0.9128   1.0632   1.0769   1.0862   1.1946   1.3442
     1.4602   1.6959   1.7975   2.2547   2.4072   2.6728   2.8493   2.9375
     3.0890   3.1273

          k = 0.0777 0.1164 0.0000 ( 33127 PWs)   bands (ev):

   -60.2216 -60.1871 -60.0805 -60.0468 -59.9425 -59.9087 -34.8455 -34.8084
   -34.3998 -34.2704 -34.2364 -34.1893 -34.1852 -34.1527 -34.1230 -34.1151
   -34.1036 -34.0845 -33.9937 -33.9625 -33.9203 -33.8360 -33.5201 -33.4941
    -4.5291  -4.5051  -4.3715  -4.3664  -4.3100  -4.2783  -4.2088  -4.1926
    -4.0459  -4.0126  -3.8469  -3.8384  -3.7816  -3.7228  -3.6876  -3.6021
    -3.5167  -3.4606  -3.4507  -3.3480  -3.3345  -3.2302  -3.2281  -3.1285
    -3.0712  -3.0286  -2.9513  -2.9470  -2.8361  -2.8347  -2.6587  -2.6541
    -2.2009  -1.9234  -1.6454  -1.6261  -1.1498  -1.1107  -0.8627  -0.8418
    -0.5597  -0.4022  -0.2447   0.0492   0.1699   0.2228   0.3055   0.4554
     0.6634   0.7619   0.8415   1.0470   1.0662   1.0887   1.1935   1.2731
     1.4353   1.7162   1.9146   2.3163   2.6168   2.7013   2.8066   2.9578
     3.1344   3.1778

          k = 0.0777-0.0543 0.0000 ( 33151 PWs)   bands (ev):

   -60.2217 -60.1871 -60.0805 -60.0468 -59.9425 -59.9088 -34.8454 -34.8085
   -34.3996 -34.2700 -34.2367 -34.1892 -34.1852 -34.1526 -34.1230 -34.1151
   -34.1035 -34.0845 -33.9936 -33.9624 -33.9203 -33.8361 -33.5201 -33.4941
    -4.5584  -4.5411  -4.4064  -4.4052  -4.3460  -4.3068  -4.2352  -4.2346
    -4.0444  -4.0103  -3.9123  -3.8347  -3.7830  -3.7411  -3.6805  -3.6027
    -3.5491  -3.4903  -3.4613  -3.3609  -3.3172  -3.2510  -3.2305  -3.1168
    -3.0506  -3.0195  -2.9609  -2.8977  -2.8512  -2.8292  -2.6615  -2.5808
    -2.2111  -1.8150  -1.5800  -1.5658  -1.1570  -1.1326  -0.8544  -0.7818
    -0.5821  -0.2574  -0.1260   0.0288   0.1646   0.3269   0.4332   0.5301
     0.5610   0.7503   0.7821   0.9905   1.0608   1.0848   1.2011   1.2467
     1.4050   1.7442   2.0491   2.4649   2.5248   2.6989   2.9645   2.9791
     3.2581   3.3796

          k = 0.0777-0.0388 0.0000 ( 33093 PWs)   bands (ev):

   -60.2217 -60.1870 -60.0805 -60.0468 -59.9424 -59.9087 -34.8453 -34.8085
   -34.3995 -34.2695 -34.2369 -34.1891 -34.1853 -34.1526 -34.1230 -34.1150
   -34.1034 -34.0845 -33.9936 -33.9623 -33.9204 -33.8361 -33.5201 -33.4941
    -4.6049  -4.5773  -4.4424  -4.4421  -4.3626  -4.3407  -4.2625  -4.2601
    -4.0441  -4.0436  -3.9690  -3.8304  -3.7916  -3.7628  -3.6750  -3.5993
    -3.5713  -3.5317  -3.4679  -3.3852  -3.3291  -3.2446  -3.2373  -3.1017
    -3.0461  -3.0162  -2.9725  -2.8666  -2.8627  -2.8091  -2.6658  -2.4879
    -2.2522  -1.7101  -1.5076  -1.4616  -1.1670  -1.1361  -0.9194  -0.6779
    -0.5327  -0.0991   0.0141   0.0830   0.1732   0.4414   0.4950   0.5629
     0.5638   0.7045   0.7657   0.9604   1.0633   1.0761   1.2146   1.2768
     1.3956   1.7604   2.1341   2.3993   2.5057   2.6149   2.9859   3.0327
     3.3820   3.5236

          k = 0.0777-0.0233 0.0000 ( 33117 PWs)   bands (ev):

   -60.2217 -60.1870 -60.0805 -60.0468 -59.9424 -59.9088 -34.8452 -34.8085
   -34.3993 -34.2691 -34.2371 -34.1891 -34.1854 -34.1526 -34.1230 -34.1149
   -34.1033 -34.0845 -33.9936 -33.9623 -33.9204 -33.8361 -33.5200 -33.4941
    -4.6536  -4.6019  -4.4656  -4.4643  -4.3727  -4.3636  -4.2906  -4.2744
    -4.0839  -4.0488  -4.0089  -3.8274  -3.7929  -3.7836  -3.6760  -3.5989
    -3.5950  -3.5549  -3.4736  -3.4110  -3.3384  -3.2462  -3.2425  -3.0886
    -3.0507  -3.0156  -2.9828  -2.8714  -2.8560  -2.7847  -2.6708  -2.4073
    -2.2954  -1.6539  -1.4104  -1.3872  -1.1672  -1.1197  -0.9614  -0.5911
    -0.4824   0.0083   0.0596   0.1886   0.3387   0.3577   0.4957   0.6098
     0.7031   0.7063   0.7778   0.9942   1.0339   1.1236   1.2459   1.3136
     1.4529   1.7284   2.1800   2.2220   2.2781   2.7087   2.9509   3.0107
     3.0346   3.3737

          k = 0.0777-0.0078 0.0000 ( 33118 PWs)   bands (ev):

   -60.2217 -60.1870 -60.0805 -60.0468 -59.9424 -59.9088 -34.8452 -34.8085
   -34.3993 -34.2689 -34.2372 -34.1890 -34.1854 -34.1526 -34.1230 -34.1149
   -34.1033 -34.0845 -33.9936 -33.9623 -33.9204 -33.8361 -33.5201 -33.4941
    -4.6835  -4.6127  -4.4751  -4.4744  -4.3788  -4.3742  -4.3094  -4.2815
    -4.1083  -4.0534  -4.0301  -3.8287  -3.7959  -3.7869  -3.6794  -3.6225
    -3.5924  -3.5596  -3.4775  -3.4276  -3.3408  -3.2521  -3.2462  -3.0812
    -3.0551  -3.0155  -2.9893  -2.8767  -2.8518  -2.7715  -2.6745  -2.3625
    -2.3204  -1.6330  -1.3576  -1.3488  -1.1547  -1.0978  -0.9793  -0.5431
    -0.4476  -0.0010   0.1877   0.2019   0.3109   0.3849   0.5855   0.6196
     0.6984   0.8036   0.8322   1.0036   1.0511   1.1612   1.2865   1.3338
     1.5896   1.6440   2.0871   2.1887   2.2021   2.4677   2.7538   2.9594
     3.0219   3.3661

          k = 0.0777 0.0078 0.0000 ( 33118 PWs)   bands (ev):

   -60.2217 -60.1870 -60.0805 -60.0468 -59.9424 -59.9088 -34.8452 -34.8085
   -34.3993 -34.2689 -34.2372 -34.1890 -34.1854 -34.1526 -34.1230 -34.1149
   -34.1033 -34.0845 -33.9936 -33.9623 -33.9204 -33.8361 -33.5201 -33.4941
    -4.6835  -4.6127  -4.4751  -4.4744  -4.3788  -4.3742  -4.3094  -4.2815
    -4.1083  -4.0534  -4.0301  -3.8287  -3.7959  -3.7869  -3.6794  -3.6225
    -3.5924  -3.5596  -3.4775  -3.4276  -3.3408  -3.2521  -3.2462  -3.0812
    -3.0551  -3.0155  -2.9893  -2.8767  -2.8518  -2.7715  -2.6745  -2.3625
    -2.3204  -1.6330  -1.3577  -1.3488  -1.1546  -1.0978  -0.9793  -0.5431
    -0.4476  -0.0011   0.1877   0.2019   0.3109   0.3848   0.5855   0.6196
     0.6984   0.8036   0.8323   1.0036   1.0512   1.1612   1.2865   1.3338
     1.5896   1.6440   2.0870   2.1888   2.2021   2.4676   2.7538   2.9594
     3.0219   3.3660

          k = 0.0777 0.0233 0.0000 ( 33117 PWs)   bands (ev):

   -60.2217 -60.1870 -60.0805 -60.0468 -59.9424 -59.9088 -34.8452 -34.8085
   -34.3993 -34.2691 -34.2371 -34.1891 -34.1854 -34.1526 -34.1230 -34.1149
   -34.1033 -34.0845 -33.9936 -33.9623 -33.9204 -33.8361 -33.5200 -33.4941
    -4.6536  -4.6019  -4.4656  -4.4643  -4.3727  -4.3636  -4.2906  -4.2744
    -4.0839  -4.0488  -4.0089  -3.8274  -3.7929  -3.7836  -3.6760  -3.5990
    -3.5950  -3.5549  -3.4736  -3.4110  -3.3384  -3.2463  -3.2425  -3.0887
    -3.0507  -3.0155  -2.9828  -2.8714  -2.8560  -2.7848  -2.6708  -2.4073
    -2.2954  -1.6539  -1.4103  -1.3873  -1.1672  -1.1197  -0.9614  -0.5912
    -0.4824   0.0082   0.0596   0.1886   0.3386   0.3577   0.4957   0.6097
     0.7031   0.7063   0.7779   0.9943   1.0340   1.1236   1.2459   1.3136
     1.4529   1.7284   2.1798   2.2218   2.2781   2.7087   2.9507   3.0108
     3.0347   3.3737

          k =-0.0932-0.0466 0.0000 ( 33126 PWs)   bands (ev):

   -60.2044 -60.2043 -60.0637 -60.0636 -59.9257 -59.9255 -34.8272 -34.8267
   -34.2633 -34.2632 -34.2533 -34.2532 -34.1676 -34.1675 -34.1004 -34.1003
   -34.0558 -34.0557 -33.9782 -33.9780 -33.9708 -33.9706 -33.5073 -33.5069
    -4.5190  -4.5187  -4.3990  -4.3987  -4.2709  -4.2707  -4.2294  -4.2288
    -4.0320  -4.0318  -3.8598  -3.8585  -3.7423  -3.7404  -3.5550  -3.5549
    -3.4877  -3.4842  -3.3795  -3.3751  -3.3119  -3.3100  -3.2683  -3.2648
    -3.1029  -3.0986  -2.9433  -2.9415  -2.8838  -2.8815  -2.7639  -2.7578
    -2.0112  -2.0087  -1.4736  -1.4735  -1.1708  -1.1706  -0.7890  -0.7888
    -0.3355  -0.3347   0.0743   0.0744   0.4717   0.4724   0.5940   0.5944
     0.7000   0.7009   0.8564   0.8566   0.9011   0.9021   1.1827   1.1830
     1.3126   1.3129   2.1553   2.1555   2.5558   2.5563   2.9649   2.9652
     3.4910   3.4918

          k =-0.0932-0.0311 0.0000 ( 33117 PWs)   bands (ev):

   -60.2044 -60.2043 -60.0637 -60.0636 -59.9257 -59.9255 -34.8272 -34.8267
   -34.2633 -34.2631 -34.2536 -34.2529 -34.1676 -34.1675 -34.1004 -34.1002
   -34.0558 -34.0556 -33.9782 -33.9780 -33.9708 -33.9705 -33.5073 -33.5069
    -4.5260  -4.5048  -4.4050  -4.3834  -4.2800  -4.2591  -4.2425  -4.2175
    -4.0554  -4.0148  -3.8709  -3.8667  -3.7398  -3.7242  -3.5816  -3.5398
    -3.5015  -3.4545  -3.3939  -3.3551  -3.3275  -3.3041  -3.2793  -3.2610
    -3.1370  -3.0738  -2.9845  -2.9154  -2.8859  -2.8786  -2.7798  -2.7258
    -2.0679  -1.9685  -1.4934  -1.4586  -1.2121  -1.1046  -0.8669  -0.7230
    -0.3376  -0.2722  -0.0497   0.2247   0.4323   0.4390   0.5911   0.5989
     0.6467   0.7468   0.8021   0.8874   0.9555   0.9919   1.1880   1.2192
     1.2974   1.3213   1.9876   2.2648   2.3292   2.7080   2.9259   2.9648
     3.1531   3.3985

          k =-0.0932-0.0155 0.0000 ( 33114 PWs)   bands (ev):

   -60.2044 -60.2043 -60.0637 -60.0636 -59.9257 -59.9255 -34.8272 -34.8267
   -34.2634 -34.2630 -34.2539 -34.2527 -34.1676 -34.1675 -34.1004 -34.1002
   -34.0558 -34.0556 -33.9782 -33.9780 -33.9708 -33.9705 -33.5073 -33.5069
    -4.5279  -4.4890  -4.4017  -4.3642  -4.2986  -4.2467  -4.2431  -4.2099
    -4.0793  -4.0047  -3.9068  -3.8724  -3.7385  -3.6809  -3.6065  -3.5408
    -3.5076  -3.4147  -3.4036  -3.3552  -3.3279  -3.3023  -3.2959  -3.2609
    -3.1759  -3.0581  -3.0204  -2.9062  -2.8883  -2.8753  -2.7877  -2.6887
    -2.1154  -1.9541  -1.5015  -1.4653  -1.2186  -1.0380  -0.9191  -0.7051
    -0.3067  -0.1453  -0.1448   0.2965   0.3875   0.3984   0.5772   0.6142
     0.6196   0.7775   0.7976   0.8988   1.0278   1.1160   1.2051   1.2713
     1.3131   1.3784   1.7612   2.1522   2.3314   2.5779   2.7818   2.9544
     2.9918   3.2599

          k =-0.0932 0.0000 0.0000 ( 33114 PWs)   bands (ev):

   -60.2045 -60.2043 -60.0637 -60.0636 -59.9257 -59.9255 -34.8272 -34.8267
   -34.2634 -34.2630 -34.2540 -34.2526 -34.1676 -34.1675 -34.1004 -34.1002
   -34.0559 -34.0556 -33.9782 -33.9780 -33.9708 -33.9705 -33.5073 -33.5069
    -4.5282  -4.4819  -4.3969  -4.3547  -4.3110  -4.2437  -4.2396  -4.2042
    -4.0904  -4.0009  -3.9279  -3.8735  -3.7387  -3.6518  -3.6165  -3.5491
    -3.5094  -3.4072  -3.3961  -3.3623  -3.3203  -3.3046  -3.3007  -3.2614
    -3.1968  -3.0531  -3.0340  -2.9043  -2.8894  -2.8741  -2.7900  -2.6730
    -2.1333  -1.9526  -1.5025  -1.4725  -1.2152  -1.0068  -0.9368  -0.7089
    -0.2743  -0.1973  -0.0515   0.2113   0.3866   0.4479   0.5633   0.6156
     0.6296   0.7711   0.8108   0.9094   1.0567   1.1746   1.2299   1.2424
     1.3188   1.5463   1.5780   2.1875   2.2442   2.3549   2.8031   2.9471
     2.9771   3.2223

          k =-0.0932 0.0155 0.0000 ( 33114 PWs)   bands (ev):

   -60.2044 -60.2043 -60.0637 -60.0636 -59.9257 -59.9255 -34.8272 -34.8267
   -34.2634 -34.2630 -34.2539 -34.2527 -34.1676 -34.1675 -34.1004 -34.1002
   -34.0558 -34.0556 -33.9782 -33.9780 -33.9708 -33.9705 -33.5073 -33.5069
    -4.5279  -4.4890  -4.4017  -4.3642  -4.2986  -4.2467  -4.2431  -4.2099
    -4.0793  -4.0047  -3.9068  -3.8724  -3.7385  -3.6809  -3.6065  -3.5408
    -3.5076  -3.4148  -3.4036  -3.3552  -3.3279  -3.3022  -3.2959  -3.2609
    -3.1760  -3.0581  -3.0204  -2.9062  -2.8883  -2.8753  -2.7877  -2.6887
    -2.1154  -1.9540  -1.5015  -1.4653  -1.2186  -1.0381  -0.9191  -0.7051
    -0.3067  -0.1452  -0.1448   0.2966   0.3875   0.3985   0.5772   0.6142
     0.6196   0.7775   0.7976   0.8988   1.0278   1.1160   1.2051   1.2713
     1.3130   1.3784   1.7613   2.1521   2.3316   2.5780   2.7818   2.9544
     2.9918   3.2599

          k =-0.0932 0.0311 0.0000 ( 33117 PWs)   bands (ev):

   -60.2044 -60.2043 -60.0637 -60.0636 -59.9257 -59.9255 -34.8272 -34.8267
   -34.2633 -34.2631 -34.2536 -34.2529 -34.1676 -34.1675 -34.1004 -34.1002
   -34.0558 -34.0556 -33.9782 -33.9780 -33.9708 -33.9706 -33.5073 -33.5069
    -4.5260  -4.5048  -4.4050  -4.3834  -4.2800  -4.2591  -4.2426  -4.2175
    -4.0554  -4.0148  -3.8709  -3.8667  -3.7399  -3.7242  -3.5816  -3.5398
    -3.5015  -3.4546  -3.3939  -3.3551  -3.3275  -3.3040  -3.2792  -3.2609
    -3.1371  -3.0738  -2.9845  -2.9154  -2.8858  -2.8786  -2.7799  -2.7258
    -2.0678  -1.9685  -1.4935  -1.4586  -1.2121  -1.1046  -0.8669  -0.7230
    -0.3376  -0.2722  -0.0496   0.2247   0.4324   0.4391   0.5911   0.5989
     0.6467   0.7467   0.8021   0.8873   0.9555   0.9919   1.1880   1.2193
     1.2973   1.3212   1.9878   2.2650   2.3292   2.7080   2.9259   2.9648
     3.1532   3.3984

          k =-0.0932-0.1397 0.0000 ( 33126 PWs)   bands (ev):

   -60.2044 -60.2043 -60.0637 -60.0636 -59.9257 -59.9255 -34.8272 -34.8267
   -34.2633 -34.2632 -34.2533 -34.2532 -34.1676 -34.1675 -34.1004 -34.1003
   -34.0558 -34.0557 -33.9782 -33.9780 -33.9708 -33.9706 -33.5073 -33.5069
    -4.5190  -4.5187  -4.3990  -4.3987  -4.2709  -4.2707  -4.2294  -4.2288
    -4.0320  -4.0318  -3.8597  -3.8585  -3.7423  -3.7404  -3.5550  -3.5549
    -3.4878  -3.4842  -3.3795  -3.3750  -3.3119  -3.3100  -3.2682  -3.2648
    -3.1029  -3.0987  -2.9433  -2.9415  -2.8837  -2.8815  -2.7639  -2.7578
    -2.0112  -2.0087  -1.4737  -1.4735  -1.1708  -1.1706  -0.7891  -0.7888
    -0.3355  -0.3347   0.0744   0.0745   0.4719   0.4725   0.5940   0.5944
     0.7001   0.7008   0.8564   0.8566   0.9012   0.9020   1.1827   1.1830
     1.3126   1.3128   2.1554   2.1557   2.5557   2.5563   2.9649   2.9652
     3.4909   3.4917

     the Fermi energy is     1.0239 ev

!    total energy              =   -1350.63395446 Ry
     estimated scf accuracy    <       0.00000948 Ry
     smearing contrib. (-TS)   =      -0.06288922 Ry
     internal energy E=F+TS    =   -1350.57106525 Ry

     The total energy is F=E-TS. E is the sum of the following terms:
     one-electron contribution =  -11484.77761015 Ry
     hartree contribution      =    5781.81155360 Ry
     xc contribution           =    -259.60208149 Ry
     ewald contribution        =    4611.99706917 Ry
     electric field correction =       0.00000362 Ry

     convergence has been achieved in  15 iterations

     negative rho (up, down):  4.991E-04 0.000E+00

     Forces acting on atoms (cartesian axes, Ry/au):

     atom    1 type  1   force =     0.00000529    0.01123175    0.02886053
     atom    2 type  1   force =     0.00000337    0.01120845    0.02881777
     atom    3 type  2   force =    -0.00000007   -0.01397620   -0.03245461
     atom    4 type  2   force =     0.00000211   -0.01397658   -0.03245736
     atom    5 type  1   force =    -0.00001422   -0.01269540   -0.00633696
     atom    6 type  1   force =    -0.00003221   -0.01270284   -0.00625599
     atom    7 type  2   force =    -0.00002513    0.01611820    0.01037173
     atom    8 type  2   force =     0.00003315    0.01612090    0.01036935
     atom    9 type  1   force =     0.00003112    0.00012414   -0.00033434
     atom   10 type  1   force =     0.00002888    0.00042256   -0.00032690
     atom   11 type  2   force =     0.00127245   -0.00093850   -0.00012780
     atom   12 type  2   force =    -0.00130473   -0.00093649   -0.00012544

     Total force =     0.074530     Total SCF correction =     0.007387

     Writing output data file ./Mo2Ag2/Mo2Ag2_beef.save/

     init_run     :     85.60s CPU     86.09s WALL (       1 calls)
     electrons    :   2783.43s CPU   2799.98s WALL (       1 calls)
     forces       :     56.98s CPU     57.39s WALL (       1 calls)

     Called by init_run:
     wfcinit      :     74.18s CPU     74.45s WALL (       1 calls)
     potinit      :      7.78s CPU      7.84s WALL (       1 calls)
     hinit0       :      2.03s CPU      2.04s WALL (       1 calls)

     Called by electrons:
     c_bands      :   2462.60s CPU   2469.21s WALL (      15 calls)
     sum_band     :    291.77s CPU    296.48s WALL (      15 calls)
     v_of_rho     :     22.03s CPU     23.47s WALL (      16 calls)
     newd         :     13.74s CPU     17.54s WALL (      16 calls)
     mix_rho      :      0.61s CPU      0.62s WALL (      15 calls)
     vdW_kernel   :      5.69s CPU      5.70s WALL (       1 calls)

     Called by c_bands:
     init_us_2    :     11.11s CPU     11.16s WALL (    2368 calls)
     cegterg      :   2434.93s CPU   2440.51s WALL (    1110 calls)

     Called by *egterg:
     cdiaghg      :    105.78s CPU    105.81s WALL (    4999 calls)
     h_psi        :   1232.56s CPU   1237.71s WALL (    5073 calls)
     s_psi        :    437.03s CPU    437.09s WALL (    5073 calls)
     g_psi        :      0.95s CPU      0.95s WALL (    3889 calls)

     Called by h_psi:
     h_psi:calbec :    442.28s CPU    442.84s WALL (    5073 calls)
     vloc_psi     :    338.30s CPU    342.78s WALL (    5073 calls)
     add_vuspsi   :    446.82s CPU    446.90s WALL (    5073 calls)

     General routines
     calbec       :    680.13s CPU    681.04s WALL (    6479 calls)
     fft          :     12.46s CPU     12.82s WALL (    1067 calls)
     ffts         :      0.05s CPU      0.05s WALL (      31 calls)
     fftw         :    388.62s CPU    393.71s WALL (  566092 calls)
     interpolate  :      0.21s CPU      0.22s WALL (      16 calls)

     Parallel routines
     fft_scatt_xy :     31.25s CPU     31.47s WALL (  567190 calls)
     fft_scatt_yz :     72.86s CPU     74.00s WALL (  567190 calls)

     PWSCF        :  48m59.41s CPU  49m36.95s WALL


   This run was terminated on:  14:46:56  10Jul2022            

=------------------------------------------------------------------------------=
   JOB DONE.
=------------------------------------------------------------------------------=
