
     Program PWSCF v.6.6 starts on 24Jun2022 at 10:54:51 

     This program is part of the open-source Quantum ESPRESSO suite
     for quantum simulation of materials; please cite
         "P. Giannozzi et al., J. Phys.:Condens. Matter 21 395502 (2009);
         "P. Giannozzi et al., J. Phys.:Condens. Matter 29 465901 (2017);
          URL http://www.quantum-espresso.org", 
     in publications or presentations arising from this work. More details at
     http://www.quantum-espresso.org/quote

     Parallel version (MPI), running on    37 processors

     MPI processes distributed on     1 nodes
     R & G space division:  proc/nbgrp/npool/nimage =      37
     Fft bands division:     nmany     =       1
     Reading input from Mo2Ir2.in
Warning: card &CELL ignored
Warning: card / ignored

     Current dimensions of program PWSCF are:
     Max number of different atomic species (ntypx) = 10
     Max number of k-points (npk) =  40000
     Max angular momentum in pseudopotentials (lmaxx) =  3
     Presently stress not available with electric field and gates

     Message from routine cell_base_init:
     DEPRECATED: use true lattice parameter, not A to a.u. conversion factor
     file Mo.pbe-spn-rrkjus_psl.1.0.0.UPF: wavefunction(s)  4S renormalized
     file Ir.pbe-n-rrkjus_psl.0.2.3.UPF: wavefunction(s)  5D renormalized

     **************************************************************************
     Initializing libbeef V0.1.2 with the BEEF-vdW functional.
     Citation: Wellendorff et al., PRB 85, 235149 (2012).
     **************************************************************************


     IMPORTANT: XC functional enforced from input :
     Exchange-correlation= BEEF-VDW
                           (   1   4  43  14   2   0   0)
     Any further DFT definition will be discarded
     Please, verify this is what you really want


     Subspace diagonalization in iterative solution of the eigenvalue problem:
     a serial algorithm will be used

     Found symmetry operation: I + ( -0.5000  0.0000  0.0000)
     This is a supercell, fractional translations are disabled

     Parallelization info
     --------------------
     sticks:   dense  smooth     PW     G-vecs:    dense   smooth      PW
     Min         112      44     13                25986     6560    1036
     Max         113      45     15                26011     6591    1047
     Sum        4173    1663    499               961955   243501   38457



     bravais-lattice index     =            0
     lattice parameter (alat)  =       1.8897  a.u.
     unit-cell volume          =    4401.8723 (a.u.)^3
     number of atoms/cell      =           12
     number of atomic types    =            2
     number of electrons       =       138.00
     number of Kohn-Sham states=           83
     kinetic-energy cutoff     =      55.1240  Ry
     charge density cutoff     =     551.2396  Ry
     convergence threshold     =      1.0E-05
     mixing beta               =       0.1000
     number of iterations used =           10  plain     mixing
     Exchange-correlation= BEEF-VDW
                           (   1   4  43  14   2   0   0)

     celldm(1)=   1.889726  celldm(2)=   0.000000  celldm(3)=   0.000000
     celldm(4)=   0.000000  celldm(5)=   0.000000  celldm(6)=   0.000000

     crystal axes: (cart. coord. in units of alat)
               a(1) = (   5.538026   0.000000   0.000000 )  
               a(2) = (  -2.769013   4.802632   0.000000 )  
               a(3) = (   0.000000   0.000000  24.524865 )  

     reciprocal axes: (cart. coord. in units 2 pi/alat)
               b(1) = (  0.180570  0.104110 -0.000000 )  
               b(2) = (  0.000000  0.208219  0.000000 )  
               b(3) = (  0.000000 -0.000000  0.040775 )  


     PseudoPot. # 1 for Mo read from file:
     ../pseudo/Mo.pbe-spn-rrkjus_psl.1.0.0.UPF
     MD5 check sum: 03f09b12e49601d1a456a78ce8b2d514
     Pseudo is Ultrasoft + core correction, Zval = 14.0
     Generated using "atomic" code by A. Dal Corso v.6.3
     Using radial grid of 1229 points,  6 beta functions with: 
                l(1) =   0
                l(2) =   0
                l(3) =   1
                l(4) =   1
                l(5) =   2
                l(6) =   2
     Q(r) pseudized with 0 coefficients 


     PseudoPot. # 2 for Ir read from file:
     ../pseudo/Ir.pbe-n-rrkjus_psl.0.2.3.UPF
     MD5 check sum: a93e608e8ddc29ee62145620b5f41564
     Pseudo is Ultrasoft + core correction, Zval =  9.0
     Generated using "atomic" code by A. Dal Corso v.5.0.2 svn rev. 9415
     Using radial grid of 1277 points,  6 beta functions with: 
                l(1) =   0
                l(2) =   0
                l(3) =   1
                l(4) =   1
                l(5) =   2
                l(6) =   2
     Q(r) pseudized with 0 coefficients 


     atomic species   valence    mass     pseudopotential
        Mo            14.00    95.95000     Mo( 1.00)
        Ir             9.00   192.21700     Ir( 1.00)

     No symmetry found



   Cartesian axes

     site n.     atom                  positions (alat units)
         1           Mo  tau(   1) = (   0.0000000   0.0000000  10.0000000  )
         2           Mo  tau(   2) = (   2.7690130   0.0000000  10.0000000  )
         3           Ir  tau(   3) = (   1.3845065   2.4013159  10.0000000  )
         4           Ir  tau(   4) = (  -1.3845065   2.4013159  10.0000000  )
         5           Mo  tau(   5) = (   2.7690130   1.5965065  12.2624323  )
         6           Mo  tau(   6) = (   0.0000000   1.5965065  12.2624323  )
         7           Ir  tau(   7) = (  -1.3845065   3.9978224  12.2624323  )
         8           Ir  tau(   8) = (   1.3845065   3.9978224  12.2624323  )
         9           Mo  tau(   9) = (  -0.0000001   3.2295610  14.4306169  )
        10           Mo  tau(  10) = (   2.7690129   3.2295648  14.4306177  )
        11           Ir  tau(  11) = (   4.1535230   0.8734125  14.4398712  )
        12           Ir  tau(  12) = (   1.3845037   0.8734134  14.4398713  )

     number of k points=    74  Fermi-Dirac smearing, width (Ry)=  0.0100
                       cart. coord. in units 2pi/alat
        k(    1) = (   0.0000000   0.0000000   0.0000000), wk =   0.0138889
        k(    2) = (   0.0000000   0.0173516   0.0000000), wk =   0.0277778
        k(    3) = (   0.0000000   0.0347032   0.0000000), wk =   0.0277778
        k(    4) = (   0.0000000   0.0520548   0.0000000), wk =   0.0277778
        k(    5) = (   0.0000000   0.0694064   0.0000000), wk =   0.0277778
        k(    6) = (   0.0000000   0.0867580   0.0000000), wk =   0.0277778
        k(    7) = (   0.0000000  -0.1041096   0.0000000), wk =   0.0138889
        k(    8) = (   0.0150475   0.0086758   0.0000000), wk =   0.0277778
        k(    9) = (   0.0150475   0.0260274   0.0000000), wk =   0.0277778
        k(   10) = (   0.0150475   0.0433790   0.0000000), wk =   0.0277778
        k(   11) = (   0.0150475   0.0607306   0.0000000), wk =   0.0277778
        k(   12) = (   0.0150475   0.0780822   0.0000000), wk =   0.0277778
        k(   13) = (   0.0150475   0.0954338   0.0000000), wk =   0.0277778
        k(   14) = (   0.0150475  -0.0954338   0.0000000), wk =   0.0277778
        k(   15) = (   0.0150475  -0.0780822   0.0000000), wk =   0.0277778
        k(   16) = (   0.0150475  -0.0607306   0.0000000), wk =   0.0277778
        k(   17) = (   0.0150475  -0.0433790   0.0000000), wk =   0.0277778
        k(   18) = (   0.0150475  -0.0260274   0.0000000), wk =   0.0277778
        k(   19) = (   0.0150475  -0.0086758   0.0000000), wk =   0.0277778
        k(   20) = (   0.0300950   0.0173516   0.0000000), wk =   0.0277778
        k(   21) = (   0.0300950   0.0347032   0.0000000), wk =   0.0277778
        k(   22) = (   0.0300950   0.0520548   0.0000000), wk =   0.0277778
        k(   23) = (   0.0300950   0.0694064   0.0000000), wk =   0.0277778
        k(   24) = (   0.0300950   0.0867580   0.0000000), wk =   0.0277778
        k(   25) = (   0.0300950   0.1041096   0.0000000), wk =   0.0277778
        k(   26) = (   0.0300950  -0.0867580   0.0000000), wk =   0.0277778
        k(   27) = (   0.0300950  -0.0694064   0.0000000), wk =   0.0277778
        k(   28) = (   0.0300950  -0.0520548   0.0000000), wk =   0.0277778
        k(   29) = (   0.0300950  -0.0347032   0.0000000), wk =   0.0277778
        k(   30) = (   0.0300950  -0.0173516   0.0000000), wk =   0.0277778
        k(   31) = (   0.0300950  -0.0000000   0.0000000), wk =   0.0277778
        k(   32) = (   0.0451424   0.0260274   0.0000000), wk =   0.0277778
        k(   33) = (   0.0451424   0.0433790   0.0000000), wk =   0.0277778
        k(   34) = (   0.0451424   0.0607306   0.0000000), wk =   0.0277778
        k(   35) = (   0.0451424   0.0780822   0.0000000), wk =   0.0277778
        k(   36) = (   0.0451424   0.0954338   0.0000000), wk =   0.0277778
        k(   37) = (   0.0451424   0.1127854   0.0000000), wk =   0.0277778
        k(   38) = (   0.0451424  -0.0780822   0.0000000), wk =   0.0277778
        k(   39) = (   0.0451424  -0.0607306   0.0000000), wk =   0.0277778
        k(   40) = (   0.0451424  -0.0433790   0.0000000), wk =   0.0277778
        k(   41) = (   0.0451424  -0.0260274   0.0000000), wk =   0.0277778
        k(   42) = (   0.0451424  -0.0086758   0.0000000), wk =   0.0277778
        k(   43) = (   0.0451424   0.0086758   0.0000000), wk =   0.0277778
        k(   44) = (   0.0601899   0.0347032   0.0000000), wk =   0.0277778
        k(   45) = (   0.0601899   0.0520548   0.0000000), wk =   0.0277778
        k(   46) = (   0.0601899   0.0694064   0.0000000), wk =   0.0277778
        k(   47) = (   0.0601899   0.0867580   0.0000000), wk =   0.0277778
        k(   48) = (   0.0601899   0.1041096   0.0000000), wk =   0.0277778
        k(   49) = (   0.0601899   0.1214612   0.0000000), wk =   0.0277778
        k(   50) = (   0.0601899  -0.0694064   0.0000000), wk =   0.0277778
        k(   51) = (   0.0601899  -0.0520548   0.0000000), wk =   0.0277778
        k(   52) = (   0.0601899  -0.0347032   0.0000000), wk =   0.0277778
        k(   53) = (   0.0601899  -0.0173516   0.0000000), wk =   0.0277778
        k(   54) = (   0.0601899   0.0000000   0.0000000), wk =   0.0277778
        k(   55) = (   0.0601899   0.0173516   0.0000000), wk =   0.0277778
        k(   56) = (   0.0752374   0.0433790   0.0000000), wk =   0.0277778
        k(   57) = (   0.0752374   0.0607306   0.0000000), wk =   0.0277778
        k(   58) = (   0.0752374   0.0780822   0.0000000), wk =   0.0277778
        k(   59) = (   0.0752374   0.0954338   0.0000000), wk =   0.0277778
        k(   60) = (   0.0752374   0.1127854   0.0000000), wk =   0.0277778
        k(   61) = (   0.0752374   0.1301370   0.0000000), wk =   0.0277778
        k(   62) = (   0.0752374  -0.0607306   0.0000000), wk =   0.0277778
        k(   63) = (   0.0752374  -0.0433790   0.0000000), wk =   0.0277778
        k(   64) = (   0.0752374  -0.0260274   0.0000000), wk =   0.0277778
        k(   65) = (   0.0752374  -0.0086758   0.0000000), wk =   0.0277778
        k(   66) = (   0.0752374   0.0086758   0.0000000), wk =   0.0277778
        k(   67) = (   0.0752374   0.0260274   0.0000000), wk =   0.0277778
        k(   68) = (  -0.0902849  -0.0520548   0.0000000), wk =   0.0138889
        k(   69) = (  -0.0902849  -0.0347032   0.0000000), wk =   0.0277778
        k(   70) = (  -0.0902849  -0.0173516   0.0000000), wk =   0.0277778
        k(   71) = (  -0.0902849   0.0000000   0.0000000), wk =   0.0277778
        k(   72) = (  -0.0902849   0.0173516   0.0000000), wk =   0.0277778
        k(   73) = (  -0.0902849   0.0347032   0.0000000), wk =   0.0277778
        k(   74) = (  -0.0902849  -0.1561644   0.0000000), wk =   0.0138889

     Dense  grid:   961955 G-vectors     FFT dimensions: (  80,  80, 360)

     Smooth grid:   243501 G-vectors     FFT dimensions: (  50,  50, 225)

     Estimated max dynamical RAM per process >     182.31 MB

     Estimated total dynamical RAM >       6.59 GB

     Initial potential from superposition of free atoms

     starting charge  137.99382, renormalised to  138.00000

     negative rho (up, down):  5.239E-04 0.000E+00


     %%%%%%%%%%%%%%%%%%%%%%%%%%%%%%%%%%%%%%%%%%%%%%%%%%%%%%%%%%%%%%%%%%%%%%%%
     %                                                                      %
     % You are using vdW-DF, which was implemented by the Thonhauser group. %
     % Please cite the following two papers that made this development      %
     % possible and the two reviews that describe the various versions:     %
     %                                                                      %
     %   T. Thonhauser et al., PRL 115, 136402 (2015).                      %
     %   T. Thonhauser et al., PRB 76, 125112 (2007).                       %
     %   K. Berland et al., Rep. Prog. Phys. 78, 066501 (2015).             %
     %   D.C. Langreth et al., J. Phys.: Condens. Matter 21, 084203 (2009). %
     %                                                                      %
     %                                                                      %
     % If you are calculating the stress with vdW-DF, please also cite:     %
     %                                                                      %
     %   R. Sabatini et al., J. Phys.: Condens. Matter 24, 424209 (2012).   %
     %                                                                      %
     %%%%%%%%%%%%%%%%%%%%%%%%%%%%%%%%%%%%%%%%%%%%%%%%%%%%%%%%%%%%%%%%%%%%%%%%



     Adding external electric field

     Computed dipole along edir(3) : 
        Dipole               -0.0000 Ry au,         -0.0000 Debye
        Dipole field         -0.0000 Ry au, 

        Potential amp.        0.0000 Ry
        Total length         45.1866 bohr

     Starting wfcs are  114 randomized atomic wfcs

     total cpu time spent up to now is       91.4 secs

     Self-consistent Calculation

     iteration #  1     ecut=    55.12 Ry     beta= 0.10
     Davidson diagonalization with overlap
     ethr =  1.00E-02,  avg # of iterations =  2.0

     negative rho (up, down):  4.607E-04 0.000E+00

     Adding external electric field

     Computed dipole along edir(3) : 
        Dipole               -0.1532 Ry au,         -0.3894 Debye
        Dipole field         -0.0004 Ry au, 

        Potential amp.        0.0395 Ry
        Total length         45.1866 bohr


     total cpu time spent up to now is      273.4 secs

     total energy              =   -1219.26498739 Ry
     estimated scf accuracy    <       1.87585683 Ry

     iteration #  2     ecut=    55.12 Ry     beta= 0.10
     Davidson diagonalization with overlap
     ethr =  1.36E-03,  avg # of iterations =  2.2

     negative rho (up, down):  4.765E-04 0.000E+00

     Adding external electric field

     Computed dipole along edir(3) : 
        Dipole                0.3438 Ry au,          0.8738 Debye
        Dipole field          0.0010 Ry au, 

        Potential amp.       -0.0887 Ry
        Total length         45.1866 bohr


     total cpu time spent up to now is      437.7 secs

     total energy              =   -1219.33658903 Ry
     estimated scf accuracy    <       1.82343205 Ry

     iteration #  3     ecut=    55.12 Ry     beta= 0.10
     Davidson diagonalization with overlap
     ethr =  1.32E-03,  avg # of iterations =  1.5

     negative rho (up, down):  5.010E-04 0.000E+00

     Adding external electric field

     Computed dipole along edir(3) : 
        Dipole               -0.0138 Ry au,         -0.0351 Debye
        Dipole field         -0.0000 Ry au, 

        Potential amp.        0.0036 Ry
        Total length         45.1866 bohr


     total cpu time spent up to now is      583.2 secs

     total energy              =   -1219.32792969 Ry
     estimated scf accuracy    <       6.03589131 Ry

     iteration #  4     ecut=    55.12 Ry     beta= 0.10
     Davidson diagonalization with overlap
     ethr =  1.32E-03,  avg # of iterations =  1.1

     negative rho (up, down):  5.050E-04 0.000E+00

     Adding external electric field

     Computed dipole along edir(3) : 
        Dipole                0.0084 Ry au,          0.0214 Debye
        Dipole field          0.0000 Ry au, 

        Potential amp.       -0.0022 Ry
        Total length         45.1866 bohr


     total cpu time spent up to now is      724.5 secs

     total energy              =   -1219.35797754 Ry
     estimated scf accuracy    <       0.29247686 Ry

     iteration #  5     ecut=    55.12 Ry     beta= 0.10
     Davidson diagonalization with overlap
     ethr =  2.12E-04,  avg # of iterations =  5.5

     negative rho (up, down):  5.435E-04 0.000E+00

     Adding external electric field

     Computed dipole along edir(3) : 
        Dipole                0.0361 Ry au,          0.0919 Debye
        Dipole field          0.0001 Ry au, 

        Potential amp.       -0.0093 Ry
        Total length         45.1866 bohr


     total cpu time spent up to now is      908.3 secs

     total energy              =   -1219.39080901 Ry
     estimated scf accuracy    <       0.07591392 Ry

     iteration #  6     ecut=    55.12 Ry     beta= 0.10
     Davidson diagonalization with overlap
     c_bands:  1 eigenvalues not converged
     ethr =  5.50E-05,  avg # of iterations =  9.5

     negative rho (up, down):  6.071E-04 0.000E+00

     Adding external electric field

     Computed dipole along edir(3) : 
        Dipole                0.0167 Ry au,          0.0426 Debye
        Dipole field          0.0000 Ry au, 

        Potential amp.       -0.0043 Ry
        Total length         45.1866 bohr


     total cpu time spent up to now is     1108.4 secs

     total energy              =   -1219.39300522 Ry
     estimated scf accuracy    <       0.09414214 Ry

     iteration #  7     ecut=    55.12 Ry     beta= 0.10
     Davidson diagonalization with overlap
     ethr =  5.50E-05,  avg # of iterations =  2.1

     negative rho (up, down):  9.046E-04 0.000E+00

     Adding external electric field

     Computed dipole along edir(3) : 
        Dipole                0.0077 Ry au,          0.0196 Debye
        Dipole field          0.0000 Ry au, 

        Potential amp.       -0.0020 Ry
        Total length         45.1866 bohr


     total cpu time spent up to now is     1272.2 secs

     total energy              =   -1219.39684659 Ry
     estimated scf accuracy    <       0.02361184 Ry

     iteration #  8     ecut=    55.12 Ry     beta= 0.10
     Davidson diagonalization with overlap
     c_bands:  1 eigenvalues not converged
     c_bands:  2 eigenvalues not converged
     ethr =  1.71E-05,  avg # of iterations =  6.3

     negative rho (up, down):  8.192E-04 0.000E+00

     Adding external electric field

     Computed dipole along edir(3) : 
        Dipole                0.0156 Ry au,          0.0397 Debye
        Dipole field          0.0000 Ry au, 

        Potential amp.       -0.0040 Ry
        Total length         45.1866 bohr


     total cpu time spent up to now is     1523.2 secs

     total energy              =   -1219.39684112 Ry
     estimated scf accuracy    <       0.02414068 Ry

     iteration #  9     ecut=    55.12 Ry     beta= 0.10
     Davidson diagonalization with overlap
     ethr =  1.71E-05,  avg # of iterations =  3.7

     negative rho (up, down):  7.998E-04 0.000E+00

     Adding external electric field

     Computed dipole along edir(3) : 
        Dipole                0.0128 Ry au,          0.0326 Debye
        Dipole field          0.0000 Ry au, 

        Potential amp.       -0.0033 Ry
        Total length         45.1866 bohr


     total cpu time spent up to now is     1694.9 secs

     total energy              =   -1219.39911275 Ry
     estimated scf accuracy    <       0.00417995 Ry

     iteration # 10     ecut=    55.12 Ry     beta= 0.10
     Davidson diagonalization with overlap
     c_bands:  1 eigenvalues not converged
     c_bands:  2 eigenvalues not converged
     c_bands:  1 eigenvalues not converged
     c_bands:  1 eigenvalues not converged
     c_bands:  1 eigenvalues not converged
     c_bands:  2 eigenvalues not converged
     c_bands:  1 eigenvalues not converged
     c_bands:  2 eigenvalues not converged
     c_bands:  1 eigenvalues not converged
     c_bands:  2 eigenvalues not converged
     ethr =  3.03E-06,  avg # of iterations = 11.6

     negative rho (up, down):  8.763E-04 0.000E+00

     Adding external electric field

     Computed dipole along edir(3) : 
        Dipole                0.0173 Ry au,          0.0439 Debye
        Dipole field          0.0000 Ry au, 

        Potential amp.       -0.0045 Ry
        Total length         45.1866 bohr


     total cpu time spent up to now is     1926.8 secs

     total energy              =   -1219.39989174 Ry
     estimated scf accuracy    <       0.00246896 Ry

     iteration # 11     ecut=    55.12 Ry     beta= 0.10
     Davidson diagonalization with overlap
     c_bands:  1 eigenvalues not converged
     c_bands:  1 eigenvalues not converged
     ethr =  1.79E-06,  avg # of iterations =  3.8

     negative rho (up, down):  8.334E-04 0.000E+00

     Adding external electric field

     Computed dipole along edir(3) : 
        Dipole                0.0162 Ry au,          0.0411 Debye
        Dipole field          0.0000 Ry au, 

        Potential amp.       -0.0042 Ry
        Total length         45.1866 bohr


     total cpu time spent up to now is     2113.1 secs

     total energy              =   -1219.39989752 Ry
     estimated scf accuracy    <       0.00143001 Ry

     iteration # 12     ecut=    55.12 Ry     beta= 0.10
     Davidson diagonalization with overlap
     ethr =  1.04E-06,  avg # of iterations =  3.6

     negative rho (up, down):  7.953E-04 0.000E+00

     Adding external electric field

     Computed dipole along edir(3) : 
        Dipole                0.0171 Ry au,          0.0435 Debye
        Dipole field          0.0000 Ry au, 

        Potential amp.       -0.0044 Ry
        Total length         45.1866 bohr


     total cpu time spent up to now is     2288.7 secs

     total energy              =   -1219.40010952 Ry
     estimated scf accuracy    <       0.00012524 Ry

     iteration # 13     ecut=    55.12 Ry     beta= 0.10
     Davidson diagonalization with overlap
     ethr =  9.08E-08,  avg # of iterations =  7.7

     negative rho (up, down):  7.633E-04 0.000E+00

     Adding external electric field

     Computed dipole along edir(3) : 
        Dipole                0.0172 Ry au,          0.0436 Debye
        Dipole field          0.0000 Ry au, 

        Potential amp.       -0.0044 Ry
        Total length         45.1866 bohr


     total cpu time spent up to now is     2533.9 secs

     total energy              =   -1219.40010018 Ry
     estimated scf accuracy    <       0.00016565 Ry

     iteration # 14     ecut=    55.12 Ry     beta= 0.10
     Davidson diagonalization with overlap
     ethr =  9.08E-08,  avg # of iterations =  3.3

     negative rho (up, down):  7.319E-04 0.000E+00

     Adding external electric field

     Computed dipole along edir(3) : 
        Dipole                0.0170 Ry au,          0.0431 Debye
        Dipole field          0.0000 Ry au, 

        Potential amp.       -0.0044 Ry
        Total length         45.1866 bohr


     total cpu time spent up to now is     2726.8 secs

     total energy              =   -1219.40012993 Ry
     estimated scf accuracy    <       0.00001699 Ry

     iteration # 15     ecut=    55.12 Ry     beta= 0.10
     Davidson diagonalization with overlap
     c_bands:  2 eigenvalues not converged
     ethr =  1.23E-08,  avg # of iterations =  7.0

     negative rho (up, down):  7.046E-04 0.000E+00

     Adding external electric field

     Computed dipole along edir(3) : 
        Dipole                0.0163 Ry au,          0.0414 Debye
        Dipole field          0.0000 Ry au, 

        Potential amp.       -0.0042 Ry
        Total length         45.1866 bohr


     total cpu time spent up to now is     2915.3 secs

     total energy              =   -1219.40013175 Ry
     estimated scf accuracy    <       0.00001027 Ry

     iteration # 16     ecut=    55.12 Ry     beta= 0.10
     Davidson diagonalization with overlap
     c_bands:  2 eigenvalues not converged
     ethr =  7.44E-09,  avg # of iterations =  2.9

     negative rho (up, down):  5.920E-04 0.000E+00

     Adding external electric field

     Computed dipole along edir(3) : 
        Dipole                0.0208 Ry au,          0.0530 Debye
        Dipole field          0.0001 Ry au, 

        Potential amp.       -0.0054 Ry
        Total length         45.1866 bohr


     total cpu time spent up to now is     3108.2 secs

     End of self-consistent calculation

          k = 0.0000 0.0000 0.0000 ( 30485 PWs)   bands (ev):

   -59.8069 -59.7133 -59.6690 -59.6274 -59.5788 -59.5367 -34.2178 -34.0798
   -33.9796 -33.9358 -33.9195 -33.8996 -33.8129 -33.7889 -33.7246 -33.6982
   -33.6885 -33.6321 -33.6002 -33.4337 -33.4082 -33.3551 -33.1457 -33.1273
    -6.4261  -4.7317  -4.6514  -4.4086  -4.3281  -4.2020  -4.1008  -3.8823
    -3.7893  -3.6277  -3.5655  -3.4591  -3.1653  -3.1481  -3.0262  -2.0165
    -1.9203  -1.6573  -1.3663  -1.2550  -1.2470  -0.9124  -0.8771  -0.8343
    -0.6670  -0.6539  -0.2936  -0.2501  -0.1997  -0.0281   0.1018   0.3061
     0.4900   0.7065   0.8707   0.9997   1.0933   1.3355   1.3919   1.5468
     1.8037   2.0243   2.1110   2.3020   2.5018   2.5036   2.7139   3.0324
     3.2796   3.3135   3.4323   3.5470   3.6374   3.7699   3.8512   3.9249
     3.9669   3.9743   4.1543

          k = 0.0000 0.0174 0.0000 ( 30489 PWs)   bands (ev):

   -59.8068 -59.7133 -59.6690 -59.6273 -59.5787 -59.5367 -34.2183 -34.0807
   -33.9800 -33.9361 -33.9200 -33.9009 -33.8129 -33.7883 -33.7251 -33.6980
   -33.6893 -33.6329 -33.6006 -33.4338 -33.4084 -33.3552 -33.1457 -33.1274
    -6.3660  -4.6892  -4.5958  -4.3530  -4.2787  -4.1647  -4.0484  -3.8476
    -3.7529  -3.6068  -3.5338  -3.4202  -3.0941  -3.0914  -2.9943  -2.0162
    -1.9045  -1.6635  -1.3658  -1.2399  -1.2041  -1.0044  -0.8330  -0.7860
    -0.7407  -0.6369  -0.2833  -0.2204  -0.2006   0.0185   0.0532   0.2630
     0.4309   0.6531   0.8243   0.9341   1.0774   1.2333   1.4002   1.5099
     1.6646   1.9039   2.0838   2.2946   2.2967   2.4938   2.8380   2.9787
     3.1182   3.2283   3.2430   3.2615   3.4425   3.5892   3.7799   3.8916
     3.9674   4.1295   4.1738

          k = 0.0000 0.0347 0.0000 ( 30467 PWs)   bands (ev):

   -59.8065 -59.7133 -59.6689 -59.6272 -59.5787 -59.5366 -34.2197 -34.0832
   -33.9812 -33.9368 -33.9213 -33.9041 -33.8129 -33.7869 -33.7263 -33.6974
   -33.6916 -33.6352 -33.6019 -33.4341 -33.4086 -33.3555 -33.1459 -33.1276
    -6.1914  -4.5818  -4.4332  -4.1927  -4.1380  -4.0527  -3.8964  -3.7460
    -3.6440  -3.5443  -3.4364  -3.3075  -2.9274  -2.9000  -2.8850  -2.0182
    -1.8647  -1.6903  -1.3723  -1.1940  -1.1675  -1.0934  -0.8982  -0.7457
    -0.7049  -0.5904  -0.2922  -0.2112  -0.1349  -0.0867   0.1517   0.1543
     0.2639   0.5138   0.6809   0.7623   1.0228   1.0345   1.3124   1.3471
     1.4248   1.6202   1.8659   2.0434   2.2228   2.3694   2.5138   2.6353
     2.7164   2.9580   3.1289   3.1330   3.1492   3.2746   3.6412   3.7276
     3.9294   3.9812   4.1393

          k = 0.0000 0.0521 0.0000 ( 30445 PWs)   bands (ev):

   -59.8062 -59.7132 -59.6688 -59.6270 -59.5786 -59.5365 -34.2216 -34.0865
   -33.9828 -33.9379 -33.9231 -33.9085 -33.8129 -33.7852 -33.7277 -33.6966
   -33.6948 -33.6381 -33.6037 -33.4345 -33.4090 -33.3558 -33.1462 -33.1280
    -5.9215  -4.4589  -4.1886  -3.9500  -3.9320  -3.8712  -3.6631  -3.5809
    -3.4795  -3.4266  -3.2655  -3.1387  -2.7494  -2.6793  -2.5529  -2.0213
    -1.8349  -1.7713  -1.4074  -1.3323  -1.1198  -1.1124  -0.8959  -0.7519
    -0.5279  -0.5052  -0.3420  -0.3378  -0.2025  -0.0088  -0.0045   0.0252
     0.3281   0.3659   0.4707   0.5644   0.7989   0.9294   0.9564   0.9795
     1.2395   1.4002   1.4644   1.7283   1.8592   1.9703   2.1288   2.1669
     2.2242   2.5977   2.9425   3.0065   3.0085   3.3281   3.4504   3.4690
     3.6950   3.7532   3.7946

          k = 0.0000 0.0694 0.0000 ( 30396 PWs)   bands (ev):

   -59.8058 -59.7130 -59.6686 -59.6269 -59.5785 -59.5363 -34.2235 -34.0899
   -33.9843 -33.9389 -33.9250 -33.9128 -33.8129 -33.7838 -33.7289 -33.6982
   -33.6958 -33.6410 -33.6055 -33.4349 -33.4093 -33.3562 -33.1465 -33.1283
    -5.5946  -4.3784  -3.9212  -3.7137  -3.6741  -3.6481  -3.3857  -3.3535
    -3.3400  -3.1915  -3.0025  -2.9626  -2.5640  -2.4144  -2.1779  -1.9807
    -1.8940  -1.8916  -1.4736  -1.4033  -1.2933  -1.0326  -0.8114  -0.7335
    -0.6218  -0.4587  -0.3569  -0.3545  -0.2695  -0.2316  -0.0909   0.1213
     0.1488   0.2766   0.4210   0.4523   0.5665   0.6086   0.6224   0.8038
     0.9398   0.9738   1.0059   1.2202   1.3797   1.5135   1.9478   2.0263
     2.0618   2.1171   2.6174   2.6811   3.0489   3.0798   3.1095   3.1786
     3.4654   3.6029   3.6230

          k = 0.0000 0.0868 0.0000 ( 30388 PWs)   bands (ev):

   -59.8056 -59.7130 -59.6685 -59.6268 -59.5784 -59.5363 -34.2249 -34.0923
   -33.9855 -33.9396 -33.9263 -33.9159 -33.8128 -33.7829 -33.7296 -33.7007
   -33.6953 -33.6430 -33.6069 -33.4352 -33.4096 -33.3564 -33.1467 -33.1286
    -5.2856  -4.3760  -3.7166  -3.5463  -3.4500  -3.4314  -3.2415  -3.1150
    -3.1004  -2.9175  -2.8620  -2.6426  -2.4141  -2.2586  -2.2346  -2.0342
    -1.8208  -1.8163  -1.5030  -1.3807  -1.2899  -0.9631  -0.8927  -0.7983
    -0.6845  -0.5936  -0.4080  -0.4052  -0.3337  -0.2261  -0.0497   0.0562
     0.0666   0.1211   0.1505   0.2002   0.2806   0.3858   0.4332   0.6459
     0.7174   0.7422   0.8473   0.8967   0.9538   1.5109   1.5541   1.7996
     2.0003   2.0644   2.2915   2.4331   2.8498   2.8655   3.0848   3.1289
     3.1691   3.3287   3.4660

          k = 0.0000-0.1041 0.0000 ( 30402 PWs)   bands (ev):

   -59.8055 -59.7130 -59.6685 -59.6268 -59.5784 -59.5363 -34.2254 -34.0932
   -33.9859 -33.9398 -33.9268 -33.9170 -33.8128 -33.7826 -33.7299 -33.7017
   -33.6951 -33.6438 -33.6075 -33.4353 -33.4097 -33.3566 -33.1467 -33.1287
    -5.1408  -4.4034  -3.6422  -3.4810  -3.3642  -3.2882  -3.2539  -2.9665
    -2.9546  -2.8646  -2.7648  -2.4349  -2.3855  -2.2153  -2.1856  -2.1265
    -2.1013  -1.7011  -1.5066  -1.3527  -0.9136  -0.8908  -0.8492  -0.8241
    -0.7792  -0.6629  -0.6529  -0.4674  -0.3844  -0.3224  -0.1519  -0.1112
     0.0553   0.0641   0.0662   0.1956   0.2102   0.3490   0.3541   0.4977
     0.6283   0.6708   0.7507   0.9146   1.0077   1.2608   1.5663   1.7255
     1.9399   2.0056   2.2792   2.3299   2.7650   2.7707   3.0375   3.1023
     3.1135   3.2069   3.4189

          k = 0.0150 0.0087 0.0000 ( 30495 PWs)   bands (ev):

   -59.8054 -59.7149 -59.6675 -59.6259 -59.5803 -59.5382 -34.2048 -34.0785
   -33.9817 -33.9229 -33.9067 -33.8985 -33.8147 -33.7871 -33.7234 -33.6996
   -33.6873 -33.6340 -33.6020 -33.4324 -33.4228 -33.3565 -33.1598 -33.1416
    -6.3621  -4.6678  -4.5855  -4.3799  -4.2866  -4.1493  -4.0656  -3.8452
    -3.7498  -3.5917  -3.5374  -3.4280  -3.1298  -3.0900  -2.9675  -2.0014
    -1.9173  -1.6516  -1.3475  -1.2356  -1.2188  -1.0188  -0.8791  -0.8121
    -0.7016  -0.6839  -0.3238  -0.2557  -0.1809  -0.0411   0.1314   0.3405
     0.4716   0.6933   0.7547   0.8417   1.1202   1.2997   1.3586   1.5091
     1.7926   1.8602   2.0947   2.2312   2.3184   2.4940   2.7441   2.9681
     3.0364   3.1842   3.2336   3.4117   3.4756   3.6732   3.7304   3.8928
     3.9457   4.1323   4.2134

          k = 0.0150 0.0260 0.0000 ( 30482 PWs)   bands (ev):

   -59.8051 -59.7149 -59.6675 -59.6258 -59.5803 -59.5382 -34.2057 -34.0802
   -33.9825 -33.9235 -33.9077 -33.9008 -33.8147 -33.7861 -33.7242 -33.6992
   -33.6889 -33.6356 -33.6029 -33.4326 -33.4230 -33.3567 -33.1600 -33.1417
    -6.2441  -4.5874  -4.4773  -4.2883  -4.1798  -4.0748  -3.9641  -3.7746
    -3.6778  -3.5515  -3.4752  -3.3486  -3.0350  -2.9345  -2.9053  -2.0041
    -1.8893  -1.6659  -1.3575  -1.2000  -1.1432  -1.1348  -0.8189  -0.8100
    -0.7583  -0.6820  -0.3065  -0.2100  -0.1809   0.0179   0.0489   0.2902
     0.3477   0.6027   0.6748   0.7473   1.0723   1.1214   1.3528   1.4074
     1.5574   1.6686   2.0205   2.0622   2.2054   2.4104   2.7108   2.7783
     2.8251   2.9744   2.9935   3.2304   3.2982   3.3011   3.6525   3.8688
     3.9769   4.0551   4.0736

          k = 0.0150 0.0434 0.0000 ( 30452 PWs)   bands (ev):

   -59.8048 -59.7148 -59.6673 -59.6256 -59.5802 -59.5381 -34.2074 -34.0831
   -33.9838 -33.9244 -33.9093 -33.9047 -33.8146 -33.7846 -33.7255 -33.6985
   -33.6917 -33.6382 -33.6044 -33.4330 -33.4233 -33.3570 -33.1602 -33.1420
    -6.0199  -4.4644  -4.2717  -4.1089  -3.9929  -3.9264  -3.7719  -3.6356
    -3.5354  -3.4709  -3.3456  -3.1999  -2.8298  -2.7845  -2.6633  -2.0132
    -1.8509  -1.7121  -1.3881  -1.2982  -1.1423  -1.0567  -0.9412  -0.7601
    -0.6558  -0.6420  -0.3312  -0.2087  -0.1519  -0.0803   0.0558   0.1169
     0.3040   0.4556   0.5165   0.6019   0.8980   0.9902   1.1085   1.1746
     1.3528   1.4083   1.6231   1.9763   2.0136   2.0849   2.1870   2.2474
     2.4222   2.7999   2.9413   3.0446   3.1402   3.3200   3.3576   3.6200
     3.6841   3.8482   3.9720

          k = 0.0150 0.0607 0.0000 ( 30412 PWs)   bands (ev):

   -59.8044 -59.7147 -59.6672 -59.6255 -59.5801 -59.5380 -34.2093 -34.0865
   -33.9854 -33.9254 -33.9111 -33.9091 -33.8145 -33.7830 -33.7268 -33.6977
   -33.6950 -33.6411 -33.6061 -33.4334 -33.4236 -33.3574 -33.1604 -33.1423
    -5.7163  -4.3564  -4.0084  -3.8652  -3.7731  -3.7180  -3.5163  -3.4310
    -3.3759  -3.3016  -3.1345  -3.0126  -2.6179  -2.5504  -2.3230  -2.0036
    -1.8592  -1.8166  -1.4566  -1.4180  -1.2077  -1.0634  -0.8037  -0.7968
    -0.6883  -0.4861  -0.3778  -0.3259  -0.2014  -0.2011  -0.0692   0.0731
     0.2750   0.3141   0.4026   0.4896   0.6614   0.7235   0.8425   0.9488
     0.9794   1.1476   1.3180   1.4202   1.5353   1.5436   2.0437   2.0967
     2.1297   2.2873   2.7245   2.9292   2.9350   3.1522   3.1686   3.3744
     3.5901   3.7249   3.8059

          k = 0.0150 0.0781 0.0000 ( 30382 PWs)   bands (ev):

   -59.8041 -59.7146 -59.6670 -59.6253 -59.5800 -59.5378 -34.2110 -34.0894
   -33.9867 -33.9263 -33.9128 -33.9127 -33.8144 -33.7818 -33.7277 -33.6979
   -33.6971 -33.6436 -33.6078 -33.4337 -33.4239 -33.3576 -33.1606 -33.1426
    -5.3855  -4.3162  -3.7620  -3.6187  -3.5745  -3.4921  -3.2481  -3.2355
    -3.1877  -3.0327  -2.8781  -2.8019  -2.4510  -2.3355  -2.1656  -1.9784
    -1.8828  -1.7979  -1.4965  -1.4427  -1.3745  -0.9876  -0.8951  -0.8181
    -0.6761  -0.5453  -0.5120  -0.3549  -0.3247  -0.2158  -0.1277   0.0880
     0.1097   0.1623   0.3118   0.3248   0.3832   0.4236   0.5413   0.6954
     0.7905   0.8571   0.9490   1.0379   1.1082   1.5038   1.7314   1.8739
     2.0194   2.1080   2.3377   2.6584   2.8980   2.9501   3.0927   3.1407
     3.4006   3.5229   3.5467

          k = 0.0150 0.0954 0.0000 ( 30407 PWs)   bands (ev):

   -59.8040 -59.7146 -59.6670 -59.6253 -59.5800 -59.5378 -34.2119 -34.0911
   -33.9875 -33.9268 -33.9150 -33.9137 -33.8143 -33.7812 -33.7282 -33.6997
   -33.6967 -33.6450 -33.6087 -33.4339 -33.4241 -33.3578 -33.1608 -33.1428
    -5.1332  -4.3466  -3.6173  -3.4746  -3.4351  -3.3013  -3.1910  -3.0008
    -2.9674  -2.8308  -2.7849  -2.4795  -2.3777  -2.3308  -2.1753  -2.1140
    -1.9535  -1.7125  -1.4860  -1.4062  -1.0727  -0.9499  -0.9432  -0.8595
    -0.8006  -0.6132  -0.5774  -0.5429  -0.4415  -0.3031  -0.1350  -0.1011
    -0.0681   0.0458   0.1354   0.1565   0.3050   0.3511   0.3573   0.4981
     0.6663   0.7020   0.7427   1.0470   1.1560   1.3546   1.4855   1.7238
     2.0135   2.0662   2.1634   2.4992   2.7951   2.8364   3.0621   3.1000
     3.1273   3.2774   3.4486

          k = 0.0150-0.0954 0.0000 ( 30407 PWs)   bands (ev):

   -59.8040 -59.7146 -59.6670 -59.6253 -59.5800 -59.5378 -34.2119 -34.0911
   -33.9875 -33.9268 -33.9150 -33.9137 -33.8143 -33.7812 -33.7282 -33.6997
   -33.6967 -33.6450 -33.6087 -33.4339 -33.4241 -33.3578 -33.1608 -33.1428
    -5.1332  -4.3466  -3.6173  -3.4746  -3.4351  -3.3013  -3.1910  -3.0008
    -2.9674  -2.8308  -2.7849  -2.4795  -2.3777  -2.3308  -2.1753  -2.1140
    -1.9535  -1.7125  -1.4860  -1.4062  -1.0727  -0.9499  -0.9432  -0.8595
    -0.8006  -0.6132  -0.5774  -0.5429  -0.4415  -0.3031  -0.1349  -0.1011
    -0.0681   0.0458   0.1354   0.1565   0.3050   0.3511   0.3573   0.4981
     0.6663   0.7020   0.7427   1.0470   1.1560   1.3546   1.4855   1.7238
     2.0135   2.0662   2.1634   2.4992   2.7951   2.8364   3.0621   3.1000
     3.1273   3.2774   3.4486

          k = 0.0150-0.0781 0.0000 ( 30382 PWs)   bands (ev):

   -59.8041 -59.7146 -59.6670 -59.6253 -59.5800 -59.5378 -34.2110 -34.0894
   -33.9867 -33.9263 -33.9128 -33.9127 -33.8144 -33.7818 -33.7277 -33.6979
   -33.6971 -33.6436 -33.6078 -33.4337 -33.4239 -33.3576 -33.1606 -33.1426
    -5.3855  -4.3162  -3.7620  -3.6187  -3.5745  -3.4921  -3.2481  -3.2355
    -3.1877  -3.0327  -2.8781  -2.8019  -2.4510  -2.3355  -2.1656  -1.9784
    -1.8828  -1.7979  -1.4965  -1.4427  -1.3745  -0.9876  -0.8951  -0.8181
    -0.6761  -0.5453  -0.5120  -0.3549  -0.3247  -0.2158  -0.1277   0.0880
     0.1097   0.1623   0.3118   0.3248   0.3832   0.4236   0.5413   0.6954
     0.7905   0.8571   0.9490   1.0379   1.1082   1.5038   1.7314   1.8739
     2.0194   2.1080   2.3377   2.6585   2.8980   2.9500   3.0927   3.1407
     3.4006   3.5226   3.5467

          k = 0.0150-0.0607 0.0000 ( 30412 PWs)   bands (ev):

   -59.8044 -59.7147 -59.6672 -59.6255 -59.5801 -59.5380 -34.2093 -34.0865
   -33.9854 -33.9254 -33.9111 -33.9091 -33.8145 -33.7830 -33.7268 -33.6977
   -33.6950 -33.6411 -33.6061 -33.4334 -33.4236 -33.3574 -33.1604 -33.1423
    -5.7163  -4.3564  -4.0084  -3.8652  -3.7731  -3.7180  -3.5163  -3.4310
    -3.3759  -3.3016  -3.1345  -3.0126  -2.6179  -2.5505  -2.3230  -2.0036
    -1.8592  -1.8166  -1.4566  -1.4180  -1.2077  -1.0634  -0.8037  -0.7968
    -0.6883  -0.4861  -0.3778  -0.3259  -0.2014  -0.2011  -0.0692   0.0731
     0.2750   0.3141   0.4026   0.4896   0.6614   0.7235   0.8425   0.9488
     0.9794   1.1476   1.3180   1.4202   1.5353   1.5436   2.0437   2.0967
     2.1297   2.2873   2.7245   2.9292   2.9350   3.1522   3.1686   3.3748
     3.5899   3.7259   3.8028

          k = 0.0150-0.0434 0.0000 ( 30452 PWs)   bands (ev):

   -59.8048 -59.7148 -59.6673 -59.6256 -59.5802 -59.5381 -34.2074 -34.0831
   -33.9838 -33.9244 -33.9093 -33.9047 -33.8146 -33.7846 -33.7255 -33.6985
   -33.6917 -33.6382 -33.6044 -33.4330 -33.4233 -33.3570 -33.1602 -33.1420
    -6.0199  -4.4644  -4.2717  -4.1089  -3.9929  -3.9264  -3.7719  -3.6356
    -3.5354  -3.4709  -3.3456  -3.1999  -2.8298  -2.7845  -2.6633  -2.0132
    -1.8509  -1.7121  -1.3881  -1.2982  -1.1423  -1.0567  -0.9412  -0.7601
    -0.6558  -0.6420  -0.3312  -0.2087  -0.1519  -0.0803   0.0558   0.1169
     0.3040   0.4556   0.5165   0.6019   0.8980   0.9902   1.1085   1.1746
     1.3528   1.4083   1.6231   1.9763   2.0136   2.0849   2.1870   2.2474
     2.4222   2.7999   2.9413   3.0446   3.1402   3.3200   3.3576   3.6200
     3.6841   3.8482   3.9720

          k = 0.0150-0.0260 0.0000 ( 30482 PWs)   bands (ev):

   -59.8051 -59.7149 -59.6675 -59.6258 -59.5803 -59.5382 -34.2057 -34.0802
   -33.9825 -33.9235 -33.9077 -33.9008 -33.8147 -33.7861 -33.7242 -33.6992
   -33.6889 -33.6356 -33.6029 -33.4326 -33.4230 -33.3567 -33.1600 -33.1417
    -6.2441  -4.5874  -4.4773  -4.2883  -4.1798  -4.0748  -3.9641  -3.7746
    -3.6778  -3.5515  -3.4752  -3.3486  -3.0350  -2.9345  -2.9053  -2.0041
    -1.8893  -1.6659  -1.3575  -1.2000  -1.1432  -1.1348  -0.8189  -0.8100
    -0.7583  -0.6820  -0.3065  -0.2100  -0.1809   0.0179   0.0489   0.2902
     0.3477   0.6027   0.6748   0.7473   1.0723   1.1214   1.3528   1.4074
     1.5574   1.6686   2.0205   2.0622   2.2054   2.4104   2.7108   2.7783
     2.8251   2.9745   2.9935   3.2304   3.2982   3.3011   3.6526   3.8689
     3.9772   4.0551   4.0745

          k = 0.0150-0.0087 0.0000 ( 30495 PWs)   bands (ev):

   -59.8054 -59.7149 -59.6675 -59.6259 -59.5803 -59.5382 -34.2048 -34.0785
   -33.9817 -33.9229 -33.9067 -33.8985 -33.8147 -33.7871 -33.7234 -33.6996
   -33.6873 -33.6340 -33.6020 -33.4324 -33.4228 -33.3565 -33.1598 -33.1416
    -6.3621  -4.6678  -4.5855  -4.3799  -4.2866  -4.1493  -4.0656  -3.8452
    -3.7498  -3.5917  -3.5374  -3.4280  -3.1298  -3.0900  -2.9675  -2.0014
    -1.9173  -1.6516  -1.3475  -1.2356  -1.2188  -1.0188  -0.8791  -0.8121
    -0.7016  -0.6839  -0.3238  -0.2557  -0.1809  -0.0411   0.1314   0.3405
     0.4716   0.6933   0.7547   0.8417   1.1202   1.2997   1.3586   1.5091
     1.7926   1.8602   2.0947   2.2312   2.3184   2.4940   2.7441   2.9681
     3.0364   3.1842   3.2336   3.4118   3.4756   3.6733   3.7308   3.8929
     3.9457   4.1326   4.2127

          k = 0.0301 0.0174 0.0000 ( 30461 PWs)   bands (ev):

   -59.8006 -59.7195 -59.6630 -59.6212 -59.5848 -59.5428 -34.1664 -34.0744
   -33.9877 -33.8950 -33.8852 -33.8692 -33.8199 -33.7821 -33.7196 -33.7037
   -33.6839 -33.6395 -33.6074 -33.4654 -33.4286 -33.3606 -33.2012 -33.1833
    -6.1742  -4.4800  -4.3951  -4.3184  -4.1574  -3.9981  -3.9623  -3.7329
    -3.6362  -3.4847  -3.4571  -3.3340  -3.0410  -2.9046  -2.7977  -1.9644
    -1.9158  -1.6367  -1.3144  -1.2209  -1.1928  -1.1235  -0.9275  -0.8393
    -0.7969  -0.7479  -0.3905  -0.2762  -0.1967  -0.0151   0.2095   0.3288
     0.4500   0.5169   0.5619   0.6763   1.0579   1.1713   1.2781   1.3776
     1.4734   1.7023   1.9852   2.0036   2.0476   2.2224   2.5536   2.6938
     2.7834   2.7963   3.0158   3.1857   3.3457   3.4897   3.5741   3.7617
     3.8722   3.9424   4.0836

          k = 0.0301 0.0347 0.0000 ( 30456 PWs)   bands (ev):

   -59.8003 -59.7195 -59.6629 -59.6212 -59.5848 -59.5427 -34.1677 -34.0766
   -33.9886 -33.8981 -33.8859 -33.8704 -33.8196 -33.7809 -33.7206 -33.7032
   -33.6859 -33.6415 -33.6084 -33.4656 -33.4289 -33.3608 -33.2014 -33.1834
    -6.0049  -4.3698  -4.2460  -4.2220  -4.0056  -3.8867  -3.8199  -3.6188
    -3.5336  -3.4313  -3.3688  -3.2100  -2.9221  -2.7115  -2.6705  -1.9823
    -1.8855  -1.6588  -1.3749  -1.3407  -1.1339  -1.0480  -0.9054  -0.8860
    -0.7969  -0.7443  -0.3693  -0.2349  -0.1901   0.0019   0.1145   0.1182
     0.4113   0.4668   0.4782   0.5928   0.9463   0.9845   1.1619   1.2440
     1.2903   1.4653   1.7283   1.8123   1.9646   2.1349   2.1622   2.2853
     2.5672   2.7335   2.9510   2.9762   3.1458   3.3583   3.3705   3.4903
     3.7611   3.8586   3.9507

          k = 0.0301 0.0521 0.0000 ( 30417 PWs)   bands (ev):

   -59.8000 -59.7194 -59.6628 -59.6211 -59.5847 -59.5426 -34.1695 -34.0796
   -33.9899 -33.9022 -33.8869 -33.8721 -33.8193 -33.7794 -33.7218 -33.7025
   -33.6888 -33.6442 -33.6098 -33.4658 -33.4293 -33.3611 -33.2015 -33.1837
    -5.7416  -4.2461  -4.0498  -4.0164  -3.8094  -3.7040  -3.6081  -3.4318
    -3.3641  -3.3401  -3.2043  -3.0282  -2.6943  -2.5785  -2.3798  -1.9945
    -1.8689  -1.7162  -1.4823  -1.4544  -1.1473  -1.0704  -0.9373  -0.8383
    -0.7686  -0.6481  -0.4062  -0.2489  -0.1733  -0.1634  -0.1316   0.1139
     0.3338   0.3403   0.3781   0.5320   0.7219   0.8228   0.9364   0.9814
     1.1183   1.2392   1.4168   1.4582   1.5764   1.5928   2.0407   2.0496
     2.3030   2.4543   2.7398   2.7850   3.0414   3.1046   3.1634   3.4828
     3.5758   3.7091   3.8984

          k = 0.0301 0.0694 0.0000 ( 30424 PWs)   bands (ev):

   -59.7997 -59.7194 -59.6627 -59.6210 -59.5846 -59.5425 -34.1712 -34.0827
   -33.9911 -33.9062 -33.8879 -33.8738 -33.8190 -33.7780 -33.7227 -33.7019
   -33.6918 -33.6468 -33.6113 -33.4660 -33.4296 -33.3614 -33.2017 -33.1839
    -5.4189  -4.1718  -3.8329  -3.7582  -3.6095  -3.4789  -3.3492  -3.2228
    -3.2129  -3.1172  -2.9430  -2.8328  -2.4324  -2.4214  -2.2415  -1.9428
    -1.8344  -1.7951  -1.5560  -1.5255  -1.3316  -1.0196  -1.0159  -0.8740
    -0.7083  -0.6161  -0.5094  -0.3781  -0.3455  -0.2437  -0.1711   0.0855
     0.0866   0.2086   0.3256   0.4208   0.4739   0.5367   0.5846   0.8291
     0.8913   1.0064   1.0677   1.0900   1.2470   1.4990   1.8803   1.9371
     2.0474   2.1088   2.4332   2.7577   2.8882   3.0212   3.0586   3.3238
     3.5679   3.6466   3.7058

          k = 0.0301 0.0868 0.0000 ( 30418 PWs)   bands (ev):

   -59.7994 -59.7194 -59.6626 -59.6209 -59.5846 -59.5425 -34.1725 -34.0849
   -33.9920 -33.9090 -33.8886 -33.8751 -33.8188 -33.7772 -33.7233 -33.7015
   -33.6941 -33.6486 -33.6125 -33.4662 -33.4299 -33.3616 -33.2018 -33.1840
    -5.1072  -4.1848  -3.6405  -3.5562  -3.4506  -3.2710  -3.0928  -3.0720
    -2.9950  -2.8356  -2.7608  -2.5855  -2.4097  -2.3603  -2.1238  -2.1088
    -1.7836  -1.7523  -1.6025  -1.4489  -1.3009  -1.0781  -1.0032  -0.9758
    -0.7526  -0.7366  -0.6057  -0.5378  -0.4302  -0.4242  -0.1917  -0.1096
    -0.0407  -0.0108   0.1586   0.2424   0.2612   0.3953   0.3988   0.6154
     0.6738   0.7674   0.8794   1.2016   1.3442   1.4933   1.5154   1.7342
     2.0168   2.0429   2.3021   2.7279   2.7590   2.9828   2.9942   3.1284
     3.4072   3.5056   3.5359

          k = 0.0301 0.1041 0.0000 ( 30436 PWs)   bands (ev):

   -59.7994 -59.7194 -59.6626 -59.6209 -59.5846 -59.5425 -34.1730 -34.0857
   -33.9924 -33.9101 -33.8888 -33.8755 -33.8187 -33.7769 -33.7234 -33.7014
   -33.6950 -33.6493 -33.6129 -33.4662 -33.4300 -33.3617 -33.2018 -33.1841
    -4.9567  -4.2243  -3.5620  -3.4826  -3.3853  -3.1613  -3.0510  -2.9034
    -2.8507  -2.7888  -2.6555  -2.5317  -2.3692  -2.2976  -2.2312  -2.1178
    -1.9866  -1.6338  -1.6134  -1.3123  -1.0587  -1.0221  -0.9983  -0.9928
    -0.9127  -0.8589  -0.7569  -0.6609  -0.5533  -0.4546  -0.3016  -0.2331
    -0.1520   0.0543   0.0557   0.1618   0.1952   0.4100   0.4429   0.4539
     0.6031   0.7333   0.8079   1.3321   1.3515   1.3914   1.4795   1.6494
     1.9918   2.0460   2.3018   2.6910   2.7430   2.9682   2.9803   3.0708
     3.2001   3.3384   3.4824

          k = 0.0301-0.0868 0.0000 ( 30418 PWs)   bands (ev):

   -59.7994 -59.7194 -59.6626 -59.6209 -59.5846 -59.5425 -34.1725 -34.0849
   -33.9920 -33.9090 -33.8886 -33.8751 -33.8188 -33.7772 -33.7233 -33.7015
   -33.6941 -33.6486 -33.6125 -33.4662 -33.4299 -33.3616 -33.2018 -33.1840
    -5.1072  -4.1848  -3.6405  -3.5562  -3.4506  -3.2710  -3.0928  -3.0720
    -2.9950  -2.8356  -2.7608  -2.5855  -2.4097  -2.3603  -2.1238  -2.1088
    -1.7836  -1.7523  -1.6025  -1.4489  -1.3009  -1.0781  -1.0032  -0.9758
    -0.7526  -0.7366  -0.6057  -0.5378  -0.4302  -0.4242  -0.1917  -0.1096
    -0.0407  -0.0108   0.1586   0.2424   0.2612   0.3953   0.3988   0.6154
     0.6738   0.7674   0.8794   1.2016   1.3442   1.4933   1.5154   1.7342
     2.0168   2.0429   2.3021   2.7279   2.7590   2.9828   2.9943   3.1284
     3.4069   3.5051   3.5360

          k = 0.0301-0.0694 0.0000 ( 30424 PWs)   bands (ev):

   -59.7997 -59.7194 -59.6627 -59.6210 -59.5846 -59.5425 -34.1712 -34.0827
   -33.9911 -33.9062 -33.8879 -33.8738 -33.8190 -33.7780 -33.7227 -33.7019
   -33.6918 -33.6468 -33.6113 -33.4660 -33.4296 -33.3614 -33.2017 -33.1839
    -5.4189  -4.1718  -3.8329  -3.7582  -3.6095  -3.4789  -3.3492  -3.2228
    -3.2129  -3.1172  -2.9430  -2.8328  -2.4324  -2.4214  -2.2415  -1.9428
    -1.8344  -1.7951  -1.5560  -1.5255  -1.3316  -1.0196  -1.0159  -0.8740
    -0.7083  -0.6161  -0.5094  -0.3781  -0.3455  -0.2437  -0.1711   0.0855
     0.0866   0.2086   0.3256   0.4208   0.4739   0.5367   0.5846   0.8291
     0.8913   1.0064   1.0677   1.0900   1.2470   1.4990   1.8803   1.9371
     2.0474   2.1088   2.4332   2.7577   2.8882   3.0212   3.0586   3.3238
     3.5679   3.6479   3.7163

          k = 0.0301-0.0521 0.0000 ( 30417 PWs)   bands (ev):

   -59.8000 -59.7194 -59.6628 -59.6211 -59.5847 -59.5426 -34.1695 -34.0796
   -33.9899 -33.9022 -33.8869 -33.8721 -33.8193 -33.7794 -33.7218 -33.7025
   -33.6888 -33.6442 -33.6098 -33.4658 -33.4293 -33.3611 -33.2015 -33.1837
    -5.7416  -4.2461  -4.0498  -4.0164  -3.8094  -3.7040  -3.6081  -3.4318
    -3.3641  -3.3401  -3.2043  -3.0282  -2.6943  -2.5785  -2.3798  -1.9945
    -1.8689  -1.7162  -1.4823  -1.4544  -1.1473  -1.0704  -0.9373  -0.8383
    -0.7686  -0.6481  -0.4062  -0.2489  -0.1733  -0.1634  -0.1316   0.1139
     0.3338   0.3403   0.3781   0.5320   0.7219   0.8228   0.9364   0.9814
     1.1183   1.2392   1.4168   1.4582   1.5764   1.5928   2.0407   2.0496
     2.3030   2.4543   2.7398   2.7850   3.0414   3.1046   3.1634   3.4828
     3.5758   3.7092   3.8984

          k = 0.0301-0.0347 0.0000 ( 30456 PWs)   bands (ev):

   -59.8003 -59.7195 -59.6629 -59.6212 -59.5848 -59.5427 -34.1677 -34.0766
   -33.9886 -33.8981 -33.8859 -33.8704 -33.8196 -33.7809 -33.7206 -33.7032
   -33.6859 -33.6415 -33.6084 -33.4656 -33.4289 -33.3608 -33.2014 -33.1834
    -6.0049  -4.3698  -4.2460  -4.2220  -4.0056  -3.8867  -3.8199  -3.6188
    -3.5336  -3.4313  -3.3688  -3.2100  -2.9221  -2.7115  -2.6705  -1.9823
    -1.8855  -1.6588  -1.3749  -1.3407  -1.1339  -1.0480  -0.9054  -0.8860
    -0.7969  -0.7443  -0.3693  -0.2349  -0.1901   0.0019   0.1145   0.1182
     0.4113   0.4668   0.4782   0.5928   0.9463   0.9845   1.1619   1.2440
     1.2903   1.4653   1.7283   1.8123   1.9646   2.1349   2.1622   2.2853
     2.5672   2.7335   2.9510   2.9762   3.1458   3.3583   3.3705   3.4903
     3.7611   3.8583   3.9507

          k = 0.0301-0.0174 0.0000 ( 30461 PWs)   bands (ev):

   -59.8006 -59.7195 -59.6630 -59.6212 -59.5848 -59.5428 -34.1664 -34.0744
   -33.9877 -33.8950 -33.8852 -33.8692 -33.8199 -33.7821 -33.7196 -33.7037
   -33.6839 -33.6395 -33.6074 -33.4654 -33.4286 -33.3606 -33.2012 -33.1833
    -6.1742  -4.4800  -4.3951  -4.3184  -4.1574  -3.9981  -3.9623  -3.7329
    -3.6362  -3.4847  -3.4571  -3.3340  -3.0410  -2.9046  -2.7977  -1.9644
    -1.9158  -1.6367  -1.3144  -1.2209  -1.1928  -1.1235  -0.9275  -0.8393
    -0.7969  -0.7479  -0.3905  -0.2762  -0.1967  -0.0151   0.2095   0.3288
     0.4500   0.5169   0.5619   0.6763   1.0579   1.1713   1.2781   1.3776
     1.4734   1.7023   1.9852   2.0036   2.0476   2.2224   2.5536   2.6938
     2.7834   2.7963   3.0158   3.1857   3.3457   3.4897   3.5741   3.7617
     3.8722   3.9424   4.0856

          k = 0.0301-0.0000 0.0000 ( 30479 PWs)   bands (ev):

   -59.8007 -59.7195 -59.6631 -59.6213 -59.5848 -59.5428 -34.1660 -34.0736
   -33.9874 -33.8939 -33.8849 -33.8688 -33.8199 -33.7826 -33.7193 -33.7038
   -33.6831 -33.6387 -33.6070 -33.4654 -33.4285 -33.3605 -33.2012 -33.1832
    -6.2323  -4.5235  -4.4456  -4.3437  -4.2198  -4.0350  -4.0113  -3.7708
    -3.6702  -3.5027  -3.4849  -3.3775  -3.0519  -3.0163  -2.8273  -1.9590
    -1.9282  -1.6306  -1.2893  -1.2274  -1.1776  -1.1449  -0.9578  -0.8362
    -0.8329  -0.6505  -0.4327  -0.2950  -0.2028  -0.0276   0.2396   0.4221
     0.4676   0.5154   0.6046   0.7101   1.0904   1.2763   1.2860   1.4239
     1.5338   1.8545   2.0297   2.0366   2.0817   2.2743   2.7048   2.7496
     2.7733   2.8613   3.1229   3.2813   3.5193   3.5589   3.6190   3.8115
     3.8792   3.9289   4.1223

          k = 0.0451 0.0260 0.0000 ( 30459 PWs)   bands (ev):

   -59.7931 -59.7269 -59.6559 -59.6141 -59.5920 -59.5499 -34.1050 -34.0678
   -33.9970 -33.8893 -33.8281 -33.8247 -33.8091 -33.7743 -33.7136 -33.7102
   -33.6782 -33.6480 -33.6157 -33.5327 -33.4227 -33.3671 -33.2667 -33.2492
    -5.8763  -4.2644  -4.1834  -4.1047  -3.9679  -3.7936  -3.7708  -3.5422
    -3.4576  -3.3357  -3.3160  -3.1805  -2.8999  -2.6139  -2.5386  -1.9327
    -1.9314  -1.6112  -1.4774  -1.3535  -1.1527  -1.0635  -0.9805  -0.9287
    -0.8534  -0.8110  -0.4601  -0.3370  -0.2797  -0.1115   0.0226   0.2500
     0.4223   0.4359   0.5428   0.6951   0.7312   0.9051   1.1128   1.1996
     1.2382   1.3296   1.5339   1.7493   1.8499   2.0152   2.0416   2.2890
     2.5482   2.6489   2.7695   3.0108   3.1309   3.2519   3.3702   3.6036
     3.6045   3.7167   3.8579

          k = 0.0451 0.0434 0.0000 ( 30430 PWs)   bands (ev):

   -59.7928 -59.7269 -59.6557 -59.6140 -59.5919 -59.5499 -34.1065 -34.0701
   -33.9977 -33.8927 -33.8276 -33.8255 -33.8104 -33.7730 -33.7144 -33.7098
   -33.6804 -33.6501 -33.6166 -33.5327 -33.4229 -33.3673 -33.2667 -33.2492
    -5.6672  -4.1901  -4.0555  -3.9422  -3.8112  -3.6307  -3.6236  -3.3765
    -3.3384  -3.2570  -3.2192  -3.0203  -2.7607  -2.4436  -2.3599  -1.9551
    -1.9092  -1.6349  -1.5870  -1.4810  -1.1514  -1.1374  -1.0342  -0.8247
    -0.8197  -0.7569  -0.4525  -0.3556  -0.2872  -0.2540  -0.0332   0.1595
     0.3691   0.3779   0.4490   0.5114   0.6221   0.8835   0.8914   0.9724
     1.0860   1.2070   1.2957   1.5350   1.5667   1.6985   1.9664   2.0009
     2.3978   2.5562   2.5727   2.7645   2.8942   3.0888   3.1552   3.5091
     3.6125   3.6377   3.7221

          k = 0.0451 0.0607 0.0000 ( 30434 PWs)   bands (ev):

   -59.7925 -59.7269 -59.6557 -59.6139 -59.5919 -59.5498 -34.1081 -34.0729
   -33.9986 -33.8965 -33.8274 -33.8260 -33.8120 -33.7718 -33.7151 -33.7093
   -33.6830 -33.6525 -33.6177 -33.5327 -33.4232 -33.3675 -33.2667 -33.2492
    -5.3794  -4.0615  -3.9541  -3.7199  -3.6177  -3.4295  -3.4130  -3.1846
    -3.1619  -3.1537  -2.9907  -2.8286  -2.5249  -2.3310  -2.2671  -1.9346
    -1.8102  -1.7034  -1.6835  -1.6003  -1.2774  -1.2416  -1.0709  -0.8573
    -0.7116  -0.6869  -0.5157  -0.4443  -0.4374  -0.2862  -0.1438   0.0711
     0.0985   0.1972   0.3981   0.4037   0.5881   0.5996   0.6481   0.7691
     0.7763   1.0597   1.1297   1.2696   1.3763   1.5335   1.8569   1.9997
     2.0192   2.2337   2.4531   2.5944   2.9495   2.9700   3.0688   3.3901
     3.5416   3.5941   3.7055

          k = 0.0451 0.0781 0.0000 ( 30384 PWs)   bands (ev):

   -59.7921 -59.7269 -59.6555 -59.6137 -59.5918 -59.5498 -34.1095 -34.0752
   -33.9994 -33.8997 -33.8278 -33.8257 -33.8134 -33.7708 -33.7156 -33.7089
   -33.6854 -33.6545 -33.6187 -33.5327 -33.4235 -33.3677 -33.2667 -33.2493
    -5.0561  -3.9416  -3.9173  -3.4959  -3.4260  -3.1979  -3.1760  -3.0059
    -3.0013  -2.9121  -2.7255  -2.6331  -2.4370  -2.2808  -2.1634  -2.0595
    -1.8059  -1.7837  -1.6471  -1.6049  -1.3577  -1.2801  -1.0905  -0.9705
    -0.7878  -0.7092  -0.6174  -0.5997  -0.4681  -0.4573  -0.2981  -0.1157
    -0.0566   0.0511   0.0708   0.3045   0.3635   0.4119   0.5135   0.5691
     0.6923   0.7996   1.1072   1.2162   1.4952   1.6082   1.6442   1.7480
     1.9682   2.1070   2.3932   2.6335   2.9004   2.9053   3.0979   3.2086
     3.4921   3.5356   3.6417

          k = 0.0451 0.0954 0.0000 ( 30417 PWs)   bands (ev):

   -59.7921 -59.7270 -59.6555 -59.6137 -59.5919 -59.5498 -34.1103 -34.0766
   -33.9998 -33.9016 -33.8282 -33.8254 -33.8142 -33.7703 -33.7158 -33.7088
   -33.6868 -33.6556 -33.6193 -33.5327 -33.4236 -33.3679 -33.2667 -33.2493
    -4.7963  -4.0097  -3.8187  -3.3562  -3.2967  -3.0507  -2.9165  -2.8575
    -2.8012  -2.6881  -2.6328  -2.5931  -2.3954  -2.3503  -2.2561  -2.0482
    -1.8810  -1.8408  -1.6427  -1.4042  -1.2318  -1.1936  -1.1313  -1.0780
    -0.9907  -0.9060  -0.8199  -0.7728  -0.5712  -0.5583  -0.4346  -0.1987
    -0.1498  -0.0206   0.0147   0.1511   0.2257   0.3232   0.5000   0.5200
     0.6429   0.6822   0.9866   1.4211   1.4332   1.5925   1.6081   1.7361
     1.9341   2.0958   2.5227   2.6529   2.8994   2.9232   3.0630   3.1324
     3.4114   3.4753   3.5158

          k = 0.0451 0.1128 0.0000 ( 30417 PWs)   bands (ev):

   -59.7921 -59.7270 -59.6555 -59.6137 -59.5919 -59.5498 -34.1103 -34.0766
   -33.9998 -33.9016 -33.8282 -33.8254 -33.8142 -33.7703 -33.7158 -33.7088
   -33.6868 -33.6556 -33.6193 -33.5327 -33.4236 -33.3679 -33.2667 -33.2493
    -4.7963  -4.0097  -3.8187  -3.3562  -3.2967  -3.0507  -2.9165  -2.8575
    -2.8012  -2.6881  -2.6328  -2.5931  -2.3954  -2.3503  -2.2561  -2.0482
    -1.8810  -1.8408  -1.6427  -1.4042  -1.2318  -1.1936  -1.1313  -1.0780
    -0.9907  -0.9060  -0.8199  -0.7728  -0.5712  -0.5583  -0.4346  -0.1987
    -0.1498  -0.0206   0.0147   0.1511   0.2257   0.3232   0.5000   0.5200
     0.6429   0.6822   0.9866   1.4211   1.4332   1.5925   1.6081   1.7361
     1.9341   2.0958   2.5227   2.6529   2.8994   2.9232   3.0630   3.1324
     3.4114   3.4755   3.5157

          k = 0.0451-0.0781 0.0000 ( 30384 PWs)   bands (ev):

   -59.7921 -59.7269 -59.6555 -59.6137 -59.5918 -59.5498 -34.1095 -34.0752
   -33.9994 -33.8997 -33.8278 -33.8257 -33.8134 -33.7708 -33.7156 -33.7089
   -33.6854 -33.6545 -33.6187 -33.5327 -33.4235 -33.3677 -33.2667 -33.2493
    -5.0561  -3.9416  -3.9173  -3.4959  -3.4260  -3.1979  -3.1760  -3.0059
    -3.0013  -2.9121  -2.7255  -2.6331  -2.4370  -2.2808  -2.1634  -2.0595
    -1.8059  -1.7837  -1.6471  -1.6049  -1.3577  -1.2801  -1.0905  -0.9705
    -0.7878  -0.7092  -0.6174  -0.5997  -0.4681  -0.4573  -0.2981  -0.1157
    -0.0566   0.0511   0.0708   0.3045   0.3635   0.4119   0.5135   0.5691
     0.6923   0.7996   1.1072   1.2162   1.4952   1.6082   1.6442   1.7480
     1.9682   2.1070   2.3931   2.6335   2.9003   2.9053   3.0979   3.2085
     3.4917   3.5354   3.6415

          k = 0.0451-0.0607 0.0000 ( 30434 PWs)   bands (ev):

   -59.7925 -59.7269 -59.6557 -59.6139 -59.5919 -59.5498 -34.1081 -34.0729
   -33.9986 -33.8965 -33.8274 -33.8260 -33.8120 -33.7718 -33.7151 -33.7093
   -33.6830 -33.6525 -33.6177 -33.5327 -33.4232 -33.3675 -33.2667 -33.2492
    -5.3794  -4.0615  -3.9541  -3.7199  -3.6177  -3.4295  -3.4130  -3.1846
    -3.1619  -3.1537  -2.9907  -2.8286  -2.5249  -2.3310  -2.2671  -1.9346
    -1.8102  -1.7034  -1.6835  -1.6003  -1.2774  -1.2416  -1.0709  -0.8573
    -0.7116  -0.6869  -0.5157  -0.4443  -0.4374  -0.2862  -0.1438   0.0711
     0.0985   0.1972   0.3981   0.4037   0.5881   0.5996   0.6481   0.7691
     0.7763   1.0597   1.1297   1.2696   1.3763   1.5335   1.8569   1.9997
     2.0192   2.2337   2.4531   2.5944   2.9495   2.9699   3.0687   3.3901
     3.5416   3.5938   3.7054

          k = 0.0451-0.0434 0.0000 ( 30430 PWs)   bands (ev):

   -59.7928 -59.7269 -59.6557 -59.6140 -59.5919 -59.5499 -34.1065 -34.0701
   -33.9977 -33.8927 -33.8276 -33.8255 -33.8104 -33.7730 -33.7144 -33.7098
   -33.6804 -33.6501 -33.6166 -33.5327 -33.4229 -33.3673 -33.2667 -33.2492
    -5.6672  -4.1901  -4.0555  -3.9422  -3.8112  -3.6307  -3.6236  -3.3765
    -3.3384  -3.2570  -3.2192  -3.0203  -2.7607  -2.4436  -2.3599  -1.9551
    -1.9092  -1.6349  -1.5870  -1.4810  -1.1514  -1.1374  -1.0342  -0.8247
    -0.8197  -0.7569  -0.4525  -0.3556  -0.2872  -0.2540  -0.0332   0.1595
     0.3691   0.3779   0.4490   0.5114   0.6221   0.8835   0.8914   0.9724
     1.0860   1.2070   1.2957   1.5350   1.5667   1.6985   1.9664   2.0009
     2.3978   2.5562   2.5727   2.7645   2.8942   3.0888   3.1552   3.5091
     3.6125   3.6377   3.7221

          k = 0.0451-0.0260 0.0000 ( 30459 PWs)   bands (ev):

   -59.7931 -59.7269 -59.6559 -59.6141 -59.5920 -59.5499 -34.1050 -34.0678
   -33.9970 -33.8893 -33.8281 -33.8247 -33.8091 -33.7743 -33.7136 -33.7102
   -33.6782 -33.6480 -33.6157 -33.5327 -33.4227 -33.3671 -33.2667 -33.2492
    -5.8763  -4.2644  -4.1834  -4.1047  -3.9679  -3.7936  -3.7708  -3.5422
    -3.4576  -3.3357  -3.3160  -3.1805  -2.8999  -2.6139  -2.5386  -1.9327
    -1.9314  -1.6112  -1.4774  -1.3535  -1.1527  -1.0635  -0.9805  -0.9287
    -0.8534  -0.8110  -0.4601  -0.3370  -0.2797  -0.1115   0.0226   0.2500
     0.4223   0.4359   0.5428   0.6951   0.7312   0.9051   1.1128   1.1996
     1.2382   1.3296   1.5339   1.7493   1.8499   2.0152   2.0416   2.2890
     2.5482   2.6489   2.7695   3.0108   3.1309   3.2519   3.3702   3.6036
     3.6045   3.7167   3.8579

          k = 0.0451-0.0087 0.0000 ( 30435 PWs)   bands (ev):

   -59.7932 -59.7269 -59.6559 -59.6141 -59.5920 -59.5499 -34.1042 -34.0664
   -33.9966 -33.8873 -33.8284 -33.8242 -33.8083 -33.7752 -33.7130 -33.7105
   -33.6769 -33.6467 -33.6152 -33.5327 -33.4225 -33.3670 -33.2666 -33.2491
    -5.9853  -4.2801  -4.2650  -4.1898  -4.0740  -3.8874  -3.8435  -3.6250
    -3.5164  -3.3836  -3.3452  -3.2723  -2.9250  -2.8142  -2.5899  -1.9517
    -1.9052  -1.6066  -1.4097  -1.2325  -1.2009  -1.0787  -1.0109  -1.0102
    -0.8526  -0.6999  -0.5410  -0.3547  -0.2989  -0.0110   0.0323   0.2694
     0.4565   0.4869   0.5974   0.7449   0.8706   0.9687   1.1669   1.2562
     1.3712   1.4430   1.6896   1.8196   2.0030   2.0542   2.1769   2.5580
     2.6725   2.7546   2.7779   3.0743   3.2923   3.4524   3.5098   3.6180
     3.6806   3.8596   3.9774

          k = 0.0451 0.0087 0.0000 ( 30435 PWs)   bands (ev):

   -59.7932 -59.7269 -59.6559 -59.6141 -59.5920 -59.5499 -34.1042 -34.0664
   -33.9966 -33.8873 -33.8284 -33.8242 -33.8083 -33.7752 -33.7130 -33.7105
   -33.6769 -33.6467 -33.6152 -33.5327 -33.4225 -33.3670 -33.2666 -33.2491
    -5.9853  -4.2801  -4.2650  -4.1898  -4.0740  -3.8874  -3.8435  -3.6250
    -3.5164  -3.3836  -3.3452  -3.2723  -2.9250  -2.8142  -2.5899  -1.9517
    -1.9052  -1.6066  -1.4097  -1.2325  -1.2009  -1.0787  -1.0109  -1.0102
    -0.8526  -0.6999  -0.5410  -0.3547  -0.2989  -0.0110   0.0323   0.2694
     0.4565   0.4869   0.5974   0.7449   0.8706   0.9687   1.1669   1.2562
     1.3712   1.4430   1.6896   1.8196   2.0030   2.0542   2.1769   2.5580
     2.6725   2.7546   2.7779   3.0744   3.2923   3.4524   3.5098   3.6180
     3.6807   3.8596   3.9810

          k = 0.0602 0.0347 0.0000 ( 30395 PWs)   bands (ev):

   -59.7833 -59.7365 -59.6464 -59.6046 -59.6013 -59.5593 -34.0587 -34.0243
   -34.0085 -33.8815 -33.8380 -33.7644 -33.7458 -33.7302 -33.7187 -33.7053
   -33.6705 -33.6587 -33.6260 -33.6191 -33.4148 -33.3754 -33.3509 -33.3340
    -5.4949  -4.2717  -3.8354  -3.7712  -3.7509  -3.5780  -3.5063  -3.2741
    -3.2293  -3.1895  -3.1089  -2.9911  -2.7142  -2.2908  -2.2576  -1.9602
    -1.8899  -1.7232  -1.5998  -1.5409  -1.3010  -1.2529  -0.9792  -0.8772
    -0.8337  -0.7500  -0.5176  -0.4746  -0.4685  -0.3746  -0.1621   0.0748
     0.2533   0.4014   0.4700   0.4861   0.5062   0.6739   0.8989   0.9660
     1.0406   1.1948   1.3066   1.5369   1.6327   1.6424   1.8404   2.0053
     2.2920   2.5328   2.5783   2.7043   2.7629   3.0674   3.1664   3.2261
     3.3006   3.4657   3.4668

          k = 0.0602 0.0521 0.0000 ( 30388 PWs)   bands (ev):

   -59.7830 -59.7366 -59.6463 -59.6045 -59.6013 -59.5592 -34.0608 -34.0257
   -34.0088 -33.8848 -33.8369 -33.7633 -33.7466 -33.7317 -33.7183 -33.7056
   -33.6725 -33.6606 -33.6265 -33.6188 -33.4151 -33.3756 -33.3508 -33.3339
    -5.2645  -4.2556  -3.7128  -3.6253  -3.6234  -3.4332  -3.3387  -3.1223
    -3.1207  -3.0467  -3.0056  -2.8251  -2.5679  -2.2186  -2.1855  -1.9665
    -1.7875  -1.7626  -1.6787  -1.6659  -1.4142  -1.3116  -1.0707  -0.8621
    -0.7807  -0.6379  -0.5577  -0.5518  -0.4776  -0.3801  -0.2169  -0.0561
     0.1410   0.1925   0.2757   0.4182   0.4962   0.6442   0.6571   0.7679
     0.8395   1.0151   1.1711   1.4610   1.4946   1.5926   1.7386   1.9917
     2.0591   2.3137   2.4444   2.4852   2.8432   2.8722   3.0937   3.1674
     3.2749   3.4080   3.5017

          k = 0.0602 0.0694 0.0000 ( 30412 PWs)   bands (ev):

   -59.7828 -59.7367 -59.6463 -59.6045 -59.6013 -59.5592 -34.0630 -34.0271
   -34.0092 -33.8880 -33.8358 -33.7624 -33.7474 -33.7331 -33.7180 -33.7058
   -33.6747 -33.6624 -33.6271 -33.6186 -33.4152 -33.3757 -33.3507 -33.3337
    -4.9735  -4.2061  -3.6663  -3.4573  -3.4286  -3.2624  -3.1365  -2.9814
    -2.9614  -2.9341  -2.7784  -2.6283  -2.4084  -2.2322  -2.1672  -2.0194
    -1.8762  -1.8515  -1.7610  -1.5817  -1.4718  -1.3056  -1.1374  -0.9150
    -0.9010  -0.6801  -0.6199  -0.5685  -0.5565  -0.5082  -0.3249  -0.1828
    -0.0580   0.0329   0.1334   0.2435   0.3063   0.4550   0.6222   0.6367
     0.8156   0.8188   1.1331   1.3446   1.5735   1.6300   1.7708   1.7742
     2.0029   2.1865   2.3779   2.5333   2.7750   2.9460   3.0730   3.1014
     3.3368   3.3765   3.4973

          k = 0.0602 0.0868 0.0000 ( 30410 PWs)   bands (ev):

   -59.7826 -59.7367 -59.6462 -59.6044 -59.6013 -59.5592 -34.0645 -34.0280
   -34.0095 -33.8903 -33.8350 -33.7618 -33.7480 -33.7341 -33.7178 -33.7058
   -33.6763 -33.6637 -33.6276 -33.6184 -33.4154 -33.3759 -33.3506 -33.3336
    -4.6772  -4.1531  -3.7377  -3.2960  -3.2441  -3.0481  -2.9536  -2.8232
    -2.8027  -2.7599  -2.6621  -2.5512  -2.3959  -2.2900  -2.0856  -2.0667
    -1.9838  -1.9163  -1.7059  -1.6986  -1.4040  -1.2029  -1.1280  -1.0741
    -1.0311  -0.9799  -0.9374  -0.6732  -0.5954  -0.4674  -0.4573  -0.3231
    -0.1540  -0.0363   0.0269   0.2109   0.2256   0.2548   0.5742   0.5882
     0.6611   0.8402   1.1955   1.4194   1.4237   1.6118   1.7097   1.9000
     2.1075   2.1618   2.5803   2.5867   2.7288   3.0166   3.0580   3.1740
     3.3332   3.4148   3.4696

          k = 0.0602 0.1041 0.0000 ( 30432 PWs)   bands (ev):

   -59.7827 -59.7367 -59.6463 -59.6045 -59.6012 -59.5592 -34.0651 -34.0283
   -34.0096 -33.8911 -33.8347 -33.7616 -33.7482 -33.7345 -33.7177 -33.7058
   -33.6769 -33.6642 -33.6278 -33.6184 -33.4155 -33.3759 -33.3506 -33.3336
    -4.5237  -4.1303  -3.8135  -3.2284  -3.1632  -2.9062  -2.8759  -2.7242
    -2.6860  -2.6692  -2.6136  -2.5957  -2.4664  -2.4415  -2.1253  -2.0434
    -2.0218  -1.8245  -1.5985  -1.5727  -1.3473  -1.2960  -1.2311  -1.2161
    -1.1883  -1.1176  -1.0561  -0.6870  -0.5403  -0.5255  -0.4348  -0.3281
    -0.2031  -0.1549   0.0550   0.0766   0.2476   0.3359   0.4746   0.5583
     0.6302   0.8844   1.1269   1.4068   1.5106   1.5545   1.7281   2.0267
     2.0546   2.1829   2.6045   2.7174   2.8178   2.9691   3.1774   3.3220
     3.3764   3.4262   3.4353

          k = 0.0602 0.1215 0.0000 ( 30410 PWs)   bands (ev):

   -59.7826 -59.7367 -59.6462 -59.6044 -59.6013 -59.5592 -34.0645 -34.0280
   -34.0095 -33.8903 -33.8350 -33.7618 -33.7480 -33.7341 -33.7178 -33.7058
   -33.6763 -33.6637 -33.6276 -33.6184 -33.4154 -33.3759 -33.3506 -33.3336
    -4.6772  -4.1531  -3.7377  -3.2960  -3.2441  -3.0481  -2.9536  -2.8232
    -2.8027  -2.7599  -2.6621  -2.5512  -2.3959  -2.2900  -2.0856  -2.0667
    -1.9838  -1.9163  -1.7059  -1.6986  -1.4040  -1.2029  -1.1280  -1.0741
    -1.0311  -0.9799  -0.9374  -0.6732  -0.5954  -0.4674  -0.4573  -0.3231
    -0.1540  -0.0363   0.0269   0.2109   0.2256   0.2548   0.5742   0.5882
     0.6611   0.8402   1.1955   1.4194   1.4237   1.6118   1.7097   1.9000
     2.1075   2.1618   2.5803   2.5867   2.7288   3.0166   3.0580   3.1740
     3.3328   3.4146   3.4697

          k = 0.0602-0.0694 0.0000 ( 30412 PWs)   bands (ev):

   -59.7828 -59.7367 -59.6463 -59.6045 -59.6013 -59.5592 -34.0630 -34.0271
   -34.0092 -33.8880 -33.8358 -33.7624 -33.7474 -33.7331 -33.7180 -33.7058
   -33.6747 -33.6624 -33.6271 -33.6186 -33.4152 -33.3757 -33.3507 -33.3337
    -4.9735  -4.2061  -3.6663  -3.4573  -3.4286  -3.2624  -3.1365  -2.9814
    -2.9614  -2.9341  -2.7784  -2.6283  -2.4084  -2.2322  -2.1672  -2.0194
    -1.8762  -1.8515  -1.7610  -1.5817  -1.4718  -1.3056  -1.1374  -0.9150
    -0.9010  -0.6801  -0.6199  -0.5685  -0.5565  -0.5082  -0.3249  -0.1828
    -0.0580   0.0329   0.1334   0.2435   0.3063   0.4550   0.6222   0.6367
     0.8156   0.8188   1.1331   1.3446   1.5735   1.6300   1.7708   1.7742
     2.0029   2.1865   2.3779   2.5333   2.7750   2.9460   3.0730   3.1013
     3.3367   3.3764   3.4974

          k = 0.0602-0.0521 0.0000 ( 30388 PWs)   bands (ev):

   -59.7830 -59.7366 -59.6463 -59.6045 -59.6013 -59.5592 -34.0608 -34.0257
   -34.0088 -33.8848 -33.8369 -33.7633 -33.7466 -33.7317 -33.7183 -33.7056
   -33.6725 -33.6606 -33.6265 -33.6188 -33.4151 -33.3756 -33.3508 -33.3339
    -5.2645  -4.2556  -3.7128  -3.6253  -3.6234  -3.4332  -3.3387  -3.1223
    -3.1207  -3.0467  -3.0056  -2.8251  -2.5679  -2.2186  -2.1855  -1.9665
    -1.7875  -1.7626  -1.6787  -1.6659  -1.4142  -1.3116  -1.0707  -0.8621
    -0.7807  -0.6379  -0.5577  -0.5518  -0.4776  -0.3801  -0.2169  -0.0561
     0.1410   0.1925   0.2757   0.4182   0.4962   0.6442   0.6571   0.7679
     0.8395   1.0151   1.1711   1.4610   1.4946   1.5926   1.7386   1.9917
     2.0591   2.3137   2.4444   2.4852   2.8432   2.8722   3.0937   3.1674
     3.2749   3.4080   3.5018

          k = 0.0602-0.0347 0.0000 ( 30395 PWs)   bands (ev):

   -59.7833 -59.7365 -59.6464 -59.6046 -59.6013 -59.5593 -34.0587 -34.0243
   -34.0085 -33.8815 -33.8380 -33.7644 -33.7458 -33.7302 -33.7187 -33.7053
   -33.6705 -33.6587 -33.6260 -33.6191 -33.4148 -33.3754 -33.3509 -33.3340
    -5.4949  -4.2717  -3.8354  -3.7712  -3.7509  -3.5780  -3.5063  -3.2741
    -3.2293  -3.1895  -3.1089  -2.9911  -2.7142  -2.2908  -2.2576  -1.9602
    -1.8899  -1.7232  -1.5998  -1.5409  -1.3010  -1.2529  -0.9792  -0.8772
    -0.8337  -0.7500  -0.5176  -0.4746  -0.4685  -0.3746  -0.1621   0.0748
     0.2533   0.4014   0.4700   0.4861   0.5062   0.6739   0.8989   0.9660
     1.0406   1.1948   1.3066   1.5369   1.6327   1.6424   1.8404   2.0053
     2.2920   2.5328   2.5783   2.7043   2.7629   3.0674   3.1664   3.2262
     3.3005   3.4656   3.4668

          k = 0.0602-0.0174 0.0000 ( 30423 PWs)   bands (ev):

   -59.7835 -59.7365 -59.6465 -59.6047 -59.6013 -59.5593 -34.0571 -34.0232
   -34.0084 -33.8790 -33.8388 -33.7654 -33.7451 -33.7291 -33.7191 -33.7048
   -33.6691 -33.6573 -33.6258 -33.6193 -33.4147 -33.3753 -33.3510 -33.3342
    -5.6405  -4.2457  -3.9258  -3.8743  -3.8464  -3.6989  -3.6102  -3.4101
    -3.2904  -3.2506  -3.1402  -3.1187  -2.7583  -2.5038  -2.3145  -1.9833
    -1.8741  -1.6609  -1.5845  -1.3968  -1.2309  -1.2215  -0.9788  -0.9140
    -0.8915  -0.8033  -0.5865  -0.4476  -0.4155  -0.4080  -0.1258   0.1267
     0.3111   0.4319   0.5079   0.5867   0.6557   0.7952   0.9101   1.1507
     1.1719   1.2659   1.5343   1.5843   1.7045   1.8437   1.9543   2.0801
     2.3305   2.6816   2.7032   2.8547   3.0010   3.1733   3.1914   3.3355
     3.4943   3.5293   3.6822

          k = 0.0602 0.0000 0.0000 ( 30421 PWs)   bands (ev):

   -59.7836 -59.7365 -59.6465 -59.6047 -59.6013 -59.5593 -34.0565 -34.0228
   -34.0083 -33.8781 -33.8391 -33.7657 -33.7449 -33.7287 -33.7193 -33.7047
   -33.6686 -33.6567 -33.6257 -33.6193 -33.4146 -33.3753 -33.3510 -33.3342
    -5.6901  -4.2175  -3.9561  -3.9268  -3.8836  -3.7457  -3.6446  -3.4534
    -3.3107  -3.2639  -3.1706  -3.1496  -2.7144  -2.6490  -2.3351  -1.9941
    -1.8545  -1.6392  -1.5860  -1.2981  -1.2397  -1.1953  -1.0791  -0.9358
    -0.8595  -0.7630  -0.6599  -0.4515  -0.4255  -0.3927  -0.1081   0.1385
     0.3298   0.3948   0.5502   0.6247   0.7845   0.8299   0.8895   1.1333
     1.1961   1.3887   1.5749   1.7025   1.7127   1.8109   2.0366   2.1191
     2.3526   2.7602   2.7783   2.9286   2.9405   3.1708   3.3035   3.3388
     3.5650   3.7424   3.9977

          k = 0.0602 0.0174 0.0000 ( 30423 PWs)   bands (ev):

   -59.7835 -59.7365 -59.6465 -59.6047 -59.6013 -59.5593 -34.0571 -34.0232
   -34.0084 -33.8790 -33.8388 -33.7654 -33.7451 -33.7291 -33.7191 -33.7048
   -33.6691 -33.6573 -33.6258 -33.6193 -33.4147 -33.3753 -33.3510 -33.3342
    -5.6405  -4.2457  -3.9258  -3.8743  -3.8464  -3.6989  -3.6102  -3.4101
    -3.2904  -3.2506  -3.1402  -3.1187  -2.7583  -2.5038  -2.3145  -1.9833
    -1.8741  -1.6609  -1.5845  -1.3968  -1.2309  -1.2215  -0.9788  -0.9140
    -0.8915  -0.8033  -0.5865  -0.4476  -0.4155  -0.4080  -0.1258   0.1267
     0.3111   0.4319   0.5079   0.5867   0.6557   0.7952   0.9101   1.1507
     1.1719   1.2659   1.5343   1.5843   1.7045   1.8437   1.9543   2.0801
     2.3305   2.6816   2.7032   2.8547   3.0010   3.1733   3.1914   3.3355
     3.4941   3.5292   3.6820

          k = 0.0752 0.0434 0.0000 ( 30383 PWs)   bands (ev):

   -59.7720 -59.7478 -59.6355 -59.6122 -59.5937 -59.5702 -34.0476 -34.0217
   -33.9289 -33.8719 -33.8492 -33.7536 -33.7295 -33.7192 -33.6947 -33.6716
   -33.6602 -33.6520 -33.6389 -33.6349 -33.4482 -33.4318 -33.4051 -33.3850
    -5.0750  -4.4030  -3.6034  -3.5918  -3.3739  -3.3651  -3.2695  -3.0704
    -3.0139  -2.9829  -2.8793  -2.7953  -2.5076  -2.1855  -2.1774  -2.0707
    -1.7875  -1.7638  -1.6632  -1.6491  -1.5105  -1.3926  -0.9987  -0.9260
    -0.7580  -0.6923  -0.6501  -0.5574  -0.5062  -0.4516  -0.3646  -0.3516
    -0.3092   0.2129   0.2580   0.4440   0.5510   0.6239   0.6305   0.8220
     0.9267   1.0970   1.1022   1.5561   1.6103   1.6870   1.7381   1.9615
     2.0836   2.2544   2.4202   2.4742   2.6571   2.7159   2.7740   3.0207
     3.1012   3.1117   3.3396

          k = 0.0752 0.0607 0.0000 ( 30402 PWs)   bands (ev):

   -59.7718 -59.7479 -59.6355 -59.6122 -59.5937 -59.5702 -34.0492 -34.0214
   -33.9300 -33.8747 -33.8476 -33.7527 -33.7296 -33.7189 -33.6945 -33.6728
   -33.6616 -33.6527 -33.6393 -33.6354 -33.4478 -33.4313 -33.4053 -33.3851
    -4.8521  -4.4680  -3.5373  -3.4803  -3.3235  -3.2711  -3.1457  -2.9857
    -2.9313  -2.8518  -2.8260  -2.6182  -2.3938  -2.2132  -2.2052  -2.1511
    -1.9353  -1.8390  -1.6259  -1.5545  -1.5514  -1.3071  -1.0165  -0.9936
    -0.8412  -0.7354  -0.7283  -0.5984  -0.5723  -0.5011  -0.4425  -0.3862
    -0.1599   0.0840   0.1869   0.2993   0.4197   0.4741   0.6315   0.7111
     0.8428   0.9619   1.1652   1.4690   1.5204   1.7684   1.7760   1.9323
     2.0937   2.1998   2.3656   2.4474   2.5101   2.6991   2.8424   2.9767
     3.0834   3.0861   3.3707

          k = 0.0752 0.0781 0.0000 ( 30437 PWs)   bands (ev):

   -59.7717 -59.7480 -59.6355 -59.6122 -59.5937 -59.5703 -34.0506 -34.0212
   -33.9310 -33.8771 -33.8461 -33.7521 -33.7298 -33.7186 -33.6942 -33.6737
   -33.6629 -33.6534 -33.6395 -33.6363 -33.4475 -33.4309 -33.4055 -33.3852
    -4.5907  -4.5005  -3.5351  -3.3103  -3.2987  -3.1660  -3.0033  -2.8843
    -2.8426  -2.7731  -2.7489  -2.4727  -2.3803  -2.3702  -2.2145  -2.1218
    -1.9940  -1.8796  -1.6113  -1.5831  -1.5219  -1.1639  -1.1461  -1.0414
    -1.0263  -0.9766  -0.9223  -0.7424  -0.6407  -0.5126  -0.4176  -0.4044
    -0.0489  -0.0310   0.0947   0.1092   0.4002   0.4285   0.6081   0.6909
     0.6972   1.0985   1.3215   1.3414   1.4493   1.6649   1.7734   2.1338
     2.1807   2.2342   2.4307   2.5463   2.5628   2.6729   2.9673   3.0120
     3.1605   3.2025   3.3597

          k = 0.0752 0.0954 0.0000 ( 30425 PWs)   bands (ev):

   -59.7716 -59.7480 -59.6355 -59.6122 -59.5936 -59.5702 -34.0514 -34.0210
   -33.9316 -33.8784 -33.8453 -33.7518 -33.7299 -33.7185 -33.6939 -33.6740
   -33.6636 -33.6538 -33.6393 -33.6371 -33.4474 -33.4307 -33.4056 -33.3852
    -4.5119  -4.3675  -3.6315  -3.2483  -3.1578  -3.0834  -2.8815  -2.8145
    -2.8005  -2.6914  -2.6913  -2.5478  -2.5390  -2.3500  -2.3093  -1.9984
    -1.8674  -1.7805  -1.6414  -1.6402  -1.4268  -1.3854  -1.2940  -1.1810
    -1.1554  -1.0550  -1.0379  -0.8182  -0.6624  -0.5301  -0.3994  -0.3212
    -0.1521  -0.1107   0.0781   0.1060   0.3828   0.4462   0.5500   0.6710
     0.7032   1.1911   1.2955   1.3358   1.5549   1.5707   1.7270   2.2244
     2.2477   2.3453   2.3863   2.6072   2.6712   2.9611   2.9619   3.2060
     3.2343   3.2362   3.3696

          k = 0.0752 0.1128 0.0000 ( 30425 PWs)   bands (ev):

   -59.7716 -59.7480 -59.6355 -59.6122 -59.5936 -59.5702 -34.0514 -34.0210
   -33.9316 -33.8784 -33.8453 -33.7518 -33.7299 -33.7185 -33.6939 -33.6740
   -33.6636 -33.6538 -33.6393 -33.6371 -33.4474 -33.4307 -33.4056 -33.3852
    -4.5119  -4.3675  -3.6315  -3.2483  -3.1578  -3.0834  -2.8815  -2.8145
    -2.8005  -2.6914  -2.6913  -2.5478  -2.5390  -2.3500  -2.3093  -1.9984
    -1.8674  -1.7805  -1.6414  -1.6402  -1.4268  -1.3854  -1.2940  -1.1810
    -1.1554  -1.0550  -1.0379  -0.8182  -0.6624  -0.5301  -0.3994  -0.3212
    -0.1521  -0.1107   0.0781   0.1060   0.3828   0.4462   0.5500   0.6710
     0.7032   1.1911   1.2955   1.3358   1.5549   1.5707   1.7270   2.2244
     2.2477   2.3453   2.3863   2.6072   2.6712   2.9611   2.9619   3.2060
     3.2343   3.2362   3.3696

          k = 0.0752 0.1301 0.0000 ( 30437 PWs)   bands (ev):

   -59.7717 -59.7480 -59.6355 -59.6122 -59.5937 -59.5703 -34.0506 -34.0212
   -33.9310 -33.8771 -33.8461 -33.7521 -33.7298 -33.7186 -33.6942 -33.6737
   -33.6629 -33.6534 -33.6395 -33.6363 -33.4475 -33.4309 -33.4055 -33.3852
    -4.5907  -4.5005  -3.5351  -3.3103  -3.2987  -3.1660  -3.0033  -2.8843
    -2.8426  -2.7731  -2.7489  -2.4727  -2.3803  -2.3702  -2.2145  -2.1218
    -1.9940  -1.8796  -1.6113  -1.5831  -1.5219  -1.1639  -1.1461  -1.0414
    -1.0263  -0.9766  -0.9223  -0.7424  -0.6407  -0.5126  -0.4176  -0.4044
    -0.0489  -0.0310   0.0947   0.1092   0.4002   0.4285   0.6081   0.6909
     0.6972   1.0985   1.3215   1.3414   1.4493   1.6649   1.7734   2.1338
     2.1807   2.2342   2.4307   2.5463   2.5628   2.6729   2.9675   3.0120
     3.1607   3.2025   3.3597

          k = 0.0752-0.0607 0.0000 ( 30402 PWs)   bands (ev):

   -59.7718 -59.7479 -59.6355 -59.6122 -59.5937 -59.5702 -34.0492 -34.0214
   -33.9300 -33.8747 -33.8476 -33.7527 -33.7296 -33.7189 -33.6945 -33.6728
   -33.6616 -33.6527 -33.6393 -33.6354 -33.4478 -33.4313 -33.4053 -33.3851
    -4.8521  -4.4680  -3.5373  -3.4803  -3.3235  -3.2711  -3.1457  -2.9857
    -2.9313  -2.8518  -2.8260  -2.6182  -2.3938  -2.2132  -2.2052  -2.1511
    -1.9353  -1.8390  -1.6259  -1.5545  -1.5514  -1.3071  -1.0165  -0.9936
    -0.8412  -0.7354  -0.7283  -0.5984  -0.5723  -0.5011  -0.4425  -0.3862
    -0.1599   0.0840   0.1869   0.2993   0.4197   0.4741   0.6315   0.7111
     0.8428   0.9619   1.1652   1.4690   1.5204   1.7684   1.7760   1.9323
     2.0937   2.1998   2.3656   2.4474   2.5101   2.6991   2.8424   2.9767
     3.0834   3.0861   3.3714

          k = 0.0752-0.0434 0.0000 ( 30383 PWs)   bands (ev):

   -59.7720 -59.7478 -59.6355 -59.6122 -59.5937 -59.5702 -34.0476 -34.0217
   -33.9289 -33.8719 -33.8492 -33.7536 -33.7295 -33.7192 -33.6947 -33.6716
   -33.6602 -33.6520 -33.6389 -33.6349 -33.4482 -33.4318 -33.4051 -33.3850
    -5.0750  -4.4030  -3.6034  -3.5918  -3.3739  -3.3651  -3.2695  -3.0704
    -3.0139  -2.9829  -2.8793  -2.7953  -2.5076  -2.1855  -2.1774  -2.0707
    -1.7875  -1.7638  -1.6632  -1.6491  -1.5105  -1.3926  -0.9987  -0.9260
    -0.7580  -0.6923  -0.6501  -0.5574  -0.5062  -0.4516  -0.3646  -0.3516
    -0.3092   0.2129   0.2580   0.4440   0.5510   0.6239   0.6305   0.8220
     0.9267   1.0970   1.1022   1.5561   1.6103   1.6870   1.7381   1.9615
     2.0836   2.2544   2.4202   2.4742   2.6571   2.7159   2.7740   3.0207
     3.1012   3.1117   3.3397

          k = 0.0752-0.0260 0.0000 ( 30388 PWs)   bands (ev):

   -59.7721 -59.7477 -59.6355 -59.6122 -59.5937 -59.5703 -34.0462 -34.0220
   -33.9279 -33.8693 -33.8507 -33.7545 -33.7295 -33.7194 -33.6947 -33.6702
   -33.6591 -33.6513 -33.6384 -33.6348 -33.4485 -33.4322 -33.4049 -33.3850
    -5.2322  -4.3041  -3.6797  -3.6198  -3.4755  -3.4462  -3.3626  -3.1538
    -3.1029  -3.0433  -2.9329  -2.9083  -2.5564  -2.2386  -2.2217  -1.9913
    -1.8272  -1.7177  -1.6653  -1.6377  -1.4156  -1.3841  -0.9908  -0.9896
    -0.8036  -0.6818  -0.6019  -0.5863  -0.5361  -0.5140  -0.4102  -0.3169
    -0.2136   0.2248   0.3793   0.4573   0.5407   0.7390   0.9093   0.9769
     1.0730   1.0993   1.3566   1.5083   1.6302   1.6928   1.6969   2.0689
     2.1611   2.2883   2.5098   2.6392   2.7254   2.8075   3.0847   3.1542
     3.1644   3.2692   3.2821

          k = 0.0752-0.0087 0.0000 ( 30438 PWs)   bands (ev):

   -59.7723 -59.7478 -59.6356 -59.6123 -59.5938 -59.5703 -34.0454 -34.0221
   -33.9273 -33.8679 -33.8516 -33.7552 -33.7295 -33.7196 -33.6947 -33.6692
   -33.6585 -33.6510 -33.6381 -33.6348 -33.4487 -33.4325 -33.4048 -33.3850
    -5.3129  -4.2045  -3.7407  -3.6104  -3.5519  -3.5212  -3.4112  -3.2305
    -3.1197  -3.0494  -3.0275  -2.9176  -2.5096  -2.3576  -2.2851  -1.9611
    -1.8891  -1.7494  -1.5928  -1.5107  -1.3892  -1.3411  -1.1035  -0.9892
    -0.8789  -0.6983  -0.6122  -0.6084  -0.5785  -0.5508  -0.4265  -0.2243
    -0.1623   0.1288   0.4760   0.5233   0.5397   0.7469   1.0521   1.0742
     1.1961   1.2221   1.4745   1.5244   1.5927   1.6693   1.6940   2.0589
     2.2441   2.3146   2.6042   2.6938   2.8386   2.9152   3.1446   3.2098
     3.3430   3.4390   3.6815

          k = 0.0752 0.0087 0.0000 ( 30438 PWs)   bands (ev):

   -59.7723 -59.7478 -59.6356 -59.6123 -59.5938 -59.5703 -34.0454 -34.0221
   -33.9273 -33.8679 -33.8516 -33.7552 -33.7295 -33.7196 -33.6947 -33.6692
   -33.6585 -33.6510 -33.6381 -33.6349 -33.4487 -33.4325 -33.4048 -33.3850
    -5.3129  -4.2045  -3.7407  -3.6104  -3.5519  -3.5212  -3.4112  -3.2305
    -3.1197  -3.0494  -3.0275  -2.9176  -2.5096  -2.3576  -2.2851  -1.9611
    -1.8891  -1.7494  -1.5928  -1.5107  -1.3892  -1.3411  -1.1035  -0.9892
    -0.8789  -0.6983  -0.6122  -0.6084  -0.5785  -0.5508  -0.4265  -0.2243
    -0.1623   0.1288   0.4760   0.5233   0.5397   0.7469   1.0521   1.0742
     1.1961   1.2221   1.4745   1.5244   1.5927   1.6693   1.6940   2.0589
     2.2441   2.3146   2.6041   2.6938   2.8386   2.9151   3.1446   3.2097
     3.3430   3.4390   3.6815

          k = 0.0752 0.0260 0.0000 ( 30388 PWs)   bands (ev):

   -59.7721 -59.7477 -59.6355 -59.6122 -59.5937 -59.5703 -34.0462 -34.0220
   -33.9279 -33.8693 -33.8507 -33.7545 -33.7295 -33.7194 -33.6947 -33.6702
   -33.6591 -33.6513 -33.6384 -33.6348 -33.4485 -33.4322 -33.4049 -33.3850
    -5.2322  -4.3041  -3.6797  -3.6198  -3.4755  -3.4462  -3.3626  -3.1538
    -3.1029  -3.0433  -2.9329  -2.9083  -2.5564  -2.2386  -2.2217  -1.9913
    -1.8272  -1.7177  -1.6653  -1.6377  -1.4156  -1.3841  -0.9908  -0.9896
    -0.8036  -0.6818  -0.6019  -0.5863  -0.5361  -0.5140  -0.4102  -0.3170
    -0.2136   0.2248   0.3793   0.4573   0.5407   0.7390   0.9093   0.9769
     1.0730   1.0993   1.3566   1.5083   1.6302   1.6928   1.6969   2.0689
     2.1611   2.2883   2.5098   2.6392   2.7254   2.8075   3.0847   3.1542
     3.1644   3.2693   3.2821

          k =-0.0903-0.0521 0.0000 ( 30410 PWs)   bands (ev):

   -59.7599 -59.7599 -59.6239 -59.6239 -59.5820 -59.5820 -34.0350 -34.0350
   -33.8611 -33.8611 -33.8250 -33.8249 -33.7408 -33.7408 -33.6833 -33.6833
   -33.6494 -33.6494 -33.5508 -33.5508 -33.5348 -33.5348 -33.3952 -33.3952
    -4.6849  -4.6849  -3.5202  -3.5202  -3.2545  -3.2545  -3.0664  -3.0664
    -2.8992  -2.8992  -2.6740  -2.6740  -2.3172  -2.3172  -2.2414  -2.2414
    -1.8922  -1.8922  -1.5706  -1.5706  -1.3655  -1.3654  -0.9054  -0.9053
    -0.8771  -0.8771  -0.7171  -0.7171  -0.6035  -0.6035  -0.4537  -0.4537
    -0.0715  -0.0715   0.3138   0.3138   0.5220   0.5220   0.6473   0.6473
     0.9125   0.9125   1.3491   1.3491   1.6772   1.6773   2.0001   2.0001
     2.1763   2.1763   2.2910   2.2910   2.4178   2.4178   2.7875   2.7876
     3.0574   3.0576   3.3336

          k =-0.0903-0.0347 0.0000 ( 30403 PWs)   bands (ev):

   -59.7600 -59.7598 -59.6239 -59.6239 -59.5820 -59.5820 -34.0359 -34.0341
   -33.8632 -33.8589 -33.8258 -33.8242 -33.7412 -33.7405 -33.6840 -33.6825
   -33.6502 -33.6487 -33.5513 -33.5503 -33.5355 -33.5341 -33.3953 -33.3952
    -4.8161  -4.5086  -3.5449  -3.4622  -3.3047  -3.2321  -3.0668  -3.0621
    -2.9132  -2.8878  -2.7313  -2.6571  -2.3592  -2.3070  -2.2994  -2.1775
    -1.8832  -1.8193  -1.5841  -1.5716  -1.4270  -1.3494  -1.0008  -0.9734
    -0.8994  -0.8095  -0.8070  -0.6958  -0.6179  -0.6155  -0.4933  -0.4312
    -0.2209   0.0699   0.2265   0.3434   0.5341   0.6274   0.6275   0.7649
     0.7676   1.1290   1.2213   1.4613   1.6505   1.7197   1.9518   1.9863
     2.0578   2.3158   2.3277   2.3714   2.5185   2.5822   2.7015   2.9384
     3.1029   3.1584   3.2643

          k =-0.0903-0.0174 0.0000 ( 30416 PWs)   bands (ev):

   -59.7601 -59.7597 -59.6239 -59.6239 -59.5820 -59.5820 -34.0366 -34.0334
   -33.8646 -33.8571 -33.8266 -33.8237 -33.7416 -33.7403 -33.6843 -33.6817
   -33.6508 -33.6482 -33.5517 -33.5500 -33.5361 -33.5336 -33.3953 -33.3951
    -4.8951  -4.3175  -3.5840  -3.3729  -3.3602  -3.2374  -3.0805  -3.0469
    -2.9475  -2.8508  -2.8220  -2.6484  -2.3818  -2.3392  -2.2929  -2.1511
    -1.8343  -1.7652  -1.6349  -1.5471  -1.4548  -1.3415  -1.1384  -1.0923
    -0.9656  -0.8639  -0.8200  -0.7345  -0.6822  -0.6302  -0.5385  -0.3307
    -0.3040   0.0336   0.2400   0.3559   0.5835   0.6746   0.6989   0.7405
     0.8801   1.1846   1.3345   1.5596   1.5878   1.7281   1.8832   1.9405
     2.0170   2.3959   2.4128   2.5605   2.6173   2.7017   3.0441   3.1621
     3.1646   3.2007   3.3130

          k =-0.0903 0.0000 0.0000 ( 30384 PWs)   bands (ev):

   -59.7601 -59.7596 -59.6239 -59.6238 -59.5820 -59.5819 -34.0368 -34.0332
   -33.8651 -33.8564 -33.8269 -33.8235 -33.7417 -33.7403 -33.6844 -33.6814
   -33.6510 -33.6481 -33.5519 -33.5498 -33.5363 -33.5334 -33.3954 -33.3951
    -4.9212  -4.2145  -3.6361  -3.3747  -3.3042  -3.2622  -3.0969  -3.0328
    -2.9602  -2.8759  -2.8228  -2.6431  -2.4312  -2.3419  -2.2024  -2.1607
    -1.9505  -1.6635  -1.6238  -1.5316  -1.4391  -1.3211  -1.2728  -1.1497
    -1.0039  -0.8711  -0.8441  -0.7500  -0.7248  -0.6297  -0.5558  -0.3313
    -0.1933  -0.1080   0.2983   0.3610   0.5945   0.6605   0.7216   0.7742
     0.9145   1.2243   1.4491   1.5307   1.5820   1.7366   1.8065   1.9416
     2.0114   2.4267   2.4961   2.6051   2.6583   2.7376   3.1354   3.2045
     3.2492   3.2704   3.7358

          k =-0.0903 0.0174 0.0000 ( 30416 PWs)   bands (ev):

   -59.7601 -59.7597 -59.6239 -59.6239 -59.5820 -59.5820 -34.0366 -34.0334
   -33.8646 -33.8571 -33.8266 -33.8237 -33.7416 -33.7403 -33.6843 -33.6817
   -33.6508 -33.6482 -33.5517 -33.5500 -33.5361 -33.5336 -33.3953 -33.3951
    -4.8951  -4.3175  -3.5840  -3.3729  -3.3602  -3.2374  -3.0805  -3.0469
    -2.9475  -2.8508  -2.8220  -2.6484  -2.3818  -2.3392  -2.2929  -2.1511
    -1.8343  -1.7652  -1.6349  -1.5471  -1.4548  -1.3415  -1.1384  -1.0923
    -0.9656  -0.8639  -0.8200  -0.7345  -0.6822  -0.6302  -0.5385  -0.3307
    -0.3040   0.0336   0.2400   0.3559   0.5835   0.6746   0.6989   0.7405
     0.8801   1.1846   1.3345   1.5596   1.5878   1.7281   1.8832   1.9404
     2.0170   2.3959   2.4128   2.5605   2.6173   2.7017   3.0441   3.1621
     3.1646   3.2008   3.3130

          k =-0.0903 0.0347 0.0000 ( 30403 PWs)   bands (ev):

   -59.7600 -59.7598 -59.6239 -59.6239 -59.5820 -59.5820 -34.0359 -34.0341
   -33.8632 -33.8589 -33.8258 -33.8242 -33.7412 -33.7405 -33.6840 -33.6825
   -33.6502 -33.6487 -33.5513 -33.5503 -33.5355 -33.5341 -33.3953 -33.3952
    -4.8161  -4.5086  -3.5449  -3.4622  -3.3047  -3.2321  -3.0668  -3.0621
    -2.9132  -2.8878  -2.7313  -2.6571  -2.3592  -2.3070  -2.2994  -2.1775
    -1.8832  -1.8193  -1.5841  -1.5716  -1.4270  -1.3494  -1.0008  -0.9735
    -0.8994  -0.8095  -0.8070  -0.6958  -0.6179  -0.6155  -0.4933  -0.4312
    -0.2209   0.0699   0.2265   0.3434   0.5341   0.6274   0.6275   0.7649
     0.7676   1.1290   1.2213   1.4613   1.6505   1.7197   1.9518   1.9863
     2.0578   2.3158   2.3277   2.3714   2.5185   2.5822   2.7015   2.9384
     3.1029   3.1585   3.2644

          k =-0.0903-0.1562 0.0000 ( 30410 PWs)   bands (ev):

   -59.7599 -59.7599 -59.6239 -59.6239 -59.5820 -59.5820 -34.0350 -34.0350
   -33.8611 -33.8611 -33.8250 -33.8249 -33.7408 -33.7408 -33.6833 -33.6833
   -33.6494 -33.6494 -33.5508 -33.5508 -33.5348 -33.5348 -33.3952 -33.3952
    -4.6849  -4.6849  -3.5202  -3.5202  -3.2545  -3.2545  -3.0664  -3.0664
    -2.8992  -2.8992  -2.6740  -2.6740  -2.3172  -2.3172  -2.2414  -2.2414
    -1.8922  -1.8922  -1.5706  -1.5706  -1.3655  -1.3654  -0.9054  -0.9053
    -0.8771  -0.8771  -0.7171  -0.7171  -0.6035  -0.6035  -0.4537  -0.4537
    -0.0715  -0.0715   0.3138   0.3138   0.5220   0.5220   0.6473   0.6473
     0.9125   0.9125   1.3491   1.3491   1.6772   1.6773   2.0001   2.0001
     2.1763   2.1763   2.2910   2.2910   2.4178   2.4178   2.7875   2.7876
     3.0574   3.0577   3.3336

     the Fermi energy is     1.7209 ev

!    total energy              =   -1219.40013140 Ry
     estimated scf accuracy    <       0.00000310 Ry
     smearing contrib. (-TS)   =      -0.05892110 Ry
     internal energy E=F+TS    =   -1219.34121030 Ry

     The total energy is F=E-TS. E is the sum of the following terms:
     one-electron contribution =  -10611.20039758 Ry
     hartree contribution      =    5334.59279625 Ry
     xc contribution           =    -315.86236942 Ry
     ewald contribution        =    4373.12875921 Ry
     electric field correction =       0.00000124 Ry

     convergence has been achieved in  16 iterations

     negative rho (up, down):  5.920E-04 0.000E+00

     Forces acting on atoms (cartesian axes, Ry/au):

     atom    1 type  1   force =    -0.00000107    0.00691400    0.01630538
     atom    2 type  1   force =     0.00000083    0.00691160    0.01630832
     atom    3 type  2   force =     0.00000090   -0.01781004    0.01824676
     atom    4 type  2   force =    -0.00000118   -0.01780913    0.01824646
     atom    5 type  1   force =     0.00000005    0.00863776   -0.02134561
     atom    6 type  1   force =    -0.00000011    0.00864085   -0.02134165
     atom    7 type  2   force =    -0.00000157    0.00112220   -0.01775582
     atom    8 type  2   force =     0.00000158    0.00111960   -0.01775618
     atom    9 type  1   force =    -0.00000281    0.00070183    0.00122985
     atom   10 type  1   force =    -0.00000236    0.00069981    0.00123060
     atom   11 type  2   force =     0.00000357    0.00043403    0.00331466
     atom   12 type  2   force =     0.00000216    0.00043749    0.00331722

     Total force =     0.060394     Total SCF correction =     0.009808
     SCF correction compared to forces is large: reduce conv_thr to get better values

     Writing output data file ./Mo2Ir2/Mo2Ir2_beef.save/

     init_run     :     88.60s CPU     89.11s WALL (       1 calls)
     electrons    :   2996.63s CPU   3017.05s WALL (       1 calls)
     forces       :     55.26s CPU     55.49s WALL (       1 calls)

     Called by init_run:
     wfcinit      :     77.28s CPU     77.55s WALL (       1 calls)
     potinit      :      7.77s CPU      7.85s WALL (       1 calls)
     hinit0       :      1.87s CPU      1.88s WALL (       1 calls)

     Called by electrons:
     c_bands      :   2654.87s CPU   2668.74s WALL (      16 calls)
     sum_band     :    307.56s CPU    310.73s WALL (      16 calls)
     v_of_rho     :     23.89s CPU     25.11s WALL (      17 calls)
     newd         :     16.97s CPU     19.18s WALL (      17 calls)
     mix_rho      :      0.70s CPU      0.71s WALL (      16 calls)
     vdW_kernel   :      5.71s CPU      5.72s WALL (       1 calls)

     Called by c_bands:
     init_us_2    :     11.96s CPU     12.02s WALL (    2516 calls)
     cegterg      :   2623.18s CPU   2635.24s WALL (    1184 calls)

     Called by *egterg:
     cdiaghg      :    118.77s CPU    119.20s WALL (    6651 calls)
     h_psi        :   1367.03s CPU   1375.63s WALL (    6725 calls)
     s_psi        :    473.71s CPU    474.62s WALL (    6725 calls)
     g_psi        :      1.00s CPU      1.01s WALL (    5467 calls)

     Called by h_psi:
     h_psi:calbec :    478.63s CPU    480.05s WALL (    6725 calls)
     vloc_psi     :    408.84s CPU    414.90s WALL (    6725 calls)
     add_vuspsi   :    474.50s CPU    475.59s WALL (    6725 calls)

     General routines
     calbec       :    719.63s CPU    721.40s WALL (    8205 calls)
     fft          :     13.87s CPU     14.35s WALL (    1130 calls)
     ffts         :      0.07s CPU      0.07s WALL (      33 calls)
     fftw         :    464.23s CPU    470.84s WALL (  586698 calls)
     interpolate  :      0.28s CPU      0.29s WALL (      17 calls)

     Parallel routines
     fft_scatt_xy :     36.45s CPU     36.91s WALL (  587861 calls)
     fft_scatt_yz :    108.65s CPU    110.98s WALL (  587861 calls)

     PWSCF        :  52m27.71s CPU  53m 1.43s WALL


   This run was terminated on:  11:47:52  24Jun2022            

=------------------------------------------------------------------------------=
   JOB DONE.
=------------------------------------------------------------------------------=
