
     Program PWSCF v.6.6 starts on 23Jun2022 at 22:56:23 

     This program is part of the open-source Quantum ESPRESSO suite
     for quantum simulation of materials; please cite
         "P. Giannozzi et al., J. Phys.:Condens. Matter 21 395502 (2009);
         "P. Giannozzi et al., J. Phys.:Condens. Matter 29 465901 (2017);
          URL http://www.quantum-espresso.org", 
     in publications or presentations arising from this work. More details at
     http://www.quantum-espresso.org/quote

     Parallel version (MPI), running on    37 processors

     MPI processes distributed on     1 nodes
     R & G space division:  proc/nbgrp/npool/nimage =      37
     Fft bands division:     nmany     =       1
     Reading input from Mo2Pt2.in
Warning: card &CELL ignored
Warning: card / ignored

     Current dimensions of program PWSCF are:
     Max number of different atomic species (ntypx) = 10
     Max number of k-points (npk) =  40000
     Max angular momentum in pseudopotentials (lmaxx) =  3
     Presently stress not available with electric field and gates

     Message from routine cell_base_init:
     DEPRECATED: use true lattice parameter, not A to a.u. conversion factor
     file Mo.pbe-spn-rrkjus_psl.1.0.0.UPF: wavefunction(s)  4S renormalized
     file Pt.pbe-n-rrkjus_psl.1.0.0.UPF: wavefunction(s)  6S renormalized

     **************************************************************************
     Initializing libbeef V0.1.2 with the BEEF-vdW functional.
     Citation: Wellendorff et al., PRB 85, 235149 (2012).
     **************************************************************************


     IMPORTANT: XC functional enforced from input :
     Exchange-correlation= BEEF-VDW
                           (   1   4  43  14   2   0   0)
     Any further DFT definition will be discarded
     Please, verify this is what you really want


     Subspace diagonalization in iterative solution of the eigenvalue problem:
     a serial algorithm will be used

     Found symmetry operation: I + ( -0.5000  0.0000  0.0000)
     This is a supercell, fractional translations are disabled

     Parallelization info
     --------------------
     sticks:   dense  smooth     PW     G-vecs:    dense   smooth      PW
     Min         114      46     13                26586     6718    1053
     Max         115      48     14                26607     6740    1064
     Sum        4253    1705    495               984187   249063   39137



     bravais-lattice index     =            0
     lattice parameter (alat)  =       1.8897  a.u.
     unit-cell volume          =    4504.0460 (a.u.)^3
     number of atoms/cell      =           12
     number of atomic types    =            2
     number of electrons       =       144.00
     number of Kohn-Sham states=           86
     kinetic-energy cutoff     =      55.1240  Ry
     charge density cutoff     =     551.2396  Ry
     convergence threshold     =      1.0E-05
     mixing beta               =       0.1000
     number of iterations used =           10  plain     mixing
     Exchange-correlation= BEEF-VDW
                           (   1   4  43  14   2   0   0)

     celldm(1)=   1.889726  celldm(2)=   0.000000  celldm(3)=   0.000000
     celldm(4)=   0.000000  celldm(5)=   0.000000  celldm(6)=   0.000000

     crystal axes: (cart. coord. in units of alat)
               a(1) = (   5.469609   0.000000   0.000000 )  
               a(2) = (  -2.734805   4.967249   0.000000 )  
               a(3) = (   0.000000   0.000000  24.565980 )  

     reciprocal axes: (cart. coord. in units 2 pi/alat)
               b(1) = (  0.182828  0.100659 -0.000000 )  
               b(2) = (  0.000000  0.201319  0.000000 )  
               b(3) = (  0.000000 -0.000000  0.040707 )  


     PseudoPot. # 1 for Mo read from file:
     ../pseudo/Mo.pbe-spn-rrkjus_psl.1.0.0.UPF
     MD5 check sum: 03f09b12e49601d1a456a78ce8b2d514
     Pseudo is Ultrasoft + core correction, Zval = 14.0
     Generated using "atomic" code by A. Dal Corso v.6.3
     Using radial grid of 1229 points,  6 beta functions with: 
                l(1) =   0
                l(2) =   0
                l(3) =   1
                l(4) =   1
                l(5) =   2
                l(6) =   2
     Q(r) pseudized with 0 coefficients 


     PseudoPot. # 2 for Pt read from file:
     ../pseudo/Pt.pbe-n-rrkjus_psl.1.0.0.UPF
     MD5 check sum: 6bc887cfe28d63a5fc1f72d35a7d3ef7
     Pseudo is Ultrasoft + core correction, Zval = 10.0
     Generated using "atomic" code by A. Dal Corso v.6.3
     Using radial grid of 1277 points,  6 beta functions with: 
                l(1) =   0
                l(2) =   0
                l(3) =   1
                l(4) =   1
                l(5) =   2
                l(6) =   2
     Q(r) pseudized with 0 coefficients 


     atomic species   valence    mass     pseudopotential
        Mo            14.00    95.95000     Mo( 1.00)
        Pt            10.00   195.08400     Pt( 1.00)

     No symmetry found



   Cartesian axes

     site n.     atom                  positions (alat units)
         1           Mo  tau(   1) = (   0.0000000   0.0000000  10.0000000  )
         2           Mo  tau(   2) = (   2.7348046   0.0000000  10.0000000  )
         3           Pt  tau(   3) = (   1.3674023   2.4836245  10.0000000  )
         4           Pt  tau(   4) = (  -1.3674023   2.4836245  10.0000000  )
         5           Mo  tau(   5) = (   2.7348046   1.5056938  12.2829898  )
         6           Mo  tau(   6) = (   0.0000000   1.5056938  12.2829898  )
         7           Pt  tau(   7) = (  -1.3674023   3.9893183  12.2829898  )
         8           Pt  tau(   8) = (   1.3674023   3.9893183  12.2829898  )
         9           Mo  tau(   9) = (  -0.0000534   3.1189049  14.4806105  )
        10           Mo  tau(  10) = (   2.7347475   3.1188857  14.4806087  )
        11           Pt  tau(  11) = (   4.1022062   0.7306245  14.5279612  )
        12           Pt  tau(  12) = (   1.3673663   0.7306228  14.5279611  )

     number of k points=    74  Fermi-Dirac smearing, width (Ry)=  0.0100
                       cart. coord. in units 2pi/alat
        k(    1) = (   0.0000000   0.0000000   0.0000000), wk =   0.0138889
        k(    2) = (   0.0000000   0.0167766   0.0000000), wk =   0.0277778
        k(    3) = (   0.0000000   0.0335531   0.0000000), wk =   0.0277778
        k(    4) = (   0.0000000   0.0503297   0.0000000), wk =   0.0277778
        k(    5) = (   0.0000000   0.0671062   0.0000000), wk =   0.0277778
        k(    6) = (   0.0000000   0.0838828   0.0000000), wk =   0.0277778
        k(    7) = (   0.0000000  -0.1006593   0.0000000), wk =   0.0138889
        k(    8) = (   0.0152357   0.0083883   0.0000000), wk =   0.0277778
        k(    9) = (   0.0152357   0.0251648   0.0000000), wk =   0.0277778
        k(   10) = (   0.0152357   0.0419414   0.0000000), wk =   0.0277778
        k(   11) = (   0.0152357   0.0587179   0.0000000), wk =   0.0277778
        k(   12) = (   0.0152357   0.0754945   0.0000000), wk =   0.0277778
        k(   13) = (   0.0152357   0.0922711   0.0000000), wk =   0.0277778
        k(   14) = (   0.0152357  -0.0922711   0.0000000), wk =   0.0277778
        k(   15) = (   0.0152357  -0.0754945   0.0000000), wk =   0.0277778
        k(   16) = (   0.0152357  -0.0587179   0.0000000), wk =   0.0277778
        k(   17) = (   0.0152357  -0.0419414   0.0000000), wk =   0.0277778
        k(   18) = (   0.0152357  -0.0251648   0.0000000), wk =   0.0277778
        k(   19) = (   0.0152357  -0.0083883   0.0000000), wk =   0.0277778
        k(   20) = (   0.0304714   0.0167766   0.0000000), wk =   0.0277778
        k(   21) = (   0.0304714   0.0335531   0.0000000), wk =   0.0277778
        k(   22) = (   0.0304714   0.0503297   0.0000000), wk =   0.0277778
        k(   23) = (   0.0304714   0.0671062   0.0000000), wk =   0.0277778
        k(   24) = (   0.0304714   0.0838828   0.0000000), wk =   0.0277778
        k(   25) = (   0.0304714   0.1006593   0.0000000), wk =   0.0277778
        k(   26) = (   0.0304714  -0.0838828   0.0000000), wk =   0.0277778
        k(   27) = (   0.0304714  -0.0671062   0.0000000), wk =   0.0277778
        k(   28) = (   0.0304714  -0.0503297   0.0000000), wk =   0.0277778
        k(   29) = (   0.0304714  -0.0335531   0.0000000), wk =   0.0277778
        k(   30) = (   0.0304714  -0.0167766   0.0000000), wk =   0.0277778
        k(   31) = (   0.0304714   0.0000000   0.0000000), wk =   0.0277778
        k(   32) = (   0.0457071   0.0251648   0.0000000), wk =   0.0277778
        k(   33) = (   0.0457071   0.0419414   0.0000000), wk =   0.0277778
        k(   34) = (   0.0457071   0.0587180   0.0000000), wk =   0.0277778
        k(   35) = (   0.0457071   0.0754945   0.0000000), wk =   0.0277778
        k(   36) = (   0.0457071   0.0922711   0.0000000), wk =   0.0277778
        k(   37) = (   0.0457071   0.1090476   0.0000000), wk =   0.0277778
        k(   38) = (   0.0457071  -0.0754945   0.0000000), wk =   0.0277778
        k(   39) = (   0.0457071  -0.0587179   0.0000000), wk =   0.0277778
        k(   40) = (   0.0457071  -0.0419414   0.0000000), wk =   0.0277778
        k(   41) = (   0.0457071  -0.0251648   0.0000000), wk =   0.0277778
        k(   42) = (   0.0457071  -0.0083883   0.0000000), wk =   0.0277778
        k(   43) = (   0.0457071   0.0083883   0.0000000), wk =   0.0277778
        k(   44) = (   0.0609428   0.0335531   0.0000000), wk =   0.0277778
        k(   45) = (   0.0609428   0.0503297   0.0000000), wk =   0.0277778
        k(   46) = (   0.0609428   0.0671062   0.0000000), wk =   0.0277778
        k(   47) = (   0.0609428   0.0838828   0.0000000), wk =   0.0277778
        k(   48) = (   0.0609428   0.1006593   0.0000000), wk =   0.0277778
        k(   49) = (   0.0609428   0.1174359   0.0000000), wk =   0.0277778
        k(   50) = (   0.0609428  -0.0671062   0.0000000), wk =   0.0277778
        k(   51) = (   0.0609428  -0.0503297   0.0000000), wk =   0.0277778
        k(   52) = (   0.0609428  -0.0335531   0.0000000), wk =   0.0277778
        k(   53) = (   0.0609428  -0.0167766   0.0000000), wk =   0.0277778
        k(   54) = (   0.0609428   0.0000000   0.0000000), wk =   0.0277778
        k(   55) = (   0.0609428   0.0167766   0.0000000), wk =   0.0277778
        k(   56) = (   0.0761785   0.0419414   0.0000000), wk =   0.0277778
        k(   57) = (   0.0761785   0.0587180   0.0000000), wk =   0.0277778
        k(   58) = (   0.0761785   0.0754945   0.0000000), wk =   0.0277778
        k(   59) = (   0.0761785   0.0922711   0.0000000), wk =   0.0277778
        k(   60) = (   0.0761785   0.1090476   0.0000000), wk =   0.0277778
        k(   61) = (   0.0761785   0.1258242   0.0000000), wk =   0.0277778
        k(   62) = (   0.0761785  -0.0587179   0.0000000), wk =   0.0277778
        k(   63) = (   0.0761785  -0.0419414   0.0000000), wk =   0.0277778
        k(   64) = (   0.0761785  -0.0251648   0.0000000), wk =   0.0277778
        k(   65) = (   0.0761785  -0.0083883   0.0000000), wk =   0.0277778
        k(   66) = (   0.0761785   0.0083883   0.0000000), wk =   0.0277778
        k(   67) = (   0.0761785   0.0251648   0.0000000), wk =   0.0277778
        k(   68) = (  -0.0914142  -0.0503297   0.0000000), wk =   0.0138889
        k(   69) = (  -0.0914142  -0.0335531   0.0000000), wk =   0.0277778
        k(   70) = (  -0.0914142  -0.0167766   0.0000000), wk =   0.0277778
        k(   71) = (  -0.0914142  -0.0000000   0.0000000), wk =   0.0277778
        k(   72) = (  -0.0914142   0.0167765   0.0000000), wk =   0.0277778
        k(   73) = (  -0.0914142   0.0335531   0.0000000), wk =   0.0277778
        k(   74) = (  -0.0914142  -0.1509890   0.0000000), wk =   0.0138889

     Dense  grid:   984187 G-vectors     FFT dimensions: (  80,  81, 360)

     Smooth grid:   249063 G-vectors     FFT dimensions: (  50,  54, 225)

     Estimated max dynamical RAM per process >     189.31 MB

     Estimated total dynamical RAM >       6.84 GB

     Initial potential from superposition of free atoms

     starting charge  143.99370, renormalised to  144.00000

     negative rho (up, down):  7.958E-04 0.000E+00


     %%%%%%%%%%%%%%%%%%%%%%%%%%%%%%%%%%%%%%%%%%%%%%%%%%%%%%%%%%%%%%%%%%%%%%%%
     %                                                                      %
     % You are using vdW-DF, which was implemented by the Thonhauser group. %
     % Please cite the following two papers that made this development      %
     % possible and the two reviews that describe the various versions:     %
     %                                                                      %
     %   T. Thonhauser et al., PRL 115, 136402 (2015).                      %
     %   T. Thonhauser et al., PRB 76, 125112 (2007).                       %
     %   K. Berland et al., Rep. Prog. Phys. 78, 066501 (2015).             %
     %   D.C. Langreth et al., J. Phys.: Condens. Matter 21, 084203 (2009). %
     %                                                                      %
     %                                                                      %
     % If you are calculating the stress with vdW-DF, please also cite:     %
     %                                                                      %
     %   R. Sabatini et al., J. Phys.: Condens. Matter 24, 424209 (2012).   %
     %                                                                      %
     %%%%%%%%%%%%%%%%%%%%%%%%%%%%%%%%%%%%%%%%%%%%%%%%%%%%%%%%%%%%%%%%%%%%%%%%



     Adding external electric field

     Computed dipole along edir(3) : 
        Dipole               -0.0000 Ry au,         -0.0001 Debye
        Dipole field         -0.0000 Ry au, 

        Potential amp.        0.0000 Ry
        Total length         45.2624 bohr

     Starting wfcs are  114 randomized atomic wfcs

     total cpu time spent up to now is       94.6 secs

     Self-consistent Calculation

     iteration #  1     ecut=    55.12 Ry     beta= 0.10
     Davidson diagonalization with overlap
     ethr =  1.00E-02,  avg # of iterations =  2.0

     negative rho (up, down):  6.623E-04 0.000E+00

     Adding external electric field

     Computed dipole along edir(3) : 
        Dipole                0.0032 Ry au,          0.0080 Debye
        Dipole field          0.0000 Ry au, 

        Potential amp.       -0.0008 Ry
        Total length         45.2624 bohr


     total cpu time spent up to now is      284.3 secs

     total energy              =   -1237.22283490 Ry
     estimated scf accuracy    <       6.82059614 Ry

     iteration #  2     ecut=    55.12 Ry     beta= 0.10
     Davidson diagonalization with overlap
     ethr =  4.74E-03,  avg # of iterations =  2.0

     negative rho (up, down):  5.951E-04 0.000E+00

     Adding external electric field

     Computed dipole along edir(3) : 
        Dipole                0.0702 Ry au,          0.1785 Debye
        Dipole field          0.0002 Ry au, 

        Potential amp.       -0.0177 Ry
        Total length         45.2624 bohr


     total cpu time spent up to now is      457.3 secs

     total energy              =   -1237.77321462 Ry
     estimated scf accuracy    <       0.48601352 Ry

     iteration #  3     ecut=    55.12 Ry     beta= 0.10
     Davidson diagonalization with overlap
     ethr =  3.38E-04,  avg # of iterations =  6.4

     negative rho (up, down):  6.122E-04 0.000E+00

     Adding external electric field

     Computed dipole along edir(3) : 
        Dipole               -0.0933 Ry au,         -0.2372 Debye
        Dipole field         -0.0003 Ry au, 

        Potential amp.        0.0236 Ry
        Total length         45.2624 bohr


     total cpu time spent up to now is      722.9 secs

     total energy              =   -1237.88880415 Ry
     estimated scf accuracy    <       0.43565442 Ry

     iteration #  4     ecut=    55.12 Ry     beta= 0.10
     Davidson diagonalization with overlap
     ethr =  3.03E-04,  avg # of iterations =  1.3

     negative rho (up, down):  6.383E-04 0.000E+00

     Adding external electric field

     Computed dipole along edir(3) : 
        Dipole                0.0332 Ry au,          0.0843 Debye
        Dipole field          0.0001 Ry au, 

        Potential amp.       -0.0084 Ry
        Total length         45.2624 bohr


     total cpu time spent up to now is      875.9 secs

     total energy              =   -1237.85901466 Ry
     estimated scf accuracy    <       0.89197623 Ry

     iteration #  5     ecut=    55.12 Ry     beta= 0.10
     Davidson diagonalization with overlap
     ethr =  3.03E-04,  avg # of iterations =  1.0

     negative rho (up, down):  7.442E-04 0.000E+00

     Adding external electric field

     Computed dipole along edir(3) : 
        Dipole                0.0233 Ry au,          0.0591 Debye
        Dipole field          0.0001 Ry au, 

        Potential amp.       -0.0059 Ry
        Total length         45.2624 bohr


     total cpu time spent up to now is     1025.7 secs

     total energy              =   -1237.83879558 Ry
     estimated scf accuracy    <       0.16353375 Ry

     iteration #  6     ecut=    55.12 Ry     beta= 0.10
     Davidson diagonalization with overlap
     ethr =  1.14E-04,  avg # of iterations =  2.0

     negative rho (up, down):  8.676E-04 0.000E+00

     Adding external electric field

     Computed dipole along edir(3) : 
        Dipole                0.0232 Ry au,          0.0590 Debye
        Dipole field          0.0001 Ry au, 

        Potential amp.       -0.0059 Ry
        Total length         45.2624 bohr


     total cpu time spent up to now is     1207.9 secs

     total energy              =   -1237.83870020 Ry
     estimated scf accuracy    <       0.07006923 Ry

     iteration #  7     ecut=    55.12 Ry     beta= 0.10
     Davidson diagonalization with overlap
     ethr =  4.87E-05,  avg # of iterations =  3.2

     negative rho (up, down):  8.093E-04 0.000E+00

     Adding external electric field

     Computed dipole along edir(3) : 
        Dipole                0.0179 Ry au,          0.0454 Debye
        Dipole field          0.0000 Ry au, 

        Potential amp.       -0.0045 Ry
        Total length         45.2624 bohr


     total cpu time spent up to now is     1410.3 secs

     total energy              =   -1237.84853389 Ry
     estimated scf accuracy    <       0.02034787 Ry

     iteration #  8     ecut=    55.12 Ry     beta= 0.10
     Davidson diagonalization with overlap
     ethr =  1.41E-05,  avg # of iterations =  5.7

     negative rho (up, down):  1.036E-03 0.000E+00

     Adding external electric field

     Computed dipole along edir(3) : 
        Dipole                0.0166 Ry au,          0.0422 Debye
        Dipole field          0.0000 Ry au, 

        Potential amp.       -0.0042 Ry
        Total length         45.2624 bohr


     total cpu time spent up to now is     1599.6 secs

     total energy              =   -1237.84661255 Ry
     estimated scf accuracy    <       0.01414875 Ry

     iteration #  9     ecut=    55.12 Ry     beta= 0.10
     Davidson diagonalization with overlap
     ethr =  9.83E-06,  avg # of iterations =  6.5

     negative rho (up, down):  9.774E-04 0.000E+00

     Adding external electric field

     Computed dipole along edir(3) : 
        Dipole                0.0167 Ry au,          0.0423 Debye
        Dipole field          0.0000 Ry au, 

        Potential amp.       -0.0042 Ry
        Total length         45.2624 bohr


     total cpu time spent up to now is     1834.3 secs

     total energy              =   -1237.85209064 Ry
     estimated scf accuracy    <       0.03475068 Ry

     iteration # 10     ecut=    55.12 Ry     beta= 0.10
     Davidson diagonalization with overlap
     ethr =  9.83E-06,  avg # of iterations =  1.1

     negative rho (up, down):  9.761E-04 0.000E+00

     Adding external electric field

     Computed dipole along edir(3) : 
        Dipole                0.0218 Ry au,          0.0554 Debye
        Dipole field          0.0001 Ry au, 

        Potential amp.       -0.0055 Ry
        Total length         45.2624 bohr


     total cpu time spent up to now is     1967.8 secs

     total energy              =   -1237.84699597 Ry
     estimated scf accuracy    <       0.01665499 Ry

     iteration # 11     ecut=    55.12 Ry     beta= 0.10
     Davidson diagonalization with overlap
     ethr =  9.83E-06,  avg # of iterations =  4.1

     negative rho (up, down):  9.720E-04 0.000E+00

     Adding external electric field

     Computed dipole along edir(3) : 
        Dipole                0.0182 Ry au,          0.0462 Debye
        Dipole field          0.0001 Ry au, 

        Potential amp.       -0.0046 Ry
        Total length         45.2624 bohr


     total cpu time spent up to now is     2146.9 secs

     total energy              =   -1237.85037554 Ry
     estimated scf accuracy    <       0.00347611 Ry

     iteration # 12     ecut=    55.12 Ry     beta= 0.10
     Davidson diagonalization with overlap
     ethr =  2.41E-06,  avg # of iterations =  5.5

     negative rho (up, down):  9.427E-04 0.000E+00

     Adding external electric field

     Computed dipole along edir(3) : 
        Dipole                0.0183 Ry au,          0.0466 Debye
        Dipole field          0.0001 Ry au, 

        Potential amp.       -0.0046 Ry
        Total length         45.2624 bohr


     total cpu time spent up to now is     2316.2 secs

     total energy              =   -1237.85061383 Ry
     estimated scf accuracy    <       0.00072403 Ry

     iteration # 13     ecut=    55.12 Ry     beta= 0.10
     Davidson diagonalization with overlap
     c_bands:  1 eigenvalues not converged
     ethr =  5.03E-07,  avg # of iterations =  7.9

     negative rho (up, down):  9.201E-04 0.000E+00

     Adding external electric field

     Computed dipole along edir(3) : 
        Dipole                0.0197 Ry au,          0.0500 Debye
        Dipole field          0.0001 Ry au, 

        Potential amp.       -0.0050 Ry
        Total length         45.2624 bohr


     total cpu time spent up to now is     2494.1 secs

     total energy              =   -1237.85062348 Ry
     estimated scf accuracy    <       0.00022663 Ry

     iteration # 14     ecut=    55.12 Ry     beta= 0.10
     Davidson diagonalization with overlap
     c_bands:  1 eigenvalues not converged
     ethr =  1.57E-07,  avg # of iterations =  7.2

     negative rho (up, down):  8.991E-04 0.000E+00

     Adding external electric field

     Computed dipole along edir(3) : 
        Dipole                0.0199 Ry au,          0.0506 Debye
        Dipole field          0.0001 Ry au, 

        Potential amp.       -0.0050 Ry
        Total length         45.2624 bohr


     total cpu time spent up to now is     2699.6 secs

     total energy              =   -1237.85069280 Ry
     estimated scf accuracy    <       0.00019994 Ry

     iteration # 15     ecut=    55.12 Ry     beta= 0.10
     Davidson diagonalization with overlap
     ethr =  1.39E-07,  avg # of iterations =  1.4

     negative rho (up, down):  8.783E-04 0.000E+00

     Adding external electric field

     Computed dipole along edir(3) : 
        Dipole                0.0193 Ry au,          0.0490 Debye
        Dipole field          0.0001 Ry au, 

        Potential amp.       -0.0049 Ry
        Total length         45.2624 bohr


     total cpu time spent up to now is     2838.5 secs

     total energy              =   -1237.85068754 Ry
     estimated scf accuracy    <       0.00005224 Ry

     iteration # 16     ecut=    55.12 Ry     beta= 0.10
     Davidson diagonalization with overlap
     ethr =  3.63E-08,  avg # of iterations =  3.8

     negative rho (up, down):  7.968E-04 0.000E+00

     Adding external electric field

     Computed dipole along edir(3) : 
        Dipole                0.0208 Ry au,          0.0528 Debye
        Dipole field          0.0001 Ry au, 

        Potential amp.       -0.0052 Ry
        Total length         45.2624 bohr


     total cpu time spent up to now is     3012.4 secs

     End of self-consistent calculation

          k = 0.0000 0.0000 0.0000 ( 31123 PWs)   bands (ev):

   -60.0260 -59.9195 -59.8327 -59.8057 -59.7286 -59.7020 -34.4593 -34.2780
   -34.1638 -34.1494 -34.1152 -34.1085 -34.0074 -33.9449 -33.9058 -33.8640
   -33.8421 -33.8045 -33.7641 -33.6093 -33.5643 -33.5218 -33.2677 -33.2387
    -6.6269  -5.0780  -4.9554  -4.6669  -4.5536  -4.4948  -4.3690  -4.2558
    -4.1172  -4.0096  -3.9148  -3.8823  -3.6562  -3.4846  -3.4112  -2.7112
    -2.4685  -2.3766  -2.1175  -2.0247  -1.9599  -1.6869  -1.5503  -1.3695
    -1.3391  -1.2694  -1.0311  -0.8912  -0.8124  -0.6325  -0.5373  -0.4751
     0.0286   0.0935   0.2729   0.3642   0.4146   0.4167   0.7277   0.7923
     0.9911   1.4034   1.5259   1.6498   1.7436   1.9407   1.9829   2.2894
     2.3146   2.6145   2.6347   2.9311   3.0441   3.0579   3.1646   3.2536
     3.2603   3.3416   3.6562   3.6711   3.7772   4.0289

          k = 0.0000 0.0168 0.0000 ( 31169 PWs)   bands (ev):

   -60.0261 -59.9195 -59.8327 -59.8057 -59.7286 -59.7020 -34.4596 -34.2785
   -34.1640 -34.1496 -34.1155 -34.1093 -34.0074 -33.9447 -33.9060 -33.8645
   -33.8422 -33.8048 -33.7643 -33.6094 -33.5644 -33.5219 -33.2678 -33.2388
    -6.5747  -5.0465  -4.9107  -4.6269  -4.5044  -4.4639  -4.3425  -4.2090
    -4.0873  -3.9920  -3.8832  -3.8547  -3.6109  -3.4570  -3.3485  -2.7149
    -2.4710  -2.3568  -2.1736  -1.9517  -1.9441  -1.7535  -1.5149  -1.3873
    -1.3434  -1.2573  -1.0287  -0.8995  -0.7935  -0.6046  -0.5694  -0.5031
     0.0199   0.0589   0.1884   0.3417   0.3659   0.3677   0.6496   0.7558
     0.9478   1.2779   1.4992   1.5499   1.7344   1.9637   2.0187   2.1023
     2.1280   2.5646   2.6097   2.7034   2.8071   2.9313   3.0599   3.1851
     3.3351   3.5078   3.5774   3.7429   3.9628   3.9635

          k = 0.0000 0.0336 0.0000 ( 31160 PWs)   bands (ev):

   -60.0260 -59.9194 -59.8327 -59.8057 -59.7285 -59.7019 -34.4604 -34.2798
   -34.1646 -34.1501 -34.1162 -34.1115 -34.0075 -33.9444 -33.9066 -33.8657
   -33.8424 -33.8056 -33.7650 -33.6096 -33.5645 -33.5220 -33.2679 -33.2389
    -6.4240  -4.9676  -4.7831  -4.5144  -4.3721  -4.3627  -4.2648  -4.0736
    -4.0019  -3.9355  -3.7920  -3.7703  -3.4805  -3.3741  -3.1636  -2.7275
    -2.4735  -2.3114  -2.2543  -1.9270  -1.8832  -1.8104  -1.4887  -1.4714
    -1.2736  -1.2195  -1.0466  -0.9277  -0.7398  -0.6712  -0.5769  -0.5252
    -0.0504  -0.0223  -0.0040   0.1624   0.2412   0.3775   0.4421   0.5989
     0.7130   1.2029   1.2745   1.3856   1.5613   1.6910   1.7338   1.9010
     2.1169   2.1501   2.2736   2.4578   2.4799   2.8211   2.8924   3.1062
     3.3869   3.4011   3.5456   3.6496   3.6615   3.8193

          k = 0.0000 0.0503 0.0000 ( 31136 PWs)   bands (ev):

   -60.0258 -59.9194 -59.8326 -59.8055 -59.7285 -59.7018 -34.4615 -34.2816
   -34.1654 -34.1508 -34.1171 -34.1144 -34.0076 -33.9439 -33.9074 -33.8675
   -33.8428 -33.8066 -33.7659 -33.6099 -33.5647 -33.5222 -33.2680 -33.2391
    -6.1932  -4.8781  -4.5981  -4.3572  -4.2276  -4.1492  -4.1363  -3.8924
    -3.8676  -3.8129  -3.6571  -3.6208  -3.2848  -3.2367  -2.8697  -2.7474
    -2.4768  -2.3584  -2.2756  -2.0072  -1.8866  -1.7442  -1.5127  -1.4569
    -1.2060  -1.1317  -1.1006  -0.9905  -0.8438  -0.6742  -0.6621  -0.4082
    -0.2780  -0.2637  -0.0685  -0.0361   0.0980   0.2028   0.3066   0.3729
     0.3916   0.8829   1.0416   1.1061   1.1263   1.1900   1.5733   1.6091
     1.6710   1.8458   1.9028   2.2321   2.5703   2.6951   2.6993   2.9573
     3.0563   3.2315   3.3708   3.4770   3.5312   3.6536

          k = 0.0000 0.0671 0.0000 ( 31096 PWs)   bands (ev):

   -60.0257 -59.9192 -59.8326 -59.8055 -59.7283 -59.7016 -34.4626 -34.2835
   -34.1662 -34.1515 -34.1181 -34.1173 -34.0077 -33.9437 -33.9081 -33.8692
   -33.8432 -33.8075 -33.7667 -33.6103 -33.5649 -33.5224 -33.2682 -33.2392
    -5.9198  -4.8165  -4.4077  -4.2069  -4.0562  -3.9555  -3.9101  -3.7846
    -3.6315  -3.6237  -3.5162  -3.3789  -3.0713  -3.0638  -2.7526  -2.6165
    -2.5118  -2.3800  -2.2685  -2.0345  -1.8729  -1.8371  -1.4975  -1.3788
    -1.1612  -1.1574  -1.1273  -1.0071  -0.9974  -0.7850  -0.5827  -0.5765
    -0.5048  -0.3469  -0.2798  -0.0642  -0.0596  -0.0305   0.0316   0.0966
     0.4065   0.4520   0.4763   0.5550   0.7253   0.9773   1.1397   1.1961
     1.4798   1.7883   1.8659   2.1297   2.1510   2.5047   2.5221   2.7660
     3.1574   3.2149   3.2994   3.3785   3.4038   3.5060

          k = 0.0000 0.0839 0.0000 ( 31054 PWs)   bands (ev):

   -60.0255 -59.9192 -59.8324 -59.8052 -59.7283 -59.7016 -34.4634 -34.2848
   -34.1668 -34.1520 -34.1193 -34.1187 -34.0078 -33.9435 -33.9085 -33.8704
   -33.8436 -33.8082 -33.7674 -33.6105 -33.5650 -33.5225 -33.2682 -33.2393
    -5.6730  -4.8028  -4.2719  -4.1035  -3.8993  -3.7643  -3.7216  -3.6896
    -3.4490  -3.4289  -3.4014  -3.0408  -2.9346  -2.9262  -2.7640  -2.6920
    -2.6120  -2.2350  -2.1233  -1.9844  -1.8627  -1.7932  -1.6098  -1.3464
    -1.2956  -1.1993  -1.1307  -1.0220  -0.8996  -0.8831  -0.8614  -0.6575
    -0.6308  -0.5300  -0.4443  -0.2484  -0.1797  -0.0892  -0.0741  -0.0071
     0.0115   0.1890   0.1954   0.3694   0.4177   0.7375   0.7979   0.8837
     1.4878   1.7746   1.7922   1.8625   2.1130   2.3539   2.4442   2.6076
     3.0605   3.1225   3.2630   3.3335   3.4291   3.5904

          k = 0.0000-0.1007 0.0000 ( 31086 PWs)   bands (ev):

   -60.0254 -59.9193 -59.8324 -59.8052 -59.7284 -59.7016 -34.4637 -34.2853
   -34.1671 -34.1522 -34.1201 -34.1190 -34.0079 -33.9435 -33.9087 -33.8709
   -33.8437 -33.8084 -33.7677 -33.6106 -33.5650 -33.5226 -33.2683 -33.2394
    -5.5649  -4.8112  -4.2246  -4.0658  -3.8263  -3.6710  -3.6515  -3.6515
    -3.4137  -3.3829  -3.2585  -2.9277  -2.8993  -2.8782  -2.6861  -2.6693
    -2.6368  -2.5124  -1.9524  -1.8909  -1.7744  -1.7177  -1.4984  -1.4848
    -1.3634  -1.3385  -1.1196  -0.9779  -0.9464  -0.9278  -0.8555  -0.7689
    -0.7385  -0.6990  -0.5146  -0.3207  -0.1556  -0.1516  -0.1447  -0.0702
     0.0027   0.0896   0.1078   0.2196   0.4218   0.5801   0.7009   0.7952
     1.4870   1.6774   1.7766   1.8629   2.1127   2.2962   2.4137   2.5443
     2.9989   3.1120   3.2046   3.3208   3.4056   3.7864

          k = 0.0152 0.0084 0.0000 ( 31175 PWs)   bands (ev):

   -60.0243 -59.9214 -59.8310 -59.8040 -59.7304 -59.7038 -34.4449 -34.2762
   -34.1660 -34.1351 -34.1071 -34.1010 -34.0093 -33.9431 -33.9042 -33.8625
   -33.8439 -33.8064 -33.7660 -33.6079 -33.5804 -33.5234 -33.2836 -33.2545
    -6.5635  -5.0146  -4.8905  -4.6313  -4.5284  -4.4434  -4.3334  -4.2245
    -4.0814  -3.9822  -3.8833  -3.8593  -3.6135  -3.4335  -3.3714  -2.6928
    -2.4564  -2.3653  -2.1366  -2.0035  -1.9245  -1.7237  -1.5391  -1.4211
    -1.3494  -1.3185  -1.0526  -0.8757  -0.8314  -0.6649  -0.4964  -0.4298
    -0.0664   0.0737   0.2280   0.3646   0.4059   0.4201   0.5143   0.7995
     0.9891   1.3913   1.4305   1.4676   1.7060   1.9408   1.9795   2.1118
     2.1855   2.5907   2.6174   2.6311   2.7250   3.0104   3.2153   3.2206
     3.3240   3.5597   3.5840   3.6372   3.6392   3.9938

          k = 0.0152 0.0252 0.0000 ( 31150 PWs)   bands (ev):

   -60.0243 -59.9213 -59.8309 -59.8039 -59.7303 -59.7037 -34.4454 -34.2772
   -34.1664 -34.1354 -34.1086 -34.1015 -34.0094 -33.9428 -33.9047 -33.8634
   -33.8440 -33.8069 -33.7664 -33.6080 -33.5805 -33.5234 -33.2837 -33.2546
    -6.4611  -4.9553  -4.8035  -4.5600  -4.4347  -4.3821  -4.2761  -4.1344
    -4.0228  -3.9484  -3.8215  -3.8018  -3.5295  -3.3803  -3.2441  -2.7014
    -2.4627  -2.3312  -2.2132  -1.9272  -1.8654  -1.8305  -1.4931  -1.4366
    -1.3801  -1.2992  -1.0510  -0.8854  -0.8061  -0.6351  -0.5522  -0.4656
    -0.0930  -0.0006   0.1171   0.2652   0.3106   0.3638   0.3916   0.7059
     0.8748   1.2507   1.2523   1.4169   1.6719   1.7532   1.8783   1.9243
     2.1682   2.3326   2.3436   2.4626   2.6473   2.6613   3.0801   3.0985
     3.3251   3.4452   3.4993   3.7246   3.7636   3.7923

          k = 0.0152 0.0419 0.0000 ( 31135 PWs)   bands (ev):

   -60.0241 -59.9212 -59.8309 -59.8038 -59.7303 -59.7036 -34.4464 -34.2788
   -34.1671 -34.1361 -34.1111 -34.1024 -34.0094 -33.9424 -33.9053 -33.8649
   -33.8443 -33.8078 -33.7672 -33.6083 -33.5807 -33.5236 -33.2838 -33.2547
    -6.2678  -4.8653  -4.6434  -4.4235  -4.2790  -4.2622  -4.1550  -3.9639
    -3.9199  -3.8677  -3.7080  -3.6819  -3.3682  -3.2742  -3.0024  -2.7196
    -2.4699  -2.3030  -2.2879  -1.9648  -1.8886  -1.7527  -1.5224  -1.4662
    -1.3308  -1.2524  -1.0848  -0.9146  -0.7622  -0.7060  -0.5875  -0.4876
    -0.1773  -0.1512  -0.0822   0.0457   0.2071   0.2235   0.3300   0.4747
     0.6055   0.9389   1.1843   1.2600   1.3177   1.3933   1.6439   1.7328
     1.7793   1.8686   2.0472   2.3429   2.5282   2.6844   2.8541   2.9678
     3.0423   3.2627   3.5204   3.5324   3.6963   3.7929

          k = 0.0152 0.0587 0.0000 ( 31098 PWs)   bands (ev):

   -60.0239 -59.9212 -59.8308 -59.8037 -59.7302 -59.7035 -34.4475 -34.2806
   -34.1679 -34.1368 -34.1141 -34.1033 -34.0095 -33.9421 -33.9061 -33.8666
   -33.8448 -33.8088 -33.7680 -33.6086 -33.5808 -33.5238 -33.2839 -33.2548
    -6.0097  -4.7856  -4.4480  -4.2579  -4.1006  -4.0985  -3.9673  -3.8155
    -3.7404  -3.7052  -3.5557  -3.4952  -3.1564  -3.1231  -2.7570  -2.6694
    -2.4881  -2.4068  -2.2775  -2.0475  -1.8418  -1.8030  -1.4836  -1.4405
    -1.3250  -1.1952  -1.1395  -0.9630  -0.8829  -0.7118  -0.6436  -0.4755
    -0.4603  -0.3258  -0.2233  -0.1687   0.0485   0.1362   0.1653   0.2618
     0.3886   0.5572   0.7565   0.8387   0.9419   1.0376   1.2758   1.3948
     1.5043   1.8024   1.8607   2.1622   2.3209   2.5120   2.6764   2.8839
     3.0208   3.1718   3.3786   3.4729   3.5179   3.5967

          k = 0.0152 0.0755 0.0000 ( 31072 PWs)   bands (ev):

   -60.0237 -59.9211 -59.8307 -59.8036 -59.7302 -59.7034 -34.4484 -34.2822
   -34.1686 -34.1374 -34.1165 -34.1042 -34.0095 -33.9419 -33.9066 -33.8681
   -33.8451 -33.8096 -33.7688 -33.6089 -33.5809 -33.5240 -33.2840 -33.2550
    -5.7373  -4.7493  -4.2783  -4.1238  -3.9341  -3.8944  -3.7734  -3.7051
    -3.5130  -3.5097  -3.4198  -3.2100  -2.9746  -2.9705  -2.7454  -2.6395
    -2.5642  -2.2248  -2.2223  -2.0278  -1.9654  -1.7911  -1.5729  -1.3949
    -1.3276  -1.1959  -1.1039  -1.0892  -0.9103  -0.8159  -0.7930  -0.6393
    -0.5477  -0.5213  -0.4122  -0.2353  -0.2300  -0.0295   0.0792   0.1480
     0.1618   0.2427   0.2965   0.5356   0.5960   0.7416   0.9368   1.0304
     1.5098   1.7743   1.8297   1.9265   2.1189   2.3884   2.5283   2.6983
     3.1166   3.1315   3.3014   3.3199   3.4396   3.4877

          k = 0.0152 0.0923 0.0000 ( 31072 PWs)   bands (ev):

   -60.0236 -59.9211 -59.8307 -59.8035 -59.7302 -59.7034 -34.4490 -34.2831
   -34.1690 -34.1378 -34.1180 -34.1046 -34.0096 -33.9418 -33.9069 -33.8690
   -33.8454 -33.8101 -33.7692 -33.6090 -33.5810 -33.5241 -33.2840 -33.2550
    -5.5418  -4.7562  -4.1856  -4.0500  -3.8152  -3.7301  -3.6568  -3.6192
    -3.3882  -3.3789  -3.2819  -2.9752  -2.9039  -2.8520  -2.7764  -2.6579
    -2.6243  -2.3837  -2.0016  -1.9631  -1.7735  -1.6963  -1.6524  -1.5035
    -1.3618  -1.3314  -1.1839  -1.0247  -0.9537  -0.9434  -0.8427  -0.7442
    -0.6914  -0.6473  -0.6009  -0.4100  -0.3075  -0.1693  -0.0879   0.0459
     0.0824   0.1244   0.2193   0.4098   0.4670   0.4965   0.7752   0.8196
     1.5412   1.7044   1.7782   1.8212   2.1160   2.2918   2.4588   2.5767
     3.0132   3.1098   3.2200   3.2715   3.3838   3.6025

          k = 0.0152-0.0923 0.0000 ( 31072 PWs)   bands (ev):

   -60.0236 -59.9211 -59.8307 -59.8035 -59.7302 -59.7034 -34.4490 -34.2831
   -34.1690 -34.1378 -34.1180 -34.1046 -34.0096 -33.9418 -33.9069 -33.8690
   -33.8454 -33.8101 -33.7692 -33.6090 -33.5810 -33.5241 -33.2840 -33.2550
    -5.5418  -4.7562  -4.1856  -4.0500  -3.8152  -3.7301  -3.6568  -3.6192
    -3.3882  -3.3789  -3.2819  -2.9751  -2.9039  -2.8520  -2.7763  -2.6579
    -2.6243  -2.3837  -2.0016  -1.9631  -1.7735  -1.6963  -1.6524  -1.5035
    -1.3618  -1.3314  -1.1839  -1.0248  -0.9537  -0.9434  -0.8428  -0.7442
    -0.6914  -0.6473  -0.6008  -0.4100  -0.3075  -0.1693  -0.0879   0.0459
     0.0824   0.1243   0.2193   0.4098   0.4670   0.4965   0.7752   0.8196
     1.5412   1.7044   1.7782   1.8212   2.1160   2.2918   2.4588   2.5767
     3.0132   3.1098   3.2200   3.2715   3.3838   3.6024

          k = 0.0152-0.0755 0.0000 ( 31072 PWs)   bands (ev):

   -60.0237 -59.9211 -59.8307 -59.8036 -59.7302 -59.7034 -34.4484 -34.2822
   -34.1686 -34.1374 -34.1165 -34.1042 -34.0095 -33.9419 -33.9066 -33.8681
   -33.8451 -33.8096 -33.7688 -33.6089 -33.5809 -33.5240 -33.2840 -33.2550
    -5.7373  -4.7493  -4.2783  -4.1238  -3.9341  -3.8944  -3.7734  -3.7051
    -3.5130  -3.5097  -3.4198  -3.2100  -2.9746  -2.9705  -2.7454  -2.6395
    -2.5642  -2.2248  -2.2223  -2.0278  -1.9654  -1.7911  -1.5729  -1.3948
    -1.3276  -1.1959  -1.1039  -1.0892  -0.9103  -0.8159  -0.7930  -0.6393
    -0.5476  -0.5212  -0.4122  -0.2353  -0.2300  -0.0295   0.0792   0.1480
     0.1617   0.2428   0.2965   0.5355   0.5960   0.7415   0.9368   1.0304
     1.5098   1.7743   1.8297   1.9265   2.1189   2.3884   2.5283   2.6983
     3.1166   3.1315   3.3013   3.3199   3.4396   3.4877

          k = 0.0152-0.0587 0.0000 ( 31098 PWs)   bands (ev):

   -60.0239 -59.9212 -59.8308 -59.8037 -59.7302 -59.7035 -34.4475 -34.2806
   -34.1679 -34.1368 -34.1141 -34.1033 -34.0095 -33.9421 -33.9061 -33.8666
   -33.8448 -33.8088 -33.7680 -33.6086 -33.5808 -33.5238 -33.2839 -33.2548
    -6.0097  -4.7856  -4.4480  -4.2579  -4.1006  -4.0985  -3.9673  -3.8155
    -3.7404  -3.7052  -3.5557  -3.4952  -3.1564  -3.1231  -2.7570  -2.6694
    -2.4881  -2.4068  -2.2775  -2.0475  -1.8418  -1.8030  -1.4837  -1.4405
    -1.3250  -1.1952  -1.1395  -0.9630  -0.8830  -0.7119  -0.6435  -0.4755
    -0.4603  -0.3258  -0.2233  -0.1687   0.0485   0.1362   0.1653   0.2618
     0.3886   0.5572   0.7565   0.8387   0.9419   1.0376   1.2758   1.3948
     1.5043   1.8024   1.8607   2.1621   2.3209   2.5120   2.6763   2.8839
     3.0208   3.1718   3.3787   3.4729   3.5178   3.5966

          k = 0.0152-0.0419 0.0000 ( 31135 PWs)   bands (ev):

   -60.0241 -59.9212 -59.8309 -59.8038 -59.7303 -59.7036 -34.4464 -34.2788
   -34.1671 -34.1361 -34.1111 -34.1024 -34.0094 -33.9424 -33.9053 -33.8649
   -33.8443 -33.8078 -33.7672 -33.6083 -33.5807 -33.5236 -33.2838 -33.2547
    -6.2678  -4.8652  -4.6434  -4.4235  -4.2790  -4.2622  -4.1550  -3.9639
    -3.9199  -3.8677  -3.7080  -3.6819  -3.3682  -3.2742  -3.0024  -2.7196
    -2.4699  -2.3030  -2.2879  -1.9648  -1.8886  -1.7527  -1.5224  -1.4662
    -1.3308  -1.2524  -1.0848  -0.9146  -0.7623  -0.7060  -0.5875  -0.4876
    -0.1773  -0.1512  -0.0822   0.0457   0.2071   0.2235   0.3300   0.4747
     0.6055   0.9389   1.1843   1.2600   1.3177   1.3933   1.6439   1.7328
     1.7793   1.8686   2.0472   2.3429   2.5282   2.6844   2.8540   2.9676
     3.0423   3.2626   3.5204   3.5315   3.6955   3.7894

          k = 0.0152-0.0252 0.0000 ( 31150 PWs)   bands (ev):

   -60.0243 -59.9213 -59.8309 -59.8039 -59.7303 -59.7037 -34.4454 -34.2772
   -34.1664 -34.1354 -34.1086 -34.1015 -34.0094 -33.9428 -33.9047 -33.8634
   -33.8440 -33.8069 -33.7664 -33.6080 -33.5805 -33.5234 -33.2837 -33.2546
    -6.4611  -4.9553  -4.8035  -4.5600  -4.4347  -4.3821  -4.2761  -4.1344
    -4.0228  -3.9484  -3.8215  -3.8018  -3.5295  -3.3803  -3.2441  -2.7014
    -2.4627  -2.3312  -2.2132  -1.9272  -1.8654  -1.8305  -1.4931  -1.4366
    -1.3801  -1.2992  -1.0510  -0.8854  -0.8061  -0.6351  -0.5521  -0.4656
    -0.0930  -0.0006   0.1171   0.2652   0.3106   0.3638   0.3916   0.7059
     0.8748   1.2507   1.2523   1.4169   1.6719   1.7533   1.8783   1.9243
     2.1682   2.3326   2.3436   2.4627   2.6472   2.6612   3.0801   3.0985
     3.3250   3.4452   3.4990   3.7245   3.7636   3.7922

          k = 0.0152-0.0084 0.0000 ( 31175 PWs)   bands (ev):

   -60.0243 -59.9214 -59.8310 -59.8040 -59.7304 -59.7038 -34.4449 -34.2762
   -34.1660 -34.1351 -34.1071 -34.1010 -34.0093 -33.9431 -33.9042 -33.8625
   -33.8439 -33.8064 -33.7660 -33.6079 -33.5804 -33.5234 -33.2836 -33.2545
    -6.5635  -5.0146  -4.8905  -4.6313  -4.5284  -4.4434  -4.3334  -4.2245
    -4.0814  -3.9822  -3.8833  -3.8593  -3.6135  -3.4335  -3.3714  -2.6928
    -2.4564  -2.3654  -2.1366  -2.0035  -1.9245  -1.7237  -1.5391  -1.4211
    -1.3494  -1.3185  -1.0526  -0.8757  -0.8314  -0.6649  -0.4964  -0.4298
    -0.0664   0.0737   0.2280   0.3646   0.4059   0.4201   0.5143   0.7995
     0.9891   1.3913   1.4305   1.4676   1.7060   1.9408   1.9795   2.1118
     2.1855   2.5907   2.6174   2.6311   2.7250   3.0104   3.2153   3.2206
     3.3240   3.5597   3.5840   3.6372   3.6392   3.9935

          k = 0.0305 0.0168 0.0000 ( 31152 PWs)   bands (ev):

   -60.0190 -59.9267 -59.8258 -59.7988 -59.7356 -59.7090 -34.4024 -34.2711
   -34.1723 -34.1026 -34.0931 -34.0594 -34.0150 -33.9380 -33.8996 -33.8581
   -33.8490 -33.8119 -33.7715 -33.6275 -33.6036 -33.5279 -33.3299 -33.3005
    -6.3774  -4.8282  -4.7019  -4.5467  -4.4504  -4.2951  -4.2234  -4.1335
    -3.9821  -3.8986  -3.7994  -3.7818  -3.4973  -3.2870  -3.2473  -2.6427
    -2.4395  -2.3255  -2.1720  -1.9568  -1.8308  -1.8294  -1.5740  -1.5123
    -1.4434  -1.3860  -1.1058  -0.9586  -0.8402  -0.6857  -0.4049  -0.3162
    -0.2237  -0.0474   0.0955   0.1033   0.3358   0.3706   0.4322   0.7147
     0.8915   0.9737   1.2142   1.3572   1.5741   1.7198   1.8354   1.9670
     1.9881   2.1506   2.4366   2.5017   2.6304   2.7764   2.9781   3.0584
     3.1910   3.3908   3.4024   3.4820   3.7866   3.8493

          k = 0.0305 0.0336 0.0000 ( 31120 PWs)   bands (ev):

   -60.0189 -59.9266 -59.8257 -59.7987 -59.7356 -59.7089 -34.4031 -34.2723
   -34.1728 -34.1046 -34.0936 -34.0600 -34.0149 -33.9376 -33.9001 -33.8592
   -33.8492 -33.8125 -33.7720 -33.6275 -33.6038 -33.5280 -33.3299 -33.3006
    -6.2298  -4.7468  -4.5801  -4.4676  -4.3320  -4.2048  -4.1238  -4.0080
    -3.8985  -3.8555  -3.7205  -3.6799  -3.3906  -3.2170  -3.0551  -2.6599
    -2.4513  -2.2997  -2.2545  -1.9489  -1.8709  -1.7703  -1.5734  -1.4874
    -1.4561  -1.4203  -1.1065  -0.9500  -0.8420  -0.6651  -0.4834  -0.3611
    -0.2816  -0.2449   0.0536   0.0585   0.1678   0.1971   0.3956   0.5658
     0.6969   0.8024   1.1052   1.2571   1.4470   1.4684   1.6642   1.7001
     1.8425   1.8970   2.1746   2.3718   2.4930   2.5158   2.7501   3.0232
     3.0659   3.2328   3.4711   3.4757   3.5564   3.7693

          k = 0.0305 0.0503 0.0000 ( 31119 PWs)   bands (ev):

   -60.0187 -59.9266 -59.8256 -59.7986 -59.7356 -59.7088 -34.4041 -34.2740
   -34.1734 -34.1073 -34.0943 -34.0609 -34.0148 -33.9372 -33.9008 -33.8608
   -33.8496 -33.8134 -33.7727 -33.6276 -33.6041 -33.5281 -33.3300 -33.3007
    -6.0021  -4.6559  -4.4000  -4.3197  -4.1972  -4.0620  -3.9670  -3.8117
    -3.7973  -3.7446  -3.5817  -3.5277  -3.2106  -3.1063  -2.8000  -2.6675
    -2.4748  -2.3473  -2.2853  -2.0597  -1.8193  -1.7670  -1.6167  -1.4766
    -1.4252  -1.3790  -1.1499  -0.9766  -0.8434  -0.7033  -0.5704  -0.5346
    -0.4673  -0.3312  -0.1226  -0.0791   0.0224   0.1218   0.3004   0.3591
     0.4211   0.5909   0.8633   1.0407   1.0530   1.1289   1.2946   1.5011
     1.5304   1.8243   1.8560   2.2384   2.3333   2.5043   2.6057   2.9537
     2.9967   3.1186   3.3845   3.5318   3.5399   3.6329

          k = 0.0305 0.0671 0.0000 ( 31112 PWs)   bands (ev):

   -60.0186 -59.9265 -59.8256 -59.7985 -59.7355 -59.7087 -34.4052 -34.2756
   -34.1741 -34.1100 -34.0949 -34.0618 -34.0147 -33.9369 -33.9013 -33.8624
   -33.8500 -33.8142 -33.7734 -33.6277 -33.6044 -33.5283 -33.3301 -33.3008
    -5.7287  -4.5983  -4.2114  -4.1372  -4.0604  -3.8989  -3.7842  -3.6884
    -3.5913  -3.5587  -3.3999  -3.3250  -2.9997  -2.9861  -2.7600  -2.5313
    -2.5303  -2.3341  -2.2901  -2.0903  -1.9177  -1.7616  -1.7072  -1.4439
    -1.3587  -1.3561  -1.1823  -1.0605  -0.9046  -0.8418  -0.7759  -0.6951
    -0.5426  -0.4301  -0.3617  -0.2809  -0.1162   0.0559   0.0752   0.1290
     0.3498   0.4011   0.4497   0.5716   0.7984   0.8505   1.0413   1.2059
     1.5336   1.7278   1.8113   2.0200   2.1476   2.4098   2.6189   2.8257
     3.0122   3.0942   3.2570   3.4483   3.4822   3.5944

          k = 0.0305 0.0839 0.0000 ( 31121 PWs)   bands (ev):

   -60.0185 -59.9266 -59.8256 -59.7984 -59.7355 -59.7088 -34.4059 -34.2768
   -34.1746 -34.1119 -34.0954 -34.0624 -34.0147 -33.9368 -33.9017 -33.8635
   -33.8504 -33.8148 -33.7739 -33.6278 -33.6046 -33.5284 -33.3301 -33.3009
    -5.4754  -4.5960  -4.0803  -4.0084  -3.9124  -3.7627  -3.6273  -3.5546
    -3.3908  -3.3740  -3.2784  -3.0597  -2.9390  -2.9108  -2.7253  -2.6380
    -2.5696  -2.2341  -2.1552  -2.0743  -1.9251  -1.7924  -1.7044  -1.5123
    -1.3867  -1.3588  -1.1977  -1.1634  -1.0874  -0.9925  -0.9207  -0.7247
    -0.6994  -0.5602  -0.4486  -0.4460  -0.3652  -0.1745  -0.0208   0.0225
     0.0404   0.3038   0.3424   0.4197   0.6806   0.7393   0.8629   0.9284
     1.5942   1.7158   1.7990   1.8152   2.1293   2.3052   2.5569   2.6580
     3.0496   3.0880   3.1760   3.2608   3.3583   3.3863

          k = 0.0305 0.1007 0.0000 ( 31102 PWs)   bands (ev):

   -60.0185 -59.9265 -59.8256 -59.7984 -59.7354 -59.7087 -34.4062 -34.2773
   -34.1747 -34.1126 -34.0956 -34.0627 -34.0147 -33.9368 -33.9019 -33.8639
   -33.8505 -33.8150 -33.7741 -33.6278 -33.6047 -33.5284 -33.3301 -33.3009
    -5.3610  -4.6131  -4.0371  -3.9670  -3.8386  -3.7051  -3.5597  -3.4775
    -3.3149  -3.2976  -3.1861  -3.0448  -2.9501  -2.8345  -2.6978  -2.6533
    -2.5300  -2.4396  -2.0827  -1.9519  -1.8187  -1.7529  -1.6084  -1.5853
    -1.4447  -1.4151  -1.3808  -1.2281  -1.1743  -0.9743  -0.9414  -0.8018
    -0.6783  -0.6663  -0.5677  -0.5157  -0.3578  -0.3010  -0.1197  -0.0050
     0.0263   0.1846   0.3202   0.4365   0.6501   0.7259   0.7943   0.8260
     1.6326   1.7196   1.7384   1.7963   2.1305   2.2568   2.5336   2.5879
     2.9896   3.0826   3.1515   3.2019   3.3166   3.3422

          k = 0.0305-0.0839 0.0000 ( 31121 PWs)   bands (ev):

   -60.0185 -59.9266 -59.8256 -59.7984 -59.7355 -59.7088 -34.4059 -34.2768
   -34.1746 -34.1119 -34.0954 -34.0624 -34.0147 -33.9368 -33.9017 -33.8635
   -33.8504 -33.8148 -33.7739 -33.6278 -33.6046 -33.5284 -33.3301 -33.3009
    -5.4754  -4.5960  -4.0803  -4.0084  -3.9124  -3.7627  -3.6273  -3.5546
    -3.3908  -3.3740  -3.2784  -3.0597  -2.9390  -2.9108  -2.7253  -2.6380
    -2.5696  -2.2341  -2.1552  -2.0743  -1.9251  -1.7924  -1.7044  -1.5123
    -1.3867  -1.3588  -1.1977  -1.1635  -1.0874  -0.9925  -0.9207  -0.7248
    -0.6994  -0.5602  -0.4485  -0.4460  -0.3652  -0.1745  -0.0208   0.0225
     0.0405   0.3038   0.3424   0.4197   0.6806   0.7393   0.8629   0.9284
     1.5942   1.7158   1.7990   1.8152   2.1293   2.3052   2.5569   2.6580
     3.0496   3.0880   3.1760   3.2608   3.3582   3.3863

          k = 0.0305-0.0671 0.0000 ( 31112 PWs)   bands (ev):

   -60.0186 -59.9265 -59.8256 -59.7985 -59.7355 -59.7087 -34.4052 -34.2756
   -34.1741 -34.1100 -34.0949 -34.0618 -34.0147 -33.9369 -33.9013 -33.8624
   -33.8500 -33.8142 -33.7734 -33.6277 -33.6044 -33.5283 -33.3301 -33.3008
    -5.7287  -4.5983  -4.2114  -4.1372  -4.0604  -3.8989  -3.7842  -3.6884
    -3.5913  -3.5587  -3.3999  -3.3250  -2.9997  -2.9861  -2.7600  -2.5313
    -2.5303  -2.3341  -2.2901  -2.0903  -1.9177  -1.7616  -1.7072  -1.4439
    -1.3587  -1.3561  -1.1823  -1.0605  -0.9046  -0.8418  -0.7760  -0.6951
    -0.5426  -0.4300  -0.3617  -0.2809  -0.1163   0.0559   0.0753   0.1290
     0.3498   0.4011   0.4497   0.5716   0.7984   0.8505   1.0413   1.2060
     1.5336   1.7278   1.8113   2.0200   2.1475   2.4099   2.6189   2.8257
     3.0123   3.0943   3.2570   3.4484   3.4823   3.5952

          k = 0.0305-0.0503 0.0000 ( 31119 PWs)   bands (ev):

   -60.0187 -59.9266 -59.8256 -59.7986 -59.7356 -59.7088 -34.4041 -34.2740
   -34.1734 -34.1073 -34.0943 -34.0609 -34.0148 -33.9372 -33.9008 -33.8608
   -33.8496 -33.8134 -33.7727 -33.6276 -33.6041 -33.5281 -33.3300 -33.3007
    -6.0021  -4.6559  -4.4000  -4.3197  -4.1972  -4.0620  -3.9670  -3.8117
    -3.7973  -3.7446  -3.5817  -3.5277  -3.2106  -3.1063  -2.8000  -2.6675
    -2.4748  -2.3473  -2.2853  -2.0597  -1.8193  -1.7670  -1.6167  -1.4766
    -1.4252  -1.3789  -1.1499  -0.9766  -0.8434  -0.7033  -0.5704  -0.5346
    -0.4673  -0.3312  -0.1226  -0.0790   0.0223   0.1219   0.3005   0.3591
     0.4211   0.5909   0.8633   1.0407   1.0530   1.1289   1.2946   1.5011
     1.5304   1.8243   1.8561   2.2383   2.3333   2.5043   2.6057   2.9537
     2.9967   3.1186   3.3845   3.5318   3.5399   3.6329

          k = 0.0305-0.0336 0.0000 ( 31120 PWs)   bands (ev):

   -60.0189 -59.9266 -59.8257 -59.7987 -59.7356 -59.7089 -34.4031 -34.2723
   -34.1728 -34.1046 -34.0936 -34.0600 -34.0149 -33.9376 -33.9001 -33.8592
   -33.8492 -33.8125 -33.7720 -33.6275 -33.6038 -33.5280 -33.3299 -33.3006
    -6.2298  -4.7468  -4.5801  -4.4676  -4.3320  -4.2048  -4.1238  -4.0080
    -3.8985  -3.8555  -3.7205  -3.6799  -3.3906  -3.2170  -3.0551  -2.6599
    -2.4513  -2.2997  -2.2545  -1.9489  -1.8710  -1.7703  -1.5735  -1.4875
    -1.4561  -1.4203  -1.1065  -0.9500  -0.8420  -0.6651  -0.4834  -0.3611
    -0.2816  -0.2449   0.0536   0.0585   0.1678   0.1972   0.3956   0.5658
     0.6969   0.8024   1.1052   1.2571   1.4470   1.4684   1.6642   1.7001
     1.8425   1.8970   2.1746   2.3719   2.4929   2.5158   2.7501   3.0232
     3.0658   3.2327   3.4710   3.4757   3.5564   3.7683

          k = 0.0305-0.0168 0.0000 ( 31152 PWs)   bands (ev):

   -60.0190 -59.9267 -59.8258 -59.7988 -59.7356 -59.7090 -34.4024 -34.2711
   -34.1723 -34.1026 -34.0931 -34.0594 -34.0150 -33.9380 -33.8996 -33.8581
   -33.8490 -33.8119 -33.7715 -33.6275 -33.6036 -33.5279 -33.3299 -33.3005
    -6.3774  -4.8282  -4.7019  -4.5467  -4.4504  -4.2951  -4.2233  -4.1335
    -3.9821  -3.8986  -3.7994  -3.7818  -3.4973  -3.2870  -3.2473  -2.6427
    -2.4395  -2.3255  -2.1720  -1.9568  -1.8308  -1.8294  -1.5740  -1.5123
    -1.4433  -1.3860  -1.1057  -0.9586  -0.8402  -0.6857  -0.4049  -0.3162
    -0.2237  -0.0474   0.0955   0.1033   0.3358   0.3706   0.4322   0.7148
     0.8915   0.9737   1.2142   1.3572   1.5741   1.7199   1.8354   1.9671
     1.9881   2.1506   2.4366   2.5016   2.6305   2.7764   2.9781   3.0584
     3.1910   3.3908   3.4023   3.4820   3.7859   3.8494

          k = 0.0305 0.0000 0.0000 ( 31135 PWs)   bands (ev):

   -60.0190 -59.9267 -59.8257 -59.7988 -59.7357 -59.7090 -34.4021 -34.2707
   -34.1722 -34.1019 -34.0929 -34.0591 -34.0150 -33.9382 -33.8994 -33.8576
   -33.8489 -33.8116 -33.7713 -33.6274 -33.6035 -33.5278 -33.3298 -33.3005
    -6.4283  -4.8606  -4.7441  -4.5616  -4.5073  -4.3252  -4.2558  -4.1763
    -4.0106  -3.9123  -3.8250  -3.8174  -3.5299  -3.3179  -3.3106  -2.6373
    -2.4358  -2.3365  -2.1090  -2.0338  -1.8444  -1.7726  -1.5844  -1.5455
    -1.4482  -1.3283  -1.1219  -0.9657  -0.8407  -0.6942  -0.3876  -0.2973
    -0.2003   0.0258   0.1031   0.1147   0.4072   0.4467   0.4582   0.7467
     0.9624   1.0140   1.2367   1.4797   1.6169   1.7414   1.8516   1.9983
     2.0646   2.2369   2.4623   2.6505   2.7118   2.9585   3.1240   3.1939
     3.2259   3.3504   3.4844   3.5271   3.8449   3.8741

          k = 0.0457 0.0252 0.0000 ( 31119 PWs)   bands (ev):

   -60.0105 -59.9352 -59.8175 -59.7905 -59.7440 -59.7172 -34.3343 -34.2628
   -34.1822 -34.0954 -34.0262 -34.0236 -33.9926 -33.9299 -33.8921 -33.8572
   -33.8509 -33.8204 -33.7802 -33.7016 -33.5969 -33.5350 -33.4029 -33.3733
    -6.0815  -4.5315  -4.4834  -4.4118  -4.3039  -4.0694  -4.0412  -3.9851
    -3.8391  -3.7569  -3.6938  -3.6308  -3.3351  -3.0657  -3.0332  -2.5782
    -2.4535  -2.2691  -2.2039  -2.0071  -1.9083  -1.7782  -1.6958  -1.5940
    -1.4993  -1.4463  -1.1676  -1.1111  -0.9913  -0.6987  -0.6270  -0.4126
    -0.2344  -0.1000  -0.0200  -0.0037   0.1429   0.2612   0.3112   0.4492
     0.4969   0.8120   0.8926   1.3150   1.3941   1.4102   1.5334   1.6906
     1.8898   1.9862   2.1282   2.2730   2.3915   2.6068   2.6182   2.8859
     3.0491   3.1795   3.1994   3.3948   3.5115   3.7173

          k = 0.0457 0.0419 0.0000 ( 31116 PWs)   bands (ev):

   -60.0104 -59.9351 -59.8175 -59.7905 -59.7439 -59.7172 -34.3352 -34.2641
   -34.1825 -34.0976 -34.0266 -34.0234 -33.9934 -33.9294 -33.8926 -33.8575
   -33.8522 -33.8211 -33.7806 -33.7016 -33.5971 -33.5351 -33.4029 -33.3733
    -5.8976  -4.4368  -4.4201  -4.2740  -4.1831  -3.9533  -3.9267  -3.8168
    -3.7418  -3.7116  -3.5907  -3.4992  -3.2156  -2.9986  -2.8137  -2.5972
    -2.4647  -2.3005  -2.2813  -2.1040  -1.8396  -1.8283  -1.7001  -1.5637
    -1.4722  -1.4494  -1.1768  -1.1315  -0.9998  -0.8094  -0.7179  -0.4543
    -0.3582  -0.1933  -0.0930  -0.0371  -0.0214   0.1108   0.1550   0.2673
     0.5072   0.6047   0.7024   1.1288   1.2142   1.2554   1.3131   1.4444
     1.6374   1.7901   1.9238   2.2596   2.2977   2.3410   2.4683   2.9275
     3.0347   3.0882   3.1092   3.3907   3.3986   3.6858

          k = 0.0457 0.0587 0.0000 ( 31134 PWs)   bands (ev):

   -60.0103 -59.9351 -59.8175 -59.7905 -59.7439 -59.7171 -34.3361 -34.2656
   -34.1830 -34.1002 -34.0272 -34.0232 -33.9942 -33.9291 -33.8931 -33.8579
   -33.8536 -33.8218 -33.7811 -33.7016 -33.5973 -33.5352 -33.4029 -33.3733
    -5.6473  -4.3605  -4.3032  -4.0982  -4.0527  -3.8007  -3.7736  -3.6349
    -3.6184  -3.5867  -3.4118  -3.3436  -3.0254  -2.9219  -2.7454  -2.5093
    -2.4578  -2.3486  -2.3429  -2.1762  -1.9165  -1.8820  -1.7275  -1.5488
    -1.4164  -1.3744  -1.2206  -1.2078  -1.0536  -1.0289  -0.7484  -0.6276
    -0.4626  -0.3841  -0.2552  -0.1700  -0.0960  -0.0239   0.0035   0.0603
     0.3188   0.5132   0.6136   0.6190   0.9840   1.0605   1.0891   1.3678
     1.5170   1.6696   1.8288   2.0299   2.2073   2.3975   2.4679   2.8797
     2.9769   3.0177   3.1345   3.3130   3.3752   3.5678

          k = 0.0457 0.0755 0.0000 ( 31116 PWs)   bands (ev):

   -60.0102 -59.9351 -59.8174 -59.7904 -59.7439 -59.7171 -34.3370 -34.2669
   -34.1834 -34.1023 -34.0277 -34.0229 -33.9949 -33.9288 -33.8935 -33.8583
   -33.8548 -33.8225 -33.7815 -33.7016 -33.5975 -33.5353 -33.4029 -33.3733
    -5.3729  -4.3452  -4.1689  -3.9443  -3.9318  -3.6648  -3.5939  -3.4828
    -3.4390  -3.3990  -3.2334  -3.1579  -2.9034  -2.8960  -2.7186  -2.6127
    -2.4646  -2.3334  -2.2229  -2.1808  -2.0247  -1.9565  -1.6974  -1.5818
    -1.4171  -1.3692  -1.3405  -1.3087  -1.1698  -1.0878  -0.8963  -0.7654
    -0.6600  -0.5537  -0.4106  -0.2860  -0.2042  -0.1839  -0.1260  -0.0708
     0.0942   0.1735   0.5386   0.6068   0.9184   0.9439   1.0162   1.0815
     1.5818   1.6351   1.8243   1.9242   2.1586   2.3312   2.5596   2.7231
     2.9596   2.9890   3.1273   3.2864   3.2928   3.3979

          k = 0.0457 0.0923 0.0000 ( 31101 PWs)   bands (ev):

   -60.0101 -59.9351 -59.8174 -59.7903 -59.7438 -59.7170 -34.3374 -34.2676
   -34.1836 -34.1035 -34.0280 -34.0227 -33.9953 -33.9287 -33.8937 -33.8585
   -33.8555 -33.8228 -33.7818 -33.7016 -33.5977 -33.5353 -33.4030 -33.3733
    -5.1635  -4.3838  -4.0756  -3.8685  -3.8544  -3.5659  -3.4497  -3.3243
    -3.2836  -3.2210  -3.1709  -3.0422  -2.9907  -2.9095  -2.7439  -2.5842
    -2.4402  -2.3283  -2.3044  -2.1225  -1.9280  -1.8857  -1.7114  -1.6267
    -1.5269  -1.4944  -1.4382  -1.3813  -1.2721  -1.1482  -0.9901  -0.8153
    -0.7799  -0.5616  -0.5134  -0.4295  -0.3407  -0.2662  -0.2506  -0.0790
    -0.0603   0.0663   0.4760   0.6933   0.8130   0.9176   0.9562   1.0471
     1.5981   1.6341   1.8284   1.9483   2.1535   2.2920   2.5975   2.6067
     2.9544   2.9786   3.0844   3.0999   3.2705   3.3052

          k = 0.0457 0.1090 0.0000 ( 31101 PWs)   bands (ev):

   -60.0101 -59.9351 -59.8174 -59.7903 -59.7438 -59.7170 -34.3374 -34.2676
   -34.1836 -34.1035 -34.0280 -34.0227 -33.9953 -33.9287 -33.8937 -33.8585
   -33.8555 -33.8228 -33.7818 -33.7016 -33.5977 -33.5353 -33.4030 -33.3733
    -5.1635  -4.3838  -4.0756  -3.8685  -3.8544  -3.5659  -3.4497  -3.3243
    -3.2836  -3.2210  -3.1709  -3.0422  -2.9907  -2.9095  -2.7439  -2.5842
    -2.4402  -2.3283  -2.3044  -2.1225  -1.9280  -1.8857  -1.7114  -1.6267
    -1.5269  -1.4944  -1.4382  -1.3813  -1.2721  -1.1482  -0.9901  -0.8153
    -0.7799  -0.5616  -0.5135  -0.4295  -0.3407  -0.2662  -0.2506  -0.0790
    -0.0603   0.0663   0.4760   0.6933   0.8130   0.9176   0.9562   1.0471
     1.5981   1.6341   1.8284   1.9484   2.1535   2.2920   2.5975   2.6067
     2.9543   2.9785   3.0843   3.0999   3.2705   3.3051

          k = 0.0457-0.0755 0.0000 ( 31116 PWs)   bands (ev):

   -60.0102 -59.9351 -59.8174 -59.7904 -59.7439 -59.7171 -34.3370 -34.2669
   -34.1834 -34.1023 -34.0277 -34.0229 -33.9949 -33.9288 -33.8935 -33.8583
   -33.8548 -33.8225 -33.7815 -33.7016 -33.5975 -33.5353 -33.4029 -33.3733
    -5.3730  -4.3452  -4.1689  -3.9443  -3.9318  -3.6648  -3.5939  -3.4828
    -3.4390  -3.3990  -3.2334  -3.1579  -2.9033  -2.8960  -2.7186  -2.6127
    -2.4646  -2.3334  -2.2229  -2.1808  -2.0247  -1.9566  -1.6974  -1.5818
    -1.4171  -1.3692  -1.3405  -1.3087  -1.1698  -1.0878  -0.8963  -0.7654
    -0.6599  -0.5538  -0.4106  -0.2860  -0.2042  -0.1838  -0.1260  -0.0708
     0.0942   0.1736   0.5386   0.6067   0.9184   0.9439   1.0162   1.0816
     1.5819   1.6351   1.8243   1.9243   2.1585   2.3312   2.5596   2.7230
     2.9596   2.9890   3.1273   3.2864   3.2928   3.3979

          k = 0.0457-0.0587 0.0000 ( 31134 PWs)   bands (ev):

   -60.0103 -59.9351 -59.8175 -59.7905 -59.7439 -59.7171 -34.3361 -34.2656
   -34.1830 -34.1002 -34.0272 -34.0232 -33.9942 -33.9291 -33.8931 -33.8579
   -33.8536 -33.8218 -33.7811 -33.7016 -33.5973 -33.5352 -33.4029 -33.3733
    -5.6473  -4.3605  -4.3032  -4.0982  -4.0527  -3.8007  -3.7736  -3.6349
    -3.6184  -3.5867  -3.4117  -3.3436  -3.0253  -2.9219  -2.7454  -2.5093
    -2.4578  -2.3486  -2.3429  -2.1762  -1.9165  -1.8820  -1.7275  -1.5488
    -1.4164  -1.3744  -1.2206  -1.2078  -1.0536  -1.0289  -0.7484  -0.6276
    -0.4627  -0.3841  -0.2552  -0.1700  -0.0960  -0.0240   0.0035   0.0603
     0.3188   0.5132   0.6136   0.6190   0.9841   1.0605   1.0891   1.3678
     1.5170   1.6696   1.8289   2.0299   2.2073   2.3975   2.4679   2.8797
     2.9769   3.0177   3.1345   3.3131   3.3754   3.5681

          k = 0.0457-0.0419 0.0000 ( 31116 PWs)   bands (ev):

   -60.0104 -59.9351 -59.8175 -59.7905 -59.7439 -59.7172 -34.3352 -34.2641
   -34.1825 -34.0976 -34.0266 -34.0234 -33.9934 -33.9294 -33.8926 -33.8575
   -33.8522 -33.8211 -33.7806 -33.7016 -33.5971 -33.5351 -33.4029 -33.3733
    -5.8976  -4.4368  -4.4201  -4.2740  -4.1831  -3.9533  -3.9267  -3.8168
    -3.7418  -3.7116  -3.5907  -3.4992  -3.2156  -2.9986  -2.8137  -2.5972
    -2.4647  -2.3005  -2.2812  -2.1040  -1.8396  -1.8283  -1.7001  -1.5637
    -1.4722  -1.4494  -1.1768  -1.1315  -0.9999  -0.8094  -0.7179  -0.4543
    -0.3582  -0.1933  -0.0930  -0.0371  -0.0214   0.1108   0.1550   0.2674
     0.5072   0.6047   0.7024   1.1288   1.2142   1.2554   1.3131   1.4444
     1.6374   1.7901   1.9238   2.2596   2.2977   2.3410   2.4683   2.9275
     3.0346   3.0882   3.1092   3.3908   3.3987   3.7015

          k = 0.0457-0.0252 0.0000 ( 31119 PWs)   bands (ev):

   -60.0105 -59.9352 -59.8175 -59.7905 -59.7440 -59.7172 -34.3343 -34.2628
   -34.1822 -34.0954 -34.0262 -34.0235 -33.9926 -33.9299 -33.8921 -33.8572
   -33.8509 -33.8204 -33.7802 -33.7016 -33.5969 -33.5350 -33.4029 -33.3733
    -6.0815  -4.5315  -4.4834  -4.4118  -4.3039  -4.0694  -4.0412  -3.9851
    -3.8391  -3.7569  -3.6938  -3.6307  -3.3351  -3.0657  -3.0332  -2.5782
    -2.4535  -2.2691  -2.2039  -2.0071  -1.9084  -1.7782  -1.6958  -1.5940
    -1.4993  -1.4463  -1.1676  -1.1111  -0.9913  -0.6987  -0.6270  -0.4126
    -0.2344  -0.1000  -0.0200  -0.0037   0.1429   0.2612   0.3112   0.4492
     0.4969   0.8120   0.8926   1.3150   1.3941   1.4102   1.5334   1.6906
     1.8898   1.9862   2.1282   2.2730   2.3914   2.6068   2.6182   2.8859
     3.0491   3.1795   3.1994   3.3948   3.5115   3.7172

          k = 0.0457-0.0084 0.0000 ( 31155 PWs)   bands (ev):

   -60.0106 -59.9352 -59.8175 -59.7906 -59.7440 -59.7173 -34.3339 -34.2620
   -34.1820 -34.0941 -34.0260 -34.0236 -33.9922 -33.9301 -33.8918 -33.8570
   -33.8502 -33.8201 -33.7799 -33.7016 -33.5967 -33.5349 -33.4029 -33.3733
    -6.1779  -4.5935  -4.4856  -4.4806  -4.4069  -4.1277  -4.1094  -4.0665
    -3.8884  -3.7776  -3.7400  -3.7066  -3.3763  -3.1821  -3.1021  -2.5616
    -2.4561  -2.2479  -2.1238  -2.0077  -1.9359  -1.7732  -1.7155  -1.6028
    -1.5453  -1.3513  -1.2019  -1.1138  -0.9950  -0.6881  -0.5315  -0.4230
    -0.1463  -0.0583  -0.0074   0.0155   0.2481   0.3646   0.4378   0.4716
     0.5505   0.9046   1.0368   1.3696   1.4794   1.4805   1.6781   1.6983
     2.0236   2.0848   2.3180   2.4144   2.6049   2.7742   2.8069   2.8250
     3.2391   3.3005   3.3621   3.4204   3.6511   3.6824

          k = 0.0457 0.0084 0.0000 ( 31155 PWs)   bands (ev):

   -60.0106 -59.9352 -59.8175 -59.7906 -59.7440 -59.7173 -34.3339 -34.2620
   -34.1820 -34.0941 -34.0260 -34.0236 -33.9922 -33.9301 -33.8918 -33.8570
   -33.8502 -33.8201 -33.7799 -33.7016 -33.5967 -33.5349 -33.4029 -33.3733
    -6.1779  -4.5935  -4.4856  -4.4806  -4.4069  -4.1277  -4.1094  -4.0665
    -3.8884  -3.7776  -3.7400  -3.7066  -3.3763  -3.1821  -3.1021  -2.5616
    -2.4561  -2.2479  -2.1239  -2.0077  -1.9359  -1.7732  -1.7155  -1.6028
    -1.5453  -1.3513  -1.2019  -1.1138  -0.9950  -0.6881  -0.5315  -0.4230
    -0.1463  -0.0583  -0.0074   0.0155   0.2481   0.3646   0.4378   0.4716
     0.5505   0.9046   1.0369   1.3696   1.4794   1.4805   1.6781   1.6983
     2.0236   2.0848   2.3180   2.4144   2.6050   2.7742   2.8069   2.8250
     3.2391   3.3006   3.3621   3.4204   3.6511   3.6820

          k = 0.0609 0.0336 0.0000 ( 31144 PWs)   bands (ev):

   -59.9995 -59.9463 -59.8068 -59.7799 -59.7548 -59.7280 -34.2517 -34.2449
   -34.1947 -34.0858 -34.0351 -33.9376 -33.9193 -33.9050 -33.8823 -33.8678
   -33.8419 -33.8314 -33.7967 -33.7912 -33.5880 -33.5442 -33.4972 -33.4670
    -5.7015  -4.4936  -4.1632  -4.1157  -4.0726  -3.8521  -3.8054  -3.7419
    -3.6694  -3.5673  -3.5633  -3.4450  -3.1486  -2.8125  -2.7675  -2.5169
    -2.5103  -2.2742  -2.2325  -2.2287  -1.9696  -1.9141  -1.6786  -1.6137
    -1.5400  -1.4462  -1.2697  -1.2290  -1.1966  -1.1651  -0.9263  -0.5587
    -0.3472  -0.3193  -0.2766  -0.1308  -0.0876   0.1543   0.2584   0.3490
     0.6097   0.6700   0.7107   1.1503   1.2187   1.2875   1.3379   1.3947
     1.6179   1.8261   1.9676   2.0348   2.1707   2.4206   2.4382   2.6102
     2.7755   2.8648   3.0494   3.1964   3.2546   3.4318

          k = 0.0609 0.0503 0.0000 ( 31159 PWs)   bands (ev):

   -59.9995 -59.9463 -59.8068 -59.7799 -59.7548 -59.7280 -34.2529 -34.2457
   -34.1949 -34.0879 -34.0345 -33.9382 -33.9188 -33.9057 -33.8826 -33.8682
   -33.8431 -33.8319 -33.7966 -33.7914 -33.5882 -33.5443 -33.4971 -33.4669
    -5.4968  -4.4778  -4.0704  -3.9990  -3.9644  -3.7486  -3.6736  -3.5816
    -3.5713  -3.5150  -3.4274  -3.3147  -3.0227  -2.7758  -2.6960  -2.5269
    -2.3972  -2.3758  -2.3102  -2.3098  -2.0460  -1.9124  -1.6963  -1.6340
    -1.5196  -1.3779  -1.3172  -1.2919  -1.2438  -1.1948  -0.9488  -0.6867
    -0.4532  -0.4354  -0.3726  -0.2026  -0.1666   0.0041   0.0818   0.2611
     0.4013   0.5451   0.7715   0.7837   1.0875   1.1338   1.1590   1.4871
     1.5082   1.6335   1.8422   1.9870   2.1758   2.2614   2.4162   2.6182
     2.7213   2.8203   3.0529   3.1485   3.1868   3.3892

          k = 0.0609 0.0671 0.0000 ( 31116 PWs)   bands (ev):

   -59.9993 -59.9462 -59.8068 -59.7798 -59.7547 -59.7279 -34.2541 -34.2465
   -34.1950 -34.0900 -34.0339 -33.9387 -33.9185 -33.9064 -33.8828 -33.8685
   -33.8442 -33.8325 -33.7965 -33.7916 -33.5884 -33.5443 -33.4970 -33.4668
    -5.2417  -4.4301  -4.0419  -3.8660  -3.8279  -3.6011  -3.5500  -3.4534
    -3.4398  -3.3919  -3.2320  -3.1826  -2.8681  -2.7758  -2.7156  -2.5829
    -2.4689  -2.4110  -2.3798  -2.1887  -2.0810  -1.9834  -1.7590  -1.6402
    -1.5762  -1.4180  -1.4080  -1.3320  -1.3202  -1.1718  -0.9814  -0.8376
    -0.6202  -0.6079  -0.4318  -0.4208  -0.2927  -0.0514   0.0448   0.1552
     0.1861   0.3053   0.6529   0.7583   0.9387   1.1348   1.2260   1.2287
     1.5634   1.6114   1.8455   1.9388   2.1803   2.2777   2.4151   2.6212
     2.6657   2.8094   3.0680   3.0686   3.1622   3.3212

          k = 0.0609 0.0839 0.0000 ( 31107 PWs)   bands (ev):

   -59.9993 -59.9462 -59.8068 -59.7797 -59.7547 -59.7279 -34.2549 -34.2470
   -34.1951 -34.0915 -34.0334 -33.9391 -33.9183 -33.9069 -33.8830 -33.8688
   -33.8450 -33.8328 -33.7964 -33.7918 -33.5885 -33.5444 -33.4969 -33.4667
    -4.9890  -4.3790  -4.0988  -3.7512  -3.7154  -3.4598  -3.4137  -3.3322
    -3.3062  -3.2073  -3.1554  -3.0519  -2.8815  -2.8697  -2.7153  -2.5611
    -2.5257  -2.4579  -2.3238  -2.1750  -2.0555  -1.9959  -1.7960  -1.7103
    -1.6848  -1.6115  -1.5891  -1.3415  -1.3120  -1.1104  -1.0036  -0.9491
    -0.8166  -0.7394  -0.5786  -0.4584  -0.3155  -0.1740  -0.0391   0.0315
     0.0997   0.1819   0.6559   0.8272   0.8441   1.0402   1.1574   1.3782
     1.5740   1.6125   1.8697   2.0537   2.1548   2.3387   2.5026   2.5225
     2.6943   2.8052   2.9868   3.0874   3.1208   3.2607

          k = 0.0609 0.1007 0.0000 ( 31152 PWs)   bands (ev):

   -59.9993 -59.9462 -59.8068 -59.7798 -59.7547 -59.7279 -34.2553 -34.2472
   -34.1952 -34.0921 -34.0332 -33.9392 -33.9182 -33.9071 -33.8831 -33.8689
   -33.8453 -33.8330 -33.7963 -33.7918 -33.5886 -33.5444 -33.4969 -33.4667
    -4.8643  -4.3569  -4.1543  -3.7038  -3.6760  -3.4149  -3.2951  -3.2484
    -3.2154  -3.1994  -3.0662  -3.0071  -2.9993  -2.9278  -2.7976  -2.5452
    -2.5267  -2.3538  -2.2226  -2.2204  -2.0415  -1.9557  -1.8786  -1.8233
    -1.7231  -1.7016  -1.6952  -1.3423  -1.2902  -1.0398  -1.0044  -1.0036
    -0.9000  -0.8391  -0.5816  -0.4627  -0.3050  -0.2713  -0.0853  -0.0459
     0.0904   0.2077   0.6100   0.7900   0.9454   0.9695   1.1604   1.4509
     1.5520   1.6167   1.8841   2.1504   2.1607   2.3948   2.4370   2.6655
     2.7013   2.8039   2.9049   3.0207   3.0966   3.2235

          k = 0.0609 0.1174 0.0000 ( 31107 PWs)   bands (ev):

   -59.9993 -59.9462 -59.8068 -59.7797 -59.7547 -59.7279 -34.2549 -34.2470
   -34.1951 -34.0915 -34.0334 -33.9391 -33.9183 -33.9069 -33.8830 -33.8688
   -33.8450 -33.8328 -33.7964 -33.7918 -33.5885 -33.5444 -33.4969 -33.4667
    -4.9890  -4.3790  -4.0988  -3.7512  -3.7154  -3.4598  -3.4137  -3.3322
    -3.3062  -3.2073  -3.1554  -3.0519  -2.8815  -2.8697  -2.7153  -2.5611
    -2.5257  -2.4579  -2.3238  -2.1750  -2.0555  -1.9959  -1.7960  -1.7103
    -1.6848  -1.6115  -1.5891  -1.3415  -1.3120  -1.1104  -1.0036  -0.9491
    -0.8166  -0.7394  -0.5786  -0.4584  -0.3155  -0.1740  -0.0390   0.0315
     0.0997   0.1819   0.6560   0.8272   0.8441   1.0402   1.1574   1.3781
     1.5740   1.6125   1.8697   2.0537   2.1548   2.3387   2.5026   2.5225
     2.6943   2.8052   2.9868   3.0874   3.1208   3.2607

          k = 0.0609-0.0671 0.0000 ( 31116 PWs)   bands (ev):

   -59.9993 -59.9462 -59.8068 -59.7798 -59.7547 -59.7279 -34.2541 -34.2465
   -34.1950 -34.0900 -34.0339 -33.9387 -33.9185 -33.9064 -33.8828 -33.8685
   -33.8442 -33.8325 -33.7965 -33.7916 -33.5884 -33.5443 -33.4970 -33.4668
    -5.2417  -4.4301  -4.0419  -3.8660  -3.8279  -3.6011  -3.5500  -3.4534
    -3.4398  -3.3919  -3.2320  -3.1826  -2.8681  -2.7758  -2.7156  -2.5829
    -2.4689  -2.4110  -2.3798  -2.1887  -2.0810  -1.9834  -1.7590  -1.6402
    -1.5762  -1.4180  -1.4080  -1.3320  -1.3202  -1.1718  -0.9814  -0.8376
    -0.6202  -0.6079  -0.4318  -0.4208  -0.2927  -0.0514   0.0448   0.1552
     0.1861   0.3053   0.6530   0.7583   0.9386   1.1348   1.2260   1.2287
     1.5634   1.6114   1.8455   1.9389   2.1803   2.2777   2.4151   2.6212
     2.6656   2.8094   3.0680   3.0686   3.1622   3.3212

          k = 0.0609-0.0503 0.0000 ( 31159 PWs)   bands (ev):

   -59.9995 -59.9463 -59.8068 -59.7799 -59.7548 -59.7280 -34.2529 -34.2457
   -34.1949 -34.0879 -34.0345 -33.9382 -33.9188 -33.9057 -33.8826 -33.8682
   -33.8431 -33.8319 -33.7966 -33.7914 -33.5882 -33.5443 -33.4971 -33.4669
    -5.4968  -4.4778  -4.0704  -3.9990  -3.9644  -3.7486  -3.6736  -3.5816
    -3.5713  -3.5150  -3.4274  -3.3147  -3.0227  -2.7758  -2.6960  -2.5269
    -2.3973  -2.3758  -2.3102  -2.3098  -2.0460  -1.9124  -1.6963  -1.6340
    -1.5196  -1.3779  -1.3172  -1.2919  -1.2438  -1.1948  -0.9488  -0.6867
    -0.4532  -0.4354  -0.3726  -0.2026  -0.1666   0.0040   0.0818   0.2611
     0.4013   0.5451   0.7715   0.7837   1.0875   1.1338   1.1590   1.4872
     1.5083   1.6335   1.8423   1.9870   2.1758   2.2614   2.4162   2.6182
     2.7213   2.8203   3.0529   3.1485   3.1868   3.3892

          k = 0.0609-0.0336 0.0000 ( 31144 PWs)   bands (ev):

   -59.9995 -59.9463 -59.8068 -59.7799 -59.7548 -59.7280 -34.2517 -34.2449
   -34.1947 -34.0858 -34.0351 -33.9376 -33.9193 -33.9050 -33.8823 -33.8678
   -33.8419 -33.8314 -33.7967 -33.7912 -33.5880 -33.5442 -33.4972 -33.4670
    -5.7015  -4.4936  -4.1632  -4.1157  -4.0726  -3.8521  -3.8054  -3.7419
    -3.6694  -3.5672  -3.5633  -3.4450  -3.1486  -2.8125  -2.7675  -2.5169
    -2.5104  -2.2742  -2.2325  -2.2287  -1.9697  -1.9141  -1.6786  -1.6137
    -1.5400  -1.4462  -1.2697  -1.2290  -1.1966  -1.1651  -0.9263  -0.5587
    -0.3473  -0.3193  -0.2767  -0.1308  -0.0876   0.1543   0.2584   0.3490
     0.6097   0.6700   0.7107   1.1503   1.2187   1.2876   1.3379   1.3947
     1.6179   1.8260   1.9677   2.0348   2.1707   2.4206   2.4382   2.6102
     2.7755   2.8649   3.0494   3.1963   3.2546   3.4318

          k = 0.0609-0.0168 0.0000 ( 31131 PWs)   bands (ev):

   -59.9995 -59.9463 -59.8068 -59.7799 -59.7548 -59.7281 -34.2509 -34.2443
   -34.1946 -34.0842 -34.0356 -33.9372 -33.9196 -33.9044 -33.8820 -33.8676
   -33.8411 -33.8310 -33.7969 -33.7911 -33.5879 -33.5442 -33.4973 -33.4671
    -5.8317  -4.4665  -4.2412  -4.2143  -4.1508  -3.9208  -3.8889  -3.8806
    -3.7185  -3.6310  -3.5849  -3.5480  -3.1922  -2.9506  -2.8439  -2.5259
    -2.4949  -2.1882  -2.1618  -2.1484  -1.9770  -1.9380  -1.7212  -1.5907
    -1.5722  -1.4368  -1.2600  -1.2396  -1.1896  -1.1120  -0.9134  -0.4882
    -0.3246  -0.2409  -0.2398  -0.0590  -0.0361   0.2711   0.3541   0.5224
     0.6000   0.7383   0.9442   1.2350   1.3014   1.3352   1.3875   1.5611
     1.7492   1.9596   2.0024   2.2404   2.3065   2.5017   2.5832   2.7164
     2.9137   2.9877   3.1100   3.2543   3.3219   3.4530

          k = 0.0609 0.0000 0.0000 ( 31150 PWs)   bands (ev):

   -59.9996 -59.9463 -59.8068 -59.7799 -59.7549 -59.7281 -34.2506 -34.2440
   -34.1946 -34.0836 -34.0358 -33.9371 -33.9198 -33.9042 -33.8819 -33.8675
   -33.8408 -33.8309 -33.7969 -33.7910 -33.5878 -33.5442 -33.4973 -33.4672
    -5.8762  -4.4319  -4.2731  -4.2691  -4.1806  -3.9512  -3.9217  -3.9164
    -3.7343  -3.6495  -3.5914  -3.5884  -3.1788  -3.0497  -2.8556  -2.5314
    -2.4836  -2.1565  -2.1011  -2.0990  -2.0447  -1.9502  -1.7309  -1.6186
    -1.5697  -1.3938  -1.2675  -1.2630  -1.1907  -1.0905  -0.9085  -0.4678
    -0.3194  -0.2411  -0.2140  -0.0445   0.0123   0.3377   0.3571   0.5463
     0.6341   0.7771   1.1497   1.1525   1.3143   1.3607   1.3877   1.5466
     1.8636   2.0064   2.0764   2.1586   2.5033   2.5791   2.6137   2.7115
     3.0481   3.2115   3.2863   3.2928   3.3614   3.5277

          k = 0.0609 0.0168 0.0000 ( 31131 PWs)   bands (ev):

   -59.9995 -59.9463 -59.8068 -59.7799 -59.7548 -59.7281 -34.2509 -34.2443
   -34.1946 -34.0842 -34.0356 -33.9372 -33.9196 -33.9044 -33.8820 -33.8676
   -33.8411 -33.8310 -33.7969 -33.7911 -33.5879 -33.5442 -33.4973 -33.4671
    -5.8317  -4.4665  -4.2412  -4.2143  -4.1508  -3.9208  -3.8889  -3.8806
    -3.7185  -3.6310  -3.5849  -3.5480  -3.1922  -2.9506  -2.8439  -2.5259
    -2.4949  -2.1883  -2.1618  -2.1484  -1.9770  -1.9379  -1.7212  -1.5907
    -1.5722  -1.4368  -1.2600  -1.2396  -1.1896  -1.1120  -0.9134  -0.4882
    -0.3246  -0.2409  -0.2398  -0.0590  -0.0361   0.2711   0.3540   0.5224
     0.6000   0.7383   0.9442   1.2350   1.3014   1.3352   1.3875   1.5611
     1.7492   1.9596   2.0024   2.2404   2.3065   2.5017   2.5832   2.7164
     2.9138   2.9877   3.1100   3.2544   3.3219   3.4531

          k = 0.0762 0.0419 0.0000 ( 31161 PWs)   bands (ev):

   -59.9867 -59.9592 -59.7943 -59.7674 -59.7674 -59.7406 -34.2385 -34.2091
   -34.1394 -34.0742 -34.0479 -33.9104 -33.9051 -33.8803 -33.8700 -33.8444
   -33.8332 -33.8292 -33.8043 -33.8007 -33.6058 -33.5788 -33.5735 -33.5549
    -5.2830  -4.6223  -3.9364  -3.8966  -3.7100  -3.6893  -3.5919  -3.4845
    -3.4676  -3.4196  -3.3415  -3.2721  -2.9530  -2.6992  -2.6776  -2.6359
    -2.3919  -2.3858  -2.2980  -2.2803  -2.0649  -1.9796  -1.6751  -1.6530
    -1.6355  -1.5035  -1.4498  -1.3650  -1.2842  -1.2411  -1.1337  -1.1126
    -1.0010  -0.5883  -0.3060  -0.1811   0.0126   0.1309   0.1931   0.4430
     0.4897   0.6698   0.7793   1.0666   1.0701   1.1672   1.3137   1.4843
     1.4969   1.6527   1.8177   1.8929   2.0190   2.1243   2.2493   2.2938
     2.4512   2.6422   2.7313   2.9599   3.3054   3.3807

          k = 0.0762 0.0587 0.0000 ( 31161 PWs)   bands (ev):

   -59.9866 -59.9592 -59.7943 -59.7674 -59.7674 -59.7406 -34.2394 -34.2089
   -34.1400 -34.0760 -34.0469 -33.9096 -33.9052 -33.8807 -33.8701 -33.8448
   -33.8337 -33.8299 -33.8043 -33.8012 -33.6055 -33.5787 -33.5734 -33.5549
    -5.0840  -4.6779  -3.8604  -3.8337  -3.6672  -3.6126  -3.5042  -3.4146
    -3.3891  -3.3130  -3.2711  -3.1403  -2.8566  -2.7786  -2.6921  -2.6556
    -2.5043  -2.4513  -2.2935  -2.1292  -2.1119  -1.9757  -1.7279  -1.7135
    -1.6263  -1.5626  -1.5181  -1.3698  -1.3170  -1.2670  -1.1808  -1.1556
    -0.9447  -0.6652  -0.3843  -0.3126  -0.0128   0.0078   0.2335   0.3258
     0.3856   0.4250   0.7384   0.9393   1.0094   1.3063   1.3225   1.3560
     1.5712   1.6293   1.8251   1.8962   2.0008   2.0975   2.2179   2.2416
     2.4302   2.6342   2.7283   2.9557   3.2259   3.3777

          k = 0.0762 0.0755 0.0000 ( 31135 PWs)   bands (ev):

   -59.9866 -59.9591 -59.7943 -59.7674 -59.7673 -59.7405 -34.2402 -34.2087
   -34.1406 -34.0776 -34.0460 -33.9090 -33.9053 -33.8811 -33.8703 -33.8450
   -33.8341 -33.8306 -33.8041 -33.8018 -33.6053 -33.5787 -33.5734 -33.5548
    -4.8541  -4.7051  -3.8797  -3.7084  -3.6209  -3.5202  -3.4154  -3.3473
    -3.3232  -3.2492  -3.1830  -3.0077  -2.9288  -2.8325  -2.6943  -2.6399
    -2.5357  -2.4617  -2.2960  -2.1230  -2.1012  -1.9192  -1.8601  -1.7608
    -1.7532  -1.6427  -1.6153  -1.4029  -1.3685  -1.2949  -1.1810  -1.1807
    -0.9072  -0.7591  -0.4951  -0.4390  -0.0171  -0.0024   0.1686   0.1970
     0.2464   0.4944   0.8377   0.8899   0.9076   1.1498   1.3234   1.5743
     1.6383   1.6424   1.8643   1.9627   2.0280   2.1898   2.2228   2.2819
     2.4460   2.6074   2.7655   2.9792   3.1388   3.3316

          k = 0.0762 0.0923 0.0000 ( 31092 PWs)   bands (ev):

   -59.9865 -59.9590 -59.7943 -59.7673 -59.7672 -59.7404 -34.2406 -34.2086
   -34.1409 -34.0785 -34.0455 -33.9086 -33.9053 -33.8813 -33.8703 -33.8450
   -33.8344 -33.8310 -33.8036 -33.8025 -33.6052 -33.5787 -33.5733 -33.5548
    -4.7143  -4.6634  -3.9640  -3.6092  -3.5665  -3.4456  -3.3602  -3.3027
    -3.2639  -3.2142  -3.1049  -3.0548  -2.9891  -2.8917  -2.7373  -2.5922
    -2.4144  -2.3666  -2.2986  -2.1439  -2.1252  -2.0268  -1.9344  -1.8446
    -1.8424  -1.6993  -1.6989  -1.4516  -1.3666  -1.2962  -1.1955  -1.1232
    -0.9495  -0.8145  -0.5714  -0.4618  -0.0299   0.0175   0.0700   0.1205
     0.2402   0.6187   0.7980   0.8040   1.0474   1.0729   1.2949   1.5468
     1.6563   1.8245   1.8829   2.0100   2.1236   2.1867   2.2171   2.5106
     2.5864   2.6644   2.8014   2.9734   3.0777   3.2312

          k = 0.0762 0.1090 0.0000 ( 31092 PWs)   bands (ev):

   -59.9865 -59.9590 -59.7943 -59.7673 -59.7672 -59.7404 -34.2406 -34.2086
   -34.1409 -34.0785 -34.0455 -33.9086 -33.9053 -33.8813 -33.8703 -33.8450
   -33.8344 -33.8310 -33.8036 -33.8025 -33.6052 -33.5787 -33.5733 -33.5548
    -4.7143  -4.6634  -3.9640  -3.6092  -3.5665  -3.4456  -3.3602  -3.3027
    -3.2639  -3.2141  -3.1049  -3.0548  -2.9891  -2.8917  -2.7373  -2.5922
    -2.4144  -2.3666  -2.2986  -2.1439  -2.1252  -2.0268  -1.9344  -1.8446
    -1.8424  -1.6993  -1.6989  -1.4516  -1.3666  -1.2962  -1.1955  -1.1232
    -0.9495  -0.8145  -0.5714  -0.4618  -0.0299   0.0175   0.0701   0.1205
     0.2402   0.6187   0.7980   0.8040   1.0474   1.0729   1.2949   1.5468
     1.6563   1.8245   1.8829   2.0100   2.1236   2.1867   2.2171   2.5106
     2.5864   2.6645   2.8014   2.9734   3.0777   3.2312

          k = 0.0762 0.1258 0.0000 ( 31135 PWs)   bands (ev):

   -59.9866 -59.9591 -59.7943 -59.7674 -59.7673 -59.7405 -34.2402 -34.2087
   -34.1406 -34.0776 -34.0460 -33.9090 -33.9053 -33.8811 -33.8703 -33.8450
   -33.8341 -33.8306 -33.8041 -33.8018 -33.6053 -33.5787 -33.5734 -33.5548
    -4.8541  -4.7051  -3.8797  -3.7084  -3.6208  -3.5202  -3.4154  -3.3473
    -3.3232  -3.2492  -3.1830  -3.0077  -2.9288  -2.8325  -2.6943  -2.6399
    -2.5357  -2.4617  -2.2960  -2.1231  -2.1012  -1.9192  -1.8601  -1.7608
    -1.7532  -1.6426  -1.6153  -1.4029  -1.3685  -1.2949  -1.1810  -1.1807
    -0.9072  -0.7591  -0.4950  -0.4390  -0.0171  -0.0024   0.1686   0.1970
     0.2463   0.4944   0.8377   0.8899   0.9076   1.1499   1.3234   1.5743
     1.6384   1.6424   1.8643   1.9627   2.0280   2.1898   2.2228   2.2819
     2.4460   2.6074   2.7654   2.9792   3.1388   3.3316

          k = 0.0762-0.0587 0.0000 ( 31161 PWs)   bands (ev):

   -59.9866 -59.9592 -59.7943 -59.7674 -59.7674 -59.7406 -34.2394 -34.2089
   -34.1400 -34.0760 -34.0469 -33.9096 -33.9052 -33.8808 -33.8701 -33.8448
   -33.8337 -33.8299 -33.8044 -33.8011 -33.6055 -33.5787 -33.5734 -33.5549
    -5.0840  -4.6779  -3.8604  -3.8337  -3.6672  -3.6126  -3.5042  -3.4146
    -3.3891  -3.3130  -3.2711  -3.1403  -2.8566  -2.7786  -2.6921  -2.6556
    -2.5043  -2.4513  -2.2936  -2.1292  -2.1119  -1.9757  -1.7279  -1.7135
    -1.6263  -1.5626  -1.5181  -1.3698  -1.3170  -1.2670  -1.1808  -1.1556
    -0.9447  -0.6652  -0.3844  -0.3126  -0.0128   0.0078   0.2335   0.3258
     0.3856   0.4250   0.7384   0.9393   1.0094   1.3064   1.3225   1.3560
     1.5712   1.6293   1.8251   1.8963   2.0008   2.0975   2.2179   2.2416
     2.4302   2.6343   2.7283   2.9557   3.2259   3.3777

          k = 0.0762-0.0419 0.0000 ( 31161 PWs)   bands (ev):

   -59.9867 -59.9592 -59.7943 -59.7674 -59.7674 -59.7406 -34.2385 -34.2091
   -34.1394 -34.0742 -34.0479 -33.9104 -33.9051 -33.8803 -33.8700 -33.8444
   -33.8332 -33.8292 -33.8043 -33.8007 -33.6058 -33.5788 -33.5735 -33.5549
    -5.2830  -4.6223  -3.9364  -3.8966  -3.7100  -3.6893  -3.5919  -3.4845
    -3.4676  -3.4196  -3.3415  -3.2721  -2.9530  -2.6992  -2.6776  -2.6359
    -2.3919  -2.3858  -2.2980  -2.2804  -2.0649  -1.9796  -1.6751  -1.6531
    -1.6355  -1.5035  -1.4498  -1.3650  -1.2842  -1.2411  -1.1337  -1.1126
    -1.0010  -0.5883  -0.3060  -0.1811   0.0126   0.1309   0.1931   0.4430
     0.4897   0.6698   0.7793   1.0667   1.0701   1.1672   1.3137   1.4843
     1.4969   1.6527   1.8177   1.8929   2.0190   2.1243   2.2492   2.2937
     2.4512   2.6422   2.7313   2.9598   3.3053   3.3806

          k = 0.0762-0.0252 0.0000 ( 31117 PWs)   bands (ev):

   -59.9867 -59.9591 -59.7942 -59.7674 -59.7674 -59.7406 -34.2378 -34.2092
   -34.1388 -34.0725 -34.0488 -33.9111 -33.9050 -33.8800 -33.8698 -33.8440
   -33.8329 -33.8284 -33.8041 -33.8006 -33.6060 -33.5789 -33.5735 -33.5549
    -5.4247  -4.5361  -4.0139  -3.9209  -3.7803  -3.7459  -3.6583  -3.6032
    -3.5162  -3.5076  -3.3742  -3.3496  -2.9993  -2.7249  -2.7112  -2.5877
    -2.4463  -2.3249  -2.2833  -2.2304  -2.0001  -1.9902  -1.7188  -1.6825
    -1.6008  -1.5067  -1.4198  -1.3618  -1.2848  -1.2235  -1.1284  -1.1105
    -0.9762  -0.5579  -0.2412  -0.1581  -0.0167   0.2291   0.4149   0.6083
     0.6112   0.6667   1.0087   1.0903   1.1377   1.1911   1.3210   1.4338
     1.5052   1.8113   1.8368   1.8791   2.1051   2.3351   2.3772   2.4395
     2.4513   2.6615   2.8184   3.0036   3.3404   3.3468

          k = 0.0762-0.0084 0.0000 ( 31131 PWs)   bands (ev):

   -59.9867 -59.9591 -59.7943 -59.7674 -59.7674 -59.7406 -34.2373 -34.2093
   -34.1384 -34.0716 -34.0493 -33.9116 -33.9049 -33.8798 -33.8697 -33.8437
   -33.8328 -33.8281 -33.8039 -33.8006 -33.6061 -33.5789 -33.5735 -33.5549
    -5.4978  -4.4468  -4.0840  -3.9155  -3.8453  -3.7849  -3.6944  -3.6876
    -3.5419  -3.5187  -3.4427  -3.3507  -2.9705  -2.8266  -2.7528  -2.5657
    -2.4865  -2.3156  -2.2029  -2.1283  -2.0505  -1.9237  -1.7951  -1.7476
    -1.5696  -1.5003  -1.4313  -1.3654  -1.2824  -1.2426  -1.1423  -1.0847
    -0.9476  -0.5615  -0.1930  -0.1507  -0.0322   0.2597   0.6330   0.6704
     0.6942   0.7451   0.9724   1.1400   1.2101   1.2629   1.3244   1.3787
     1.4621   1.8313   1.9127   1.9526   2.1631   2.4008   2.4376   2.5980
     2.6535   2.9346   3.0620   3.0751   3.2546   3.3377

          k = 0.0762 0.0084 0.0000 ( 31131 PWs)   bands (ev):

   -59.9867 -59.9591 -59.7943 -59.7674 -59.7674 -59.7406 -34.2373 -34.2093
   -34.1384 -34.0716 -34.0493 -33.9116 -33.9049 -33.8798 -33.8697 -33.8437
   -33.8328 -33.8281 -33.8039 -33.8006 -33.6061 -33.5789 -33.5735 -33.5549
    -5.4978  -4.4468  -4.0840  -3.9155  -3.8453  -3.7849  -3.6944  -3.6876
    -3.5419  -3.5187  -3.4427  -3.3507  -2.9705  -2.8266  -2.7528  -2.5657
    -2.4865  -2.3156  -2.2029  -2.1283  -2.0505  -1.9237  -1.7951  -1.7476
    -1.5696  -1.5003  -1.4313  -1.3654  -1.2824  -1.2426  -1.1423  -1.0847
    -0.9476  -0.5615  -0.1930  -0.1507  -0.0322   0.2597   0.6330   0.6704
     0.6942   0.7451   0.9724   1.1400   1.2101   1.2629   1.3244   1.3787
     1.4620   1.8313   1.9127   1.9526   2.1631   2.4008   2.4376   2.5981
     2.6535   2.9346   3.0620   3.0752   3.2546   3.3376

          k = 0.0762 0.0252 0.0000 ( 31117 PWs)   bands (ev):

   -59.9867 -59.9591 -59.7942 -59.7674 -59.7674 -59.7406 -34.2378 -34.2092
   -34.1388 -34.0725 -34.0488 -33.9111 -33.9050 -33.8800 -33.8698 -33.8440
   -33.8329 -33.8284 -33.8041 -33.8006 -33.6060 -33.5789 -33.5735 -33.5549
    -5.4247  -4.5361  -4.0139  -3.9209  -3.7803  -3.7459  -3.6583  -3.6032
    -3.5162  -3.5076  -3.3742  -3.3496  -2.9993  -2.7249  -2.7112  -2.5877
    -2.4463  -2.3249  -2.2834  -2.2304  -2.0001  -1.9902  -1.7188  -1.6825
    -1.6008  -1.5067  -1.4198  -1.3618  -1.2848  -1.2235  -1.1284  -1.1105
    -0.9762  -0.5579  -0.2412  -0.1581  -0.0167   0.2291   0.4149   0.6083
     0.6113   0.6667   1.0087   1.0903   1.1377   1.1911   1.3211   1.4338
     1.5051   1.8113   1.8368   1.8791   2.1051   2.3351   2.3772   2.4395
     2.4513   2.6615   2.8184   3.0036   3.3406   3.3468

          k =-0.0914-0.0503 0.0000 ( 31154 PWs)   bands (ev):

   -59.9729 -59.9729 -59.7810 -59.7808 -59.7541 -59.7539 -34.2240 -34.2240
   -34.0614 -34.0614 -34.0246 -34.0245 -33.8936 -33.8935 -33.8574 -33.8572
   -33.8168 -33.8167 -33.7204 -33.7203 -33.6891 -33.6889 -33.5662 -33.5661
    -4.8970  -4.8970  -3.8366  -3.8366  -3.5997  -3.5997  -3.4302  -3.4301
    -3.3321  -3.3321  -3.1288  -3.1288  -2.8522  -2.8522  -2.7859  -2.7859
    -2.4540  -2.4540  -2.1267  -2.1266  -1.9759  -1.9759  -1.6852  -1.6850
    -1.6421  -1.6421  -1.5467  -1.5467  -1.4461  -1.4461  -1.2291  -1.2290
    -0.8561  -0.8561  -0.2812  -0.2812   0.0678   0.0679   0.3600   0.3600
     0.4451   0.4451   0.8968   0.8968   1.2412   1.2412   1.5679   1.5679
     1.6081   1.6082   1.7172   1.7173   1.8421   1.8421   2.0253   2.0253
     2.5230   2.5230   2.7729   2.7729   3.3482   3.3482

          k =-0.0914-0.0336 0.0000 ( 31157 PWs)   bands (ev):

   -59.9729 -59.9729 -59.7810 -59.7808 -59.7541 -59.7539 -34.2245 -34.2235
   -34.0627 -34.0599 -34.0251 -34.0241 -33.8939 -33.8932 -33.8574 -33.8572
   -33.8172 -33.8163 -33.7207 -33.7200 -33.6894 -33.6886 -33.5663 -33.5661
    -5.0144  -4.7412  -3.8708  -3.7827  -3.6192  -3.5849  -3.4407  -3.4350
    -3.3675  -3.3071  -3.1957  -3.0991  -2.8994  -2.8060  -2.8004  -2.7704
    -2.4422  -2.3998  -2.2113  -2.0889  -2.0117  -1.9515  -1.7258  -1.7079
    -1.6525  -1.6270  -1.5567  -1.5473  -1.4778  -1.4433  -1.2505  -1.1998
    -0.9542  -0.7872  -0.3443  -0.2715   0.0220   0.2187   0.2396   0.3875
     0.4654   0.6029   0.8188   1.0069   1.1877   1.2665   1.5126   1.5444
     1.5968   1.6527   1.6702   1.8266   1.8293   2.0164   2.0173   2.1770
     2.5090   2.5133   2.7889   2.8116   3.2867   3.3702

          k =-0.0914-0.0168 0.0000 ( 31114 PWs)   bands (ev):

   -59.9729 -59.9729 -59.7809 -59.7807 -59.7541 -59.7539 -34.2249 -34.2231
   -34.0637 -34.0588 -34.0255 -34.0238 -33.8942 -33.8929 -33.8574 -33.8571
   -33.8175 -33.8159 -33.7209 -33.7198 -33.6897 -33.6883 -33.5663 -33.5660
    -5.0856  -4.5748  -3.9225  -3.7060  -3.6334  -3.5878  -3.4600  -3.4534
    -3.4082  -3.2780  -3.2731  -3.0826  -2.9120  -2.8424  -2.7599  -2.7514
    -2.4314  -2.3390  -2.2533  -2.0781  -2.0582  -1.9273  -1.7977  -1.7563
    -1.6632  -1.6302  -1.5846  -1.5642  -1.5286  -1.4538  -1.2653  -1.1459
    -1.0228  -0.7844  -0.4019  -0.2762   0.0516   0.1850   0.3479   0.3847
     0.5020   0.8024   0.8206   1.0903   1.1196   1.2763   1.4700   1.4752
     1.5914   1.6403   1.6530   1.8393   2.0780   2.0851   2.2319   2.4734
     2.5060   2.5874   2.8397   2.9221   3.2010   3.3427

          k =-0.0914-0.0000 0.0000 ( 31122 PWs)   bands (ev):

   -59.9729 -59.9729 -59.7809 -59.7807 -59.7541 -59.7539 -34.2250 -34.2230
   -34.0640 -34.0584 -34.0256 -34.0237 -33.8943 -33.8929 -33.8574 -33.8570
   -33.8176 -33.8158 -33.7210 -33.7197 -33.6898 -33.6882 -33.5664 -33.5660
    -5.1094  -4.4865  -3.9709  -3.6416  -3.6350  -3.6169  -3.4684  -3.4666
    -3.4212  -3.3102  -3.2617  -3.0733  -2.9140  -2.8751  -2.7490  -2.6840
    -2.5369  -2.2617  -2.2112  -2.0987  -2.0822  -1.9099  -1.8665  -1.7649
    -1.6687  -1.6351  -1.6022  -1.5768  -1.5556  -1.4578  -1.2697  -1.1090
    -1.0449  -0.8053  -0.4119  -0.2789   0.0650   0.1694   0.3944   0.3958
     0.5080   0.8194   1.0046   1.0116   1.0762   1.3549   1.3871   1.4652
     1.5904   1.6125   1.6604   1.8482   2.1095   2.1808   2.3554   2.4544
     2.6294   2.8681   2.9290   3.0371   3.1600   3.2869

          k =-0.0914 0.0168 0.0000 ( 31114 PWs)   bands (ev):

   -59.9729 -59.9729 -59.7809 -59.7807 -59.7541 -59.7539 -34.2249 -34.2231
   -34.0637 -34.0588 -34.0255 -34.0238 -33.8942 -33.8929 -33.8574 -33.8571
   -33.8175 -33.8159 -33.7209 -33.7198 -33.6897 -33.6883 -33.5663 -33.5660
    -5.0856  -4.5748  -3.9225  -3.7060  -3.6334  -3.5878  -3.4600  -3.4534
    -3.4082  -3.2780  -3.2731  -3.0826  -2.9120  -2.8424  -2.7599  -2.7514
    -2.4314  -2.3390  -2.2533  -2.0781  -2.0582  -1.9273  -1.7977  -1.7563
    -1.6632  -1.6302  -1.5846  -1.5642  -1.5286  -1.4538  -1.2653  -1.1459
    -1.0228  -0.7844  -0.4019  -0.2762   0.0516   0.1850   0.3479   0.3847
     0.5019   0.8024   0.8206   1.0903   1.1196   1.2763   1.4700   1.4752
     1.5914   1.6403   1.6530   1.8393   2.0780   2.0851   2.2319   2.4734
     2.5060   2.5874   2.8396   2.9221   3.2011   3.3428

          k =-0.0914 0.0336 0.0000 ( 31157 PWs)   bands (ev):

   -59.9729 -59.9729 -59.7810 -59.7808 -59.7541 -59.7539 -34.2245 -34.2235
   -34.0627 -34.0599 -34.0251 -34.0241 -33.8939 -33.8932 -33.8574 -33.8572
   -33.8172 -33.8163 -33.7207 -33.7200 -33.6894 -33.6886 -33.5663 -33.5661
    -5.0144  -4.7412  -3.8708  -3.7827  -3.6192  -3.5849  -3.4407  -3.4350
    -3.3675  -3.3071  -3.1957  -3.0991  -2.8994  -2.8060  -2.8004  -2.7704
    -2.4422  -2.3998  -2.2113  -2.0890  -2.0117  -1.9515  -1.7258  -1.7079
    -1.6525  -1.6270  -1.5567  -1.5473  -1.4778  -1.4433  -1.2505  -1.1998
    -0.9542  -0.7872  -0.3443  -0.2716   0.0220   0.2187   0.2395   0.3875
     0.4654   0.6028   0.8188   1.0069   1.1877   1.2665   1.5127   1.5444
     1.5968   1.6527   1.6702   1.8266   1.8294   2.0164   2.0173   2.1770
     2.5090   2.5133   2.7889   2.8116   3.2867   3.3702

          k =-0.0914-0.1510 0.0000 ( 31154 PWs)   bands (ev):

   -59.9729 -59.9729 -59.7810 -59.7808 -59.7541 -59.7539 -34.2240 -34.2240
   -34.0614 -34.0614 -34.0246 -34.0245 -33.8936 -33.8935 -33.8574 -33.8572
   -33.8168 -33.8167 -33.7204 -33.7203 -33.6891 -33.6889 -33.5662 -33.5661
    -4.8970  -4.8970  -3.8366  -3.8366  -3.5998  -3.5997  -3.4301  -3.4301
    -3.3321  -3.3321  -3.1288  -3.1288  -2.8522  -2.8522  -2.7859  -2.7859
    -2.4540  -2.4540  -2.1267  -2.1267  -1.9759  -1.9759  -1.6852  -1.6850
    -1.6421  -1.6421  -1.5467  -1.5467  -1.4461  -1.4461  -1.2291  -1.2290
    -0.8561  -0.8561  -0.2812  -0.2812   0.0678   0.0679   0.3600   0.3600
     0.4451   0.4451   0.8968   0.8968   1.2412   1.2412   1.5679   1.5679
     1.6081   1.6082   1.7173   1.7173   1.8421   1.8421   2.0253   2.0253
     2.5230   2.5231   2.7729   2.7729   3.3482   3.3483

     the Fermi energy is     1.6119 ev

!    total energy              =   -1237.85069573 Ry
     estimated scf accuracy    <       0.00000444 Ry
     smearing contrib. (-TS)   =      -0.06370091 Ry
     internal energy E=F+TS    =   -1237.78699482 Ry

     The total energy is F=E-TS. E is the sum of the following terms:
     one-electron contribution =  -11241.60118534 Ry
     hartree contribution      =    5653.05551093 Ry
     xc contribution           =    -268.90404990 Ry
     ewald contribution        =    4619.66272828 Ry
     electric field correction =       0.00000120 Ry

     convergence has been achieved in  16 iterations

     negative rho (up, down):  7.968E-04 0.000E+00

     Forces acting on atoms (cartesian axes, Ry/au):

     atom    1 type  1   force =     0.00000240    0.01347929    0.01372230
     atom    2 type  1   force =    -0.00001063    0.01348449    0.01370305
     atom    3 type  2   force =    -0.00001207   -0.03429386    0.00057073
     atom    4 type  2   force =     0.00000273   -0.03429696    0.00057113
     atom    5 type  1   force =     0.00000004    0.00791506   -0.01895277
     atom    6 type  1   force =    -0.00000257    0.00790937   -0.01896041
     atom    7 type  2   force =     0.00000000    0.01194946   -0.00225118
     atom    8 type  2   force =     0.00000103    0.01196305   -0.00223895
     atom    9 type  1   force =     0.00000405   -0.00005843    0.00296497
     atom   10 type  1   force =     0.00001311   -0.00004971    0.00298377
     atom   11 type  2   force =    -0.00001751    0.00100380    0.00394251
     atom   12 type  2   force =     0.00001940    0.00099443    0.00394486

     Total force =     0.065447     Total SCF correction =     0.006054

     Writing output data file ./Mo2Pt2/Mo2Pt2_beef.save/

     init_run     :     91.71s CPU     92.30s WALL (       1 calls)
     electrons    :   2903.03s CPU   2917.90s WALL (       1 calls)
     forces       :     50.54s CPU     50.82s WALL (       1 calls)

     Called by init_run:
     wfcinit      :     80.21s CPU     80.55s WALL (       1 calls)
     potinit      :      7.82s CPU      7.90s WALL (       1 calls)
     hinit0       :      1.94s CPU      1.96s WALL (       1 calls)

     Called by electrons:
     c_bands      :   2560.89s CPU   2568.71s WALL (      16 calls)
     sum_band     :    309.18s CPU    312.90s WALL (      16 calls)
     v_of_rho     :     23.25s CPU     24.47s WALL (      17 calls)
     newd         :     16.48s CPU     18.64s WALL (      17 calls)
     mix_rho      :      0.62s CPU      0.64s WALL (      16 calls)
     vdW_kernel   :      5.69s CPU      5.71s WALL (       1 calls)

     Called by c_bands:
     init_us_2    :     12.03s CPU     12.11s WALL (    2516 calls)
     cegterg      :   2535.56s CPU   2541.74s WALL (    1184 calls)

     Called by *egterg:
     cdiaghg      :    114.35s CPU    114.38s WALL (    5701 calls)
     h_psi        :   1339.70s CPU   1345.39s WALL (    5775 calls)
     s_psi        :    459.34s CPU    459.40s WALL (    5775 calls)
     g_psi        :      0.94s CPU      0.95s WALL (    4517 calls)

     Called by h_psi:
     h_psi:calbec :    460.14s CPU    460.74s WALL (    5775 calls)
     vloc_psi     :    398.59s CPU    403.53s WALL (    5775 calls)
     add_vuspsi   :    476.12s CPU    476.24s WALL (    5775 calls)

     General routines
     calbec       :    693.10s CPU    694.06s WALL (    7255 calls)
     fft          :     12.47s CPU     12.90s WALL (    1130 calls)
     ffts         :      0.05s CPU      0.06s WALL (      33 calls)
     fftw         :    458.20s CPU    464.10s WALL (  593536 calls)
     interpolate  :      0.23s CPU      0.23s WALL (      17 calls)

     Parallel routines
     fft_scatt_xy :     39.94s CPU     40.45s WALL (  594699 calls)
     fft_scatt_yz :     73.54s CPU     74.77s WALL (  594699 calls)

     PWSCF        :  50m52.48s CPU  51m22.03s WALL


   This run was terminated on:  23:47:45  23Jun2022            

=------------------------------------------------------------------------------=
   JOB DONE.
=------------------------------------------------------------------------------=
