
     Program PWSCF v.6.6 starts on 23Jun2022 at 19:29:27 

     This program is part of the open-source Quantum ESPRESSO suite
     for quantum simulation of materials; please cite
         "P. Giannozzi et al., J. Phys.:Condens. Matter 21 395502 (2009);
         "P. Giannozzi et al., J. Phys.:Condens. Matter 29 465901 (2017);
          URL http://www.quantum-espresso.org", 
     in publications or presentations arising from this work. More details at
     http://www.quantum-espresso.org/quote

     Parallel version (MPI), running on    37 processors

     MPI processes distributed on     2 nodes
     R & G space division:  proc/nbgrp/npool/nimage =      37
     Fft bands division:     nmany     =       1
     Reading input from Mo2Pd2.in
Warning: card &CELL ignored
Warning: card / ignored

     Current dimensions of program PWSCF are:
     Max number of different atomic species (ntypx) = 10
     Max number of k-points (npk) =  40000
     Max angular momentum in pseudopotentials (lmaxx) =  3
     Presently stress not available with electric field and gates

     Message from routine cell_base_init:
     DEPRECATED: use true lattice parameter, not A to a.u. conversion factor
     file Mo.pbe-spn-rrkjus_psl.1.0.0.UPF: wavefunction(s)  4S renormalized
     file Pd.pbe-n-rrkjus_psl.1.0.0.UPF: wavefunction(s)  4D renormalized

     **************************************************************************
     Initializing libbeef V0.1.2 with the BEEF-vdW functional.
     Citation: Wellendorff et al., PRB 85, 235149 (2012).
     **************************************************************************


     IMPORTANT: XC functional enforced from input :
     Exchange-correlation= BEEF-VDW
                           (   1   4  43  14   2   0   0)
     Any further DFT definition will be discarded
     Please, verify this is what you really want


     Subspace diagonalization in iterative solution of the eigenvalue problem:
     a serial algorithm will be used

     Found symmetry operation: I + ( -0.5000  0.0000  0.0000)
     This is a supercell, fractional translations are disabled

     Parallelization info
     --------------------
     sticks:   dense  smooth     PW     G-vecs:    dense   smooth      PW
     Min         115      45     13                26559     6700    1051
     Max         116      47     14                26566     6728    1062
     Sum        4257    1701    495               982839   248703   39069



     bravais-lattice index     =            0
     lattice parameter (alat)  =       1.8897  a.u.
     unit-cell volume          =    4497.1906 (a.u.)^3
     number of atoms/cell      =           12
     number of atomic types    =            2
     number of electrons       =       144.00
     number of Kohn-Sham states=           86
     kinetic-energy cutoff     =      55.1240  Ry
     charge density cutoff     =     551.2396  Ry
     convergence threshold     =      1.0E-05
     mixing beta               =       0.1000
     number of iterations used =           10  plain     mixing
     Exchange-correlation= BEEF-VDW
                           (   1   4  43  14   2   0   0)

     celldm(1)=   1.889726  celldm(2)=   0.000000  celldm(3)=   0.000000
     celldm(4)=   0.000000  celldm(5)=   0.000000  celldm(6)=   0.000000

     crystal axes: (cart. coord. in units of alat)
               a(1) = (   5.457387   0.000000   0.000000 )  
               a(2) = (  -2.728694   4.971616   0.000000 )  
               a(3) = (   0.000000   0.000000  24.561928 )  

     reciprocal axes: (cart. coord. in units 2 pi/alat)
               b(1) = (  0.183238  0.100571 -0.000000 )  
               b(2) = (  0.000000  0.201142  0.000000 )  
               b(3) = (  0.000000 -0.000000  0.040713 )  


     PseudoPot. # 1 for Mo read from file:
     ../pseudo/Mo.pbe-spn-rrkjus_psl.1.0.0.UPF
     MD5 check sum: 03f09b12e49601d1a456a78ce8b2d514
     Pseudo is Ultrasoft + core correction, Zval = 14.0
     Generated using "atomic" code by A. Dal Corso v.6.3
     Using radial grid of 1229 points,  6 beta functions with: 
                l(1) =   0
                l(2) =   0
                l(3) =   1
                l(4) =   1
                l(5) =   2
                l(6) =   2
     Q(r) pseudized with 0 coefficients 


     PseudoPot. # 2 for Pd read from file:
     ../pseudo/Pd.pbe-n-rrkjus_psl.1.0.0.UPF
     MD5 check sum: d9f693bf1c5b493397a6bd6f2231cfc3
     Pseudo is Ultrasoft + core correction, Zval = 10.0
     Generated using "atomic" code by A. Dal Corso v.6.3
     Using radial grid of 1235 points,  6 beta functions with: 
                l(1) =   0
                l(2) =   0
                l(3) =   1
                l(4) =   1
                l(5) =   2
                l(6) =   2
     Q(r) pseudized with 0 coefficients 


     atomic species   valence    mass     pseudopotential
        Mo            14.00    95.95000     Mo( 1.00)
        Pd            10.00   106.42000     Pd( 1.00)

     No symmetry found



   Cartesian axes

     site n.     atom                  positions (alat units)
         1           Mo  tau(   1) = (   0.0000000   0.0000000  10.0000000  )
         2           Mo  tau(   2) = (   2.7286937   0.0000000  10.0000000  )
         3           Pd  tau(   3) = (   1.3643468   2.4858080  10.0000000  )
         4           Pd  tau(   4) = (  -1.3643468   2.4858080  10.0000000  )
         5           Mo  tau(   5) = (   2.7286937   1.4976557  12.2809639  )
         6           Mo  tau(   6) = (  -0.0000000   1.4976557  12.2809639  )
         7           Pd  tau(   7) = (  -1.3643468   3.9834637  12.2809639  )
         8           Pd  tau(   8) = (   1.3643468   3.9834637  12.2809639  )
         9           Mo  tau(   9) = (   0.0000282   3.0369435  14.4275273  )
        10           Mo  tau(  10) = (   2.7287218   3.0369268  14.4275033  )
        11           Pd  tau(  11) = (   4.0929830   0.6251200  14.5638578  )
        12           Pd  tau(  12) = (   1.3643169   0.6251194  14.5638572  )

     number of k points=    74  Fermi-Dirac smearing, width (Ry)=  0.0100
                       cart. coord. in units 2pi/alat
        k(    1) = (   0.0000000   0.0000000   0.0000000), wk =   0.0138889
        k(    2) = (   0.0000000   0.0167618   0.0000000), wk =   0.0277778
        k(    3) = (   0.0000000   0.0335236   0.0000000), wk =   0.0277778
        k(    4) = (   0.0000000   0.0502855   0.0000000), wk =   0.0277778
        k(    5) = (   0.0000000   0.0670473   0.0000000), wk =   0.0277778
        k(    6) = (   0.0000000   0.0838091   0.0000000), wk =   0.0277778
        k(    7) = (   0.0000000  -0.1005709   0.0000000), wk =   0.0138889
        k(    8) = (   0.0152698   0.0083809   0.0000000), wk =   0.0277778
        k(    9) = (   0.0152698   0.0251427   0.0000000), wk =   0.0277778
        k(   10) = (   0.0152698   0.0419046   0.0000000), wk =   0.0277778
        k(   11) = (   0.0152698   0.0586664   0.0000000), wk =   0.0277778
        k(   12) = (   0.0152698   0.0754282   0.0000000), wk =   0.0277778
        k(   13) = (   0.0152698   0.0921900   0.0000000), wk =   0.0277778
        k(   14) = (   0.0152698  -0.0921900   0.0000000), wk =   0.0277778
        k(   15) = (   0.0152698  -0.0754282   0.0000000), wk =   0.0277778
        k(   16) = (   0.0152698  -0.0586664   0.0000000), wk =   0.0277778
        k(   17) = (   0.0152698  -0.0419045   0.0000000), wk =   0.0277778
        k(   18) = (   0.0152698  -0.0251427   0.0000000), wk =   0.0277778
        k(   19) = (   0.0152698  -0.0083809   0.0000000), wk =   0.0277778
        k(   20) = (   0.0305396   0.0167618   0.0000000), wk =   0.0277778
        k(   21) = (   0.0305396   0.0335236   0.0000000), wk =   0.0277778
        k(   22) = (   0.0305396   0.0502855   0.0000000), wk =   0.0277778
        k(   23) = (   0.0305396   0.0670473   0.0000000), wk =   0.0277778
        k(   24) = (   0.0305396   0.0838091   0.0000000), wk =   0.0277778
        k(   25) = (   0.0305396   0.1005709   0.0000000), wk =   0.0277778
        k(   26) = (   0.0305396  -0.0838091   0.0000000), wk =   0.0277778
        k(   27) = (   0.0305396  -0.0670473   0.0000000), wk =   0.0277778
        k(   28) = (   0.0305396  -0.0502855   0.0000000), wk =   0.0277778
        k(   29) = (   0.0305396  -0.0335236   0.0000000), wk =   0.0277778
        k(   30) = (   0.0305396  -0.0167618   0.0000000), wk =   0.0277778
        k(   31) = (   0.0305396   0.0000000   0.0000000), wk =   0.0277778
        k(   32) = (   0.0458095   0.0251427   0.0000000), wk =   0.0277778
        k(   33) = (   0.0458095   0.0419046   0.0000000), wk =   0.0277778
        k(   34) = (   0.0458095   0.0586664   0.0000000), wk =   0.0277778
        k(   35) = (   0.0458095   0.0754282   0.0000000), wk =   0.0277778
        k(   36) = (   0.0458095   0.0921900   0.0000000), wk =   0.0277778
        k(   37) = (   0.0458095   0.1089518   0.0000000), wk =   0.0277778
        k(   38) = (   0.0458095  -0.0754282   0.0000000), wk =   0.0277778
        k(   39) = (   0.0458095  -0.0586664   0.0000000), wk =   0.0277778
        k(   40) = (   0.0458095  -0.0419045   0.0000000), wk =   0.0277778
        k(   41) = (   0.0458095  -0.0251427   0.0000000), wk =   0.0277778
        k(   42) = (   0.0458095  -0.0083809   0.0000000), wk =   0.0277778
        k(   43) = (   0.0458095   0.0083809   0.0000000), wk =   0.0277778
        k(   44) = (   0.0610793   0.0335236   0.0000000), wk =   0.0277778
        k(   45) = (   0.0610793   0.0502855   0.0000000), wk =   0.0277778
        k(   46) = (   0.0610793   0.0670473   0.0000000), wk =   0.0277778
        k(   47) = (   0.0610793   0.0838091   0.0000000), wk =   0.0277778
        k(   48) = (   0.0610793   0.1005709   0.0000000), wk =   0.0277778
        k(   49) = (   0.0610793   0.1173327   0.0000000), wk =   0.0277778
        k(   50) = (   0.0610793  -0.0670473   0.0000000), wk =   0.0277778
        k(   51) = (   0.0610793  -0.0502855   0.0000000), wk =   0.0277778
        k(   52) = (   0.0610793  -0.0335236   0.0000000), wk =   0.0277778
        k(   53) = (   0.0610793  -0.0167618   0.0000000), wk =   0.0277778
        k(   54) = (   0.0610793   0.0000000   0.0000000), wk =   0.0277778
        k(   55) = (   0.0610793   0.0167618   0.0000000), wk =   0.0277778
        k(   56) = (   0.0763491   0.0419046   0.0000000), wk =   0.0277778
        k(   57) = (   0.0763491   0.0586664   0.0000000), wk =   0.0277778
        k(   58) = (   0.0763491   0.0754282   0.0000000), wk =   0.0277778
        k(   59) = (   0.0763491   0.0921900   0.0000000), wk =   0.0277778
        k(   60) = (   0.0763491   0.1089518   0.0000000), wk =   0.0277778
        k(   61) = (   0.0763491   0.1257137   0.0000000), wk =   0.0277778
        k(   62) = (   0.0763491  -0.0586664   0.0000000), wk =   0.0277778
        k(   63) = (   0.0763491  -0.0419045   0.0000000), wk =   0.0277778
        k(   64) = (   0.0763491  -0.0251427   0.0000000), wk =   0.0277778
        k(   65) = (   0.0763491  -0.0083809   0.0000000), wk =   0.0277778
        k(   66) = (   0.0763491   0.0083809   0.0000000), wk =   0.0277778
        k(   67) = (   0.0763491   0.0251427   0.0000000), wk =   0.0277778
        k(   68) = (  -0.0916189  -0.0502855   0.0000000), wk =   0.0138889
        k(   69) = (  -0.0916189  -0.0335236   0.0000000), wk =   0.0277778
        k(   70) = (  -0.0916189  -0.0167618   0.0000000), wk =   0.0277778
        k(   71) = (  -0.0916189  -0.0000000   0.0000000), wk =   0.0277778
        k(   72) = (  -0.0916189   0.0167618   0.0000000), wk =   0.0277778
        k(   73) = (  -0.0916189   0.0335236   0.0000000), wk =   0.0277778
        k(   74) = (  -0.0916189  -0.1508564   0.0000000), wk =   0.0138889

     Dense  grid:   982839 G-vectors     FFT dimensions: (  80,  81, 360)

     Smooth grid:   248703 G-vectors     FFT dimensions: (  50,  54, 225)

     Estimated max dynamical RAM per process >     189.08 MB

     Estimated total dynamical RAM >       6.83 GB

     Initial potential from superposition of free atoms

     starting charge  143.99129, renormalised to  144.00000

     negative rho (up, down):  1.007E-03 0.000E+00


     %%%%%%%%%%%%%%%%%%%%%%%%%%%%%%%%%%%%%%%%%%%%%%%%%%%%%%%%%%%%%%%%%%%%%%%%
     %                                                                      %
     % You are using vdW-DF, which was implemented by the Thonhauser group. %
     % Please cite the following two papers that made this development      %
     % possible and the two reviews that describe the various versions:     %
     %                                                                      %
     %   T. Thonhauser et al., PRL 115, 136402 (2015).                      %
     %   T. Thonhauser et al., PRB 76, 125112 (2007).                       %
     %   K. Berland et al., Rep. Prog. Phys. 78, 066501 (2015).             %
     %   D.C. Langreth et al., J. Phys.: Condens. Matter 21, 084203 (2009). %
     %                                                                      %
     %                                                                      %
     % If you are calculating the stress with vdW-DF, please also cite:     %
     %                                                                      %
     %   R. Sabatini et al., J. Phys.: Condens. Matter 24, 424209 (2012).   %
     %                                                                      %
     %%%%%%%%%%%%%%%%%%%%%%%%%%%%%%%%%%%%%%%%%%%%%%%%%%%%%%%%%%%%%%%%%%%%%%%%



     Adding external electric field

     Computed dipole along edir(3) : 
        Dipole               -0.0000 Ry au,         -0.0000 Debye
        Dipole field         -0.0000 Ry au, 

        Potential amp.        0.0000 Ry
        Total length         45.2549 bohr

     Starting wfcs are  114 randomized atomic wfcs

     total cpu time spent up to now is       67.1 secs

     Self-consistent Calculation

     iteration #  1     ecut=    55.12 Ry     beta= 0.10
     Davidson diagonalization with overlap
     ethr =  1.00E-02,  avg # of iterations =  2.0

     negative rho (up, down):  9.044E-04 0.000E+00

     Adding external electric field

     Computed dipole along edir(3) : 
        Dipole               -0.0772 Ry au,         -0.1962 Debye
        Dipole field         -0.0002 Ry au, 

        Potential amp.        0.0195 Ry
        Total length         45.2549 bohr


     total cpu time spent up to now is      175.1 secs

     total energy              =   -1251.37656493 Ry
     estimated scf accuracy    <       4.63057692 Ry

     iteration #  2     ecut=    55.12 Ry     beta= 0.10
     Davidson diagonalization with overlap
     ethr =  3.22E-03,  avg # of iterations =  2.1

     negative rho (up, down):  8.810E-04 0.000E+00

     Adding external electric field

     Computed dipole along edir(3) : 
        Dipole                0.4417 Ry au,          1.1227 Debye
        Dipole field          0.0012 Ry au, 

        Potential amp.       -0.1117 Ry
        Total length         45.2549 bohr


     total cpu time spent up to now is      276.1 secs

     total energy              =   -1251.70060257 Ry
     estimated scf accuracy    <       0.97615692 Ry

     iteration #  3     ecut=    55.12 Ry     beta= 0.10
     Davidson diagonalization with overlap
     ethr =  6.78E-04,  avg # of iterations =  3.8

     negative rho (up, down):  9.219E-04 0.000E+00

     Adding external electric field

     Computed dipole along edir(3) : 
        Dipole               -0.0404 Ry au,         -0.1027 Debye
        Dipole field         -0.0001 Ry au, 

        Potential amp.        0.0102 Ry
        Total length         45.2549 bohr


     total cpu time spent up to now is      387.1 secs

     total energy              =   -1251.62232885 Ry
     estimated scf accuracy    <      11.97291135 Ry

     iteration #  4     ecut=    55.12 Ry     beta= 0.10
     Davidson diagonalization with overlap
     ethr =  6.78E-04,  avg # of iterations =  1.5

     negative rho (up, down):  9.266E-04 0.000E+00

     Adding external electric field

     Computed dipole along edir(3) : 
        Dipole               -0.0038 Ry au,         -0.0098 Debye
        Dipole field         -0.0000 Ry au, 

        Potential amp.        0.0010 Ry
        Total length         45.2549 bohr


     total cpu time spent up to now is      482.1 secs

     total energy              =   -1251.79074880 Ry
     estimated scf accuracy    <       0.31249342 Ry

     iteration #  5     ecut=    55.12 Ry     beta= 0.10
     Davidson diagonalization with overlap
     ethr =  2.17E-04,  avg # of iterations =  2.1

     negative rho (up, down):  9.266E-04 0.000E+00

     Adding external electric field

     Computed dipole along edir(3) : 
        Dipole               -0.0063 Ry au,         -0.0161 Debye
        Dipole field         -0.0000 Ry au, 

        Potential amp.        0.0016 Ry
        Total length         45.2549 bohr


     total cpu time spent up to now is      581.9 secs

     total energy              =   -1251.76978631 Ry
     estimated scf accuracy    <       0.14618956 Ry

     iteration #  6     ecut=    55.12 Ry     beta= 0.10
     Davidson diagonalization with overlap
     ethr =  1.02E-04,  avg # of iterations =  3.6

     negative rho (up, down):  1.208E-03 0.000E+00

     Adding external electric field

     Computed dipole along edir(3) : 
        Dipole                0.0061 Ry au,          0.0155 Debye
        Dipole field          0.0000 Ry au, 

        Potential amp.       -0.0015 Ry
        Total length         45.2549 bohr


     total cpu time spent up to now is      687.3 secs

     total energy              =   -1251.76829284 Ry
     estimated scf accuracy    <       0.05475887 Ry

     iteration #  7     ecut=    55.12 Ry     beta= 0.10
     Davidson diagonalization with overlap
     ethr =  3.80E-05,  avg # of iterations =  7.4

     negative rho (up, down):  1.232E-03 0.000E+00

     Adding external electric field

     Computed dipole along edir(3) : 
        Dipole                0.0013 Ry au,          0.0034 Debye
        Dipole field          0.0000 Ry au, 

        Potential amp.       -0.0003 Ry
        Total length         45.2549 bohr


     total cpu time spent up to now is      822.4 secs

     total energy              =   -1251.77384756 Ry
     estimated scf accuracy    <       0.02835716 Ry

     iteration #  8     ecut=    55.12 Ry     beta= 0.10
     Davidson diagonalization with overlap
     ethr =  1.97E-05,  avg # of iterations =  2.3

     negative rho (up, down):  1.638E-03 0.000E+00

     Adding external electric field

     Computed dipole along edir(3) : 
        Dipole                0.0011 Ry au,          0.0028 Debye
        Dipole field          0.0000 Ry au, 

        Potential amp.       -0.0003 Ry
        Total length         45.2549 bohr


     total cpu time spent up to now is      924.2 secs

     total energy              =   -1251.77438071 Ry
     estimated scf accuracy    <       0.00848183 Ry

     iteration #  9     ecut=    55.12 Ry     beta= 0.10
     Davidson diagonalization with overlap
     c_bands:  2 eigenvalues not converged
     c_bands:  1 eigenvalues not converged
     ethr =  5.89E-06,  avg # of iterations =  7.6

     negative rho (up, down):  1.574E-03 0.000E+00

     Adding external electric field

     Computed dipole along edir(3) : 
        Dipole               -0.0013 Ry au,         -0.0034 Debye
        Dipole field         -0.0000 Ry au, 

        Potential amp.        0.0003 Ry
        Total length         45.2549 bohr


     total cpu time spent up to now is     1081.7 secs

     total energy              =   -1251.77538433 Ry
     estimated scf accuracy    <       0.01869492 Ry

     iteration # 10     ecut=    55.12 Ry     beta= 0.10
     Davidson diagonalization with overlap
     ethr =  5.89E-06,  avg # of iterations =  2.1

     negative rho (up, down):  1.607E-03 0.000E+00

     Adding external electric field

     Computed dipole along edir(3) : 
        Dipole                0.0045 Ry au,          0.0116 Debye
        Dipole field          0.0000 Ry au, 

        Potential amp.       -0.0011 Ry
        Total length         45.2549 bohr


     total cpu time spent up to now is     1185.2 secs

     total energy              =   -1251.77550021 Ry
     estimated scf accuracy    <       0.00408972 Ry

     iteration # 11     ecut=    55.12 Ry     beta= 0.10
     Davidson diagonalization with overlap
     ethr =  2.84E-06,  avg # of iterations =  4.8

     negative rho (up, down):  1.507E-03 0.000E+00

     Adding external electric field

     Computed dipole along edir(3) : 
        Dipole                0.0034 Ry au,          0.0087 Debye
        Dipole field          0.0000 Ry au, 

        Potential amp.       -0.0009 Ry
        Total length         45.2549 bohr


     total cpu time spent up to now is     1298.8 secs

     total energy              =   -1251.77582699 Ry
     estimated scf accuracy    <       0.00036876 Ry

     iteration # 12     ecut=    55.12 Ry     beta= 0.10
     Davidson diagonalization with overlap
     ethr =  2.56E-07,  avg # of iterations =  6.5

     negative rho (up, down):  1.417E-03 0.000E+00

     Adding external electric field

     Computed dipole along edir(3) : 
        Dipole                0.0040 Ry au,          0.0102 Debye
        Dipole field          0.0000 Ry au, 

        Potential amp.       -0.0010 Ry
        Total length         45.2549 bohr


     total cpu time spent up to now is     1448.8 secs

     total energy              =   -1251.77590633 Ry
     estimated scf accuracy    <       0.00047778 Ry

     iteration # 13     ecut=    55.12 Ry     beta= 0.10
     Davidson diagonalization with overlap
     ethr =  2.56E-07,  avg # of iterations =  3.1

     negative rho (up, down):  1.366E-03 0.000E+00

     Adding external electric field

     Computed dipole along edir(3) : 
        Dipole                0.0034 Ry au,          0.0086 Debye
        Dipole field          0.0000 Ry au, 

        Potential amp.       -0.0009 Ry
        Total length         45.2549 bohr


     total cpu time spent up to now is     1566.6 secs

     total energy              =   -1251.77594408 Ry
     estimated scf accuracy    <       0.00040991 Ry

     iteration # 14     ecut=    55.12 Ry     beta= 0.10
     Davidson diagonalization with overlap
     ethr =  2.56E-07,  avg # of iterations =  2.0

     negative rho (up, down):  1.300E-03 0.000E+00

     Adding external electric field

     Computed dipole along edir(3) : 
        Dipole                0.0034 Ry au,          0.0085 Debye
        Dipole field          0.0000 Ry au, 

        Potential amp.       -0.0008 Ry
        Total length         45.2549 bohr


     total cpu time spent up to now is     1666.5 secs

     total energy              =   -1251.77595835 Ry
     estimated scf accuracy    <       0.00007061 Ry

     iteration # 15     ecut=    55.12 Ry     beta= 0.10
     Davidson diagonalization with overlap
     ethr =  4.90E-08,  avg # of iterations =  3.0

     negative rho (up, down):  9.742E-04 0.000E+00

     Adding external electric field

     Computed dipole along edir(3) : 
        Dipole                0.0056 Ry au,          0.0142 Debye
        Dipole field          0.0000 Ry au, 

        Potential amp.       -0.0014 Ry
        Total length         45.2549 bohr


     total cpu time spent up to now is     1774.0 secs

     End of self-consistent calculation

          k = 0.0000 0.0000 0.0000 ( 31087 PWs)   bands (ev):

   -60.2389 -60.1299 -60.0575 -60.0412 -59.9509 -59.9348 -34.6763 -34.5523
   -34.4353 -34.3875 -34.3738 -34.3016 -34.2004 -34.1471 -34.1280 -34.1167
   -34.0443 -34.0243 -34.0151 -33.7838 -33.7680 -33.6960 -33.4888 -33.4822
    -5.2837  -4.1097  -4.0959  -4.0566  -4.0138  -3.8882  -3.8868  -3.7200
    -3.6458  -3.5748  -3.5415  -3.4904  -3.3118  -3.2178  -3.0861  -2.4320
    -2.3363  -2.2298  -2.1006  -1.9922  -1.7993  -1.5624  -1.4592  -1.4337
    -1.3352  -1.3235  -1.1552  -0.9608  -0.9249  -0.9046  -0.7712  -0.7492
    -0.3310  -0.2455  -0.1252   0.0185   0.1659   0.3128   0.3243   0.4939
     0.7992   0.9296   0.9687   1.1991   1.4778   1.4992   1.6186   1.7047
     1.7304   2.1705   2.1841   2.3781   2.5582   2.6438   2.8820   3.0289
     3.2066   3.2077   3.3438   3.3791   3.6302   3.6628

          k = 0.0000 0.0168 0.0000 ( 31107 PWs)   bands (ev):

   -60.2389 -60.1299 -60.0575 -60.0413 -59.9509 -59.9348 -34.6765 -34.5526
   -34.4355 -34.3876 -34.3741 -34.3022 -34.2004 -34.1469 -34.1282 -34.1171
   -34.0442 -34.0247 -34.0153 -33.7839 -33.7680 -33.6960 -33.4888 -33.4823
    -5.2293  -4.0868  -4.0574  -4.0119  -3.9733  -3.8655  -3.8352  -3.7003
    -3.6070  -3.5461  -3.5132  -3.4738  -3.2711  -3.1971  -3.0334  -2.4327
    -2.3333  -2.2104  -2.1267  -1.9424  -1.7957  -1.6088  -1.4427  -1.4353
    -1.3662  -1.3102  -1.1533  -0.9475  -0.9386  -0.8835  -0.8025  -0.7616
    -0.3369  -0.2713  -0.1230  -0.0426   0.0469   0.2736   0.2999   0.5397
     0.7092   0.9191   0.9527   0.9729   1.4083   1.4117   1.6966   1.7093
     1.7699   1.9480   2.0243   2.3630   2.4747   2.5935   2.8847   2.9670
     3.0533   3.1604   3.2396   3.3511   3.5761   3.5856

          k = 0.0000 0.0335 0.0000 ( 31098 PWs)   bands (ev):

   -60.2389 -60.1298 -60.0575 -60.0412 -59.9508 -59.9347 -34.6771 -34.5535
   -34.4359 -34.3878 -34.3747 -34.3040 -34.2002 -34.1462 -34.1288 -34.1179
   -34.0439 -34.0258 -34.0157 -33.7840 -33.7681 -33.6961 -33.4889 -33.4824
    -5.0702  -4.0258  -3.9470  -3.8824  -3.8552  -3.8012  -3.6896  -3.6424
    -3.4967  -3.4578  -3.4306  -3.4243  -3.1539  -3.1349  -2.8793  -2.4379
    -2.3226  -2.1679  -2.1571  -1.8383  -1.7838  -1.7300  -1.4431  -1.4404
    -1.3995  -1.2705  -1.1623  -0.9874  -0.9088  -0.8926  -0.8247  -0.8006
    -0.3536  -0.3484  -0.1958  -0.1916  -0.1168   0.1532   0.2041   0.4681
     0.4983   0.7788   0.8006   0.9457   1.1213   1.1556   1.4535   1.5772
     1.6475   1.7972   2.0511   2.1200   2.1361   2.4742   2.6289   2.7099
     3.0271   3.0844   3.2804   3.3422   3.4023   3.4664

          k = 0.0000 0.0503 0.0000 ( 31078 PWs)   bands (ev):

   -60.2387 -60.1298 -60.0574 -60.0411 -59.9508 -59.9346 -34.6778 -34.5548
   -34.4365 -34.3880 -34.3756 -34.3065 -34.2000 -34.1454 -34.1295 -34.1190
   -34.0436 -34.0274 -34.0164 -33.7842 -33.7682 -33.6963 -33.4889 -33.4826
    -4.8211  -3.9405  -3.7881  -3.6978  -3.6852  -3.6844  -3.5627  -3.4753
    -3.3385  -3.3349  -3.3045  -3.3031  -3.0299  -2.9765  -2.6480  -2.4529
    -2.2972  -2.2084  -2.0885  -1.8833  -1.7614  -1.7203  -1.5251  -1.4622
    -1.3466  -1.2058  -1.1937  -1.0800  -1.0436  -0.8652  -0.8511  -0.7401
    -0.4813  -0.4525  -0.3967  -0.3773  -0.1080  -0.0267   0.0135   0.1557
     0.2677   0.5985   0.6999   0.7424   0.7873   0.9351   1.0522   1.2979
     1.5091   1.5345   1.6140   1.6355   2.3269   2.4018   2.4712   2.6474
     2.7978   2.8736   3.0387   3.1902   3.2138   3.3429

          k = 0.0000 0.0670 0.0000 ( 31034 PWs)   bands (ev):

   -60.2386 -60.1297 -60.0575 -60.0410 -59.9507 -59.9344 -34.6786 -34.5561
   -34.4370 -34.3882 -34.3765 -34.3089 -34.1998 -34.1448 -34.1302 -34.1201
   -34.0431 -34.0290 -34.0170 -33.7843 -33.7683 -33.6964 -33.4889 -33.4828
    -4.5130  -3.8512  -3.6536  -3.5281  -3.5206  -3.4663  -3.4553  -3.2973
    -3.1850  -3.1650  -3.1539  -3.0752  -2.8817  -2.7729  -2.4943  -2.4746
    -2.2309  -2.1286  -2.1215  -1.9281  -1.7452  -1.7293  -1.5056  -1.4885
    -1.3195  -1.3015  -1.1762  -1.1726  -1.1265  -0.9600  -0.7889  -0.6809
    -0.6773  -0.6493  -0.6127  -0.4021  -0.2585  -0.2518  -0.1215  -0.0987
     0.1012   0.1793   0.4203   0.4470   0.5053   0.6763   0.7594   1.0732
     1.1520   1.1971   1.5177   1.5540   2.0091   2.1821   2.3651   2.5652
     2.8118   2.9185   2.9501   3.0851   3.1324   3.2455

          k = 0.0000 0.0838 0.0000 ( 31024 PWs)   bands (ev):

   -60.2384 -60.1297 -60.0573 -60.0408 -59.9508 -59.9344 -34.6792 -34.5570
   -34.4375 -34.3884 -34.3772 -34.3106 -34.1997 -34.1444 -34.1307 -34.1208
   -34.0428 -34.0303 -34.0175 -33.7844 -33.7684 -33.6965 -33.4889 -33.4829
    -4.2109  -3.7914  -3.5699  -3.4475  -3.3572  -3.3416  -3.2363  -3.2056
    -3.0644  -3.0325  -3.0318  -2.7703  -2.7034  -2.6118  -2.5513  -2.4755
    -2.3115  -2.0777  -2.0010  -1.8338  -1.7706  -1.6969  -1.5441  -1.5248
    -1.3473  -1.2722  -1.2651  -1.1589  -1.0625  -1.0583  -0.8968  -0.8602
    -0.8238  -0.7424  -0.6039  -0.5778  -0.4252  -0.4203  -0.2994  -0.2548
    -0.0915   0.0398   0.1563   0.1752   0.3195   0.3434   0.5488   0.7142
     1.1046   1.2116   1.4956   1.5365   1.6065   2.0738   2.2838   2.4560
     2.8122   2.8434   3.0010   3.0351   3.1911   3.2611

          k = 0.0000-0.1006 0.0000 ( 31066 PWs)   bands (ev):

   -60.2384 -60.1297 -60.0574 -60.0409 -59.9508 -59.9345 -34.6794 -34.5574
   -34.4377 -34.3884 -34.3774 -34.3113 -34.1997 -34.1442 -34.1309 -34.1211
   -34.0427 -34.0308 -34.0176 -33.7845 -33.7685 -33.6965 -33.4890 -33.4830
    -4.0592  -3.7838  -3.5385  -3.4352  -3.3042  -3.2544  -3.1814  -3.0888
    -3.0443  -3.0360  -2.9855  -2.6419  -2.5675  -2.5411  -2.4700  -2.4497
    -2.3915  -2.3299  -1.9832  -1.7608  -1.6822  -1.6020  -1.5219  -1.4899
    -1.3940  -1.2631  -1.2621  -1.1131  -1.0964  -1.0309  -0.9943  -0.9871
    -0.9362  -0.8480  -0.7260  -0.5502  -0.4821  -0.4273  -0.4266  -0.3638
    -0.0888   0.0223   0.0505   0.0618   0.1708   0.3187   0.4547   0.5810
     1.0944   1.2901   1.4084   1.4932   1.5344   2.0332   2.2550   2.4099
     2.7710   2.8815   2.9507   2.9950   3.1725   3.4449

          k = 0.0153 0.0084 0.0000 ( 31130 PWs)   bands (ev):

   -60.2371 -60.1318 -60.0557 -60.0395 -59.9528 -59.9367 -34.6616 -34.5504
   -34.4375 -34.3729 -34.3594 -34.3000 -34.2023 -34.1453 -34.1264 -34.1152
   -34.0460 -34.0262 -34.0170 -33.7844 -33.7823 -33.6976 -33.5049 -33.4983
    -5.2244  -4.0650  -4.0602  -4.0174  -3.9693  -3.8592  -3.8301  -3.6855
    -3.6191  -3.5532  -3.5134  -3.4626  -3.2747  -3.1690  -3.0494  -2.4186
    -2.3201  -2.2235  -2.1052  -1.9763  -1.7765  -1.5808  -1.5141  -1.4450
    -1.3416  -1.3347  -1.1226  -0.9870  -0.9480  -0.9292  -0.7315  -0.7025
    -0.3866  -0.2659  -0.1629   0.0185   0.1588   0.2607   0.3032   0.5180
     0.6547   0.8871   0.9659   1.1330   1.2708   1.5673   1.5731   1.6416
     1.9121   1.9395   2.1154   2.2123   2.5046   2.5097   2.9435   3.0324
     3.1350   3.1673   3.2028   3.2769   3.4198   3.5570

          k = 0.0153 0.0251 0.0000 ( 31117 PWs)   bands (ev):

   -60.2371 -60.1317 -60.0557 -60.0395 -59.9527 -59.9366 -34.6620 -34.5511
   -34.4378 -34.3730 -34.3599 -34.3013 -34.2022 -34.1448 -34.1268 -34.1157
   -34.0458 -34.0270 -34.0173 -33.7844 -33.7824 -33.6976 -33.5050 -33.4984
    -5.1174  -4.0166  -3.9975  -3.9238  -3.8896  -3.8153  -3.7304  -3.6462
    -3.5475  -3.4992  -3.4498  -3.4304  -3.1983  -3.1285  -2.9437  -2.4218
    -2.3170  -2.1869  -2.1440  -1.8933  -1.7679  -1.6793  -1.4787  -1.4324
    -1.4010  -1.3264  -1.1234  -0.9754  -0.9668  -0.8992  -0.7877  -0.7168
    -0.3995  -0.3150  -0.1677  -0.1012  -0.0279   0.2030   0.2259   0.5112
     0.5645   0.8331   0.8728   0.9241   1.1468   1.3027   1.5994   1.6210
     1.7714   1.9385   1.9417   2.1313   2.2670   2.3135   2.7376   2.8776
     3.0141   3.0671   3.1905   3.3990   3.4049   3.4895

          k = 0.0153 0.0419 0.0000 ( 31097 PWs)   bands (ev):

   -60.2370 -60.1317 -60.0556 -60.0394 -59.9527 -59.9365 -34.6627 -34.5522
   -34.4383 -34.3733 -34.3607 -34.3034 -34.2020 -34.1441 -34.1274 -34.1167
   -34.0455 -34.0284 -34.0178 -33.7845 -33.7825 -33.6977 -33.5050 -33.4985
    -4.9121  -3.9412  -3.8613  -3.7683  -3.7411  -3.7233  -3.5815  -3.5400
    -3.4150  -3.3923  -3.3661  -3.3261  -3.0522  -3.0478  -2.7476  -2.4324
    -2.3060  -2.1861  -2.1248  -1.8210  -1.7878  -1.7402  -1.4893  -1.4611
    -1.4169  -1.3003  -1.1369  -1.0436  -0.9589  -0.8898  -0.8384  -0.7427
    -0.4262  -0.4181  -0.2922  -0.2885  -0.1480   0.0588   0.0909   0.2611
     0.4269   0.6485   0.7822   0.8289   0.9075   1.0248   1.2403   1.3837
     1.5961   1.6708   1.6855   1.8805   2.1998   2.2899   2.6448   2.6605
     2.7267   2.9224   3.2269   3.2275   3.3670   3.4463

          k = 0.0153 0.0587 0.0000 ( 31052 PWs)   bands (ev):

   -60.2368 -60.1316 -60.0556 -60.0392 -59.9526 -59.9364 -34.6635 -34.5535
   -34.4388 -34.3735 -34.3616 -34.3059 -34.2017 -34.1434 -34.1282 -34.1178
   -34.0451 -34.0300 -34.0184 -33.7846 -33.7827 -33.6978 -33.5050 -33.4987
    -4.6295  -3.8500  -3.6952  -3.6208  -3.5625  -3.5332  -3.4886  -3.3339
    -3.2613  -3.2526  -3.2162  -3.1566  -2.9275  -2.8570  -2.5433  -2.4379
    -2.2710  -2.1941  -2.0860  -1.9464  -1.7360  -1.6935  -1.5294  -1.4889
    -1.4161  -1.2746  -1.1621  -1.1460  -1.0849  -0.8704  -0.8469  -0.7476
    -0.5939  -0.5388  -0.5160  -0.4221  -0.1666  -0.1543  -0.0617  -0.0196
     0.2368   0.3879   0.4510   0.6028   0.6671   0.8631   0.8859   1.0821
     1.2705   1.3189   1.5579   1.6157   2.1155   2.2108   2.4435   2.6114
     2.7208   2.8046   3.1087   3.1669   3.2318   3.2814

          k = 0.0153 0.0754 0.0000 ( 31023 PWs)   bands (ev):

   -60.2366 -60.1316 -60.0556 -60.0391 -59.9526 -59.9362 -34.6642 -34.5546
   -34.4393 -34.3736 -34.3624 -34.3080 -34.2015 -34.1428 -34.1287 -34.1187
   -34.0447 -34.0314 -34.0190 -33.7847 -33.7829 -33.6979 -33.5050 -33.4988
    -4.3129  -3.7703  -3.5851  -3.4378  -3.4209  -3.3827  -3.3163  -3.2095
    -3.1245  -3.0672  -3.0454  -2.9140  -2.7810  -2.6635  -2.5471  -2.4368
    -2.2310  -2.1498  -1.9578  -1.9022  -1.8586  -1.6960  -1.5492  -1.5080
    -1.4137  -1.3067  -1.2138  -1.1968  -1.1156  -0.9566  -0.8382  -0.8297
    -0.7618  -0.7367  -0.6794  -0.4658  -0.4273  -0.2445  -0.2224  -0.1364
    -0.0615   0.1428   0.1656   0.3872   0.4085   0.5225   0.6056   0.8221
     1.1206   1.2039   1.5298   1.5482   1.7756   2.0539   2.3322   2.5086
     2.8002   2.8454   3.0165   3.0574   3.1696   3.2051

          k = 0.0153 0.0922 0.0000 ( 31023 PWs)   bands (ev):

   -60.2365 -60.1316 -60.0555 -60.0390 -59.9527 -59.9363 -34.6646 -34.5552
   -34.4396 -34.3738 -34.3628 -34.3092 -34.2014 -34.1426 -34.1290 -34.1192
   -34.0445 -34.0323 -34.0193 -33.7847 -33.7829 -33.6980 -33.5050 -33.4989
    -4.0571  -3.7410  -3.5248  -3.4090  -3.2769  -3.2586  -3.1602  -3.1269
    -3.0544  -2.9929  -2.9612  -2.6661  -2.6181  -2.6003  -2.4865  -2.4348
    -2.4043  -2.1729  -1.9944  -1.8153  -1.6738  -1.6278  -1.5953  -1.5534
    -1.4068  -1.3014  -1.2694  -1.1291  -1.0983  -1.0608  -1.0108  -0.9315
    -0.8908  -0.8243  -0.7687  -0.6646  -0.5163  -0.3909  -0.3427  -0.2585
    -0.1547   0.0098   0.1519   0.1941   0.2733   0.3364   0.4028   0.6305
     1.0826   1.2721   1.5032   1.5192   1.5388   1.9882   2.2697   2.4247
     2.7771   2.8423   2.9456   3.0036   3.1421   3.2805

          k = 0.0153-0.0922 0.0000 ( 31023 PWs)   bands (ev):

   -60.2365 -60.1316 -60.0555 -60.0390 -59.9527 -59.9363 -34.6646 -34.5552
   -34.4396 -34.3738 -34.3628 -34.3092 -34.2014 -34.1426 -34.1290 -34.1192
   -34.0445 -34.0323 -34.0193 -33.7847 -33.7829 -33.6980 -33.5050 -33.4989
    -4.0571  -3.7410  -3.5248  -3.4090  -3.2769  -3.2586  -3.1602  -3.1268
    -3.0545  -2.9929  -2.9612  -2.6661  -2.6181  -2.6003  -2.4865  -2.4348
    -2.4043  -2.1729  -1.9944  -1.8152  -1.6738  -1.6278  -1.5953  -1.5534
    -1.4068  -1.3014  -1.2694  -1.1291  -1.0983  -1.0608  -1.0108  -0.9315
    -0.8909  -0.8243  -0.7687  -0.6646  -0.5163  -0.3909  -0.3428  -0.2585
    -0.1547   0.0098   0.1519   0.1941   0.2733   0.3364   0.4028   0.6305
     1.0826   1.2721   1.5032   1.5192   1.5388   1.9883   2.2697   2.4247
     2.7773   2.8423   2.9456   3.0041   3.1422   3.2804

          k = 0.0153-0.0754 0.0000 ( 31023 PWs)   bands (ev):

   -60.2366 -60.1316 -60.0556 -60.0391 -59.9526 -59.9362 -34.6642 -34.5546
   -34.4393 -34.3736 -34.3624 -34.3080 -34.2015 -34.1428 -34.1287 -34.1187
   -34.0447 -34.0314 -34.0190 -33.7847 -33.7829 -33.6979 -33.5050 -33.4988
    -4.3129  -3.7703  -3.5851  -3.4378  -3.4209  -3.3827  -3.3163  -3.2095
    -3.1245  -3.0672  -3.0454  -2.9140  -2.7810  -2.6634  -2.5471  -2.4368
    -2.2310  -2.1498  -1.9578  -1.9022  -1.8586  -1.6960  -1.5492  -1.5080
    -1.4137  -1.3067  -1.2138  -1.1968  -1.1156  -0.9566  -0.8382  -0.8297
    -0.7619  -0.7367  -0.6794  -0.4658  -0.4273  -0.2445  -0.2224  -0.1364
    -0.0615   0.1428   0.1656   0.3872   0.4085   0.5225   0.6056   0.8220
     1.1206   1.2039   1.5298   1.5482   1.7756   2.0539   2.3322   2.5086
     2.8002   2.8454   3.0165   3.0574   3.1696   3.2051

          k = 0.0153-0.0587 0.0000 ( 31052 PWs)   bands (ev):

   -60.2368 -60.1316 -60.0556 -60.0392 -59.9526 -59.9364 -34.6635 -34.5535
   -34.4388 -34.3735 -34.3616 -34.3059 -34.2017 -34.1434 -34.1282 -34.1178
   -34.0451 -34.0300 -34.0184 -33.7846 -33.7827 -33.6978 -33.5050 -33.4987
    -4.6295  -3.8500  -3.6952  -3.6208  -3.5625  -3.5332  -3.4886  -3.3339
    -3.2613  -3.2526  -3.2162  -3.1566  -2.9275  -2.8570  -2.5433  -2.4379
    -2.2710  -2.1941  -2.0861  -1.9464  -1.7360  -1.6935  -1.5294  -1.4889
    -1.4161  -1.2746  -1.1621  -1.1460  -1.0849  -0.8704  -0.8469  -0.7476
    -0.5939  -0.5388  -0.5160  -0.4221  -0.1666  -0.1543  -0.0617  -0.0196
     0.2368   0.3879   0.4509   0.6028   0.6671   0.8631   0.8859   1.0821
     1.2705   1.3188   1.5578   1.6157   2.1154   2.2108   2.4435   2.6114
     2.7207   2.8045   3.1086   3.1667   3.2316   3.2818

          k = 0.0153-0.0419 0.0000 ( 31097 PWs)   bands (ev):

   -60.2370 -60.1317 -60.0556 -60.0394 -59.9527 -59.9365 -34.6627 -34.5522
   -34.4383 -34.3733 -34.3607 -34.3034 -34.2020 -34.1441 -34.1274 -34.1167
   -34.0455 -34.0284 -34.0178 -33.7845 -33.7825 -33.6977 -33.5050 -33.4985
    -4.9121  -3.9412  -3.8613  -3.7683  -3.7411  -3.7233  -3.5815  -3.5400
    -3.4150  -3.3923  -3.3661  -3.3261  -3.0522  -3.0478  -2.7476  -2.4324
    -2.3060  -2.1862  -2.1248  -1.8210  -1.7879  -1.7401  -1.4893  -1.4611
    -1.4169  -1.3003  -1.1369  -1.0436  -0.9589  -0.8898  -0.8384  -0.7427
    -0.4262  -0.4181  -0.2922  -0.2885  -0.1480   0.0588   0.0909   0.2610
     0.4269   0.6486   0.7822   0.8288   0.9075   1.0248   1.2403   1.3837
     1.5961   1.6708   1.6854   1.8805   2.1998   2.2899   2.6448   2.6605
     2.7267   2.9224   3.2269   3.2272   3.3664   3.4437

          k = 0.0153-0.0251 0.0000 ( 31117 PWs)   bands (ev):

   -60.2371 -60.1317 -60.0557 -60.0395 -59.9527 -59.9366 -34.6620 -34.5511
   -34.4378 -34.3730 -34.3599 -34.3013 -34.2022 -34.1448 -34.1268 -34.1157
   -34.0458 -34.0270 -34.0173 -33.7844 -33.7824 -33.6976 -33.5050 -33.4984
    -5.1174  -4.0166  -3.9975  -3.9238  -3.8896  -3.8153  -3.7304  -3.6462
    -3.5475  -3.4992  -3.4498  -3.4304  -3.1983  -3.1285  -2.9437  -2.4218
    -2.3170  -2.1869  -2.1440  -1.8934  -1.7679  -1.6793  -1.4787  -1.4324
    -1.4010  -1.3263  -1.1234  -0.9754  -0.9667  -0.8992  -0.7877  -0.7168
    -0.3995  -0.3150  -0.1677  -0.1012  -0.0279   0.2030   0.2259   0.5112
     0.5645   0.8331   0.8728   0.9241   1.1468   1.3026   1.5994   1.6210
     1.7714   1.9384   1.9417   2.1313   2.2670   2.3135   2.7376   2.8775
     3.0140   3.0671   3.1904   3.3987   3.4043   3.4893

          k = 0.0153-0.0084 0.0000 ( 31130 PWs)   bands (ev):

   -60.2371 -60.1318 -60.0557 -60.0395 -59.9528 -59.9367 -34.6616 -34.5504
   -34.4375 -34.3729 -34.3594 -34.3000 -34.2023 -34.1453 -34.1264 -34.1152
   -34.0460 -34.0262 -34.0170 -33.7844 -33.7823 -33.6976 -33.5049 -33.4983
    -5.2244  -4.0650  -4.0602  -4.0174  -3.9693  -3.8592  -3.8301  -3.6855
    -3.6191  -3.5532  -3.5134  -3.4626  -3.2747  -3.1690  -3.0494  -2.4186
    -2.3201  -2.2235  -2.1052  -1.9763  -1.7765  -1.5808  -1.5142  -1.4450
    -1.3416  -1.3347  -1.1226  -0.9869  -0.9480  -0.9292  -0.7315  -0.7025
    -0.3866  -0.2659  -0.1629   0.0185   0.1588   0.2607   0.3032   0.5180
     0.6547   0.8871   0.9659   1.1330   1.2709   1.5673   1.5731   1.6416
     1.9121   1.9395   2.1154   2.2123   2.5046   2.5097   2.9435   3.0324
     3.1348   3.1673   3.2028   3.2769   3.4198   3.5570

          k = 0.0305 0.0168 0.0000 ( 31110 PWs)   bands (ev):

   -60.2317 -60.1372 -60.0504 -60.0342 -59.9581 -59.9420 -34.6184 -34.5450
   -34.4438 -34.3300 -34.3171 -34.2954 -34.2078 -34.1400 -34.1217 -34.1105
   -34.0509 -34.0319 -34.0224 -33.8320 -33.7781 -33.7020 -33.5520 -33.5452
    -5.0511  -3.9847  -3.9170  -3.8950  -3.8429  -3.7746  -3.6684  -3.5863
    -3.5507  -3.4871  -3.4255  -3.3780  -3.1713  -3.0287  -2.9386  -2.3844
    -2.2838  -2.2027  -2.1113  -1.9357  -1.7117  -1.7089  -1.5635  -1.5057
    -1.3658  -1.3636  -1.0932  -1.0545  -1.0134  -0.9463  -0.6345  -0.5833
    -0.4845  -0.3230  -0.2638  -0.0147   0.0267   0.1321   0.2699   0.4082
     0.5759   0.7040   0.8318   0.9663   1.0363   1.4602   1.5001   1.5831
     1.6909   1.9367   1.9402   2.1052   2.1492   2.3690   2.6858   2.7291
     2.8673   3.0110   3.0967   3.1205   3.4077   3.4191

          k = 0.0305 0.0335 0.0000 ( 31065 PWs)   bands (ev):

   -60.2316 -60.1372 -60.0504 -60.0341 -59.9580 -59.9419 -34.6189 -34.5458
   -34.4442 -34.3302 -34.3177 -34.2971 -34.2076 -34.1394 -34.1222 -34.1112
   -34.0507 -34.0329 -34.0228 -33.8320 -33.7782 -33.7021 -33.5520 -33.5453
    -4.8973  -3.8989  -3.8557  -3.7678  -3.7309  -3.7042  -3.5502  -3.5097
    -3.4663  -3.4059  -3.3340  -3.3185  -3.0717  -2.9729  -2.7848  -2.3949
    -2.2888  -2.1601  -2.1513  -1.8382  -1.8142  -1.6915  -1.5591  -1.4709
    -1.4472  -1.3819  -1.1038  -1.0517  -1.0409  -0.9103  -0.7130  -0.6118
    -0.5088  -0.3989  -0.2768  -0.1786  -0.0903  -0.0684   0.1840   0.2770
     0.5323   0.5686   0.7591   0.8637   0.8741   1.1972   1.3174   1.4944
     1.6015   1.6177   1.8350   1.9851   2.0727   2.1008   2.4934   2.5506
     2.8073   2.9123   3.1117   3.1556   3.2331   3.3735

          k = 0.0305 0.0503 0.0000 ( 31058 PWs)   bands (ev):

   -60.2315 -60.1372 -60.0503 -60.0340 -59.9580 -59.9418 -34.6197 -34.5470
   -34.4446 -34.3304 -34.3185 -34.2994 -34.2072 -34.1387 -34.1228 -34.1122
   -34.0504 -34.0343 -34.0233 -33.8321 -33.7783 -33.7022 -33.5520 -33.5453
    -4.6552  -3.7684  -3.7432  -3.6509  -3.5657  -3.5445  -3.4589  -3.3413
    -3.3155  -3.2618  -3.2584  -3.1641  -2.9064  -2.8843  -2.5932  -2.3980
    -2.2867  -2.1821  -2.1118  -1.9409  -1.7507  -1.6580  -1.5776  -1.5230
    -1.4609  -1.3907  -1.1415  -1.1324  -1.0283  -0.8980  -0.8235  -0.6758
    -0.5694  -0.5478  -0.4187  -0.3075  -0.2445  -0.2143   0.0740   0.0909
     0.2853   0.4389   0.5409   0.6797   0.7683   0.9837   1.0576   1.0731
     1.2810   1.4458   1.5619   1.7892   2.0207   2.1863   2.2388   2.5823
     2.7441   2.7926   3.0999   3.1808   3.2067   3.2965

          k = 0.0305 0.0670 0.0000 ( 31070 PWs)   bands (ev):

   -60.2314 -60.1372 -60.0504 -60.0339 -59.9580 -59.9417 -34.6204 -34.5482
   -34.4450 -34.3306 -34.3193 -34.3017 -34.2069 -34.1381 -34.1233 -34.1132
   -34.0501 -34.0358 -34.0238 -33.8321 -33.7785 -33.7023 -33.5520 -33.5455
    -4.3520  -3.6770  -3.5750  -3.5062  -3.3914  -3.3764  -3.3451  -3.2032
    -3.1677  -3.0778  -3.0672  -2.9828  -2.7831  -2.7016  -2.5623  -2.3513
    -2.2428  -2.1584  -2.0836  -1.9798  -1.7763  -1.6699  -1.6553  -1.4983
    -1.4546  -1.3884  -1.2225  -1.2154  -1.0421  -1.0039  -0.8654  -0.8285
    -0.7516  -0.6611  -0.6066  -0.4490  -0.3504  -0.2834  -0.1622   0.0343
     0.0435   0.1484   0.3332   0.4099   0.5876   0.6563   0.7699   0.8822
     1.1705   1.2221   1.5452   1.6470   1.8613   1.9857   2.3016   2.5495
     2.7228   2.7814   3.0122   3.1340   3.1948   3.2912

          k = 0.0305 0.0838 0.0000 ( 31043 PWs)   bands (ev):

   -60.2313 -60.1371 -60.0503 -60.0338 -59.9580 -59.9417 -34.6210 -34.5490
   -34.4454 -34.3307 -34.3200 -34.3033 -34.2066 -34.1377 -34.1237 -34.1139
   -34.0498 -34.0369 -34.0242 -33.8322 -33.7786 -33.7024 -33.5521 -33.5455
    -4.0452  -3.6221  -3.4854  -3.3385  -3.2928  -3.2354  -3.1603  -3.0902
    -3.0889  -2.9456  -2.8862  -2.7467  -2.7093  -2.6585  -2.4918  -2.3717
    -2.3352  -2.0789  -2.0142  -1.9418  -1.7869  -1.7109  -1.6335  -1.5526
    -1.4256  -1.3585  -1.3018  -1.2177  -1.1792  -1.0547  -1.0488  -0.9723
    -0.8740  -0.7274  -0.7028  -0.5854  -0.5726  -0.3658  -0.2921  -0.2434
    -0.1074   0.0406   0.1941   0.3005   0.4519   0.4590   0.5431   0.7244
     1.0645   1.2748   1.5492   1.5922   1.6637   1.8950   2.2789   2.4548
     2.7364   2.8026   2.9380   2.9932   3.0759   3.1208

          k = 0.0305 0.1006 0.0000 ( 31064 PWs)   bands (ev):

   -60.2312 -60.1371 -60.0503 -60.0338 -59.9581 -59.9417 -34.6212 -34.5493
   -34.4455 -34.3308 -34.3202 -34.3039 -34.2066 -34.1376 -34.1238 -34.1141
   -34.0497 -34.0374 -34.0243 -33.8322 -33.7786 -33.7024 -33.5521 -33.5456
    -3.8798  -3.6287  -3.4521  -3.3332  -3.1703  -3.1343  -3.1005  -3.0972
    -2.9988  -2.9580  -2.8293  -2.7195  -2.6195  -2.5877  -2.4630  -2.3659
    -2.3136  -2.2864  -2.0644  -1.7956  -1.6519  -1.6329  -1.6179  -1.5792
    -1.5011  -1.3622  -1.3379  -1.2935  -1.1909  -1.1085  -1.0961  -0.9861
    -0.9431  -0.7953  -0.7886  -0.6934  -0.6061  -0.4507  -0.3772  -0.2978
    -0.1510   0.0452   0.1071   0.3104   0.3985   0.4154   0.4509   0.6497
     1.0456   1.3135   1.5519   1.5805   1.5806   1.8593   2.2642   2.4114
     2.7521   2.7553   2.9066   2.9785   3.0078   3.0860

          k = 0.0305-0.0838 0.0000 ( 31043 PWs)   bands (ev):

   -60.2313 -60.1371 -60.0503 -60.0338 -59.9580 -59.9417 -34.6210 -34.5490
   -34.4454 -34.3307 -34.3200 -34.3033 -34.2066 -34.1377 -34.1237 -34.1139
   -34.0498 -34.0369 -34.0242 -33.8322 -33.7786 -33.7024 -33.5521 -33.5455
    -4.0452  -3.6222  -3.4854  -3.3385  -3.2928  -3.2354  -3.1603  -3.0902
    -3.0889  -2.9456  -2.8862  -2.7467  -2.7093  -2.6585  -2.4918  -2.3717
    -2.3352  -2.0789  -2.0143  -1.9418  -1.7869  -1.7109  -1.6335  -1.5525
    -1.4256  -1.3585  -1.3018  -1.2177  -1.1792  -1.0547  -1.0488  -0.9723
    -0.8740  -0.7274  -0.7028  -0.5854  -0.5725  -0.3658  -0.2921  -0.2434
    -0.1074   0.0406   0.1941   0.3005   0.4519   0.4590   0.5431   0.7243
     1.0645   1.2748   1.5492   1.5922   1.6637   1.8950   2.2789   2.4548
     2.7364   2.8026   2.9380   2.9932   3.0759   3.1207

          k = 0.0305-0.0670 0.0000 ( 31070 PWs)   bands (ev):

   -60.2314 -60.1372 -60.0504 -60.0339 -59.9580 -59.9417 -34.6204 -34.5482
   -34.4450 -34.3306 -34.3193 -34.3017 -34.2069 -34.1381 -34.1233 -34.1132
   -34.0501 -34.0358 -34.0238 -33.8321 -33.7785 -33.7023 -33.5520 -33.5455
    -4.3520  -3.6770  -3.5750  -3.5062  -3.3914  -3.3764  -3.3451  -3.2032
    -3.1677  -3.0778  -3.0672  -2.9828  -2.7831  -2.7017  -2.5623  -2.3513
    -2.2428  -2.1584  -2.0836  -1.9798  -1.7764  -1.6699  -1.6553  -1.4983
    -1.4546  -1.3884  -1.2225  -1.2154  -1.0422  -1.0039  -0.8654  -0.8285
    -0.7516  -0.6611  -0.6066  -0.4490  -0.3504  -0.2834  -0.1623   0.0344
     0.0435   0.1484   0.3332   0.4099   0.5876   0.6563   0.7699   0.8821
     1.1704   1.2221   1.5452   1.6470   1.8613   1.9857   2.3016   2.5494
     2.7228   2.7814   3.0108   3.1340   3.1948   3.2912

          k = 0.0305-0.0503 0.0000 ( 31058 PWs)   bands (ev):

   -60.2315 -60.1372 -60.0503 -60.0340 -59.9580 -59.9418 -34.6197 -34.5470
   -34.4446 -34.3304 -34.3185 -34.2994 -34.2072 -34.1387 -34.1228 -34.1122
   -34.0504 -34.0343 -34.0233 -33.8321 -33.7783 -33.7022 -33.5520 -33.5453
    -4.6552  -3.7684  -3.7432  -3.6509  -3.5657  -3.5445  -3.4589  -3.3413
    -3.3155  -3.2618  -3.2584  -3.1641  -2.9064  -2.8843  -2.5932  -2.3980
    -2.2867  -2.1821  -2.1118  -1.9409  -1.7507  -1.6580  -1.5776  -1.5230
    -1.4609  -1.3907  -1.1415  -1.1324  -1.0282  -0.8980  -0.8235  -0.6758
    -0.5694  -0.5478  -0.4187  -0.3075  -0.2445  -0.2143   0.0740   0.0909
     0.2854   0.4389   0.5410   0.6796   0.7683   0.9837   1.0576   1.0731
     1.2810   1.4458   1.5619   1.7893   2.0207   2.1862   2.2388   2.5823
     2.7441   2.7926   3.0999   3.1805   3.2068   3.2965

          k = 0.0305-0.0335 0.0000 ( 31065 PWs)   bands (ev):

   -60.2316 -60.1372 -60.0504 -60.0341 -59.9580 -59.9419 -34.6189 -34.5458
   -34.4442 -34.3302 -34.3177 -34.2971 -34.2076 -34.1394 -34.1222 -34.1112
   -34.0507 -34.0329 -34.0228 -33.8320 -33.7782 -33.7021 -33.5520 -33.5453
    -4.8973  -3.8989  -3.8557  -3.7678  -3.7309  -3.7042  -3.5502  -3.5097
    -3.4663  -3.4059  -3.3340  -3.3184  -3.0717  -2.9729  -2.7848  -2.3949
    -2.2888  -2.1601  -2.1513  -1.8383  -1.8142  -1.6915  -1.5591  -1.4710
    -1.4472  -1.3819  -1.1038  -1.0518  -1.0409  -0.9103  -0.7130  -0.6119
    -0.5088  -0.3989  -0.2768  -0.1786  -0.0903  -0.0684   0.1840   0.2770
     0.5323   0.5686   0.7591   0.8637   0.8741   1.1972   1.3174   1.4944
     1.6015   1.6177   1.8349   1.9851   2.0727   2.1009   2.4934   2.5506
     2.8074   2.9123   3.1117   3.1556   3.2331   3.3735

          k = 0.0305-0.0168 0.0000 ( 31110 PWs)   bands (ev):

   -60.2317 -60.1372 -60.0504 -60.0342 -59.9581 -59.9420 -34.6184 -34.5450
   -34.4438 -34.3300 -34.3171 -34.2954 -34.2078 -34.1400 -34.1217 -34.1105
   -34.0509 -34.0319 -34.0224 -33.8320 -33.7781 -33.7020 -33.5520 -33.5452
    -5.0511  -3.9847  -3.9170  -3.8950  -3.8429  -3.7746  -3.6684  -3.5863
    -3.5507  -3.4871  -3.4255  -3.3780  -3.1713  -3.0287  -2.9386  -2.3844
    -2.2838  -2.2028  -2.1113  -1.9357  -1.7116  -1.7089  -1.5635  -1.5057
    -1.3658  -1.3636  -1.0932  -1.0545  -1.0134  -0.9463  -0.6345  -0.5833
    -0.4844  -0.3230  -0.2638  -0.0147   0.0267   0.1321   0.2699   0.4082
     0.5759   0.7040   0.8318   0.9663   1.0363   1.4601   1.5001   1.5831
     1.6909   1.9367   1.9402   2.1052   2.1492   2.3690   2.6859   2.7291
     2.8673   3.0111   3.0967   3.1207   3.4077   3.4191

          k = 0.0305 0.0000 0.0000 ( 31081 PWs)   bands (ev):

   -60.2317 -60.1373 -60.0504 -60.0341 -59.9581 -59.9420 -34.6182 -34.5447
   -34.4437 -34.3299 -34.3168 -34.2948 -34.2079 -34.1402 -34.1215 -34.1102
   -34.0510 -34.0315 -34.0223 -33.8319 -33.7780 -33.7020 -33.5520 -33.5451
    -5.1036  -4.0043  -3.9525  -3.9396  -3.8812  -3.7953  -3.7163  -3.6063
    -3.5801  -3.5138  -3.4634  -3.3928  -3.2031  -3.0476  -2.9949  -2.3813
    -2.2808  -2.2195  -2.0823  -1.9875  -1.7135  -1.6724  -1.5513  -1.5387
    -1.3588  -1.3287  -1.0927  -1.0605  -1.0048  -0.9597  -0.6183  -0.5686
    -0.4745  -0.3014  -0.2596   0.0312   0.0869   0.2409   0.3048   0.4510
     0.5265   0.7438   0.8761   0.9861   1.2299   1.4483   1.5325   1.5933
     1.6841   2.0251   2.0341   2.1452   2.2258   2.4406   2.8028   2.8771
     2.9517   3.0765   3.0767   3.2874   3.4275   3.5183

          k = 0.0458 0.0251 0.0000 ( 31091 PWs)   bands (ev):

   -60.2230 -60.1460 -60.0420 -60.0258 -59.9666 -59.9505 -34.5493 -34.5363
   -34.4537 -34.2880 -34.2614 -34.2492 -34.2165 -34.1316 -34.1142 -34.1030
   -34.0589 -34.0408 -34.0310 -33.9072 -33.7713 -33.7091 -33.6263 -33.6192
    -4.7788  -3.8707  -3.7073  -3.7031  -3.6540  -3.6362  -3.4643  -3.4625
    -3.4007  -3.3725  -3.2813  -3.2360  -3.0212  -2.8163  -2.7584  -2.3477
    -2.2715  -2.1579  -2.0990  -1.9074  -1.8857  -1.6926  -1.6006  -1.5270
    -1.4203  -1.4047  -1.2009  -1.1568  -1.1113  -0.8536  -0.6979  -0.5104
    -0.4758  -0.4123  -0.3458  -0.2740  -0.0330   0.0852   0.0950   0.2489
     0.2689   0.5850   0.5915   0.8900   0.9707   1.1761   1.3199   1.4849
     1.5093   1.7065   1.7412   1.9464   1.9816   2.1569   2.2932   2.3117
     2.7212   2.8265   2.8318   3.1235   3.1576   3.3526

          k = 0.0458 0.0419 0.0000 ( 31073 PWs)   bands (ev):

   -60.2230 -60.1459 -60.0420 -60.0257 -59.9666 -59.9504 -34.5499 -34.5372
   -34.4540 -34.2899 -34.2616 -34.2499 -34.2160 -34.1310 -34.1145 -34.1038
   -34.0587 -34.0419 -34.0313 -33.9072 -33.7714 -33.7092 -33.6263 -33.6192
    -4.5897  -3.7749  -3.6244  -3.6092  -3.5299  -3.5109  -3.3950  -3.3744
    -3.2591  -3.2481  -3.1830  -3.1470  -2.9079  -2.7554  -2.5977  -2.3524
    -2.2799  -2.1522  -2.1284  -1.9910  -1.7967  -1.7096  -1.5831  -1.4997
    -1.4867  -1.4525  -1.2090  -1.1564  -1.1513  -0.8576  -0.6912  -0.6887
    -0.6407  -0.4433  -0.3750  -0.3277  -0.2586  -0.0545  -0.0356   0.1046
     0.1863   0.4329   0.5509   0.7481   0.8653   1.1226   1.1344   1.1556
     1.2233   1.5040   1.5880   1.8628   1.9456   1.9577   2.0811   2.4290
     2.6763   2.7475   2.7903   3.0783   3.1281   3.3166

          k = 0.0458 0.0587 0.0000 ( 31084 PWs)   bands (ev):

   -60.2229 -60.1459 -60.0420 -60.0257 -59.9666 -59.9503 -34.5506 -34.5382
   -34.4543 -34.2921 -34.2618 -34.2507 -34.2155 -34.1304 -34.1150 -34.1047
   -34.0584 -34.0432 -34.0317 -33.9072 -33.7715 -33.7093 -33.6263 -33.6192
    -4.3252  -3.6111  -3.5260  -3.5141  -3.3751  -3.3425  -3.3164  -3.2533
    -3.1058  -3.0873  -3.0439  -2.9895  -2.7293  -2.6817  -2.5519  -2.2909
    -2.2659  -2.1766  -2.1222  -2.0550  -1.7747  -1.7657  -1.6179  -1.5006
    -1.4671  -1.4540  -1.2635  -1.2327  -1.1689  -0.9332  -0.8841  -0.8434
    -0.7014  -0.5693  -0.5052  -0.4024  -0.3856  -0.2132  -0.1788  -0.0785
     0.1666   0.1878   0.4318   0.5066   0.7185   0.7328   0.9648   0.9773
     1.2017   1.2430   1.5371   1.7838   1.8221   1.9305   2.0601   2.4801
     2.6451   2.7422   2.7508   3.0118   3.1025   3.2391

          k = 0.0458 0.0754 0.0000 ( 31080 PWs)   bands (ev):

   -60.2228 -60.1459 -60.0419 -60.0256 -59.9666 -59.9503 -34.5512 -34.5391
   -34.4545 -34.2940 -34.2620 -34.2514 -34.2150 -34.1299 -34.1152 -34.1054
   -34.0582 -34.0444 -34.0320 -33.9072 -33.7716 -33.7093 -33.6263 -33.6192
    -4.0177  -3.4469  -3.4314  -3.3892  -3.2591  -3.2176  -3.1729  -3.1298
    -2.9911  -2.9329  -2.8656  -2.8112  -2.6448  -2.6321  -2.5084  -2.3115
    -2.2679  -2.2154  -2.0839  -1.9634  -1.8647  -1.8142  -1.6100  -1.5360
    -1.4689  -1.3789  -1.3631  -1.2909  -1.2536  -1.1487  -1.0572  -0.8751
    -0.8137  -0.7895  -0.5534  -0.5377  -0.4807  -0.3210  -0.3032  -0.2443
    -0.1177   0.0197   0.2530   0.4735   0.5487   0.6404   0.8282   0.8363
     1.0733   1.2737   1.5575   1.6949   1.7418   1.8485   2.1542   2.4441
     2.5985   2.7226   2.7926   2.9712   2.9911   3.1062

          k = 0.0458 0.0922 0.0000 ( 31076 PWs)   bands (ev):

   -60.2227 -60.1459 -60.0419 -60.0256 -59.9665 -59.9503 -34.5516 -34.5397
   -34.4547 -34.2951 -34.2621 -34.2518 -34.2147 -34.1297 -34.1154 -34.1058
   -34.0580 -34.0450 -34.0322 -33.9072 -33.7717 -33.7093 -33.6263 -33.6193
    -3.7413  -3.4533  -3.3596  -3.2280  -3.2136  -3.0965  -3.0687  -2.9973
    -2.9285  -2.8932  -2.7425  -2.7416  -2.6412  -2.6344  -2.4558  -2.3202
    -2.2769  -2.2608  -2.1186  -1.9390  -1.7406  -1.7292  -1.5954  -1.5737
    -1.5128  -1.4679  -1.4062  -1.3513  -1.3366  -1.2868  -1.1339  -0.9839
    -0.8804  -0.8103  -0.6703  -0.5974  -0.5441  -0.5416  -0.3284  -0.3269
    -0.2620  -0.1602   0.3135   0.4394   0.4578   0.6313   0.7227   0.7841
     1.0267   1.3123   1.5747   1.6596   1.7245   1.8164   2.2069   2.3816
     2.5991   2.7117   2.7998   2.8086   2.9668   3.0063

          k = 0.0458 0.1090 0.0000 ( 31076 PWs)   bands (ev):

   -60.2227 -60.1459 -60.0419 -60.0256 -59.9665 -59.9503 -34.5516 -34.5397
   -34.4547 -34.2951 -34.2621 -34.2518 -34.2147 -34.1297 -34.1154 -34.1058
   -34.0580 -34.0450 -34.0322 -33.9072 -33.7717 -33.7093 -33.6263 -33.6193
    -3.7413  -3.4533  -3.3596  -3.2280  -3.2136  -3.0965  -3.0687  -2.9973
    -2.9285  -2.8932  -2.7425  -2.7416  -2.6412  -2.6344  -2.4558  -2.3202
    -2.2769  -2.2608  -2.1186  -1.9390  -1.7406  -1.7292  -1.5955  -1.5737
    -1.5127  -1.4679  -1.4062  -1.3513  -1.3366  -1.2869  -1.1339  -0.9839
    -0.8804  -0.8103  -0.6703  -0.5974  -0.5441  -0.5416  -0.3284  -0.3269
    -0.2620  -0.1603   0.3135   0.4394   0.4578   0.6313   0.7227   0.7841
     1.0267   1.3123   1.5747   1.6596   1.7245   1.8164   2.2069   2.3816
     2.5991   2.7117   2.7998   2.8086   2.9668   3.0063

          k = 0.0458-0.0754 0.0000 ( 31080 PWs)   bands (ev):

   -60.2228 -60.1459 -60.0419 -60.0256 -59.9666 -59.9503 -34.5512 -34.5391
   -34.4545 -34.2940 -34.2620 -34.2514 -34.2150 -34.1299 -34.1152 -34.1054
   -34.0582 -34.0444 -34.0320 -33.9072 -33.7716 -33.7093 -33.6263 -33.6192
    -4.0177  -3.4469  -3.4314  -3.3892  -3.2591  -3.2176  -3.1729  -3.1298
    -2.9911  -2.9329  -2.8656  -2.8112  -2.6448  -2.6321  -2.5084  -2.3115
    -2.2679  -2.2155  -2.0839  -1.9634  -1.8648  -1.8142  -1.6100  -1.5360
    -1.4689  -1.3789  -1.3631  -1.2908  -1.2536  -1.1487  -1.0572  -0.8751
    -0.8137  -0.7896  -0.5533  -0.5377  -0.4807  -0.3210  -0.3032  -0.2443
    -0.1177   0.0197   0.2530   0.4735   0.5487   0.6404   0.8282   0.8363
     1.0733   1.2737   1.5575   1.6949   1.7418   1.8485   2.1542   2.4441
     2.5985   2.7226   2.7926   2.9711   2.9911   3.1062

          k = 0.0458-0.0587 0.0000 ( 31084 PWs)   bands (ev):

   -60.2229 -60.1459 -60.0420 -60.0257 -59.9666 -59.9503 -34.5506 -34.5382
   -34.4543 -34.2921 -34.2618 -34.2507 -34.2155 -34.1304 -34.1150 -34.1047
   -34.0584 -34.0432 -34.0317 -33.9072 -33.7715 -33.7093 -33.6263 -33.6192
    -4.3252  -3.6111  -3.5260  -3.5141  -3.3751  -3.3425  -3.3164  -3.2533
    -3.1058  -3.0873  -3.0439  -2.9895  -2.7293  -2.6817  -2.5520  -2.2909
    -2.2658  -2.1766  -2.1222  -2.0550  -1.7747  -1.7658  -1.6179  -1.5005
    -1.4671  -1.4540  -1.2635  -1.2327  -1.1689  -0.9332  -0.8841  -0.8435
    -0.7014  -0.5693  -0.5052  -0.4024  -0.3856  -0.2132  -0.1789  -0.0785
     0.1667   0.1878   0.4318   0.5066   0.7185   0.7328   0.9648   0.9773
     1.2017   1.2430   1.5371   1.7838   1.8221   1.9305   2.0601   2.4801
     2.6451   2.7422   2.7508   3.0118   3.1025   3.2391

          k = 0.0458-0.0419 0.0000 ( 31073 PWs)   bands (ev):

   -60.2230 -60.1459 -60.0420 -60.0257 -59.9666 -59.9504 -34.5499 -34.5372
   -34.4540 -34.2899 -34.2616 -34.2499 -34.2160 -34.1310 -34.1145 -34.1038
   -34.0587 -34.0419 -34.0313 -33.9072 -33.7714 -33.7092 -33.6263 -33.6192
    -4.5897  -3.7749  -3.6244  -3.6092  -3.5299  -3.5109  -3.3950  -3.3744
    -3.2591  -3.2480  -3.1830  -3.1470  -2.9079  -2.7554  -2.5977  -2.3524
    -2.2799  -2.1522  -2.1284  -1.9910  -1.7967  -1.7096  -1.5831  -1.4997
    -1.4867  -1.4525  -1.2090  -1.1564  -1.1513  -0.8576  -0.6912  -0.6887
    -0.6407  -0.4433  -0.3750  -0.3277  -0.2585  -0.0545  -0.0356   0.1046
     0.1863   0.4330   0.5509   0.7481   0.8653   1.1226   1.1343   1.1556
     1.2233   1.5040   1.5880   1.8628   1.9456   1.9577   2.0811   2.4290
     2.6764   2.7475   2.7903   3.0783   3.1281   3.3166

          k = 0.0458-0.0251 0.0000 ( 31091 PWs)   bands (ev):

   -60.2230 -60.1460 -60.0420 -60.0258 -59.9666 -59.9505 -34.5493 -34.5363
   -34.4537 -34.2880 -34.2614 -34.2492 -34.2165 -34.1316 -34.1142 -34.1030
   -34.0589 -34.0408 -34.0310 -33.9072 -33.7713 -33.7091 -33.6263 -33.6192
    -4.7788  -3.8707  -3.7073  -3.7031  -3.6540  -3.6362  -3.4643  -3.4625
    -3.4007  -3.3725  -3.2813  -3.2360  -3.0212  -2.8163  -2.7584  -2.3476
    -2.2715  -2.1579  -2.0990  -1.9074  -1.8857  -1.6926  -1.6006  -1.5270
    -1.4203  -1.4047  -1.2009  -1.1568  -1.1113  -0.8536  -0.6979  -0.5104
    -0.4758  -0.4123  -0.3458  -0.2740  -0.0331   0.0852   0.0949   0.2489
     0.2689   0.5850   0.5916   0.8900   0.9707   1.1761   1.3198   1.4849
     1.5093   1.7065   1.7412   1.9464   1.9815   2.1569   2.2932   2.3117
     2.7212   2.8265   2.8318   3.1235   3.1576   3.3526

          k = 0.0458-0.0084 0.0000 ( 31100 PWs)   bands (ev):

   -60.2231 -60.1460 -60.0420 -60.0258 -59.9667 -59.9506 -34.5489 -34.5358
   -34.4536 -34.2869 -34.2613 -34.2489 -34.2167 -34.1320 -34.1139 -34.1025
   -34.0590 -34.0401 -34.0308 -33.9072 -33.7712 -33.7091 -33.6263 -33.6192
    -4.8767  -3.8953  -3.8099  -3.7452  -3.7214  -3.6779  -3.5182  -3.5074
    -3.4647  -3.4274  -3.3624  -3.2618  -3.0675  -2.8707  -2.8490  -2.3343
    -2.2742  -2.1570  -2.0626  -1.9670  -1.8610  -1.6871  -1.6101  -1.5506
    -1.4017  -1.3355  -1.2033  -1.1703  -1.1012  -0.8500  -0.7147  -0.4223
    -0.4031  -0.3759  -0.3425  -0.2607   0.1162   0.1630   0.2192   0.2872
     0.3691   0.5857   0.6269   0.9657   1.0626   1.2168   1.3788   1.5732
     1.6641   1.6922   1.9126   2.0302   2.1768   2.2729   2.3858   2.4509
     2.8540   2.8624   3.0324   3.1297   3.2494   3.3429

          k = 0.0458 0.0084 0.0000 ( 31100 PWs)   bands (ev):

   -60.2231 -60.1460 -60.0420 -60.0258 -59.9667 -59.9506 -34.5489 -34.5358
   -34.4536 -34.2869 -34.2613 -34.2489 -34.2167 -34.1320 -34.1139 -34.1025
   -34.0590 -34.0401 -34.0308 -33.9072 -33.7712 -33.7091 -33.6263 -33.6192
    -4.8767  -3.8953  -3.8099  -3.7452  -3.7214  -3.6779  -3.5182  -3.5074
    -3.4647  -3.4274  -3.3624  -3.2618  -3.0675  -2.8707  -2.8490  -2.3343
    -2.2742  -2.1570  -2.0626  -1.9670  -1.8611  -1.6871  -1.6101  -1.5506
    -1.4017  -1.3355  -1.2033  -1.1703  -1.1012  -0.8500  -0.7147  -0.4223
    -0.4031  -0.3759  -0.3425  -0.2607   0.1162   0.1630   0.2192   0.2872
     0.3691   0.5857   0.6269   0.9657   1.0626   1.2168   1.3788   1.5732
     1.6641   1.6922   1.9126   2.0302   2.1768   2.2729   2.3858   2.4508
     2.8541   2.8624   3.0325   3.1298   3.2495   3.3443

          k = 0.0611 0.0335 0.0000 ( 31094 PWs)   bands (ev):

   -60.2118 -60.1573 -60.0310 -60.0148 -59.9778 -59.9616 -34.5248 -34.4667
   -34.4581 -34.2782 -34.2276 -34.1713 -34.1600 -34.1207 -34.1041 -34.0933
   -34.0693 -34.0521 -34.0420 -34.0040 -33.7626 -33.7220 -33.7183 -33.7146
    -4.4381  -3.7514  -3.5241  -3.4959  -3.4493  -3.4204  -3.3403  -3.2736
    -3.2169  -3.1352  -3.1133  -3.0489  -2.8465  -2.5803  -2.5516  -2.3021
    -2.2993  -2.1449  -2.0832  -2.0578  -1.8555  -1.8184  -1.5493  -1.4998
    -1.4864  -1.4336  -1.3094  -1.2926  -1.2316  -0.9868  -0.9669  -0.6171
    -0.5640  -0.4607  -0.4042  -0.3820  -0.2602  -0.0742  -0.0275   0.1094
     0.3464   0.4377   0.5206   0.8008   0.9571   1.0620   1.1490   1.2032
     1.2577   1.4616   1.5934   1.6272   1.8015   1.9977   2.0170   2.1284
     2.3488   2.5291   2.8654   2.8959   3.0006   3.0344

          k = 0.0611 0.0503 0.0000 ( 31122 PWs)   bands (ev):

   -60.2118 -60.1573 -60.0311 -60.0148 -59.9778 -59.9616 -34.5256 -34.4668
   -34.4586 -34.2801 -34.2269 -34.1715 -34.1607 -34.1202 -34.1043 -34.0940
   -34.0691 -34.0532 -34.0422 -34.0039 -33.7627 -33.7220 -33.7184 -33.7145
    -4.2348  -3.6714  -3.4526  -3.4008  -3.3487  -3.3218  -3.2263  -3.2169
    -3.0700  -3.0422  -2.9886  -2.9544  -2.7276  -2.5317  -2.5047  -2.3161
    -2.2227  -2.1984  -2.1182  -2.0853  -1.8503  -1.8136  -1.5575  -1.5436
    -1.5044  -1.4024  -1.3424  -1.2998  -1.2750  -1.1265  -0.9760  -0.6814
    -0.6148  -0.5938  -0.5133  -0.4466  -0.3881  -0.2820  -0.1393   0.0617
     0.2337   0.2684   0.5635   0.5757   0.7932   0.8724   1.0310   1.1123
     1.1719   1.3047   1.5042   1.7041   1.7745   1.8762   1.8961   2.1716
     2.3274   2.4586   2.8115   2.9143   2.9954   2.9996

          k = 0.0611 0.0670 0.0000 ( 31068 PWs)   bands (ev):

   -60.2116 -60.1572 -60.0310 -60.0147 -59.9777 -59.9614 -34.5264 -34.4669
   -34.4592 -34.2819 -34.2261 -34.1716 -34.1613 -34.1198 -34.1044 -34.0946
   -34.0690 -34.0542 -34.0423 -34.0037 -33.7628 -33.7220 -33.7184 -33.7144
    -3.9724  -3.5434  -3.3559  -3.2969  -3.2270  -3.2115  -3.1651  -3.0998
    -2.9770  -2.9257  -2.8455  -2.8282  -2.5647  -2.5255  -2.5060  -2.3462
    -2.2683  -2.1688  -2.1677  -2.0042  -1.8917  -1.8447  -1.6138  -1.5794
    -1.5089  -1.4258  -1.3727  -1.3344  -1.3204  -1.2435  -1.0085  -0.8434
    -0.7955  -0.6728  -0.6606  -0.5691  -0.5038  -0.3004  -0.2179  -0.0583
    -0.0143   0.1509   0.3633   0.6145   0.6159   0.8048   0.9656   1.0251
     1.1144   1.2605   1.5507   1.7189   1.7755   1.8293   1.8939   2.2431
     2.3115   2.4126   2.7394   2.9318   2.9460   2.9737

          k = 0.0611 0.0838 0.0000 ( 31062 PWs)   bands (ev):

   -60.2116 -60.1572 -60.0310 -60.0147 -59.9776 -59.9614 -34.5270 -34.4670
   -34.4596 -34.2833 -34.2255 -34.1717 -34.1618 -34.1195 -34.1045 -34.0951
   -34.0689 -34.0550 -34.0425 -34.0037 -33.7628 -33.7220 -33.7184 -33.7143
    -3.6859  -3.4135  -3.2656  -3.2576  -3.1137  -3.0864  -3.0851  -3.0093
    -2.9097  -2.8683  -2.7933  -2.7328  -2.5864  -2.5666  -2.3831  -2.3333
    -2.2709  -2.2234  -2.1357  -1.9956  -1.8638  -1.8455  -1.6774  -1.6331
    -1.5922  -1.4948  -1.4923  -1.3649  -1.3232  -1.2041  -1.0466  -1.0034
    -0.9644  -0.8644  -0.6993  -0.6055  -0.6028  -0.3246  -0.2984  -0.2129
    -0.1139  -0.0698   0.5034   0.5179   0.5896   0.7861   0.8225   1.0517
     1.1013   1.2764   1.5953   1.7208   1.7613   1.8605   2.0584   2.2481
     2.3005   2.4065   2.6522   2.8249   2.9463   2.9503

          k = 0.0611 0.1006 0.0000 ( 31096 PWs)   bands (ev):

   -60.2116 -60.1572 -60.0310 -60.0147 -59.9777 -59.9614 -34.5272 -34.4670
   -34.4598 -34.2838 -34.2253 -34.1718 -34.1620 -34.1194 -34.1045 -34.0953
   -34.0689 -34.0553 -34.0425 -34.0037 -33.7628 -33.7220 -33.7184 -33.7143
    -3.4924  -3.3565  -3.3321  -3.2108  -3.0546  -3.0530  -3.0069  -2.9275
    -2.9144  -2.8746  -2.8045  -2.6924  -2.6398  -2.6203  -2.4032  -2.2744
    -2.2454  -2.1896  -2.0583  -2.0174  -1.8277  -1.8228  -1.7794  -1.6698
    -1.6504  -1.5660  -1.5182  -1.3687  -1.3209  -1.1351  -1.0796  -1.0608
    -1.0580  -0.9417  -0.7114  -0.6409  -0.6093  -0.3885  -0.3330  -0.2471
    -0.1939  -0.0565   0.4861   0.5346   0.6096   0.7626   0.7841   1.0391
     1.1438   1.2549   1.6154   1.7043   1.7998   1.8970   2.1985   2.2205
     2.3139   2.4079   2.6116   2.6858   2.9356   2.9586

          k = 0.0611 0.1173 0.0000 ( 31062 PWs)   bands (ev):

   -60.2116 -60.1572 -60.0310 -60.0147 -59.9776 -59.9614 -34.5270 -34.4670
   -34.4596 -34.2833 -34.2255 -34.1717 -34.1618 -34.1195 -34.1045 -34.0951
   -34.0689 -34.0550 -34.0425 -34.0037 -33.7628 -33.7220 -33.7184 -33.7143
    -3.6859  -3.4135  -3.2656  -3.2576  -3.1137  -3.0864  -3.0851  -3.0093
    -2.9097  -2.8683  -2.7933  -2.7328  -2.5864  -2.5666  -2.3831  -2.3333
    -2.2709  -2.2234  -2.1357  -1.9956  -1.8637  -1.8455  -1.6774  -1.6331
    -1.5922  -1.4948  -1.4923  -1.3649  -1.3232  -1.2041  -1.0466  -1.0034
    -0.9644  -0.8644  -0.6993  -0.6055  -0.6028  -0.3246  -0.2984  -0.2129
    -0.1139  -0.0698   0.5034   0.5179   0.5896   0.7861   0.8225   1.0516
     1.1013   1.2764   1.5953   1.7208   1.7613   1.8605   2.0584   2.2481
     2.3005   2.4065   2.6522   2.8249   2.9463   2.9505

          k = 0.0611-0.0670 0.0000 ( 31068 PWs)   bands (ev):

   -60.2116 -60.1572 -60.0310 -60.0147 -59.9777 -59.9614 -34.5264 -34.4669
   -34.4592 -34.2819 -34.2261 -34.1716 -34.1613 -34.1198 -34.1044 -34.0946
   -34.0690 -34.0542 -34.0423 -34.0037 -33.7628 -33.7220 -33.7184 -33.7144
    -3.9724  -3.5434  -3.3559  -3.2969  -3.2270  -3.2115  -3.1651  -3.0998
    -2.9770  -2.9257  -2.8455  -2.8282  -2.5647  -2.5255  -2.5060  -2.3462
    -2.2683  -2.1688  -2.1677  -2.0042  -1.8917  -1.8447  -1.6138  -1.5795
    -1.5088  -1.4258  -1.3727  -1.3344  -1.3203  -1.2435  -1.0085  -0.8434
    -0.7955  -0.6728  -0.6606  -0.5691  -0.5038  -0.3004  -0.2179  -0.0583
    -0.0143   0.1509   0.3633   0.6145   0.6159   0.8048   0.9656   1.0251
     1.1144   1.2605   1.5507   1.7189   1.7755   1.8293   1.8939   2.2431
     2.3115   2.4126   2.7394   2.9318   2.9460   2.9737

          k = 0.0611-0.0503 0.0000 ( 31122 PWs)   bands (ev):

   -60.2118 -60.1573 -60.0311 -60.0148 -59.9778 -59.9616 -34.5256 -34.4668
   -34.4586 -34.2801 -34.2269 -34.1715 -34.1607 -34.1202 -34.1043 -34.0940
   -34.0691 -34.0532 -34.0422 -34.0039 -33.7627 -33.7220 -33.7184 -33.7145
    -4.2348  -3.6714  -3.4526  -3.4008  -3.3487  -3.3218  -3.2263  -3.2169
    -3.0700  -3.0422  -2.9886  -2.9544  -2.7276  -2.5317  -2.5047  -2.3161
    -2.2227  -2.1984  -2.1182  -2.0854  -1.8503  -1.8136  -1.5575  -1.5436
    -1.5044  -1.4023  -1.3424  -1.2998  -1.2750  -1.1265  -0.9760  -0.6813
    -0.6148  -0.5938  -0.5133  -0.4466  -0.3880  -0.2820  -0.1393   0.0617
     0.2337   0.2684   0.5635   0.5757   0.7932   0.8724   1.0310   1.1123
     1.1718   1.3047   1.5041   1.7041   1.7745   1.8763   1.8961   2.1716
     2.3274   2.4585   2.8115   2.9141   2.9955   2.9994

          k = 0.0611-0.0335 0.0000 ( 31094 PWs)   bands (ev):

   -60.2118 -60.1573 -60.0310 -60.0148 -59.9778 -59.9616 -34.5248 -34.4667
   -34.4581 -34.2782 -34.2276 -34.1713 -34.1600 -34.1207 -34.1041 -34.0933
   -34.0693 -34.0521 -34.0420 -34.0040 -33.7626 -33.7220 -33.7183 -33.7146
    -4.4381  -3.7514  -3.5241  -3.4959  -3.4493  -3.4204  -3.3403  -3.2736
    -3.2169  -3.1352  -3.1133  -3.0489  -2.8466  -2.5803  -2.5517  -2.3021
    -2.2993  -2.1449  -2.0832  -2.0578  -1.8555  -1.8184  -1.5493  -1.4998
    -1.4864  -1.4336  -1.3093  -1.2926  -1.2316  -0.9868  -0.9669  -0.6171
    -0.5640  -0.4607  -0.4042  -0.3820  -0.2602  -0.0742  -0.0274   0.1094
     0.3464   0.4377   0.5206   0.8008   0.9571   1.0620   1.1490   1.2032
     1.2577   1.4616   1.5934   1.6272   1.8015   1.9977   2.0171   2.1284
     2.3488   2.5291   2.8654   2.8959   3.0006   3.0344

          k = 0.0611-0.0168 0.0000 ( 31089 PWs)   bands (ev):

   -60.2118 -60.1573 -60.0310 -60.0148 -59.9778 -59.9616 -34.5242 -34.4666
   -34.4577 -34.2768 -34.2282 -34.1711 -34.1595 -34.1212 -34.1040 -34.0927
   -34.0693 -34.0514 -34.0418 -34.0040 -33.7626 -33.7220 -33.7183 -33.7147
    -4.5655  -3.7681  -3.5998  -3.5578  -3.5201  -3.4831  -3.4162  -3.3084
    -3.3012  -3.2267  -3.2165  -3.0814  -2.8952  -2.6794  -2.6175  -2.3095
    -2.2967  -2.0715  -2.0477  -2.0343  -1.9297  -1.8338  -1.5797  -1.4753
    -1.4707  -1.3723  -1.3245  -1.2978  -1.2207  -0.9679  -0.9006  -0.6143
    -0.5457  -0.4502  -0.3235  -0.2695  -0.1700   0.0779   0.1305   0.1739
     0.3621   0.5359   0.5914   0.9265   0.9386   1.0779   1.2381   1.2400
     1.5331   1.5458   1.6342   1.7754   1.8677   2.1264   2.1277   2.2176
     2.5658   2.6217   2.8843   2.8964   2.9605   3.1090

          k = 0.0611 0.0000 0.0000 ( 31116 PWs)   bands (ev):

   -60.2119 -60.1574 -60.0310 -60.0148 -59.9778 -59.9617 -34.5239 -34.4665
   -34.4575 -34.2763 -34.2284 -34.1711 -34.1594 -34.1213 -34.1039 -34.0926
   -34.0694 -34.0511 -34.0418 -34.0041 -33.7625 -33.7220 -33.7183 -33.7147
    -4.6088  -3.7436  -3.6717  -3.5791  -3.5304  -3.5041  -3.4367  -3.3279
    -3.3230  -3.2600  -3.2587  -3.0905  -2.8972  -2.7461  -2.6311  -2.3144
    -2.2856  -2.0415  -2.0301  -2.0042  -1.9860  -1.8492  -1.5955  -1.4772
    -1.4552  -1.3296  -1.3258  -1.3107  -1.2311  -0.9691  -0.8737  -0.6156
    -0.5418  -0.4568  -0.2978  -0.2140  -0.1348   0.0787   0.2426   0.2758
     0.2859   0.5521   0.6899   0.8625   0.9747   1.1227   1.2136   1.2442
     1.6017   1.6361   1.6562   1.7108   2.0004   2.1928   2.2037   2.2661
     2.6258   2.8247   2.9049   2.9230   3.1541   3.2101

          k = 0.0611 0.0168 0.0000 ( 31089 PWs)   bands (ev):

   -60.2118 -60.1573 -60.0310 -60.0148 -59.9778 -59.9616 -34.5242 -34.4666
   -34.4577 -34.2768 -34.2282 -34.1711 -34.1595 -34.1212 -34.1040 -34.0927
   -34.0693 -34.0514 -34.0418 -34.0040 -33.7626 -33.7220 -33.7183 -33.7147
    -4.5655  -3.7681  -3.5998  -3.5578  -3.5201  -3.4831  -3.4162  -3.3084
    -3.3012  -3.2267  -3.2165  -3.0814  -2.8952  -2.6794  -2.6175  -2.3095
    -2.2967  -2.0715  -2.0477  -2.0343  -1.9297  -1.8338  -1.5797  -1.4753
    -1.4707  -1.3723  -1.3245  -1.2978  -1.2207  -0.9679  -0.9006  -0.6143
    -0.5457  -0.4502  -0.3235  -0.2695  -0.1700   0.0779   0.1306   0.1739
     0.3621   0.5359   0.5914   0.9265   0.9387   1.0779   1.2381   1.2400
     1.5331   1.5458   1.6342   1.7754   1.8677   2.1264   2.1277   2.2176
     2.5658   2.6217   2.8843   2.8964   2.9605   3.1090

          k = 0.0763 0.0419 0.0000 ( 31125 PWs)   bands (ev):

   -60.1987 -60.1705 -60.0183 -60.0020 -59.9907 -59.9745 -34.5111 -34.4809
   -34.3513 -34.2665 -34.2403 -34.1190 -34.1067 -34.0920 -34.0815 -34.0797
   -34.0669 -34.0636 -34.0555 -34.0536 -33.8330 -33.8244 -33.7515 -33.7290
    -4.0859  -3.7000  -3.3914  -3.3502  -3.3095  -3.2683  -3.1280  -3.0372
    -3.0186  -2.9865  -2.9447  -2.8886  -2.6694  -2.4807  -2.4458  -2.3811
    -2.2230  -2.1309  -2.0680  -2.0375  -1.8798  -1.8599  -1.6106  -1.5321
    -1.5033  -1.4502  -1.4162  -1.3654  -1.3408  -1.2069  -1.1035  -0.9281
    -0.7738  -0.7248  -0.5514  -0.4879  -0.3314  -0.1976   0.0041   0.3016
     0.3344   0.4604   0.5978   0.7438   0.8017   0.9728   1.0553   1.1757
     1.2075   1.2878   1.4374   1.4795   1.6494   1.7676   1.7996   1.9265
     1.9968   2.1265   2.5954   2.8243   2.9105   2.9582

          k = 0.0763 0.0587 0.0000 ( 31107 PWs)   bands (ev):

   -60.1986 -60.1705 -60.0182 -60.0020 -59.9907 -59.9744 -34.5117 -34.4808
   -34.3517 -34.2681 -34.2392 -34.1186 -34.1066 -34.0918 -34.0816 -34.0801
   -34.0672 -34.0642 -34.0558 -34.0538 -33.8329 -33.8241 -33.7516 -33.7290
    -3.9055  -3.6883  -3.3192  -3.2982  -3.2510  -3.2156  -3.0385  -3.0180
    -2.9323  -2.9133  -2.8548  -2.8388  -2.5564  -2.5207  -2.4619  -2.4024
    -2.2419  -2.1614  -2.0359  -1.9738  -1.9055  -1.8770  -1.6310  -1.5896
    -1.5209  -1.4629  -1.4607  -1.3646  -1.3274  -1.2127  -1.1053  -1.0534
    -0.8215  -0.8094  -0.6512  -0.5571  -0.3437  -0.3037   0.0203   0.1667
     0.2003   0.2821   0.5077   0.6592   0.7813   1.0091   1.0819   1.0948
     1.1613   1.2700   1.5094   1.6204   1.6410   1.6514   1.7675   1.8747
     1.9532   2.1445   2.6031   2.8026   2.8471   2.9798

          k = 0.0763 0.0754 0.0000 ( 31083 PWs)   bands (ev):

   -60.1986 -60.1704 -60.0183 -60.0020 -59.9906 -59.9743 -34.5122 -34.4806
   -34.3521 -34.2695 -34.2383 -34.1182 -34.1066 -34.0916 -34.0816 -34.0805
   -34.0673 -34.0648 -34.0559 -34.0541 -33.8328 -33.8239 -33.7516 -33.7290
    -3.6846  -3.6530  -3.2475  -3.2116  -3.1789  -3.1525  -3.0029  -2.9837
    -2.9062  -2.8642  -2.8506  -2.7089  -2.6317  -2.4974  -2.3755  -2.3693
    -2.2971  -2.2211  -2.0563  -1.9249  -1.9238  -1.8439  -1.7127  -1.6276
    -1.6046  -1.5294  -1.4546  -1.3472  -1.3053  -1.2346  -1.1859  -1.1481
    -0.9095  -0.8843  -0.7349  -0.7326  -0.3011  -0.2991   0.0004   0.0299
     0.0610   0.2479   0.5703   0.6242   0.7527   0.9257   0.9637   1.1161
     1.2428   1.3455   1.5682   1.6119   1.6824   1.7758   1.8516   1.9168
     1.9392   2.1493   2.6265   2.7254   2.7932   2.9683

          k = 0.0763 0.0922 0.0000 ( 31047 PWs)   bands (ev):

   -60.1986 -60.1704 -60.0182 -60.0019 -59.9905 -59.9743 -34.5125 -34.4806
   -34.3524 -34.2704 -34.2377 -34.1180 -34.1066 -34.0915 -34.0817 -34.0807
   -34.0673 -34.0651 -34.0560 -34.0544 -33.8328 -33.8238 -33.7517 -33.7290
    -3.6228  -3.4599  -3.2578  -3.1428  -3.1053  -3.0871  -3.0125  -2.9820
    -2.9319  -2.8634  -2.7830  -2.7165  -2.6586  -2.5417  -2.3983  -2.3256
    -2.1997  -2.1468  -2.0695  -1.9930  -1.9400  -1.8501  -1.7541  -1.6912
    -1.6510  -1.5956  -1.4594  -1.3174  -1.3140  -1.2670  -1.2051  -1.1913
    -1.0480  -0.9302  -0.7899  -0.7668  -0.3071  -0.2555  -0.0972  -0.0344
     0.0210   0.3365   0.5353   0.6851   0.7985   0.8229   0.9269   1.1019
     1.1802   1.4911   1.5668   1.6679   1.7381   1.7677   1.8897   1.9864
     2.1470   2.2959   2.5878   2.6481   2.6705   2.9502

          k = 0.0763 0.1090 0.0000 ( 31047 PWs)   bands (ev):

   -60.1986 -60.1704 -60.0182 -60.0019 -59.9905 -59.9743 -34.5125 -34.4806
   -34.3524 -34.2704 -34.2377 -34.1180 -34.1066 -34.0915 -34.0817 -34.0807
   -34.0673 -34.0651 -34.0560 -34.0544 -33.8328 -33.8238 -33.7517 -33.7290
    -3.6228  -3.4599  -3.2578  -3.1428  -3.1053  -3.0871  -3.0125  -2.9820
    -2.9319  -2.8634  -2.7830  -2.7165  -2.6586  -2.5417  -2.3983  -2.3256
    -2.1997  -2.1468  -2.0695  -1.9930  -1.9400  -1.8501  -1.7541  -1.6912
    -1.6510  -1.5956  -1.4594  -1.3174  -1.3140  -1.2670  -1.2051  -1.1913
    -1.0480  -0.9302  -0.7899  -0.7667  -0.3071  -0.2555  -0.0972  -0.0344
     0.0210   0.3365   0.5353   0.6851   0.7985   0.8229   0.9269   1.1019
     1.1802   1.4911   1.5668   1.6679   1.7381   1.7678   1.8897   1.9864
     2.1470   2.2959   2.5878   2.6481   2.6705   2.9502

          k = 0.0763 0.1257 0.0000 ( 31083 PWs)   bands (ev):

   -60.1986 -60.1704 -60.0183 -60.0020 -59.9906 -59.9743 -34.5122 -34.4806
   -34.3521 -34.2695 -34.2383 -34.1182 -34.1066 -34.0916 -34.0816 -34.0805
   -34.0673 -34.0648 -34.0559 -34.0541 -33.8328 -33.8239 -33.7516 -33.7290
    -3.6846  -3.6530  -3.2475  -3.2116  -3.1789  -3.1525  -3.0029  -2.9837
    -2.9062  -2.8642  -2.8506  -2.7089  -2.6317  -2.4974  -2.3755  -2.3693
    -2.2971  -2.2211  -2.0563  -1.9249  -1.9238  -1.8439  -1.7127  -1.6276
    -1.6046  -1.5294  -1.4546  -1.3472  -1.3053  -1.2346  -1.1859  -1.1481
    -0.9095  -0.8843  -0.7349  -0.7326  -0.3012  -0.2991   0.0004   0.0299
     0.0610   0.2480   0.5703   0.6241   0.7527   0.9257   0.9637   1.1161
     1.2428   1.3455   1.5682   1.6119   1.6825   1.7758   1.8516   1.9168
     1.9392   2.1493   2.6265   2.7254   2.7932   2.9683

          k = 0.0763-0.0587 0.0000 ( 31107 PWs)   bands (ev):

   -60.1986 -60.1705 -60.0182 -60.0020 -59.9907 -59.9744 -34.5117 -34.4808
   -34.3517 -34.2681 -34.2392 -34.1186 -34.1066 -34.0918 -34.0816 -34.0801
   -34.0672 -34.0642 -34.0558 -34.0538 -33.8329 -33.8241 -33.7516 -33.7290
    -3.9055  -3.6883  -3.3192  -3.2982  -3.2510  -3.2156  -3.0385  -3.0180
    -2.9323  -2.9133  -2.8548  -2.8388  -2.5564  -2.5207  -2.4619  -2.4024
    -2.2419  -2.1614  -2.0359  -1.9738  -1.9055  -1.8770  -1.6310  -1.5896
    -1.5209  -1.4629  -1.4607  -1.3646  -1.3274  -1.2126  -1.1054  -1.0534
    -0.8215  -0.8094  -0.6512  -0.5571  -0.3437  -0.3037   0.0203   0.1667
     0.2003   0.2821   0.5076   0.6592   0.7813   1.0091   1.0819   1.0948
     1.1613   1.2700   1.5094   1.6204   1.6410   1.6514   1.7675   1.8746
     1.9532   2.1445   2.6031   2.8026   2.8470   2.9797

          k = 0.0763-0.0419 0.0000 ( 31125 PWs)   bands (ev):

   -60.1987 -60.1705 -60.0183 -60.0020 -59.9907 -59.9745 -34.5111 -34.4809
   -34.3513 -34.2665 -34.2403 -34.1190 -34.1067 -34.0920 -34.0815 -34.0797
   -34.0669 -34.0636 -34.0555 -34.0536 -33.8330 -33.8244 -33.7515 -33.7290
    -4.0859  -3.7000  -3.3914  -3.3502  -3.3095  -3.2683  -3.1280  -3.0372
    -3.0186  -2.9865  -2.9447  -2.8886  -2.6694  -2.4807  -2.4458  -2.3811
    -2.2230  -2.1309  -2.0680  -2.0375  -1.8798  -1.8599  -1.6106  -1.5321
    -1.5033  -1.4501  -1.4162  -1.3654  -1.3408  -1.2069  -1.1035  -0.9281
    -0.7738  -0.7248  -0.5514  -0.4879  -0.3314  -0.1976   0.0041   0.3016
     0.3344   0.4603   0.5978   0.7438   0.8017   0.9728   1.0553   1.1757
     1.2075   1.2878   1.4374   1.4794   1.6494   1.7676   1.7996   1.9265
     1.9968   2.1265   2.5955   2.8244   2.9105   2.9593

          k = 0.0763-0.0251 0.0000 ( 31085 PWs)   bands (ev):

   -60.1987 -60.1705 -60.0182 -60.0020 -59.9907 -59.9745 -34.5106 -34.4810
   -34.3508 -34.2650 -34.2412 -34.1194 -34.1067 -34.0921 -34.0815 -34.0793
   -34.0666 -34.0630 -34.0552 -34.0535 -33.8331 -33.8246 -33.7514 -33.7290
    -4.2114  -3.6702  -3.4173  -3.3918  -3.3568  -3.2919  -3.2407  -3.1454
    -3.0660  -3.0552  -2.9914  -2.9028  -2.7167  -2.5090  -2.4753  -2.3625
    -2.2361  -2.1367  -2.0536  -2.0300  -1.9185  -1.8321  -1.6347  -1.5287
    -1.4739  -1.4525  -1.3698  -1.3689  -1.3370  -1.2173  -1.1188  -0.8480
    -0.7525  -0.6839  -0.5029  -0.4891  -0.3522   0.0670   0.0845   0.4449
     0.4523   0.4691   0.6877   0.8215   0.9229   0.9700   1.0553   1.1013
     1.1895   1.3978   1.4074   1.5284   1.7239   1.8600   1.9624   2.0637
     2.0859   2.1683   2.6051   2.8667   2.8695   2.9514

          k = 0.0763-0.0084 0.0000 ( 31093 PWs)   bands (ev):

   -60.1987 -60.1705 -60.0181 -60.0020 -59.9907 -59.9745 -34.5102 -34.4811
   -34.3506 -34.2642 -34.2417 -34.1197 -34.1068 -34.0921 -34.0815 -34.0791
   -34.0663 -34.0627 -34.0550 -34.0536 -33.8331 -33.8247 -33.7514 -33.7290
    -4.2755  -3.5974  -3.4688  -3.4164  -3.3787  -3.3192  -3.2920  -3.2041
    -3.1260  -3.0730  -3.0220  -2.8981  -2.7018  -2.5632  -2.5427  -2.3589
    -2.2512  -2.0691  -2.0261  -2.0099  -1.9701  -1.8648  -1.6686  -1.5315
    -1.4627  -1.4269  -1.3975  -1.3437  -1.3179  -1.2390  -1.1193  -0.8130
    -0.7547  -0.6936  -0.4847  -0.4636  -0.3445   0.1287   0.3120   0.4731
     0.4849   0.5484   0.7024   0.9074   0.9483   0.9523   1.0230   1.0923
     1.0974   1.4039   1.4302   1.7266   1.7538   1.8836   1.9964   2.1851
     2.2820   2.5001   2.6476   2.7967   2.9156   2.9648

          k = 0.0763 0.0084 0.0000 ( 31093 PWs)   bands (ev):

   -60.1987 -60.1705 -60.0181 -60.0020 -59.9907 -59.9745 -34.5102 -34.4811
   -34.3506 -34.2642 -34.2417 -34.1197 -34.1068 -34.0921 -34.0815 -34.0791
   -34.0663 -34.0627 -34.0550 -34.0536 -33.8331 -33.8247 -33.7514 -33.7290
    -4.2755  -3.5974  -3.4688  -3.4164  -3.3787  -3.3192  -3.2920  -3.2041
    -3.1260  -3.0730  -3.0220  -2.8981  -2.7018  -2.5632  -2.5427  -2.3589
    -2.2512  -2.0691  -2.0262  -2.0099  -1.9701  -1.8648  -1.6686  -1.5315
    -1.4627  -1.4268  -1.3975  -1.3437  -1.3179  -1.2390  -1.1193  -0.8130
    -0.7547  -0.6936  -0.4847  -0.4636  -0.3445   0.1287   0.3120   0.4731
     0.4849   0.5484   0.7024   0.9073   0.9483   0.9524   1.0230   1.0923
     1.0974   1.4039   1.4302   1.7266   1.7538   1.8835   1.9964   2.1851
     2.2820   2.5001   2.6476   2.7967   2.9156   2.9649

          k = 0.0763 0.0251 0.0000 ( 31085 PWs)   bands (ev):

   -60.1987 -60.1705 -60.0182 -60.0020 -59.9907 -59.9745 -34.5106 -34.4810
   -34.3508 -34.2650 -34.2412 -34.1194 -34.1067 -34.0921 -34.0815 -34.0793
   -34.0666 -34.0630 -34.0552 -34.0535 -33.8331 -33.8246 -33.7514 -33.7290
    -4.2114  -3.6702  -3.4174  -3.3918  -3.3568  -3.2919  -3.2407  -3.1454
    -3.0660  -3.0552  -2.9914  -2.9028  -2.7167  -2.5090  -2.4753  -2.3625
    -2.2361  -2.1367  -2.0536  -2.0300  -1.9185  -1.8321  -1.6347  -1.5287
    -1.4738  -1.4525  -1.3698  -1.3689  -1.3370  -1.2173  -1.1188  -0.8480
    -0.7525  -0.6839  -0.5029  -0.4890  -0.3522   0.0670   0.0846   0.4449
     0.4523   0.4691   0.6877   0.8215   0.9229   0.9700   1.0553   1.1013
     1.1895   1.3978   1.4074   1.5283   1.7239   1.8600   1.9624   2.0638
     2.0859   2.1683   2.6051   2.8667   2.8695   2.9514

          k =-0.0916-0.0503 0.0000 ( 31118 PWs)   bands (ev):

   -60.1846 -60.1846 -60.0047 -60.0043 -59.9883 -59.9882 -34.4962 -34.4961
   -34.2537 -34.2536 -34.2348 -34.2348 -34.0948 -34.0945 -34.0789 -34.0787
   -34.0678 -34.0675 -33.9498 -33.9497 -33.9406 -33.9402 -33.7404 -33.7402
    -3.8114  -3.8114  -3.3170  -3.3170  -3.2306  -3.2305  -2.9827  -2.9827
    -2.9363  -2.9363  -2.8143  -2.8143  -2.5288  -2.5288  -2.4633  -2.4632
    -2.2072  -2.2071  -1.9431  -1.9430  -1.8867  -1.8867  -1.6044  -1.6044
    -1.4933  -1.4932  -1.3759  -1.3759  -1.3470  -1.3470  -1.1471  -1.1471
    -0.9212  -0.9212  -0.5405  -0.5404  -0.2772  -0.2772   0.2159   0.2159
     0.2815   0.2816   0.6580   0.6581   1.0359   1.0359   1.1764   1.1765
     1.2797   1.2798   1.4159   1.4160   1.5138   1.5139   1.5794   1.5795
     1.9856   1.9857   2.6441   2.6441   2.9410   2.9411

          k =-0.0916-0.0335 0.0000 ( 31105 PWs)   bands (ev):

   -60.1846 -60.1846 -60.0047 -60.0043 -59.9883 -59.9882 -34.4965 -34.4958
   -34.2549 -34.2523 -34.2351 -34.2345 -34.0948 -34.0944 -34.0792 -34.0784
   -34.0680 -34.0674 -33.9499 -33.9496 -33.9408 -33.9400 -33.7404 -33.7402
    -3.8869  -3.6988  -3.3254  -3.2834  -3.2260  -3.2213  -3.0315  -2.9798
    -2.9458  -2.9220  -2.8999  -2.7451  -2.5609  -2.5116  -2.4654  -2.4209
    -2.2732  -2.1502  -2.0447  -1.9242  -1.8885  -1.8408  -1.6116  -1.6041
    -1.5260  -1.4664  -1.4521  -1.3597  -1.3576  -1.3135  -1.1980  -1.1209
    -0.9685  -0.8965  -0.5875  -0.5771  -0.3362  -0.0901   0.0960   0.2673
     0.2958   0.4047   0.5881   0.7560   0.9730   1.0478   1.1491   1.2107
     1.2271   1.2984   1.3551   1.4362   1.4624   1.6286   1.6635   1.7911
     1.9596   2.0024   2.6486   2.6619   2.8723   2.9696

          k =-0.0916-0.0168 0.0000 ( 31071 PWs)   bands (ev):

   -60.1846 -60.1845 -60.0046 -60.0042 -59.9883 -59.9882 -34.4967 -34.4955
   -34.2558 -34.2513 -34.2355 -34.2342 -34.0950 -34.0943 -34.0795 -34.0780
   -34.0681 -34.0672 -33.9500 -33.9495 -33.9411 -33.9397 -33.7404 -33.7402
    -3.9285  -3.5530  -3.3158  -3.2698  -3.2259  -3.1677  -3.1124  -3.0579
    -2.9871  -2.9439  -2.8331  -2.7164  -2.5519  -2.5300  -2.4746  -2.4440
    -2.2009  -2.1948  -2.0845  -1.9702  -1.8730  -1.8107  -1.6360  -1.6146
    -1.5640  -1.5224  -1.4482  -1.4103  -1.3417  -1.2896  -1.2000  -1.1186
    -1.0314  -0.9144  -0.6483  -0.6159  -0.2988   0.0475   0.0732   0.2791
     0.3176   0.5712   0.5731   0.8469   0.8895   1.0400   1.1350   1.1522
     1.1769   1.2615   1.3207   1.4161   1.6604   1.7150   1.8005   1.9903
     2.0394   2.2138   2.6290   2.6990   2.7342   2.9669

          k =-0.0916-0.0000 0.0000 ( 31064 PWs)   bands (ev):

   -60.1846 -60.1845 -60.0046 -60.0042 -59.9883 -59.9881 -34.4969 -34.4954
   -34.2562 -34.2509 -34.2356 -34.2342 -34.0950 -34.0943 -34.0796 -34.0779
   -34.0682 -34.0671 -33.9500 -33.9495 -33.9412 -33.9396 -33.7404 -33.7402
    -3.9415  -3.4036  -3.3848  -3.2701  -3.2434  -3.1415  -3.1250  -3.0971
    -3.0083  -2.9616  -2.7704  -2.7139  -2.5864  -2.5346  -2.4951  -2.4243
    -2.2568  -2.1208  -2.0687  -2.0013  -1.8844  -1.8140  -1.6716  -1.6145
    -1.5904  -1.4874  -1.4848  -1.4417  -1.3305  -1.2769  -1.1764  -1.1164
    -1.0705  -0.9442  -0.6619  -0.6221  -0.2823   0.0364   0.1330   0.2894
     0.3254   0.5843   0.6731   0.8402   0.8493   1.0659   1.1190   1.1298
     1.1699   1.1995   1.3166   1.4116   1.7305   1.7522   1.8787   1.9802
     2.2202   2.4931   2.5627   2.7008   2.7197   2.9583

          k =-0.0916 0.0168 0.0000 ( 31071 PWs)   bands (ev):

   -60.1846 -60.1845 -60.0046 -60.0042 -59.9883 -59.9882 -34.4967 -34.4955
   -34.2558 -34.2513 -34.2355 -34.2342 -34.0950 -34.0943 -34.0795 -34.0780
   -34.0681 -34.0672 -33.9500 -33.9495 -33.9411 -33.9397 -33.7404 -33.7402
    -3.9285  -3.5530  -3.3158  -3.2698  -3.2259  -3.1677  -3.1124  -3.0579
    -2.9871  -2.9438  -2.8331  -2.7164  -2.5519  -2.5300  -2.4746  -2.4441
    -2.2009  -2.1948  -2.0845  -1.9702  -1.8730  -1.8107  -1.6359  -1.6146
    -1.5640  -1.5224  -1.4482  -1.4103  -1.3417  -1.2896  -1.2000  -1.1186
    -1.0314  -0.9144  -0.6483  -0.6159  -0.2988   0.0476   0.0732   0.2791
     0.3176   0.5712   0.5731   0.8469   0.8895   1.0400   1.1350   1.1521
     1.1769   1.2615   1.3207   1.4161   1.6604   1.7150   1.8005   1.9903
     2.0394   2.2138   2.6290   2.6990   2.7342   2.9671

          k =-0.0916 0.0335 0.0000 ( 31105 PWs)   bands (ev):

   -60.1846 -60.1846 -60.0047 -60.0043 -59.9883 -59.9882 -34.4965 -34.4958
   -34.2549 -34.2523 -34.2352 -34.2345 -34.0948 -34.0944 -34.0792 -34.0784
   -34.0680 -34.0674 -33.9499 -33.9496 -33.9408 -33.9400 -33.7404 -33.7402
    -3.8869  -3.6988  -3.3254  -3.2834  -3.2260  -3.2213  -3.0315  -2.9798
    -2.9458  -2.9220  -2.8999  -2.7451  -2.5609  -2.5116  -2.4654  -2.4209
    -2.2732  -2.1502  -2.0446  -1.9242  -1.8885  -1.8408  -1.6116  -1.6041
    -1.5260  -1.4664  -1.4521  -1.3596  -1.3576  -1.3135  -1.1980  -1.1209
    -0.9685  -0.8965  -0.5874  -0.5771  -0.3362  -0.0901   0.0960   0.2672
     0.2959   0.4047   0.5880   0.7559   0.9730   1.0478   1.1491   1.2107
     1.2271   1.2984   1.3551   1.4362   1.4624   1.6286   1.6635   1.7911
     1.9596   2.0024   2.6486   2.6619   2.8723   2.9697

          k =-0.0916-0.1509 0.0000 ( 31118 PWs)   bands (ev):

   -60.1846 -60.1846 -60.0047 -60.0043 -59.9883 -59.9882 -34.4962 -34.4961
   -34.2537 -34.2536 -34.2348 -34.2348 -34.0948 -34.0945 -34.0789 -34.0787
   -34.0678 -34.0675 -33.9498 -33.9497 -33.9406 -33.9402 -33.7404 -33.7402
    -3.8114  -3.8114  -3.3170  -3.3170  -3.2305  -3.2305  -2.9827  -2.9827
    -2.9363  -2.9363  -2.8144  -2.8144  -2.5288  -2.5288  -2.4633  -2.4632
    -2.2071  -2.2071  -1.9431  -1.9430  -1.8867  -1.8867  -1.6044  -1.6044
    -1.4933  -1.4932  -1.3759  -1.3758  -1.3470  -1.3470  -1.1471  -1.1471
    -0.9212  -0.9212  -0.5405  -0.5404  -0.2772  -0.2772   0.2159   0.2159
     0.2815   0.2816   0.6580   0.6580   1.0358   1.0359   1.1764   1.1765
     1.2797   1.2798   1.4159   1.4160   1.5138   1.5139   1.5794   1.5795
     1.9856   1.9857   2.6441   2.6442   2.9410   2.9411

     the Fermi energy is     1.2613 ev

!    total energy              =   -1251.77595706 Ry
     estimated scf accuracy    <       0.00000484 Ry
     smearing contrib. (-TS)   =      -0.06646017 Ry
     internal energy E=F+TS    =   -1251.70949690 Ry

     The total energy is F=E-TS. E is the sum of the following terms:
     one-electron contribution =  -11339.78259244 Ry
     hartree contribution      =    5705.50030873 Ry
     xc contribution           =    -255.12803120 Ry
     ewald contribution        =    4637.70081792 Ry
     electric field correction =       0.00000009 Ry

     convergence has been achieved in  15 iterations

     negative rho (up, down):  9.742E-04 0.000E+00

     Forces acting on atoms (cartesian axes, Ry/au):

     atom    1 type  1   force =     0.00000082    0.01144922    0.02395873
     atom    2 type  1   force =    -0.00000077    0.01143791    0.02394111
     atom    3 type  2   force =     0.00000020   -0.02096761   -0.00813880
     atom    4 type  2   force =    -0.00000264   -0.02096732   -0.00813775
     atom    5 type  1   force =    -0.00000431   -0.00044250   -0.01116948
     atom    6 type  1   force =    -0.00000451   -0.00046974   -0.01120473
     atom    7 type  2   force =     0.00001522    0.00963531   -0.00828114
     atom    8 type  2   force =    -0.00001226    0.00963524   -0.00828072
     atom    9 type  1   force =    -0.00000681    0.00069951    0.00191488
     atom   10 type  1   force =    -0.00000069    0.00070159    0.00192092
     atom   11 type  2   force =     0.00001623   -0.00035635    0.00173771
     atom   12 type  2   force =    -0.00000048   -0.00035525    0.00173926

     Total force =     0.054855     Total SCF correction =     0.013194
     SCF correction compared to forces is large: reduce conv_thr to get better values

     Writing output data file ./Mo2Pd2/Mo2Pd2_beef.save/

     init_run     :     45.09s CPU     56.91s WALL (       1 calls)
     electrons    :   1304.51s CPU   1707.05s WALL (       1 calls)
     forces       :     18.53s CPU     26.44s WALL (       1 calls)

     Called by init_run:
     wfcinit      :     35.07s CPU     46.33s WALL (       1 calls)
     potinit      :      7.25s CPU      7.59s WALL (       1 calls)
     hinit0       :      1.87s CPU      1.97s WALL (       1 calls)

     Called by electrons:
     c_bands      :   1148.83s CPU   1488.20s WALL (      15 calls)
     sum_band     :    139.03s CPU    194.26s WALL (      15 calls)
     v_of_rho     :     15.08s CPU     20.13s WALL (      16 calls)
     newd         :      7.86s CPU     10.61s WALL (      16 calls)
     mix_rho      :      0.31s CPU      0.59s WALL (      15 calls)
     vdW_kernel   :      5.69s CPU      5.72s WALL (       1 calls)

     Called by c_bands:
     init_us_2    :      4.06s CPU      4.20s WALL (    2368 calls)
     cegterg      :   1132.00s CPU   1466.75s WALL (    1110 calls)

     Called by *egterg:
     cdiaghg      :    118.47s CPU    135.90s WALL (    5081 calls)
     h_psi        :    580.53s CPU    769.23s WALL (    5155 calls)
     s_psi        :    116.52s CPU    116.64s WALL (    5155 calls)
     g_psi        :      0.83s CPU      0.88s WALL (    3971 calls)

     Called by h_psi:
     h_psi:calbec :    126.38s CPU    187.40s WALL (    5155 calls)
     vloc_psi     :    335.37s CPU    462.61s WALL (    5155 calls)
     add_vuspsi   :    117.58s CPU    117.81s WALL (    5155 calls)

     General routines
     calbec       :    192.13s CPU    283.15s WALL (    6561 calls)
     fft          :      6.10s CPU     14.30s WALL (    1067 calls)
     ffts         :      0.04s CPU      0.10s WALL (      31 calls)
     fftw         :    392.31s CPU    541.84s WALL (  550592 calls)
     interpolate  :      0.11s CPU      0.20s WALL (      16 calls)

     Parallel routines
     fft_scatt_xy :     24.31s CPU     33.49s WALL (  551690 calls)
     fft_scatt_yz :    112.37s CPU    192.12s WALL (  551690 calls)

     PWSCF        :  23m 0.07s CPU  31m 6.58s WALL


   This run was terminated on:  20: 0:34  23Jun2022            

=------------------------------------------------------------------------------=
   JOB DONE.
=------------------------------------------------------------------------------=
