
     Program PWSCF v.6.6 starts on 10Jul2022 at 14:47: 1 

     This program is part of the open-source Quantum ESPRESSO suite
     for quantum simulation of materials; please cite
         "P. Giannozzi et al., J. Phys.:Condens. Matter 21 395502 (2009);
         "P. Giannozzi et al., J. Phys.:Condens. Matter 29 465901 (2017);
          URL http://www.quantum-espresso.org", 
     in publications or presentations arising from this work. More details at
     http://www.quantum-espresso.org/quote

     Parallel version (MPI), running on    37 processors

     MPI processes distributed on     1 nodes
     R & G space division:  proc/nbgrp/npool/nimage =      37
     Fft bands division:     nmany     =       1
     Reading input from Mo2Ru2.in
Warning: card &CELL ignored
Warning: card / ignored

     Current dimensions of program PWSCF are:
     Max number of different atomic species (ntypx) = 10
     Max number of k-points (npk) =  40000
     Max angular momentum in pseudopotentials (lmaxx) =  3
     Presently stress not available with electric field and gates

     Message from routine cell_base_init:
     DEPRECATED: use true lattice parameter, not A to a.u. conversion factor
     file Mo.pbe-spn-rrkjus_psl.1.0.0.UPF: wavefunction(s)  4S renormalized

     **************************************************************************
     Initializing libbeef V0.1.2 with the BEEF-vdW functional.
     Citation: Wellendorff et al., PRB 85, 235149 (2012).
     **************************************************************************


     IMPORTANT: XC functional enforced from input :
     Exchange-correlation= BEEF-VDW
                           (   1   4  43  14   2   0   0)
     Any further DFT definition will be discarded
     Please, verify this is what you really want


     Subspace diagonalization in iterative solution of the eigenvalue problem:
     a serial algorithm will be used

     Found symmetry operation: I + (  0.5000 -0.5000  0.0000)
     This is a supercell, fractional translations are disabled

     Parallelization info
     --------------------
     sticks:   dense  smooth     PW     G-vecs:    dense   smooth      PW
     Min         111      44     12                25795     6516     998
     Max         112      45     13                25818     6541    1015
     Sum        4129    1651    479               954803   241585   37371



     bravais-lattice index     =            0
     lattice parameter (alat)  =       1.8897  a.u.
     unit-cell volume          =    4368.9096 (a.u.)^3
     number of atoms/cell      =           12
     number of atomic types    =            2
     number of electrons       =       180.00
     number of Kohn-Sham states=          108
     kinetic-energy cutoff     =      55.1240  Ry
     charge density cutoff     =     551.2396  Ry
     convergence threshold     =      1.0E-05
     mixing beta               =       0.1000
     number of iterations used =           10  plain     mixing
     Exchange-correlation= BEEF-VDW
                           (   1   4  43  14   2   0   0)

     celldm(1)=   1.889726  celldm(2)=   0.000000  celldm(3)=   0.000000
     celldm(4)=   0.000000  celldm(5)=   0.000000  celldm(6)=   0.000000

     crystal axes: (cart. coord. in units of alat)
               a(1) = (   5.499859   0.000000   0.000000 )  
               a(2) = (   2.679543   4.802968   0.000000 )  
               a(3) = (   0.000000   0.000000  24.508419 )  

     reciprocal axes: (cart. coord. in units 2 pi/alat)
               b(1) = (  0.181823 -0.101438  0.000000 )  
               b(2) = (  0.000000  0.208205  0.000000 )  
               b(3) = (  0.000000  0.000000  0.040802 )  


     PseudoPot. # 1 for Mo read from file:
     ../pseudo/Mo.pbe-spn-rrkjus_psl.1.0.0.UPF
     MD5 check sum: 03f09b12e49601d1a456a78ce8b2d514
     Pseudo is Ultrasoft + core correction, Zval = 14.0
     Generated using "atomic" code by A. Dal Corso v.6.3
     Using radial grid of 1229 points,  6 beta functions with: 
                l(1) =   0
                l(2) =   0
                l(3) =   1
                l(4) =   1
                l(5) =   2
                l(6) =   2
     Q(r) pseudized with 0 coefficients 


     PseudoPot. # 2 for Ru read from file:
     ../pseudo/Ru.pbe-spn-rrkjus_psl.1.0.0.UPF
     MD5 check sum: fbaca725316a1a65f98761fd4ac95971
     Pseudo is Ultrasoft + core correction, Zval = 16.0
     Generated using "atomic" code by A. Dal Corso v.6.2.2
     Using radial grid of 1233 points,  6 beta functions with: 
                l(1) =   0
                l(2) =   0
                l(3) =   1
                l(4) =   1
                l(5) =   2
                l(6) =   2
     Q(r) pseudized with 0 coefficients 


     atomic species   valence    mass     pseudopotential
        Mo            14.00    95.95000     Mo( 1.00)
        Ru            16.00   101.07000     Ru( 1.00)

     No symmetry found



   Cartesian axes

     site n.     atom                  positions (alat units)
         1           Mo  tau(   1) = (   0.0000000   0.0000000  10.0000000  )
         2           Mo  tau(   2) = (   4.0897010   2.4014842  10.0000000  )
         3           Ru  tau(   3) = (   2.7499297   0.0000000  10.0000000  )
         4           Ru  tau(   4) = (   1.3397713   2.4014842  10.0000000  )
         5           Mo  tau(   5) = (   5.4998595   3.2295333  12.2542096  )
         6           Mo  tau(   6) = (   1.4101584   0.8280491  12.2542096  )
         7           Ru  tau(   7) = (   2.7499297   3.2295333  12.2542096  )
         8           Ru  tau(   8) = (   4.1600881   0.8280491  12.2542096  )
         9           Mo  tau(   9) = (   2.8105518   1.6503638  14.3748973  )
        10           Mo  tau(  10) = (   6.9002517   4.0518476  14.3748974  )
        11           Ru  tau(  11) = (   5.5541485   1.6466451  14.4304406  )
        12           Ru  tau(  12) = (   4.1439897   4.0481297  14.4304400  )

     number of k points=    74  Fermi-Dirac smearing, width (Ry)=  0.0100
                       cart. coord. in units 2pi/alat
        k(    1) = (   0.0000000   0.0000000   0.0000000), wk =   0.0138889
        k(    2) = (   0.0000000   0.0173504   0.0000000), wk =   0.0277778
        k(    3) = (   0.0000000   0.0347008   0.0000000), wk =   0.0277778
        k(    4) = (   0.0000000   0.0520511   0.0000000), wk =   0.0277778
        k(    5) = (   0.0000000   0.0694015   0.0000000), wk =   0.0277778
        k(    6) = (   0.0000000   0.0867519   0.0000000), wk =   0.0277778
        k(    7) = (   0.0000000  -0.1041023   0.0000000), wk =   0.0138889
        k(    8) = (   0.0151519  -0.0084531   0.0000000), wk =   0.0277778
        k(    9) = (   0.0151519   0.0088972   0.0000000), wk =   0.0277778
        k(   10) = (   0.0151519   0.0262476   0.0000000), wk =   0.0277778
        k(   11) = (   0.0151519   0.0435980   0.0000000), wk =   0.0277778
        k(   12) = (   0.0151519   0.0609484   0.0000000), wk =   0.0277778
        k(   13) = (   0.0151519   0.0782988   0.0000000), wk =   0.0277778
        k(   14) = (   0.0151519  -0.1125554   0.0000000), wk =   0.0277778
        k(   15) = (   0.0151519  -0.0952051   0.0000000), wk =   0.0277778
        k(   16) = (   0.0151519  -0.0778547   0.0000000), wk =   0.0277778
        k(   17) = (   0.0151519  -0.0605043   0.0000000), wk =   0.0277778
        k(   18) = (   0.0151519  -0.0431539   0.0000000), wk =   0.0277778
        k(   19) = (   0.0151519  -0.0258035   0.0000000), wk =   0.0277778
        k(   20) = (   0.0303038  -0.0169063   0.0000000), wk =   0.0277778
        k(   21) = (   0.0303038   0.0004441   0.0000000), wk =   0.0277778
        k(   22) = (   0.0303038   0.0177945   0.0000000), wk =   0.0277778
        k(   23) = (   0.0303038   0.0351449   0.0000000), wk =   0.0277778
        k(   24) = (   0.0303038   0.0524952   0.0000000), wk =   0.0277778
        k(   25) = (   0.0303038   0.0698456   0.0000000), wk =   0.0277778
        k(   26) = (   0.0303038  -0.1210086   0.0000000), wk =   0.0277778
        k(   27) = (   0.0303038  -0.1036582   0.0000000), wk =   0.0277778
        k(   28) = (   0.0303038  -0.0863078   0.0000000), wk =   0.0277778
        k(   29) = (   0.0303038  -0.0689574   0.0000000), wk =   0.0277778
        k(   30) = (   0.0303038  -0.0516071   0.0000000), wk =   0.0277778
        k(   31) = (   0.0303038  -0.0342567   0.0000000), wk =   0.0277778
        k(   32) = (   0.0454557  -0.0253594   0.0000000), wk =   0.0277778
        k(   33) = (   0.0454557  -0.0080090   0.0000000), wk =   0.0277778
        k(   34) = (   0.0454557   0.0093413   0.0000000), wk =   0.0277778
        k(   35) = (   0.0454557   0.0266917   0.0000000), wk =   0.0277778
        k(   36) = (   0.0454557   0.0440421   0.0000000), wk =   0.0277778
        k(   37) = (   0.0454557   0.0613925   0.0000000), wk =   0.0277778
        k(   38) = (   0.0454557  -0.1294617   0.0000000), wk =   0.0277778
        k(   39) = (   0.0454557  -0.1121113   0.0000000), wk =   0.0277778
        k(   40) = (   0.0454557  -0.0947610   0.0000000), wk =   0.0277778
        k(   41) = (   0.0454557  -0.0774106   0.0000000), wk =   0.0277778
        k(   42) = (   0.0454557  -0.0600602   0.0000000), wk =   0.0277778
        k(   43) = (   0.0454557  -0.0427098   0.0000000), wk =   0.0277778
        k(   44) = (   0.0606076  -0.0338126   0.0000000), wk =   0.0277778
        k(   45) = (   0.0606076  -0.0164622   0.0000000), wk =   0.0277778
        k(   46) = (   0.0606076   0.0008882   0.0000000), wk =   0.0277778
        k(   47) = (   0.0606076   0.0182386   0.0000000), wk =   0.0277778
        k(   48) = (   0.0606076   0.0355890   0.0000000), wk =   0.0277778
        k(   49) = (   0.0606076   0.0529393   0.0000000), wk =   0.0277778
        k(   50) = (   0.0606076  -0.1379149   0.0000000), wk =   0.0277778
        k(   51) = (   0.0606076  -0.1205645   0.0000000), wk =   0.0277778
        k(   52) = (   0.0606076  -0.1032141   0.0000000), wk =   0.0277778
        k(   53) = (   0.0606076  -0.0858637   0.0000000), wk =   0.0277778
        k(   54) = (   0.0606076  -0.0685133   0.0000000), wk =   0.0277778
        k(   55) = (   0.0606076  -0.0511630   0.0000000), wk =   0.0277778
        k(   56) = (   0.0757595  -0.0422657   0.0000000), wk =   0.0277778
        k(   57) = (   0.0757595  -0.0249153   0.0000000), wk =   0.0277778
        k(   58) = (   0.0757595  -0.0075650   0.0000000), wk =   0.0277778
        k(   59) = (   0.0757595   0.0097854   0.0000000), wk =   0.0277778
        k(   60) = (   0.0757595   0.0271358   0.0000000), wk =   0.0277778
        k(   61) = (   0.0757595   0.0444862   0.0000000), wk =   0.0277778
        k(   62) = (   0.0757595  -0.1463680   0.0000000), wk =   0.0277778
        k(   63) = (   0.0757595  -0.1290176   0.0000000), wk =   0.0277778
        k(   64) = (   0.0757595  -0.1116672   0.0000000), wk =   0.0277778
        k(   65) = (   0.0757595  -0.0943169   0.0000000), wk =   0.0277778
        k(   66) = (   0.0757595  -0.0769665   0.0000000), wk =   0.0277778
        k(   67) = (   0.0757595  -0.0596161   0.0000000), wk =   0.0277778
        k(   68) = (  -0.0909114   0.0507189   0.0000000), wk =   0.0138889
        k(   69) = (  -0.0909114   0.0680692   0.0000000), wk =   0.0277778
        k(   70) = (  -0.0909114   0.0854196   0.0000000), wk =   0.0277778
        k(   71) = (  -0.0909114   0.1027700   0.0000000), wk =   0.0277778
        k(   72) = (  -0.0909114   0.1201204   0.0000000), wk =   0.0277778
        k(   73) = (  -0.0909114   0.1374708   0.0000000), wk =   0.0277778
        k(   74) = (  -0.0909114  -0.0533834   0.0000000), wk =   0.0138889

     Dense  grid:   954803 G-vectors     FFT dimensions: (  80,  80, 360)

     Smooth grid:   241585 G-vectors     FFT dimensions: (  50,  50, 225)

     Estimated max dynamical RAM per process >     204.38 MB

     Estimated total dynamical RAM >       7.38 GB

     Initial potential from superposition of free atoms

     starting charge  179.99089, renormalised to  180.00000

     negative rho (up, down):  1.398E-03 0.000E+00


     %%%%%%%%%%%%%%%%%%%%%%%%%%%%%%%%%%%%%%%%%%%%%%%%%%%%%%%%%%%%%%%%%%%%%%%%
     %                                                                      %
     % You are using vdW-DF, which was implemented by the Thonhauser group. %
     % Please cite the following two papers that made this development      %
     % possible and the two reviews that describe the various versions:     %
     %                                                                      %
     %   T. Thonhauser et al., PRL 115, 136402 (2015).                      %
     %   T. Thonhauser et al., PRB 76, 125112 (2007).                       %
     %   K. Berland et al., Rep. Prog. Phys. 78, 066501 (2015).             %
     %   D.C. Langreth et al., J. Phys.: Condens. Matter 21, 084203 (2009). %
     %                                                                      %
     %                                                                      %
     % If you are calculating the stress with vdW-DF, please also cite:     %
     %                                                                      %
     %   R. Sabatini et al., J. Phys.: Condens. Matter 24, 424209 (2012).   %
     %                                                                      %
     %%%%%%%%%%%%%%%%%%%%%%%%%%%%%%%%%%%%%%%%%%%%%%%%%%%%%%%%%%%%%%%%%%%%%%%%



     Adding external electric field

     Computed dipole along edir(3) : 
        Dipole               -0.0000 Ry au,         -0.0001 Debye
        Dipole field         -0.0000 Ry au, 

        Potential amp.        0.0000 Ry
        Total length         45.1563 bohr

     Starting wfcs are  120 randomized atomic wfcs

     total cpu time spent up to now is       85.4 secs

     Self-consistent Calculation

     iteration #  1     ecut=    55.12 Ry     beta= 0.10
     Davidson diagonalization with overlap
     ethr =  1.00E-02,  avg # of iterations =  2.1

     negative rho (up, down):  1.326E-03 0.000E+00

     Adding external electric field

     Computed dipole along edir(3) : 
        Dipole               -0.3903 Ry au,         -0.9920 Debye
        Dipole field         -0.0011 Ry au, 

        Potential amp.        0.1014 Ry
        Total length         45.1563 bohr


     total cpu time spent up to now is      330.8 secs

     total energy              =   -2028.59837311 Ry
     estimated scf accuracy    <       6.60462212 Ry

     iteration #  2     ecut=    55.12 Ry     beta= 0.10
     Davidson diagonalization with overlap
     ethr =  3.67E-03,  avg # of iterations =  2.2

     negative rho (up, down):  1.308E-03 0.000E+00

     Adding external electric field

     Computed dipole along edir(3) : 
        Dipole                0.7029 Ry au,          1.7867 Debye
        Dipole field          0.0020 Ry au, 

        Potential amp.       -0.1826 Ry
        Total length         45.1563 bohr


     total cpu time spent up to now is      537.0 secs

     total energy              =   -2028.55804334 Ry
     estimated scf accuracy    <      12.10063024 Ry

     iteration #  3     ecut=    55.12 Ry     beta= 0.10
     Davidson diagonalization with overlap
     ethr =  3.67E-03,  avg # of iterations =  2.1

     negative rho (up, down):  1.290E-03 0.000E+00

     Adding external electric field

     Computed dipole along edir(3) : 
        Dipole               -0.0263 Ry au,         -0.0668 Debye
        Dipole field         -0.0001 Ry au, 

        Potential amp.        0.0068 Ry
        Total length         45.1563 bohr


     total cpu time spent up to now is      734.3 secs

     total energy              =   -2028.66944216 Ry
     estimated scf accuracy    <      39.21424168 Ry

     iteration #  4     ecut=    55.12 Ry     beta= 0.10
     Davidson diagonalization with overlap
     ethr =  3.67E-03,  avg # of iterations =  1.0

     negative rho (up, down):  1.280E-03 0.000E+00

     Adding external electric field

     Computed dipole along edir(3) : 
        Dipole               -0.0009 Ry au,         -0.0023 Debye
        Dipole field         -0.0000 Ry au, 

        Potential amp.        0.0002 Ry
        Total length         45.1563 bohr


     total cpu time spent up to now is      905.2 secs

     total energy              =   -2029.08550302 Ry
     estimated scf accuracy    <       0.44019475 Ry

     iteration #  5     ecut=    55.12 Ry     beta= 0.10
     Davidson diagonalization with overlap
     ethr =  2.45E-04,  avg # of iterations =  4.1

     negative rho (up, down):  1.291E-03 0.000E+00

     Adding external electric field

     Computed dipole along edir(3) : 
        Dipole                0.0293 Ry au,          0.0745 Debye
        Dipole field          0.0001 Ry au, 

        Potential amp.       -0.0076 Ry
        Total length         45.1563 bohr


     total cpu time spent up to now is     1130.3 secs

     total energy              =   -2029.10335432 Ry
     estimated scf accuracy    <       0.12486231 Ry

     iteration #  6     ecut=    55.12 Ry     beta= 0.10
     Davidson diagonalization with overlap
     ethr =  6.94E-05,  avg # of iterations =  7.5

     negative rho (up, down):  1.298E-03 0.000E+00

     Adding external electric field

     Computed dipole along edir(3) : 
        Dipole                0.0475 Ry au,          0.1208 Debye
        Dipole field          0.0001 Ry au, 

        Potential amp.       -0.0123 Ry
        Total length         45.1563 bohr


     total cpu time spent up to now is     1368.5 secs

     total energy              =   -2029.10745365 Ry
     estimated scf accuracy    <       0.05311748 Ry

     iteration #  7     ecut=    55.12 Ry     beta= 0.10
     Davidson diagonalization with overlap
     ethr =  2.95E-05,  avg # of iterations =  2.8

     negative rho (up, down):  1.431E-03 0.000E+00

     Adding external electric field

     Computed dipole along edir(3) : 
        Dipole                0.0272 Ry au,          0.0692 Debye
        Dipole field          0.0001 Ry au, 

        Potential amp.       -0.0071 Ry
        Total length         45.1563 bohr


     total cpu time spent up to now is     1569.5 secs

     total energy              =   -2029.10331345 Ry
     estimated scf accuracy    <       0.04556458 Ry

     iteration #  8     ecut=    55.12 Ry     beta= 0.10
     Davidson diagonalization with overlap
     ethr =  2.53E-05,  avg # of iterations =  2.0

     negative rho (up, down):  1.447E-03 0.000E+00

     Adding external electric field

     Computed dipole along edir(3) : 
        Dipole                0.0329 Ry au,          0.0836 Debye
        Dipole field          0.0001 Ry au, 

        Potential amp.       -0.0085 Ry
        Total length         45.1563 bohr


     total cpu time spent up to now is     1784.4 secs

     total energy              =   -2029.10688052 Ry
     estimated scf accuracy    <       0.00624631 Ry

     iteration #  9     ecut=    55.12 Ry     beta= 0.10
     Davidson diagonalization with overlap
     ethr =  3.47E-06,  avg # of iterations =  7.3

     negative rho (up, down):  1.381E-03 0.000E+00

     Adding external electric field

     Computed dipole along edir(3) : 
        Dipole                0.0398 Ry au,          0.1012 Debye
        Dipole field          0.0001 Ry au, 

        Potential amp.       -0.0103 Ry
        Total length         45.1563 bohr


     total cpu time spent up to now is     2057.0 secs

     total energy              =   -2029.10669667 Ry
     estimated scf accuracy    <       0.00318264 Ry

     iteration # 10     ecut=    55.12 Ry     beta= 0.10
     Davidson diagonalization with overlap
     ethr =  1.77E-06,  avg # of iterations =  2.1

     negative rho (up, down):  1.485E-03 0.000E+00

     Adding external electric field

     Computed dipole along edir(3) : 
        Dipole                0.0315 Ry au,          0.0801 Debye
        Dipole field          0.0001 Ry au, 

        Potential amp.       -0.0082 Ry
        Total length         45.1563 bohr


     total cpu time spent up to now is     2287.2 secs

     total energy              =   -2029.10741719 Ry
     estimated scf accuracy    <       0.00450051 Ry

     iteration # 11     ecut=    55.12 Ry     beta= 0.10
     Davidson diagonalization with overlap
     ethr =  1.77E-06,  avg # of iterations =  2.0

     negative rho (up, down):  1.462E-03 0.000E+00

     Adding external electric field

     Computed dipole along edir(3) : 
        Dipole                0.0393 Ry au,          0.0998 Debye
        Dipole field          0.0001 Ry au, 

        Potential amp.       -0.0102 Ry
        Total length         45.1563 bohr


     total cpu time spent up to now is     2490.1 secs

     total energy              =   -2029.10761099 Ry
     estimated scf accuracy    <       0.00028212 Ry

     iteration # 12     ecut=    55.12 Ry     beta= 0.10
     Davidson diagonalization with overlap
     ethr =  1.57E-07,  avg # of iterations =  4.5

     negative rho (up, down):  1.432E-03 0.000E+00

     Adding external electric field

     Computed dipole along edir(3) : 
        Dipole                0.0387 Ry au,          0.0982 Debye
        Dipole field          0.0001 Ry au, 

        Potential amp.       -0.0100 Ry
        Total length         45.1563 bohr


     total cpu time spent up to now is     2734.9 secs

     total energy              =   -2029.10766844 Ry
     estimated scf accuracy    <       0.00067175 Ry

     iteration # 13     ecut=    55.12 Ry     beta= 0.10
     Davidson diagonalization with overlap
     ethr =  1.57E-07,  avg # of iterations =  1.0

     negative rho (up, down):  1.401E-03 0.000E+00

     Adding external electric field

     Computed dipole along edir(3) : 
        Dipole                0.0369 Ry au,          0.0937 Debye
        Dipole field          0.0001 Ry au, 

        Potential amp.       -0.0096 Ry
        Total length         45.1563 bohr


     total cpu time spent up to now is     2906.1 secs

     total energy              =   -2029.10763112 Ry
     estimated scf accuracy    <       0.00011812 Ry

     iteration # 14     ecut=    55.12 Ry     beta= 0.10
     Davidson diagonalization with overlap
     ethr =  6.56E-08,  avg # of iterations =  3.5

     negative rho (up, down):  1.377E-03 0.000E+00

     Adding external electric field

     Computed dipole along edir(3) : 
        Dipole                0.0356 Ry au,          0.0905 Debye
        Dipole field          0.0001 Ry au, 

        Potential amp.       -0.0092 Ry
        Total length         45.1563 bohr


     total cpu time spent up to now is     3162.8 secs

     total energy              =   -2029.10765953 Ry
     estimated scf accuracy    <       0.00003551 Ry

     iteration # 15     ecut=    55.12 Ry     beta= 0.10
     Davidson diagonalization with overlap
     ethr =  1.97E-08,  avg # of iterations =  3.0

     negative rho (up, down):  1.360E-03 0.000E+00

     Adding external electric field

     Computed dipole along edir(3) : 
        Dipole                0.0361 Ry au,          0.0918 Debye
        Dipole field          0.0001 Ry au, 

        Potential amp.       -0.0094 Ry
        Total length         45.1563 bohr


     total cpu time spent up to now is     3387.0 secs

     total energy              =   -2029.10765700 Ry
     estimated scf accuracy    <       0.00002436 Ry

     iteration # 16     ecut=    55.12 Ry     beta= 0.10
     Davidson diagonalization with overlap
     ethr =  1.35E-08,  avg # of iterations =  2.6

     negative rho (up, down):  1.272E-03 0.000E+00

     Adding external electric field

     Computed dipole along edir(3) : 
        Dipole                0.0344 Ry au,          0.0874 Debye
        Dipole field          0.0001 Ry au, 

        Potential amp.       -0.0089 Ry
        Total length         45.1563 bohr


     total cpu time spent up to now is     3611.2 secs

     End of self-consistent calculation

          k = 0.0000 0.0000 0.0000 ( 30261 PWs)   bands (ev):

   -70.5856 -70.5486 -70.1653 -70.1610 -70.1287 -70.1245 -58.9307 -58.8776
   -58.8436 -58.7925 -58.7635 -58.6781 -40.7221 -40.6417 -40.5961 -40.5698
   -40.5193 -40.3295 -40.3033 -40.2912 -40.1675 -40.1462 -40.1206 -40.1206
   -40.0974 -40.0953 -40.0804 -40.0569 -39.9164 -39.9073 -33.3152 -33.2239
   -33.1567 -33.1428 -33.0749 -32.9760 -32.9547 -32.8949 -32.8890 -32.8674
   -32.8103 -32.7976 -32.7409 -32.5659 -32.5503 -32.4819 -32.4176 -32.3335
    -4.0687  -2.8758  -2.8722  -2.8008  -2.7339  -2.6068  -2.3813  -2.3630
    -2.3628  -2.2022  -2.1851  -2.0871  -1.7557  -1.7428  -1.7407  -0.6318
    -0.6220  -0.5496   0.1342   0.1379   0.2208   0.3728   0.4192   0.5607
     0.6216   0.7212   0.8846   0.9580   1.0559   1.2049   1.2566   1.4353
     1.4915   1.8314   1.9398   2.1297   2.2543   2.4775   2.5332   2.6129
     2.8433   3.1005   3.1904   3.2443   3.5322   3.5604   3.6585   4.0208
     4.0523   4.2625   4.4325   4.5860   4.6997   4.8241   4.8403   4.8453
     4.9255   4.9584   5.0545   5.0631

          k = 0.0000 0.0174 0.0000 ( 30241 PWs)   bands (ev):

   -70.5850 -70.5492 -70.1647 -70.1603 -70.1294 -70.1251 -58.9294 -58.8761
   -58.8451 -58.7939 -58.7621 -58.6795 -40.7154 -40.6408 -40.5967 -40.5684
   -40.5197 -40.3362 -40.2967 -40.2847 -40.1664 -40.1449 -40.1210 -40.1200
   -40.0966 -40.0958 -40.0811 -40.0575 -39.9230 -39.9138 -33.3035 -33.2234
   -33.1462 -33.1437 -33.0632 -32.9744 -32.9543 -32.8961 -32.8907 -32.8671
   -32.8098 -32.7996 -32.7428 -32.5797 -32.5492 -32.4832 -32.4311 -32.3471
    -4.0067  -2.8335  -2.8198  -2.7595  -2.6793  -2.5444  -2.3540  -2.3255
    -2.3208  -2.1691  -2.1466  -2.0564  -1.7200  -1.6862  -1.6810  -0.6257
    -0.6086  -0.5325   0.1511   0.1644   0.2284   0.2945   0.3974   0.5393
     0.6163   0.7069   0.9013   0.9831   1.0513   1.2040   1.2323   1.4326
     1.5224   1.8086   1.8632   1.9801   2.2745   2.4409   2.5115   2.5684
     2.8189   2.9623   3.1609   3.2146   3.3163   3.5216   3.6863   3.9996
     4.0371   4.1452   4.2607   4.4197   4.5037   4.6350   4.6876   4.7870
     4.8740   4.9496   5.1007   5.1876

          k = 0.0000 0.0347 0.0000 ( 30229 PWs)   bands (ev):

   -70.5832 -70.5511 -70.1629 -70.1585 -70.1312 -70.1270 -58.9252 -58.8719
   -58.8496 -58.7982 -58.7579 -58.6838 -40.6958 -40.6381 -40.5986 -40.5647
   -40.5209 -40.3558 -40.2774 -40.2655 -40.1630 -40.1413 -40.1225 -40.1185
   -40.0972 -40.0943 -40.0833 -40.0592 -39.9423 -39.9330 -33.2688 -33.2219
   -33.1517 -33.1101 -33.0286 -32.9699 -32.9526 -32.9000 -32.8951 -32.8659
   -32.8082 -32.8053 -32.7481 -32.6199 -32.5462 -32.4869 -32.4704 -32.3867
    -3.8257  -2.7270  -2.6692  -2.6263  -2.5222  -2.3642  -2.2866  -2.2084
    -2.1984  -2.0725  -2.0318  -1.9616  -1.6313  -1.5068  -1.5051  -0.6142
    -0.5863  -0.4722   0.0819   0.1977   0.2155   0.2433   0.3603   0.5101
     0.5573   0.6492   0.9399   0.9810   1.0955   1.1134   1.3075   1.3935
     1.6306   1.6435   1.6906   1.7713   2.1983   2.3154   2.4353   2.4578
     2.6532   2.6987   2.9420   3.0481   3.1394   3.2547   3.6849   3.7333
     3.7477   3.8699   4.1181   4.1507   4.2923   4.3208   4.4537   4.7015
     4.7612   4.8554   4.9805   5.0157

          k = 0.0000 0.0521 0.0000 ( 30169 PWs)   bands (ev):

   -70.5802 -70.5540 -70.1600 -70.1556 -70.1341 -70.1299 -58.9184 -58.8652
   -58.8567 -58.8050 -58.7512 -58.6907 -40.6646 -40.6340 -40.6017 -40.5589
   -40.5230 -40.3870 -40.2468 -40.2350 -40.1580 -40.1359 -40.1249 -40.1157
   -40.0998 -40.0906 -40.0867 -40.0621 -39.9730 -39.9634 -33.2188 -33.2132
   -33.1614 -33.0547 -32.9733 -32.9631 -32.9493 -32.9069 -32.9012 -32.8635
   -32.8138 -32.8052 -32.7561 -32.6832 -32.5417 -32.5318 -32.4927 -32.4489
    -3.5425  -2.5859  -2.4447  -2.4109  -2.2861  -2.1937  -2.0910  -2.0231
    -2.0014  -1.9185  -1.8508  -1.8024  -1.4917  -1.2377  -1.2248  -0.6115
    -0.5760  -0.3672  -0.1672   0.0510   0.2565   0.3078   0.3702   0.4777
     0.5110   0.5252   0.9272   0.9696   0.9812   1.2156   1.2177   1.3836
     1.4345   1.5021   1.6417   1.8160   2.0358   2.0454   2.1564   2.3093
     2.3816   2.5299   2.6060   2.7156   2.9849   2.9996   3.1173   3.2647
     3.6355   3.6974   3.7133   3.9997   4.0985   4.2556   4.2724   4.4303
     4.5594   4.6600   4.7363   4.7845

          k = 0.0000 0.0694 0.0000 ( 30188 PWs)   bands (ev):

   -70.5764 -70.5579 -70.1562 -70.1518 -70.1379 -70.1336 -58.9096 -58.8660
   -58.8565 -58.8139 -58.7424 -58.6997 -40.6288 -40.6241 -40.6059 -40.5520
   -40.5264 -40.4276 -40.2069 -40.1954 -40.1519 -40.1293 -40.1285 -40.1119
   -40.1036 -40.0910 -40.0860 -40.0659 -40.0129 -40.0031 -33.2138 -33.1735
   -33.1392 -32.9816 -32.9553 -32.9439 -32.9177 -32.9096 -32.8975 -32.8595
   -32.8239 -32.8007 -32.7657 -32.7643 -32.6119 -32.5361 -32.5273 -32.5002
    -3.1893  -2.4437  -2.1939  -2.1668  -2.0948  -2.0246  -1.7893  -1.7891
    -1.7226  -1.7060  -1.6379  -1.6061  -1.3119  -0.9506  -0.9308  -0.5874
    -0.5221  -0.4182  -0.2548  -0.1778   0.1532   0.2195   0.3699   0.4163
     0.5489   0.5926   0.8377   0.8528   0.9091   0.9254   1.1100   1.3671
     1.3964   1.5352   1.5891   1.6536   1.7299   1.8270   1.9828   2.0180
     2.2143   2.2508   2.3571   2.5236   2.6001   2.6845   2.8749   3.0356
     3.3351   3.5067   3.6257   3.6492   3.7542   4.0050   4.0670   4.1520
     4.2567   4.3403   4.3765   4.4987

          k = 0.0000 0.0868 0.0000 ( 30143 PWs)   bands (ev):

   -70.5719 -70.5623 -70.1518 -70.1474 -70.1423 -70.1380 -58.8992 -58.8767
   -58.8462 -58.8242 -58.7321 -58.7100 -40.6229 -40.6111 -40.5768 -40.5447
   -40.5311 -40.4747 -40.1606 -40.1496 -40.1455 -40.1327 -40.1224 -40.1084
   -40.1071 -40.0960 -40.0810 -40.0704 -40.0593 -40.0492 -33.2065 -33.1856
   -33.0522 -32.9472 -32.9361 -32.9269 -32.9177 -32.8950 -32.8588 -32.8517
   -32.8338 -32.8134 -32.7943 -32.7751 -32.7029 -32.6208 -32.5262 -32.5087
    -2.8218  -2.3909  -1.9963  -1.9781  -1.9464  -1.8564  -1.5629  -1.5591
    -1.5250  -1.4493  -1.3982  -1.3643  -1.1108  -0.8372  -0.8212  -0.7061
    -0.4117  -0.2852  -0.2687  -0.2486  -0.0481  -0.0092   0.3233   0.4440
     0.6527   0.6618   0.7307   0.7402   0.8346   0.9050   0.9269   1.1168
     1.2505   1.3203   1.4114   1.4837   1.5647   1.6098   1.7579   1.8865
     1.9120   2.1237   2.1905   2.5526   2.6886   2.6908   2.7488   2.9682
     3.0819   3.2045   3.4435   3.4524   3.5669   3.6658   3.6972   3.9466
     3.9718   4.0473   4.2996   4.3351

          k = 0.0000-0.1041 0.0000 ( 30178 PWs)   bands (ev):

   -70.5671 -70.5671 -70.1470 -70.1470 -70.1428 -70.1427 -58.8880 -58.8880
   -58.8353 -58.8353 -58.7212 -58.7212 -40.6169 -40.6169 -40.5386 -40.5386
   -40.5246 -40.5246 -40.1395 -40.1395 -40.1178 -40.1178 -40.1080 -40.1080
   -40.1025 -40.1024 -40.0972 -40.0972 -40.0755 -40.0754 -33.1969 -33.1969
   -32.9594 -32.9594 -32.9340 -32.9339 -32.9266 -32.9266 -32.8463 -32.8463
   -32.7984 -32.7984 -32.7861 -32.7861 -32.7170 -32.7170 -32.5176 -32.5176
    -2.5251  -2.5251  -1.9025  -1.9025  -1.8365  -1.8365  -1.5261  -1.5261
    -1.3571  -1.3571  -1.2152  -1.2152  -0.9192  -0.9192  -0.8168  -0.8168
    -0.4405  -0.4405  -0.1635  -0.1635  -0.0500  -0.0500   0.4238   0.4238
     0.6282   0.6282   0.7381   0.7381   0.8530   0.8530   0.9013   0.9013
     1.1505   1.1505   1.3355   1.3355   1.5195   1.5195   1.6265   1.6265
     2.0385   2.0385   2.4022   2.4022   2.7036   2.7036   2.9471   2.9471
     3.1354   3.1354   3.2472   3.2472   3.4068   3.4068   3.7383   3.7383
     3.9426   3.9426   4.2895   4.2895

          k = 0.0152-0.0085 0.0000 ( 30241 PWs)   bands (ev):

   -70.5850 -70.5492 -70.1647 -70.1603 -70.1294 -70.1251 -58.9294 -58.8761
   -58.8451 -58.7939 -58.7621 -58.6795 -40.7154 -40.6408 -40.5967 -40.5684
   -40.5197 -40.3362 -40.2967 -40.2847 -40.1664 -40.1449 -40.1210 -40.1200
   -40.0966 -40.0958 -40.0811 -40.0575 -39.9230 -39.9138 -33.3035 -33.2234
   -33.1462 -33.1437 -33.0632 -32.9744 -32.9543 -32.8961 -32.8907 -32.8671
   -32.8098 -32.7996 -32.7428 -32.5797 -32.5492 -32.4832 -32.4311 -32.3471
    -4.0067  -2.8335  -2.8198  -2.7595  -2.6793  -2.5444  -2.3540  -2.3255
    -2.3208  -2.1691  -2.1466  -2.0564  -1.7200  -1.6862  -1.6810  -0.6257
    -0.6086  -0.5325   0.1511   0.1644   0.2284   0.2945   0.3974   0.5393
     0.6163   0.7069   0.9013   0.9831   1.0513   1.2040   1.2323   1.4326
     1.5224   1.8086   1.8632   1.9801   2.2745   2.4409   2.5115   2.5684
     2.8189   2.9623   3.1609   3.2146   3.3163   3.5216   3.6863   3.9996
     4.0371   4.1452   4.2607   4.4197   4.5037   4.6350   4.6877   4.7870
     4.8740   4.9493   5.1008   5.1495

          k = 0.0152 0.0089 0.0000 ( 30227 PWs)   bands (ev):

   -70.5856 -70.5486 -70.1653 -70.1609 -70.1287 -70.1245 -58.9309 -58.8775
   -58.8436 -58.7924 -58.7636 -58.6780 -40.7215 -40.6413 -40.5959 -40.5685
   -40.5187 -40.3295 -40.3028 -40.2907 -40.1665 -40.1450 -40.1210 -40.1202
   -40.0969 -40.0950 -40.0804 -40.0569 -39.9163 -39.9072 -33.3167 -33.2263
   -33.1577 -33.1441 -33.0760 -32.9758 -32.9565 -32.8946 -32.8895 -32.8694
   -32.8119 -32.7989 -32.7420 -32.5661 -32.5507 -32.4820 -32.4178 -32.3337
    -4.0049  -2.8383  -2.8207  -2.7491  -2.6775  -2.5425  -2.3354  -2.3323
    -2.3255  -2.1670  -2.1590  -2.0478  -1.7087  -1.6913  -1.6829  -0.6145
    -0.6082  -0.5399   0.1512   0.1646   0.2218   0.3661   0.4200   0.5798
     0.6067   0.6670   0.9150   0.9627   1.1048   1.1710   1.2412   1.3760
     1.4537   1.7812   1.9059   2.0456   2.2443   2.3863   2.5353   2.5757
     2.7448   2.9379   3.1989   3.2178   3.3030   3.5572   3.7966   3.9896
     3.9932   4.1018   4.2333   4.3943   4.5622   4.6374   4.6840   4.7982
     4.8176   5.0364   5.0654   5.0746

          k = 0.0152 0.0262 0.0000 ( 30228 PWs)   bands (ev):

   -70.5850 -70.5493 -70.1647 -70.1603 -70.1294 -70.1251 -58.9296 -58.8762
   -58.8452 -58.7939 -58.7622 -58.6795 -40.7143 -40.6401 -40.5964 -40.5660
   -40.5187 -40.3361 -40.2958 -40.2836 -40.1644 -40.1428 -40.1208 -40.1204
   -40.0957 -40.0952 -40.0812 -40.0574 -39.9229 -39.9137 -33.3062 -33.2279
   -33.1482 -33.1460 -33.0653 -32.9744 -32.9572 -32.8957 -32.8914 -32.8708
   -32.8127 -32.8020 -32.7447 -32.5802 -32.5499 -32.4833 -32.4314 -32.3474
    -3.8817  -2.7531  -2.7365  -2.6511  -2.5696  -2.4196  -2.2820  -2.2669
    -2.2308  -2.0998  -2.0960  -1.9749  -1.6277  -1.6176  -1.5354  -0.6047
    -0.5815  -0.5073   0.1842   0.2054   0.2153   0.2223   0.4645   0.5708
     0.5984   0.6050   0.9383   1.0014   1.1112   1.1839   1.1855   1.3168
     1.4773   1.7161   1.7907   1.8627   2.2346   2.2758   2.4743   2.5072
     2.6323   2.7416   3.0122   3.1473   3.1518   3.4479   3.7320   3.8449
     3.9180   3.9874   4.0855   4.0928   4.2445   4.2842   4.5344   4.7701
     4.8386   4.9555   4.9858   5.1977

          k = 0.0152 0.0436 0.0000 ( 30211 PWs)   bands (ev):

   -70.5831 -70.5511 -70.1629 -70.1585 -70.1312 -70.1270 -58.9254 -58.8721
   -58.8497 -58.7981 -58.7581 -58.6837 -40.6943 -40.6373 -40.5982 -40.5615
   -40.5197 -40.3558 -40.2762 -40.2641 -40.1605 -40.1385 -40.1218 -40.1192
   -40.0967 -40.0931 -40.0834 -40.0592 -39.9423 -39.9329 -33.2725 -33.2277
   -33.1545 -33.1128 -33.0315 -32.9707 -32.9558 -32.9000 -32.8953 -32.8706
   -32.8120 -32.8083 -32.7505 -32.6203 -32.5470 -32.4869 -32.4706 -32.3868
    -3.6475  -2.6101  -2.5712  -2.4687  -2.3701  -2.1989  -2.1917  -2.1195
    -2.0660  -1.9712  -1.9637  -1.8311  -1.5129  -1.4137  -1.2836  -0.6023
    -0.5600  -0.4240  -0.0258   0.1305   0.2416   0.3108   0.4112   0.4902
     0.5373   0.6025   0.9840   1.0166   1.0745   1.1566   1.2140   1.2341
     1.5550   1.6051   1.6226   1.6596   2.1045   2.1243   2.2452   2.3948
     2.4473   2.5195   2.7109   2.9518   3.0424   3.0716   3.3077   3.3469
     3.6773   3.7986   3.8427   3.9922   4.0679   4.3109   4.3127   4.4262
     4.6723   4.8104   4.8243   4.9824

          k = 0.0152 0.0609 0.0000 ( 30209 PWs)   bands (ev):

   -70.5802 -70.5541 -70.1600 -70.1556 -70.1341 -70.1299 -58.9187 -58.8654
   -58.8569 -58.8049 -58.7514 -58.6906 -40.6630 -40.6332 -40.6014 -40.5555
   -40.5221 -40.3871 -40.2454 -40.2335 -40.1554 -40.1329 -40.1244 -40.1162
   -40.0995 -40.0894 -40.0867 -40.0621 -39.9731 -39.9636 -33.2250 -33.2174
   -33.1638 -33.0576 -32.9766 -32.9655 -32.9516 -32.9069 -32.9009 -32.8684
   -32.8166 -32.8092 -32.7584 -32.6832 -32.5424 -32.5319 -32.4927 -32.4488
    -3.3255  -2.4604  -2.3174  -2.2472  -2.1156  -2.1009  -1.9321  -1.8716
    -1.8597  -1.7736  -1.7602  -1.6372  -1.3513  -1.1209  -1.0048  -0.5705
    -0.5574  -0.3107  -0.2902  -0.0643   0.2672   0.2704   0.3474   0.4503
     0.4585   0.6484   0.9254   0.9290   1.0006   1.0351   1.1425   1.3045
     1.4000   1.4544   1.6575   1.7067   1.8141   1.9200   2.0120   2.1745
     2.2525   2.3518   2.3941   2.5428   2.6698   2.7385   2.9570   3.0127
     3.4476   3.5863   3.6527   3.7444   3.8200   4.0501   4.0620   4.4133
     4.5189   4.5252   4.6120   4.6666

          k = 0.0152 0.0783 0.0000 ( 30216 PWs)   bands (ev):

   -70.5763 -70.5579 -70.1562 -70.1518 -70.1379 -70.1336 -58.9098 -58.8662
   -58.8566 -58.8139 -58.7427 -58.6996 -40.6281 -40.6225 -40.6057 -40.5488
   -40.5262 -40.4279 -40.2055 -40.1939 -40.1496 -40.1284 -40.1266 -40.1121
   -40.1038 -40.0911 -40.0849 -40.0661 -40.0133 -40.0035 -33.2192 -33.1751
   -33.1430 -32.9845 -32.9590 -32.9446 -32.9173 -32.9100 -32.8996 -32.8637
   -32.8258 -32.8042 -32.7672 -32.7637 -32.6113 -32.5367 -32.5269 -32.5000
    -2.9574  -2.3473  -2.0506  -2.0357  -1.9977  -1.8789  -1.7133  -1.6385
    -1.5833  -1.5217  -1.5127  -1.4209  -1.1577  -0.8938  -0.8443  -0.5946
    -0.4543  -0.3357  -0.2934  -0.2419   0.0579   0.1026   0.2722   0.4079
     0.6354   0.6458   0.7775   0.7883   0.8623   0.8970   1.0181   1.2609
     1.2969   1.4586   1.4660   1.5706   1.5975   1.7380   1.8204   1.8708
     1.9582   2.0415   2.2192   2.4349   2.5366   2.6505   2.8141   2.9794
     3.0880   3.2797   3.4315   3.5287   3.7712   3.7943   3.9583   4.0480
     4.1948   4.3075   4.4328   4.4509

          k = 0.0152-0.1126 0.0000 ( 30187 PWs)   bands (ev):

   -70.5719 -70.5624 -70.1518 -70.1474 -70.1423 -70.1380 -58.8994 -58.8767
   -58.8464 -58.8241 -58.7324 -58.7099 -40.6224 -40.6112 -40.5755 -40.5423
   -40.5317 -40.4755 -40.1595 -40.1483 -40.1438 -40.1332 -40.1202 -40.1091
   -40.1071 -40.0962 -40.0800 -40.0709 -40.0600 -40.0499 -33.2104 -33.1853
   -33.0554 -32.9509 -32.9360 -32.9250 -32.9179 -32.8973 -32.8595 -32.8525
   -32.8344 -32.8158 -32.7965 -32.7754 -32.7018 -32.6196 -32.5270 -32.5083
    -2.6125  -2.3878  -1.9010  -1.8705  -1.8539  -1.7895  -1.5807  -1.4648
    -1.4161  -1.3455  -1.3108  -1.1599  -0.9634  -0.8682  -0.8063  -0.7857
    -0.4721  -0.3981  -0.1853  -0.1438  -0.1187   0.0062   0.3124   0.4374
     0.5035   0.6637   0.7293   0.7678   0.7718   0.8764   0.8820   1.0330
     1.1036   1.2272   1.2569   1.3305   1.4935   1.5608   1.6364   1.6813
     1.9974   2.0748   2.1920   2.5504   2.5863   2.7170   2.8035   2.9520
     3.0564   3.1229   3.3624   3.4114   3.4693   3.6070   3.7885   3.9249
     3.9365   4.0086   4.2702   4.3362

          k = 0.0152-0.0952 0.0000 ( 30176 PWs)   bands (ev):

   -70.5672 -70.5671 -70.1471 -70.1470 -70.1428 -70.1427 -58.8880 -58.8880
   -58.8354 -58.8351 -58.7213 -58.7210 -40.6172 -40.6166 -40.5397 -40.5371
   -40.5256 -40.5240 -40.1404 -40.1384 -40.1185 -40.1168 -40.1085 -40.1077
   -40.1029 -40.1020 -40.0975 -40.0971 -40.0760 -40.0749 -33.1989 -33.1949
   -32.9608 -32.9569 -32.9370 -32.9317 -32.9268 -32.9265 -32.8468 -32.8449
   -32.8006 -32.7973 -32.7868 -32.7849 -32.7189 -32.7154 -32.5181 -32.5170
    -2.6185  -2.3850  -1.9005  -1.8947  -1.8387  -1.7905  -1.5776  -1.4626
    -1.4118  -1.3274  -1.2895  -1.1957  -0.9587  -0.8890  -0.8159  -0.7868
    -0.5006  -0.3966  -0.1719  -0.1383  -0.0901  -0.0334   0.3280   0.4222
     0.5713   0.6226   0.6987   0.7186   0.7532   0.8127   0.8460   0.8927
     1.0430   1.2649   1.3318   1.3661   1.5943   1.6156   1.6723   1.6905
     1.8601   2.2460   2.2577   2.5001   2.7033   2.7358   2.8881   2.9417
     3.0042   3.2805   3.3011   3.3545   3.5021   3.5539   3.6749   3.8886
     3.9879   4.0721   4.2084   4.3035

          k = 0.0152-0.0779 0.0000 ( 30114 PWs)   bands (ev):

   -70.5719 -70.5623 -70.1518 -70.1475 -70.1423 -70.1380 -58.8990 -58.8765
   -58.8460 -58.8243 -58.7319 -58.7101 -40.6234 -40.6111 -40.5778 -40.5468
   -40.5306 -40.4742 -40.1615 -40.1505 -40.1470 -40.1326 -40.1242 -40.1078
   -40.1069 -40.0959 -40.0820 -40.0701 -40.0587 -40.0486 -33.2031 -33.1857
   -33.0493 -32.9444 -32.9355 -32.9285 -32.9178 -32.8926 -32.8592 -32.8501
   -32.8338 -32.8108 -32.7922 -32.7752 -32.7041 -32.6220 -32.5256 -32.5090
    -2.9652  -2.3484  -2.0632  -2.0361  -2.0108  -1.8686  -1.7069  -1.6122
    -1.5739  -1.5267  -1.5137  -1.4634  -1.1577  -0.9193  -0.8337  -0.6142
    -0.4387  -0.3780  -0.3023  -0.2679   0.0386   0.0814   0.3399   0.3431
     0.5995   0.6671   0.7175   0.7259   0.7916   0.8238   0.9719   1.0893
     1.3646   1.3880   1.5383   1.5599   1.5914   1.8368   1.8391   1.9951
     2.1070   2.1433   2.3659   2.5172   2.6135   2.6797   2.7332   3.0843
     3.2039   3.2400   3.5149   3.5866   3.7153   3.7256   4.0467   4.0565
     4.1022   4.2074   4.2685   4.4629

          k = 0.0152-0.0605 0.0000 ( 30173 PWs)   bands (ev):

   -70.5764 -70.5579 -70.1562 -70.1519 -70.1379 -70.1336 -58.9094 -58.8658
   -58.8563 -58.8140 -58.7422 -58.6997 -40.6293 -40.6251 -40.6061 -40.5543
   -40.5267 -40.4273 -40.2078 -40.1965 -40.1536 -40.1313 -40.1286 -40.1114
   -40.1035 -40.0910 -40.0869 -40.0657 -40.0127 -40.0028 -33.2099 -33.1723
   -33.1365 -32.9794 -32.9538 -32.9421 -32.9179 -32.9094 -32.8959 -32.8563
   -32.8227 -32.7982 -32.7649 -32.7647 -32.6125 -32.5355 -32.5277 -32.5003
    -3.3338  -2.4642  -2.2934  -2.2849  -2.1173  -2.1068  -1.9388  -1.8945
    -1.8122  -1.8056  -1.7332  -1.6727  -1.3513  -1.1126  -1.0273  -0.6291
    -0.5203  -0.3360  -0.3296  -0.0851   0.2045   0.2462   0.3686   0.4639
     0.4825   0.5461   0.8082   0.8416   0.8963   0.9830   1.1690   1.3471
     1.4229   1.5179   1.7375   1.7753   1.8755   1.9911   2.0354   2.1381
     2.1956   2.4107   2.5249   2.6426   2.7160   2.8171   2.8751   3.1650
     3.3866   3.6442   3.6911   3.7936   3.9914   4.0691   4.1718   4.3222
     4.3468   4.4712   4.5948   4.7871

          k = 0.0152-0.0432 0.0000 ( 30191 PWs)   bands (ev):

   -70.5802 -70.5540 -70.1600 -70.1556 -70.1341 -70.1299 -58.9183 -58.8651
   -58.8566 -58.8051 -58.7510 -58.6908 -40.6655 -40.6345 -40.6019 -40.5609
   -40.5236 -40.3869 -40.2476 -40.2359 -40.1595 -40.1377 -40.1252 -40.1152
   -40.1000 -40.0914 -40.0866 -40.0620 -39.9729 -39.9633 -33.2153 -33.2107
   -33.1600 -33.0529 -32.9714 -32.9628 -32.9471 -32.9070 -32.9013 -32.8606
   -32.8122 -32.8029 -32.7549 -32.6832 -32.5413 -32.5317 -32.4927 -32.4490
    -3.6548  -2.6176  -2.5370  -2.5109  -2.3743  -2.2177  -2.1966  -2.1361
    -2.0551  -1.9838  -1.8976  -1.8863  -1.5127  -1.4167  -1.2989  -0.6405
    -0.5348  -0.4328  -0.1017   0.1268   0.2215   0.3278   0.3371   0.4003
     0.4725   0.6847   0.8976   0.9243   0.9487   1.2195   1.3288   1.3774
     1.4502   1.6132   1.6903   1.8476   2.0842   2.2071   2.2719   2.3378
     2.5106   2.6213   2.7126   2.7605   3.0095   3.1712   3.3156   3.4991
     3.6812   3.6919   3.8405   4.0556   4.2428   4.3298   4.4581   4.5061
     4.5710   4.7420   4.8730   4.8900

          k = 0.0152-0.0258 0.0000 ( 30237 PWs)   bands (ev):

   -70.5832 -70.5511 -70.1629 -70.1585 -70.1312 -70.1270 -58.9251 -58.8719
   -58.8495 -58.7982 -58.7578 -58.6839 -40.6963 -40.6384 -40.5988 -40.5658
   -40.5213 -40.3558 -40.2779 -40.2660 -40.1639 -40.1424 -40.1227 -40.1181
   -40.0975 -40.0947 -40.0833 -40.0593 -39.9423 -39.9330 -33.2674 -33.2197
   -33.1507 -33.1092 -33.0275 -32.9700 -32.9511 -32.9002 -32.8949 -32.8641
   -32.8068 -32.8042 -32.7472 -32.6198 -32.5459 -32.4869 -32.4703 -32.3866
    -3.8867  -2.7562  -2.7030  -2.6934  -2.5749  -2.4244  -2.3060  -2.2670
    -2.2263  -2.1061  -2.0541  -2.0062  -1.6314  -1.6232  -1.5386  -0.6330
    -0.5732  -0.4997   0.1156   0.1738   0.2266   0.2637   0.3129   0.4936
     0.5463   0.7245   0.9259   0.9603   1.0796   1.1008   1.3264   1.4577
     1.6435   1.6707   1.7404   1.8167   2.2247   2.4251   2.4520   2.4718
     2.7337   2.8276   2.9908   3.0370   3.2064   3.3276   3.6724   3.8790
     3.8922   3.9453   4.0680   4.1644   4.3698   4.4467   4.6304   4.6849
     4.7716   4.8563   5.0677   5.0775

          k = 0.0303-0.0169 0.0000 ( 30229 PWs)   bands (ev):

   -70.5832 -70.5511 -70.1629 -70.1585 -70.1312 -70.1270 -58.9252 -58.8719
   -58.8496 -58.7982 -58.7579 -58.6838 -40.6958 -40.6381 -40.5986 -40.5647
   -40.5209 -40.3558 -40.2774 -40.2655 -40.1630 -40.1413 -40.1225 -40.1185
   -40.0972 -40.0943 -40.0833 -40.0592 -39.9423 -39.9330 -33.2688 -33.2219
   -33.1517 -33.1101 -33.0286 -32.9699 -32.9526 -32.9000 -32.8951 -32.8659
   -32.8082 -32.8053 -32.7481 -32.6199 -32.5462 -32.4869 -32.4704 -32.3867
    -3.8257  -2.7270  -2.6692  -2.6263  -2.5222  -2.3642  -2.2866  -2.2084
    -2.1984  -2.0725  -2.0318  -1.9616  -1.6313  -1.5068  -1.5051  -0.6142
    -0.5863  -0.4722   0.0819   0.1977   0.2155   0.2433   0.3603   0.5101
     0.5573   0.6492   0.9399   0.9810   1.0955   1.1134   1.3075   1.3935
     1.6306   1.6435   1.6906   1.7713   2.1983   2.3154   2.4353   2.4578
     2.6532   2.6987   2.9420   3.0481   3.1394   3.2547   3.6849   3.7334
     3.7477   3.8699   4.1181   4.1507   4.2924   4.3208   4.4537   4.7015
     4.7612   4.8554   4.9806   5.0157

          k = 0.0303 0.0004 0.0000 ( 30228 PWs)   bands (ev):

   -70.5850 -70.5493 -70.1647 -70.1603 -70.1294 -70.1251 -58.9296 -58.8762
   -58.8452 -58.7939 -58.7622 -58.6795 -40.7143 -40.6401 -40.5964 -40.5660
   -40.5187 -40.3361 -40.2958 -40.2836 -40.1644 -40.1428 -40.1208 -40.1204
   -40.0957 -40.0952 -40.0812 -40.0574 -39.9229 -39.9137 -33.3062 -33.2279
   -33.1482 -33.1460 -33.0653 -32.9744 -32.9572 -32.8957 -32.8914 -32.8708
   -32.8127 -32.8020 -32.7447 -32.5802 -32.5499 -32.4833 -32.4314 -32.3474
    -3.8817  -2.7531  -2.7365  -2.6511  -2.5696  -2.4196  -2.2820  -2.2669
    -2.2308  -2.0998  -2.0960  -1.9749  -1.6277  -1.6176  -1.5354  -0.6047
    -0.5815  -0.5073   0.1842   0.2054   0.2153   0.2223   0.4645   0.5708
     0.5984   0.6050   0.9383   1.0014   1.1112   1.1839   1.1855   1.3168
     1.4773   1.7161   1.7907   1.8627   2.2346   2.2758   2.4743   2.5072
     2.6323   2.7416   3.0122   3.1473   3.1518   3.4479   3.7320   3.8449
     3.9180   3.9874   4.0855   4.0928   4.2445   4.2842   4.5344   4.7701
     4.8386   4.9554   4.9857   5.1974

          k = 0.0303 0.0178 0.0000 ( 30203 PWs)   bands (ev):

   -70.5856 -70.5486 -70.1653 -70.1609 -70.1287 -70.1245 -58.9311 -58.8777
   -58.8438 -58.7923 -58.7637 -58.6780 -40.7199 -40.6404 -40.5954 -40.5649
   -40.5172 -40.3293 -40.3014 -40.2892 -40.1637 -40.1419 -40.1218 -40.1193
   -40.0956 -40.0942 -40.0805 -40.0567 -39.9162 -39.9071 -33.3207 -33.2328
   -33.1604 -33.1476 -33.0791 -32.9764 -32.9602 -32.8943 -32.8903 -32.8747
   -32.8161 -32.8025 -32.7449 -32.5669 -32.5516 -32.4821 -32.4182 -32.3341
    -3.8188  -2.7415  -2.6617  -2.6006  -2.5157  -2.3567  -2.2593  -2.2163
    -2.1908  -2.0790  -2.0612  -1.9313  -1.6149  -1.5089  -1.5029  -0.5979
    -0.5401  -0.5201   0.1897   0.1926   0.2224   0.2513   0.5317   0.5567
     0.5867   0.6329   0.9234   1.0037   1.1018   1.1802   1.2205   1.2483
     1.3644   1.6442   1.7826   1.8447   2.1863   2.2137   2.4067   2.4863
     2.5475   2.6394   2.8752   3.1332   3.1468   3.4218   3.5605   3.7514
     3.8956   3.9180   3.9693   4.1137   4.1446   4.2737   4.5791   4.5885
     4.7536   4.8959   4.9683   5.0664

          k = 0.0303 0.0351 0.0000 ( 30181 PWs)   bands (ev):

   -70.5849 -70.5493 -70.1647 -70.1603 -70.1294 -70.1251 -58.9299 -58.8763
   -58.8454 -58.7937 -58.7624 -58.6794 -40.7124 -40.6391 -40.5958 -40.5618
   -40.5169 -40.3359 -40.2941 -40.2818 -40.1611 -40.1391 -40.1215 -40.1194
   -40.0943 -40.0942 -40.0813 -40.0573 -39.9228 -39.9136 -33.3111 -33.2357
   -33.1519 -33.1498 -33.0690 -32.9765 -32.9605 -32.8962 -32.8914 -32.8770
   -32.8178 -32.8063 -32.7481 -32.5809 -32.5510 -32.4834 -32.4318 -32.3478
    -3.6423  -2.6290  -2.5445  -2.4605  -2.3660  -2.1851  -2.1711  -2.1387
    -2.0544  -1.9910  -1.9610  -1.8172  -1.4953  -1.4191  -1.2838  -0.5992
    -0.4998  -0.4799   0.0388   0.1576   0.2306   0.3222   0.4392   0.5340
     0.5942   0.6643   0.9520   1.0527   1.0818   1.0954   1.1336   1.2127
     1.4864   1.5693   1.6232   1.6902   2.0436   2.1585   2.2351   2.3179
     2.4257   2.5219   2.6399   3.0428   3.0713   3.0717   3.2364   3.4279
     3.5301   3.8655   3.8771   3.9472   4.0363   4.2865   4.3010   4.5718
     4.5977   4.7868   4.8524   4.8562

          k = 0.0303 0.0525 0.0000 ( 30195 PWs)   bands (ev):

   -70.5831 -70.5511 -70.1628 -70.1585 -70.1312 -70.1270 -58.9257 -58.8723
   -58.8499 -58.7980 -58.7583 -58.6837 -40.6923 -40.6363 -40.5977 -40.5570
   -40.5181 -40.3557 -40.2744 -40.2622 -40.1573 -40.1349 -40.1209 -40.1195
   -40.0959 -40.0917 -40.0834 -40.0591 -39.9422 -39.9329 -33.2776 -33.2356
   -33.1584 -33.1164 -33.0354 -32.9747 -32.9576 -32.9009 -32.8947 -32.8769
   -32.8172 -32.8124 -32.7538 -32.6209 -32.5481 -32.4870 -32.4708 -32.3871
    -3.3670  -2.4218  -2.3975  -2.2691  -2.1422  -2.0414  -2.0153  -1.9256
    -1.8781  -1.8396  -1.7738  -1.6369  -1.2804  -1.2665  -1.0319  -0.5827
    -0.4825  -0.3919  -0.1936   0.0103   0.2740   0.3126   0.3918   0.4315
     0.4703   0.7450   0.9486   0.9741   1.0010   1.0367   1.0857   1.2363
     1.3966   1.4865   1.6112   1.6617   1.8548   1.9567   2.0198   2.1664
     2.2435   2.3301   2.5216   2.5747   2.6516   2.7375   2.9705   3.0584
     3.3895   3.5641   3.7505   3.7515   3.9078   4.0401   4.0996   4.4448
     4.4688   4.6281   4.7348   4.7834

          k = 0.0303 0.0698 0.0000 ( 30214 PWs)   bands (ev):

   -70.5801 -70.5541 -70.1599 -70.1556 -70.1341 -70.1299 -58.9190 -58.8656
   -58.8571 -58.8049 -58.7517 -58.6906 -40.6611 -40.6322 -40.6010 -40.5514
   -40.5211 -40.3872 -40.2437 -40.2317 -40.1526 -40.1296 -40.1239 -40.1162
   -40.0992 -40.0882 -40.0868 -40.0622 -39.9732 -39.9637 -33.2320 -33.2221
   -33.1667 -33.0610 -32.9803 -32.9706 -32.9519 -32.9073 -32.9004 -32.8738
   -32.8199 -32.8138 -32.7610 -32.6833 -32.5432 -32.5320 -32.4926 -32.4486
    -3.0216  -2.2484  -2.1457  -2.0687  -1.9435  -1.8924  -1.8251  -1.6924
    -1.6475  -1.6125  -1.4844  -1.4385  -1.1012  -0.9620  -0.9555  -0.5238
    -0.4115  -0.3735  -0.2988  -0.2006   0.1625   0.1739   0.2342   0.3435
     0.5630   0.6713   0.8303   0.8519   0.8568   0.9404   0.9997   1.2191
     1.2724   1.4712   1.5214   1.6218   1.6596   1.7714   1.8598   1.9209
     2.0108   2.0792   2.1982   2.3391   2.3994   2.5935   2.8886   2.9712
     3.0631   3.2649   3.4511   3.6155   3.8802   3.8809   3.9219   4.2811
     4.4333   4.5235   4.6093   4.6896

          k = 0.0303-0.1210 0.0000 ( 30199 PWs)   bands (ev):

   -70.5763 -70.5579 -70.1561 -70.1518 -70.1379 -70.1337 -58.9099 -58.8663
   -58.8568 -58.8138 -58.7428 -58.6995 -40.6273 -40.6209 -40.6055 -40.5456
   -40.5259 -40.4283 -40.2041 -40.1923 -40.1475 -40.1284 -40.1240 -40.1117
   -40.1039 -40.0912 -40.0839 -40.0663 -40.0137 -40.0039 -33.2245 -33.1764
   -33.1468 -32.9872 -32.9637 -32.9443 -32.9168 -32.9105 -32.9018 -32.8676
   -32.8278 -32.8076 -32.7687 -32.7631 -32.6108 -32.5370 -32.5268 -32.4998
    -2.6559  -2.2043  -1.8830  -1.8757  -1.8249  -1.7065  -1.6583  -1.4814
    -1.4479  -1.3715  -1.3290  -1.1477  -0.9831  -0.8952  -0.7712  -0.6868
    -0.4204  -0.3724  -0.3541  -0.1105  -0.0485   0.0502   0.1725   0.3282
     0.4673   0.6568   0.6763   0.7277   0.7325   0.8094   0.9076   1.0712
     1.1874   1.2186   1.2699   1.3583   1.5259   1.5904   1.6768   1.6898
     1.9139   1.9886   2.1787   2.4718   2.5571   2.6475   2.8059   2.8394
     2.9646   3.1075   3.3877   3.5588   3.6849   3.8850   3.9111   3.9953
     4.2483   4.2953   4.4172   4.4584

          k = 0.0303-0.1037 0.0000 ( 30194 PWs)   bands (ev):

   -70.5719 -70.5624 -70.1517 -70.1474 -70.1423 -70.1381 -58.8995 -58.8768
   -58.8465 -58.8240 -58.7325 -58.7098 -40.6219 -40.6112 -40.5742 -40.5400
   -40.5324 -40.4762 -40.1582 -40.1469 -40.1424 -40.1339 -40.1184 -40.1100
   -40.1068 -40.0963 -40.0793 -40.0712 -40.0606 -40.0506 -33.2137 -33.1851
   -33.0580 -32.9541 -32.9357 -32.9230 -32.9183 -32.8990 -32.8607 -32.8526
   -32.8353 -32.8176 -32.7983 -32.7761 -32.7010 -32.6186 -32.5276 -32.5080
    -2.3597  -2.3512  -1.7924  -1.7610  -1.7134  -1.6947  -1.5913  -1.3921
    -1.3014  -1.2883  -1.2508  -1.0153  -0.9393  -0.9043  -0.7246  -0.7138
    -0.6098  -0.5482  -0.1938  -0.1427  -0.0627   0.1757   0.2826   0.2928
     0.3478   0.4981   0.5486   0.6225   0.6236   0.7917   0.8057   0.8307
     1.0988   1.1685   1.2288   1.2353   1.4308   1.4896   1.6969   1.7289
     1.8391   2.1678   2.3652   2.3913   2.5324   2.7148   2.7427   3.0841
     3.0858   3.2751   3.3465   3.5411   3.5477   3.6071   3.9494   3.9684
     4.0748   4.0820   4.1746   4.3213

          k = 0.0303-0.0863 0.0000 ( 30158 PWs)   bands (ev):

   -70.5672 -70.5671 -70.1471 -70.1470 -70.1428 -70.1427 -58.8881 -58.8879
   -58.8355 -58.8350 -58.7214 -58.7208 -40.6174 -40.6164 -40.5403 -40.5353
   -40.5270 -40.5238 -40.1410 -40.1375 -40.1188 -40.1158 -40.1092 -40.1076
   -40.1032 -40.1018 -40.0979 -40.0971 -40.0764 -40.0745 -33.2003 -33.1935
   -32.9615 -32.9537 -32.9406 -32.9304 -32.9272 -32.9265 -32.8468 -32.8434
   -32.8029 -32.7971 -32.7868 -32.7836 -32.7206 -32.7143 -32.5185 -32.5166
    -2.6695  -2.2038  -1.9101  -1.8753  -1.8545  -1.6653  -1.6529  -1.4688
    -1.3967  -1.3816  -1.3368  -1.1989  -0.9978  -0.9046  -0.7912  -0.7390
    -0.4470  -0.4225  -0.2942  -0.0952  -0.0522  -0.0183   0.2219   0.2347
     0.4971   0.5328   0.6139   0.6600   0.6895   0.7816   0.8416   0.8977
     0.9678   1.2623   1.3808   1.4116   1.6664   1.6688   1.7740   1.8172
     1.8216   2.1880   2.4163   2.5663   2.6298   2.7448   2.8539   2.8712
     2.9752   3.3997   3.4022   3.4928   3.6059   3.6986   3.9952   4.0549
     4.1257   4.1838   4.2623   4.5019

          k = 0.0303-0.0690 0.0000 ( 30156 PWs)   bands (ev):

   -70.5720 -70.5623 -70.1518 -70.1475 -70.1423 -70.1380 -58.8991 -58.8766
   -58.8459 -58.8244 -58.7318 -58.7102 -40.6237 -40.6111 -40.5784 -40.5479
   -40.5305 -40.4740 -40.1620 -40.1510 -40.1479 -40.1326 -40.1252 -40.1075
   -40.1067 -40.0958 -40.0826 -40.0699 -40.0584 -40.0484 -33.2012 -33.1858
   -33.0476 -32.9432 -32.9347 -32.9295 -32.9179 -32.8911 -32.8597 -32.8490
   -32.8340 -32.8091 -32.7910 -32.7755 -32.7048 -32.6227 -32.5252 -32.5092
    -3.0376  -2.2559  -2.1329  -2.1097  -1.9884  -1.8453  -1.8271  -1.6628
    -1.6393  -1.6208  -1.5320  -1.4669  -1.0990  -0.9798  -0.9588  -0.5813
    -0.4617  -0.3883  -0.3326  -0.2337   0.0894   0.1237   0.2160   0.3785
     0.5128   0.6584   0.6658   0.7231   0.7703   0.7811   1.0170   1.1061
     1.2734   1.4406   1.6073   1.6169   1.6932   1.8328   1.9786   2.0543
     2.1747   2.3094   2.5022   2.5122   2.5571   2.6484   2.6950   3.0727
     3.2513   3.3251   3.6008   3.6432   3.8154   3.8252   4.0952   4.2066
     4.2253   4.3628   4.6659   4.7482

          k = 0.0303-0.0516 0.0000 ( 30209 PWs)   bands (ev):

   -70.5764 -70.5579 -70.1562 -70.1519 -70.1379 -70.1336 -58.9094 -58.8659
   -58.8562 -58.8141 -58.7422 -58.6999 -40.6295 -40.6255 -40.6061 -40.5551
   -40.5268 -40.4272 -40.2082 -40.1968 -40.1543 -40.1321 -40.1287 -40.1112
   -40.1035 -40.0910 -40.0873 -40.0657 -40.0126 -40.0027 -33.2084 -33.1719
   -33.1355 -32.9786 -32.9536 -32.9411 -32.9180 -32.9094 -32.8953 -32.8551
   -32.8223 -32.7973 -32.7651 -32.7644 -32.6127 -32.5352 -32.5279 -32.5004
    -3.3829  -2.4221  -2.3886  -2.3160  -2.1318  -2.1023  -2.0099  -1.9394
    -1.8422  -1.8303  -1.7847  -1.6821  -1.2857  -1.2691  -1.0545  -0.6443
    -0.4724  -0.3935  -0.3083  -0.0379   0.2239   0.2381   0.3227   0.4439
     0.4628   0.6755   0.7104   0.8171   0.8861   1.0142   1.1859   1.3337
     1.4303   1.5030   1.8276   1.8427   1.9302   2.0336   2.0518   2.1721
     2.1860   2.5084   2.5246   2.6539   2.8286   2.8292   2.8699   3.2317
     3.4001   3.7010   3.7695   3.8552   3.9181   4.0642   4.3093   4.3144
     4.4090   4.6203   4.6752   4.9510

          k = 0.0303-0.0343 0.0000 ( 30191 PWs)   bands (ev):

   -70.5802 -70.5540 -70.1600 -70.1556 -70.1341 -70.1299 -58.9183 -58.8651
   -58.8566 -58.8051 -58.7510 -58.6908 -40.6655 -40.6345 -40.6019 -40.5609
   -40.5236 -40.3869 -40.2476 -40.2359 -40.1595 -40.1377 -40.1252 -40.1152
   -40.1000 -40.0914 -40.0866 -40.0620 -39.9729 -39.9633 -33.2153 -33.2107
   -33.1600 -33.0529 -32.9714 -32.9628 -32.9471 -32.9070 -32.9013 -32.8606
   -32.8122 -32.8029 -32.7549 -32.6832 -32.5413 -32.5317 -32.4927 -32.4490
    -3.6548  -2.6176  -2.5370  -2.5109  -2.3743  -2.2177  -2.1966  -2.1361
    -2.0551  -1.9838  -1.8976  -1.8863  -1.5127  -1.4167  -1.2989  -0.6405
    -0.5348  -0.4328  -0.1017   0.1268   0.2215   0.3278   0.3371   0.4003
     0.4725   0.6847   0.8976   0.9243   0.9487   1.2195   1.3288   1.3774
     1.4502   1.6132   1.6903   1.8476   2.0842   2.2071   2.2719   2.3378
     2.5106   2.6213   2.7126   2.7605   3.0095   3.1712   3.3156   3.4991
     3.6812   3.6919   3.8405   4.0556   4.2428   4.3298   4.4581   4.5061
     4.5710   4.7420   4.8730   4.8900

          k = 0.0455-0.0254 0.0000 ( 30169 PWs)   bands (ev):

   -70.5802 -70.5540 -70.1600 -70.1556 -70.1341 -70.1299 -58.9184 -58.8652
   -58.8567 -58.8050 -58.7512 -58.6907 -40.6646 -40.6340 -40.6017 -40.5589
   -40.5230 -40.3870 -40.2468 -40.2350 -40.1580 -40.1359 -40.1249 -40.1157
   -40.0998 -40.0906 -40.0867 -40.0621 -39.9730 -39.9634 -33.2188 -33.2132
   -33.1614 -33.0547 -32.9733 -32.9631 -32.9493 -32.9069 -32.9012 -32.8635
   -32.8138 -32.8052 -32.7561 -32.6832 -32.5417 -32.5318 -32.4927 -32.4489
    -3.5425  -2.5859  -2.4447  -2.4109  -2.2861  -2.1937  -2.0910  -2.0231
    -2.0014  -1.9185  -1.8508  -1.8024  -1.4917  -1.2377  -1.2248  -0.6115
    -0.5760  -0.3672  -0.1672   0.0511   0.2565   0.3078   0.3702   0.4777
     0.5110   0.5252   0.9272   0.9696   0.9812   1.2156   1.2177   1.3836
     1.4345   1.5021   1.6417   1.8160   2.0358   2.0454   2.1564   2.3093
     2.3816   2.5299   2.6060   2.7156   2.9849   2.9996   3.1173   3.2647
     3.6355   3.6974   3.7133   3.9997   4.0985   4.2556   4.2724   4.4303
     4.5594   4.6600   4.7363   4.7845

          k = 0.0455-0.0080 0.0000 ( 30211 PWs)   bands (ev):

   -70.5831 -70.5511 -70.1629 -70.1585 -70.1312 -70.1270 -58.9254 -58.8721
   -58.8497 -58.7981 -58.7581 -58.6837 -40.6943 -40.6373 -40.5982 -40.5615
   -40.5197 -40.3558 -40.2762 -40.2641 -40.1605 -40.1385 -40.1218 -40.1192
   -40.0967 -40.0931 -40.0834 -40.0592 -39.9423 -39.9329 -33.2725 -33.2277
   -33.1545 -33.1128 -33.0315 -32.9707 -32.9558 -32.9000 -32.8953 -32.8706
   -32.8120 -32.8083 -32.7505 -32.6203 -32.5470 -32.4869 -32.4706 -32.3868
    -3.6475  -2.6101  -2.5712  -2.4687  -2.3701  -2.1989  -2.1917  -2.1195
    -2.0660  -1.9712  -1.9637  -1.8311  -1.5129  -1.4137  -1.2836  -0.6023
    -0.5600  -0.4240  -0.0258   0.1305   0.2416   0.3108   0.4112   0.4902
     0.5373   0.6025   0.9840   1.0166   1.0745   1.1566   1.2140   1.2341
     1.5550   1.6051   1.6226   1.6596   2.1045   2.1243   2.2452   2.3948
     2.4473   2.5195   2.7109   2.9518   3.0424   3.0716   3.3077   3.3469
     3.6773   3.7986   3.8427   3.9922   4.0679   4.3109   4.3127   4.4262
     4.6723   4.8104   4.8243   4.9824

          k = 0.0455 0.0093 0.0000 ( 30181 PWs)   bands (ev):

   -70.5849 -70.5493 -70.1647 -70.1603 -70.1294 -70.1251 -58.9299 -58.8763
   -58.8454 -58.7937 -58.7624 -58.6794 -40.7124 -40.6391 -40.5958 -40.5618
   -40.5169 -40.3359 -40.2941 -40.2818 -40.1611 -40.1391 -40.1215 -40.1194
   -40.0943 -40.0942 -40.0813 -40.0573 -39.9228 -39.9136 -33.3111 -33.2357
   -33.1519 -33.1498 -33.0690 -32.9765 -32.9605 -32.8962 -32.8914 -32.8770
   -32.8178 -32.8063 -32.7481 -32.5809 -32.5510 -32.4834 -32.4318 -32.3478
    -3.6423  -2.6290  -2.5445  -2.4605  -2.3660  -2.1851  -2.1711  -2.1387
    -2.0544  -1.9910  -1.9610  -1.8172  -1.4953  -1.4191  -1.2838  -0.5992
    -0.4998  -0.4799   0.0388   0.1576   0.2306   0.3222   0.4392   0.5340
     0.5942   0.6643   0.9520   1.0527   1.0818   1.0954   1.1336   1.2127
     1.4864   1.5693   1.6232   1.6902   2.0436   2.1585   2.2351   2.3179
     2.4257   2.5219   2.6399   3.0428   3.0713   3.0717   3.2364   3.4279
     3.5301   3.8655   3.8771   3.9472   4.0363   4.2865   4.3010   4.5718
     4.5977   4.7868   4.8524   4.8561

          k = 0.0455 0.0267 0.0000 ( 30213 PWs)   bands (ev):

   -70.5856 -70.5486 -70.1653 -70.1609 -70.1287 -70.1245 -58.9316 -58.8779
   -58.8441 -58.7923 -58.7640 -58.6779 -40.7178 -40.6393 -40.5947 -40.5601
   -40.5151 -40.3291 -40.2996 -40.2871 -40.1601 -40.1379 -40.1222 -40.1182
   -40.0941 -40.0931 -40.0806 -40.0565 -39.9160 -39.9069 -33.3262 -33.2416
   -33.1643 -33.1525 -33.0833 -32.9805 -32.9623 -32.8958 -32.8896 -32.8818
   -32.8219 -32.8075 -32.7489 -32.5678 -32.5528 -32.4823 -32.4188 -32.3347
    -3.5280  -2.5970  -2.4195  -2.3808  -2.2782  -2.1546  -2.0722  -2.0393
    -1.9741  -1.9387  -1.8840  -1.7501  -1.4662  -1.2422  -1.2123  -0.5810
    -0.5110  -0.4412  -0.0232   0.1388   0.2495   0.3479   0.3981   0.5285
     0.6979   0.7795   0.8200   1.0009   1.0448   1.0598   1.1373   1.2631
     1.4661   1.4754   1.5544   1.6289   1.9215   2.1329   2.1423   2.1685
     2.2779   2.4436   2.5800   2.7970   2.9955   3.0387   3.0760   3.3080
     3.3265   3.7112   3.7288   3.9650   3.9823   4.2724   4.3761   4.4647
     4.5421   4.6716   4.7496   4.7648

          k = 0.0455 0.0440 0.0000 ( 30207 PWs)   bands (ev):

   -70.5849 -70.5493 -70.1646 -70.1602 -70.1294 -70.1252 -58.9302 -58.8766
   -58.8457 -58.7937 -58.7627 -58.6794 -40.7102 -40.6379 -40.5952 -40.5568
   -40.5149 -40.3357 -40.2923 -40.2797 -40.1577 -40.1353 -40.1214 -40.1183
   -40.0933 -40.0928 -40.0813 -40.0571 -39.9226 -39.9134 -33.3167 -33.2445
   -33.1564 -33.1539 -33.0733 -32.9824 -32.9611 -32.8981 -32.8903 -32.8841
   -32.8236 -32.8111 -32.7521 -32.5818 -32.5522 -32.4835 -32.4324 -32.3484
    -3.3128  -2.4697  -2.2773  -2.2312  -2.1177  -2.0589  -1.9354  -1.8778
    -1.8282  -1.8155  -1.7334  -1.6117  -1.3239  -1.1202  -1.0055  -0.5637
    -0.4655  -0.4092  -0.1754   0.0269   0.2518   0.2847   0.4517   0.4678
     0.5806   0.8392   0.8763   0.8950   0.9755   1.0390   1.1078   1.2501
     1.3729   1.4196   1.5654   1.6393   1.7459   1.9540   1.9758   2.0675
     2.1606   2.2252   2.4177   2.5569   2.6195   2.7254   2.9398   3.1137
     3.2207   3.4273   3.6261   3.8177   3.9109   4.0801   4.1947   4.3130
     4.5336   4.5898   4.6310   4.6660

          k = 0.0455 0.0614 0.0000 ( 30217 PWs)   bands (ev):

   -70.5830 -70.5511 -70.1628 -70.1584 -70.1312 -70.1270 -58.9260 -58.8724
   -58.8503 -58.7980 -58.7586 -58.6837 -40.6904 -40.6352 -40.5972 -40.5526
   -40.5165 -40.3556 -40.2727 -40.2603 -40.1544 -40.1315 -40.1201 -40.1189
   -40.0952 -40.0905 -40.0835 -40.0590 -39.9422 -39.9328 -33.2827 -33.2434
   -33.1623 -33.1199 -33.0393 -32.9811 -32.9572 -32.9024 -32.8937 -32.8831
   -32.8223 -32.8165 -32.7572 -32.6214 -32.5492 -32.4871 -32.4711 -32.3874
    -3.0145  -2.2560  -2.1141  -2.0585  -1.9374  -1.8677  -1.8426  -1.6796
    -1.6641  -1.6020  -1.4663  -1.4265  -1.0806  -0.9798  -0.9509  -0.4710
    -0.4111  -0.3375  -0.3294  -0.1396   0.1100   0.2622   0.2988   0.3444
     0.5439   0.7162   0.7784   0.8634   0.9057   0.9609   1.0453   1.1646
     1.2838   1.4269   1.5384   1.5626   1.6720   1.6861   1.8035   1.9533
     2.0610   2.0983   2.1307   2.2189   2.2889   2.6063   2.8942   2.9711
     3.0080   3.1803   3.4326   3.7471   3.7590   3.9471   3.9518   4.2481
     4.4821   4.5277   4.5839   4.6389

          k = 0.0455-0.1295 0.0000 ( 30208 PWs)   bands (ev):

   -70.5801 -70.5541 -70.1599 -70.1555 -70.1341 -70.1299 -58.9191 -58.8657
   -58.8574 -58.8048 -58.7519 -58.6905 -40.6595 -40.6314 -40.6006 -40.5479
   -40.5202 -40.3873 -40.2423 -40.2301 -40.1505 -40.1271 -40.1235 -40.1154
   -40.0989 -40.0872 -40.0869 -40.0622 -39.9734 -39.9639 -33.2380 -33.2260
   -33.1693 -33.0638 -32.9833 -32.9761 -32.9513 -32.9079 -32.8998 -32.8785
   -32.8228 -32.8177 -32.7633 -32.6834 -32.5439 -32.5320 -32.4926 -32.4486
    -2.6647  -1.9975  -1.9937  -1.8808  -1.7643  -1.7412  -1.6419  -1.5068
    -1.4201  -1.3980  -1.2824  -1.1569  -1.0591  -0.7982  -0.7889  -0.6478
    -0.4447  -0.3706  -0.2624  -0.1096   0.0196   0.0832   0.1523   0.1827
     0.4773   0.5977   0.6791   0.7186   0.7381   0.7473   1.0290   1.0464
     1.1345   1.2305   1.3371   1.3716   1.5618   1.5845   1.6364   1.6924
     1.8056   1.9957   2.2132   2.2919   2.4915   2.6588   2.7016   2.8570
     2.9096   3.0400   3.4142   3.6380   3.7781   3.8324   3.9651   4.1196
     4.3764   4.4175   4.5832   4.5900

          k = 0.0455-0.1121 0.0000 ( 30202 PWs)   bands (ev):

   -70.5763 -70.5579 -70.1561 -70.1518 -70.1379 -70.1337 -58.9101 -58.8664
   -58.8569 -58.8137 -58.7430 -58.6994 -40.6268 -40.6197 -40.6054 -40.5431
   -40.5258 -40.4287 -40.2030 -40.1911 -40.1461 -40.1285 -40.1222 -40.1111
   -40.1041 -40.0913 -40.0833 -40.0665 -40.0140 -40.0043 -33.2284 -33.1772
   -33.1498 -32.9890 -32.9675 -32.9438 -32.9164 -32.9107 -32.9036 -32.8704
   -32.8293 -32.8101 -32.7700 -32.7627 -32.6104 -32.5372 -32.5269 -32.4997
    -2.3205  -2.0757  -1.8030  -1.7166  -1.6316  -1.5898  -1.4622  -1.3409
    -1.3315  -1.2973  -1.2102  -1.1160  -0.8635  -0.8544  -0.7688  -0.6838
    -0.4753  -0.3649  -0.2537  -0.2414  -0.0308   0.1056   0.2051   0.2784
     0.2804   0.4378   0.4423   0.4866   0.5888   0.6050   0.7871   0.8870
     1.0921   1.1493   1.1949   1.3065   1.3380   1.4376   1.6790   1.6858
     1.8633   1.9314   2.3110   2.4558   2.4680   2.6681   2.7366   2.8699
     3.0632   3.1585   3.5729   3.5958   3.6427   3.9374   3.9968   4.0515
     4.2140   4.3717   4.3792   4.4707

          k = 0.0455-0.0948 0.0000 ( 30175 PWs)   bands (ev):

   -70.5718 -70.5624 -70.1517 -70.1474 -70.1423 -70.1381 -58.8995 -58.8769
   -58.8466 -58.8239 -58.7326 -58.7097 -40.6217 -40.6112 -40.5734 -40.5386
   -40.5328 -40.4766 -40.1574 -40.1460 -40.1416 -40.1345 -40.1173 -40.1105
   -40.1065 -40.0964 -40.0789 -40.0714 -40.0610 -40.0510 -33.2156 -33.1849
   -33.0595 -32.9559 -32.9354 -32.9214 -32.9191 -32.8998 -32.8616 -32.8526
   -32.8361 -32.8185 -32.7993 -32.7767 -32.7006 -32.6180 -32.5280 -32.5078
    -2.3349  -2.0749  -1.8092  -1.7358  -1.6614  -1.5427  -1.4762  -1.3070
    -1.3036  -1.2575  -1.2379  -1.0899  -0.9925  -0.8820  -0.8568  -0.6327
    -0.4681  -0.4005  -0.1987  -0.1665  -0.0487   0.1117   0.1261   0.2448
     0.2451   0.3145   0.3375   0.4806   0.5130   0.7159   0.8331   0.8471
     0.9611   1.1317   1.1855   1.3055   1.4582   1.5349   1.6948   1.7399
     1.7598   2.2396   2.3418   2.4075   2.5706   2.6259   2.7115   3.1689
     3.2182   3.3091   3.3255   3.5763   3.6483   3.9390   3.9663   4.0986
     4.1498   4.2025   4.3116   4.5499

          k = 0.0455-0.0774 0.0000 ( 30142 PWs)   bands (ev):

   -70.5672 -70.5671 -70.1471 -70.1470 -70.1428 -70.1427 -58.8880 -58.8879
   -58.8355 -58.8349 -58.7215 -58.7207 -40.6175 -40.6164 -40.5405 -40.5345
   -40.5277 -40.5237 -40.1413 -40.1371 -40.1189 -40.1153 -40.1095 -40.1075
   -40.1033 -40.1017 -40.0981 -40.0972 -40.0765 -40.0743 -33.2008 -33.1929
   -32.9616 -32.9517 -32.9427 -32.9298 -32.9275 -32.9265 -32.8468 -32.8426
   -32.8039 -32.7972 -32.7868 -32.7831 -32.7213 -32.7140 -32.5187 -32.5165
    -2.6854  -2.0315  -1.9788  -1.9183  -1.8348  -1.6898  -1.5560  -1.4863
    -1.4549  -1.4272  -1.2774  -1.2133  -1.0792  -0.8515  -0.7551  -0.7458
    -0.4955  -0.3490  -0.3357  -0.0833  -0.0226  -0.0029   0.0726   0.1718
     0.4269   0.5610   0.5884   0.6193   0.6295   0.7666   0.8386   0.9358
     0.9972   1.1689   1.3796   1.4967   1.6881   1.6924   1.7186   1.8722
     1.8759   2.2334   2.4876   2.5572   2.6004   2.7225   2.7998   2.8743
     2.9760   3.4411   3.5011   3.5727   3.6068   3.7243   4.0389   4.1596
     4.1830   4.2176   4.6887   4.7108

          k = 0.0455-0.0601 0.0000 ( 30156 PWs)   bands (ev):

   -70.5720 -70.5623 -70.1518 -70.1475 -70.1423 -70.1380 -58.8991 -58.8766
   -58.8459 -58.8244 -58.7318 -58.7102 -40.6237 -40.6111 -40.5784 -40.5479
   -40.5305 -40.4740 -40.1620 -40.1510 -40.1479 -40.1326 -40.1252 -40.1075
   -40.1067 -40.0958 -40.0826 -40.0699 -40.0584 -40.0484 -33.2012 -33.1858
   -33.0476 -32.9432 -32.9347 -32.9295 -32.9179 -32.8911 -32.8597 -32.8490
   -32.8340 -32.8091 -32.7910 -32.7755 -32.7048 -32.6227 -32.5252 -32.5092
    -3.0376  -2.2559  -2.1329  -2.1097  -1.9884  -1.8453  -1.8271  -1.6628
    -1.6393  -1.6208  -1.5320  -1.4669  -1.0990  -0.9798  -0.9588  -0.5813
    -0.4617  -0.3883  -0.3326  -0.2337   0.0894   0.1237   0.2160   0.3785
     0.5128   0.6584   0.6658   0.7231   0.7703   0.7811   1.0170   1.1061
     1.2734   1.4406   1.6073   1.6169   1.6932   1.8328   1.9786   2.0543
     2.1747   2.3094   2.5022   2.5122   2.5571   2.6484   2.6950   3.0727
     3.2513   3.3251   3.6008   3.6432   3.8154   3.8252   4.0952   4.2066
     4.2253   4.3628   4.6659   4.7482

          k = 0.0455-0.0427 0.0000 ( 30173 PWs)   bands (ev):

   -70.5764 -70.5579 -70.1562 -70.1519 -70.1379 -70.1336 -58.9094 -58.8658
   -58.8563 -58.8140 -58.7422 -58.6997 -40.6293 -40.6251 -40.6061 -40.5543
   -40.5267 -40.4273 -40.2078 -40.1965 -40.1536 -40.1313 -40.1286 -40.1114
   -40.1035 -40.0910 -40.0869 -40.0657 -40.0127 -40.0028 -33.2099 -33.1723
   -33.1365 -32.9794 -32.9538 -32.9421 -32.9179 -32.9094 -32.8959 -32.8563
   -32.8227 -32.7982 -32.7649 -32.7647 -32.6125 -32.5355 -32.5277 -32.5003
    -3.3338  -2.4642  -2.2934  -2.2849  -2.1173  -2.1068  -1.9388  -1.8945
    -1.8122  -1.8056  -1.7332  -1.6727  -1.3513  -1.1126  -1.0273  -0.6291
    -0.5203  -0.3360  -0.3296  -0.0851   0.2045   0.2462   0.3686   0.4639
     0.4825   0.5461   0.8082   0.8416   0.8963   0.9830   1.1690   1.3471
     1.4229   1.5179   1.7375   1.7753   1.8755   1.9911   2.0354   2.1381
     2.1956   2.4107   2.5249   2.6426   2.7160   2.8171   2.8751   3.1650
     3.3866   3.6442   3.6911   3.7936   3.9914   4.0691   4.1718   4.3222
     4.3468   4.4712   4.5948   4.7877

          k = 0.0606-0.0338 0.0000 ( 30188 PWs)   bands (ev):

   -70.5764 -70.5579 -70.1562 -70.1518 -70.1379 -70.1336 -58.9096 -58.8660
   -58.8565 -58.8139 -58.7424 -58.6997 -40.6288 -40.6241 -40.6059 -40.5520
   -40.5264 -40.4276 -40.2069 -40.1954 -40.1519 -40.1293 -40.1285 -40.1119
   -40.1036 -40.0910 -40.0860 -40.0659 -40.0129 -40.0031 -33.2138 -33.1735
   -33.1392 -32.9816 -32.9553 -32.9439 -32.9177 -32.9096 -32.8975 -32.8595
   -32.8239 -32.8007 -32.7657 -32.7643 -32.6119 -32.5361 -32.5273 -32.5002
    -3.1893  -2.4437  -2.1939  -2.1668  -2.0948  -2.0246  -1.7893  -1.7891
    -1.7226  -1.7060  -1.6379  -1.6061  -1.3119  -0.9506  -0.9308  -0.5874
    -0.5221  -0.4182  -0.2548  -0.1778   0.1532   0.2195   0.3699   0.4163
     0.5489   0.5926   0.8377   0.8528   0.9091   0.9254   1.1100   1.3671
     1.3964   1.5352   1.5891   1.6536   1.7299   1.8270   1.9828   2.0180
     2.2143   2.2508   2.3571   2.5236   2.6001   2.6845   2.8749   3.0356
     3.3351   3.5067   3.6257   3.6492   3.7542   4.0050   4.0670   4.1520
     4.2567   4.3403   4.3765   4.4987

          k = 0.0606-0.0165 0.0000 ( 30209 PWs)   bands (ev):

   -70.5802 -70.5541 -70.1600 -70.1556 -70.1341 -70.1299 -58.9187 -58.8654
   -58.8569 -58.8049 -58.7514 -58.6906 -40.6630 -40.6332 -40.6014 -40.5555
   -40.5221 -40.3871 -40.2454 -40.2335 -40.1554 -40.1329 -40.1244 -40.1162
   -40.0995 -40.0894 -40.0867 -40.0621 -39.9731 -39.9636 -33.2250 -33.2174
   -33.1638 -33.0576 -32.9766 -32.9655 -32.9516 -32.9069 -32.9009 -32.8684
   -32.8166 -32.8092 -32.7584 -32.6832 -32.5424 -32.5319 -32.4927 -32.4488
    -3.3255  -2.4604  -2.3174  -2.2472  -2.1156  -2.1009  -1.9321  -1.8716
    -1.8597  -1.7736  -1.7602  -1.6372  -1.3513  -1.1209  -1.0048  -0.5705
    -0.5574  -0.3107  -0.2902  -0.0643   0.2672   0.2704   0.3474   0.4503
     0.4585   0.6484   0.9254   0.9290   1.0006   1.0351   1.1425   1.3045
     1.4000   1.4544   1.6575   1.7067   1.8141   1.9200   2.0120   2.1745
     2.2525   2.3518   2.3941   2.5428   2.6698   2.7385   2.9570   3.0127
     3.4476   3.5863   3.6527   3.7445   3.8200   4.0501   4.0620   4.4133
     4.5189   4.5252   4.6120   4.6666

          k = 0.0606 0.0009 0.0000 ( 30195 PWs)   bands (ev):

   -70.5831 -70.5511 -70.1628 -70.1585 -70.1312 -70.1270 -58.9257 -58.8723
   -58.8499 -58.7980 -58.7583 -58.6837 -40.6923 -40.6363 -40.5977 -40.5570
   -40.5181 -40.3557 -40.2744 -40.2622 -40.1573 -40.1349 -40.1209 -40.1195
   -40.0959 -40.0917 -40.0834 -40.0591 -39.9422 -39.9329 -33.2776 -33.2356
   -33.1584 -33.1164 -33.0354 -32.9747 -32.9576 -32.9009 -32.8947 -32.8769
   -32.8172 -32.8124 -32.7538 -32.6209 -32.5481 -32.4870 -32.4708 -32.3871
    -3.3670  -2.4218  -2.3975  -2.2691  -2.1422  -2.0414  -2.0153  -1.9256
    -1.8781  -1.8396  -1.7738  -1.6369  -1.2804  -1.2665  -1.0319  -0.5827
    -0.4825  -0.3919  -0.1936   0.0103   0.2740   0.3126   0.3918   0.4315
     0.4703   0.7450   0.9486   0.9741   1.0010   1.0367   1.0857   1.2363
     1.3966   1.4865   1.6112   1.6617   1.8548   1.9567   2.0198   2.1664
     2.2435   2.3301   2.5216   2.5746   2.6516   2.7375   2.9705   3.0584
     3.3895   3.5641   3.7505   3.7515   3.9078   4.0401   4.0996   4.4448
     4.4688   4.6281   4.7347   4.7834

          k = 0.0606 0.0182 0.0000 ( 30207 PWs)   bands (ev):

   -70.5849 -70.5493 -70.1646 -70.1602 -70.1294 -70.1252 -58.9302 -58.8766
   -58.8457 -58.7937 -58.7627 -58.6794 -40.7102 -40.6379 -40.5952 -40.5568
   -40.5149 -40.3357 -40.2923 -40.2797 -40.1577 -40.1353 -40.1214 -40.1183
   -40.0933 -40.0928 -40.0813 -40.0571 -39.9226 -39.9134 -33.3167 -33.2445
   -33.1564 -33.1539 -33.0733 -32.9824 -32.9611 -32.8981 -32.8903 -32.8841
   -32.8236 -32.8111 -32.7521 -32.5818 -32.5522 -32.4835 -32.4324 -32.3484
    -3.3128  -2.4697  -2.2773  -2.2312  -2.1177  -2.0589  -1.9354  -1.8778
    -1.8282  -1.8155  -1.7334  -1.6117  -1.3239  -1.1202  -1.0055  -0.5637
    -0.4655  -0.4092  -0.1754   0.0269   0.2518   0.2847   0.4517   0.4678
     0.5806   0.8392   0.8763   0.8950   0.9755   1.0390   1.1078   1.2501
     1.3729   1.4196   1.5654   1.6393   1.7459   1.9540   1.9758   2.0675
     2.1606   2.2252   2.4177   2.5569   2.6195   2.7254   2.9398   3.1137
     3.2207   3.4273   3.6261   3.8177   3.9109   4.0801   4.1947   4.3130
     4.5336   4.5898   4.6310   4.6660

          k = 0.0606 0.0356 0.0000 ( 30211 PWs)   bands (ev):

   -70.5855 -70.5487 -70.1652 -70.1608 -70.1287 -70.1245 -58.9318 -58.8781
   -58.8444 -58.7923 -58.7643 -58.6779 -40.7157 -40.6381 -40.5941 -40.5551
   -40.5131 -40.3288 -40.2978 -40.2850 -40.1570 -40.1344 -40.1215 -40.1171
   -40.0928 -40.0921 -40.0806 -40.0563 -39.9159 -39.9067 -33.3317 -33.2503
   -33.1681 -33.1573 -33.0876 -32.9875 -32.9619 -32.8981 -32.8888 -32.8883
   -32.8277 -32.8123 -32.7529 -32.5688 -32.5539 -32.4824 -32.4194 -32.3353
    -3.1668  -2.4400  -2.1417  -2.1347  -2.0682  -2.0103  -1.7944  -1.7791
    -1.7386  -1.6938  -1.6165  -1.5471  -1.2755  -0.9471  -0.9282  -0.5303
    -0.4538  -0.3895  -0.2213  -0.0353   0.1512   0.3013   0.4416   0.5488
     0.6945   0.7465   0.7765   0.9129   0.9944   1.0398   1.1537   1.2793
     1.2835   1.3072   1.5101   1.5976   1.7541   1.7607   1.8863   1.9002
     2.0773   2.1329   2.1490   2.4157   2.4667   2.6355   2.8959   3.0465
     3.1433   3.2372   3.4772   3.6096   4.0073   4.0379   4.1262   4.2374
     4.2505   4.4010   4.4572   4.6657

          k = 0.0606 0.0529 0.0000 ( 30192 PWs)   bands (ev):

   -70.5849 -70.5493 -70.1646 -70.1602 -70.1294 -70.1252 -58.9305 -58.8767
   -58.8460 -58.7937 -58.7629 -58.6793 -40.7084 -40.6369 -40.5946 -40.5525
   -40.5131 -40.3356 -40.2906 -40.2779 -40.1552 -40.1323 -40.1202 -40.1175
   -40.0925 -40.0918 -40.0812 -40.0570 -39.9225 -39.9133 -33.3214 -33.2521
   -33.1604 -33.1574 -33.0770 -32.9891 -32.9603 -32.9001 -32.8901 -32.8891
   -32.8286 -32.8153 -32.7556 -32.5826 -32.5531 -32.4837 -32.4328 -32.3488
    -2.9385  -2.3329  -2.0180  -1.9828  -1.9779  -1.8675  -1.7081  -1.6525
    -1.6072  -1.4948  -1.4405  -1.3882  -1.1241  -0.9199  -0.8290  -0.4817
    -0.4297  -0.2828  -0.2691  -0.1633   0.0119   0.2690   0.3640   0.5277
     0.5840   0.6973   0.7737   0.8390   0.9395   1.0297   1.1063   1.1354
     1.2948   1.3832   1.4394   1.5090   1.5870   1.6056   1.6840   1.8838
     1.9638   2.0190   2.0720   2.0991   2.2296   2.6362   2.8293   2.8745
     3.0601   3.0895   3.3086   3.5292   3.8423   3.8993   4.0228   4.0950
     4.2643   4.3203   4.4022   4.6288

          k = 0.0606-0.1379 0.0000 ( 30217 PWs)   bands (ev):

   -70.5830 -70.5511 -70.1628 -70.1584 -70.1312 -70.1270 -58.9262 -58.8726
   -58.8505 -58.7980 -58.7587 -58.6837 -40.6889 -40.6344 -40.5968 -40.5493
   -40.5154 -40.3556 -40.2714 -40.2588 -40.1527 -40.1294 -40.1196 -40.1178
   -40.0947 -40.0897 -40.0834 -40.0590 -39.9422 -39.9328 -33.2863 -33.2491
   -33.1651 -33.1225 -33.0422 -32.9864 -32.9564 -32.9036 -32.8929 -32.8876
   -32.8260 -32.8195 -32.7597 -32.6218 -32.5499 -32.4872 -32.4714 -32.3876
    -2.6458  -2.1750  -1.8761  -1.8327  -1.8198  -1.6719  -1.6636  -1.5087
    -1.4599  -1.3180  -1.2736  -1.1177  -1.0197  -0.8988  -0.7370  -0.6254
    -0.3805  -0.3113  -0.2815  -0.2060   0.0528   0.1642   0.2232   0.3173
     0.5648   0.5700   0.6870   0.7370   0.7455   0.8237   1.0451   1.1123
     1.1462   1.1787   1.3100   1.4098   1.4500   1.5166   1.5881   1.7034
     1.7755   2.0119   2.0124   2.2987   2.4153   2.5897   2.6003   2.8608
     2.9390   2.9580   3.3303   3.5957   3.7202   3.8694   3.9363   4.0605
     4.2814   4.3644   4.4039   4.5199

          k = 0.0606-0.1206 0.0000 ( 30208 PWs)   bands (ev):

   -70.5801 -70.5541 -70.1599 -70.1555 -70.1341 -70.1299 -58.9192 -58.8658
   -58.8575 -58.8048 -58.7519 -58.6905 -40.6586 -40.6309 -40.6005 -40.5458
   -40.5197 -40.3874 -40.2414 -40.2292 -40.1494 -40.1257 -40.1233 -40.1146
   -40.0987 -40.0869 -40.0867 -40.0623 -39.9735 -39.9640 -33.2414 -33.2283
   -33.1709 -33.0654 -32.9850 -32.9795 -32.9507 -32.9082 -32.8995 -32.8811
   -32.8244 -32.8199 -32.7647 -32.6834 -32.5444 -32.5320 -32.4926 -32.4486
    -2.3235  -2.0284  -1.8282  -1.7191  -1.6255  -1.5298  -1.4810  -1.3898
    -1.3367  -1.2508  -1.1731  -1.1188  -0.8877  -0.8152  -0.6938  -0.6874
    -0.5677  -0.3426  -0.1633  -0.1561   0.0226   0.1238   0.1403   0.2534
     0.3326   0.4181   0.4376   0.5518   0.6237   0.6292   0.7580   0.9222
     1.0391   1.1097   1.2693   1.3272   1.3321   1.4872   1.5836   1.6518
     1.7877   1.9465   2.1068   2.4466   2.4846   2.6410   2.7504   2.7786
     2.9263   2.9935   3.5390   3.6395   3.8196   3.8314   3.9895   4.0306
     4.3085   4.3519   4.4339   4.4681

          k = 0.0606-0.1032 0.0000 ( 30172 PWs)   bands (ev):

   -70.5763 -70.5579 -70.1561 -70.1518 -70.1379 -70.1337 -58.9101 -58.8664
   -58.8570 -58.8136 -58.7431 -58.6993 -40.6266 -40.6193 -40.6053 -40.5422
   -40.5258 -40.4288 -40.2026 -40.1907 -40.1456 -40.1285 -40.1216 -40.1108
   -40.1042 -40.0914 -40.0830 -40.0665 -40.0141 -40.0044 -33.2298 -33.1775
   -33.1509 -32.9897 -32.9689 -32.9436 -32.9162 -32.9107 -32.9043 -32.8714
   -32.8299 -32.8110 -32.7704 -32.7626 -32.6103 -32.5372 -32.5270 -32.4996
    -2.0699  -2.0243  -1.9280  -1.6124  -1.5208  -1.4623  -1.3921  -1.3115
    -1.3073  -1.2399  -1.1130  -1.0951  -0.9946  -0.9830  -0.8376  -0.5752
    -0.4225  -0.2303  -0.1064  -0.0664   0.0309   0.0494   0.0618   0.0872
     0.1328   0.2382   0.2940   0.3633   0.4681   0.6453   0.8279   0.8577
     1.0036   1.1119   1.1161   1.2611   1.4249   1.4646   1.5802   1.6596
     1.8175   1.9995   2.2146   2.4600   2.5372   2.6397   2.7234   3.0294
[...]
   -32.8286 -32.8153 -32.7556 -32.5826 -32.5531 -32.4837 -32.4328 -32.3488
    -2.9385  -2.3329  -2.0180  -1.9828  -1.9779  -1.8675  -1.7081  -1.6525
    -1.6072  -1.4948  -1.4405  -1.3882  -1.1241  -0.9199  -0.8290  -0.4817
    -0.4297  -0.2828  -0.2691  -0.1633   0.0119   0.2690   0.3640   0.5277
     0.5840   0.6973   0.7737   0.8390   0.9395   1.0297   1.1063   1.1354
     1.2948   1.3832   1.4394   1.5090   1.5870   1.6056   1.6840   1.8838
     1.9638   2.0190   2.0720   2.0991   2.2296   2.6362   2.8293   2.8745
     3.0601   3.0895   3.3086   3.5292   3.8423   3.8993   4.0228   4.0950
     4.2643   4.3203   4.4022   4.6288

          k = 0.0758 0.0445 0.0000 ( 30222 PWs)   bands (ev):

   -70.5855 -70.5487 -70.1652 -70.1608 -70.1287 -70.1245 -58.9321 -58.8783
   -58.8446 -58.7922 -58.7645 -58.6778 -40.7141 -40.6373 -40.5936 -40.5515
   -40.5115 -40.3287 -40.2964 -40.2835 -40.1551 -40.1320 -40.1202 -40.1163
   -40.0920 -40.0913 -40.0804 -40.0562 -39.9158 -39.9065 -33.3357 -33.2567
   -33.1709 -33.1607 -33.0906 -32.9934 -32.9611 -32.8999 -32.8938 -32.8872
   -32.8318 -32.8158 -32.7559 -32.5695 -32.5547 -32.4826 -32.4199 -32.3358
    -2.7979  -2.3566  -1.9757  -1.9459  -1.8605  -1.8330  -1.5950  -1.5921
    -1.5449  -1.3834  -1.3539  -1.2552  -1.0819  -0.8874  -0.7742  -0.5531
    -0.3341  -0.3130  -0.2332  -0.1798  -0.0219   0.2213   0.4049   0.5832
     0.6511   0.6739   0.8387   0.8570   0.8972   1.0304   1.0889   1.2189
     1.2654   1.2686   1.3788   1.4107   1.4298   1.5142   1.5186   1.8146
     1.8995   1.9003   2.0052   2.0350   2.1428   2.6279   2.6962   2.8629
     2.9742   3.0666   3.2015   3.3306   3.7754   3.8571   3.9284   4.0226
     4.0664   4.0909   4.3090   4.4887

          k = 0.0758-0.1464 0.0000 ( 30198 PWs)   bands (ev):

   -70.5848 -70.5493 -70.1646 -70.1602 -70.1294 -70.1252 -58.9306 -58.8769
   -58.8461 -58.7937 -58.7631 -58.6793 -40.7073 -40.6363 -40.5943 -40.5500
   -40.5121 -40.3355 -40.2897 -40.2768 -40.1540 -40.1308 -40.1191 -40.1170
   -40.0920 -40.0912 -40.0812 -40.0569 -39.9225 -39.9132 -33.3242 -33.2564
   -33.1627 -33.1593 -33.0791 -32.9932 -32.9596 -32.9013 -32.8936 -32.8884
   -32.8314 -32.8176 -32.7576 -32.5830 -32.5537 -32.4837 -32.4331 -32.3491
    -2.6037  -2.3311  -1.8975  -1.8649  -1.7457  -1.7281  -1.6068  -1.5144
    -1.4560  -1.3071  -1.1903  -1.0539  -0.9907  -0.9298  -0.7442  -0.5940
    -0.4252  -0.3572  -0.2617  -0.2139   0.1288   0.2058   0.3726   0.5538
     0.5805   0.6582   0.7185   0.8228   0.8374   0.9299   0.9881   1.0734
     1.1514   1.2201   1.2941   1.3422   1.4108   1.4440   1.5418   1.6402
     1.6810   1.8836   2.0594   2.2366   2.2854   2.4455   2.5963   2.8698
     2.9053   3.0266   3.1190   3.4008   3.7075   3.7593   3.9474   4.0149
     4.0219   4.0430   4.2992   4.4653

          k = 0.0758-0.1290 0.0000 ( 30188 PWs)   bands (ev):

   -70.5830 -70.5512 -70.1628 -70.1584 -70.1312 -70.1270 -58.9262 -58.8726
   -58.8506 -58.7980 -58.7588 -58.6836 -40.6884 -40.6342 -40.5966 -40.5480
   -40.5150 -40.3556 -40.2710 -40.2583 -40.1521 -40.1286 -40.1194 -40.1172
   -40.0945 -40.0894 -40.0834 -40.0589 -39.9422 -39.9328 -33.2876 -33.2511
   -33.1661 -33.1234 -33.0432 -32.9884 -32.9561 -32.9041 -32.8926 -32.8892
   -32.8273 -32.8206 -32.7606 -32.6220 -32.5501 -32.4872 -32.4714 -32.3877
    -2.4036  -2.2453  -1.7826  -1.7604  -1.6857  -1.5995  -1.5776  -1.4601
    -1.3995  -1.2435  -1.0820  -1.0801  -0.8520  -0.8301  -0.7943  -0.6629
    -0.4622  -0.3949  -0.3828  -0.1191   0.0593   0.2993   0.3501   0.3963
     0.4443   0.5455   0.5711   0.6401   0.6802   0.7358   0.8748   0.8921
     1.0671   1.1328   1.2642   1.3622   1.4037   1.4315   1.4938   1.6596
     1.7375   1.9525   2.0459   2.3936   2.4184   2.5116   2.5887   2.8071
     2.9123   2.9316   3.3396   3.5666   3.6843   3.8911   3.9436   3.9940
     4.0849   4.1199   4.3494   4.4858

          k = 0.0758-0.1117 0.0000 ( 30208 PWs)   bands (ev):

   -70.5801 -70.5541 -70.1599 -70.1555 -70.1341 -70.1299 -58.9192 -58.8658
   -58.8575 -58.8048 -58.7519 -58.6905 -40.6586 -40.6309 -40.6005 -40.5458
   -40.5197 -40.3874 -40.2414 -40.2292 -40.1494 -40.1257 -40.1233 -40.1146
   -40.0987 -40.0869 -40.0867 -40.0623 -39.9735 -39.9640 -33.2414 -33.2283
   -33.1709 -33.0654 -32.9850 -32.9795 -32.9507 -32.9082 -32.8995 -32.8811
   -32.8244 -32.8199 -32.7647 -32.6834 -32.5444 -32.5320 -32.4926 -32.4486
    -2.3235  -2.0284  -1.8282  -1.7191  -1.6255  -1.5298  -1.4810  -1.3898
    -1.3367  -1.2508  -1.1731  -1.1188  -0.8877  -0.8152  -0.6938  -0.6874
    -0.5677  -0.3426  -0.1633  -0.1561   0.0226   0.1238   0.1403   0.2534
     0.3326   0.4181   0.4376   0.5518   0.6237   0.6292   0.7580   0.9222
     1.0391   1.1097   1.2693   1.3272   1.3321   1.4872   1.5836   1.6518
     1.7877   1.9465   2.1068   2.4466   2.4846   2.6410   2.7504   2.7786
     2.9263   2.9935   3.5390   3.6395   3.8196   3.8314   3.9895   4.0306
     4.3085   4.3519   4.4339   4.4681

          k = 0.0758-0.0943 0.0000 ( 30202 PWs)   bands (ev):

   -70.5763 -70.5579 -70.1561 -70.1518 -70.1379 -70.1337 -58.9101 -58.8664
   -58.8569 -58.8137 -58.7430 -58.6994 -40.6268 -40.6197 -40.6054 -40.5431
   -40.5258 -40.4287 -40.2030 -40.1911 -40.1461 -40.1285 -40.1222 -40.1111
   -40.1041 -40.0913 -40.0833 -40.0665 -40.0140 -40.0043 -33.2284 -33.1772
   -33.1498 -32.9890 -32.9675 -32.9438 -32.9164 -32.9107 -32.9036 -32.8704
   -32.8293 -32.8101 -32.7700 -32.7627 -32.6104 -32.5372 -32.5269 -32.4997
    -2.3205  -2.0757  -1.8030  -1.7166  -1.6316  -1.5898  -1.4622  -1.3409
    -1.3315  -1.2973  -1.2102  -1.1160  -0.8635  -0.8544  -0.7688  -0.6838
    -0.4753  -0.3649  -0.2537  -0.2414  -0.0308   0.1056   0.2051   0.2784
     0.2804   0.4378   0.4423   0.4866   0.5888   0.6050   0.7871   0.8870
     1.0921   1.1493   1.1949   1.3065   1.3380   1.4376   1.6790   1.6858
     1.8633   1.9314   2.3110   2.4558   2.4680   2.6681   2.7366   2.8699
     3.0632   3.1585   3.5729   3.5958   3.6427   3.9374   3.9968   4.0515
     4.2140   4.3717   4.3792   4.4707

          k = 0.0758-0.0770 0.0000 ( 30194 PWs)   bands (ev):

   -70.5719 -70.5624 -70.1517 -70.1474 -70.1423 -70.1381 -58.8995 -58.8768
   -58.8465 -58.8240 -58.7325 -58.7098 -40.6219 -40.6112 -40.5742 -40.5400
   -40.5324 -40.4762 -40.1582 -40.1469 -40.1424 -40.1339 -40.1184 -40.1100
   -40.1068 -40.0963 -40.0793 -40.0712 -40.0606 -40.0506 -33.2137 -33.1851
   -33.0580 -32.9541 -32.9357 -32.9230 -32.9183 -32.8990 -32.8607 -32.8526
   -32.8353 -32.8176 -32.7983 -32.7761 -32.7010 -32.6186 -32.5276 -32.5080
    -2.3597  -2.3512  -1.7924  -1.7610  -1.7134  -1.6947  -1.5913  -1.3921
    -1.3014  -1.2883  -1.2508  -1.0153  -0.9393  -0.9043  -0.7246  -0.7138
    -0.6098  -0.5482  -0.1938  -0.1427  -0.0627   0.1757   0.2826   0.2928
     0.3478   0.4981   0.5486   0.6225   0.6236   0.7917   0.8057   0.8307
     1.0988   1.1685   1.2288   1.2353   1.4308   1.4896   1.6969   1.7289
     1.8391   2.1678   2.3652   2.3913   2.5324   2.7148   2.7427   3.0841
     3.0858   3.2751   3.3465   3.5411   3.5477   3.6071   3.9494   3.9684
     4.0748   4.0820   4.1746   4.3213

          k = 0.0758-0.0596 0.0000 ( 30176 PWs)   bands (ev):

   -70.5672 -70.5671 -70.1471 -70.1470 -70.1428 -70.1427 -58.8880 -58.8880
   -58.8354 -58.8351 -58.7213 -58.7210 -40.6172 -40.6166 -40.5397 -40.5371
   -40.5256 -40.5240 -40.1404 -40.1384 -40.1185 -40.1168 -40.1085 -40.1077
   -40.1029 -40.1020 -40.0975 -40.0971 -40.0760 -40.0749 -33.1989 -33.1949
   -32.9608 -32.9569 -32.9370 -32.9317 -32.9268 -32.9265 -32.8468 -32.8449
   -32.8006 -32.7973 -32.7868 -32.7849 -32.7189 -32.7154 -32.5181 -32.5170
    -2.6185  -2.3850  -1.9005  -1.8947  -1.8387  -1.7905  -1.5776  -1.4626
    -1.4118  -1.3274  -1.2895  -1.1957  -0.9587  -0.8890  -0.8159  -0.7868
    -0.5006  -0.3966  -0.1719  -0.1383  -0.0901  -0.0334   0.3280   0.4222
     0.5713   0.6226   0.6987   0.7186   0.7532   0.8127   0.8460   0.8927
     1.0430   1.2649   1.3318   1.3661   1.5943   1.6156   1.6723   1.6905
     1.8601   2.2460   2.2577   2.5001   2.7033   2.7358   2.8881   2.9417
     3.0042   3.2805   3.3011   3.3545   3.5021   3.5539   3.6749   3.8886
     3.9879   4.0721   4.2084   4.3033

          k =-0.0909 0.0507 0.0000 ( 30178 PWs)   bands (ev):

   -70.5671 -70.5671 -70.1470 -70.1470 -70.1428 -70.1427 -58.8880 -58.8880
   -58.8353 -58.8353 -58.7212 -58.7212 -40.6169 -40.6169 -40.5386 -40.5386
   -40.5246 -40.5246 -40.1395 -40.1395 -40.1178 -40.1178 -40.1080 -40.1080
   -40.1025 -40.1024 -40.0972 -40.0972 -40.0755 -40.0754 -33.1969 -33.1969
   -32.9594 -32.9594 -32.9340 -32.9339 -32.9266 -32.9266 -32.8463 -32.8463
   -32.7984 -32.7984 -32.7861 -32.7861 -32.7170 -32.7170 -32.5176 -32.5176
    -2.5251  -2.5251  -1.9025  -1.9025  -1.8365  -1.8365  -1.5261  -1.5261
    -1.3571  -1.3571  -1.2152  -1.2152  -0.9192  -0.9192  -0.8168  -0.8168
    -0.4405  -0.4405  -0.1635  -0.1635  -0.0500  -0.0500   0.4238   0.4238
     0.6282   0.6282   0.7381   0.7381   0.8530   0.8530   0.9013   0.9013
     1.1505   1.1505   1.3355   1.3355   1.5195   1.5195   1.6265   1.6265
     2.0385   2.0385   2.4022   2.4022   2.7036   2.7036   2.9471   2.9471
     3.1354   3.1354   3.2472   3.2472   3.4068   3.4068   3.7383   3.7383
     3.9426   3.9426   4.2895   4.2895

          k =-0.0909 0.0681 0.0000 ( 30187 PWs)   bands (ev):

   -70.5719 -70.5624 -70.1518 -70.1474 -70.1423 -70.1380 -58.8994 -58.8767
   -58.8464 -58.8241 -58.7324 -58.7099 -40.6224 -40.6112 -40.5755 -40.5423
   -40.5317 -40.4755 -40.1595 -40.1483 -40.1438 -40.1332 -40.1202 -40.1091
   -40.1071 -40.0962 -40.0800 -40.0709 -40.0600 -40.0499 -33.2104 -33.1853
   -33.0554 -32.9509 -32.9360 -32.9250 -32.9179 -32.8973 -32.8595 -32.8525
   -32.8344 -32.8158 -32.7965 -32.7754 -32.7018 -32.6196 -32.5270 -32.5083
    -2.6125  -2.3878  -1.9010  -1.8705  -1.8539  -1.7895  -1.5807  -1.4648
    -1.4161  -1.3455  -1.3108  -1.1599  -0.9634  -0.8682  -0.8063  -0.7857
    -0.4721  -0.3981  -0.1853  -0.1438  -0.1187   0.0062   0.3124   0.4374
     0.5035   0.6637   0.7293   0.7678   0.7718   0.8764   0.8820   1.0330
     1.1036   1.2272   1.2569   1.3305   1.4935   1.5608   1.6364   1.6813
     1.9974   2.0748   2.1920   2.5504   2.5863   2.7170   2.8035   2.9520
     3.0564   3.1229   3.3625   3.4114   3.4693   3.6070   3.7885   3.9249
     3.9366   4.0086   4.2702   4.3362

          k =-0.0909 0.0854 0.0000 ( 30199 PWs)   bands (ev):

   -70.5763 -70.5579 -70.1561 -70.1518 -70.1379 -70.1337 -58.9099 -58.8663
   -58.8568 -58.8138 -58.7428 -58.6995 -40.6273 -40.6209 -40.6055 -40.5456
   -40.5259 -40.4283 -40.2041 -40.1923 -40.1475 -40.1284 -40.1240 -40.1117
   -40.1039 -40.0912 -40.0839 -40.0663 -40.0137 -40.0039 -33.2245 -33.1764
   -33.1469 -32.9872 -32.9637 -32.9443 -32.9168 -32.9105 -32.9017 -32.8676
   -32.8278 -32.8076 -32.7687 -32.7631 -32.6108 -32.5370 -32.5268 -32.4998
    -2.6559  -2.2043  -1.8830  -1.8757  -1.8249  -1.7065  -1.6583  -1.4814
    -1.4479  -1.3715  -1.3290  -1.1477  -0.9831  -0.8952  -0.7712  -0.6868
    -0.4204  -0.3724  -0.3541  -0.1105  -0.0485   0.0502   0.1725   0.3282
     0.4673   0.6568   0.6763   0.7277   0.7325   0.8094   0.9076   1.0712
     1.1874   1.2186   1.2699   1.3583   1.5259   1.5904   1.6768   1.6898
     1.9139   1.9886   2.1787   2.4718   2.5571   2.6475   2.8059   2.8394
     2.9646   3.1075   3.3877   3.5588   3.6849   3.8849   3.9111   3.9953
     4.2483   4.2953   4.4172   4.4584

          k =-0.0909 0.1028 0.0000 ( 30208 PWs)   bands (ev):

   -70.5801 -70.5541 -70.1599 -70.1555 -70.1341 -70.1299 -58.9191 -58.8657
   -58.8574 -58.8048 -58.7519 -58.6905 -40.6595 -40.6314 -40.6006 -40.5479
   -40.5202 -40.3873 -40.2423 -40.2301 -40.1505 -40.1271 -40.1235 -40.1154
   -40.0989 -40.0872 -40.0869 -40.0622 -39.9734 -39.9639 -33.2380 -33.2260
   -33.1693 -33.0638 -32.9833 -32.9761 -32.9513 -32.9079 -32.8998 -32.8785
   -32.8228 -32.8177 -32.7633 -32.6834 -32.5439 -32.5320 -32.4926 -32.4486
    -2.6647  -1.9975  -1.9937  -1.8808  -1.7643  -1.7412  -1.6419  -1.5068
    -1.4201  -1.3980  -1.2824  -1.1569  -1.0591  -0.7982  -0.7889  -0.6478
    -0.4447  -0.3706  -0.2624  -0.1096   0.0196   0.0832   0.1523   0.1827
     0.4773   0.5977   0.6791   0.7186   0.7381   0.7473   1.0290   1.0464
     1.1345   1.2305   1.3371   1.3716   1.5618   1.5845   1.6364   1.6924
     1.8056   1.9957   2.2132   2.2919   2.4915   2.6588   2.7016   2.8570
     2.9096   3.0400   3.4142   3.6380   3.7781   3.8324   3.9651   4.1196
     4.3764   4.4175   4.5832   4.5900

          k =-0.0909 0.1201 0.0000 ( 30217 PWs)   bands (ev):

   -70.5830 -70.5511 -70.1628 -70.1584 -70.1312 -70.1270 -58.9262 -58.8726
   -58.8505 -58.7980 -58.7587 -58.6837 -40.6889 -40.6344 -40.5968 -40.5493
   -40.5154 -40.3556 -40.2714 -40.2588 -40.1527 -40.1294 -40.1196 -40.1178
   -40.0947 -40.0897 -40.0834 -40.0590 -39.9422 -39.9328 -33.2863 -33.2491
   -33.1651 -33.1225 -33.0422 -32.9864 -32.9564 -32.9036 -32.8929 -32.8876
   -32.8260 -32.8195 -32.7597 -32.6218 -32.5499 -32.4872 -32.4714 -32.3876
    -2.6458  -2.1750  -1.8761  -1.8327  -1.8198  -1.6719  -1.6636  -1.5087
    -1.4599  -1.3180  -1.2736  -1.1177  -1.0197  -0.8988  -0.7370  -0.6254
    -0.3805  -0.3113  -0.2815  -0.2060   0.0528   0.1642   0.2232   0.3173
     0.5648   0.5700   0.6870   0.7370   0.7455   0.8237   1.0451   1.1123
     1.1462   1.1787   1.3100   1.4098   1.4500   1.5166   1.5881   1.7034
     1.7755   2.0119   2.0124   2.2987   2.4153   2.5897   2.6003   2.8608
     2.9390   2.9580   3.3303   3.5957   3.7202   3.8694   3.9363   4.0605
     4.2814   4.3644   4.4039   4.5199

          k =-0.0909 0.1375 0.0000 ( 30198 PWs)   bands (ev):

   -70.5848 -70.5493 -70.1646 -70.1602 -70.1294 -70.1252 -58.9306 -58.8769
   -58.8461 -58.7937 -58.7631 -58.6793 -40.7073 -40.6363 -40.5943 -40.5500
   -40.5121 -40.3355 -40.2897 -40.2768 -40.1540 -40.1308 -40.1191 -40.1170
   -40.0920 -40.0912 -40.0812 -40.0569 -39.9225 -39.9132 -33.3242 -33.2564
   -33.1627 -33.1593 -33.0791 -32.9932 -32.9596 -32.9013 -32.8936 -32.8884
   -32.8314 -32.8176 -32.7576 -32.5830 -32.5537 -32.4837 -32.4331 -32.3491
    -2.6037  -2.3311  -1.8975  -1.8649  -1.7457  -1.7281  -1.6068  -1.5144
    -1.4560  -1.3071  -1.1903  -1.0539  -0.9907  -0.9298  -0.7442  -0.5940
    -0.4252  -0.3572  -0.2617  -0.2139   0.1288   0.2058   0.3726   0.5538
     0.5805   0.6582   0.7185   0.8228   0.8374   0.9299   0.9881   1.0734
     1.1514   1.2201   1.2941   1.3422   1.4108   1.4440   1.5418   1.6402
     1.6810   1.8836   2.0594   2.2366   2.2854   2.4455   2.5963   2.8698
     2.9053   3.0266   3.1190   3.4008   3.7075   3.7593   3.9474   4.0149
     4.0219   4.0430   4.2992   4.4653

          k =-0.0909-0.0534 0.0000 ( 30198 PWs)   bands (ev):

   -70.5855 -70.5487 -70.1652 -70.1608 -70.1287 -70.1245 -58.9321 -58.8783
   -58.8447 -58.7922 -58.7645 -58.6778 -40.7135 -40.6369 -40.5934 -40.5502
   -40.5110 -40.3286 -40.2959 -40.2829 -40.1545 -40.1312 -40.1195 -40.1161
   -40.0917 -40.0911 -40.0804 -40.0562 -39.9157 -39.9065 -33.3372 -33.2590
   -33.1719 -33.1620 -33.0918 -32.9956 -32.9607 -32.9005 -32.8957 -32.8869
   -32.8333 -32.8171 -32.7570 -32.5698 -32.5550 -32.4826 -32.4200 -32.3360
    -2.5677  -2.4073  -1.9223  -1.8617  -1.7823  -1.6790  -1.6174  -1.5076
    -1.4714  -1.2776  -1.1453  -1.0430  -1.0020  -0.8980  -0.7328  -0.5846
    -0.4715  -0.4450  -0.2144  -0.1838   0.1178   0.3029   0.4250   0.5476
     0.6874   0.7503   0.8006   0.8163   0.8635   0.9447   1.0142   1.0286
     1.1400   1.2221   1.2926   1.3385   1.3702   1.4804   1.4845   1.5351
     1.6680   1.8739   2.1136   2.1245   2.2074   2.3357   2.7176   2.8705
     2.8998   2.9086   3.0740   3.3526   3.6704   3.7052   3.7797   3.9263
     4.0254   4.0879   4.2573   4.4338

     the Fermi energy is     2.3654 ev

!    total energy              =   -2029.10765838 Ry
     estimated scf accuracy    <       0.00000210 Ry
     smearing contrib. (-TS)   =      -0.06741088 Ry
     internal energy E=F+TS    =   -2029.04024750 Ry

     The total energy is F=E-TS. E is the sum of the following terms:
     one-electron contribution =  -18574.18376786 Ry
     hartree contribution      =    9284.79522209 Ry
     xc contribution           =    -300.85787232 Ry
     ewald contribution        =    7561.20616720 Ry
     electric field correction =       0.00000340 Ry

     convergence has been achieved in  16 iterations

     negative rho (up, down):  1.272E-03 0.000E+00

     Forces acting on atoms (cartesian axes, Ry/au):

     atom    1 type  1   force =    -0.00045216   -0.00026451    0.02483655
     atom    2 type  1   force =    -0.00045133   -0.00026629    0.02483569
     atom    3 type  2   force =     0.00359360    0.00211006    0.00883313
     atom    4 type  2   force =     0.00359215    0.00210948    0.00883506
     atom    5 type  1   force =    -0.00016095   -0.00009298   -0.01373066
     atom    6 type  1   force =    -0.00016014   -0.00009560   -0.01373155
     atom    7 type  2   force =    -0.00048886   -0.00028658   -0.02190715
     atom    8 type  2   force =    -0.00048962   -0.00028902   -0.02190848
     atom    9 type  1   force =    -0.00054143   -0.00031807    0.00102930
     atom   10 type  1   force =    -0.00054173   -0.00031662    0.00102830
     atom   11 type  2   force =    -0.00195017   -0.00114501    0.00093905
     atom   12 type  2   force =    -0.00194938   -0.00114485    0.00094077

     Total force =     0.052703     Total SCF correction =     0.008696
     SCF correction compared to forces is large: reduce conv_thr to get better values

     Writing output data file ./Mo2Ru2/Mo2Ru2_beef.save/

     init_run     :     82.47s CPU     83.17s WALL (       1 calls)
     electrons    :   3505.24s CPU   3526.12s WALL (       1 calls)
     forces       :     60.90s CPU     61.40s WALL (       1 calls)

     Called by init_run:
     wfcinit      :     71.39s CPU     71.68s WALL (       1 calls)
     potinit      :      7.55s CPU      7.68s WALL (       1 calls)
     hinit0       :      1.86s CPU      1.87s WALL (       1 calls)

     Called by electrons:
     c_bands      :   3134.39s CPU   3143.03s WALL (      16 calls)
     sum_band     :    340.52s CPU    346.40s WALL (      16 calls)
     v_of_rho     :     21.31s CPU     23.18s WALL (      17 calls)
     newd         :     15.35s CPU     19.87s WALL (      17 calls)
     mix_rho      :      0.55s CPU      0.56s WALL (      16 calls)
     vdW_kernel   :      5.68s CPU      5.69s WALL (       1 calls)

     Called by c_bands:
     init_us_2    :     10.49s CPU     10.54s WALL (    2516 calls)
     cegterg      :   3105.86s CPU   3113.43s WALL (    1184 calls)

     Called by *egterg:
     cdiaghg      :    166.63s CPU    166.68s WALL (    4870 calls)
     h_psi        :   1464.26s CPU   1470.77s WALL (    4944 calls)
     s_psi        :    493.70s CPU    493.76s WALL (    4944 calls)
     g_psi        :      1.06s CPU      1.08s WALL (    3686 calls)

     Called by h_psi:
     h_psi:calbec :    506.74s CPU    507.41s WALL (    4944 calls)
     vloc_psi     :    445.07s CPU    450.79s WALL (    4944 calls)
     add_vuspsi   :    506.34s CPU    506.43s WALL (    4944 calls)

     General routines
     calbec       :    774.45s CPU    775.50s WALL (    6424 calls)
     fft          :     11.18s CPU     11.61s WALL (    1130 calls)
     ffts         :      0.05s CPU      0.05s WALL (      33 calls)
     fftw         :    514.84s CPU    521.43s WALL (  726646 calls)
     interpolate  :      0.21s CPU      0.23s WALL (      17 calls)

     Parallel routines
     fft_scatt_xy :     43.12s CPU     43.59s WALL (  727809 calls)
     fft_scatt_yz :     83.92s CPU     85.33s WALL (  727809 calls)

     PWSCF        :      1h 1m CPU      1h 1m WALL


   This run was terminated on:  15:48:52  10Jul2022            

=------------------------------------------------------------------------------=
   JOB DONE.
=------------------------------------------------------------------------------=
