
     Program PWSCF v.6.6 starts on 23Jun2022 at 23:51:46 

     This program is part of the open-source Quantum ESPRESSO suite
     for quantum simulation of materials; please cite
         "P. Giannozzi et al., J. Phys.:Condens. Matter 21 395502 (2009);
         "P. Giannozzi et al., J. Phys.:Condens. Matter 29 465901 (2017);
          URL http://www.quantum-espresso.org", 
     in publications or presentations arising from this work. More details at
     http://www.quantum-espresso.org/quote

     Parallel version (MPI), running on    37 processors

     MPI processes distributed on     1 nodes
     R & G space division:  proc/nbgrp/npool/nimage =      37
     Fft bands division:     nmany     =       1
     Reading input from Mo2Re2.in
Warning: card &CELL ignored
Warning: card / ignored

     Current dimensions of program PWSCF are:
     Max number of different atomic species (ntypx) = 10
     Max number of k-points (npk) =  40000
     Max angular momentum in pseudopotentials (lmaxx) =  3
     Presently stress not available with electric field and gates

     Message from routine cell_base_init:
     DEPRECATED: use true lattice parameter, not A to a.u. conversion factor
     file Mo.pbe-spn-rrkjus_psl.1.0.0.UPF: wavefunction(s)  4S renormalized

     **************************************************************************
     Initializing libbeef V0.1.2 with the BEEF-vdW functional.
     Citation: Wellendorff et al., PRB 85, 235149 (2012).
     **************************************************************************


     IMPORTANT: XC functional enforced from input :
     Exchange-correlation= BEEF-VDW
                           (   1   4  43  14   2   0   0)
     Any further DFT definition will be discarded
     Please, verify this is what you really want


     Subspace diagonalization in iterative solution of the eigenvalue problem:
     a serial algorithm will be used

     Found symmetry operation: I + (  0.5000 -0.5000  0.0000)
     This is a supercell, fractional translations are disabled

     Parallelization info
     --------------------
     sticks:   dense  smooth     PW     G-vecs:    dense   smooth      PW
     Min         115      45     13                26553     6697    1035
     Max         116      46     14                26567     6716    1048
     Sum        4259    1683    499               982781   248077   38503



     bravais-lattice index     =            0
     lattice parameter (alat)  =       1.8897  a.u.
     unit-cell volume          =    4494.4606 (a.u.)^3
     number of atoms/cell      =           12
     number of atomic types    =            2
     number of electrons       =       174.00
     number of Kohn-Sham states=          104
     kinetic-energy cutoff     =      55.1240  Ry
     charge density cutoff     =     551.2396  Ry
     convergence threshold     =      1.0E-05
     mixing beta               =       0.1000
     number of iterations used =           10  plain     mixing
     Exchange-correlation= BEEF-VDW
                           (   1   4  43  14   2   0   0)

     celldm(1)=   1.889726  celldm(2)=   0.000000  celldm(3)=   0.000000
     celldm(4)=   0.000000  celldm(5)=   0.000000  celldm(6)=   0.000000

     crystal axes: (cart. coord. in units of alat)
               a(1) = (   5.593925   0.000000   0.000000 )  
               a(2) = (   2.794173   4.846090   0.000000 )  
               a(3) = (   0.000000   0.000000  24.568178 )  

     reciprocal axes: (cart. coord. in units 2 pi/alat)
               b(1) = (  0.178765 -0.103073  0.000000 )  
               b(2) = (  0.000000  0.206352  0.000000 )  
               b(3) = (  0.000000  0.000000  0.040703 )  


     PseudoPot. # 1 for Mo read from file:
     ../pseudo/Mo.pbe-spn-rrkjus_psl.1.0.0.UPF
     MD5 check sum: 03f09b12e49601d1a456a78ce8b2d514
     Pseudo is Ultrasoft + core correction, Zval = 14.0
     Generated using "atomic" code by A. Dal Corso v.6.3
     Using radial grid of 1229 points,  6 beta functions with: 
                l(1) =   0
                l(2) =   0
                l(3) =   1
                l(4) =   1
                l(5) =   2
                l(6) =   2
     Q(r) pseudized with 0 coefficients 


     PseudoPot. # 2 for Re read from file:
     ../pseudo/Re.pbe-spn-rrkjus_psl.1.0.0.UPF
     MD5 check sum: 1282f1ec51ad523723a04c61ae80a9e6
     Pseudo is Ultrasoft + core correction, Zval = 15.0
     Generated using "atomic" code by A. Dal Corso v.6.2.2
     Using radial grid of 1275 points,  6 beta functions with: 
                l(1) =   0
                l(2) =   0
                l(3) =   1
                l(4) =   1
                l(5) =   2
                l(6) =   2
     Q(r) pseudized with 0 coefficients 


     atomic species   valence    mass     pseudopotential
        Mo            14.00    95.95000     Mo( 1.00)
        Re            15.00   186.20700     Re( 1.00)

     No symmetry found



   Cartesian axes

     site n.     atom                  positions (alat units)
         1           Mo  tau(   1) = (   0.0000000   0.0000000  10.0000000  )
         2           Mo  tau(   2) = (   4.1940489   2.4230452  10.0000000  )
         3           Re  tau(   3) = (   2.7969624   0.0000000  10.0000000  )
         4           Re  tau(   4) = (   1.3970865   2.4230452  10.0000000  )
         5           Mo  tau(   5) = (   5.5939248   3.2318014  12.2840888  )
         6           Mo  tau(   6) = (   1.3998760   0.8087561  12.2840888  )
         7           Re  tau(   7) = (   2.7969624   3.2318014  12.2840888  )
         8           Re  tau(   8) = (   4.1968384   0.8087561  12.2840888  )
         9           Mo  tau(   9) = (   2.8077596   1.6221388  14.4968066  )
        10           Mo  tau(  10) = (   7.0018183   4.0451886  14.4968061  )
        11           Re  tau(  11) = (   5.5815026   1.6087293  14.4632952  )
        12           Re  tau(  12) = (   4.1816304   4.0317652  14.4632895  )

     number of k points=    74  Fermi-Dirac smearing, width (Ry)=  0.0100
                       cart. coord. in units 2pi/alat
        k(    1) = (   0.0000000   0.0000000   0.0000000), wk =   0.0138889
        k(    2) = (   0.0000000   0.0171960   0.0000000), wk =   0.0277778
        k(    3) = (   0.0000000   0.0343920   0.0000000), wk =   0.0277778
        k(    4) = (   0.0000000   0.0515880   0.0000000), wk =   0.0277778
        k(    5) = (   0.0000000   0.0687840   0.0000000), wk =   0.0277778
        k(    6) = (   0.0000000   0.0859800   0.0000000), wk =   0.0277778
        k(    7) = (   0.0000000  -0.1031760   0.0000000), wk =   0.0138889
        k(    8) = (   0.0148971  -0.0085894   0.0000000), wk =   0.0277778
        k(    9) = (   0.0148971   0.0086066   0.0000000), wk =   0.0277778
        k(   10) = (   0.0148971   0.0258026   0.0000000), wk =   0.0277778
        k(   11) = (   0.0148971   0.0429986   0.0000000), wk =   0.0277778
        k(   12) = (   0.0148971   0.0601946   0.0000000), wk =   0.0277778
        k(   13) = (   0.0148971   0.0773905   0.0000000), wk =   0.0277778
        k(   14) = (   0.0148971  -0.1117654   0.0000000), wk =   0.0277778
        k(   15) = (   0.0148971  -0.0945694   0.0000000), wk =   0.0277778
        k(   16) = (   0.0148971  -0.0773734   0.0000000), wk =   0.0277778
        k(   17) = (   0.0148971  -0.0601774   0.0000000), wk =   0.0277778
        k(   18) = (   0.0148971  -0.0429814   0.0000000), wk =   0.0277778
        k(   19) = (   0.0148971  -0.0257854   0.0000000), wk =   0.0277778
        k(   20) = (   0.0297942  -0.0171788   0.0000000), wk =   0.0277778
        k(   21) = (   0.0297942   0.0000172   0.0000000), wk =   0.0277778
        k(   22) = (   0.0297942   0.0172131   0.0000000), wk =   0.0277778
        k(   23) = (   0.0297942   0.0344091   0.0000000), wk =   0.0277778
        k(   24) = (   0.0297942   0.0516051   0.0000000), wk =   0.0277778
        k(   25) = (   0.0297942   0.0688011   0.0000000), wk =   0.0277778
        k(   26) = (   0.0297942  -0.1203548   0.0000000), wk =   0.0277778
        k(   27) = (   0.0297942  -0.1031588   0.0000000), wk =   0.0277778
        k(   28) = (   0.0297942  -0.0859628   0.0000000), wk =   0.0277778
        k(   29) = (   0.0297942  -0.0687668   0.0000000), wk =   0.0277778
        k(   30) = (   0.0297942  -0.0515708   0.0000000), wk =   0.0277778
        k(   31) = (   0.0297942  -0.0343748   0.0000000), wk =   0.0277778
        k(   32) = (   0.0446913  -0.0257683   0.0000000), wk =   0.0277778
        k(   33) = (   0.0446913  -0.0085723   0.0000000), wk =   0.0277778
        k(   34) = (   0.0446913   0.0086237   0.0000000), wk =   0.0277778
        k(   35) = (   0.0446913   0.0258197   0.0000000), wk =   0.0277778
        k(   36) = (   0.0446913   0.0430157   0.0000000), wk =   0.0277778
        k(   37) = (   0.0446913   0.0602117   0.0000000), wk =   0.0277778
        k(   38) = (   0.0446913  -0.1289442   0.0000000), wk =   0.0277778
        k(   39) = (   0.0446913  -0.1117482   0.0000000), wk =   0.0277778
        k(   40) = (   0.0446913  -0.0945522   0.0000000), wk =   0.0277778
        k(   41) = (   0.0446913  -0.0773562   0.0000000), wk =   0.0277778
        k(   42) = (   0.0446913  -0.0601603   0.0000000), wk =   0.0277778
        k(   43) = (   0.0446913  -0.0429643   0.0000000), wk =   0.0277778
        k(   44) = (   0.0595885  -0.0343577   0.0000000), wk =   0.0277778
        k(   45) = (   0.0595885  -0.0171617   0.0000000), wk =   0.0277778
        k(   46) = (   0.0595885   0.0000343   0.0000000), wk =   0.0277778
        k(   47) = (   0.0595885   0.0172303   0.0000000), wk =   0.0277778
        k(   48) = (   0.0595885   0.0344263   0.0000000), wk =   0.0277778
        k(   49) = (   0.0595885   0.0516223   0.0000000), wk =   0.0277778
        k(   50) = (   0.0595885  -0.1375336   0.0000000), wk =   0.0277778
        k(   51) = (   0.0595885  -0.1203377   0.0000000), wk =   0.0277778
        k(   52) = (   0.0595885  -0.1031417   0.0000000), wk =   0.0277778
        k(   53) = (   0.0595885  -0.0859457   0.0000000), wk =   0.0277778
        k(   54) = (   0.0595885  -0.0687497   0.0000000), wk =   0.0277778
        k(   55) = (   0.0595885  -0.0515537   0.0000000), wk =   0.0277778
        k(   56) = (   0.0744856  -0.0429471   0.0000000), wk =   0.0277778
        k(   57) = (   0.0744856  -0.0257511   0.0000000), wk =   0.0277778
        k(   58) = (   0.0744856  -0.0085551   0.0000000), wk =   0.0277778
        k(   59) = (   0.0744856   0.0086409   0.0000000), wk =   0.0277778
        k(   60) = (   0.0744856   0.0258369   0.0000000), wk =   0.0277778
        k(   61) = (   0.0744856   0.0430329   0.0000000), wk =   0.0277778
        k(   62) = (   0.0744856  -0.1461231   0.0000000), wk =   0.0277778
        k(   63) = (   0.0744856  -0.1289271   0.0000000), wk =   0.0277778
        k(   64) = (   0.0744856  -0.1117311   0.0000000), wk =   0.0277778
        k(   65) = (   0.0744856  -0.0945351   0.0000000), wk =   0.0277778
        k(   66) = (   0.0744856  -0.0773391   0.0000000), wk =   0.0277778
        k(   67) = (   0.0744856  -0.0601431   0.0000000), wk =   0.0277778
        k(   68) = (  -0.0893827   0.0515365   0.0000000), wk =   0.0138889
        k(   69) = (  -0.0893827   0.0687325   0.0000000), wk =   0.0277778
        k(   70) = (  -0.0893827   0.0859285   0.0000000), wk =   0.0277778
        k(   71) = (  -0.0893827   0.1031245   0.0000000), wk =   0.0277778
        k(   72) = (  -0.0893827   0.1203205   0.0000000), wk =   0.0277778
        k(   73) = (  -0.0893827   0.1375165   0.0000000), wk =   0.0277778
        k(   74) = (  -0.0893827  -0.0516394   0.0000000), wk =   0.0138889

     Dense  grid:   982781 G-vectors     FFT dimensions: (  80,  80, 360)

     Smooth grid:   248077 G-vectors     FFT dimensions: (  50,  50, 225)

     Estimated max dynamical RAM per process >     206.22 MB

     Estimated total dynamical RAM >       7.45 GB

     Initial potential from superposition of free atoms

     starting charge  173.99292, renormalised to  174.00000

     negative rho (up, down):  5.128E-04 0.000E+00


     %%%%%%%%%%%%%%%%%%%%%%%%%%%%%%%%%%%%%%%%%%%%%%%%%%%%%%%%%%%%%%%%%%%%%%%%
     %                                                                      %
     % You are using vdW-DF, which was implemented by the Thonhauser group. %
     % Please cite the following two papers that made this development      %
     % possible and the two reviews that describe the various versions:     %
     %                                                                      %
     %   T. Thonhauser et al., PRL 115, 136402 (2015).                      %
     %   T. Thonhauser et al., PRB 76, 125112 (2007).                       %
     %   K. Berland et al., Rep. Prog. Phys. 78, 066501 (2015).             %
     %   D.C. Langreth et al., J. Phys.: Condens. Matter 21, 084203 (2009). %
     %                                                                      %
     %                                                                      %
     % If you are calculating the stress with vdW-DF, please also cite:     %
     %                                                                      %
     %   R. Sabatini et al., J. Phys.: Condens. Matter 24, 424209 (2012).   %
     %                                                                      %
     %%%%%%%%%%%%%%%%%%%%%%%%%%%%%%%%%%%%%%%%%%%%%%%%%%%%%%%%%%%%%%%%%%%%%%%%



     Adding external electric field

     Computed dipole along edir(3) : 
        Dipole                0.0000 Ry au,          0.0001 Debye
        Dipole field          0.0000 Ry au, 

        Potential amp.       -0.0000 Ry
        Total length         45.2664 bohr

     Starting wfcs are  120 randomized atomic wfcs

     total cpu time spent up to now is       93.1 secs

     Self-consistent Calculation

     iteration #  1     ecut=    55.12 Ry     beta= 0.10
     Davidson diagonalization with overlap
     ethr =  1.00E-02,  avg # of iterations =  2.9

     negative rho (up, down):  4.388E-04 0.000E+00

     Adding external electric field

     Computed dipole along edir(3) : 
        Dipole               -0.4161 Ry au,         -1.0577 Debye
        Dipole field         -0.0012 Ry au, 

        Potential amp.        0.1053 Ry
        Total length         45.2664 bohr


     total cpu time spent up to now is      340.7 secs

     total energy              =   -1916.04434438 Ry
     estimated scf accuracy    <       5.10084994 Ry

     iteration #  2     ecut=    55.12 Ry     beta= 0.10
     Davidson diagonalization with overlap
     ethr =  2.93E-03,  avg # of iterations =  2.5

     negative rho (up, down):  4.326E-04 0.000E+00

     Adding external electric field

     Computed dipole along edir(3) : 
        Dipole                0.5979 Ry au,          1.5197 Debye
        Dipole field          0.0017 Ry au, 

        Potential amp.       -0.1513 Ry
        Total length         45.2664 bohr


     total cpu time spent up to now is      555.8 secs

     total energy              =   -1916.01176900 Ry
     estimated scf accuracy    <      11.44837678 Ry

     iteration #  3     ecut=    55.12 Ry     beta= 0.10
     Davidson diagonalization with overlap
     ethr =  2.93E-03,  avg # of iterations =  2.0

     negative rho (up, down):  4.219E-04 0.000E+00

     Adding external electric field

     Computed dipole along edir(3) : 
        Dipole               -0.0202 Ry au,         -0.0514 Debye
        Dipole field         -0.0001 Ry au, 

        Potential amp.        0.0051 Ry
        Total length         45.2664 bohr


     total cpu time spent up to now is      747.4 secs

     total energy              =   -1916.21321052 Ry
     estimated scf accuracy    <      22.89717390 Ry

     iteration #  4     ecut=    55.12 Ry     beta= 0.10
     Davidson diagonalization with overlap
     ethr =  2.93E-03,  avg # of iterations =  1.0

     negative rho (up, down):  4.038E-04 0.000E+00

     Adding external electric field

     Computed dipole along edir(3) : 
        Dipole                0.0019 Ry au,          0.0049 Debye
        Dipole field          0.0000 Ry au, 

        Potential amp.       -0.0005 Ry
        Total length         45.2664 bohr


     total cpu time spent up to now is      922.8 secs

     total energy              =   -1916.47064121 Ry
     estimated scf accuracy    <       0.38161840 Ry

     iteration #  5     ecut=    55.12 Ry     beta= 0.10
     Davidson diagonalization with overlap
     ethr =  2.19E-04,  avg # of iterations =  3.4

     negative rho (up, down):  4.132E-04 0.000E+00

     Adding external electric field

     Computed dipole along edir(3) : 
        Dipole                0.0442 Ry au,          0.1124 Debye
        Dipole field          0.0001 Ry au, 

        Potential amp.       -0.0112 Ry
        Total length         45.2664 bohr


     total cpu time spent up to now is     1143.0 secs

     total energy              =   -1916.46467281 Ry
     estimated scf accuracy    <       0.14758304 Ry

     iteration #  6     ecut=    55.12 Ry     beta= 0.10
     Davidson diagonalization with overlap
     ethr =  8.48E-05,  avg # of iterations =  6.7

     negative rho (up, down):  4.525E-04 0.000E+00

     Adding external electric field

     Computed dipole along edir(3) : 
        Dipole                0.0137 Ry au,          0.0349 Debye
        Dipole field          0.0000 Ry au, 

        Potential amp.       -0.0035 Ry
        Total length         45.2664 bohr


     total cpu time spent up to now is     1380.2 secs

     total energy              =   -1916.47132505 Ry
     estimated scf accuracy    <       0.05488741 Ry

     iteration #  7     ecut=    55.12 Ry     beta= 0.10
     Davidson diagonalization with overlap
     ethr =  3.15E-05,  avg # of iterations =  5.4

     negative rho (up, down):  6.362E-04 0.000E+00

     Adding external electric field

     Computed dipole along edir(3) : 
        Dipole                0.0323 Ry au,          0.0821 Debye
        Dipole field          0.0001 Ry au, 

        Potential amp.       -0.0082 Ry
        Total length         45.2664 bohr


     total cpu time spent up to now is     1598.0 secs

     total energy              =   -1916.47019239 Ry
     estimated scf accuracy    <       0.02638687 Ry

     iteration #  8     ecut=    55.12 Ry     beta= 0.10
     Davidson diagonalization with overlap
     ethr =  1.52E-05,  avg # of iterations =  5.6

     negative rho (up, down):  6.180E-04 0.000E+00

     Adding external electric field

     Computed dipole along edir(3) : 
        Dipole                0.0232 Ry au,          0.0590 Debye
        Dipole field          0.0001 Ry au, 

        Potential amp.       -0.0059 Ry
        Total length         45.2664 bohr


     total cpu time spent up to now is     1850.1 secs

     total energy              =   -1916.47386444 Ry
     estimated scf accuracy    <       0.00983816 Ry

     iteration #  9     ecut=    55.12 Ry     beta= 0.10
     Davidson diagonalization with overlap
     c_bands:  1 eigenvalues not converged
     c_bands:  1 eigenvalues not converged
     c_bands:  2 eigenvalues not converged
     ethr =  5.65E-06,  avg # of iterations =  7.8

     negative rho (up, down):  6.155E-04 0.000E+00

     Adding external electric field

     Computed dipole along edir(3) : 
        Dipole                0.0302 Ry au,          0.0768 Debye
        Dipole field          0.0001 Ry au, 

        Potential amp.       -0.0077 Ry
        Total length         45.2664 bohr


     total cpu time spent up to now is     2078.8 secs

     total energy              =   -1916.47366324 Ry
     estimated scf accuracy    <       0.00318349 Ry

     iteration # 10     ecut=    55.12 Ry     beta= 0.10
     Davidson diagonalization with overlap
     ethr =  1.83E-06,  avg # of iterations =  5.0

     negative rho (up, down):  6.890E-04 0.000E+00

     Adding external electric field

     Computed dipole along edir(3) : 
        Dipole                0.0317 Ry au,          0.0805 Debye
        Dipole field          0.0001 Ry au, 

        Potential amp.       -0.0080 Ry
        Total length         45.2664 bohr


     total cpu time spent up to now is     2328.0 secs

     total energy              =   -1916.47420070 Ry
     estimated scf accuracy    <       0.00193058 Ry

     iteration # 11     ecut=    55.12 Ry     beta= 0.10
     Davidson diagonalization with overlap
     ethr =  1.11E-06,  avg # of iterations =  2.0

     negative rho (up, down):  6.581E-04 0.000E+00

     Adding external electric field

     Computed dipole along edir(3) : 
        Dipole                0.0306 Ry au,          0.0777 Debye
        Dipole field          0.0001 Ry au, 

        Potential amp.       -0.0077 Ry
        Total length         45.2664 bohr


     total cpu time spent up to now is     2538.0 secs

     total energy              =   -1916.47440085 Ry
     estimated scf accuracy    <       0.00019457 Ry

     iteration # 12     ecut=    55.12 Ry     beta= 0.10
     Davidson diagonalization with overlap
     ethr =  1.12E-07,  avg # of iterations =  5.1

     negative rho (up, down):  6.259E-04 0.000E+00

     Adding external electric field

     Computed dipole along edir(3) : 
        Dipole                0.0285 Ry au,          0.0724 Debye
        Dipole field          0.0001 Ry au, 

        Potential amp.       -0.0072 Ry
        Total length         45.2664 bohr


     total cpu time spent up to now is     2774.2 secs

     total energy              =   -1916.47441278 Ry
     estimated scf accuracy    <       0.00006017 Ry

     iteration # 13     ecut=    55.12 Ry     beta= 0.10
     Davidson diagonalization with overlap
     ethr =  3.46E-08,  avg # of iterations =  5.3

     negative rho (up, down):  6.016E-04 0.000E+00

     Adding external electric field

     Computed dipole along edir(3) : 
        Dipole                0.0278 Ry au,          0.0706 Debye
        Dipole field          0.0001 Ry au, 

        Potential amp.       -0.0070 Ry
        Total length         45.2664 bohr


     total cpu time spent up to now is     3030.5 secs

     total energy              =   -1916.47442566 Ry
     estimated scf accuracy    <       0.00017834 Ry

     iteration # 14     ecut=    55.12 Ry     beta= 0.10
     Davidson diagonalization with overlap
     ethr =  3.46E-08,  avg # of iterations =  2.3

     negative rho (up, down):  5.805E-04 0.000E+00

     Adding external electric field

     Computed dipole along edir(3) : 
        Dipole                0.0284 Ry au,          0.0722 Debye
        Dipole field          0.0001 Ry au, 

        Potential amp.       -0.0072 Ry
        Total length         45.2664 bohr


     total cpu time spent up to now is     3233.2 secs

     total energy              =   -1916.47443172 Ry
     estimated scf accuracy    <       0.00005800 Ry

     iteration # 15     ecut=    55.12 Ry     beta= 0.10
     Davidson diagonalization with overlap
     ethr =  3.33E-08,  avg # of iterations =  1.3

     negative rho (up, down):  5.639E-04 0.000E+00

     Adding external electric field

     Computed dipole along edir(3) : 
        Dipole                0.0294 Ry au,          0.0748 Debye
        Dipole field          0.0001 Ry au, 

        Potential amp.       -0.0075 Ry
        Total length         45.2664 bohr


     total cpu time spent up to now is     3412.3 secs

     total energy              =   -1916.47443126 Ry
     estimated scf accuracy    <       0.00001701 Ry

     iteration # 16     ecut=    55.12 Ry     beta= 0.10
     Davidson diagonalization with overlap
     ethr =  9.77E-09,  avg # of iterations =  5.3

     negative rho (up, down):  5.485E-04 0.000E+00

     Adding external electric field

     Computed dipole along edir(3) : 
        Dipole                0.0293 Ry au,          0.0745 Debye
        Dipole field          0.0001 Ry au, 

        Potential amp.       -0.0074 Ry
        Total length         45.2664 bohr


     total cpu time spent up to now is     3671.1 secs

     total energy              =   -1916.47443378 Ry
     estimated scf accuracy    <       0.00001273 Ry

     iteration # 17     ecut=    55.12 Ry     beta= 0.10
     Davidson diagonalization with overlap
     ethr =  7.32E-09,  avg # of iterations =  2.1

     negative rho (up, down):  4.888E-04 0.000E+00

     Adding external electric field

     Computed dipole along edir(3) : 
        Dipole                0.0286 Ry au,          0.0728 Debye
        Dipole field          0.0001 Ry au, 

        Potential amp.       -0.0072 Ry
        Total length         45.2664 bohr


     total cpu time spent up to now is     3872.8 secs

     End of self-consistent calculation

          k = 0.0000 0.0000 0.0000 ( 31037 PWs)   bands (ev):

   -77.7364 -77.7062 -77.6901 -77.6606 -77.5652 -77.5355 -58.5363 -58.4544
   -58.4508 -58.3904 -58.3670 -58.3087 -39.7396 -39.6984 -39.6300 -39.6092
   -39.5119 -39.4868 -39.4618 -39.4251 -39.4076 -39.3773 -39.3112 -39.3080
   -39.2464 -39.1989 -39.1843 -39.1285 -39.0847 -38.9818 -32.8599 -32.8169
   -32.7855 -32.7186 -32.7097 -32.6083 -32.5287 -32.5140 -32.4812 -32.4521
   -32.4199 -32.4159 -32.3565 -32.1976 -32.1371 -32.1314 -32.1046 -32.0059
    -5.0786  -3.4298  -3.1501  -2.8483  -2.7488  -2.6418  -2.6130  -2.2074
    -2.0935  -1.9531  -1.9327  -1.9061  -1.7543  -1.5884  -1.5628  -0.4085
    -0.3290  -0.2270   0.7297   0.7508   0.7522   0.7917   1.2064   1.2495
     1.3648   1.4890   1.5872   1.6463   1.6489   1.6558   1.8455   1.9161
     1.9495   1.9990   2.1159   2.1439   3.2311   3.2473   3.2593   3.3808
     3.3910   3.4592   3.6301   4.0612   4.0953   4.4984   4.5184   4.5755
     4.7407   4.7562   4.8917   4.9730   5.1326   5.6156   5.6761   5.7337

          k = 0.0000 0.0172 0.0000 ( 31125 PWs)   bands (ev):

   -77.7359 -77.7067 -77.6896 -77.6612 -77.5648 -77.5360 -58.5350 -58.4560
   -58.4495 -58.3891 -58.3686 -58.3103 -39.7305 -39.6968 -39.6308 -39.6005
   -39.5031 -39.4853 -39.4610 -39.4257 -39.4087 -39.3758 -39.3099 -39.3088
   -39.2472 -39.2083 -39.1833 -39.1293 -39.0938 -38.9910 -32.8488 -32.8056
   -32.7852 -32.7122 -32.7071 -32.6066 -32.5297 -32.5142 -32.4808 -32.4544
   -32.4197 -32.4177 -32.3585 -32.1966 -32.1506 -32.1326 -32.1176 -32.0189
    -5.0131  -3.3628  -3.0829  -2.8203  -2.7065  -2.5869  -2.5742  -2.1591
    -2.0597  -1.9155  -1.9021  -1.8743  -1.7000  -1.5381  -1.4976  -0.3911
    -0.3199  -0.2103   0.6751   0.7680   0.7707   0.8164   1.1639   1.2452
     1.4044   1.4136   1.5091   1.6261   1.6354   1.6796   1.8472   1.8710
     1.9905   2.0233   2.0754   2.0944   3.0892   3.1151   3.1570   3.2555
     3.3967   3.4597   3.6102   3.9897   4.0331   4.3239   4.4735   4.5371
     4.6046   4.6457   4.7594   4.9939   5.1077   5.5478   5.5859   5.6764

          k = 0.0000 0.0344 0.0000 ( 31137 PWs)   bands (ev):

   -77.7344 -77.7083 -77.6882 -77.6626 -77.5633 -77.5375 -58.5310 -58.4602
   -58.4455 -58.3851 -58.3729 -58.3143 -39.7039 -39.6922 -39.6329 -39.5747
   -39.4811 -39.4771 -39.4587 -39.4276 -39.4116 -39.3712 -39.3111 -39.3059
   -39.2497 -39.2355 -39.1803 -39.1318 -39.1205 -39.0179 -32.8160 -32.7840
   -32.7721 -32.7182 -32.6741 -32.6017 -32.5327 -32.5145 -32.4793 -32.4606
   -32.4227 -32.4188 -32.3640 -32.1942 -32.1893 -32.1553 -32.1361 -32.0570
    -4.8211  -3.1677  -2.8873  -2.7612  -2.5799  -2.4585  -2.4288  -2.0200
    -1.9591  -1.8154  -1.8020  -1.7681  -1.5660  -1.3698  -1.3073  -0.3470
    -0.2989  -0.1611   0.5127   0.8096   0.8170   0.8771   1.0262   1.1758
     1.2185   1.2913   1.5456   1.6065   1.6258   1.7830   1.7914   1.7951
     1.9373   1.9878   1.9913   2.1776   2.7485   2.8154   2.9117   2.9627
     3.3258   3.3669   3.5731   3.7312   3.8425   3.8993   3.9189   4.1031
     4.5713   4.6653   4.8121   5.0073   5.0414   5.3241   5.3420   5.4864

          k = 0.0000 0.0516 0.0000 ( 31101 PWs)   bands (ev):

   -77.7320 -77.7107 -77.6858 -77.6650 -77.5609 -77.5399 -58.5246 -58.4668
   -58.4389 -58.3797 -58.3786 -58.3208 -39.6851 -39.6614 -39.6365 -39.5337
   -39.4746 -39.4550 -39.4365 -39.4304 -39.4160 -39.3642 -39.3150 -39.2998
   -39.2787 -39.2539 -39.1755 -39.1627 -39.1359 -39.0606 -32.7815 -32.7633
   -32.7282 -32.7176 -32.6209 -32.5942 -32.5377 -32.5141 -32.4766 -32.4697
   -32.4303 -32.4169 -32.3722 -32.2517 -32.2150 -32.1883 -32.1416 -32.1168
    -4.5169  -2.8658  -2.7215  -2.5831  -2.4018  -2.2629  -2.1906  -1.8079
    -1.8034  -1.6706  -1.6131  -1.5838  -1.3871  -1.0763  -1.0125  -0.2986
    -0.2789  -0.0812   0.2794   0.6903   0.7886   0.8593   0.8918   1.0437
     1.0940   1.1191   1.4789   1.5689   1.7159   1.7228   1.7369   1.8344
     1.9017   1.9107   1.9623   2.2716   2.4251   2.4962   2.5830   2.6462
     2.9899   3.1638   3.1898   3.2367   3.4267   3.5582   3.7282   3.7712
     4.4411   4.5885   4.7846   4.8133   4.9385   4.9608   5.0521   5.0866

          k = 0.0000 0.0688 0.0000 ( 31044 PWs)   bands (ev):

   -77.7289 -77.7138 -77.6827 -77.6680 -77.5578 -77.5430 -58.5161 -58.4753
   -58.4303 -58.3884 -58.3701 -58.3293 -39.6763 -39.6421 -39.6057 -39.4801
   -39.4666 -39.4501 -39.4358 -39.4228 -39.3810 -39.3558 -39.3348 -39.3205
   -39.2919 -39.2596 -39.2175 -39.1693 -39.1412 -39.1160 -32.7771 -32.7394
   -32.6927 -32.6474 -32.5848 -32.5534 -32.5420 -32.5124 -32.4801 -32.4724
   -32.4394 -32.4136 -32.3818 -32.3305 -32.2913 -32.1945 -32.1810 -32.1487
    -4.1265  -2.7650  -2.5054  -2.2181  -2.2108  -2.0097  -1.9148  -1.6364
    -1.5609  -1.4680  -1.3572  -1.3277  -1.1672  -0.7310  -0.6846  -0.2302
    -0.2276   0.0061   0.0134   0.3607   0.5343   0.5845   0.8229   0.9056
     1.1779   1.1842   1.4281   1.4354   1.4960   1.5137   1.5250   1.7450
     1.9552   1.9706   2.0431   2.1394   2.2058   2.2180   2.2698   2.4426
     2.5498   2.7278   2.8395   3.0352   3.0864   3.5104   3.6516   3.7073
     4.0161   4.2815   4.3208   4.4718   4.5825   4.6534   4.6826   4.7471

          k = 0.0000 0.0860 0.0000 ( 31057 PWs)   bands (ev):

   -77.7252 -77.7174 -77.6792 -77.6716 -77.5542 -77.5465 -58.5064 -58.4853
   -58.4203 -58.3986 -58.3603 -58.3392 -39.6668 -39.6491 -39.5411 -39.4581
   -39.4443 -39.4420 -39.4301 -39.4168 -39.4005 -39.3459 -39.3277 -39.3177
   -39.2837 -39.2808 -39.2665 -39.1807 -39.1619 -39.1477 -32.7704 -32.7508
   -32.6097 -32.5745 -32.5644 -32.5537 -32.5092 -32.4905 -32.4667 -32.4666
   -32.4487 -32.4202 -32.4082 -32.3912 -32.3788 -32.2819 -32.1738 -32.1568
    -3.6920  -2.9476  -2.1854  -2.0688  -1.8470  -1.7671  -1.6638  -1.5235
    -1.3663  -1.2884  -1.0624  -1.0297  -0.9102  -0.5372  -0.5268  -0.2732
    -0.0015   0.0116   0.0225   0.0836   0.2650   0.2666   0.7773   0.8377
     1.1139   1.1389   1.2646   1.2951   1.3095   1.3769   1.4408   1.5487
     1.6011   1.7070   1.9044   1.9347   2.0486   2.0531   2.1715   2.1804
     2.5650   2.5857   3.0209   3.1112   3.3119   3.3579   3.4504   3.6079
     3.7721   3.8378   3.9543   4.1481   4.2947   4.4342   4.4413   4.4749

          k = 0.0000-0.1032 0.0000 ( 31002 PWs)   bands (ev):

   -77.7213 -77.7213 -77.6754 -77.6754 -77.5504 -77.5504 -58.4958 -58.4958
   -58.4094 -58.4094 -58.3497 -58.3497 -39.6575 -39.6575 -39.4721 -39.4721
   -39.4489 -39.4489 -39.4365 -39.4365 -39.3508 -39.3507 -39.3348 -39.3348
   -39.2752 -39.2752 -39.2488 -39.2487 -39.1548 -39.1548 -32.7615 -32.7615
   -32.5641 -32.5641 -32.5228 -32.5228 -32.4949 -32.4949 -32.4741 -32.4741
   -32.4556 -32.4556 -32.4028 -32.4028 -32.3731 -32.3731 -32.1654 -32.1654
    -3.2745  -3.2745  -2.0310  -2.0310  -1.6492  -1.6492  -1.5347  -1.5347
    -1.2666  -1.2666  -0.8725  -0.8725  -0.6186  -0.6186  -0.4830  -0.4830
    -0.0375  -0.0375   0.0472   0.0472   0.3230   0.3230   0.8343   0.8343
     0.9883   0.9883   1.0698   1.0698   1.2891   1.2891   1.4345   1.4345
     1.6337   1.6337   1.7852   1.7852   1.8718   1.8719   2.1519   2.1519
     2.9230   2.9230   2.9706   2.9706   3.2173   3.2173   3.5469   3.5469
     3.8466   3.8466   3.9423   3.9423   4.0023   4.0023   4.3663   4.3663

          k = 0.0149-0.0086 0.0000 ( 31125 PWs)   bands (ev):

   -77.7359 -77.7067 -77.6896 -77.6612 -77.5648 -77.5360 -58.5350 -58.4560
   -58.4495 -58.3891 -58.3686 -58.3103 -39.7305 -39.6968 -39.6308 -39.6005
   -39.5031 -39.4853 -39.4610 -39.4257 -39.4087 -39.3758 -39.3099 -39.3088
   -39.2472 -39.2083 -39.1833 -39.1293 -39.0938 -38.9910 -32.8488 -32.8056
   -32.7852 -32.7122 -32.7071 -32.6066 -32.5297 -32.5142 -32.4808 -32.4544
   -32.4197 -32.4177 -32.3585 -32.1966 -32.1506 -32.1326 -32.1176 -32.0189
    -5.0131  -3.3628  -3.0829  -2.8203  -2.7065  -2.5869  -2.5742  -2.1591
    -2.0597  -1.9155  -1.9021  -1.8743  -1.7000  -1.5381  -1.4976  -0.3911
    -0.3199  -0.2103   0.6751   0.7680   0.7707   0.8164   1.1639   1.2452
     1.4044   1.4136   1.5091   1.6261   1.6354   1.6796   1.8472   1.8710
     1.9905   2.0233   2.0754   2.0944   3.0892   3.1151   3.1570   3.2555
     3.3967   3.4597   3.6102   3.9897   4.0331   4.3239   4.4735   4.5371
     4.6046   4.6457   4.7594   4.9939   5.1077   5.5477   5.5859   5.6763

          k = 0.0149 0.0086 0.0000 ( 31133 PWs)   bands (ev):

   -77.7364 -77.7062 -77.6901 -77.6607 -77.5653 -77.5355 -58.5364 -58.4546
   -58.4510 -58.3905 -58.3671 -58.3088 -39.7389 -39.6972 -39.6295 -39.6088
   -39.5114 -39.4859 -39.4622 -39.4245 -39.4077 -39.3759 -39.3103 -39.3078
   -39.2462 -39.1989 -39.1839 -39.1285 -39.0847 -38.9818 -32.8621 -32.8177
   -32.7881 -32.7198 -32.7110 -32.6074 -32.5282 -32.5176 -32.4828 -32.4535
   -32.4220 -32.4170 -32.3577 -32.1979 -32.1375 -32.1314 -32.1047 -32.0060
    -5.0162  -3.3729  -3.0980  -2.7935  -2.6981  -2.6067  -2.5585  -2.1791
    -2.0472  -1.9226  -1.8986  -1.8654  -1.6803  -1.5292  -1.5248  -0.4015
    -0.3059  -0.2151   0.6769   0.7614   0.7794   0.8097   1.1862   1.3023
     1.3221   1.3361   1.6187   1.6334   1.6772   1.7279   1.7603   1.8835
     1.9466   1.9735   2.0813   2.1397   3.1051   3.1160   3.1547   3.2597
     3.3772   3.4606   3.6039   4.0107   4.0176   4.3549   4.5067   4.5390
     4.5769   4.6146   4.8028   4.9135   5.1443   5.5149   5.6455   5.6510

          k = 0.0149 0.0258 0.0000 ( 31149 PWs)   bands (ev):

   -77.7359 -77.7068 -77.6897 -77.6612 -77.5648 -77.5360 -58.5351 -58.4560
   -58.4496 -58.3893 -58.3687 -58.3102 -39.7291 -39.6945 -39.6297 -39.5995
   -39.5021 -39.4836 -39.4618 -39.4247 -39.4087 -39.3730 -39.3084 -39.3081
   -39.2469 -39.2081 -39.1825 -39.1293 -39.0938 -38.9910 -32.8529 -32.8070
   -32.7901 -32.7145 -32.7094 -32.6050 -32.5289 -32.5209 -32.4837 -32.4567
   -32.4236 -32.4196 -32.3606 -32.1972 -32.1513 -32.1325 -32.1177 -32.0191
    -4.8905  -3.2534  -2.9821  -2.7280  -2.6009  -2.5168  -2.4685  -2.1030
    -1.9657  -1.8559  -1.8370  -1.7861  -1.5724  -1.4313  -1.3982  -0.3808
    -0.2769  -0.1875   0.5698   0.7822   0.8188   0.8483   1.1193   1.1591
     1.2343   1.4431   1.5075   1.6548   1.6761   1.7232   1.7302   1.8127
     1.9305   2.0023   2.0753   2.1007   2.8717   2.9412   2.9466   3.0533
     3.3269   3.4259   3.5581   3.8752   3.9694   3.9758   4.0963   4.1782
     4.5738   4.7374   4.7724   4.8735   5.1399   5.3362   5.5169   5.5450

          k = 0.0149 0.0430 0.0000 ( 31114 PWs)   bands (ev):

   -77.7344 -77.7083 -77.6882 -77.6626 -77.5633 -77.5375 -58.5311 -58.4602
   -58.4455 -58.3852 -58.3730 -58.3143 -39.7020 -39.6891 -39.6317 -39.5734
   -39.4788 -39.4758 -39.4598 -39.4263 -39.4116 -39.3675 -39.3107 -39.3035
   -39.2494 -39.2354 -39.1792 -39.1319 -39.1205 -39.0179 -32.8214 -32.7903
   -32.7741 -32.7210 -32.6771 -32.5997 -32.5318 -32.5232 -32.4832 -32.4632
   -32.4251 -32.4240 -32.3666 -32.1954 -32.1894 -32.1553 -32.1360 -32.0571
    -4.6449  -3.0171  -2.7475  -2.6676  -2.4329  -2.3239  -2.3066  -1.9399
    -1.8126  -1.7229  -1.7185  -1.6245  -1.4217  -1.2113  -1.1391  -0.3437
    -0.2457  -0.1278   0.3760   0.7491   0.8268   0.8912   0.9569   1.0094
     1.1057   1.2940   1.5275   1.6125   1.6557   1.7338   1.7453   1.7785
     1.9256   1.9349   1.9614   2.3290   2.5005   2.6013   2.6457   2.7515
     3.2048   3.2981   3.3487   3.4316   3.5265   3.6110   3.6992   3.9054
     4.5928   4.6077   4.7789   4.9459   5.0096   5.0741   5.0816   5.2574

          k = 0.0149 0.0602 0.0000 ( 31059 PWs)   bands (ev):

   -77.7320 -77.7107 -77.6858 -77.6650 -77.5609 -77.5399 -58.5247 -58.4668
   -58.4389 -58.3797 -58.3787 -58.3207 -39.6818 -39.6594 -39.6355 -39.5322
   -39.4722 -39.4562 -39.4348 -39.4293 -39.4160 -39.3601 -39.3150 -39.2972
   -39.2788 -39.2538 -39.1743 -39.1628 -39.1360 -39.0607 -32.7881 -32.7692
   -32.7304 -32.7202 -32.6244 -32.5922 -32.5369 -32.5234 -32.4807 -32.4716
   -32.4325 -32.4225 -32.3744 -32.2518 -32.2147 -32.1890 -32.1414 -32.1165
    -4.2985  -2.6945  -2.6622  -2.4237  -2.2477  -2.0789  -2.0532  -1.7152
    -1.6251  -1.5355  -1.5132  -1.3878  -1.2294  -0.8947  -0.8142  -0.2872
    -0.2244  -0.0453   0.1332   0.5015   0.6357   0.7217   0.8510   0.9436
     1.0666   1.2386   1.4264   1.4997   1.5585   1.6107   1.6314   1.8346
     1.8951   2.0099   2.0643   2.1062   2.2582   2.3359   2.4909   2.6235
     2.6851   2.7212   2.9618   3.0683   3.1631   3.4994   3.5526   3.8505
     4.2112   4.3354   4.5368   4.6172   4.7318   4.7343   4.8668   5.0443

          k = 0.0149 0.0774 0.0000 ( 31059 PWs)   bands (ev):

   -77.7289 -77.7138 -77.6828 -77.6680 -77.5578 -77.5429 -58.5164 -58.4753
   -58.4304 -58.3885 -58.3704 -58.3292 -39.6733 -39.6418 -39.6037 -39.4787
   -39.4646 -39.4513 -39.4348 -39.4227 -39.3795 -39.3520 -39.3352 -39.3211
   -39.2896 -39.2599 -39.2179 -39.1681 -39.1416 -39.1164 -32.7829 -32.7406
   -32.6982 -32.6498 -32.5831 -32.5563 -32.5420 -32.5208 -32.4804 -32.4761
   -32.4408 -32.4187 -32.3829 -32.3297 -32.2907 -32.1937 -32.1817 -32.1483
    -3.8840  -2.7754  -2.3492  -2.0727  -2.0708  -1.8296  -1.7598  -1.4788
    -1.4713  -1.3066  -1.2478  -1.0931  -1.0005  -0.6215  -0.5758  -0.1716
    -0.1105  -0.0703   0.0031   0.1749   0.3929   0.3972   0.7359   0.8148
     1.1707   1.1941   1.3230   1.3421   1.3462   1.4263   1.4689   1.5522
     1.7805   1.8671   1.9781   1.9823   2.1195   2.1637   2.2158   2.3714
     2.4248   2.4785   2.9834   3.0868   3.1467   3.4308   3.4900   3.6529
     3.7525   3.9977   4.0912   4.3338   4.4771   4.6078   4.6491   4.6643

          k = 0.0149-0.1118 0.0000 ( 31029 PWs)   bands (ev):

   -77.7252 -77.7174 -77.6792 -77.6716 -77.5542 -77.5465 -58.5066 -58.4852
   -58.4204 -58.3985 -58.3606 -58.3390 -39.6645 -39.6496 -39.5393 -39.4568
   -39.4453 -39.4416 -39.4297 -39.4157 -39.4012 -39.3427 -39.3292 -39.3163
   -39.2828 -39.2806 -39.2673 -39.1814 -39.1608 -39.1482 -32.7747 -32.7503
   -32.6142 -32.5732 -32.5663 -32.5538 -32.5154 -32.4890 -32.4693 -32.4691
   -32.4490 -32.4196 -32.4107 -32.3909 -32.3778 -32.2805 -32.1745 -32.1563
    -3.4522  -3.0392  -2.0949  -1.9622  -1.7986  -1.6186  -1.5504  -1.4142
    -1.2963  -1.2095  -0.9756  -0.8265  -0.7424  -0.5550  -0.5008  -0.4039
    -0.0722  -0.0314   0.0723   0.0790   0.1783   0.3846   0.7219   0.7539
     0.9277   1.0729   1.1009   1.1688   1.2313   1.2972   1.3418   1.3713
     1.6624   1.6906   1.7183   1.8500   1.9106   1.9342   2.1861   2.2404
     2.6659   2.8707   2.9578   3.1647   3.1732   3.3224   3.4232   3.6456
     3.6692   3.6963   3.9722   4.0903   4.2510   4.3293   4.3448   4.5281

          k = 0.0149-0.0946 0.0000 ( 31027 PWs)   bands (ev):

   -77.7213 -77.7213 -77.6754 -77.6754 -77.5504 -77.5504 -58.4960 -58.4958
   -58.4095 -58.4094 -58.3500 -58.3496 -39.6589 -39.6561 -39.4734 -39.4706
   -39.4494 -39.4486 -39.4370 -39.4362 -39.3512 -39.3499 -39.3370 -39.3331
   -39.2765 -39.2739 -39.2498 -39.2478 -39.1556 -39.1540 -32.7638 -32.7592
   -32.5651 -32.5633 -32.5231 -32.5204 -32.4982 -32.4933 -32.4748 -32.4725
   -32.4568 -32.4555 -32.4040 -32.4007 -32.3753 -32.3718 -32.1660 -32.1648
    -3.4239  -3.0733  -2.0303  -2.0102  -1.7469  -1.5919  -1.5476  -1.5203
    -1.2516  -1.2353  -0.9420  -0.8476  -0.7267  -0.5931  -0.5168  -0.4041
    -0.0467  -0.0342   0.0766   0.0771   0.2208   0.3638   0.7495   0.7801
     0.8375   0.9364   1.0546   1.1569   1.2745   1.2761   1.3753   1.5109
     1.6283   1.6551   1.7200   1.8756   1.8834   1.9956   2.1857   2.2405
     2.6359   2.8582   3.0614   3.0963   3.2259   3.2672   3.5126   3.5244
     3.6618   3.8550   3.8980   4.1154   4.2033   4.2973   4.3834   4.5236

          k = 0.0149-0.0774 0.0000 ( 31065 PWs)   bands (ev):

   -77.7252 -77.7174 -77.6792 -77.6716 -77.5542 -77.5466 -58.5063 -58.4853
   -58.4202 -58.3987 -58.3602 -58.3394 -39.6688 -39.6486 -39.5426 -39.4592
   -39.4434 -39.4423 -39.4304 -39.4177 -39.4000 -39.3485 -39.3264 -39.3188
   -39.2854 -39.2803 -39.2658 -39.1799 -39.1629 -39.1471 -32.7667 -32.7512
   -32.6054 -32.5756 -32.5627 -32.5535 -32.5030 -32.4921 -32.4644 -32.4643
   -32.4487 -32.4224 -32.4050 -32.3918 -32.3799 -32.2833 -32.1732 -32.1572
    -3.8600  -2.8192  -2.2600  -2.1302  -1.9147  -1.9139  -1.7570  -1.6120
    -1.3603  -1.3596  -1.2114  -1.1261  -0.9956  -0.6174  -0.6065  -0.1435
    -0.1430  -0.0605   0.0099   0.1849   0.3597   0.4235   0.7273   0.7873
     1.1547   1.1625   1.2775   1.3224   1.3558   1.4203   1.4367   1.5244
     1.6765   1.9278   1.9954   2.0029   2.1633   2.1984   2.2923   2.3560
     2.4100   2.4927   3.0606   3.0812   3.1427   3.3755   3.4789   3.6572
     3.8522   3.9278   4.2164   4.2530   4.4604   4.6095   4.6302   4.6836

          k = 0.0149-0.0602 0.0000 ( 31055 PWs)   bands (ev):

   -77.7289 -77.7138 -77.6827 -77.6680 -77.5578 -77.5430 -58.5160 -58.4753
   -58.4301 -58.3884 -58.3700 -58.3295 -39.6785 -39.6423 -39.6073 -39.4812
   -39.4681 -39.4493 -39.4364 -39.4229 -39.3820 -39.3586 -39.3346 -39.3200
   -39.2936 -39.2593 -39.2172 -39.1702 -39.1410 -39.1157 -32.7728 -32.7383
   -32.6886 -32.6457 -32.5862 -32.5510 -32.5422 -32.5059 -32.4800 -32.4697
   -32.4385 -32.4100 -32.3810 -32.3313 -32.2919 -32.1950 -32.1806 -32.1490
    -4.2788  -2.7182  -2.6198  -2.3134  -2.3062  -2.1573  -2.0114  -1.7603
    -1.5982  -1.5544  -1.4855  -1.4219  -1.2309  -0.9553  -0.7621  -0.2778
    -0.2329  -0.0383   0.1211   0.5086   0.6701   0.7150   0.8237   0.9065
     1.0552   1.2120   1.3885   1.4705   1.5319   1.6070   1.6756   1.7888
     1.8881   2.0179   2.0391   2.1705   2.2661   2.3959   2.4201   2.4883
     2.7045   2.9084   2.9718   3.1184   3.1556   3.4606   3.5257   3.8957
     4.1744   4.3622   4.5794   4.6311   4.7263   4.7275   4.8803   4.9982

          k = 0.0149-0.0430 0.0000 ( 31110 PWs)   bands (ev):

   -77.7320 -77.7107 -77.6858 -77.6650 -77.5609 -77.5399 -58.5245 -58.4668
   -58.4388 -58.3796 -58.3786 -58.3209 -39.6870 -39.6626 -39.6372 -39.5345
   -39.4759 -39.4544 -39.4374 -39.4311 -39.4161 -39.3665 -39.3150 -39.3014
   -39.2786 -39.2539 -39.1761 -39.1626 -39.1358 -39.0605 -32.7776 -32.7597
   -32.7271 -32.7161 -32.6188 -32.5954 -32.5382 -32.5086 -32.4743 -32.4686
   -32.4291 -32.4137 -32.3709 -32.2517 -32.2151 -32.1879 -32.1418 -32.1170
    -4.6302  -2.9644  -2.7314  -2.6714  -2.4927  -2.3708  -2.2603  -1.9051
    -1.8520  -1.7219  -1.6926  -1.6627  -1.4358  -1.2699  -1.0742  -0.3084
    -0.2856  -0.1173   0.3662   0.8065   0.8146   0.9054   0.9063   1.0282
     1.0863   1.2302   1.4414   1.5861   1.6879   1.7229   1.7772   1.8085
     1.9272   1.9285   1.9976   2.3648   2.4263   2.5715   2.7274   2.7446
     3.1687   3.2705   3.2955   3.4888   3.5256   3.6733   3.6844   3.9345
     4.5568   4.5970   4.8237   4.9275   5.0556   5.0628   5.1599   5.1703

          k = 0.0149-0.0258 0.0000 ( 31151 PWs)   bands (ev):

   -77.7344 -77.7083 -77.6882 -77.6626 -77.5633 -77.5375 -58.5310 -58.4602
   -58.4454 -58.3851 -58.3728 -58.3144 -39.7045 -39.6933 -39.6334 -39.5752
   -39.4819 -39.4777 -39.4584 -39.4281 -39.4117 -39.3725 -39.3112 -39.3068
   -39.2499 -39.2356 -39.1806 -39.1318 -39.1205 -39.0179 -32.8140 -32.7817
   -32.7714 -32.7172 -32.6729 -32.6025 -32.5331 -32.5112 -32.4779 -32.4596
   -32.4219 -32.4169 -32.3631 -32.1936 -32.1894 -32.1553 -32.1362 -32.0569
    -4.8815  -3.2226  -2.9369  -2.7875  -2.6368  -2.5114  -2.4642  -2.0462
    -2.0099  -1.8399  -1.8299  -1.8215  -1.6069  -1.4594  -1.3400  -0.3476
    -0.3176  -0.1761   0.5633   0.7866   0.8235   0.8659   1.0479   1.1925
     1.2885   1.4105   1.4912   1.5209   1.6149   1.7488   1.8022   1.9018
     1.9605   1.9872   2.0246   2.1367   2.8501   2.8767   3.0140   3.0454
     3.3808   3.4091   3.5564   3.8408   3.8651   3.9928   4.0900   4.2957
     4.5629   4.7040   4.7344   5.0015   5.0843   5.3783   5.4685   5.5463

          k = 0.0298-0.0172 0.0000 ( 31137 PWs)   bands (ev):

   -77.7344 -77.7083 -77.6882 -77.6626 -77.5633 -77.5375 -58.5310 -58.4602
   -58.4455 -58.3851 -58.3729 -58.3143 -39.7039 -39.6922 -39.6329 -39.5747
   -39.4811 -39.4771 -39.4587 -39.4276 -39.4116 -39.3712 -39.3111 -39.3059
   -39.2497 -39.2355 -39.1803 -39.1318 -39.1205 -39.0179 -32.8160 -32.7840
   -32.7721 -32.7182 -32.6741 -32.6017 -32.5327 -32.5145 -32.4793 -32.4606
   -32.4227 -32.4188 -32.3640 -32.1942 -32.1893 -32.1553 -32.1361 -32.0570
    -4.8211  -3.1677  -2.8873  -2.7612  -2.5799  -2.4585  -2.4288  -2.0200
    -1.9591  -1.8154  -1.8020  -1.7681  -1.5660  -1.3698  -1.3073  -0.3470
    -0.2989  -0.1611   0.5127   0.8096   0.8170   0.8771   1.0262   1.1758
     1.2185   1.2913   1.5456   1.6065   1.6258   1.7830   1.7914   1.7951
     1.9373   1.9878   1.9913   2.1776   2.7485   2.8154   2.9117   2.9627
     3.3258   3.3669   3.5731   3.7312   3.8425   3.8993   3.9189   4.1031
     4.5713   4.6653   4.8121   5.0073   5.0414   5.3242   5.3419   5.4864

          k = 0.0298 0.0000 0.0000 ( 31149 PWs)   bands (ev):

   -77.7359 -77.7068 -77.6897 -77.6612 -77.5648 -77.5360 -58.5351 -58.4560
   -58.4496 -58.3893 -58.3687 -58.3102 -39.7291 -39.6945 -39.6297 -39.5995
   -39.5021 -39.4836 -39.4618 -39.4247 -39.4087 -39.3730 -39.3084 -39.3081
   -39.2469 -39.2081 -39.1825 -39.1293 -39.0938 -38.9910 -32.8529 -32.8070
   -32.7901 -32.7145 -32.7094 -32.6050 -32.5289 -32.5209 -32.4837 -32.4567
   -32.4236 -32.4196 -32.3606 -32.1972 -32.1513 -32.1325 -32.1177 -32.0191
    -4.8905  -3.2534  -2.9821  -2.7280  -2.6009  -2.5168  -2.4685  -2.1030
    -1.9657  -1.8559  -1.8370  -1.7861  -1.5724  -1.4313  -1.3982  -0.3808
    -0.2769  -0.1875   0.5698   0.7822   0.8188   0.8483   1.1193   1.1591
     1.2343   1.4431   1.5075   1.6548   1.6761   1.7232   1.7302   1.8127
     1.9305   2.0023   2.0753   2.1007   2.8717   2.9412   2.9466   3.0533
     3.3269   3.4259   3.5581   3.8752   3.9694   3.9758   4.0963   4.1782
     4.5738   4.7374   4.7724   4.8735   5.1399   5.3362   5.5169   5.5449

          k = 0.0298 0.0172 0.0000 ( 31141 PWs)   bands (ev):

   -77.7364 -77.7063 -77.6901 -77.6607 -77.5653 -77.5355 -58.5366 -58.4547
   -58.4511 -58.3907 -58.3673 -58.3087 -39.7369 -39.6938 -39.6279 -39.6074
   -39.5099 -39.4833 -39.4634 -39.4230 -39.4077 -39.3719 -39.3077 -39.3072
   -39.2457 -39.1986 -39.1828 -39.1284 -39.0846 -38.9817 -32.8679 -32.8199
   -32.7952 -32.7230 -32.7145 -32.6052 -32.5272 -32.5271 -32.4872 -32.4570
   -32.4278 -32.4198 -32.3609 -32.1987 -32.1386 -32.1313 -32.1049 -32.0064
    -4.8341  -3.2186  -2.9502  -2.6353  -2.5526  -2.5027  -2.4016  -2.0929
    -1.9136  -1.8317  -1.7914  -1.7440  -1.4657  -1.4301  -1.3395  -0.3847
    -0.2406  -0.1875   0.5225   0.7740   0.8505   0.8566   1.0418   1.1047
     1.2349   1.4557   1.5707   1.5885   1.6954   1.7460   1.7708   1.7749
     1.8379   1.9594   2.0669   2.1441   2.8086   2.8406   2.8616   2.9638
     3.2477   3.4584   3.4994   3.8461   3.8811   3.9032   3.9443   3.9634
     4.5701   4.7425   4.8257   4.8343   5.1342   5.2391   5.4332   5.5168

          k = 0.0298 0.0344 0.0000 ( 31112 PWs)   bands (ev):

   -77.7359 -77.7068 -77.6896 -77.6612 -77.5647 -77.5360 -58.5352 -58.4561
   -58.4497 -58.3894 -58.3688 -58.3100 -39.7267 -39.6905 -39.6279 -39.5979
   -39.5003 -39.4805 -39.4632 -39.4228 -39.4088 -39.3682 -39.3077 -39.3050
   -39.2464 -39.2078 -39.1811 -39.1293 -39.0937 -38.9909 -32.8598 -32.8098
   -32.7984 -32.7184 -32.7134 -32.6025 -32.5322 -32.5276 -32.4891 -32.4608
   -32.4306 -32.4230 -32.3643 -32.1980 -32.1524 -32.1324 -32.1179 -32.0195
    -4.6558  -3.0714  -2.7953  -2.5487  -2.4091  -2.3791  -2.2710  -1.9878
    -1.7878  -1.7379  -1.6987  -1.6164  -1.3242  -1.3025  -1.1380  -0.3644
    -0.1996  -0.1594   0.3852   0.7350   0.8047   0.8929   0.9601   1.0086
     1.1213   1.4533   1.4620   1.5937   1.6709   1.7145   1.7393   1.7919
     1.8687   1.9491   1.9646   2.3192   2.5723   2.5973   2.6016   2.7424
     3.1548   3.3717   3.3930   3.4565   3.4733   3.5411   3.7169   3.9214
     4.6006   4.6386   4.7157   4.9333   4.9517   5.1309   5.2008   5.2101

          k = 0.0298 0.0516 0.0000 ( 31079 PWs)   bands (ev):

   -77.7343 -77.7083 -77.6881 -77.6626 -77.5632 -77.5375 -58.5312 -58.4603
   -58.4456 -58.3853 -58.3730 -58.3141 -39.6994 -39.6850 -39.6301 -39.5717
   -39.4757 -39.4739 -39.4613 -39.4244 -39.4118 -39.3624 -39.3102 -39.3004
   -39.2491 -39.2353 -39.1777 -39.1319 -39.1204 -39.0179 -32.8285 -32.7988
   -32.7771 -32.7248 -32.6813 -32.5973 -32.5347 -32.5306 -32.4887 -32.4669
   -32.4312 -32.4283 -32.3701 -32.1964 -32.1900 -32.1553 -32.1357 -32.0572
    -4.3681  -2.8323  -2.5338  -2.5043  -2.2201  -2.1533  -2.0852  -1.7987
    -1.5907  -1.5809  -1.5552  -1.4013  -1.1630  -1.0591  -0.8450  -0.3171
    -0.1737  -0.1063   0.1892   0.5602   0.6188   0.8312   0.8611   0.9368
     1.0194   1.3376   1.3830   1.4902   1.5919   1.6415   1.7075   1.7627
     1.8260   1.9902   2.1411   2.2341   2.2715   2.3123   2.5044   2.6382
     2.7540   2.8052   3.0333   3.0737   3.2613   3.3973   3.5305   3.9464
     4.2862   4.3250   4.6171   4.6456   4.7234   4.8641   5.0067   5.0830

          k = 0.0298 0.0688 0.0000 ( 31037 PWs)   bands (ev):

   -77.7319 -77.7107 -77.6858 -77.6649 -77.5609 -77.5399 -58.5248 -58.4668
   -58.4391 -58.3797 -58.3789 -58.3205 -39.6780 -39.6570 -39.6344 -39.5306
   -39.4695 -39.4577 -39.4328 -39.4278 -39.4162 -39.3553 -39.3149 -39.2943
   -39.2790 -39.2537 -39.1728 -39.1630 -39.1362 -39.0610 -32.7956 -32.7757
   -32.7330 -32.7232 -32.6282 -32.5902 -32.5360 -32.5337 -32.4857 -32.4740
   -32.4350 -32.4290 -32.3769 -32.2519 -32.2144 -32.1898 -32.1410 -32.1163
    -3.9943  -2.5551  -2.5402  -2.2062  -2.0284  -1.8614  -1.8546  -1.5547
    -1.4163  -1.3657  -1.3096  -1.1207  -0.9657  -0.7345  -0.6844  -0.1810
    -0.1208  -0.0562  -0.0249   0.2778   0.4475   0.5342   0.6994   0.7381
     1.0933   1.2160   1.3268   1.3617   1.3982   1.4615   1.4834   1.5332
     1.8856   1.9262   1.9734   2.0652   2.1721   2.2047   2.2699   2.3601
     2.5016   2.5262   2.9766   3.0468   3.1608   3.3728   3.3853   3.7249
     3.7422   4.0841   4.2860   4.5118   4.5222   4.6761   4.8544   4.9786

          k = 0.0298-0.1204 0.0000 ( 31018 PWs)   bands (ev):

   -77.7288 -77.7138 -77.6828 -77.6680 -77.5578 -77.5429 -58.5164 -58.4753
   -58.4305 -58.3885 -58.3705 -58.3290 -39.6703 -39.6414 -39.6017 -39.4772
   -39.4625 -39.4525 -39.4336 -39.4228 -39.3780 -39.3480 -39.3356 -39.3217
   -39.2873 -39.2603 -39.2184 -39.1668 -39.1419 -39.1169 -32.7887 -32.7418
   -32.7034 -32.6522 -32.5816 -32.5587 -32.5422 -32.5288 -32.4810 -32.4798
   -32.4422 -32.4237 -32.3841 -32.3289 -32.2901 -32.1929 -32.1826 -32.1479
    -3.5731  -2.7526  -2.2641  -1.9003  -1.8649  -1.6331  -1.5631  -1.3060
    -1.2728  -1.1335  -1.1028  -0.8260  -0.7674  -0.6551  -0.4884  -0.2636
    -0.1171  -0.0894  -0.0238   0.1019   0.2509   0.4273   0.6025   0.6347
     0.8685   1.0607   1.0802   1.1583   1.1855   1.2625   1.2906   1.4066
     1.6418   1.6464   1.7793   1.9683   1.9935   2.0966   2.2426   2.3378
     2.4049   2.8678   2.9489   3.1364   3.2354   3.3042   3.3914   3.4500
     3.5895   3.8775   4.1580   4.1982   4.3965   4.6861   4.7134   4.7452

          k = 0.0298-0.1032 0.0000 ( 31016 PWs)   bands (ev):

   -77.7252 -77.7174 -77.6792 -77.6715 -77.5542 -77.5465 -58.5066 -58.4852
   -58.4204 -58.3985 -58.3607 -58.3388 -39.6625 -39.6500 -39.5377 -39.4555
   -39.4462 -39.4413 -39.4295 -39.4146 -39.4019 -39.3397 -39.3306 -39.3151
   -39.2834 -39.2790 -39.2681 -39.1820 -39.1600 -39.1488 -32.7783 -32.7499
   -32.6177 -32.5722 -32.5679 -32.5536 -32.5201 -32.4883 -32.4713 -32.4710
   -32.4494 -32.4209 -32.4113 -32.3909 -32.3770 -32.2795 -32.1751 -32.1559
    -3.1650  -3.0922  -2.0975  -1.8143  -1.7482  -1.4769  -1.4341  -1.2879
    -1.1445  -1.1435  -0.8827  -0.7475  -0.6260  -0.5737  -0.4753  -0.4681
    -0.1993  -0.1681   0.0369   0.1377   0.2119   0.5222   0.5976   0.6298
     0.6364   0.7319   0.9188   0.9937   1.0988   1.1724   1.2851   1.3346
     1.5716   1.7301   1.7706   1.8405   1.8762   1.9353   2.3269   2.3302
     2.6619   2.7096   3.1032   3.1078   3.1781   3.2724   3.3755   3.5502
     3.6582   3.8242   4.1449   4.2073   4.2432   4.5046   4.5215   4.6877

          k = 0.0298-0.0860 0.0000 ( 31016 PWs)   bands (ev):

   -77.7213 -77.7213 -77.6754 -77.6754 -77.5504 -77.5504 -58.4960 -58.4957
   -58.4096 -58.4093 -58.3501 -58.3494 -39.6598 -39.6551 -39.4741 -39.4692
   -39.4501 -39.4485 -39.4374 -39.4360 -39.3513 -39.3487 -39.3392 -39.3320
   -39.2773 -39.2727 -39.2507 -39.2472 -39.1562 -39.1534 -32.7654 -32.7575
   -32.5658 -32.5628 -32.5222 -32.5158 -32.5033 -32.4930 -32.4750 -32.4701
   -32.4590 -32.4560 -32.4045 -32.3982 -32.3777 -32.3713 -32.1664 -32.1644
    -3.5140  -2.8500  -2.0885  -1.9696  -1.8082  -1.5834  -1.5517  -1.5118
    -1.2082  -1.1754  -1.0480  -0.8458  -0.7262  -0.7086  -0.5413  -0.2850
    -0.1219  -0.0189  -0.0103   0.1576   0.2365   0.4068   0.5788   0.5831
     0.7683   0.9154   0.9896   1.1454   1.2166   1.2210   1.3554   1.5396
     1.6504   1.6841   1.7439   1.9922   2.0083   2.1287   2.2711   2.3367
     2.3849   2.8474   3.0582   3.1443   3.1980   3.3522   3.3610   3.4232
     3.5998   4.0017   4.0664   4.2863   4.3070   4.6903   4.7011   4.7565

          k = 0.0298-0.0688 0.0000 ( 31047 PWs)   bands (ev):

   -77.7252 -77.7174 -77.6792 -77.6716 -77.5542 -77.5466 -58.5062 -58.4853
   -58.4201 -58.3986 -58.3601 -58.3395 -39.6700 -39.6484 -39.5434 -39.4597
   -39.4429 -39.4424 -39.4307 -39.4182 -39.3997 -39.3500 -39.3257 -39.3194
   -39.2864 -39.2799 -39.2655 -39.1794 -39.1636 -39.1468 -32.7646 -32.7514
   -32.6027 -32.5763 -32.5617 -32.5532 -32.4991 -32.4933 -32.4630 -32.4628
   -32.4487 -32.4242 -32.4029 -32.3923 -32.3806 -32.2841 -32.1729 -32.1575
    -3.9458  -2.6929  -2.2969  -2.1963  -2.0005  -1.9578  -1.8083  -1.6696
    -1.3918  -1.3406  -1.3250  -1.1582  -0.9660  -0.7859  -0.6653  -0.1782
    -0.1066  -0.0688  -0.0226   0.2966   0.4818   0.5245   0.6291   0.6720
     1.0751   1.2245   1.2361   1.2920   1.3536   1.4573   1.4894   1.5505
     1.7303   1.8994   2.0227   2.0622   2.2276   2.3005   2.3450   2.4258
     2.5019   2.5277   3.0781   3.0891   3.1603   3.2922   3.3525   3.7088
     3.8210   4.0833   4.4013   4.4229   4.5082   4.6957   4.8638   4.9288

          k = 0.0298-0.0516 0.0000 ( 31085 PWs)   bands (ev):

   -77.7289 -77.7138 -77.6828 -77.6680 -77.5578 -77.5430 -58.5161 -58.4753
   -58.4302 -58.3884 -58.3700 -58.3296 -39.6793 -39.6424 -39.6079 -39.4815
   -39.4686 -39.4489 -39.4366 -39.4230 -39.3824 -39.3596 -39.3346 -39.3198
   -39.2943 -39.2593 -39.2171 -39.1705 -39.1409 -39.1156 -32.7712 -32.7380
   -32.6870 -32.6451 -32.5867 -32.5499 -32.5424 -32.5035 -32.4800 -32.4688
   -32.4381 -32.4087 -32.3808 -32.3316 -32.2921 -32.1953 -32.1804 -32.1491
    -4.3306  -2.6814  -2.6601  -2.3506  -2.3505  -2.2119  -2.0441  -1.8084
    -1.6102  -1.5705  -1.5493  -1.4426  -1.2092  -1.0897  -0.7896  -0.2938
    -0.2152  -0.0678   0.1609   0.5808   0.7339   0.7603   0.7984   0.8822
     0.9991   1.2851   1.3124   1.4770   1.5185   1.6648   1.7544   1.7686
     1.8116   2.0014   2.0981   2.2106   2.3035   2.4571   2.4662   2.5082
     2.6686   3.0487   3.0519   3.1462   3.2923   3.3360   3.4766   3.9882
     4.2077   4.4026   4.6192   4.7020   4.7281   4.8427   4.9952   5.0791

          k = 0.0298-0.0344 0.0000 ( 31110 PWs)   bands (ev):

   -77.7320 -77.7107 -77.6858 -77.6650 -77.5609 -77.5399 -58.5245 -58.4668
   -58.4388 -58.3796 -58.3786 -58.3209 -39.6870 -39.6626 -39.6372 -39.5345
   -39.4759 -39.4544 -39.4374 -39.4311 -39.4161 -39.3665 -39.3150 -39.3014
   -39.2786 -39.2539 -39.1761 -39.1626 -39.1358 -39.0605 -32.7776 -32.7597
   -32.7271 -32.7161 -32.6188 -32.5954 -32.5382 -32.5086 -32.4743 -32.4686
   -32.4291 -32.4137 -32.3709 -32.2517 -32.2151 -32.1879 -32.1418 -32.1170
    -4.6302  -2.9644  -2.7314  -2.6714  -2.4927  -2.3708  -2.2603  -1.9051
    -1.8520  -1.7219  -1.6926  -1.6627  -1.4358  -1.2699  -1.0742  -0.3084
    -0.2856  -0.1173   0.3662   0.8065   0.8146   0.9054   0.9063   1.0282
     1.0863   1.2302   1.4414   1.5861   1.6879   1.7229   1.7772   1.8085
     1.9272   1.9285   1.9976   2.3648   2.4263   2.5715   2.7274   2.7446
     3.1687   3.2705   3.2955   3.4888   3.5256   3.6733   3.6844   3.9345
     4.5568   4.5970   4.8237   4.9275   5.0556   5.0628   5.1598   5.1700

          k = 0.0447-0.0258 0.0000 ( 31101 PWs)   bands (ev):

   -77.7320 -77.7107 -77.6858 -77.6650 -77.5609 -77.5399 -58.5246 -58.4668
   -58.4389 -58.3797 -58.3786 -58.3208 -39.6851 -39.6614 -39.6365 -39.5337
   -39.4746 -39.4550 -39.4365 -39.4304 -39.4160 -39.3642 -39.3150 -39.2998
   -39.2787 -39.2539 -39.1755 -39.1627 -39.1359 -39.0606 -32.7815 -32.7633
   -32.7282 -32.7176 -32.6209 -32.5942 -32.5377 -32.5141 -32.4766 -32.4697
   -32.4303 -32.4169 -32.3722 -32.2517 -32.2150 -32.1883 -32.1416 -32.1168
    -4.5169  -2.8658  -2.7215  -2.5831  -2.4018  -2.2629  -2.1906  -1.8079
    -1.8034  -1.6706  -1.6131  -1.5838  -1.3871  -1.0763  -1.0125  -0.2986
    -0.2789  -0.0812   0.2794   0.6903   0.7886   0.8593   0.8918   1.0437
     1.0940   1.1191   1.4789   1.5689   1.7159   1.7228   1.7369   1.8344
     1.9017   1.9107   1.9623   2.2716   2.4251   2.4962   2.5830   2.6462
     2.9899   3.1638   3.1898   3.2367   3.4267   3.5582   3.7282   3.7712
     4.4411   4.5885   4.7846   4.8133   4.9385   4.9608   5.0520   5.0864

          k = 0.0447-0.0086 0.0000 ( 31114 PWs)   bands (ev):

   -77.7344 -77.7083 -77.6882 -77.6626 -77.5633 -77.5375 -58.5311 -58.4602
   -58.4455 -58.3852 -58.3730 -58.3143 -39.7020 -39.6891 -39.6317 -39.5735
   -39.4788 -39.4758 -39.4598 -39.4263 -39.4116 -39.3675 -39.3107 -39.3035
   -39.2494 -39.2354 -39.1792 -39.1319 -39.1205 -39.0179 -32.8214 -32.7903
   -32.7741 -32.7210 -32.6771 -32.5997 -32.5318 -32.5232 -32.4832 -32.4632
   -32.4251 -32.4240 -32.3666 -32.1954 -32.1894 -32.1553 -32.1360 -32.0571
    -4.6449  -3.0171  -2.7475  -2.6676  -2.4329  -2.3239  -2.3066  -1.9399
    -1.8126  -1.7229  -1.7185  -1.6245  -1.4217  -1.2113  -1.1391  -0.3437
    -0.2457  -0.1278   0.3760   0.7491   0.8268   0.8912   0.9569   1.0094
     1.1057   1.2940   1.5275   1.6125   1.6557   1.7338   1.7453   1.7785
     1.9256   1.9349   1.9614   2.3290   2.5005   2.6013   2.6457   2.7515
     3.2048   3.2981   3.3487   3.4316   3.5265   3.6110   3.6992   3.9054
     4.5928   4.6077   4.7789   4.9459   5.0096   5.0741   5.0816   5.2574

          k = 0.0447 0.0086 0.0000 ( 31112 PWs)   bands (ev):

   -77.7359 -77.7068 -77.6896 -77.6612 -77.5647 -77.5360 -58.5352 -58.4561
   -58.4497 -58.3894 -58.3688 -58.3100 -39.7267 -39.6905 -39.6279 -39.5979
   -39.5003 -39.4805 -39.4632 -39.4228 -39.4088 -39.3682 -39.3077 -39.3050
   -39.2464 -39.2078 -39.1811 -39.1293 -39.0937 -38.9909 -32.8598 -32.8098
   -32.7984 -32.7184 -32.7134 -32.6025 -32.5322 -32.5276 -32.4891 -32.4608
   -32.4306 -32.4230 -32.3643 -32.1980 -32.1524 -32.1324 -32.1179 -32.0195
    -4.6558  -3.0714  -2.7953  -2.5487  -2.4091  -2.3791  -2.2710  -1.9878
    -1.7878  -1.7379  -1.6987  -1.6164  -1.3242  -1.3025  -1.1380  -0.3644
    -0.1996  -0.1594   0.3852   0.7350   0.8047   0.8929   0.9601   1.0086
     1.1213   1.4533   1.4620   1.5937   1.6709   1.7145   1.7393   1.7919
     1.8687   1.9491   1.9646   2.3192   2.5723   2.5973   2.6016   2.7424
     3.1548   3.3717   3.3930   3.4565   3.4733   3.5411   3.7169   3.9214
     4.6006   4.6386   4.7157   4.9333   4.9517   5.1309   5.2008   5.2101

          k = 0.0447 0.0258 0.0000 ( 31106 PWs)   bands (ev):

   -77.7364 -77.7063 -77.6901 -77.6607 -77.5653 -77.5355 -58.5367 -58.4547
   -58.4512 -58.3909 -58.3674 -58.3086 -39.7341 -39.6892 -39.6258 -39.6055
   -39.5079 -39.4798 -39.4650 -39.4207 -39.4079 -39.3664 -39.3062 -39.3043
   -39.2451 -39.1982 -39.1812 -39.1283 -39.0845 -38.9815 -32.8756 -32.8231
   -32.8046 -32.7275 -32.7193 -32.6026 -32.5399 -32.5256 -32.4934 -32.4618
   -32.4358 -32.4237 -32.3653 -32.1996 -32.1400 -32.1311 -32.1052 -32.0069
    -4.5496  -3.0345  -2.7221  -2.3939  -2.3344  -2.3338  -2.1642  -1.9449
    -1.7084  -1.6826  -1.6041  -1.5508  -1.2715  -1.1272  -1.0566  -0.3592
    -0.1694  -0.1514   0.3083   0.6734   0.6859   0.8968   0.9687   0.9923
     1.0905   1.3647   1.4765   1.6574   1.6669   1.6781   1.7615   1.8167
     1.8532   1.8663   1.9381   2.4228   2.4289   2.4310   2.5117   2.6298
     3.0387   3.2024   3.2070   3.2490   3.3669   3.4358   3.7658   3.8092
     4.4793   4.5778   4.6699   4.8069   4.9026   5.0920   5.0967   5.1355

          k = 0.0447 0.0430 0.0000 ( 31060 PWs)   bands (ev):

   -77.7358 -77.7068 -77.6896 -77.6611 -77.5647 -77.5360 -58.5354 -58.4561
   -58.4499 -58.3895 -58.3688 -58.3099 -39.7239 -39.6858 -39.6259 -39.5960
   -39.4982 -39.4770 -39.4650 -39.4204 -39.4091 -39.3626 -39.3067 -39.3016
   -39.2458 -39.2075 -39.1794 -39.1292 -39.0936 -38.9907 -32.8675 -32.8131
   -32.8078 -32.7230 -32.7180 -32.6001 -32.5448 -32.5262 -32.4955 -32.4654
   -32.4386 -32.4268 -32.3686 -32.1989 -32.1537 -32.1322 -32.1181 -32.0199
    -4.3330  -2.9176  -2.5342  -2.3051  -2.1829  -2.1640  -2.0129  -1.8103
    -1.5634  -1.5505  -1.4853  -1.3796  -1.1204  -0.9751  -0.8176  -0.3152
    -0.1572  -0.1255   0.1772   0.5150   0.5171   0.8575   0.8823   0.9459
     1.0445   1.3152   1.4247   1.5079   1.5899   1.5901   1.6867   1.7663
     1.8756   1.9874   2.1124   2.1752   2.2017   2.2772   2.4694   2.6598
     2.6896   2.7639   2.9077   2.9678   3.2968   3.3524   3.6111   3.8930
     4.2391   4.2839   4.5726   4.5966   4.6575   4.7572   4.9298   5.0543

          k = 0.0447 0.0602 0.0000 ( 31053 PWs)   bands (ev):

   -77.7343 -77.7083 -77.6882 -77.6626 -77.5632 -77.5375 -58.5314 -58.4603
   -58.4458 -58.3855 -58.3731 -58.3139 -39.6969 -39.6807 -39.6284 -39.5699
   -39.4726 -39.4719 -39.4629 -39.4222 -39.4123 -39.3573 -39.3096 -39.2974
   -39.2488 -39.2351 -39.1761 -39.1319 -39.1205 -39.0179 -32.8354 -32.8071
   -32.7802 -32.7286 -32.6854 -32.5954 -32.5457 -32.5295 -32.4945 -32.4705
   -32.4383 -32.4315 -32.3735 -32.1968 -32.1912 -32.1554 -32.1355 -32.0574
    -4.0213  -2.7395  -2.3006  -2.2558  -1.9706  -1.9331  -1.8288  -1.5949
    -1.3900  -1.3498  -1.3119  -1.1201  -0.8670  -0.8156  -0.6734  -0.1661
    -0.1392  -0.1211   0.0342   0.3019   0.3691   0.6741   0.6997   0.7155
     1.0772   1.2457   1.2770   1.3678   1.4396   1.4491   1.5178   1.5269
     1.8917   1.9634   1.9821   2.0089   2.1542   2.2352   2.2445   2.3404
     2.4950   2.5279   2.9453   3.0418   3.2118   3.2858   3.4367   3.7260
     3.7546   4.0819   4.3323   4.4315   4.5501   4.6559   4.8751   4.9942

          k = 0.0447-0.1289 0.0000 ( 31014 PWs)   bands (ev):

   -77.7319 -77.7107 -77.6858 -77.6649 -77.5609 -77.5399 -58.5250 -58.4668
   -58.4392 -58.3798 -58.3791 -58.3204 -39.6747 -39.6548 -39.6335 -39.5291
   -39.4671 -39.4590 -39.4311 -39.4261 -39.4169 -39.3511 -39.3149 -39.2920
   -39.2791 -39.2538 -39.1715 -39.1631 -39.1363 -39.0612 -32.8021 -32.7811
   -32.7354 -32.7259 -32.6314 -32.5887 -32.5422 -32.5353 -32.4901 -32.4761
   -32.4372 -32.4345 -32.3792 -32.2521 -32.2142 -32.1905 -32.1408 -32.1162
    -3.6419  -2.5352  -2.4334  -1.9431  -1.7781  -1.6235  -1.6194  -1.3243
    -1.1763  -1.1753  -1.0923  -0.8359  -0.7645  -0.5874  -0.5668  -0.2930
    -0.1590  -0.1232   0.0783   0.1019   0.3963   0.4100   0.5102   0.5443
     0.9436   0.9780   0.9893   1.0818   1.2098   1.3073   1.3517   1.3791
     1.6166   1.6309   1.7927   2.0376   2.1103   2.1731   2.2379   2.2404
     2.3642   2.9167   2.9564   3.0747   3.2615   3.2837   3.3548   3.3650
     3.5668   4.0211   4.2160   4.3091   4.4058   4.7173   4.8633   4.9617

          k = 0.0447-0.1117 0.0000 ( 31048 PWs)   bands (ev):

   -77.7288 -77.7138 -77.6828 -77.6680 -77.5578 -77.5429 -58.5166 -58.4753
   -58.4306 -58.3885 -58.3707 -58.3289 -39.6681 -39.6411 -39.6002 -39.4761
   -39.4610 -39.4534 -39.4327 -39.4231 -39.3770 -39.3450 -39.3360 -39.3222
   -39.2857 -39.2606 -39.2188 -39.1658 -39.1422 -39.1173 -32.7929 -32.7425
   -32.7073 -32.6540 -32.5806 -32.5604 -32.5424 -32.5343 -32.4825 -32.4817
   -32.4434 -32.4273 -32.3851 -32.3285 -32.2897 -32.1922 -32.1834 -32.1477
    -3.2429  -2.7203  -2.3553  -1.7076  -1.6454  -1.4181  -1.3578  -1.0545
    -1.0500  -1.0206  -0.9460  -0.9059  -0.5359  -0.4991  -0.3941  -0.3649
    -0.3421  -0.2146  -0.0450   0.0013   0.2727   0.4616   0.4793   0.6221
     0.6844   0.7191   0.7786   0.8324   0.8478   1.0309   1.2549   1.3166
     1.5567   1.6533   1.8255   1.8280   1.9837   2.1456   2.2944   2.3192
     2.4833   2.7414   2.9301   3.1809   3.2188   3.2487   3.4067   3.4607
     3.7040   3.9953   4.0794   4.2199   4.6889   4.7955   4.8331   4.8517

          k = 0.0447-0.0946 0.0000 ( 31048 PWs)   bands (ev):

   -77.7252 -77.7174 -77.6792 -77.6716 -77.5542 -77.5465 -58.5067 -58.4852
   -58.4205 -58.3986 -58.3608 -58.3388 -39.6614 -39.6502 -39.5368 -39.4547
   -39.4468 -39.4411 -39.4295 -39.4140 -39.4024 -39.3380 -39.3314 -39.3144
   -39.2840 -39.2780 -39.2687 -39.1823 -39.1595 -39.1491 -32.7804 -32.7496
   -32.6197 -32.5717 -32.5687 -32.5535 -32.5227 -32.4881 -32.4724 -32.4720
   -32.4497 -32.4222 -32.4112 -32.3910 -32.3767 -32.2790 -32.1755 -32.1557
    -3.1149  -2.9048  -2.2366  -1.6891  -1.6657  -1.3811  -1.3429  -1.1804
    -1.0574  -1.0182  -0.9028  -0.8615  -0.6396  -0.5372  -0.4230  -0.3688
    -0.2685  -0.1259   0.0019   0.0459   0.2459   0.3441   0.3737   0.4827
     0.5640   0.7316   0.7519   0.9245   0.9738   1.1032   1.2386   1.3429
     1.5506   1.6757   1.7319   1.8926   2.0176   2.1273   2.3083   2.3140
     2.4723   2.7869   2.9443   3.1502   3.2196   3.2906   3.2931   3.5333
     3.7995   3.9082   4.1350   4.2035   4.6876   4.7882   4.8211   4.8512

          k = 0.0447-0.0774 0.0000 ( 31028 PWs)   bands (ev):

   -77.7213 -77.7213 -77.6754 -77.6754 -77.5504 -77.5504 -58.4960 -58.4957
   -58.4096 -58.4093 -58.3502 -58.3494 -39.6602 -39.6548 -39.4744 -39.4686
   -39.4504 -39.4484 -39.4375 -39.4360 -39.3513 -39.3480 -39.3402 -39.3317
   -39.2776 -39.2723 -39.2511 -39.2470 -39.1565 -39.1532 -32.7660 -32.7569
   -32.5661 -32.5626 -32.5217 -32.5107 -32.5086 -32.4930 -32.4750 -32.4686
   -32.4605 -32.4563 -32.4045 -32.3970 -32.3790 -32.3712 -32.1665 -32.1643
    -3.5440  -2.7220  -2.1753  -1.9474  -1.8035  -1.5898  -1.5499  -1.5093
    -1.1998  -1.1161  -1.1096  -0.8567  -0.7732  -0.6351  -0.5889  -0.2710
    -0.2217  -0.0556   0.0598   0.2007   0.3452   0.4195   0.4352   0.4449
     0.7729   0.9098   0.9464   1.1334   1.1560   1.1912   1.4071   1.5469
     1.6421   1.6731   1.7562   2.0813   2.1272   2.1919   2.2039   2.3033
     2.3778   2.8962   3.0553   3.1691   3.1818   3.2626   3.3568   3.3605
     3.5878   4.0986   4.2385   4.2841   4.3625   4.7324   4.8664   4.8930

          k = 0.0447-0.0602 0.0000 ( 31047 PWs)   bands (ev):

   -77.7252 -77.7174 -77.6792 -77.6716 -77.5542 -77.5466 -58.5062 -58.4853
   -58.4201 -58.3986 -58.3601 -58.3395 -39.6700 -39.6484 -39.5434 -39.4597
   -39.4429 -39.4424 -39.4307 -39.4182 -39.3997 -39.3500 -39.3257 -39.3194
   -39.2864 -39.2799 -39.2655 -39.1794 -39.1636 -39.1468 -32.7646 -32.7514
   -32.6027 -32.5763 -32.5617 -32.5532 -32.4991 -32.4933 -32.4630 -32.4628
   -32.4487 -32.4242 -32.4029 -32.3923 -32.3806 -32.2841 -32.1729 -32.1575
    -3.9458  -2.6929  -2.2969  -2.1963  -2.0005  -1.9578  -1.8083  -1.6696
    -1.3918  -1.3406  -1.3250  -1.1582  -0.9660  -0.7859  -0.6653  -0.1782
    -0.1066  -0.0688  -0.0226   0.2966   0.4818   0.5245   0.6291   0.6720
     1.0751   1.2245   1.2361   1.2920   1.3536   1.4573   1.4894   1.5505
     1.7303   1.8994   2.0227   2.0622   2.2276   2.3005   2.3450   2.4258
     2.5019   2.5277   3.0781   3.0891   3.1603   3.2922   3.3525   3.7088
     3.8210   4.0833   4.4013   4.4229   4.5082   4.6957   4.8638   4.9288

          k = 0.0447-0.0430 0.0000 ( 31055 PWs)   bands (ev):

   -77.7289 -77.7138 -77.6827 -77.6680 -77.5578 -77.5430 -58.5160 -58.4753
   -58.4301 -58.3884 -58.3700 -58.3295 -39.6785 -39.6423 -39.6073 -39.4812
   -39.4681 -39.4493 -39.4364 -39.4229 -39.3820 -39.3586 -39.3346 -39.3200
   -39.2936 -39.2593 -39.2172 -39.1702 -39.1410 -39.1157 -32.7728 -32.7383
   -32.6886 -32.6457 -32.5862 -32.5510 -32.5422 -32.5059 -32.4800 -32.4697
   -32.4385 -32.4100 -32.3810 -32.3313 -32.2919 -32.1950 -32.1806 -32.1490
    -4.2788  -2.7182  -2.6198  -2.3134  -2.3062  -2.1573  -2.0114  -1.7603
    -1.5982  -1.5544  -1.4855  -1.4219  -1.2309  -0.9553  -0.7621  -0.2778
    -0.2329  -0.0383   0.1211   0.5086   0.6700   0.7150   0.8237   0.9065
     1.0552   1.2120   1.3884   1.4705   1.5319   1.6070   1.6756   1.7888
     1.8881   2.0179   2.0391   2.1705   2.2661   2.3959   2.4201   2.4883
     2.7045   2.9084   2.9718   3.1184   3.1556   3.4606   3.5257   3.8957
     4.1744   4.3622   4.5794   4.6311   4.7263   4.7275   4.8803   4.9982

          k = 0.0596-0.0344 0.0000 ( 31044 PWs)   bands (ev):

   -77.7289 -77.7138 -77.6827 -77.6680 -77.5578 -77.5430 -58.5161 -58.4753
   -58.4303 -58.3884 -58.3701 -58.3293 -39.6763 -39.6421 -39.6057 -39.4801
   -39.4666 -39.4501 -39.4358 -39.4228 -39.3810 -39.3558 -39.3348 -39.3205
   -39.2919 -39.2596 -39.2175 -39.1693 -39.1412 -39.1160 -32.7771 -32.7394
   -32.6927 -32.6474 -32.5848 -32.5534 -32.5420 -32.5124 -32.4801 -32.4724
   -32.4394 -32.4136 -32.3818 -32.3305 -32.2913 -32.1945 -32.1810 -32.1487
    -4.1265  -2.7650  -2.5054  -2.2181  -2.2108  -2.0097  -1.9148  -1.6364
    -1.5609  -1.4680  -1.3572  -1.3277  -1.1672  -0.7310  -0.6846  -0.2302
    -0.2276   0.0061   0.0134   0.3607   0.5343   0.5845   0.8229   0.9056
     1.1779   1.1842   1.4281   1.4354   1.4960   1.5137   1.5250   1.7450
     1.9552   1.9706   2.0431   2.1394   2.2058   2.2180   2.2698   2.4426
     2.5498   2.7278   2.8395   3.0352   3.0864   3.5104   3.6516   3.7073
     4.0161   4.2815   4.3208   4.4718   4.5825   4.6534   4.6826   4.7471

          k = 0.0596-0.0172 0.0000 ( 31059 PWs)   bands (ev):

   -77.7320 -77.7107 -77.6858 -77.6650 -77.5609 -77.5399 -58.5247 -58.4668
   -58.4389 -58.3797 -58.3787 -58.3207 -39.6818 -39.6594 -39.6355 -39.5322
   -39.4722 -39.4562 -39.4348 -39.4293 -39.4160 -39.3601 -39.3150 -39.2972
   -39.2788 -39.2538 -39.1743 -39.1628 -39.1360 -39.0607 -32.7881 -32.7692
   -32.7304 -32.7202 -32.6244 -32.5922 -32.5369 -32.5234 -32.4807 -32.4716
   -32.4325 -32.4225 -32.3744 -32.2518 -32.2147 -32.1890 -32.1414 -32.1165
    -4.2985  -2.6945  -2.6622  -2.4237  -2.2477  -2.0789  -2.0532  -1.7152
    -1.6251  -1.5355  -1.5132  -1.3878  -1.2294  -0.8947  -0.8142  -0.2872
    -0.2244  -0.0453   0.1332   0.5015   0.6357   0.7217   0.8510   0.9436
     1.0666   1.2386   1.4264   1.4997   1.5585   1.6108   1.6314   1.8346
     1.8951   2.0099   2.0643   2.1062   2.2582   2.3359   2.4909   2.6235
     2.6851   2.7212   2.9618   3.0683   3.1631   3.4994   3.5526   3.8505
     4.2112   4.3354   4.5368   4.6172   4.7318   4.7343   4.8668   5.0443

          k = 0.0596 0.0000 0.0000 ( 31079 PWs)   bands (ev):

   -77.7343 -77.7083 -77.6881 -77.6626 -77.5632 -77.5375 -58.5312 -58.4603
   -58.4456 -58.3853 -58.3730 -58.3141 -39.6994 -39.6850 -39.6301 -39.5717
   -39.4757 -39.4739 -39.4613 -39.4244 -39.4118 -39.3624 -39.3102 -39.3004
   -39.2491 -39.2353 -39.1777 -39.1319 -39.1204 -39.0179 -32.8285 -32.7988
   -32.7771 -32.7248 -32.6813 -32.5973 -32.5347 -32.5306 -32.4887 -32.4669
   -32.4312 -32.4283 -32.3701 -32.1964 -32.1900 -32.1553 -32.1357 -32.0572
    -4.3681  -2.8323  -2.5338  -2.5043  -2.2201  -2.1533  -2.0852  -1.7987
    -1.5907  -1.5809  -1.5552  -1.4013  -1.1630  -1.0591  -0.8450  -0.3171
    -0.1737  -0.1063   0.1892   0.5602   0.6188   0.8312   0.8611   0.9368
     1.0194   1.3376   1.3830   1.4902   1.5919   1.6415   1.7075   1.7627
     1.8260   1.9902   2.1411   2.2341   2.2715   2.3123   2.5044   2.6382
     2.7540   2.8052   3.0333   3.0737   3.2613   3.3973   3.5305   3.9464
     4.2862   4.3250   4.6171   4.6456   4.7234   4.8641   5.0067   5.0830

          k = 0.0596 0.0172 0.0000 ( 31060 PWs)   bands (ev):

   -77.7358 -77.7068 -77.6896 -77.6611 -77.5647 -77.5360 -58.5354 -58.4561
   -58.4499 -58.3895 -58.3688 -58.3099 -39.7239 -39.6858 -39.6259 -39.5960
   -39.4982 -39.4770 -39.4650 -39.4204 -39.4091 -39.3626 -39.3067 -39.3016
   -39.2458 -39.2075 -39.1794 -39.1292 -39.0936 -38.9907 -32.8675 -32.8131
   -32.8078 -32.7230 -32.7180 -32.6001 -32.5448 -32.5262 -32.4955 -32.4654
   -32.4386 -32.4268 -32.3686 -32.1989 -32.1537 -32.1322 -32.1181 -32.0199
    -4.3330  -2.9176  -2.5342  -2.3051  -2.1829  -2.1640  -2.0129  -1.8103
    -1.5634  -1.5505  -1.4853  -1.3796  -1.1204  -0.9751  -0.8176  -0.3152
    -0.1572  -0.1255   0.1772   0.5150   0.5171   0.8575   0.8823   0.9459
     1.0445   1.3152   1.4247   1.5079   1.5899   1.5901   1.6867   1.7663
     1.8756   1.9874   2.1124   2.1752   2.2017   2.2772   2.4694   2.6598
     2.6896   2.7639   2.9077   2.9678   3.2968   3.3524   3.6111   3.8930
     4.2391   4.2839   4.5726   4.5966   4.6575   4.7572   4.9298   5.0543

          k = 0.0596 0.0344 0.0000 ( 31052 PWs)   bands (ev):

   -77.7363 -77.7063 -77.6901 -77.6606 -77.5652 -77.5355 -58.5368 -58.4548
   -58.4514 -58.3910 -58.3675 -58.3084 -39.7314 -39.6846 -39.6237 -39.6037
   -39.5059 -39.4763 -39.4668 -39.4181 -39.4085 -39.3608 -39.3052 -39.3010
   -39.2445 -39.1978 -39.1795 -39.1282 -39.0843 -38.9813 -32.8831 -32.8265
   -32.8139 -32.7319 -32.7240 -32.6005 -32.5520 -32.5243 -32.4999 -32.4666
   -32.4437 -32.4275 -32.3696 -32.2004 -32.1414 -32.1310 -32.1055 -32.0074
    -4.1961  -2.9408  -2.4323  -2.1208  -2.1117  -2.0789  -1.8892  -1.7466
    -1.4750  -1.4740  -1.3335  -1.3106  -1.0671  -0.7557  -0.7105  -0.2646
    -0.1865  -0.1226   0.1307   0.3706   0.3916   0.7997   0.8544   0.9377
     1.1138   1.2643   1.4369   1.4867   1.4922   1.5465   1.5770   1.8527
     1.9268   1.9775   2.0236   2.0350   2.1565   2.1676   2.4015   2.4416
     2.5297   2.6200   2.8002   2.8939   3.2311   3.3879   3.7132   3.7676
     4.0493   4.1715   4.4215   4.4767   4.4936   4.5347   4.7888   4.7930

          k = 0.0596 0.0516 0.0000 ( 31059 PWs)   bands (ev):

   -77.7358 -77.7068 -77.6896 -77.6611 -77.5647 -77.5360 -58.5356 -58.4563
   -58.4501 -58.3897 -58.3690 -58.3098 -39.7215 -39.6817 -39.6241 -39.5943
   -39.4965 -39.4740 -39.4665 -39.4179 -39.4099 -39.3576 -39.3059 -39.2988
   -39.2454 -39.2072 -39.1779 -39.1291 -39.0935 -38.9906 -32.8740 -32.8162
   -32.8159 -32.7270 -32.7219 -32.5986 -32.5551 -32.5251 -32.5013 -32.4695
   -32.4455 -32.4301 -32.3723 -32.1995 -32.1549 -32.1321 -32.1183 -32.0203
    -3.9668  -2.8994  -2.2425  -2.0482  -1.9606  -1.9144  -1.7434  -1.6085
    -1.3388  -1.3271  -1.2127  -1.0904  -0.9106  -0.6651  -0.5494  -0.1961
    -0.1710  -0.1031   0.0794   0.2136   0.2555   0.6561   0.7558   0.8254
     1.1361   1.2103   1.2755   1.3533   1.3633   1.5078   1.5141   1.5890
     1.7925   1.8899   1.9647   2.0118   2.0686   2.0997   2.1748   2.3682
     2.3752   2.4533   2.9064   3.0936   3.2268   3.2975   3.5634   3.6820
     3.7788   3.9507   4.1931   4.2622   4.4123   4.5308   4.7121   4.7226

          k = 0.0596-0.1375 0.0000 ( 31022 PWs)   bands (ev):

   -77.7343 -77.7083 -77.6881 -77.6626 -77.5632 -77.5375 -58.5316 -58.4603
   -58.4459 -58.3856 -58.3731 -58.3138 -39.6949 -39.6776 -39.6273 -39.5686
   -39.4705 -39.4703 -39.4642 -39.4201 -39.4131 -39.3535 -39.3091 -39.2952
   -39.2486 -39.2350 -39.1749 -39.1319 -39.1204 -39.0179 -32.8404 -32.8132
   -32.7825 -32.7314 -32.6883 -32.5943 -32.5535 -32.5287 -32.4989 -32.4732
   -32.4434 -32.4338 -32.3761 -32.1969 -32.1923 -32.1554 -32.1354 -32.0575
    -3.6651  -2.8023  -2.1188  -1.9936  -1.7432  -1.7113  -1.5798  -1.4054
    -1.1821  -1.1303  -1.0622  -0.8123  -0.6963  -0.6954  -0.4794  -0.3104
    -0.1166  -0.0348   0.0196   0.0477   0.3543   0.5142   0.5932   0.6246
     0.9011   0.9982   1.0747   1.1002   1.2305   1.2684   1.3309   1.4645
     1.6106   1.6533   1.7471   1.9159   2.0146   2.1568   2.1994   2.3172
     2.3586   2.8158   2.9810   3.1082   3.2683   3.3250   3.3848   3.4272
     3.5606   3.9713   4.0640   4.2832   4.3161   4.6293   4.7628   4.7672

          k = 0.0596-0.1203 0.0000 ( 31042 PWs)   bands (ev):

   -77.7319 -77.7107 -77.6858 -77.6649 -77.5609 -77.5399 -58.5251 -58.4669
   -58.4393 -58.3798 -58.3792 -58.3204 -39.6727 -39.6535 -39.6330 -39.5282
   -39.4657 -39.4597 -39.4301 -39.4247 -39.4176 -39.3487 -39.3148 -39.2907
   -39.2791 -39.2538 -39.1708 -39.1632 -39.1364 -39.0613 -32.8058 -32.7841
   -32.7367 -32.7275 -32.6333 -32.5880 -32.5470 -32.5349 -32.4928 -32.4774
   -32.4385 -32.4377 -32.3805 -32.2521 -32.2140 -32.1910 -32.1407 -32.1162
    -3.3330  -2.6615  -2.3497  -1.7499  -1.5880  -1.4187  -1.4031  -1.1567
    -1.0802  -0.9123  -0.8883  -0.8499  -0.5438  -0.5389  -0.4734  -0.4570
    -0.2633  -0.1169   0.0265   0.0870   0.3712   0.3800   0.4739   0.5985
     0.6403   0.7155   0.7649   0.8441   0.8472   1.0755   1.2464   1.3103
     1.5335   1.6158   1.8304   1.8395   2.0334   2.1457   2.2212   2.3426
     2.4616   2.7579   2.8963   3.1929   3.2167   3.2776   3.3917   3.4420
     3.7599   3.8765   4.1669   4.2004   4.6792   4.7739   4.8355   4.8446

          k = 0.0596-0.1031 0.0000 ( 31098 PWs)   bands (ev):

   -77.7288 -77.7138 -77.6828 -77.6680 -77.5578 -77.5430 -58.5167 -58.4754
   -58.4307 -58.3886 -58.3708 -58.3290 -39.6673 -39.6410 -39.5997 -39.4757
   -39.4605 -39.4537 -39.4323 -39.4232 -39.3766 -39.3439 -39.3362 -39.3224
   -39.2851 -39.2607 -39.2189 -39.1655 -39.1424 -39.1175 -32.7944 -32.7428
   -32.7087 -32.6547 -32.5802 -32.5610 -32.5425 -32.5363 -32.4836 -32.4819
   -32.4438 -32.4286 -32.3855 -32.3283 -32.2896 -32.1920 -32.1837 -32.1476
    -3.0541  -2.7055  -2.4692  -1.6194  -1.5408  -1.2485  -1.2464  -1.1031
    -0.9657  -0.8897  -0.8257  -0.8002  -0.7153  -0.6249  -0.4424  -0.2783
    -0.2545  -0.1825   0.0234   0.0364   0.2105   0.2958   0.3804   0.4347
     0.5356   0.6106   0.6821   0.7156   0.9227   1.0048   1.3402   1.3691
     1.3721   1.4251   1.8997   1.9565   2.0229   2.1963   2.2312   2.2378
     2.6252   2.6518   2.7154   3.2002   3.2214   3.2800   3.4553   3.6391
     3.7929   3.8804   3.9101   4.8081   4.8382   4.8446   4.8673   4.8881

          k = 0.0596-0.0859 0.0000 ( 31048 PWs)   bands (ev):

   -77.7252 -77.7174 -77.6792 -77.6716 -77.5542 -77.5465 -58.5067 -58.4852
   -58.4205 -58.3986 -58.3608 -58.3388 -39.6614 -39.6502 -39.5368 -39.4547
   -39.4468 -39.4411 -39.4295 -39.4140 -39.4024 -39.3380 -39.3314 -39.3144
   -39.2840 -39.2780 -39.2687 -39.1823 -39.1595 -39.1491 -32.7804 -32.7496
   -32.6197 -32.5717 -32.5687 -32.5535 -32.5227 -32.4881 -32.4724 -32.4720
   -32.4497 -32.4222 -32.4112 -32.3910 -32.3767 -32.2790 -32.1755 -32.1557
    -3.1149  -2.9048  -2.2366  -1.6891  -1.6657  -1.3811  -1.3429  -1.1804
    -1.0574  -1.0182  -0.9028  -0.8615  -0.6396  -0.5372  -0.4230  -0.3688
    -0.2685  -0.1259   0.0019   0.0459   0.2459   0.3441   0.3737   0.4827
     0.5640   0.7316   0.7519   0.9245   0.9738   1.1032   1.2386   1.3429
     1.5506   1.6757   1.7319   1.8926   2.0176   2.1273   2.3083   2.3140
     2.4723   2.7869   2.9443   3.1502   3.2196   3.2906   3.2931   3.5333
     3.7995   3.9082   4.1350   4.2035   4.6876   4.7884   4.8210   4.8519

          k = 0.0596-0.0687 0.0000 ( 31016 PWs)   bands (ev):

[...]
     1.8917   1.9634   1.9821   2.0089   2.1542   2.2353   2.2445   2.3404
     2.4950   2.5279   2.9453   3.0418   3.2118   3.2858   3.4367   3.7260
     3.7546   4.0819   4.3323   4.4315   4.5501   4.6559   4.8750   4.9942

          k = 0.0745 0.0258 0.0000 ( 31059 PWs)   bands (ev):

   -77.7358 -77.7068 -77.6896 -77.6611 -77.5647 -77.5360 -58.5356 -58.4563
   -58.4501 -58.3897 -58.3690 -58.3098 -39.7215 -39.6817 -39.6241 -39.5943
   -39.4965 -39.4740 -39.4665 -39.4179 -39.4099 -39.3576 -39.3059 -39.2988
   -39.2454 -39.2072 -39.1779 -39.1291 -39.0935 -38.9906 -32.8740 -32.8162
   -32.8159 -32.7270 -32.7219 -32.5986 -32.5551 -32.5251 -32.5013 -32.4695
   -32.4455 -32.4301 -32.3723 -32.1995 -32.1549 -32.1321 -32.1183 -32.0203
    -3.9668  -2.8994  -2.2425  -2.0482  -1.9606  -1.9144  -1.7434  -1.6085
    -1.3388  -1.3271  -1.2127  -1.0904  -0.9106  -0.6651  -0.5494  -0.1961
    -0.1710  -0.1031   0.0794   0.2136   0.2555   0.6561   0.7558   0.8254
     1.1361   1.2103   1.2755   1.3533   1.3633   1.5078   1.5141   1.5890
     1.7925   1.8899   1.9647   2.0118   2.0686   2.0997   2.1748   2.3682
     2.3752   2.4533   2.9064   3.0936   3.2268   3.2975   3.5634   3.6820
     3.7788   3.9507   4.1931   4.2622   4.4123   4.5308   4.7121   4.7226

          k = 0.0745 0.0430 0.0000 ( 31054 PWs)   bands (ev):

   -77.7363 -77.7063 -77.6901 -77.6606 -77.5652 -77.5355 -58.5371 -58.4548
   -58.4516 -58.3912 -58.3675 -58.3083 -39.7293 -39.6812 -39.6221 -39.6023
   -39.5044 -39.4738 -39.4681 -39.4157 -39.4094 -39.3567 -39.3043 -39.2987
   -39.2441 -39.1976 -39.1782 -39.1281 -39.0842 -38.9812 -32.8885 -32.8291
   -32.8207 -32.7351 -32.7274 -32.5996 -32.5604 -32.5234 -32.5049 -32.4701
   -32.4493 -32.4303 -32.3728 -32.2009 -32.1425 -32.1308 -32.1057 -32.0078
    -3.8382  -2.9926  -2.1705  -1.9129  -1.8669  -1.8427  -1.6419  -1.5799
    -1.3422  -1.2029  -1.0402  -1.0094  -0.8697  -0.5761  -0.4562  -0.2684
    -0.1825   0.0167   0.0485   0.1367   0.2268   0.5544   0.7788   0.9118
     1.1254   1.1913   1.1972   1.2953   1.3087   1.5109   1.5494   1.6172
     1.6456   1.7134   1.8020   1.8654   1.9514   1.9751   2.1355   2.1959
     2.5155   2.5259   2.9334   3.2231   3.2325   3.3248   3.4867   3.6618
     3.7588   3.7816   4.0111   4.1500   4.2672   4.2761   4.4677   4.5849

          k = 0.0745-0.1461 0.0000 ( 31019 PWs)   bands (ev):

   -77.7358 -77.7068 -77.6896 -77.6611 -77.5647 -77.5360 -58.5357 -58.4563
   -58.4501 -58.3897 -58.3690 -58.3096 -39.7201 -39.6793 -39.6230 -39.5933
   -39.4954 -39.4722 -39.4675 -39.4161 -39.4108 -39.3548 -39.3053 -39.2972
   -39.2452 -39.2070 -39.1770 -39.1290 -39.0934 -38.9906 -32.8778 -32.8206
   -32.8180 -32.7293 -32.7241 -32.5980 -32.5608 -32.5245 -32.5048 -32.4718
   -32.4493 -32.4319 -32.3744 -32.1999 -32.1555 -32.1319 -32.1185 -32.0205
    -3.6560  -3.0012  -2.0436  -1.8690  -1.7858  -1.7321  -1.5425  -1.4928
    -1.2887  -1.0352  -0.9401  -0.8066  -0.8017  -0.5857  -0.4593  -0.3044
    -0.2047  -0.0807   0.0622   0.1598   0.3917   0.4505   0.7453   0.8791
     0.9286   1.0318   1.1200   1.1364   1.2244   1.3342   1.3484   1.5333
     1.5468   1.6342   1.7058   1.7596   1.8899   2.0293   2.1257   2.2070
     2.5827   2.7709   3.0401   3.1318   3.2667   3.2710   3.3950   3.5844
     3.6304   3.8516   3.9165   4.0740   4.2358   4.2814   4.3473   4.5927

          k = 0.0745-0.1289 0.0000 ( 31016 PWs)   bands (ev):

   -77.7343 -77.7083 -77.6881 -77.6626 -77.5632 -77.5375 -58.5316 -58.4604
   -58.4460 -58.3856 -58.3732 -58.3138 -39.6943 -39.6765 -39.6268 -39.5681
   -39.4700 -39.4695 -39.4646 -39.4192 -39.4136 -39.3521 -39.3089 -39.2944
   -39.2485 -39.2350 -39.1744 -39.1319 -39.1204 -39.0179 -32.8422 -32.8154
   -32.7834 -32.7324 -32.6894 -32.5940 -32.5562 -32.5285 -32.5005 -32.4742
   -32.4453 -32.4347 -32.3770 -32.1967 -32.1928 -32.1555 -32.1353 -32.0576
    -3.4689  -2.8971  -2.0430  -1.8847  -1.6368  -1.6002  -1.4505  -1.3436
    -1.2009  -0.8737  -0.8537  -0.7590  -0.7114  -0.5952  -0.5324  -0.3142
    -0.1664  -0.1239  -0.0871   0.2538   0.3804   0.5685   0.6341   0.6679
     0.6952   0.7923   0.8630   0.8907   1.0696   1.2466   1.2831   1.3014
     1.5284   1.5852   1.8226   1.8752   1.8798   1.9594   2.2695   2.3197
     2.5818   2.7136   3.0861   3.1349   3.1816   3.2724   3.3526   3.5957
     3.6367   3.7568   4.1850   4.1932   4.2204   4.4825   4.5409   4.7169

          k = 0.0745-0.1117 0.0000 ( 31042 PWs)   bands (ev):

   -77.7319 -77.7107 -77.6858 -77.6649 -77.5609 -77.5399 -58.5251 -58.4669
   -58.4393 -58.3798 -58.3792 -58.3204 -39.6727 -39.6535 -39.6330 -39.5282
   -39.4657 -39.4597 -39.4301 -39.4247 -39.4176 -39.3487 -39.3148 -39.2907
   -39.2791 -39.2538 -39.1708 -39.1632 -39.1364 -39.0613 -32.8058 -32.7841
   -32.7367 -32.7275 -32.6333 -32.5880 -32.5470 -32.5349 -32.4928 -32.4774
   -32.4385 -32.4377 -32.3805 -32.2521 -32.2140 -32.1910 -32.1407 -32.1162
    -3.3330  -2.6615  -2.3497  -1.7499  -1.5880  -1.4187  -1.4031  -1.1567
    -1.0802  -0.9123  -0.8883  -0.8499  -0.5438  -0.5389  -0.4734  -0.4570
    -0.2633  -0.1169   0.0265   0.0870   0.3712   0.3800   0.4739   0.5985
     0.6403   0.7155   0.7649   0.8441   0.8472   1.0755   1.2464   1.3103
     1.5335   1.6158   1.8304   1.8395   2.0334   2.1457   2.2212   2.3426
     2.4616   2.7579   2.8963   3.1929   3.2167   3.2776   3.3917   3.4420
     3.7599   3.8765   4.1669   4.2004   4.6792   4.7739   4.8355   4.8446

          k = 0.0745-0.0945 0.0000 ( 31048 PWs)   bands (ev):

   -77.7288 -77.7138 -77.6828 -77.6680 -77.5578 -77.5429 -58.5166 -58.4753
   -58.4306 -58.3885 -58.3707 -58.3289 -39.6681 -39.6411 -39.6002 -39.4761
   -39.4610 -39.4534 -39.4327 -39.4231 -39.3770 -39.3450 -39.3360 -39.3222
   -39.2857 -39.2606 -39.2188 -39.1658 -39.1422 -39.1173 -32.7929 -32.7425
   -32.7073 -32.6540 -32.5806 -32.5604 -32.5424 -32.5343 -32.4825 -32.4817
   -32.4434 -32.4273 -32.3851 -32.3285 -32.2897 -32.1922 -32.1834 -32.1477
    -3.2429  -2.7203  -2.3553  -1.7076  -1.6454  -1.4181  -1.3578  -1.0545
    -1.0500  -1.0206  -0.9460  -0.9059  -0.5359  -0.4991  -0.3941  -0.3649
    -0.3421  -0.2146  -0.0450   0.0013   0.2727   0.4616   0.4793   0.6221
     0.6844   0.7191   0.7786   0.8324   0.8478   1.0309   1.2549   1.3166
     1.5567   1.6533   1.8255   1.8280   1.9837   2.1456   2.2944   2.3192
     2.4833   2.7414   2.9301   3.1809   3.2188   3.2487   3.4067   3.4607
     3.7040   3.9953   4.0794   4.2199   4.6889   4.7955   4.8333   4.8516

          k = 0.0745-0.0773 0.0000 ( 31016 PWs)   bands (ev):

   -77.7252 -77.7174 -77.6792 -77.6715 -77.5542 -77.5465 -58.5066 -58.4852
   -58.4204 -58.3985 -58.3607 -58.3388 -39.6625 -39.6500 -39.5377 -39.4555
   -39.4462 -39.4413 -39.4295 -39.4146 -39.4019 -39.3397 -39.3306 -39.3151
   -39.2834 -39.2790 -39.2681 -39.1820 -39.1600 -39.1488 -32.7783 -32.7499
   -32.6177 -32.5722 -32.5679 -32.5536 -32.5201 -32.4883 -32.4713 -32.4710
   -32.4494 -32.4209 -32.4113 -32.3909 -32.3770 -32.2795 -32.1751 -32.1559
    -3.1650  -3.0922  -2.0975  -1.8143  -1.7482  -1.4769  -1.4341  -1.2879
    -1.1445  -1.1435  -0.8827  -0.7475  -0.6260  -0.5737  -0.4753  -0.4681
    -0.1993  -0.1681   0.0369   0.1377   0.2119   0.5222   0.5976   0.6298
     0.6364   0.7319   0.9188   0.9937   1.0988   1.1724   1.2851   1.3346
     1.5716   1.7301   1.7706   1.8405   1.8762   1.9353   2.3269   2.3302
     2.6619   2.7096   3.1032   3.1078   3.1781   3.2724   3.3755   3.5502
     3.6582   3.8242   4.1449   4.2073   4.2432   4.5046   4.5215   4.6877

          k = 0.0745-0.0601 0.0000 ( 31027 PWs)   bands (ev):

   -77.7213 -77.7213 -77.6754 -77.6754 -77.5504 -77.5504 -58.4960 -58.4958
   -58.4095 -58.4094 -58.3500 -58.3496 -39.6589 -39.6561 -39.4734 -39.4706
   -39.4494 -39.4486 -39.4370 -39.4362 -39.3512 -39.3499 -39.3370 -39.3331
   -39.2765 -39.2739 -39.2498 -39.2478 -39.1556 -39.1540 -32.7638 -32.7592
   -32.5651 -32.5633 -32.5231 -32.5204 -32.4982 -32.4933 -32.4748 -32.4725
   -32.4568 -32.4555 -32.4040 -32.4007 -32.3753 -32.3718 -32.1660 -32.1648
    -3.4239  -3.0733  -2.0303  -2.0102  -1.7469  -1.5919  -1.5476  -1.5203
    -1.2516  -1.2353  -0.9420  -0.8476  -0.7267  -0.5931  -0.5168  -0.4041
    -0.0467  -0.0342   0.0766   0.0771   0.2208   0.3638   0.7495   0.7801
     0.8375   0.9364   1.0546   1.1569   1.2745   1.2761   1.3753   1.5109
     1.6283   1.6551   1.7200   1.8756   1.8834   1.9956   2.1857   2.2405
     2.6359   2.8582   3.0614   3.0963   3.2259   3.2672   3.5126   3.5244
     3.6618   3.8550   3.8980   4.1154   4.2033   4.2973   4.3834   4.5236

          k =-0.0894 0.0515 0.0000 ( 31002 PWs)   bands (ev):

   -77.7213 -77.7213 -77.6754 -77.6754 -77.5504 -77.5504 -58.4958 -58.4958
   -58.4094 -58.4094 -58.3497 -58.3497 -39.6575 -39.6575 -39.4721 -39.4721
   -39.4489 -39.4489 -39.4365 -39.4365 -39.3508 -39.3508 -39.3348 -39.3348
   -39.2752 -39.2752 -39.2488 -39.2487 -39.1548 -39.1548 -32.7615 -32.7615
   -32.5641 -32.5641 -32.5228 -32.5228 -32.4949 -32.4949 -32.4741 -32.4741
   -32.4556 -32.4556 -32.4028 -32.4028 -32.3731 -32.3731 -32.1654 -32.1654
    -3.2745  -3.2745  -2.0310  -2.0310  -1.6492  -1.6492  -1.5347  -1.5347
    -1.2666  -1.2666  -0.8725  -0.8725  -0.6186  -0.6186  -0.4830  -0.4830
    -0.0375  -0.0375   0.0472   0.0472   0.3230   0.3230   0.8343   0.8343
     0.9883   0.9883   1.0698   1.0698   1.2891   1.2891   1.4345   1.4345
     1.6337   1.6337   1.7852   1.7852   1.8718   1.8718   2.1519   2.1519
     2.9230   2.9230   2.9706   2.9706   3.2173   3.2173   3.5469   3.5469
     3.8466   3.8466   3.9423   3.9423   4.0023   4.0023   4.3663   4.3663

          k =-0.0894 0.0687 0.0000 ( 31029 PWs)   bands (ev):

   -77.7252 -77.7174 -77.6792 -77.6716 -77.5542 -77.5465 -58.5066 -58.4852
   -58.4204 -58.3985 -58.3606 -58.3390 -39.6645 -39.6496 -39.5393 -39.4568
   -39.4453 -39.4416 -39.4297 -39.4157 -39.4012 -39.3427 -39.3292 -39.3163
   -39.2828 -39.2806 -39.2673 -39.1814 -39.1608 -39.1482 -32.7747 -32.7503
   -32.6142 -32.5732 -32.5663 -32.5538 -32.5154 -32.4890 -32.4693 -32.4691
   -32.4490 -32.4196 -32.4107 -32.3909 -32.3778 -32.2805 -32.1745 -32.1563
    -3.4522  -3.0392  -2.0949  -1.9622  -1.7986  -1.6186  -1.5504  -1.4142
    -1.2963  -1.2095  -0.9756  -0.8265  -0.7424  -0.5550  -0.5008  -0.4039
    -0.0722  -0.0314   0.0723   0.0790   0.1783   0.3846   0.7219   0.7539
     0.9277   1.0729   1.1009   1.1688   1.2313   1.2972   1.3418   1.3713
     1.6624   1.6906   1.7183   1.8500   1.9106   1.9342   2.1861   2.2404
     2.6659   2.8707   2.9578   3.1647   3.1732   3.3224   3.4232   3.6456
     3.6692   3.6963   3.9722   4.0903   4.2510   4.3293   4.3448   4.5281

          k =-0.0894 0.0859 0.0000 ( 31018 PWs)   bands (ev):

   -77.7288 -77.7138 -77.6828 -77.6680 -77.5578 -77.5429 -58.5164 -58.4753
   -58.4305 -58.3885 -58.3705 -58.3290 -39.6703 -39.6414 -39.6017 -39.4772
   -39.4625 -39.4525 -39.4336 -39.4228 -39.3780 -39.3480 -39.3356 -39.3217
   -39.2873 -39.2603 -39.2184 -39.1668 -39.1419 -39.1169 -32.7887 -32.7418
   -32.7034 -32.6522 -32.5816 -32.5587 -32.5422 -32.5288 -32.4810 -32.4798
   -32.4422 -32.4237 -32.3841 -32.3289 -32.2901 -32.1929 -32.1826 -32.1479
    -3.5731  -2.7526  -2.2641  -1.9003  -1.8649  -1.6331  -1.5631  -1.3060
    -1.2728  -1.1335  -1.1028  -0.8260  -0.7674  -0.6551  -0.4884  -0.2636
    -0.1171  -0.0894  -0.0238   0.1019   0.2509   0.4273   0.6025   0.6347
     0.8685   1.0607   1.0802   1.1583   1.1855   1.2625   1.2906   1.4066
     1.6418   1.6464   1.7793   1.9683   1.9935   2.0966   2.2426   2.3378
     2.4049   2.8678   2.9489   3.1364   3.2354   3.3042   3.3914   3.4500
     3.5895   3.8775   4.1580   4.1982   4.3965   4.6861   4.7134   4.7452

          k =-0.0894 0.1031 0.0000 ( 31014 PWs)   bands (ev):

   -77.7319 -77.7107 -77.6858 -77.6649 -77.5609 -77.5399 -58.5250 -58.4668
   -58.4392 -58.3798 -58.3791 -58.3204 -39.6747 -39.6548 -39.6335 -39.5291
   -39.4671 -39.4590 -39.4311 -39.4261 -39.4169 -39.3511 -39.3149 -39.2920
   -39.2791 -39.2538 -39.1715 -39.1631 -39.1363 -39.0612 -32.8021 -32.7811
   -32.7354 -32.7259 -32.6314 -32.5887 -32.5422 -32.5353 -32.4901 -32.4761
   -32.4372 -32.4345 -32.3792 -32.2521 -32.2142 -32.1905 -32.1408 -32.1162
    -3.6419  -2.5352  -2.4334  -1.9431  -1.7781  -1.6235  -1.6194  -1.3243
    -1.1763  -1.1753  -1.0923  -0.8359  -0.7645  -0.5874  -0.5668  -0.2930
    -0.1590  -0.1232   0.0783   0.1019   0.3963   0.4100   0.5102   0.5443
     0.9436   0.9780   0.9893   1.0818   1.2098   1.3073   1.3517   1.3791
     1.6166   1.6309   1.7927   2.0376   2.1103   2.1731   2.2379   2.2404
     2.3642   2.9167   2.9564   3.0747   3.2615   3.2837   3.3548   3.3650
     3.5668   4.0211   4.2160   4.3091   4.4058   4.7173   4.8633   4.9617

          k =-0.0894 0.1203 0.0000 ( 31022 PWs)   bands (ev):

   -77.7343 -77.7083 -77.6881 -77.6626 -77.5632 -77.5375 -58.5316 -58.4603
   -58.4459 -58.3856 -58.3731 -58.3138 -39.6949 -39.6776 -39.6273 -39.5686
   -39.4705 -39.4703 -39.4642 -39.4201 -39.4131 -39.3535 -39.3091 -39.2952
   -39.2486 -39.2350 -39.1749 -39.1319 -39.1204 -39.0179 -32.8404 -32.8132
   -32.7825 -32.7314 -32.6883 -32.5943 -32.5535 -32.5287 -32.4989 -32.4732
   -32.4434 -32.4338 -32.3761 -32.1969 -32.1923 -32.1554 -32.1354 -32.0575
    -3.6651  -2.8023  -2.1188  -1.9936  -1.7432  -1.7113  -1.5798  -1.4054
    -1.1821  -1.1303  -1.0622  -0.8123  -0.6963  -0.6954  -0.4794  -0.3104
    -0.1166  -0.0348   0.0196   0.0477   0.3543   0.5142   0.5932   0.6246
     0.9011   0.9982   1.0747   1.1002   1.2305   1.2684   1.3309   1.4645
     1.6106   1.6533   1.7471   1.9159   2.0146   2.1568   2.1994   2.3172
     2.3586   2.8158   2.9810   3.1082   3.2683   3.3250   3.3848   3.4272
     3.5607   3.9713   4.0640   4.2832   4.3161   4.6293   4.7629   4.7671

          k =-0.0894 0.1375 0.0000 ( 31019 PWs)   bands (ev):

   -77.7358 -77.7068 -77.6896 -77.6611 -77.5647 -77.5360 -58.5357 -58.4563
   -58.4501 -58.3897 -58.3690 -58.3096 -39.7201 -39.6793 -39.6230 -39.5933
   -39.4954 -39.4722 -39.4675 -39.4161 -39.4108 -39.3548 -39.3053 -39.2972
   -39.2452 -39.2070 -39.1770 -39.1290 -39.0934 -38.9906 -32.8778 -32.8206
   -32.8180 -32.7293 -32.7241 -32.5980 -32.5608 -32.5245 -32.5048 -32.4718
   -32.4493 -32.4319 -32.3744 -32.1999 -32.1555 -32.1319 -32.1185 -32.0205
    -3.6560  -3.0012  -2.0436  -1.8690  -1.7858  -1.7321  -1.5425  -1.4928
    -1.2887  -1.0352  -0.9401  -0.8066  -0.8017  -0.5857  -0.4593  -0.3044
    -0.2047  -0.0807   0.0622   0.1598   0.3917   0.4505   0.7453   0.8791
     0.9286   1.0318   1.1200   1.1364   1.2244   1.3342   1.3484   1.5333
     1.5468   1.6342   1.7058   1.7596   1.8899   2.0293   2.1257   2.2070
     2.5827   2.7709   3.0401   3.1318   3.2667   3.2710   3.3950   3.5844
     3.6304   3.8516   3.9165   4.0740   4.2358   4.2814   4.3473   4.5927

          k =-0.0894-0.0516 0.0000 ( 31018 PWs)   bands (ev):

   -77.7363 -77.7063 -77.6901 -77.6606 -77.5652 -77.5355 -58.5371 -58.4549
   -58.4515 -58.3912 -58.3675 -58.3083 -39.7286 -39.6799 -39.6215 -39.6018
   -39.5039 -39.4728 -39.4686 -39.4146 -39.4100 -39.3552 -39.3040 -39.2978
   -39.2440 -39.1975 -39.1777 -39.1280 -39.0841 -38.9812 -32.8905 -32.8301
   -32.8231 -32.7363 -32.7287 -32.5994 -32.5633 -32.5231 -32.5068 -32.4713
   -32.4514 -32.4313 -32.3739 -32.2011 -32.1428 -32.1308 -32.1058 -32.0079
    -3.6449  -3.0780  -2.0645  -1.8128  -1.7661  -1.7277  -1.5302  -1.5288
    -1.3382  -0.9621  -0.8815  -0.8694  -0.8077  -0.5197  -0.4602  -0.3140
    -0.2830  -0.1139   0.0980   0.2267   0.4112   0.4510   0.8136   0.9953
     1.0656   1.0712   1.1023   1.1250   1.1892   1.2991   1.4216   1.4454
     1.5530   1.6005   1.7323   1.7576   1.8191   1.9626   2.0376   2.1483
     2.7306   2.7959   3.1002   3.1322   3.1417   3.2726   3.3373   3.6828
     3.8010   3.8224   3.8750   3.9469   4.0238   4.1159   4.1939   4.5137

     the Fermi energy is     2.4802 ev

!    total energy              =   -1916.47443468 Ry
     estimated scf accuracy    <       0.00000094 Ry
     smearing contrib. (-TS)   =      -0.05869802 Ry
     internal energy E=F+TS    =   -1916.41573667 Ry

     The total energy is F=E-TS. E is the sum of the following terms:
     one-electron contribution =  -16690.15520794 Ry
     hartree contribution      =    8334.17775348 Ry
     xc contribution           =    -366.37136178 Ry
     ewald contribution        =    6805.93307727 Ry
     electric field correction =       0.00000229 Ry

     convergence has been achieved in  17 iterations

     negative rho (up, down):  4.888E-04 0.000E+00

     Forces acting on atoms (cartesian axes, Ry/au):

     atom    1 type  1   force =    -0.00577834   -0.00333912    0.01630804
     atom    2 type  1   force =    -0.00577918   -0.00333925    0.01630903
     atom    3 type  2   force =     0.00646534    0.00373571    0.02732563
     atom    4 type  2   force =     0.00646565    0.00373461    0.02732529
     atom    5 type  1   force =     0.00173756    0.00100394   -0.02245557
     atom    6 type  1   force =     0.00173912    0.00100513   -0.02245522
     atom    7 type  2   force =    -0.00152337   -0.00088237   -0.02036717
     atom    8 type  2   force =    -0.00152462   -0.00087860   -0.02036572
     atom    9 type  1   force =    -0.00076815   -0.00044417    0.00031052
     atom   10 type  1   force =    -0.00076827   -0.00044337    0.00031097
     atom   11 type  2   force =    -0.00013342   -0.00007720   -0.00112435
     atom   12 type  2   force =    -0.00013232   -0.00007530   -0.00112145

     Total force =     0.063895     Total SCF correction =     0.001818

     Writing output data file ./Mo2Re2/Mo2Re2_beef.save/

     init_run     :     90.25s CPU     90.83s WALL (       1 calls)
     electrons    :   3762.80s CPU   3779.87s WALL (       1 calls)
     forces       :     59.92s CPU     60.23s WALL (       1 calls)

     Called by init_run:
     wfcinit      :     79.06s CPU     79.39s WALL (       1 calls)
     potinit      :      7.65s CPU      7.74s WALL (       1 calls)
     hinit0       :      1.95s CPU      1.96s WALL (       1 calls)

     Called by electrons:
     c_bands      :   3359.21s CPU   3369.07s WALL (      17 calls)
     sum_band     :    371.47s CPU    375.37s WALL (      17 calls)
     v_of_rho     :     22.43s CPU     23.62s WALL (      18 calls)
     newd         :     16.37s CPU     18.49s WALL (      18 calls)
     mix_rho      :      0.61s CPU      0.63s WALL (      17 calls)
     vdW_kernel   :      5.70s CPU      5.70s WALL (       1 calls)

     Called by c_bands:
     init_us_2    :     11.92s CPU     12.01s WALL (    2664 calls)
     cegterg      :   3323.59s CPU   3331.42s WALL (    1258 calls)

     Called by *egterg:
     cdiaghg      :    186.63s CPU    186.69s WALL (    6125 calls)
     h_psi        :   1581.59s CPU   1588.24s WALL (    6199 calls)
     s_psi        :    536.72s CPU    536.84s WALL (    6199 calls)
     g_psi        :      1.14s CPU      1.15s WALL (    4867 calls)

     Called by h_psi:
     h_psi:calbec :    541.29s CPU    542.03s WALL (    6199 calls)
     vloc_psi     :    482.79s CPU    488.50s WALL (    6199 calls)
     add_vuspsi   :    551.06s CPU    551.22s WALL (    6199 calls)

     General routines
     calbec       :    823.46s CPU    824.54s WALL (    7753 calls)
     fft          :     11.80s CPU     12.21s WALL (    1193 calls)
     ffts         :      0.06s CPU      0.06s WALL (      35 calls)
     fftw         :    558.41s CPU    565.03s WALL (  739018 calls)
     interpolate  :      0.20s CPU      0.21s WALL (      18 calls)

     Parallel routines
     fft_scatt_xy :     44.61s CPU     45.11s WALL (  740246 calls)
     fft_scatt_yz :     81.23s CPU     82.52s WALL (  740246 calls)

     PWSCF        :      1h 5m CPU      1h 5m WALL


   This run was terminated on:   0:57:42  24Jun2022            

=------------------------------------------------------------------------------=
   JOB DONE.
=------------------------------------------------------------------------------=
