
     Program PWSCF v.6.6 starts on 10Jul2022 at 23: 1:30 

     This program is part of the open-source Quantum ESPRESSO suite
     for quantum simulation of materials; please cite
         "P. Giannozzi et al., J. Phys.:Condens. Matter 21 395502 (2009);
         "P. Giannozzi et al., J. Phys.:Condens. Matter 29 465901 (2017);
          URL http://www.quantum-espresso.org", 
     in publications or presentations arising from this work. More details at
     http://www.quantum-espresso.org/quote

     Parallel version (MPI), running on    37 processors

     MPI processes distributed on     3 nodes
     R & G space division:  proc/nbgrp/npool/nimage =      37
     Fft bands division:     nmany     =       1
     Reading input from Mo2Rh2.in
Warning: card &CELL ignored
Warning: card / ignored

     Current dimensions of program PWSCF are:
     Max number of different atomic species (ntypx) = 10
     Max number of k-points (npk) =  40000
     Max angular momentum in pseudopotentials (lmaxx) =  3
     Presently stress not available with electric field and gates

     Message from routine cell_base_init:
     DEPRECATED: use true lattice parameter, not A to a.u. conversion factor
     file Mo.pbe-spn-rrkjus_psl.1.0.0.UPF: wavefunction(s)  4S renormalized
     file Rh.pbe-spn-rrkjus_psl.1.0.0.UPF: wavefunction(s)  4S 5S renormalized

     **************************************************************************
     Initializing libbeef V0.1.2 with the BEEF-vdW functional.
     Citation: Wellendorff et al., PRB 85, 235149 (2012).
     **************************************************************************


     IMPORTANT: XC functional enforced from input :
     Exchange-correlation= BEEF-VDW
                           (   1   4  43  14   2   0   0)
     Any further DFT definition will be discarded
     Please, verify this is what you really want


     Subspace diagonalization in iterative solution of the eigenvalue problem:
     a serial algorithm will be used

     Found symmetry operation: I + (  0.5000  0.0000  0.0000)
     This is a supercell, fractional translations are disabled

     Parallelization info
     --------------------
     sticks:   dense  smooth     PW     G-vecs:    dense   smooth      PW
     Min         111      44     13                25779     6512    1026
     Max         112      45     14                25792     6543    1033
     Sum        4133    1655    487               954039   241481   38085



     bravais-lattice index     =            0
     lattice parameter (alat)  =       1.8897  a.u.
     unit-cell volume          =    4366.0166 (a.u.)^3
     number of atoms/cell      =           12
     number of atomic types    =            2
     number of electrons       =       186.00
     number of Kohn-Sham states=          112
     kinetic-energy cutoff     =      55.1240  Ry
     charge density cutoff     =     551.2396  Ry
     convergence threshold     =      1.0E-05
     mixing beta               =       0.1000
     number of iterations used =           10  plain     mixing
     Exchange-correlation= BEEF-VDW
                           (   1   4  43  14   2   0   0)

     celldm(1)=   1.889726  celldm(2)=   0.000000  celldm(3)=   0.000000
     celldm(4)=   0.000000  celldm(5)=   0.000000  celldm(6)=   0.000000

     crystal axes: (cart. coord. in units of alat)
               a(1) = (   5.502545   0.000000   0.000000 )  
               a(2) = (  -2.751272   4.797562   0.000000 )  
               a(3) = (   0.000000   0.000000  24.507819 )  

     reciprocal axes: (cart. coord. in units 2 pi/alat)
               b(1) = (  0.181734  0.104220 -0.000000 )  
               b(2) = (  0.000000  0.208439  0.000000 )  
               b(3) = (  0.000000 -0.000000  0.040803 )  


     PseudoPot. # 1 for Mo read from file:
     ../pseudo/Mo.pbe-spn-rrkjus_psl.1.0.0.UPF
     MD5 check sum: 03f09b12e49601d1a456a78ce8b2d514
     Pseudo is Ultrasoft + core correction, Zval = 14.0
     Generated using "atomic" code by A. Dal Corso v.6.3
     Using radial grid of 1229 points,  6 beta functions with: 
                l(1) =   0
                l(2) =   0
                l(3) =   1
                l(4) =   1
                l(5) =   2
                l(6) =   2
     Q(r) pseudized with 0 coefficients 


     PseudoPot. # 2 for Rh read from file:
     ../pseudo/Rh.pbe-spn-rrkjus_psl.1.0.0.UPF
     MD5 check sum: 912a852783f0c9b7bd5e9eb06cc0cc10
     Pseudo is Ultrasoft + core correction, Zval = 17.0
     Generated using "atomic" code by A. Dal Corso v.6.3
     Using radial grid of 1233 points,  6 beta functions with: 
                l(1) =   0
                l(2) =   0
                l(3) =   1
                l(4) =   1
                l(5) =   2
                l(6) =   2
     Q(r) pseudized with 0 coefficients 


     atomic species   valence    mass     pseudopotential
        Mo            14.00    95.95000     Mo( 1.00)
        Rh            17.00   102.90550     Rh( 1.00)

     No symmetry found



   Cartesian axes

     site n.     atom                  positions (alat units)
         1           Mo  tau(   1) = (   0.0000000   0.0000000  10.0000000  )
         2           Mo  tau(   2) = (   2.7512724   0.0000000  10.0000000  )
         3           Rh  tau(   3) = (   1.3756362   2.3987809  10.0000000  )
         4           Rh  tau(   4) = (  -1.3756362   2.3987809  10.0000000  )
         5           Mo  tau(   5) = (   2.7512724   1.5777805  12.2539095  )
         6           Mo  tau(   6) = (   0.0000000   1.5777805  12.2539095  )
         7           Rh  tau(   7) = (  -1.3756362   3.9765614  12.2539095  )
         8           Rh  tau(   8) = (   1.3756362   3.9765614  12.2539095  )
         9           Mo  tau(   9) = (   0.0000003   3.1824488  14.3957980  )
        10           Mo  tau(  10) = (   2.7512729   3.1824457  14.3957963  )
        11           Rh  tau(  11) = (   4.1269066   0.8336035  14.4458349  )
        12           Rh  tau(  12) = (   1.3756392   0.8336036  14.4458357  )

     number of k points=    74  Fermi-Dirac smearing, width (Ry)=  0.0100
                       cart. coord. in units 2pi/alat
        k(    1) = (   0.0000000   0.0000000   0.0000000), wk =   0.0138889
        k(    2) = (   0.0000000   0.0173699   0.0000000), wk =   0.0277778
        k(    3) = (   0.0000000   0.0347399   0.0000000), wk =   0.0277778
        k(    4) = (   0.0000000   0.0521098   0.0000000), wk =   0.0277778
        k(    5) = (   0.0000000   0.0694797   0.0000000), wk =   0.0277778
        k(    6) = (   0.0000000   0.0868497   0.0000000), wk =   0.0277778
        k(    7) = (   0.0000000  -0.1042196   0.0000000), wk =   0.0138889
        k(    8) = (   0.0151445   0.0086850   0.0000000), wk =   0.0277778
        k(    9) = (   0.0151445   0.0260549   0.0000000), wk =   0.0277778
        k(   10) = (   0.0151445   0.0434248   0.0000000), wk =   0.0277778
        k(   11) = (   0.0151445   0.0607948   0.0000000), wk =   0.0277778
        k(   12) = (   0.0151445   0.0781647   0.0000000), wk =   0.0277778
        k(   13) = (   0.0151445   0.0955346   0.0000000), wk =   0.0277778
        k(   14) = (   0.0151445  -0.0955346   0.0000000), wk =   0.0277778
        k(   15) = (   0.0151445  -0.0781647   0.0000000), wk =   0.0277778
        k(   16) = (   0.0151445  -0.0607948   0.0000000), wk =   0.0277778
        k(   17) = (   0.0151445  -0.0434248   0.0000000), wk =   0.0277778
        k(   18) = (   0.0151445  -0.0260549   0.0000000), wk =   0.0277778
        k(   19) = (   0.0151445  -0.0086850   0.0000000), wk =   0.0277778
        k(   20) = (   0.0302890   0.0173699   0.0000000), wk =   0.0277778
        k(   21) = (   0.0302890   0.0347399   0.0000000), wk =   0.0277778
        k(   22) = (   0.0302890   0.0521098   0.0000000), wk =   0.0277778
        k(   23) = (   0.0302890   0.0694797   0.0000000), wk =   0.0277778
        k(   24) = (   0.0302890   0.0868497   0.0000000), wk =   0.0277778
        k(   25) = (   0.0302890   0.1042196   0.0000000), wk =   0.0277778
        k(   26) = (   0.0302890  -0.0868497   0.0000000), wk =   0.0277778
        k(   27) = (   0.0302890  -0.0694797   0.0000000), wk =   0.0277778
        k(   28) = (   0.0302890  -0.0521098   0.0000000), wk =   0.0277778
        k(   29) = (   0.0302890  -0.0347399   0.0000000), wk =   0.0277778
        k(   30) = (   0.0302890  -0.0173699   0.0000000), wk =   0.0277778
        k(   31) = (   0.0302890  -0.0000000   0.0000000), wk =   0.0277778
        k(   32) = (   0.0454335   0.0260549   0.0000000), wk =   0.0277778
        k(   33) = (   0.0454335   0.0434248   0.0000000), wk =   0.0277778
        k(   34) = (   0.0454335   0.0607948   0.0000000), wk =   0.0277778
        k(   35) = (   0.0454335   0.0781647   0.0000000), wk =   0.0277778
        k(   36) = (   0.0454335   0.0955346   0.0000000), wk =   0.0277778
        k(   37) = (   0.0454335   0.1129046   0.0000000), wk =   0.0277778
        k(   38) = (   0.0454335  -0.0781647   0.0000000), wk =   0.0277778
        k(   39) = (   0.0454335  -0.0607948   0.0000000), wk =   0.0277778
        k(   40) = (   0.0454335  -0.0434248   0.0000000), wk =   0.0277778
        k(   41) = (   0.0454335  -0.0260549   0.0000000), wk =   0.0277778
        k(   42) = (   0.0454335  -0.0086850   0.0000000), wk =   0.0277778
        k(   43) = (   0.0454335   0.0086850   0.0000000), wk =   0.0277778
        k(   44) = (   0.0605780   0.0347399   0.0000000), wk =   0.0277778
        k(   45) = (   0.0605780   0.0521098   0.0000000), wk =   0.0277778
        k(   46) = (   0.0605780   0.0694797   0.0000000), wk =   0.0277778
        k(   47) = (   0.0605780   0.0868497   0.0000000), wk =   0.0277778
        k(   48) = (   0.0605780   0.1042196   0.0000000), wk =   0.0277778
        k(   49) = (   0.0605780   0.1215895   0.0000000), wk =   0.0277778
        k(   50) = (   0.0605780  -0.0694797   0.0000000), wk =   0.0277778
        k(   51) = (   0.0605780  -0.0521098   0.0000000), wk =   0.0277778
        k(   52) = (   0.0605780  -0.0347399   0.0000000), wk =   0.0277778
        k(   53) = (   0.0605780  -0.0173699   0.0000000), wk =   0.0277778
        k(   54) = (   0.0605780  -0.0000000   0.0000000), wk =   0.0277778
        k(   55) = (   0.0605780   0.0173699   0.0000000), wk =   0.0277778
        k(   56) = (   0.0757225   0.0434248   0.0000000), wk =   0.0277778
        k(   57) = (   0.0757225   0.0607948   0.0000000), wk =   0.0277778
        k(   58) = (   0.0757225   0.0781647   0.0000000), wk =   0.0277778
        k(   59) = (   0.0757225   0.0955346   0.0000000), wk =   0.0277778
        k(   60) = (   0.0757225   0.1129046   0.0000000), wk =   0.0277778
        k(   61) = (   0.0757225   0.1302745   0.0000000), wk =   0.0277778
        k(   62) = (   0.0757225  -0.0607948   0.0000000), wk =   0.0277778
        k(   63) = (   0.0757225  -0.0434248   0.0000000), wk =   0.0277778
        k(   64) = (   0.0757225  -0.0260549   0.0000000), wk =   0.0277778
        k(   65) = (   0.0757225  -0.0086850   0.0000000), wk =   0.0277778
        k(   66) = (   0.0757225   0.0086850   0.0000000), wk =   0.0277778
        k(   67) = (   0.0757225   0.0260549   0.0000000), wk =   0.0277778
        k(   68) = (  -0.0908670  -0.0521098   0.0000000), wk =   0.0138889
        k(   69) = (  -0.0908670  -0.0347399   0.0000000), wk =   0.0277778
        k(   70) = (  -0.0908670  -0.0173699   0.0000000), wk =   0.0277778
        k(   71) = (  -0.0908670   0.0000000   0.0000000), wk =   0.0277778
        k(   72) = (  -0.0908670   0.0173699   0.0000000), wk =   0.0277778
        k(   73) = (  -0.0908670   0.0347399   0.0000000), wk =   0.0277778
        k(   74) = (  -0.0908670  -0.1563294   0.0000000), wk =   0.0138889

     Dense  grid:   954039 G-vectors     FFT dimensions: (  80,  80, 360)

     Smooth grid:   241481 G-vectors     FFT dimensions: (  50,  50, 225)

     Estimated max dynamical RAM per process >     207.94 MB

     Estimated total dynamical RAM >       7.51 GB

     Initial potential from superposition of free atoms

     starting charge  185.99178, renormalised to  186.00000

     negative rho (up, down):  1.166E-03 0.000E+00


     %%%%%%%%%%%%%%%%%%%%%%%%%%%%%%%%%%%%%%%%%%%%%%%%%%%%%%%%%%%%%%%%%%%%%%%%
     %                                                                      %
     % You are using vdW-DF, which was implemented by the Thonhauser group. %
     % Please cite the following two papers that made this development      %
     % possible and the two reviews that describe the various versions:     %
     %                                                                      %
     %   T. Thonhauser et al., PRL 115, 136402 (2015).                      %
     %   T. Thonhauser et al., PRB 76, 125112 (2007).                       %
     %   K. Berland et al., Rep. Prog. Phys. 78, 066501 (2015).             %
     %   D.C. Langreth et al., J. Phys.: Condens. Matter 21, 084203 (2009). %
     %                                                                      %
     %                                                                      %
     % If you are calculating the stress with vdW-DF, please also cite:     %
     %                                                                      %
     %   R. Sabatini et al., J. Phys.: Condens. Matter 24, 424209 (2012).   %
     %                                                                      %
     %%%%%%%%%%%%%%%%%%%%%%%%%%%%%%%%%%%%%%%%%%%%%%%%%%%%%%%%%%%%%%%%%%%%%%%%



     Adding external electric field

     Computed dipole along edir(3) : 
        Dipole               -0.0000 Ry au,         -0.0001 Debye
        Dipole field         -0.0000 Ry au, 

        Potential amp.        0.0000 Ry
        Total length         45.1552 bohr

     Starting wfcs are  120 randomized atomic wfcs

     total cpu time spent up to now is       80.5 secs

     Self-consistent Calculation

     iteration #  1     ecut=    55.12 Ry     beta= 0.10
     Davidson diagonalization with overlap
     ethr =  1.00E-02,  avg # of iterations =  2.4

     negative rho (up, down):  1.117E-03 0.000E+00

     Adding external electric field

     Computed dipole along edir(3) : 
        Dipole               -0.2892 Ry au,         -0.7350 Debye
        Dipole field         -0.0008 Ry au, 

        Potential amp.        0.0752 Ry
        Total length         45.1552 bohr


     total cpu time spent up to now is      346.1 secs

     total energy              =   -2205.12149269 Ry
     estimated scf accuracy    <       7.04319127 Ry

     iteration #  2     ecut=    55.12 Ry     beta= 0.10
     Davidson diagonalization with overlap
     ethr =  3.79E-03,  avg # of iterations =  1.9

     negative rho (up, down):  1.116E-03 0.000E+00

     Adding external electric field

     Computed dipole along edir(3) : 
        Dipole                0.7212 Ry au,          1.8332 Debye
        Dipole field          0.0021 Ry au, 

        Potential amp.       -0.1875 Ry
        Total length         45.1552 bohr


     total cpu time spent up to now is      563.6 secs

     total energy              =   -2205.25570299 Ry
     estimated scf accuracy    <       8.25612613 Ry

     iteration #  3     ecut=    55.12 Ry     beta= 0.10
     Davidson diagonalization with overlap
     ethr =  3.79E-03,  avg # of iterations =  1.5

     negative rho (up, down):  1.128E-03 0.000E+00

     Adding external electric field

     Computed dipole along edir(3) : 
        Dipole               -0.0494 Ry au,         -0.1256 Debye
        Dipole field         -0.0001 Ry au, 

        Potential amp.        0.0128 Ry
        Total length         45.1552 bohr


     total cpu time spent up to now is      759.7 secs

     total energy              =   -2205.17495532 Ry
     estimated scf accuracy    <      40.45976856 Ry

     iteration #  4     ecut=    55.12 Ry     beta= 0.10
     Davidson diagonalization with overlap
     ethr =  3.79E-03,  avg # of iterations =  1.0

     negative rho (up, down):  1.131E-03 0.000E+00

     Adding external electric field

     Computed dipole along edir(3) : 
        Dipole                0.0100 Ry au,          0.0254 Debye
        Dipole field          0.0000 Ry au, 

        Potential amp.       -0.0026 Ry
        Total length         45.1552 bohr


     total cpu time spent up to now is      935.3 secs

     total energy              =   -2205.67123231 Ry
     estimated scf accuracy    <       0.54606279 Ry

     iteration #  5     ecut=    55.12 Ry     beta= 0.10
     Davidson diagonalization with overlap
     ethr =  2.94E-04,  avg # of iterations =  2.4

     negative rho (up, down):  1.153E-03 0.000E+00

     Adding external electric field

     Computed dipole along edir(3) : 
        Dipole                0.0066 Ry au,          0.0168 Debye
        Dipole field          0.0000 Ry au, 

        Potential amp.       -0.0017 Ry
        Total length         45.1552 bohr


     total cpu time spent up to now is     1166.2 secs

     total energy              =   -2205.67291572 Ry
     estimated scf accuracy    <       0.12482311 Ry

     iteration #  6     ecut=    55.12 Ry     beta= 0.10
     Davidson diagonalization with overlap
     ethr =  6.71E-05,  avg # of iterations =  6.1

     negative rho (up, down):  1.169E-03 0.000E+00

     Adding external electric field

     Computed dipole along edir(3) : 
        Dipole                0.0173 Ry au,          0.0441 Debye
        Dipole field          0.0000 Ry au, 

        Potential amp.       -0.0045 Ry
        Total length         45.1552 bohr


     total cpu time spent up to now is     1425.8 secs

     total energy              =   -2205.68023246 Ry
     estimated scf accuracy    <       0.04898955 Ry

     iteration #  7     ecut=    55.12 Ry     beta= 0.10
     Davidson diagonalization with overlap
     ethr =  2.63E-05,  avg # of iterations =  2.5

     negative rho (up, down):  1.315E-03 0.000E+00

     Adding external electric field

     Computed dipole along edir(3) : 
        Dipole                0.0121 Ry au,          0.0307 Debye
        Dipole field          0.0000 Ry au, 

        Potential amp.       -0.0031 Ry
        Total length         45.1552 bohr


     total cpu time spent up to now is     1639.1 secs

     total energy              =   -2205.67527134 Ry
     estimated scf accuracy    <       0.02641061 Ry

     iteration #  8     ecut=    55.12 Ry     beta= 0.10
     Davidson diagonalization with overlap
     ethr =  1.42E-05,  avg # of iterations =  3.3

     negative rho (up, down):  1.310E-03 0.000E+00

     Adding external electric field

     Computed dipole along edir(3) : 
        Dipole                0.0124 Ry au,          0.0314 Debye
        Dipole field          0.0000 Ry au, 

        Potential amp.       -0.0032 Ry
        Total length         45.1552 bohr


     total cpu time spent up to now is     1899.5 secs

     total energy              =   -2205.67874916 Ry
     estimated scf accuracy    <       0.00324531 Ry

     iteration #  9     ecut=    55.12 Ry     beta= 0.10
     Davidson diagonalization with overlap
     ethr =  1.74E-06,  avg # of iterations =  5.9

     negative rho (up, down):  1.337E-03 0.000E+00

     Adding external electric field

     Computed dipole along edir(3) : 
        Dipole                0.0113 Ry au,          0.0286 Debye
        Dipole field          0.0000 Ry au, 

        Potential amp.       -0.0029 Ry
        Total length         45.1552 bohr


     total cpu time spent up to now is     2152.9 secs

     total energy              =   -2205.67860344 Ry
     estimated scf accuracy    <       0.00206379 Ry

     iteration # 10     ecut=    55.12 Ry     beta= 0.10
     Davidson diagonalization with overlap
     ethr =  1.11E-06,  avg # of iterations =  2.9

     negative rho (up, down):  1.368E-03 0.000E+00

     Adding external electric field

     Computed dipole along edir(3) : 
        Dipole                0.0119 Ry au,          0.0302 Debye
        Dipole field          0.0000 Ry au, 

        Potential amp.       -0.0031 Ry
        Total length         45.1552 bohr


     total cpu time spent up to now is     2420.4 secs

     total energy              =   -2205.67897385 Ry
     estimated scf accuracy    <       0.00113021 Ry

     iteration # 11     ecut=    55.12 Ry     beta= 0.10
     Davidson diagonalization with overlap
     ethr =  6.08E-07,  avg # of iterations =  2.0

     negative rho (up, down):  1.349E-03 0.000E+00

     Adding external electric field

     Computed dipole along edir(3) : 
        Dipole                0.0174 Ry au,          0.0442 Debye
        Dipole field          0.0001 Ry au, 

        Potential amp.       -0.0045 Ry
        Total length         45.1552 bohr


     total cpu time spent up to now is     2673.1 secs

     total energy              =   -2205.67912853 Ry
     estimated scf accuracy    <       0.00017358 Ry

     iteration # 12     ecut=    55.12 Ry     beta= 0.10
     Davidson diagonalization with overlap
     ethr =  9.33E-08,  avg # of iterations =  4.1

     negative rho (up, down):  1.328E-03 0.000E+00

     Adding external electric field

     Computed dipole along edir(3) : 
        Dipole                0.0146 Ry au,          0.0370 Debye
        Dipole field          0.0000 Ry au, 

        Potential amp.       -0.0038 Ry
        Total length         45.1552 bohr


     total cpu time spent up to now is     2941.5 secs

     total energy              =   -2205.67914216 Ry
     estimated scf accuracy    <       0.00017848 Ry

     iteration # 13     ecut=    55.12 Ry     beta= 0.10
     Davidson diagonalization with overlap
     ethr =  9.33E-08,  avg # of iterations =  2.0

     negative rho (up, down):  1.307E-03 0.000E+00

     Adding external electric field

     Computed dipole along edir(3) : 
        Dipole                0.0127 Ry au,          0.0322 Debye
        Dipole field          0.0000 Ry au, 

        Potential amp.       -0.0033 Ry
        Total length         45.1552 bohr


     total cpu time spent up to now is     3169.4 secs

     total energy              =   -2205.67915771 Ry
     estimated scf accuracy    <       0.00001650 Ry

     iteration # 14     ecut=    55.12 Ry     beta= 0.10
     Davidson diagonalization with overlap
     ethr =  8.87E-09,  avg # of iterations =  4.6

     negative rho (up, down):  1.292E-03 0.000E+00

     Adding external electric field

     Computed dipole along edir(3) : 
        Dipole                0.0132 Ry au,          0.0336 Debye
        Dipole field          0.0000 Ry au, 

        Potential amp.       -0.0034 Ry
        Total length         45.1552 bohr


     total cpu time spent up to now is     3446.9 secs

     total energy              =   -2205.67915944 Ry
     estimated scf accuracy    <       0.00001639 Ry

     iteration # 15     ecut=    55.12 Ry     beta= 0.10
     Davidson diagonalization with overlap
     ethr =  8.81E-09,  avg # of iterations =  3.1

     negative rho (up, down):  1.237E-03 0.000E+00

     Adding external electric field

     Computed dipole along edir(3) : 
        Dipole                0.0083 Ry au,          0.0210 Debye
        Dipole field          0.0000 Ry au, 

        Potential amp.       -0.0022 Ry
        Total length         45.1552 bohr


     total cpu time spent up to now is     3701.9 secs

     End of self-consistent calculation

          k = 0.0000 0.0000 0.0000 ( 30277 PWs)   bands (ev):

   -76.8128 -76.7852 -76.2700 -76.2425 -76.2168 -76.1894 -59.2246 -59.1243
   -59.0979 -59.0524 -59.0006 -58.9547 -44.7923 -44.7311 -44.6981 -44.6543
   -44.6205 -44.4875 -44.2604 -44.2035 -44.1951 -44.1692 -44.1580 -44.1235
   -44.0671 -44.0375 -44.0050 -43.9752 -43.9570 -43.8932 -33.6426 -33.5149
   -33.4139 -33.3877 -33.3670 -33.2738 -33.1977 -33.1899 -33.1342 -33.1121
   -33.1039 -33.0444 -33.0247 -32.8232 -32.8000 -32.7430 -32.5577 -32.5373
    -4.3343  -3.1690  -3.1534  -3.0898  -3.0290  -2.8494  -2.7693  -2.6918
    -2.6899  -2.5432  -2.4664  -2.4197  -2.0997  -2.0590  -2.0486  -1.0385
    -1.0099  -0.8806  -0.5952  -0.4713  -0.4034  -0.1375  -0.1342   0.0345
     0.0426   0.0617   0.3544   0.4123   0.5701   0.6419   0.6516   0.8175
     1.0316   1.3969   1.4745   1.6821   1.7167   1.7292   1.8015   1.9732
     2.3662   2.3900   2.6893   2.7469   2.8794   2.9982   3.0254   3.3506
     3.4297   3.6940   3.7361   3.9014   4.0706   4.1238   4.1735   4.2625
     4.5436   4.5985   4.6497   4.7166   4.7193   4.8832   5.0512   5.1320

          k = 0.0000 0.0174 0.0000 ( 30245 PWs)   bands (ev):

   -76.8128 -76.7852 -76.2700 -76.2425 -76.2168 -76.1894 -59.2246 -59.1243
   -59.0979 -59.0524 -59.0005 -58.9547 -44.7921 -44.7309 -44.6980 -44.6540
   -44.6203 -44.4875 -44.2602 -44.2031 -44.1949 -44.1691 -44.1575 -44.1234
   -44.0672 -44.0375 -44.0050 -43.9752 -43.9570 -43.8932 -33.6434 -33.5161
   -33.4146 -33.3881 -33.3677 -33.2754 -33.1969 -33.1901 -33.1350 -33.1133
   -33.1036 -33.0453 -33.0253 -32.8234 -32.8001 -32.7430 -32.5578 -32.5374
    -4.2735  -3.1240  -3.1169  -3.0412  -2.9781  -2.7888  -2.7391  -2.6648
    -2.6444  -2.5102  -2.4450  -2.3841  -2.0468  -2.0215  -1.9978  -1.0358
    -0.9889  -0.8807  -0.5937  -0.4388  -0.3920  -0.1776  -0.1040  -0.0024
     0.0350   0.0597   0.3730   0.4365   0.6059   0.6076   0.6336   0.7900
     0.9867   1.3384   1.4623   1.6463   1.6707   1.6891   1.7267   1.9373
     2.2144   2.3822   2.6247   2.6691   2.8768   2.9716   3.0425   3.2204
     3.2317   3.6983   3.7154   3.8321   3.8919   3.9509   4.2087   4.2540
     4.2655   4.5600   4.5796   4.6801   4.8261   4.8957   5.0196   5.0263

          k = 0.0000 0.0347 0.0000 ( 30217 PWs)   bands (ev):

   -76.8128 -76.7852 -76.2700 -76.2425 -76.2168 -76.1894 -59.2247 -59.1244
   -59.0980 -59.0525 -59.0006 -58.9547 -44.7915 -44.7302 -44.6977 -44.6529
   -44.6200 -44.4874 -44.2597 -44.2017 -44.1943 -44.1687 -44.1560 -44.1230
   -44.0674 -44.0376 -44.0048 -43.9752 -43.9570 -43.8932 -33.6454 -33.5195
   -33.4163 -33.3893 -33.3697 -33.2800 -33.1950 -33.1907 -33.1373 -33.1164
   -33.1028 -33.0476 -33.0272 -32.8238 -32.8004 -32.7432 -32.5580 -32.5377
    -4.0961  -3.0413  -2.9662  -2.9015  -2.8322  -2.6521  -2.6144  -2.5869
    -2.5128  -2.4113  -2.3809  -2.2797  -1.9419  -1.8932  -1.8190  -1.0326
    -0.9300  -0.8890  -0.5961  -0.3576  -0.3474  -0.3182  -0.0919  -0.0131
     0.0034   0.1126   0.3852   0.5068   0.5079   0.5707   0.7157   0.7188
     0.8600   1.1756   1.4297   1.4867   1.4928   1.5446   1.7081   1.7748
     1.9139   2.3540   2.3803   2.5744   2.5999   2.8004   2.8172   2.9453
     3.3276   3.4006   3.4255   3.5819   3.6488   3.6748   3.8803   4.1028
     4.2475   4.4055   4.5613   4.6274   4.6795   4.8933   4.9236   5.0387

          k = 0.0000 0.0521 0.0000 ( 30195 PWs)   bands (ev):

   -76.8128 -76.7852 -76.2700 -76.2425 -76.2168 -76.1894 -59.2249 -59.1246
   -59.0981 -59.0527 -59.0005 -58.9547 -44.7907 -44.7294 -44.6974 -44.6514
   -44.6196 -44.4874 -44.2589 -44.2000 -44.1935 -44.1683 -44.1540 -44.1225
   -44.0677 -44.0378 -44.0047 -43.9752 -43.9569 -43.8931 -33.6482 -33.5242
   -33.4187 -33.3909 -33.3723 -33.2860 -33.1927 -33.1915 -33.1403 -33.1206
   -33.1018 -33.0506 -33.0299 -32.8244 -32.8009 -32.7434 -32.5583 -32.5381
    -3.8188  -2.9196  -2.7362  -2.6955  -2.6202  -2.5108  -2.4752  -2.3510
    -2.3060  -2.2675  -2.2506  -2.1196  -1.8157  -1.6579  -1.5443  -1.0364
    -0.9202  -0.8528  -0.6211  -0.5056  -0.2993  -0.2373  -0.1726  -0.0467
     0.0905   0.2207   0.3290   0.4092   0.4587   0.6115   0.6229   0.6587
     0.8804   0.9559   1.2254   1.3055   1.3491   1.3869   1.4620   1.5647
     1.7357   1.9867   2.1418   2.2664   2.3776   2.4016   2.6633   2.7676
     2.7750   2.8493   3.1067   3.3504   3.4657   3.5932   3.9258   3.9422
     4.1938   4.2239   4.3452   4.3639   4.3851   4.5022   4.7019   4.9915

          k = 0.0000 0.0695 0.0000 ( 30102 PWs)   bands (ev):

   -76.8128 -76.7852 -76.2700 -76.2424 -76.2168 -76.1894 -59.2251 -59.1246
   -59.0981 -59.0529 -59.0004 -58.9545 -44.7899 -44.7286 -44.6971 -44.6499
   -44.6192 -44.4873 -44.2582 -44.1982 -44.1928 -44.1679 -44.1520 -44.1220
   -44.0680 -44.0379 -44.0045 -43.9752 -43.9569 -43.8931 -33.6510 -33.5288
   -33.4211 -33.3924 -33.3750 -33.2918 -33.1923 -33.1908 -33.1432 -33.1248
   -33.1008 -33.0535 -33.0325 -32.8250 -32.8013 -32.7435 -32.5586 -32.5385
    -3.4757  -2.7880  -2.4929  -2.4665  -2.4095  -2.3529  -2.2946  -2.1338
    -2.0695  -2.0162  -2.0155  -1.9434  -1.6548  -1.3924  -1.3049  -1.0267
    -0.8725  -0.8656  -0.6889  -0.5943  -0.3695  -0.2262  -0.1350  -0.0374
     0.1622   0.1625   0.3621   0.3808   0.3862   0.3883   0.5271   0.7225
     0.7570   0.9675   1.0725   1.0913   1.1259   1.1883   1.2333   1.3507
     1.5740   1.6359   1.7370   1.7665   2.0127   2.1475   2.1908   2.4044
     2.5719   2.6034   3.0178   3.2305   3.2372   3.2592   3.6934   3.7281
     3.9921   4.1190   4.1379   4.2631   4.3286   4.3668   4.6286   4.9707

          k = 0.0000 0.0868 0.0000 ( 30106 PWs)   bands (ev):

   -76.8128 -76.7852 -76.2700 -76.2425 -76.2168 -76.1894 -59.2253 -59.1247
   -59.0982 -59.0531 -59.0004 -58.9545 -44.7893 -44.7280 -44.6969 -44.6489
   -44.6189 -44.4873 -44.2577 -44.1969 -44.1922 -44.1676 -44.1505 -44.1216
   -44.0682 -44.0380 -44.0044 -43.9752 -43.9568 -43.8930 -33.6531 -33.5322
   -33.4228 -33.3935 -33.3770 -33.2960 -33.1929 -33.1895 -33.1453 -33.1279
   -33.1001 -33.0556 -33.0346 -32.8254 -32.8017 -32.7437 -32.5588 -32.5388
    -3.1329  -2.7054  -2.3545  -2.3118  -2.2084  -2.2060  -2.0364  -1.9992
    -1.9423  -1.8229  -1.7173  -1.6610  -1.4952  -1.3208  -1.2311  -1.0296
    -0.9177  -0.7648  -0.7120  -0.5599  -0.4503  -0.1924  -0.1627   0.0710
     0.0882   0.1263   0.2075   0.3261   0.3656   0.4372   0.5493   0.6332
     0.7549   0.7888   0.7954   0.8074   0.9413   1.1414   1.2252   1.2390
     1.2459   1.3395   1.4288   1.4834   1.6829   1.7906   1.9403   2.1030
     2.5693   2.5987   2.8912   2.9900   3.0298   3.2254   3.4643   3.5135
     3.7786   3.9285   4.0414   4.2204   4.2312   4.6211   4.7301   4.9617

          k = 0.0000-0.1042 0.0000 ( 30146 PWs)   bands (ev):

   -76.8128 -76.7852 -76.2700 -76.2425 -76.2168 -76.1894 -59.2254 -59.1248
   -59.0983 -59.0532 -59.0005 -58.9545 -44.7891 -44.7277 -44.6968 -44.6484
   -44.6188 -44.4872 -44.2575 -44.1964 -44.1920 -44.1674 -44.1500 -44.1215
   -44.0683 -44.0380 -44.0043 -43.9752 -43.9568 -43.8930 -33.6538 -33.5334
   -33.4234 -33.3940 -33.3777 -33.2976 -33.1931 -33.1891 -33.1460 -33.1290
   -33.0999 -33.0564 -33.0353 -32.8256 -32.8018 -32.7438 -32.5589 -32.5389
    -2.9454  -2.7133  -2.3011  -2.2834  -2.1430  -2.0399  -1.9647  -1.9511
    -1.8974  -1.8000  -1.5544  -1.4472  -1.4293  -1.2928  -1.2003  -1.0982
    -0.9873  -0.8344  -0.8204  -0.5707  -0.1489  -0.0999  -0.0847  -0.0145
     0.1086   0.1334   0.2238   0.2619   0.3083   0.3335   0.4903   0.5930
     0.6161   0.6221   0.7505   0.8121   0.8332   1.0951   1.1363   1.1938
     1.2060   1.3072   1.3444   1.3543   1.4876   1.7739   1.7990   2.0308
     2.5668   2.5968   2.7651   2.9483   2.9851   3.2259   3.3811   3.4434
     3.6898   3.8432   4.0131   4.2008   4.2107   4.6222   4.9367   4.9592

          k = 0.0151 0.0087 0.0000 ( 30227 PWs)   bands (ev):

   -76.8123 -76.7856 -76.2696 -76.2429 -76.2164 -76.1899 -59.2229 -59.1260
   -59.0962 -59.0507 -59.0022 -58.9564 -44.7871 -44.7305 -44.6985 -44.6536
   -44.6209 -44.4927 -44.2553 -44.2028 -44.1899 -44.1696 -44.1572 -44.1240
   -44.0666 -44.0380 -44.0045 -43.9757 -43.9622 -43.8984 -33.6291 -33.5136
   -33.4162 -33.3742 -33.3537 -33.2728 -33.1958 -33.1918 -33.1331 -33.1111
   -33.1052 -33.0464 -33.0266 -32.8219 -32.8152 -32.7444 -32.5726 -32.5524
    -4.2729  -3.1285  -3.1018  -3.0509  -2.9781  -2.7887  -2.7384  -2.6578
    -2.6527  -2.5145  -2.4307  -2.3899  -2.0625  -2.0103  -1.9925  -1.0259
    -1.0054  -0.8694  -0.5785  -0.4585  -0.3778  -0.2112  -0.1295  -0.0202
     0.0299   0.0787   0.3794   0.4118   0.5558   0.6144   0.6731   0.8534
     1.0202   1.3492   1.4078   1.6026   1.6648   1.7000   1.7882   1.9570
     2.3327   2.3902   2.6014   2.6268   2.8430   2.9614   3.0554   3.0928
     3.3140   3.6463   3.7557   3.8626   3.9624   3.9639   4.0347   4.3168
     4.4333   4.5842   4.5897   4.6267   4.6595   4.9065   4.9876   5.1620

          k = 0.0151 0.0261 0.0000 ( 30193 PWs)   bands (ev):

   -76.8123 -76.7856 -76.2696 -76.2429 -76.2163 -76.1899 -59.2229 -59.1260
   -59.0962 -59.0508 -59.0022 -58.9564 -44.7867 -44.7300 -44.6984 -44.6529
   -44.6207 -44.4927 -44.2549 -44.2019 -44.1896 -44.1694 -44.1562 -44.1237
   -44.0668 -44.0381 -44.0044 -43.9757 -43.9622 -43.8984 -33.6306 -33.5160
   -33.4174 -33.3751 -33.3551 -33.2760 -33.1944 -33.1921 -33.1347 -33.1132
   -33.1047 -33.0480 -33.0279 -32.8222 -32.8154 -32.7445 -32.5728 -32.5525
    -4.1536  -3.0444  -3.0367  -2.9484  -2.8791  -2.6811  -2.6711  -2.5993
    -2.5691  -2.4507  -2.3895  -2.3157  -1.9751  -1.9389  -1.8747  -1.0266
    -0.9667  -0.8688  -0.5838  -0.3973  -0.3532  -0.2932  -0.0824  -0.0421
     0.0056   0.0598   0.3963   0.4524   0.5819   0.5981   0.6178   0.8270
     0.9328   1.2633   1.3499   1.4921   1.5703   1.6485   1.7008   1.8677
     2.0835   2.3833   2.4119   2.5702   2.7527   2.8200   2.9080   3.0063
     3.3269   3.4981   3.5084   3.6767   3.6843   3.7805   3.8995   4.1332
     4.3487   4.4786   4.4917   4.7412   4.7709   4.8139   4.8386   4.9731

          k = 0.0151 0.0434 0.0000 ( 30183 PWs)   bands (ev):

   -76.8123 -76.7856 -76.2695 -76.2429 -76.2163 -76.1899 -59.2231 -59.1262
   -59.0964 -59.0510 -59.0022 -58.9563 -44.7860 -44.7293 -44.6981 -44.6516
   -44.6204 -44.4926 -44.2543 -44.2003 -44.1889 -44.1690 -44.1545 -44.1233
   -44.0670 -44.0382 -44.0043 -43.9757 -43.9622 -43.8983 -33.6330 -33.5200
   -33.4194 -33.3765 -33.3574 -33.2813 -33.1928 -33.1923 -33.1373 -33.1169
   -33.1038 -33.0506 -33.0301 -32.8228 -32.8158 -32.7447 -32.5730 -32.5528
    -3.9253  -2.9390  -2.8557  -2.7673  -2.6968  -2.5673  -2.5021  -2.4489
    -2.4005  -2.3259  -2.3059  -2.1739  -1.8358  -1.7883  -1.6391  -1.0344
    -0.8988  -0.8816  -0.6049  -0.4547  -0.3209  -0.2717  -0.1445  -0.0372
     0.0336   0.0953   0.4043   0.4644   0.4986   0.5475   0.6329   0.7671
     0.8526   1.0882   1.2706   1.2745   1.3945   1.5416   1.6268   1.6514
     1.7944   2.0959   2.3301   2.3989   2.4204   2.5580   2.7281   2.8254
     2.9811   2.9840   3.2280   3.4677   3.5267   3.6144   3.8587   4.0387
     4.0837   4.2771   4.4174   4.4691   4.5939   4.7749   4.8762   4.9853

          k = 0.0151 0.0608 0.0000 ( 30171 PWs)   bands (ev):

   -76.8123 -76.7856 -76.2695 -76.2429 -76.2163 -76.1899 -59.2233 -59.1263
   -59.0965 -59.0512 -59.0021 -58.9563 -44.7852 -44.7284 -44.6978 -44.6501
   -44.6200 -44.4926 -44.2535 -44.1985 -44.1881 -44.1686 -44.1525 -44.1228
   -44.0673 -44.0383 -44.0041 -43.9757 -43.9621 -43.8983 -33.6359 -33.5247
   -33.4217 -33.3781 -33.3601 -33.2873 -33.1935 -33.1902 -33.1403 -33.1212
   -33.1028 -33.0536 -33.0327 -32.8234 -32.8162 -32.7448 -32.5733 -32.5532
    -3.6112  -2.8058  -2.6034  -2.5603  -2.4748  -2.3917  -2.3813  -2.1911
    -2.1780  -2.1407  -2.1309  -1.9920  -1.6923  -1.5258  -1.3775  -1.0284
    -0.9008  -0.8475  -0.6625  -0.6066  -0.2860  -0.2523  -0.1102  -0.1036
     0.0435   0.2178   0.3101   0.3828   0.4068   0.5211   0.5647   0.6542
     0.8852   0.9594   1.0068   1.1976   1.2231   1.2863   1.4117   1.4676
     1.7053   1.7063   1.9255   1.9543   2.1892   2.2258   2.4304   2.5792
     2.5866   2.6459   3.0132   3.2622   3.2903   3.4787   3.7310   3.8408
     4.0776   4.1548   4.2859   4.3238   4.3777   4.5473   4.6262   4.9550

          k = 0.0151 0.0782 0.0000 ( 30143 PWs)   bands (ev):

   -76.8123 -76.7856 -76.2695 -76.2429 -76.2163 -76.1899 -59.2235 -59.1264
   -59.0966 -59.0514 -59.0021 -58.9562 -44.7845 -44.7277 -44.6976 -44.6488
   -44.6196 -44.4926 -44.2529 -44.1970 -44.1874 -44.1683 -44.1507 -44.1224
   -44.0676 -44.0384 -44.0039 -43.9757 -43.9621 -43.8983 -33.6383 -33.5288
   -33.4237 -33.3795 -33.3625 -33.2924 -33.1941 -33.1886 -33.1427 -33.1249
   -33.1020 -33.0561 -33.0351 -32.8239 -32.8166 -32.7450 -32.5735 -32.5535
    -3.2574  -2.6879  -2.3957  -2.3205  -2.3121  -2.2437  -2.1539  -2.0306
    -2.0008  -1.8373  -1.8322  -1.8116  -1.5322  -1.3376  -1.2655  -0.9638
    -0.9608  -0.7196  -0.7011  -0.6154  -0.5004  -0.2134  -0.1849   0.0100
     0.0368   0.1687   0.2262   0.3362   0.3493   0.3692   0.5501   0.6895
     0.7544   0.7762   0.9197   0.9550   1.0055   1.1669   1.3086   1.3128
     1.3587   1.3955   1.5773   1.7132   1.7821   1.8465   2.1113   2.2120
     2.5784   2.5859   2.9539   2.9913   3.1876   3.2253   3.5289   3.6249
     3.9922   4.0722   4.0780   4.1952   4.2822   4.4346   4.6633   4.9607

          k = 0.0151 0.0955 0.0000 ( 30160 PWs)   bands (ev):

   -76.8123 -76.7856 -76.2695 -76.2429 -76.2163 -76.1899 -59.2237 -59.1265
   -59.0967 -59.0516 -59.0022 -58.9562 -44.7841 -44.7273 -44.6974 -44.6481
   -44.6194 -44.4925 -44.2525 -44.1961 -44.1871 -44.1681 -44.1497 -44.1222
   -44.0677 -44.0385 -44.0038 -43.9757 -43.9621 -43.8982 -33.6398 -33.5311
   -33.4249 -33.3802 -33.3639 -33.2953 -33.1944 -33.1878 -33.1441 -33.1270
   -33.1016 -33.0576 -33.0365 -32.8242 -32.8168 -32.7451 -32.5737 -32.5537
    -2.9582  -2.6594  -2.2939  -2.2550  -2.1146  -2.0831  -1.9595  -1.9456
    -1.9073  -1.7817  -1.5698  -1.4831  -1.4279  -1.3567  -1.1943  -1.1111
    -0.8794  -0.8254  -0.7761  -0.6328  -0.2076  -0.1982  -0.1314  -0.0323
     0.0442   0.0927   0.1815   0.2617   0.3242   0.3802   0.5102   0.5232
     0.5966   0.6493   0.7132   0.8069   0.8865   1.0325   1.0943   1.2005
     1.2115   1.3838   1.4491   1.4566   1.6358   1.7802   1.8578   2.0438
     2.5745   2.6183   2.7736   2.9433   3.0233   3.2252   3.4276   3.4870
     3.7667   3.8938   4.0233   4.1703   4.2007   4.4954   4.7816   5.0685

          k = 0.0151-0.0955 0.0000 ( 30160 PWs)   bands (ev):

   -76.8123 -76.7856 -76.2695 -76.2429 -76.2163 -76.1899 -59.2237 -59.1265
   -59.0967 -59.0516 -59.0022 -58.9562 -44.7841 -44.7273 -44.6974 -44.6481
   -44.6194 -44.4925 -44.2525 -44.1961 -44.1871 -44.1681 -44.1497 -44.1222
   -44.0677 -44.0385 -44.0038 -43.9757 -43.9621 -43.8982 -33.6398 -33.5311
   -33.4249 -33.3802 -33.3639 -33.2953 -33.1944 -33.1878 -33.1441 -33.1270
   -33.1016 -33.0576 -33.0365 -32.8242 -32.8168 -32.7451 -32.5737 -32.5537
    -2.9582  -2.6594  -2.2939  -2.2550  -2.1146  -2.0831  -1.9595  -1.9456
    -1.9073  -1.7817  -1.5698  -1.4831  -1.4279  -1.3567  -1.1943  -1.1111
    -0.8794  -0.8254  -0.7761  -0.6328  -0.2076  -0.1982  -0.1314  -0.0323
     0.0442   0.0927   0.1815   0.2617   0.3242   0.3802   0.5102   0.5232
     0.5966   0.6493   0.7132   0.8069   0.8865   1.0325   1.0943   1.2005
     1.2115   1.3838   1.4491   1.4566   1.6358   1.7802   1.8578   2.0438
     2.5745   2.6183   2.7736   2.9433   3.0233   3.2252   3.4276   3.4870
     3.7667   3.8938   4.0233   4.1703   4.2007   4.4954   4.7816   5.0685

          k = 0.0151-0.0782 0.0000 ( 30143 PWs)   bands (ev):

   -76.8123 -76.7856 -76.2695 -76.2429 -76.2163 -76.1899 -59.2235 -59.1264
   -59.0966 -59.0514 -59.0021 -58.9562 -44.7845 -44.7277 -44.6976 -44.6488
   -44.6196 -44.4926 -44.2529 -44.1970 -44.1874 -44.1683 -44.1507 -44.1224
   -44.0676 -44.0384 -44.0039 -43.9757 -43.9621 -43.8983 -33.6383 -33.5288
   -33.4237 -33.3795 -33.3625 -33.2924 -33.1941 -33.1886 -33.1427 -33.1249
   -33.1020 -33.0561 -33.0351 -32.8239 -32.8166 -32.7450 -32.5735 -32.5535
    -3.2574  -2.6879  -2.3957  -2.3205  -2.3121  -2.2437  -2.1539  -2.0306
    -2.0008  -1.8373  -1.8322  -1.8116  -1.5322  -1.3376  -1.2655  -0.9638
    -0.9608  -0.7196  -0.7011  -0.6154  -0.5004  -0.2134  -0.1849   0.0100
     0.0368   0.1687   0.2262   0.3362   0.3493   0.3692   0.5501   0.6895
     0.7544   0.7762   0.9197   0.9550   1.0055   1.1669   1.3086   1.3128
     1.3587   1.3955   1.5773   1.7132   1.7821   1.8465   2.1113   2.2120
     2.5784   2.5859   2.9539   2.9913   3.1876   3.2253   3.5289   3.6249
     3.9922   4.0722   4.0780   4.1952   4.2822   4.4346   4.6633   4.9607

          k = 0.0151-0.0608 0.0000 ( 30171 PWs)   bands (ev):

   -76.8123 -76.7856 -76.2695 -76.2429 -76.2163 -76.1899 -59.2233 -59.1263
   -59.0965 -59.0512 -59.0021 -58.9563 -44.7852 -44.7284 -44.6978 -44.6501
   -44.6200 -44.4926 -44.2535 -44.1985 -44.1881 -44.1686 -44.1525 -44.1228
   -44.0673 -44.0383 -44.0041 -43.9757 -43.9621 -43.8983 -33.6359 -33.5247
   -33.4217 -33.3781 -33.3601 -33.2873 -33.1935 -33.1902 -33.1403 -33.1212
   -33.1028 -33.0536 -33.0327 -32.8234 -32.8162 -32.7448 -32.5733 -32.5532
    -3.6112  -2.8058  -2.6034  -2.5603  -2.4748  -2.3917  -2.3813  -2.1911
    -2.1780  -2.1407  -2.1309  -1.9920  -1.6923  -1.5258  -1.3775  -1.0284
    -0.9008  -0.8475  -0.6625  -0.6066  -0.2860  -0.2523  -0.1102  -0.1036
     0.0435   0.2178   0.3101   0.3828   0.4068   0.5211   0.5647   0.6542
     0.8852   0.9594   1.0068   1.1976   1.2231   1.2863   1.4117   1.4676
     1.7053   1.7063   1.9255   1.9543   2.1892   2.2258   2.4304   2.5792
     2.5866   2.6459   3.0132   3.2622   3.2903   3.4787   3.7310   3.8408
     4.0776   4.1548   4.2859   4.3238   4.3777   4.5473   4.6262   4.9550

          k = 0.0151-0.0434 0.0000 ( 30183 PWs)   bands (ev):

   -76.8123 -76.7856 -76.2695 -76.2429 -76.2163 -76.1899 -59.2231 -59.1262
   -59.0964 -59.0510 -59.0022 -58.9563 -44.7860 -44.7293 -44.6981 -44.6516
   -44.6204 -44.4926 -44.2543 -44.2003 -44.1889 -44.1690 -44.1545 -44.1233
   -44.0670 -44.0382 -44.0043 -43.9757 -43.9622 -43.8983 -33.6330 -33.5200
   -33.4194 -33.3765 -33.3574 -33.2813 -33.1928 -33.1923 -33.1373 -33.1169
   -33.1038 -33.0506 -33.0301 -32.8228 -32.8158 -32.7447 -32.5730 -32.5528
    -3.9253  -2.9390  -2.8557  -2.7673  -2.6968  -2.5673  -2.5021  -2.4489
    -2.4005  -2.3259  -2.3059  -2.1739  -1.8358  -1.7883  -1.6391  -1.0344
    -0.8988  -0.8816  -0.6049  -0.4547  -0.3209  -0.2717  -0.1445  -0.0372
     0.0336   0.0953   0.4043   0.4644   0.4986   0.5475   0.6329   0.7671
     0.8526   1.0882   1.2706   1.2745   1.3945   1.5416   1.6268   1.6514
     1.7944   2.0959   2.3301   2.3989   2.4204   2.5580   2.7281   2.8254
     2.9811   2.9840   3.2280   3.4677   3.5267   3.6144   3.8587   4.0387
     4.0837   4.2771   4.4174   4.4691   4.5939   4.7749   4.8762   4.9853

          k = 0.0151-0.0261 0.0000 ( 30193 PWs)   bands (ev):

   -76.8123 -76.7856 -76.2696 -76.2429 -76.2163 -76.1899 -59.2229 -59.1260
   -59.0962 -59.0508 -59.0022 -58.9564 -44.7867 -44.7300 -44.6984 -44.6529
   -44.6207 -44.4927 -44.2549 -44.2019 -44.1896 -44.1694 -44.1562 -44.1237
   -44.0668 -44.0381 -44.0044 -43.9757 -43.9622 -43.8984 -33.6306 -33.5160
   -33.4174 -33.3751 -33.3551 -33.2760 -33.1944 -33.1921 -33.1347 -33.1132
   -33.1047 -33.0480 -33.0279 -32.8222 -32.8154 -32.7445 -32.5728 -32.5525
    -4.1536  -3.0444  -3.0367  -2.9484  -2.8791  -2.6811  -2.6711  -2.5993
    -2.5691  -2.4507  -2.3895  -2.3157  -1.9751  -1.9389  -1.8747  -1.0266
    -0.9667  -0.8688  -0.5838  -0.3973  -0.3532  -0.2932  -0.0824  -0.0421
     0.0056   0.0598   0.3963   0.4524   0.5819   0.5981   0.6178   0.8270
     0.9328   1.2633   1.3499   1.4921   1.5703   1.6485   1.7008   1.8677
     2.0835   2.3833   2.4119   2.5702   2.7527   2.8200   2.9080   3.0063
     3.3269   3.4981   3.5084   3.6767   3.6843   3.7805   3.8995   4.1332
     4.3487   4.4786   4.4917   4.7412   4.7709   4.8139   4.8386   4.9731

          k = 0.0151-0.0087 0.0000 ( 30227 PWs)   bands (ev):

   -76.8123 -76.7856 -76.2696 -76.2429 -76.2164 -76.1899 -59.2229 -59.1260
   -59.0962 -59.0507 -59.0022 -58.9564 -44.7871 -44.7305 -44.6985 -44.6536
   -44.6209 -44.4927 -44.2553 -44.2028 -44.1899 -44.1696 -44.1572 -44.1240
   -44.0666 -44.0380 -44.0045 -43.9757 -43.9622 -43.8984 -33.6291 -33.5136
   -33.4162 -33.3742 -33.3537 -33.2728 -33.1958 -33.1918 -33.1331 -33.1111
   -33.1052 -33.0464 -33.0266 -32.8219 -32.8152 -32.7444 -32.5726 -32.5524
    -4.2729  -3.1285  -3.1018  -3.0509  -2.9781  -2.7887  -2.7384  -2.6578
    -2.6527  -2.5145  -2.4307  -2.3899  -2.0625  -2.0103  -1.9925  -1.0259
    -1.0054  -0.8694  -0.5785  -0.4585  -0.3778  -0.2112  -0.1295  -0.0202
     0.0299   0.0787   0.3794   0.4118   0.5558   0.6144   0.6731   0.8534
     1.0202   1.3492   1.4078   1.6026   1.6648   1.7000   1.7882   1.9570
     2.3327   2.3902   2.6014   2.6268   2.8430   2.9614   3.0554   3.0928
     3.3140   3.6463   3.7557   3.8626   3.9624   3.9639   4.0347   4.3168
     4.4333   4.5842   4.5897   4.6267   4.6595   4.9065   4.9876   5.1620

          k = 0.0303 0.0174 0.0000 ( 30189 PWs)   bands (ev):

   -76.8110 -76.7870 -76.2682 -76.2443 -76.2150 -76.1912 -59.2179 -59.1310
   -59.0914 -59.0459 -59.0071 -58.9613 -44.7720 -44.7286 -44.7000 -44.6516
   -44.6222 -44.5080 -44.2402 -44.2007 -44.1750 -44.1709 -44.1551 -44.1252
   -44.0652 -44.0396 -44.0030 -43.9775 -43.9771 -43.9135 -33.5895 -33.5099
   -33.4226 -33.3348 -33.3147 -33.2699 -33.1972 -33.1905 -33.1298 -33.1093
   -33.1080 -33.0521 -33.0323 -32.8598 -32.8181 -32.7486 -32.6163 -32.5963
    -4.0936  -3.0267  -2.9539  -2.9241  -2.8319  -2.6520  -2.6143  -2.5650
    -2.5390  -2.4315  -2.3249  -2.2978  -1.9718  -1.8500  -1.8293  -1.0002
    -0.9991  -0.8337  -0.5446  -0.4200  -0.3933  -0.3022  -0.1527  -0.0824
     0.0092   0.0289   0.3850   0.4184   0.5185   0.5585   0.7594   0.9694
     0.9785   1.1640   1.2782   1.3164   1.6035   1.6461   1.7536   1.8839
     2.2184   2.2207   2.3825   2.3972   2.6651   2.7337   2.8799   3.0637
     3.1229   3.2615   3.5726   3.6269   3.7824   3.8993   4.0165   4.0243
     4.1671   4.3136   4.4406   4.4690   4.6916   4.8320   4.8750   5.1585

          k = 0.0303 0.0347 0.0000 ( 30190 PWs)   bands (ev):

   -76.8109 -76.7870 -76.2682 -76.2443 -76.2150 -76.1912 -59.2181 -59.1311
   -59.0915 -59.0460 -59.0071 -58.9613 -44.7714 -44.7280 -44.6998 -44.6506
   -44.6220 -44.5080 -44.2397 -44.1995 -44.1745 -44.1707 -44.1537 -44.1250
   -44.0654 -44.0397 -44.0029 -43.9775 -43.9772 -43.9135 -33.5914 -33.5130
   -33.4240 -33.3359 -33.3165 -33.2741 -33.1974 -33.1887 -33.1318 -33.1108
   -33.1087 -33.0540 -33.0338 -32.8600 -32.8185 -32.7487 -32.6164 -32.5965
    -3.9232  -2.9177  -2.8696  -2.7717  -2.6955  -2.5722  -2.4713  -2.4417
    -2.4411  -2.3416  -2.2695  -2.1781  -1.8617  -1.7519  -1.6478  -1.0214
    -0.9533  -0.8240  -0.5871  -0.4970  -0.3417  -0.2590  -0.0969  -0.0860
    -0.0683   0.0180   0.4027   0.4374   0.4802   0.5856   0.6883   0.8413
     0.9535   1.1099   1.1601   1.2193   1.4691   1.5212   1.7136   1.7243
     1.9542   1.9976   2.2983   2.3738   2.4308   2.6305   2.7755   2.8223
     2.8700   3.1156   3.3300   3.3798   3.5450   3.6033   3.8592   4.0022
     4.0576   4.2883   4.3542   4.4568   4.5562   4.6504   4.7930   5.2799

          k = 0.0303 0.0521 0.0000 ( 30184 PWs)   bands (ev):

   -76.8109 -76.7870 -76.2682 -76.2443 -76.2150 -76.1912 -59.2182 -59.1313
   -59.0916 -59.0462 -59.0071 -58.9613 -44.7707 -44.7272 -44.6996 -44.6493
   -44.6217 -44.5080 -44.2390 -44.1978 -44.1738 -44.1704 -44.1519 -44.1246
   -44.0657 -44.0398 -44.0027 -43.9775 -43.9772 -43.9135 -33.5940 -33.5172
   -33.4259 -33.3374 -33.3189 -33.2796 -33.1978 -33.1867 -33.1344 -33.1146
   -33.1079 -33.0567 -33.0360 -32.8603 -32.8190 -32.7488 -32.6166 -32.5966
    -3.6552  -2.7433  -2.7186  -2.5864  -2.4949  -2.4281  -2.3518  -2.2639
    -2.2013  -2.1741  -2.1710  -2.0032  -1.6509  -1.6315  -1.4112  -1.0269
    -0.8986  -0.8317  -0.6542  -0.6414  -0.2747  -0.2265  -0.1396  -0.1098
    -0.0671   0.0690   0.3865   0.3875   0.4296   0.5160   0.6086   0.6802
     0.9124   0.9804   1.0328   1.1507   1.2936   1.4334   1.4446   1.6426
     1.6805   1.7457   2.0526   2.1144   2.2092   2.2759   2.4985   2.5381
     2.6979   2.7411   3.0054   3.3257   3.3309   3.4826   3.5775   3.9756
     4.0217   4.1270   4.3432   4.3925   4.5206   4.6256   4.7772   4.9833

          k = 0.0303 0.0695 0.0000 ( 30189 PWs)   bands (ev):

   -76.8109 -76.7870 -76.2682 -76.2443 -76.2150 -76.1912 -59.2185 -59.1315
   -59.0918 -59.0465 -59.0071 -58.9612 -44.7700 -44.7265 -44.6994 -44.6479
   -44.6215 -44.5080 -44.2384 -44.1962 -44.1731 -44.1701 -44.1501 -44.1243
   -44.0660 -44.0399 -44.0026 -43.9775 -43.9772 -43.9136 -33.5966 -33.5213
   -33.4278 -33.3389 -33.3214 -33.2850 -33.1982 -33.1849 -33.1369 -33.1184
   -33.1071 -33.0592 -33.0382 -32.8605 -32.8196 -32.7490 -32.6167 -32.5968
    -3.3191  -2.6050  -2.4509  -2.4106  -2.2871  -2.2331  -2.2309  -2.0890
    -2.0209  -1.9131  -1.8962  -1.8201  -1.4883  -1.3817  -1.3481  -0.9386
    -0.9127  -0.7785  -0.7290  -0.7027  -0.4077  -0.2252  -0.2058  -0.1278
    -0.0089   0.0917   0.2869   0.3127   0.3360   0.3692   0.4891   0.6771
     0.7616   0.8095   0.9419   1.1006   1.1063   1.1467   1.3186   1.3783
     1.5637   1.5793   1.6484   1.7293   1.8645   2.0120   2.2386   2.3648
     2.5306   2.6325   2.8670   3.0515   3.2353   3.3270   3.5312   3.7825
     4.0650   4.0865   4.1845   4.2945   4.4050   4.5819   4.7092   4.7729

          k = 0.0303 0.0868 0.0000 ( 30147 PWs)   bands (ev):

   -76.8109 -76.7870 -76.2682 -76.2443 -76.2150 -76.1912 -59.2186 -59.1316
   -59.0918 -59.0466 -59.0071 -58.9612 -44.7694 -44.7259 -44.6992 -44.6469
   -44.6213 -44.5080 -44.2378 -44.1950 -44.1725 -44.1699 -44.1487 -44.1240
   -44.0662 -44.0399 -44.0024 -43.9775 -43.9772 -43.9136 -33.5985 -33.5244
   -33.4292 -33.3400 -33.3233 -33.2889 -33.1984 -33.1838 -33.1387 -33.1212
   -33.1065 -33.0611 -33.0399 -32.8607 -32.8200 -32.7491 -32.6168 -32.5970
    -2.9738  -2.5251  -2.2758  -2.1813  -2.1674  -2.0765  -2.0254  -1.9283
    -1.8965  -1.7209  -1.6267  -1.5711  -1.4441  -1.3750  -1.1643  -1.1034
    -0.8565  -0.7815  -0.7056  -0.6644  -0.4095  -0.3223  -0.1791  -0.1249
    -0.0108   0.0154   0.1721   0.1855   0.2724   0.3239   0.4594   0.5699
     0.5839   0.6984   0.7808   0.8250   0.9036   0.9855   1.0891   1.2502
     1.2792   1.3900   1.5450   1.6578   1.8052   1.9410   2.0009   2.0958
     2.5541   2.6012   2.8491   2.8970   3.1696   3.2242   3.5003   3.5925
     4.0095   4.0433   4.0725   4.0796   4.2296   4.2889   4.6278   4.8658

          k = 0.0303 0.1042 0.0000 ( 30164 PWs)   bands (ev):

   -76.8109 -76.7870 -76.2681 -76.2443 -76.2149 -76.1912 -59.2186 -59.1317
   -59.0918 -59.0467 -59.0071 -58.9612 -44.7692 -44.7257 -44.6991 -44.6466
   -44.6212 -44.5080 -44.2377 -44.1946 -44.1723 -44.1698 -44.1482 -44.1240
   -44.0662 -44.0400 -44.0024 -43.9775 -43.9772 -43.9136 -33.5991 -33.5255
   -33.4297 -33.3404 -33.3239 -33.2903 -33.1985 -33.1834 -33.1393 -33.1222
   -33.1063 -33.0617 -33.0405 -32.8608 -32.8201 -32.7491 -32.6169 -32.5970
    -2.7716  -2.5517  -2.2169  -2.1467  -2.0230  -1.9634  -1.9315  -1.9023
    -1.8190  -1.7477  -1.5142  -1.4285  -1.3477  -1.2888  -1.2290  -1.2000
    -0.9228  -0.8493  -0.7348  -0.6368  -0.2074  -0.1987  -0.1608  -0.0858
    -0.0510  -0.0369   0.1139   0.1476   0.1700   0.2358   0.3745   0.4196
     0.5172   0.5959   0.7066   0.7704   0.7970   0.9851   1.0429   1.1803
     1.2310   1.2323   1.5068   1.7246   1.8079   1.8824   1.9428   2.0174
     2.5546   2.5999   2.8477   2.8699   3.1172   3.2307   3.5035   3.5096
     3.8406   3.9430   4.0261   4.0536   4.1622   4.2704   4.6325   4.8968

          k = 0.0303-0.0868 0.0000 ( 30147 PWs)   bands (ev):

   -76.8109 -76.7870 -76.2682 -76.2443 -76.2150 -76.1912 -59.2186 -59.1316
   -59.0918 -59.0466 -59.0071 -58.9612 -44.7694 -44.7259 -44.6992 -44.6469
   -44.6213 -44.5080 -44.2378 -44.1950 -44.1725 -44.1699 -44.1487 -44.1240
   -44.0662 -44.0399 -44.0024 -43.9775 -43.9772 -43.9136 -33.5985 -33.5244
   -33.4292 -33.3400 -33.3233 -33.2889 -33.1984 -33.1838 -33.1387 -33.1212
   -33.1065 -33.0611 -33.0399 -32.8607 -32.8200 -32.7491 -32.6168 -32.5970
    -2.9738  -2.5251  -2.2758  -2.1813  -2.1674  -2.0765  -2.0254  -1.9283
    -1.8965  -1.7209  -1.6267  -1.5711  -1.4441  -1.3750  -1.1643  -1.1034
    -0.8565  -0.7815  -0.7056  -0.6644  -0.4095  -0.3223  -0.1791  -0.1249
    -0.0108   0.0154   0.1721   0.1855   0.2724   0.3239   0.4594   0.5699
     0.5839   0.6984   0.7808   0.8250   0.9036   0.9855   1.0891   1.2502
     1.2792   1.3900   1.5450   1.6578   1.8052   1.9410   2.0009   2.0958
     2.5541   2.6012   2.8491   2.8970   3.1696   3.2242   3.5003   3.5925
     4.0095   4.0433   4.0725   4.0796   4.2296   4.2889   4.6278   4.8658

          k = 0.0303-0.0695 0.0000 ( 30189 PWs)   bands (ev):

   -76.8109 -76.7870 -76.2682 -76.2443 -76.2150 -76.1912 -59.2185 -59.1315
   -59.0918 -59.0465 -59.0071 -58.9612 -44.7700 -44.7265 -44.6994 -44.6479
   -44.6215 -44.5080 -44.2384 -44.1962 -44.1731 -44.1701 -44.1501 -44.1243
   -44.0660 -44.0399 -44.0026 -43.9775 -43.9772 -43.9136 -33.5966 -33.5213
   -33.4278 -33.3389 -33.3214 -33.2850 -33.1982 -33.1849 -33.1369 -33.1184
   -33.1071 -33.0592 -33.0382 -32.8605 -32.8196 -32.7490 -32.6167 -32.5968
    -3.3191  -2.6050  -2.4509  -2.4106  -2.2871  -2.2331  -2.2309  -2.0890
    -2.0209  -1.9131  -1.8962  -1.8201  -1.4883  -1.3817  -1.3481  -0.9386
    -0.9127  -0.7785  -0.7290  -0.7027  -0.4077  -0.2252  -0.2058  -0.1278
    -0.0089   0.0917   0.2869   0.3127   0.3360   0.3692   0.4891   0.6771
     0.7616   0.8095   0.9419   1.1006   1.1063   1.1467   1.3186   1.3783
     1.5636   1.5793   1.6484   1.7293   1.8645   2.0120   2.2386   2.3648
     2.5306   2.6325   2.8670   3.0515   3.2353   3.3270   3.5312   3.7825
     4.0650   4.0865   4.1845   4.2945   4.4050   4.5819   4.7092   4.7729

          k = 0.0303-0.0521 0.0000 ( 30184 PWs)   bands (ev):

   -76.8109 -76.7870 -76.2682 -76.2443 -76.2150 -76.1912 -59.2182 -59.1313
   -59.0916 -59.0462 -59.0071 -58.9613 -44.7707 -44.7272 -44.6996 -44.6493
   -44.6217 -44.5080 -44.2390 -44.1978 -44.1738 -44.1704 -44.1519 -44.1246
   -44.0657 -44.0398 -44.0027 -43.9775 -43.9772 -43.9135 -33.5940 -33.5172
   -33.4259 -33.3374 -33.3189 -33.2796 -33.1978 -33.1867 -33.1344 -33.1146
   -33.1079 -33.0567 -33.0360 -32.8603 -32.8190 -32.7488 -32.6166 -32.5966
    -3.6552  -2.7433  -2.7186  -2.5864  -2.4949  -2.4281  -2.3518  -2.2639
    -2.2013  -2.1741  -2.1710  -2.0032  -1.6509  -1.6315  -1.4112  -1.0269
    -0.8986  -0.8317  -0.6542  -0.6414  -0.2747  -0.2265  -0.1396  -0.1098
    -0.0671   0.0690   0.3865   0.3875   0.4296   0.5160   0.6086   0.6802
     0.9124   0.9804   1.0328   1.1507   1.2936   1.4334   1.4446   1.6426
     1.6805   1.7457   2.0526   2.1144   2.2092   2.2759   2.4985   2.5381
     2.6979   2.7411   3.0054   3.3257   3.3309   3.4826   3.5775   3.9756
     4.0217   4.1270   4.3432   4.3925   4.5206   4.6256   4.7772   4.9833

          k = 0.0303-0.0347 0.0000 ( 30190 PWs)   bands (ev):

   -76.8109 -76.7870 -76.2682 -76.2443 -76.2150 -76.1912 -59.2181 -59.1311
   -59.0915 -59.0460 -59.0071 -58.9613 -44.7714 -44.7280 -44.6998 -44.6506
   -44.6220 -44.5080 -44.2397 -44.1995 -44.1745 -44.1707 -44.1537 -44.1250
   -44.0654 -44.0397 -44.0029 -43.9775 -43.9772 -43.9135 -33.5914 -33.5130
   -33.4240 -33.3359 -33.3165 -33.2741 -33.1974 -33.1887 -33.1318 -33.1108
   -33.1087 -33.0540 -33.0338 -32.8600 -32.8185 -32.7487 -32.6164 -32.5965
    -3.9232  -2.9177  -2.8696  -2.7717  -2.6955  -2.5722  -2.4713  -2.4417
    -2.4411  -2.3416  -2.2695  -2.1781  -1.8617  -1.7519  -1.6478  -1.0214
    -0.9533  -0.8240  -0.5871  -0.4970  -0.3417  -0.2590  -0.0969  -0.0860
    -0.0683   0.0180   0.4027   0.4374   0.4802   0.5856   0.6883   0.8413
     0.9535   1.1099   1.1601   1.2193   1.4691   1.5212   1.7136   1.7243
     1.9542   1.9976   2.2983   2.3738   2.4308   2.6305   2.7755   2.8223
     2.8700   3.1156   3.3300   3.3798   3.5450   3.6033   3.8592   4.0022
     4.0576   4.2883   4.3542   4.4568   4.5562   4.6504   4.7930   5.2799

          k = 0.0303-0.0174 0.0000 ( 30189 PWs)   bands (ev):

   -76.8110 -76.7870 -76.2682 -76.2443 -76.2150 -76.1912 -59.2179 -59.1310
   -59.0914 -59.0459 -59.0071 -58.9613 -44.7720 -44.7286 -44.7000 -44.6516
   -44.6222 -44.5080 -44.2402 -44.2007 -44.1750 -44.1709 -44.1551 -44.1252
   -44.0652 -44.0396 -44.0030 -43.9775 -43.9771 -43.9135 -33.5895 -33.5099
   -33.4226 -33.3348 -33.3147 -33.2699 -33.1972 -33.1905 -33.1298 -33.1093
   -33.1080 -33.0521 -33.0323 -32.8598 -32.8181 -32.7486 -32.6163 -32.5963
    -4.0936  -3.0267  -2.9539  -2.9241  -2.8319  -2.6520  -2.6143  -2.5650
    -2.5390  -2.4315  -2.3249  -2.2978  -1.9718  -1.8500  -1.8293  -1.0002
    -0.9991  -0.8337  -0.5446  -0.4200  -0.3933  -0.3022  -0.1527  -0.0824
     0.0092   0.0289   0.3850   0.4184   0.5185   0.5585   0.7594   0.9694
     0.9785   1.1640   1.2782   1.3164   1.6035   1.6461   1.7536   1.8839
     2.2184   2.2207   2.3825   2.3972   2.6651   2.7337   2.8799   3.0637
     3.1229   3.2615   3.5726   3.6269   3.7824   3.8993   4.0165   4.0243
     4.1671   4.3136   4.4406   4.4690   4.6916   4.8320   4.8750   5.1584

          k = 0.0303-0.0000 0.0000 ( 30179 PWs)   bands (ev):

   -76.8110 -76.7870 -76.2682 -76.2443 -76.2150 -76.1912 -59.2179 -59.1310
   -59.0913 -59.0458 -59.0071 -58.9613 -44.7722 -44.7288 -44.7000 -44.6520
   -44.6223 -44.5080 -44.2404 -44.2011 -44.1751 -44.1710 -44.1556 -44.1253
   -44.0652 -44.0396 -44.0030 -43.9775 -43.9771 -43.9135 -33.5888 -33.5088
   -33.4221 -33.3344 -33.3140 -33.2684 -33.1971 -33.1911 -33.1291 -33.1095
   -33.1070 -33.0513 -33.0317 -32.8598 -32.8179 -32.7486 -32.6163 -32.5962
    -4.1518  -3.0540  -2.9887  -2.9833  -2.8794  -2.6750  -2.6707  -2.6100
    -2.5659  -2.4617  -2.3435  -2.3394  -1.9871  -1.9431  -1.8558  -1.0155
    -0.9920  -0.8409  -0.5289  -0.4515  -0.3644  -0.3139  -0.1688  -0.0979
     0.0339   0.0555   0.3822   0.4039   0.5228   0.5414   0.7813   0.9792
     1.0240   1.1889   1.3211   1.3510   1.6436   1.7282   1.7662   1.9180
     2.3015   2.3724   2.4041   2.4120   2.6877   2.7564   2.9155   3.0667
     3.2184   3.4227   3.5431   3.7257   3.9185   3.9764   4.0598   4.0949
     4.2525   4.3002   4.5317   4.6908   4.7675   4.8514   4.9692   5.0513

          k = 0.0454 0.0261 0.0000 ( 30182 PWs)   bands (ev):

   -76.8088 -76.7892 -76.2660 -76.2465 -76.2128 -76.1934 -59.2101 -59.1392
   -59.0837 -59.0382 -59.0150 -58.9692 -44.7479 -44.7257 -44.7023 -44.6485
   -44.6245 -44.5324 -44.2163 -44.1974 -44.1731 -44.1517 -44.1511 -44.1273
   -44.0630 -44.0420 -44.0019 -44.0003 -43.9795 -43.9376 -33.5259 -33.5037
   -33.4324 -33.2717 -33.2651 -33.2521 -33.2055 -33.1821 -33.1244 -33.1159
   -33.1029 -33.0608 -33.0410 -32.9302 -32.8120 -32.7552 -32.6852 -32.6656
    -3.8128  -2.8941  -2.7351  -2.7149  -2.6101  -2.5293  -2.4181  -2.3759
    -2.3350  -2.2973  -2.1582  -2.1454  -1.8360  -1.5947  -1.5803  -1.0067
    -0.9893  -0.7653  -0.6360  -0.5480  -0.3631  -0.2014  -0.1794  -0.1345
    -0.0588  -0.0436   0.3290   0.3742   0.3918   0.6400   0.7645   0.8286
     0.9973   1.0078   1.1367   1.2354   1.4502   1.5259   1.6906   1.7461
     1.7515   2.0040   2.0259   2.3415   2.3974   2.5165   2.6630   2.7664
     2.9015   3.1047   3.1492   3.4321   3.4694   3.6724   3.6747   3.9276
     4.1056   4.1650   4.1917   4.2591   4.5485   4.5710   4.6310   4.7634

          k = 0.0454 0.0434 0.0000 ( 30155 PWs)   bands (ev):

   -76.8087 -76.7892 -76.2660 -76.2465 -76.2128 -76.1934 -59.2102 -59.1393
   -59.0838 -59.0384 -59.0149 -58.9691 -44.7473 -44.7251 -44.7022 -44.6474
   -44.6243 -44.5324 -44.2157 -44.1961 -44.1729 -44.1506 -44.1502 -44.1271
   -44.0632 -44.0421 -44.0019 -44.0003 -43.9795 -43.9377 -33.5280 -33.5070
   -33.4336 -33.2730 -33.2696 -33.2541 -33.2053 -33.1804 -33.1263 -33.1154
   -33.1058 -33.0627 -33.0424 -32.9302 -32.8124 -32.7552 -32.6852 -32.6656
    -3.6048  -2.7772  -2.6242  -2.5592  -2.4593  -2.4343  -2.2847  -2.2745
    -2.1611  -2.1538  -2.0947  -1.9942  -1.7057  -1.4870  -1.3880  -1.0050
    -0.9679  -0.7468  -0.7357  -0.6547  -0.3012  -0.1956  -0.1758  -0.1090
    -0.1052  -0.0356   0.3243   0.3498   0.3835   0.5609   0.6030   0.7726
     0.9337   0.9538   1.0570   1.2145   1.3229   1.3714   1.4845   1.5141
     1.7304   1.8281   1.8633   2.1593   2.2640   2.3354   2.4557   2.4763
     2.7566   2.8269   3.0391   3.2301   3.3225   3.4235   3.4799   3.9272
     4.0219   4.0736   4.1460   4.2366   4.4102   4.6085   4.6548   4.7788

          k = 0.0454 0.0608 0.0000 ( 30177 PWs)   bands (ev):

   -76.8087 -76.7892 -76.2660 -76.2465 -76.2128 -76.1934 -59.2104 -59.1394
   -59.0840 -59.0387 -59.0149 -58.9691 -44.7466 -44.7244 -44.7020 -44.6462
   -44.6242 -44.5325 -44.2151 -44.1946 -44.1728 -44.1499 -44.1485 -44.1270
   -44.0635 -44.0422 -44.0020 -44.0001 -43.9795 -43.9378 -33.5305 -33.5107
   -33.4350 -33.2747 -33.2744 -33.2564 -33.2052 -33.1787 -33.1285 -33.1148
   -33.1092 -33.0649 -33.0441 -32.9301 -32.8129 -32.7553 -32.6852 -32.6655
    -3.3138  -2.5762  -2.4778  -2.4038  -2.2773  -2.2678  -2.1779  -2.1211
    -1.9899  -1.9162  -1.9147  -1.8206  -1.4781  -1.3670  -1.3412  -0.9748
    -0.8535  -0.8145  -0.7576  -0.7545  -0.3584  -0.3003  -0.2330  -0.1441
     0.0001   0.0087   0.2599   0.2726   0.3247   0.3686   0.4847   0.7116
     0.7942   0.8184   0.9878   1.1693   1.2114   1.2130   1.2365   1.2811
     1.5478   1.6170   1.7508   1.8429   2.0027   2.0921   2.2566   2.4856
     2.5046   2.7111   2.7936   3.0432   3.2674   3.3510   3.4148   3.8341
     3.9522   4.0753   4.1669   4.2583   4.2908   4.5077   4.6871   4.9241

          k = 0.0454 0.0782 0.0000 ( 30163 PWs)   bands (ev):

   -76.8087 -76.7892 -76.2660 -76.2465 -76.2128 -76.1934 -59.2105 -59.1396
   -59.0840 -59.0388 -59.0149 -58.9691 -44.7460 -44.7238 -44.7019 -44.6451
   -44.6241 -44.5325 -44.2145 -44.1933 -44.1728 -44.1493 -44.1471 -44.1269
   -44.0637 -44.0422 -44.0020 -44.0000 -43.9795 -43.9378 -33.5325 -33.5139
   -33.4362 -33.2790 -33.2756 -33.2584 -33.2050 -33.1774 -33.1302 -33.1143
   -33.1121 -33.0668 -33.0456 -32.9301 -32.8133 -32.7554 -32.6852 -32.6655
    -2.9736  -2.3485  -2.3289  -2.2489  -2.1098  -2.0873  -2.0632  -1.9626
    -1.8051  -1.7216  -1.6815  -1.6140  -1.4609  -1.2672  -1.1960  -1.0847
    -0.8863  -0.8483  -0.7359  -0.5855  -0.5033  -0.3806  -0.2490  -0.2245
    -0.0707   0.0586   0.1408   0.1736   0.2180   0.2361   0.4749   0.5335
     0.5923   0.7047   0.8260   0.9673   0.9710   1.0212   1.0637   1.2390
     1.2529   1.3534   1.7034   1.7658   2.0393   2.0612   2.1000   2.2055
     2.4969   2.6556   2.7671   2.9683   3.2235   3.2751   3.4963   3.6697
     3.9104   4.0078   4.1283   4.2121   4.3230   4.3608   4.6172   4.7413

          k = 0.0454 0.0955 0.0000 ( 30173 PWs)   bands (ev):

   -76.8087 -76.7892 -76.2660 -76.2465 -76.2128 -76.1934 -59.2106 -59.1396
   -59.0841 -59.0389 -59.0149 -58.9690 -44.7457 -44.7234 -44.7019 -44.6444
   -44.6240 -44.5326 -44.2142 -44.1925 -44.1727 -44.1489 -44.1462 -44.1269
   -44.0638 -44.0423 -44.0021 -44.0000 -43.9796 -43.9379 -33.5337 -33.5158
   -33.4369 -33.2814 -33.2763 -33.2595 -33.2050 -33.1767 -33.1312 -33.1140
   -33.1138 -33.0679 -33.0465 -32.9301 -32.8136 -32.7554 -32.6851 -32.6655
    -2.6585  -2.3571  -2.1587  -2.1176  -2.0162  -1.9259  -1.8998  -1.7887
    -1.7508  -1.6661  -1.5912  -1.5201  -1.3757  -1.3036  -1.1335  -1.0942
    -1.0464  -0.8502  -0.6797  -0.5181  -0.3269  -0.3171  -0.2643  -0.2459
    -0.1852  -0.0710  -0.0545   0.0638   0.1331   0.1701   0.2709   0.4859
     0.5323   0.6138   0.6917   0.7056   0.8480   0.9514   1.0044   1.0997
     1.1997   1.2400   1.6682   1.8568   1.9330   2.0443   2.1026   2.1751
     2.4817   2.6483   2.7658   3.0399   3.2345   3.2683   3.5257   3.5878
     3.8957   3.9560   4.0556   4.0753   4.1663   4.2231   4.3823   4.4885

          k = 0.0454 0.1129 0.0000 ( 30173 PWs)   bands (ev):

   -76.8087 -76.7892 -76.2660 -76.2465 -76.2128 -76.1934 -59.2106 -59.1396
   -59.0841 -59.0389 -59.0149 -58.9690 -44.7457 -44.7234 -44.7019 -44.6444
   -44.6240 -44.5326 -44.2142 -44.1925 -44.1727 -44.1489 -44.1462 -44.1269
   -44.0638 -44.0423 -44.0021 -44.0000 -43.9796 -43.9379 -33.5337 -33.5158
   -33.4369 -33.2814 -33.2763 -33.2595 -33.2050 -33.1767 -33.1312 -33.1140
   -33.1138 -33.0679 -33.0465 -32.9301 -32.8136 -32.7554 -32.6851 -32.6655
    -2.6585  -2.3571  -2.1587  -2.1176  -2.0162  -1.9259  -1.8998  -1.7887
    -1.7508  -1.6661  -1.5912  -1.5201  -1.3757  -1.3036  -1.1335  -1.0942
    -1.0464  -0.8502  -0.6797  -0.5181  -0.3269  -0.3171  -0.2643  -0.2459
    -0.1852  -0.0710  -0.0545   0.0638   0.1331   0.1701   0.2709   0.4859
     0.5323   0.6138   0.6917   0.7056   0.8480   0.9514   1.0044   1.0997
     1.1997   1.2400   1.6682   1.8568   1.9330   2.0443   2.1026   2.1751
     2.4817   2.6483   2.7658   3.0399   3.2345   3.2683   3.5257   3.5878
     3.8957   3.9560   4.0556   4.0753   4.1663   4.2231   4.3823   4.4885

          k = 0.0454-0.0782 0.0000 ( 30163 PWs)   bands (ev):

   -76.8087 -76.7892 -76.2660 -76.2465 -76.2128 -76.1934 -59.2105 -59.1396
   -59.0840 -59.0388 -59.0149 -58.9691 -44.7460 -44.7238 -44.7019 -44.6451
   -44.6241 -44.5325 -44.2145 -44.1933 -44.1728 -44.1493 -44.1471 -44.1269
   -44.0637 -44.0422 -44.0020 -44.0000 -43.9795 -43.9378 -33.5325 -33.5139
   -33.4362 -33.2790 -33.2756 -33.2584 -33.2050 -33.1774 -33.1302 -33.1143
   -33.1121 -33.0668 -33.0456 -32.9301 -32.8133 -32.7554 -32.6852 -32.6655
    -2.9736  -2.3485  -2.3289  -2.2489  -2.1098  -2.0873  -2.0632  -1.9626
    -1.8051  -1.7216  -1.6815  -1.6140  -1.4609  -1.2672  -1.1960  -1.0847
    -0.8863  -0.8483  -0.7359  -0.5855  -0.5033  -0.3806  -0.2490  -0.2245
    -0.0707   0.0586   0.1408   0.1736   0.2180   0.2361   0.4749   0.5335
     0.5924   0.7047   0.8260   0.9673   0.9710   1.0212   1.0637   1.2390
     1.2529   1.3534   1.7034   1.7658   2.0393   2.0612   2.1000   2.2055
     2.4969   2.6556   2.7671   2.9683   3.2235   3.2751   3.4963   3.6698
     3.9104   4.0078   4.1283   4.2121   4.3231   4.3608   4.6173   4.7429

          k = 0.0454-0.0608 0.0000 ( 30177 PWs)   bands (ev):

   -76.8087 -76.7892 -76.2660 -76.2465 -76.2128 -76.1934 -59.2104 -59.1394
   -59.0840 -59.0387 -59.0149 -58.9691 -44.7466 -44.7244 -44.7020 -44.6462
   -44.6242 -44.5325 -44.2151 -44.1946 -44.1728 -44.1499 -44.1485 -44.1270
   -44.0635 -44.0422 -44.0020 -44.0001 -43.9795 -43.9378 -33.5305 -33.5107
   -33.4350 -33.2747 -33.2744 -33.2564 -33.2052 -33.1787 -33.1285 -33.1148
   -33.1092 -33.0649 -33.0441 -32.9301 -32.8129 -32.7553 -32.6852 -32.6655
    -3.3138  -2.5762  -2.4778  -2.4038  -2.2773  -2.2678  -2.1779  -2.1211
    -1.9899  -1.9162  -1.9147  -1.8206  -1.4781  -1.3670  -1.3412  -0.9748
    -0.8535  -0.8145  -0.7576  -0.7545  -0.3584  -0.3003  -0.2330  -0.1441
     0.0001   0.0087   0.2599   0.2726   0.3247   0.3686   0.4847   0.7116
     0.7942   0.8184   0.9878   1.1693   1.2114   1.2130   1.2365   1.2811
     1.5478   1.6170   1.7508   1.8429   2.0027   2.0921   2.2566   2.4856
     2.5046   2.7111   2.7936   3.0432   3.2674   3.3510   3.4148   3.8341
     3.9522   4.0753   4.1669   4.2583   4.2908   4.5077   4.6871   4.9241

          k = 0.0454-0.0434 0.0000 ( 30155 PWs)   bands (ev):

   -76.8087 -76.7892 -76.2660 -76.2465 -76.2128 -76.1934 -59.2102 -59.1393
   -59.0838 -59.0384 -59.0149 -58.9691 -44.7473 -44.7251 -44.7022 -44.6474
   -44.6243 -44.5324 -44.2157 -44.1961 -44.1729 -44.1506 -44.1502 -44.1271
   -44.0632 -44.0421 -44.0019 -44.0003 -43.9795 -43.9377 -33.5280 -33.5070
   -33.4336 -33.2730 -33.2696 -33.2541 -33.2053 -33.1804 -33.1263 -33.1154
   -33.1058 -33.0627 -33.0424 -32.9302 -32.8124 -32.7552 -32.6852 -32.6656
    -3.6048  -2.7772  -2.6242  -2.5592  -2.4593  -2.4343  -2.2847  -2.2745
    -2.1611  -2.1538  -2.0947  -1.9942  -1.7057  -1.4870  -1.3880  -1.0050
    -0.9679  -0.7468  -0.7357  -0.6547  -0.3012  -0.1956  -0.1758  -0.1090
    -0.1052  -0.0356   0.3243   0.3498   0.3835   0.5609   0.6030   0.7726
     0.9337   0.9538   1.0570   1.2145   1.3229   1.3714   1.4845   1.5141
     1.7304   1.8281   1.8633   2.1593   2.2640   2.3354   2.4557   2.4763
     2.7566   2.8269   3.0391   3.2301   3.3225   3.4235   3.4799   3.9272
     4.0219   4.0736   4.1460   4.2366   4.4102   4.6085   4.6548   4.7788

          k = 0.0454-0.0261 0.0000 ( 30182 PWs)   bands (ev):

   -76.8088 -76.7892 -76.2660 -76.2465 -76.2128 -76.1934 -59.2101 -59.1392
   -59.0837 -59.0382 -59.0150 -58.9692 -44.7479 -44.7257 -44.7023 -44.6485
   -44.6245 -44.5324 -44.2163 -44.1974 -44.1731 -44.1517 -44.1511 -44.1273
   -44.0630 -44.0420 -44.0019 -44.0003 -43.9795 -43.9376 -33.5259 -33.5037
   -33.4324 -33.2717 -33.2651 -33.2521 -33.2055 -33.1821 -33.1244 -33.1159
   -33.1029 -33.0608 -33.0410 -32.9302 -32.8120 -32.7552 -32.6852 -32.6656
    -3.8128  -2.8941  -2.7351  -2.7149  -2.6101  -2.5293  -2.4181  -2.3759
    -2.3350  -2.2973  -2.1582  -2.1454  -1.8360  -1.5947  -1.5803  -1.0067
    -0.9893  -0.7653  -0.6360  -0.5480  -0.3631  -0.2014  -0.1794  -0.1345
    -0.0588  -0.0436   0.3290   0.3742   0.3918   0.6400   0.7645   0.8286
     0.9973   1.0078   1.1367   1.2354   1.4502   1.5259   1.6906   1.7461
     1.7515   2.0040   2.0259   2.3415   2.3974   2.5165   2.6630   2.7664
     2.9015   3.1047   3.1492   3.4321   3.4694   3.6724   3.6747   3.9276
     4.1056   4.1650   4.1917   4.2591   4.5485   4.5710   4.6310   4.7634

          k = 0.0454-0.0087 0.0000 ( 30190 PWs)   bands (ev):

   -76.8088 -76.7892 -76.2660 -76.2465 -76.2128 -76.1934 -59.2101 -59.1391
   -59.0837 -59.0381 -59.0150 -58.9692 -44.7482 -44.7260 -44.7023 -44.6491
   -44.6245 -44.5323 -44.2166 -44.1982 -44.1731 -44.1526 -44.1514 -44.1274
   -44.0629 -44.0420 -44.0019 -44.0004 -43.9795 -43.9376 -33.5247 -33.5018
   -33.4317 -33.2710 -33.2624 -33.2509 -33.2056 -33.1832 -33.1232 -33.1162
   -33.1012 -33.0597 -33.0402 -32.9302 -32.8118 -32.7552 -32.6852 -32.6656
    -3.9204  -2.9218  -2.8401  -2.7934  -2.6901  -2.5605  -2.5055  -2.4508
    -2.4076  -2.3568  -2.2340  -2.1886  -1.8611  -1.7656  -1.6300  -1.0311
    -0.9526  -0.7962  -0.5780  -0.4634  -0.4172  -0.2874  -0.2026  -0.1248
    -0.0755   0.0587   0.3203   0.3572   0.3835   0.6396   0.8259   0.8774
     1.0096   1.0939   1.1709   1.2470   1.5726   1.6809   1.7056   1.7857
     1.8676   2.0660   2.2301   2.3668   2.4172   2.5706   2.8396   2.8777
     3.0623   3.0900   3.3625   3.3942   3.6766   3.8034   3.9095   3.9605
     4.2002   4.2888   4.3524   4.4496   4.4654   4.6231   4.7427   4.7967

          k = 0.0454 0.0087 0.0000 ( 30190 PWs)   bands (ev):

   -76.8088 -76.7892 -76.2660 -76.2465 -76.2128 -76.1934 -59.2101 -59.1391
   -59.0837 -59.0381 -59.0150 -58.9692 -44.7482 -44.7260 -44.7023 -44.6491
   -44.6245 -44.5323 -44.2166 -44.1982 -44.1731 -44.1526 -44.1514 -44.1274
   -44.0629 -44.0420 -44.0019 -44.0004 -43.9795 -43.9376 -33.5247 -33.5018
   -33.4317 -33.2710 -33.2624 -33.2509 -33.2056 -33.1832 -33.1232 -33.1162
   -33.1012 -33.0597 -33.0402 -32.9302 -32.8118 -32.7552 -32.6852 -32.6656
    -3.9204  -2.9218  -2.8401  -2.7934  -2.6901  -2.5605  -2.5055  -2.4508
    -2.4076  -2.3568  -2.2340  -2.1886  -1.8611  -1.7656  -1.6300  -1.0311
    -0.9526  -0.7962  -0.5780  -0.4634  -0.4172  -0.2874  -0.2026  -0.1248
    -0.0755   0.0587   0.3203   0.3572   0.3835   0.6396   0.8259   0.8774
     1.0096   1.0939   1.1709   1.2470   1.5726   1.6809   1.7056   1.7857
     1.8676   2.0660   2.2301   2.3668   2.4172   2.5706   2.8396   2.8777
     3.0623   3.0900   3.3625   3.3942   3.6766   3.8034   3.9095   3.9605
     4.2002   4.2888   4.3524   4.4496   4.4654   4.6231   4.7427   4.7967

          k = 0.0606 0.0347 0.0000 ( 30151 PWs)   bands (ev):

   -76.8059 -76.7921 -76.2631 -76.2494 -76.2100 -76.1962 -59.1999 -59.1497
   -59.0737 -59.0282 -59.0251 -58.9794 -44.7220 -44.7165 -44.7053 -44.6445
   -44.6275 -44.5640 -44.1933 -44.1852 -44.1758 -44.1475 -44.1304 -44.1198
   -44.0601 -44.0452 -44.0332 -43.9975 -43.9825 -43.9690 -33.4951 -33.4457
   -33.4411 -33.2581 -33.2161 -33.1887 -33.1716 -33.1696 -33.1247 -33.1168
   -33.0957 -33.0716 -33.0518 -33.0206 -32.8043 -32.7739 -32.7637 -32.7547
    -3.4625  -2.7596  -2.5001  -2.4799  -2.4079  -2.3517  -2.2096  -2.1514
    -2.1033  -2.0315  -1.9672  -1.9591  -1.6629  -1.3211  -1.3184  -1.0228
    -0.9558  -0.8355  -0.6946  -0.6840  -0.3553  -0.2872  -0.1345  -0.1277
    -0.1062  -0.0138   0.2408   0.2505   0.2905   0.3694   0.5753   0.8342
     0.9446   1.0331   1.0675   1.1100   1.2543   1.2733   1.4273   1.4714
     1.6967   1.8019   1.8652   2.1252   2.2595   2.2826   2.3869   2.4506
     2.7139   2.8748   3.0404   3.0429   3.2204   3.4550   3.4744   3.5992
     3.7470   3.8539   4.0097   4.0410   4.3142   4.4528   4.6541   4.7491

          k = 0.0606 0.0521 0.0000 ( 30167 PWs)   bands (ev):

   -76.8059 -76.7921 -76.2631 -76.2494 -76.2100 -76.1963 -59.2000 -59.1498
   -59.0739 -59.0284 -59.0251 -58.9794 -44.7214 -44.7159 -44.7053 -44.6435
   -44.6276 -44.5642 -44.1921 -44.1848 -44.1759 -44.1461 -44.1306 -44.1192
   -44.0603 -44.0452 -44.0333 -43.9974 -43.9826 -43.9691 -33.4980 -33.4469
   -33.4425 -33.2624 -33.2152 -33.1900 -33.1715 -33.1702 -33.1244 -33.1183
   -33.0983 -33.0731 -33.0526 -33.0202 -32.8046 -32.7736 -32.7637 -32.7544
    -3.2405  -2.6647  -2.3747  -2.3610  -2.3153  -2.2190  -2.0917  -2.0663
    -1.9250  -1.9019  -1.8382  -1.8289  -1.5195  -1.2804  -1.2415  -1.0489
    -0.8593  -0.8050  -0.8014  -0.6984  -0.3976  -0.3903  -0.2170  -0.1109
    -0.0451   0.0680   0.1817   0.1916   0.2846   0.2967   0.5397   0.7486
     0.8534   0.8882   0.9889   1.0275   1.0921   1.1845   1.2248   1.3710
     1.4831   1.6054   1.8426   2.0043   2.0971   2.1351   2.2004   2.4744
     2.6140   2.7158   2.8013   2.9907   3.1720   3.2749   3.4146   3.6018
     3.6593   3.7894   4.0212   4.0390   4.2277   4.3925   4.6348   4.8201

          k = 0.0606 0.0695 0.0000 ( 30152 PWs)   bands (ev):

   -76.8059 -76.7921 -76.2631 -76.2494 -76.2100 -76.1963 -59.2001 -59.1499
   -59.0740 -59.0286 -59.0250 -58.9793 -44.7208 -44.7153 -44.7053 -44.6425
   -44.6276 -44.5643 -44.1908 -44.1842 -44.1760 -44.1447 -44.1307 -44.1187
   -44.0605 -44.0452 -44.0335 -43.9972 -43.9826 -43.9693 -33.5009 -33.4479
   -33.4441 -33.2666 -33.2144 -33.1911 -33.1734 -33.1689 -33.1241 -33.1197
   -33.1009 -33.0746 -33.0536 -33.0199 -32.8049 -32.7734 -32.7637 -32.7541
    -2.9521  -2.5169  -2.2272  -2.2234  -2.1620  -2.0595  -2.0344  -1.9281
    -1.8357  -1.7349  -1.6767  -1.6177  -1.3687  -1.2797  -1.2087  -1.1060
    -0.9092  -0.8201  -0.8052  -0.5765  -0.4890  -0.4773  -0.2854  -0.1457
    -0.0855   0.0950   0.0974   0.1659   0.1745   0.2569   0.4437   0.6175
     0.6469   0.7325   0.7803   0.8821   0.9188   1.0765   1.1376   1.2466
     1.3658   1.4104   1.6854   1.9744   2.0373   2.1484   2.2541   2.3157
     2.5085   2.7048   2.7525   2.9317   3.1884   3.2894   3.3974   3.5507
     3.6930   3.7633   4.0268   4.0539   4.1471   4.2942   4.4854   4.8289

          k = 0.0606 0.0868 0.0000 ( 30162 PWs)   bands (ev):

   -76.8059 -76.7921 -76.2631 -76.2494 -76.2099 -76.1963 -59.2002 -59.1500
   -59.0740 -59.0288 -59.0250 -58.9792 -44.7204 -44.7149 -44.7054 -44.6417
   -44.6277 -44.5645 -44.1899 -44.1837 -44.1762 -44.1437 -44.1307 -44.1183
   -44.0606 -44.0453 -44.0336 -43.9971 -43.9826 -43.9694 -33.5030 -33.4483
   -33.4456 -33.2695 -33.2137 -33.1919 -33.1748 -33.1681 -33.1240 -33.1207
   -33.1027 -33.0758 -33.0543 -33.0196 -32.8052 -32.7733 -32.7637 -32.7539
    -2.6331  -2.3762  -2.1477  -2.0842  -1.9983  -1.9652  -1.8735  -1.8060
    -1.7302  -1.6594  -1.6301  -1.5197  -1.3614  -1.3135  -1.1685  -1.0837
    -0.9043  -0.8456  -0.7425  -0.6754  -0.4560  -0.3780  -0.2729  -0.2518
    -0.1860  -0.0673  -0.0671   0.0260   0.2003   0.2332   0.2384   0.4439
     0.4983   0.5941   0.7156   0.7693   0.8415   0.8822   1.0722   1.1470
     1.2227   1.3978   1.8541   1.9057   1.9135   2.1390   2.2029   2.4265
     2.5417   2.7084   2.7511   3.0692   3.1858   3.3833   3.4332   3.5320
     3.7144   3.7791   3.9739   4.0921   4.1211   4.1962   4.2999   4.6529

          k = 0.0606 0.1042 0.0000 ( 30150 PWs)   bands (ev):

   -76.8059 -76.7921 -76.2631 -76.2494 -76.2099 -76.1963 -59.2002 -59.1500
   -59.0741 -59.0288 -59.0250 -58.9792 -44.7203 -44.7147 -44.7054 -44.6414
   -44.6277 -44.5645 -44.1896 -44.1835 -44.1762 -44.1434 -44.1307 -44.1182
   -44.0607 -44.0453 -44.0336 -43.9971 -43.9826 -43.9694 -33.5037 -33.4483
   -33.4463 -33.2706 -33.2135 -33.1922 -33.1753 -33.1678 -33.1239 -33.1210
   -33.1034 -33.0762 -33.0546 -33.0196 -32.8052 -32.7733 -32.7637 -32.7538
    -2.4062  -2.3183  -2.2422  -1.9973  -1.9176  -1.8819  -1.7964  -1.7192
    -1.6811  -1.6343  -1.5854  -1.5847  -1.4391  -1.4134  -1.2101  -1.0036
    -0.9002  -0.7760  -0.5918  -0.5567  -0.4048  -0.4043  -0.3428  -0.3347
    -0.2683  -0.2424  -0.2275  -0.0065   0.1019   0.2318   0.2918   0.3831
     0.4610   0.4859   0.7191   0.7489   0.8299   0.8372   0.9992   1.1235
     1.1682   1.4338   1.7980   1.8786   2.0322   2.0591   2.2252   2.4853
     2.5299   2.7202   2.7558   3.1957   3.2199   3.3494   3.4584   3.7103
     3.7679   3.7945   3.9217   4.0877   4.1128   4.1530   4.2354   4.2667

          k = 0.0606 0.1216 0.0000 ( 30162 PWs)   bands (ev):

   -76.8059 -76.7921 -76.2631 -76.2494 -76.2099 -76.1963 -59.2002 -59.1500
   -59.0740 -59.0288 -59.0250 -58.9792 -44.7204 -44.7149 -44.7054 -44.6417
   -44.6277 -44.5645 -44.1899 -44.1837 -44.1762 -44.1437 -44.1307 -44.1183
   -44.0606 -44.0453 -44.0336 -43.9971 -43.9826 -43.9694 -33.5030 -33.4483
   -33.4456 -33.2695 -33.2137 -33.1919 -33.1748 -33.1681 -33.1240 -33.1207
   -33.1027 -33.0758 -33.0543 -33.0196 -32.8052 -32.7733 -32.7637 -32.7539
    -2.6331  -2.3762  -2.1477  -2.0842  -1.9983  -1.9652  -1.8735  -1.8060
    -1.7302  -1.6594  -1.6301  -1.5197  -1.3614  -1.3135  -1.1685  -1.0837
    -0.9043  -0.8456  -0.7425  -0.6754  -0.4560  -0.3780  -0.2729  -0.2518
    -0.1860  -0.0673  -0.0671   0.0260   0.2003   0.2332   0.2384   0.4439
     0.4983   0.5941   0.7156   0.7693   0.8415   0.8822   1.0722   1.1470
     1.2227   1.3978   1.8541   1.9057   1.9135   2.1390   2.2029   2.4265
     2.5417   2.7084   2.7511   3.0692   3.1858   3.3833   3.4332   3.5320
     3.7144   3.7791   3.9739   4.0921   4.1211   4.1962   4.2999   4.6530

          k = 0.0606-0.0695 0.0000 ( 30152 PWs)   bands (ev):

   -76.8059 -76.7921 -76.2631 -76.2494 -76.2100 -76.1963 -59.2001 -59.1499
   -59.0740 -59.0286 -59.0250 -58.9793 -44.7208 -44.7153 -44.7053 -44.6425
   -44.6276 -44.5643 -44.1908 -44.1842 -44.1760 -44.1447 -44.1307 -44.1187
   -44.0605 -44.0452 -44.0335 -43.9972 -43.9826 -43.9693 -33.5009 -33.4479
   -33.4441 -33.2666 -33.2144 -33.1911 -33.1734 -33.1689 -33.1241 -33.1197
   -33.1009 -33.0746 -33.0536 -33.0199 -32.8049 -32.7734 -32.7637 -32.7541
    -2.9521  -2.5169  -2.2272  -2.2234  -2.1620  -2.0595  -2.0344  -1.9281
    -1.8357  -1.7349  -1.6767  -1.6177  -1.3687  -1.2797  -1.2087  -1.1060
    -0.9092  -0.8201  -0.8052  -0.5765  -0.4890  -0.4773  -0.2854  -0.1457
    -0.0855   0.0950   0.0974   0.1659   0.1745   0.2569   0.4437   0.6175
     0.6469   0.7325   0.7803   0.8821   0.9188   1.0765   1.1376   1.2466
     1.3658   1.4104   1.6854   1.9744   2.0373   2.1484   2.2541   2.3157
     2.5085   2.7048   2.7525   2.9317   3.1884   3.2894   3.3974   3.5507
     3.6930   3.7633   4.0268   4.0539   4.1471   4.2942   4.4854   4.8289

          k = 0.0606-0.0521 0.0000 ( 30167 PWs)   bands (ev):

   -76.8059 -76.7921 -76.2631 -76.2494 -76.2100 -76.1963 -59.2000 -59.1498
   -59.0739 -59.0284 -59.0251 -58.9794 -44.7214 -44.7159 -44.7053 -44.6435
   -44.6276 -44.5642 -44.1921 -44.1848 -44.1759 -44.1461 -44.1306 -44.1192
   -44.0603 -44.0452 -44.0333 -43.9974 -43.9826 -43.9691 -33.4980 -33.4469
   -33.4425 -33.2624 -33.2152 -33.1900 -33.1715 -33.1702 -33.1244 -33.1183
   -33.0983 -33.0731 -33.0526 -33.0202 -32.8046 -32.7736 -32.7637 -32.7544
    -3.2405  -2.6647  -2.3747  -2.3610  -2.3153  -2.2190  -2.0917  -2.0663
    -1.9250  -1.9019  -1.8382  -1.8289  -1.5195  -1.2804  -1.2415  -1.0489
    -0.8593  -0.8050  -0.8014  -0.6984  -0.3976  -0.3903  -0.2170  -0.1109
    -0.0451   0.0680   0.1817   0.1916   0.2846   0.2967   0.5397   0.7486
[...]
     2.7539   2.8057   2.8279   2.9571   3.0927   3.2532   3.3011   3.5323
     3.5903   3.7676   3.7807   4.0301   4.1188   4.2222   4.2816   4.5930

          k = 0.0757 0.1303 0.0000 ( 30169 PWs)   bands (ev):

   -76.8025 -76.7954 -76.2598 -76.2527 -76.2067 -76.1996 -59.1881 -59.1620
   -59.0623 -59.0368 -59.0169 -58.9911 -44.7169 -44.7095 -44.6788 -44.6385
   -44.6318 -44.6014 -44.1869 -44.1807 -44.1475 -44.1408 -44.1348 -44.0827
   -44.0706 -44.0566 -44.0488 -44.0061 -43.9935 -43.9862 -33.4882 -33.4577
   -33.3462 -33.2558 -33.2241 -33.1582 -33.1359 -33.1246 -33.1075 -33.0939
   -33.0892 -33.0842 -33.0751 -33.0632 -32.8753 -32.8560 -32.7948 -32.7733
    -2.6559  -2.6472  -2.1354  -2.1341  -2.0543  -2.0506  -1.9110  -1.7733
    -1.7151  -1.7130  -1.6829  -1.4444  -1.3635  -1.3355  -1.1085  -1.1036
    -1.0709  -0.9749  -0.6279  -0.6157  -0.5248  -0.3364  -0.2322  -0.2088
    -0.1503  -0.0305   0.0069   0.0787   0.1766   0.2265   0.2902   0.3223
     0.6098   0.6134   0.7024   0.7056   0.9648   1.0922   1.1924   1.2468
     1.2836   1.6445   1.8480   1.8890   2.0520   2.2179   2.2683   2.6158
     2.6702   2.7121   2.7928   2.9223   3.0193   3.1260   3.2999   3.3645
     3.4881   3.5678   3.7206   3.9376   4.1564   4.3024   4.4449   4.6815

          k = 0.0757-0.0608 0.0000 ( 30166 PWs)   bands (ev):

   -76.8026 -76.7954 -76.2598 -76.2527 -76.2067 -76.1996 -59.1880 -59.1620
   -59.0622 -59.0369 -59.0167 -58.9912 -44.7173 -44.7094 -44.6793 -44.6393
   -44.6315 -44.6011 -44.1877 -44.1803 -44.1479 -44.1418 -44.1344 -44.0831
   -44.0703 -44.0565 -44.0488 -44.0058 -43.9936 -43.9861 -33.4864 -33.4580
   -33.3448 -33.2528 -33.2255 -33.1590 -33.1357 -33.1249 -33.1070 -33.0939
   -33.0878 -33.0829 -33.0741 -33.0626 -32.8758 -32.8566 -32.7945 -32.7734
    -2.9024  -2.6860  -2.2313  -2.2236  -2.1914  -2.1191  -1.9172  -1.8490
    -1.8046  -1.7526  -1.6909  -1.6109  -1.3281  -1.2638  -1.2393  -1.1799
    -0.9461  -0.8614  -0.6416  -0.5849  -0.5389  -0.4850  -0.2000  -0.0972
    -0.0621   0.0539   0.0748   0.1628   0.1922   0.3226   0.4065   0.4912
     0.5983   0.7171   0.7840   0.8905   1.0220   1.0478   1.1934   1.3599
     1.4553   1.5190   1.7385   1.9855   2.1280   2.2796   2.3560   2.3840
     2.5675   2.6870   2.7831   2.8818   2.9495   3.1483   3.1534   3.2913
     3.4410   3.6189   3.6823   3.8682   4.2679   4.3819   4.6225   4.7310

          k = 0.0757-0.0434 0.0000 ( 30178 PWs)   bands (ev):

   -76.8026 -76.7954 -76.2598 -76.2527 -76.2067 -76.1996 -59.1879 -59.1620
   -59.0621 -59.0369 -59.0166 -58.9913 -44.7178 -44.7092 -44.6798 -44.6401
   -44.6312 -44.6009 -44.1888 -44.1799 -44.1484 -44.1429 -44.1340 -44.0836
   -44.0701 -44.0564 -44.0488 -44.0056 -43.9937 -43.9861 -33.4843 -33.4582
   -33.3432 -33.2493 -33.2272 -33.1603 -33.1356 -33.1252 -33.1064 -33.0929
   -33.0862 -33.0819 -33.0727 -33.0624 -32.8763 -32.8574 -32.7941 -32.7736
    -3.1003  -2.7000  -2.3168  -2.3103  -2.2717  -2.1799  -1.9655  -1.9173
    -1.8912  -1.8093  -1.8010  -1.7529  -1.4695  -1.2316  -1.2139  -1.1443
    -0.8903  -0.7373  -0.7189  -0.6908  -0.4903  -0.4742  -0.1746  -0.0939
    -0.0227   0.0610   0.1137   0.1535   0.2011   0.3200   0.4290   0.6248
     0.6967   0.8237   0.8634   0.9584   1.0774   1.2124   1.2417   1.4750
     1.5586   1.6977   1.7613   2.1281   2.1309   2.1712   2.2607   2.5294
     2.5350   2.6917   2.8055   2.9573   3.0234   3.1008   3.2052   3.3112
     3.4566   3.6559   3.7150   3.8374   4.3524   4.4038   4.7017   4.7052

          k = 0.0757-0.0261 0.0000 ( 30169 PWs)   bands (ev):

   -76.8026 -76.7954 -76.2598 -76.2527 -76.2067 -76.1996 -59.1878 -59.1619
   -59.0620 -59.0370 -59.0164 -58.9914 -44.7181 -44.7091 -44.6802 -44.6408
   -44.6310 -44.6006 -44.1896 -44.1795 -44.1488 -44.1439 -44.1336 -44.0841
   -44.0698 -44.0563 -44.0488 -44.0054 -43.9938 -43.9860 -33.4824 -33.4584
   -33.3417 -33.2462 -33.2288 -33.1614 -33.1355 -33.1255 -33.1057 -33.0914
   -33.0847 -33.0816 -33.0711 -33.0628 -32.8768 -32.8581 -32.7938 -32.7737
    -3.2363  -2.6665  -2.3795  -2.3600  -2.3238  -2.1969  -2.1019  -2.0113
    -1.9278  -1.9166  -1.8624  -1.7992  -1.5181  -1.3010  -1.2277  -1.0849
    -0.8829  -0.7950  -0.7396  -0.6942  -0.4602  -0.3910  -0.1765  -0.1280
    -0.0836   0.0784   0.1282   0.1456   0.1708   0.2558   0.4156   0.6317
     0.7827   0.8279   0.9785   0.9968   1.0529   1.3634   1.5084   1.6012
     1.7143   1.7429   1.9935   2.0192   2.1258   2.2275   2.2529   2.5634
     2.5653   2.7933   2.8373   2.9458   3.1424   3.2892   3.4266   3.4467
     3.5353   3.7076   3.8578   3.8820   4.3640   4.3783   4.5768   4.6889

          k = 0.0757-0.0087 0.0000 ( 30203 PWs)   bands (ev):

   -76.8026 -76.7954 -76.2598 -76.2527 -76.2067 -76.1996 -59.1878 -59.1620
   -59.0620 -59.0371 -59.0164 -58.9915 -44.7184 -44.7090 -44.6804 -44.6412
   -44.6308 -44.6005 -44.1901 -44.1793 -44.1491 -44.1444 -44.1333 -44.0843
   -44.0697 -44.0562 -44.0488 -44.0053 -43.9938 -43.9860 -33.4814 -33.4585
   -33.3408 -33.2443 -33.2297 -33.1622 -33.1354 -33.1257 -33.1053 -33.0901
   -33.0839 -33.0818 -33.0699 -33.0634 -32.8771 -32.8585 -32.7936 -32.7738
    -3.3052  -2.5793  -2.4547  -2.4181  -2.3153  -2.2030  -2.1854  -2.0761
    -1.9864  -1.9437  -1.9135  -1.7961  -1.4726  -1.3556  -1.3458  -1.0638
    -0.8971  -0.7714  -0.7306  -0.6755  -0.4587  -0.3469  -0.2922  -0.1417
    -0.0587   0.0927   0.1283   0.1303   0.1326   0.1832   0.4606   0.5957
     0.7586   0.8278   1.0443   1.0526   1.0918   1.4247   1.6512   1.6930
     1.8169   1.8762   1.9791   2.0815   2.0879   2.2429   2.2464   2.5334
     2.5867   2.8236   2.8764   2.9986   3.1697   3.3565   3.4835   3.6825
     3.7400   3.9191   4.0549   4.1948   4.3067   4.3553   4.5998   4.6177

          k = 0.0757 0.0087 0.0000 ( 30203 PWs)   bands (ev):

   -76.8026 -76.7954 -76.2598 -76.2527 -76.2067 -76.1996 -59.1878 -59.1620
   -59.0620 -59.0371 -59.0164 -58.9915 -44.7184 -44.7090 -44.6804 -44.6412
   -44.6308 -44.6005 -44.1901 -44.1793 -44.1491 -44.1444 -44.1333 -44.0843
   -44.0697 -44.0562 -44.0488 -44.0053 -43.9938 -43.9860 -33.4814 -33.4585
   -33.3408 -33.2443 -33.2297 -33.1622 -33.1354 -33.1257 -33.1053 -33.0901
   -33.0839 -33.0818 -33.0699 -33.0634 -32.8771 -32.8585 -32.7936 -32.7738
    -3.3052  -2.5793  -2.4547  -2.4181  -2.3153  -2.2030  -2.1854  -2.0761
    -1.9864  -1.9437  -1.9135  -1.7961  -1.4726  -1.3556  -1.3458  -1.0638
    -0.8971  -0.7714  -0.7306  -0.6755  -0.4587  -0.3469  -0.2922  -0.1417
    -0.0587   0.0927   0.1283   0.1303   0.1326   0.1832   0.4606   0.5957
     0.7586   0.8278   1.0443   1.0526   1.0918   1.4247   1.6512   1.6930
     1.8169   1.8762   1.9791   2.0815   2.0879   2.2429   2.2464   2.5334
     2.5867   2.8236   2.8764   2.9986   3.1697   3.3565   3.4835   3.6825
     3.7400   3.9191   4.0549   4.1948   4.3067   4.3553   4.5998   4.6177

          k = 0.0757 0.0261 0.0000 ( 30169 PWs)   bands (ev):

   -76.8026 -76.7954 -76.2598 -76.2527 -76.2067 -76.1996 -59.1878 -59.1619
   -59.0620 -59.0370 -59.0164 -58.9914 -44.7181 -44.7091 -44.6802 -44.6408
   -44.6310 -44.6006 -44.1896 -44.1795 -44.1488 -44.1439 -44.1336 -44.0841
   -44.0698 -44.0563 -44.0488 -44.0054 -43.9938 -43.9860 -33.4824 -33.4584
   -33.3417 -33.2462 -33.2288 -33.1614 -33.1355 -33.1255 -33.1057 -33.0914
   -33.0847 -33.0816 -33.0711 -33.0628 -32.8768 -32.8581 -32.7938 -32.7737
    -3.2363  -2.6665  -2.3795  -2.3600  -2.3238  -2.1969  -2.1019  -2.0113
    -1.9278  -1.9166  -1.8624  -1.7992  -1.5181  -1.3010  -1.2277  -1.0849
    -0.8829  -0.7950  -0.7396  -0.6942  -0.4602  -0.3910  -0.1765  -0.1280
    -0.0836   0.0784   0.1282   0.1456   0.1708   0.2558   0.4156   0.6317
     0.7827   0.8279   0.9785   0.9968   1.0529   1.3634   1.5084   1.6012
     1.7143   1.7429   1.9935   2.0192   2.1258   2.2275   2.2529   2.5634
     2.5653   2.7933   2.8373   2.9458   3.1424   3.2892   3.4266   3.4467
     3.5353   3.7076   3.8578   3.8820   4.3640   4.3783   4.5768   4.6889

          k =-0.0909-0.0521 0.0000 ( 30156 PWs)   bands (ev):

   -76.7990 -76.7990 -76.2563 -76.2563 -76.2031 -76.2031 -59.1750 -59.1749
   -59.0499 -59.0492 -59.0040 -59.0039 -44.7134 -44.7134 -44.6406 -44.6406
   -44.6353 -44.6353 -44.1842 -44.1842 -44.1383 -44.1383 -44.1092 -44.1092
   -44.0528 -44.0528 -44.0445 -44.0445 -43.9899 -43.9899 -33.4718 -33.4716
   -33.2418 -33.2417 -33.2322 -33.2321 -33.1475 -33.1469 -33.0961 -33.0957
   -33.0757 -33.0754 -32.9845 -32.9838 -32.9654 -32.9653 -32.7841 -32.7838
    -2.8156  -2.8156  -2.2435  -2.2435  -2.1647  -2.1647  -1.8588  -1.8588
    -1.7620  -1.7620  -1.6396  -1.6396  -1.2878  -1.2877  -1.2406  -1.2406
    -0.9161  -0.9160  -0.5924  -0.5924  -0.5018  -0.5017  -0.1186  -0.1186
     0.0270   0.0270   0.1378   0.1378   0.2298   0.2298   0.3686   0.3686
     0.5962   0.5962   0.9122   0.9123   1.0656   1.0656   1.3189   1.3190
     1.5001   1.5001   1.9107   1.9108   2.2617   2.2618   2.5339   2.5340
     2.5879   2.5880   2.7128   2.7128   2.8714   2.8715   3.0913   3.0914
     3.5231   3.5232   3.7088   3.7089   4.3765   4.3766   4.7005   4.7006

          k =-0.0909-0.0347 0.0000 ( 30165 PWs)   bands (ev):

   -76.7990 -76.7990 -76.2563 -76.2562 -76.2031 -76.2031 -59.1750 -59.1749
   -59.0499 -59.0492 -59.0041 -59.0038 -44.7137 -44.7131 -44.6409 -44.6402
   -44.6359 -44.6348 -44.1849 -44.1835 -44.1391 -44.1375 -44.1096 -44.1089
   -44.0529 -44.0526 -44.0448 -44.0442 -43.9900 -43.9898 -33.4728 -33.4706
   -33.2429 -33.2402 -33.2325 -33.2323 -33.1478 -33.1467 -33.0961 -33.0956
   -33.0764 -33.0747 -32.9850 -32.9833 -32.9665 -32.9643 -32.7842 -32.7837
    -2.8983  -2.6895  -2.2428  -2.2323  -2.1681  -2.1228  -1.9096  -1.8251
    -1.8062  -1.7322  -1.7182  -1.5974  -1.3263  -1.2752  -1.2395  -1.2012
    -0.9811  -0.8457  -0.6421  -0.5645  -0.5450  -0.4633  -0.1889  -0.1074
     0.0228   0.0269   0.1037   0.1302   0.1516   0.2542   0.2999   0.3570
     0.4705   0.6931   0.8422   0.8943   1.0735   1.2278   1.2968   1.4020
     1.4035   1.6939   1.7908   2.0161   2.2149   2.2860   2.4826   2.4939
     2.5255   2.6984   2.7008   2.8510   2.9239   3.0151   3.0358   3.2617
     3.5054   3.5548   3.6930   3.7848   4.3113   4.3757   4.5936   4.6981

          k =-0.0909-0.0174 0.0000 ( 30189 PWs)   bands (ev):

   -76.7990 -76.7990 -76.2563 -76.2562 -76.2031 -76.2031 -59.1751 -59.1749
   -59.0499 -59.0492 -59.0042 -59.0037 -44.7139 -44.7129 -44.6410 -44.6398
   -44.6364 -44.6345 -44.1853 -44.1830 -44.1396 -44.1369 -44.1099 -44.1086
   -44.0530 -44.0526 -44.0451 -44.0440 -43.9901 -43.9898 -33.4737 -33.4697
   -33.2435 -33.2386 -33.2331 -33.2327 -33.1481 -33.1464 -33.0959 -33.0955
   -33.0769 -33.0741 -32.9856 -32.9829 -32.9674 -32.9636 -32.7844 -32.7835
    -2.9429  -2.5232  -2.2384  -2.2205  -2.1849  -2.0194  -1.9955  -1.8892
    -1.8235  -1.7424  -1.7037  -1.5876  -1.3675  -1.2936  -1.2138  -1.2086
    -0.8883  -0.8639  -0.7361  -0.5502  -0.5193  -0.4421  -0.2439  -0.2370
    -0.0284   0.0052   0.0380   0.0749   0.1298   0.2250   0.2802   0.3395
     0.3995   0.6414   0.8384   0.9044   1.1279   1.3112   1.3254   1.4337
     1.4943   1.7491   1.8936   2.1037   2.1357   2.2710   2.4008   2.4487
     2.5163   2.7027   2.7604   2.9530   3.0530   3.0747   3.3300   3.4606
     3.5976   3.6935   3.7420   3.9781   4.2305   4.3100   4.4152   4.6171

          k =-0.0909 0.0000 0.0000 ( 30180 PWs)   bands (ev):

   -76.7990 -76.7990 -76.2563 -76.2562 -76.2031 -76.2031 -59.1751 -59.1749
   -59.0499 -59.0492 -59.0043 -59.0037 -44.7140 -44.7128 -44.6411 -44.6396
   -44.6366 -44.6344 -44.1855 -44.1828 -44.1398 -44.1367 -44.1100 -44.1085
   -44.0530 -44.0525 -44.0452 -44.0439 -43.9901 -43.9898 -33.4740 -33.4694
   -33.2437 -33.2378 -33.2335 -33.2328 -33.1483 -33.1463 -33.0958 -33.0954
   -33.0771 -33.0739 -32.9859 -32.9827 -32.9678 -32.9633 -32.7845 -32.7835
    -2.9567  -2.3588  -2.3108  -2.2432  -2.1880  -2.0265  -1.9400  -1.9240
    -1.8576  -1.7691  -1.6431  -1.5927  -1.4500  -1.2630  -1.2230  -1.1754
    -0.9428  -0.7768  -0.7498  -0.5551  -0.4913  -0.4201  -0.4011  -0.2486
    -0.0739  -0.0071   0.0278   0.0572   0.1437   0.1566   0.2732   0.3736
     0.4450   0.5200   0.8817   0.9134   1.1417   1.2979   1.3461   1.4688
     1.5329   1.7804   2.0272   2.0751   2.0985   2.2985   2.3120   2.4435
     2.5176   2.6964   2.8016   2.9589   3.0907   3.1188   3.4509   3.4874
     3.7016   3.7764   4.0408   4.1128   4.2645   4.3230   4.4520   4.5632

          k =-0.0909 0.0174 0.0000 ( 30189 PWs)   bands (ev):

   -76.7990 -76.7990 -76.2563 -76.2562 -76.2031 -76.2031 -59.1751 -59.1749
   -59.0499 -59.0492 -59.0042 -59.0037 -44.7139 -44.7129 -44.6410 -44.6398
   -44.6364 -44.6345 -44.1853 -44.1830 -44.1396 -44.1369 -44.1099 -44.1086
   -44.0530 -44.0526 -44.0451 -44.0440 -43.9901 -43.9898 -33.4737 -33.4697
   -33.2435 -33.2386 -33.2331 -33.2327 -33.1481 -33.1464 -33.0959 -33.0955
   -33.0769 -33.0741 -32.9856 -32.9829 -32.9674 -32.9636 -32.7844 -32.7835
    -2.9429  -2.5232  -2.2384  -2.2205  -2.1849  -2.0194  -1.9955  -1.8893
    -1.8235  -1.7424  -1.7037  -1.5876  -1.3675  -1.2936  -1.2138  -1.2086
    -0.8883  -0.8639  -0.7361  -0.5502  -0.5193  -0.4421  -0.2439  -0.2370
    -0.0284   0.0052   0.0380   0.0749   0.1298   0.2250   0.2802   0.3395
     0.3995   0.6414   0.8384   0.9044   1.1279   1.3112   1.3254   1.4337
     1.4943   1.7491   1.8936   2.1037   2.1357   2.2710   2.4008   2.4487
     2.5163   2.7027   2.7604   2.9530   3.0530   3.0747   3.3300   3.4606
     3.5976   3.6935   3.7420   3.9781   4.2305   4.3100   4.4152   4.6171

          k =-0.0909 0.0347 0.0000 ( 30165 PWs)   bands (ev):

   -76.7990 -76.7990 -76.2563 -76.2562 -76.2031 -76.2031 -59.1750 -59.1749
   -59.0499 -59.0492 -59.0041 -59.0038 -44.7137 -44.7131 -44.6409 -44.6402
   -44.6359 -44.6348 -44.1849 -44.1835 -44.1391 -44.1375 -44.1096 -44.1089
   -44.0529 -44.0526 -44.0448 -44.0442 -43.9900 -43.9898 -33.4728 -33.4706
   -33.2429 -33.2402 -33.2325 -33.2323 -33.1478 -33.1467 -33.0961 -33.0956
   -33.0764 -33.0747 -32.9850 -32.9833 -32.9665 -32.9643 -32.7842 -32.7837
    -2.8983  -2.6895  -2.2428  -2.2323  -2.1681  -2.1228  -1.9096  -1.8251
    -1.8062  -1.7322  -1.7182  -1.5974  -1.3263  -1.2752  -1.2395  -1.2012
    -0.9811  -0.8457  -0.6421  -0.5645  -0.5450  -0.4633  -0.1889  -0.1074
     0.0228   0.0269   0.1037   0.1302   0.1516   0.2542   0.2999   0.3570
     0.4705   0.6931   0.8422   0.8943   1.0735   1.2278   1.2968   1.4020
     1.4035   1.6939   1.7908   2.0161   2.2149   2.2860   2.4826   2.4939
     2.5255   2.6984   2.7008   2.8510   2.9239   3.0151   3.0358   3.2617
     3.5054   3.5548   3.6930   3.7848   4.3113   4.3757   4.5936   4.6981

          k =-0.0909-0.1563 0.0000 ( 30156 PWs)   bands (ev):

   -76.7990 -76.7990 -76.2563 -76.2563 -76.2031 -76.2031 -59.1750 -59.1749
   -59.0499 -59.0492 -59.0040 -59.0039 -44.7134 -44.7134 -44.6406 -44.6406
   -44.6353 -44.6353 -44.1842 -44.1842 -44.1383 -44.1383 -44.1092 -44.1092
   -44.0528 -44.0528 -44.0445 -44.0445 -43.9899 -43.9899 -33.4718 -33.4716
   -33.2418 -33.2417 -33.2322 -33.2321 -33.1475 -33.1469 -33.0961 -33.0957
   -33.0757 -33.0754 -32.9845 -32.9838 -32.9654 -32.9653 -32.7841 -32.7838
    -2.8156  -2.8156  -2.2435  -2.2435  -2.1647  -2.1647  -1.8588  -1.8588
    -1.7620  -1.7620  -1.6396  -1.6396  -1.2878  -1.2877  -1.2407  -1.2406
    -0.9161  -0.9160  -0.5924  -0.5924  -0.5018  -0.5017  -0.1186  -0.1186
     0.0270   0.0270   0.1378   0.1378   0.2298   0.2298   0.3686   0.3686
     0.5962   0.5962   0.9122   0.9123   1.0656   1.0656   1.3189   1.3190
     1.5001   1.5001   1.9107   1.9108   2.2617   2.2618   2.5339   2.5340
     2.5879   2.5880   2.7128   2.7128   2.8714   2.8715   3.0913   3.0914
     3.5231   3.5232   3.7088   3.7089   4.3765   4.3766   4.7005   4.7006

     the Fermi energy is     2.2453 ev

!    total energy              =   -2205.67916020 Ry
     estimated scf accuracy    <       0.00000358 Ry
     smearing contrib. (-TS)   =      -0.06467878 Ry
     internal energy E=F+TS    =   -2205.61448142 Ry

     The total energy is F=E-TS. E is the sum of the following terms:
     one-electron contribution =  -19894.41400525 Ry
     hartree contribution      =    9945.13947105 Ry
     xc contribution           =    -305.09700002 Ry
     ewald contribution        =    8048.75705260 Ry
     electric field correction =       0.00000020 Ry

     convergence has been achieved in  15 iterations

     negative rho (up, down):  1.237E-03 0.000E+00

     Forces acting on atoms (cartesian axes, Ry/au):

     atom    1 type  1   force =    -0.00000048    0.00764809    0.02072426
     atom    2 type  1   force =     0.00000027    0.00765418    0.02073164
     atom    3 type  2   force =    -0.00000782   -0.01523758    0.00991082
     atom    4 type  2   force =     0.00000709   -0.01523835    0.00991032
     atom    5 type  1   force =    -0.00000010    0.00517762   -0.01577948
     atom    6 type  1   force =     0.00000036    0.00513587   -0.01582701
     atom    7 type  2   force =    -0.00004440    0.00117681   -0.01461758
     atom    8 type  2   force =     0.00004408    0.00117622   -0.01461796
     atom    9 type  1   force =    -0.00000021    0.00068433   -0.00032995
     atom   10 type  1   force =     0.00000061    0.00068712   -0.00033620
     atom   11 type  2   force =     0.00001234    0.00056844    0.00011563
     atom   12 type  2   force =    -0.00001176    0.00056725    0.00011551

     Total force =     0.051204     Total SCF correction =     0.011642
     SCF correction compared to forces is large: reduce conv_thr to get better values

     Writing output data file ./Mo2Rh2/Mo2Rh2_beef.save/

     init_run     :     64.50s CPU     77.64s WALL (       1 calls)
     electrons    :   3080.82s CPU   3621.72s WALL (       1 calls)
     forces       :     74.18s CPU     78.97s WALL (       1 calls)

     Called by init_run:
     wfcinit      :     54.34s CPU     66.66s WALL (       1 calls)
     potinit      :      7.23s CPU      7.68s WALL (       1 calls)
     hinit0       :      1.82s CPU      1.89s WALL (       1 calls)

     Called by electrons:
     c_bands      :   2796.16s CPU   3257.55s WALL (      15 calls)
     sum_band     :    255.32s CPU    322.80s WALL (      15 calls)
     v_of_rho     :     18.61s CPU     25.70s WALL (      16 calls)
     newd         :     17.02s CPU     21.75s WALL (      16 calls)
     mix_rho      :      0.39s CPU      0.82s WALL (      15 calls)
     vdW_kernel   :      5.68s CPU      5.74s WALL (       1 calls)

     Called by c_bands:
     init_us_2    :      5.72s CPU      5.79s WALL (    2368 calls)
     cegterg      :   2773.93s CPU   3207.69s WALL (    1110 calls)

     Called by *egterg:
     cdiaghg      :    184.16s CPU    195.18s WALL (    4495 calls)
     h_psi        :   1097.18s CPU   1398.78s WALL (    4569 calls)
     s_psi        :    322.37s CPU    322.45s WALL (    4569 calls)
     g_psi        :      1.03s CPU      1.06s WALL (    3385 calls)

     Called by h_psi:
     h_psi:calbec :    335.74s CPU    377.54s WALL (    4569 calls)
     vloc_psi     :    420.69s CPU    680.21s WALL (    4569 calls)
     add_vuspsi   :    333.86s CPU    334.01s WALL (    4569 calls)

     General routines
     calbec       :    545.80s CPU    605.79s WALL (    5975 calls)
     fft          :      7.91s CPU     16.29s WALL (    1067 calls)
     ffts         :      0.04s CPU      0.13s WALL (      31 calls)
     fftw         :    491.94s CPU    793.63s WALL (  707616 calls)
     interpolate  :      0.15s CPU      0.26s WALL (      16 calls)

     Parallel routines
     fft_scatt_xy :     25.25s CPU     38.36s WALL (  708714 calls)
     fft_scatt_yz :    183.86s CPU    399.31s WALL (  708714 calls)

     PWSCF        :  53m55.08s CPU      1h 5m WALL


   This run was terminated on:   0: 7: 0  11Jul2022            

=------------------------------------------------------------------------------=
   JOB DONE.
=------------------------------------------------------------------------------=
