
     Program PWSCF v.6.6 starts on 25Jun2022 at  1:26:51 

     This program is part of the open-source Quantum ESPRESSO suite
     for quantum simulation of materials; please cite
         "P. Giannozzi et al., J. Phys.:Condens. Matter 21 395502 (2009);
         "P. Giannozzi et al., J. Phys.:Condens. Matter 29 465901 (2017);
          URL http://www.quantum-espresso.org", 
     in publications or presentations arising from this work. More details at
     http://www.quantum-espresso.org/quote

     Parallel version (MPI), running on    37 processors

     MPI processes distributed on     1 nodes
     R & G space division:  proc/nbgrp/npool/nimage =      37
     Fft bands division:     nmany     =       1
     Reading input from Mo2Ta2.in
Warning: card &CELL ignored
Warning: card / ignored

     Current dimensions of program PWSCF are:
     Max number of different atomic species (ntypx) = 10
     Max number of k-points (npk) =  40000
     Max angular momentum in pseudopotentials (lmaxx) =  3
     Presently stress not available with electric field and gates

     Message from routine cell_base_init:
     DEPRECATED: use true lattice parameter, not A to a.u. conversion factor
     file Mo.pbe-spn-rrkjus_psl.1.0.0.UPF: wavefunction(s)  4S renormalized
     file Ta.pbe-spfn-rrkjus_psl.1.0.0.UPF: wavefunction(s)  5S 5P renormalized

     **************************************************************************
     Initializing libbeef V0.1.2 with the BEEF-vdW functional.
     Citation: Wellendorff et al., PRB 85, 235149 (2012).
     **************************************************************************


     IMPORTANT: XC functional enforced from input :
     Exchange-correlation= BEEF-VDW
                           (   1   4  43  14   2   0   0)
     Any further DFT definition will be discarded
     Please, verify this is what you really want


     Subspace diagonalization in iterative solution of the eigenvalue problem:
     a serial algorithm will be used

     Found symmetry operation: I + (  0.5000 -0.5000  0.0000)
     This is a supercell, fractional translations are disabled

     Parallelization info
     --------------------
     sticks:   dense  smooth     PW     G-vecs:    dense   smooth      PW
     Min         125      49     14                28895     7295    1096
     Max         125      50     15                28917     7322    1115
     Sum        4625    1829    527              1069771   270355   40735



     bravais-lattice index     =            0
     lattice parameter (alat)  =       1.8897  a.u.
     unit-cell volume          =    4894.5738 (a.u.)^3
     number of atoms/cell      =           12
     number of atomic types    =            2
     number of electrons       =       246.00
     number of Kohn-Sham states=          148
     kinetic-energy cutoff     =      55.1240  Ry
     charge density cutoff     =     551.2396  Ry
     convergence threshold     =      1.0E-05
     mixing beta               =       0.1000
     number of iterations used =           10  plain     mixing
     Exchange-correlation= BEEF-VDW
                           (   1   4  43  14   2   0   0)

     celldm(1)=   1.889726  celldm(2)=   0.000000  celldm(3)=   0.000000
     celldm(4)=   0.000000  celldm(5)=   0.000000  celldm(6)=   0.000000

     crystal axes: (cart. coord. in units of alat)
               a(1) = (   5.596277   0.000000   0.000000 )  
               a(2) = (   1.869520   5.274771   0.000000 )  
               a(3) = (   0.000000   0.000000  24.570588 )  

     reciprocal axes: (cart. coord. in units 2 pi/alat)
               b(1) = (  0.178690 -0.063333  0.000000 )  
               b(2) = (  0.000000  0.189582  0.000000 )  
               b(3) = (  0.000000  0.000000  0.040699 )  


     PseudoPot. # 1 for Mo read from file:
     ../pseudo/Mo.pbe-spn-rrkjus_psl.1.0.0.UPF
     MD5 check sum: 03f09b12e49601d1a456a78ce8b2d514
     Pseudo is Ultrasoft + core correction, Zval = 14.0
     Generated using "atomic" code by A. Dal Corso v.6.3
     Using radial grid of 1229 points,  6 beta functions with: 
                l(1) =   0
                l(2) =   0
                l(3) =   1
                l(4) =   1
                l(5) =   2
                l(6) =   2
     Q(r) pseudized with 0 coefficients 


     PseudoPot. # 2 for Ta read from file:
     ../pseudo/Ta.pbe-spfn-rrkjus_psl.1.0.0.UPF
     MD5 check sum: 39d7d349fe394e56adf8454eb9315fbb
     Pseudo is Ultrasoft + core correction, Zval = 27.0
     Generated using "atomic" code by A. Dal Corso v.6.3
     Using radial grid of 1273 points,  8 beta functions with: 
                l(1) =   0
                l(2) =   0
                l(3) =   1
                l(4) =   1
                l(5) =   2
                l(6) =   2
                l(7) =   3
                l(8) =   3
     Q(r) pseudized with 0 coefficients 


     atomic species   valence    mass     pseudopotential
        Mo            14.00    95.95000     Mo( 1.00)
        Ta            27.00   180.94788     Ta( 1.00)

     No symmetry found



   Cartesian axes

     site n.     atom                  positions (alat units)
         1           Mo  tau(   1) = (   0.0000000   0.0000000  10.0000000  )
         2           Mo  tau(   2) = (   3.7328983   2.6373856  10.0000000  )
         3           Ta  tau(   3) = (   2.7981385   0.0000000  10.0000000  )
         4           Ta  tau(   4) = (   0.9347599   2.6373856  10.0000000  )
         5           Mo  tau(   5) = (   5.5962769   3.9539090  12.2852941  )
         6           Mo  tau(   6) = (   1.8633786   1.3165234  12.2852941  )
         7           Ta  tau(   7) = (   2.7981385   3.9539090  12.2852941  )
         8           Ta  tau(   8) = (   4.6615170   1.3165234  12.2852941  )
         9           Mo  tau(   9) = (   3.7282720   2.6341152  14.5430052  )
        10           Mo  tau(  10) = (   7.4611667   5.2715024  14.5430058  )
        11           Ta  tau(  11) = (   6.5265517   2.6342154  14.4994710  )
        12           Ta  tau(  12) = (   4.6631786   5.2716090  14.4994708  )

     number of k points=    74  Fermi-Dirac smearing, width (Ry)=  0.0100
                       cart. coord. in units 2pi/alat
        k(    1) = (   0.0000000   0.0000000   0.0000000), wk =   0.0138889
        k(    2) = (   0.0000000   0.0157985   0.0000000), wk =   0.0277778
        k(    3) = (   0.0000000   0.0315969   0.0000000), wk =   0.0277778
        k(    4) = (   0.0000000   0.0473954   0.0000000), wk =   0.0277778
        k(    5) = (   0.0000000   0.0631939   0.0000000), wk =   0.0277778
        k(    6) = (   0.0000000   0.0789924   0.0000000), wk =   0.0277778
        k(    7) = (   0.0000000  -0.0947908   0.0000000), wk =   0.0138889
        k(    8) = (   0.0148909  -0.0052777   0.0000000), wk =   0.0277778
        k(    9) = (   0.0148909   0.0105208   0.0000000), wk =   0.0277778
        k(   10) = (   0.0148909   0.0263192   0.0000000), wk =   0.0277778
        k(   11) = (   0.0148909   0.0421177   0.0000000), wk =   0.0277778
        k(   12) = (   0.0148909   0.0579162   0.0000000), wk =   0.0277778
        k(   13) = (   0.0148909   0.0737147   0.0000000), wk =   0.0277778
        k(   14) = (   0.0148909  -0.1000686   0.0000000), wk =   0.0277778
        k(   15) = (   0.0148909  -0.0842701   0.0000000), wk =   0.0277778
        k(   16) = (   0.0148909  -0.0684716   0.0000000), wk =   0.0277778
        k(   17) = (   0.0148909  -0.0526731   0.0000000), wk =   0.0277778
        k(   18) = (   0.0148909  -0.0368747   0.0000000), wk =   0.0277778
        k(   19) = (   0.0148909  -0.0210762   0.0000000), wk =   0.0277778
        k(   20) = (   0.0297817  -0.0105554   0.0000000), wk =   0.0277778
        k(   21) = (   0.0297817   0.0052430   0.0000000), wk =   0.0277778
        k(   22) = (   0.0297817   0.0210415   0.0000000), wk =   0.0277778
        k(   23) = (   0.0297817   0.0368400   0.0000000), wk =   0.0277778
        k(   24) = (   0.0297817   0.0526385   0.0000000), wk =   0.0277778
        k(   25) = (   0.0297817   0.0684369   0.0000000), wk =   0.0277778
        k(   26) = (   0.0297817  -0.1053463   0.0000000), wk =   0.0277778
        k(   27) = (   0.0297817  -0.0895478   0.0000000), wk =   0.0277778
        k(   28) = (   0.0297817  -0.0737493   0.0000000), wk =   0.0277778
        k(   29) = (   0.0297817  -0.0579509   0.0000000), wk =   0.0277778
        k(   30) = (   0.0297817  -0.0421524   0.0000000), wk =   0.0277778
        k(   31) = (   0.0297817  -0.0263539   0.0000000), wk =   0.0277778
        k(   32) = (   0.0446726  -0.0158331   0.0000000), wk =   0.0277778
        k(   33) = (   0.0446726  -0.0000347   0.0000000), wk =   0.0277778
        k(   34) = (   0.0446726   0.0157638   0.0000000), wk =   0.0277778
        k(   35) = (   0.0446726   0.0315623   0.0000000), wk =   0.0277778
        k(   36) = (   0.0446726   0.0473607   0.0000000), wk =   0.0277778
        k(   37) = (   0.0446726   0.0631592   0.0000000), wk =   0.0277778
        k(   38) = (   0.0446726  -0.1106240   0.0000000), wk =   0.0277778
        k(   39) = (   0.0446726  -0.0948255   0.0000000), wk =   0.0277778
        k(   40) = (   0.0446726  -0.0790270   0.0000000), wk =   0.0277778
        k(   41) = (   0.0446726  -0.0632286   0.0000000), wk =   0.0277778
        k(   42) = (   0.0446726  -0.0474301   0.0000000), wk =   0.0277778
        k(   43) = (   0.0446726  -0.0316316   0.0000000), wk =   0.0277778
        k(   44) = (   0.0595634  -0.0211109   0.0000000), wk =   0.0277778
        k(   45) = (   0.0595634  -0.0053124   0.0000000), wk =   0.0277778
        k(   46) = (   0.0595634   0.0104861   0.0000000), wk =   0.0277778
        k(   47) = (   0.0595634   0.0262846   0.0000000), wk =   0.0277778
        k(   48) = (   0.0595634   0.0420830   0.0000000), wk =   0.0277778
        k(   49) = (   0.0595634   0.0578815   0.0000000), wk =   0.0277778
        k(   50) = (   0.0595634  -0.1159017   0.0000000), wk =   0.0277778
        k(   51) = (   0.0595634  -0.1001032   0.0000000), wk =   0.0277778
        k(   52) = (   0.0595634  -0.0843048   0.0000000), wk =   0.0277778
        k(   53) = (   0.0595634  -0.0685063   0.0000000), wk =   0.0277778
        k(   54) = (   0.0595634  -0.0527078   0.0000000), wk =   0.0277778
        k(   55) = (   0.0595634  -0.0369093   0.0000000), wk =   0.0277778
        k(   56) = (   0.0744543  -0.0263886   0.0000000), wk =   0.0277778
        k(   57) = (   0.0744543  -0.0105901   0.0000000), wk =   0.0277778
        k(   58) = (   0.0744543   0.0052084   0.0000000), wk =   0.0277778
        k(   59) = (   0.0744543   0.0210068   0.0000000), wk =   0.0277778
        k(   60) = (   0.0744543   0.0368053   0.0000000), wk =   0.0277778
        k(   61) = (   0.0744543   0.0526038   0.0000000), wk =   0.0277778
        k(   62) = (   0.0744543  -0.1211794   0.0000000), wk =   0.0277778
        k(   63) = (   0.0744543  -0.1053810   0.0000000), wk =   0.0277778
        k(   64) = (   0.0744543  -0.0895825   0.0000000), wk =   0.0277778
        k(   65) = (   0.0744543  -0.0737840   0.0000000), wk =   0.0277778
        k(   66) = (   0.0744543  -0.0579855   0.0000000), wk =   0.0277778
        k(   67) = (   0.0744543  -0.0421871   0.0000000), wk =   0.0277778
        k(   68) = (  -0.0893451   0.0316663   0.0000000), wk =   0.0138889
        k(   69) = (  -0.0893451   0.0474648   0.0000000), wk =   0.0277778
        k(   70) = (  -0.0893451   0.0632632   0.0000000), wk =   0.0277778
        k(   71) = (  -0.0893451   0.0790617   0.0000000), wk =   0.0277778
        k(   72) = (  -0.0893451   0.0948602   0.0000000), wk =   0.0277778
        k(   73) = (  -0.0893451   0.1106587   0.0000000), wk =   0.0277778
        k(   74) = (  -0.0893451  -0.0631245   0.0000000), wk =   0.0138889

     Dense  grid:  1069771 G-vectors     FFT dimensions: (  80,  80, 360)

     Smooth grid:   270355 G-vectors     FFT dimensions: (  50,  50, 225)

     Estimated max dynamical RAM per process >     439.17 MB

     Estimated total dynamical RAM >      15.87 GB

     Initial potential from superposition of free atoms

     starting charge  245.98965, renormalised to  246.00000

     negative rho (up, down):  4.472E-04 0.000E+00


     %%%%%%%%%%%%%%%%%%%%%%%%%%%%%%%%%%%%%%%%%%%%%%%%%%%%%%%%%%%%%%%%%%%%%%%%
     %                                                                      %
     % You are using vdW-DF, which was implemented by the Thonhauser group. %
     % Please cite the following two papers that made this development      %
     % possible and the two reviews that describe the various versions:     %
     %                                                                      %
     %   T. Thonhauser et al., PRL 115, 136402 (2015).                      %
     %   T. Thonhauser et al., PRB 76, 125112 (2007).                       %
     %   K. Berland et al., Rep. Prog. Phys. 78, 066501 (2015).             %
     %   D.C. Langreth et al., J. Phys.: Condens. Matter 21, 084203 (2009). %
     %                                                                      %
     %                                                                      %
     % If you are calculating the stress with vdW-DF, please also cite:     %
     %                                                                      %
     %   R. Sabatini et al., J. Phys.: Condens. Matter 24, 424209 (2012).   %
     %                                                                      %
     %%%%%%%%%%%%%%%%%%%%%%%%%%%%%%%%%%%%%%%%%%%%%%%%%%%%%%%%%%%%%%%%%%%%%%%%



     Adding external electric field

     Computed dipole along edir(3) : 
        Dipole                0.0000 Ry au,          0.0001 Debye
        Dipole field          0.0000 Ry au, 

        Potential amp.       -0.0000 Ry
        Total length         45.2709 bohr

     Starting wfcs are  162 randomized atomic wfcs

     total cpu time spent up to now is      327.6 secs

     Self-consistent Calculation

     iteration #  1     ecut=    55.12 Ry     beta= 0.10
     Davidson diagonalization with overlap
     ethr =  1.00E-02,  avg # of iterations =  2.5

     negative rho (up, down):  3.882E-04 0.000E+00

     Adding external electric field

     Computed dipole along edir(3) : 
        Dipole               -0.1529 Ry au,         -0.3886 Debye
        Dipole field         -0.0004 Ry au, 

        Potential amp.        0.0355 Ry
        Total length         45.2709 bohr


     total cpu time spent up to now is     1099.1 secs

     total energy              =   -4932.42159438 Ry
     estimated scf accuracy    <       6.70717071 Ry

     iteration #  2     ecut=    55.12 Ry     beta= 0.10
     Davidson diagonalization with overlap
     ethr =  2.73E-03,  avg # of iterations =  2.3

     negative rho (up, down):  3.806E-04 0.000E+00

     Adding external electric field

     Computed dipole along edir(3) : 
        Dipole                0.6518 Ry au,          1.6567 Debye
        Dipole field          0.0017 Ry au, 

        Potential amp.       -0.1515 Ry
        Total length         45.2709 bohr


     total cpu time spent up to now is     1861.4 secs

     total energy              =   -4932.70698113 Ry
     estimated scf accuracy    <       1.87210061 Ry

     iteration #  3     ecut=    55.12 Ry     beta= 0.10
     Davidson diagonalization with overlap
     ethr =  7.61E-04,  avg # of iterations =  3.5

     negative rho (up, down):  4.033E-04 0.000E+00

     Adding external electric field

     Computed dipole along edir(3) : 
        Dipole               -0.0617 Ry au,         -0.1569 Debye
        Dipole field         -0.0002 Ry au, 

        Potential amp.        0.0144 Ry
        Total length         45.2709 bohr


     total cpu time spent up to now is     2312.0 secs

     total energy              =   -4932.52202515 Ry
     estimated scf accuracy    <      22.97596920 Ry

     iteration #  4     ecut=    55.12 Ry     beta= 0.10
     Davidson diagonalization with overlap
     ethr =  7.61E-04,  avg # of iterations =  1.4

     negative rho (up, down):  4.063E-04 0.000E+00

     Adding external electric field

     Computed dipole along edir(3) : 
        Dipole               -0.0077 Ry au,         -0.0196 Debye
        Dipole field         -0.0000 Ry au, 

        Potential amp.        0.0018 Ry
        Total length         45.2709 bohr


     total cpu time spent up to now is     2809.0 secs

     total energy              =   -4932.81683535 Ry
     estimated scf accuracy    <       0.46027828 Ry

     iteration #  5     ecut=    55.12 Ry     beta= 0.10
     Davidson diagonalization with overlap
     ethr =  1.87E-04,  avg # of iterations =  2.7

     negative rho (up, down):  4.469E-04 0.000E+00

     Adding external electric field

     Computed dipole along edir(3) : 
        Dipole                0.0098 Ry au,          0.0249 Debye
        Dipole field          0.0000 Ry au, 

        Potential amp.       -0.0023 Ry
        Total length         45.2709 bohr


     total cpu time spent up to now is     3249.6 secs

     total energy              =   -4932.78916436 Ry
     estimated scf accuracy    <       0.16199763 Ry

     iteration #  6     ecut=    55.12 Ry     beta= 0.10
     Davidson diagonalization with overlap
     ethr =  6.59E-05,  avg # of iterations =  8.3

     negative rho (up, down):  5.477E-04 0.000E+00

     Adding external electric field

     Computed dipole along edir(3) : 
        Dipole                0.0041 Ry au,          0.0103 Debye
        Dipole field          0.0000 Ry au, 

        Potential amp.       -0.0009 Ry
        Total length         45.2709 bohr


     total cpu time spent up to now is     3829.0 secs

     total energy              =   -4932.80227369 Ry
     estimated scf accuracy    <       0.04389686 Ry

     iteration #  7     ecut=    55.12 Ry     beta= 0.10
     Davidson diagonalization with overlap
     ethr =  1.78E-05,  avg # of iterations = 10.0

     negative rho (up, down):  5.910E-04 0.000E+00

     Adding external electric field

     Computed dipole along edir(3) : 
        Dipole                0.0068 Ry au,          0.0174 Debye
        Dipole field          0.0000 Ry au, 

        Potential amp.       -0.0016 Ry
        Total length         45.2709 bohr


     total cpu time spent up to now is     4613.1 secs

     total energy              =   -4932.80388829 Ry
     estimated scf accuracy    <       0.05155648 Ry

     iteration #  8     ecut=    55.12 Ry     beta= 0.10
     Davidson diagonalization with overlap
     ethr =  1.78E-05,  avg # of iterations =  2.0

     negative rho (up, down):  6.253E-04 0.000E+00

     Adding external electric field

     Computed dipole along edir(3) : 
        Dipole                0.0087 Ry au,          0.0222 Debye
        Dipole field          0.0000 Ry au, 

        Potential amp.       -0.0020 Ry
        Total length         45.2709 bohr


     total cpu time spent up to now is     5106.2 secs

     total energy              =   -4932.80907658 Ry
     estimated scf accuracy    <       0.00567467 Ry

     iteration #  9     ecut=    55.12 Ry     beta= 0.10
     Davidson diagonalization with overlap
     c_bands:  1 eigenvalues not converged
     ethr =  2.31E-06,  avg # of iterations =  9.7

     negative rho (up, down):  6.384E-04 0.000E+00

     Adding external electric field

     Computed dipole along edir(3) : 
        Dipole                0.0085 Ry au,          0.0217 Debye
        Dipole field          0.0000 Ry au, 

        Potential amp.       -0.0020 Ry
        Total length         45.2709 bohr


     total cpu time spent up to now is     5945.8 secs

     total energy              =   -4932.80899182 Ry
     estimated scf accuracy    <       0.00559824 Ry

     iteration # 10     ecut=    55.12 Ry     beta= 0.10
     Davidson diagonalization with overlap
     ethr =  2.28E-06,  avg # of iterations =  1.8

     negative rho (up, down):  6.427E-04 0.000E+00

     Adding external electric field

     Computed dipole along edir(3) : 
        Dipole                0.0110 Ry au,          0.0280 Debye
        Dipole field          0.0000 Ry au, 

        Potential amp.       -0.0026 Ry
        Total length         45.2709 bohr


     total cpu time spent up to now is     7005.8 secs

     total energy              =   -4932.80947889 Ry
     estimated scf accuracy    <       0.00075858 Ry

     iteration # 11     ecut=    55.12 Ry     beta= 0.10
     Davidson diagonalization with overlap
     ethr =  3.08E-07,  avg # of iterations =  3.8

     negative rho (up, down):  6.441E-04 0.000E+00

     Adding external electric field

     Computed dipole along edir(3) : 
        Dipole                0.0077 Ry au,          0.0197 Debye
        Dipole field          0.0000 Ry au, 

        Potential amp.       -0.0018 Ry
        Total length         45.2709 bohr


     total cpu time spent up to now is     7893.8 secs

     total energy              =   -4932.80952000 Ry
     estimated scf accuracy    <       0.00034712 Ry

     iteration # 12     ecut=    55.12 Ry     beta= 0.10
     Davidson diagonalization with overlap
     ethr =  1.41E-07,  avg # of iterations =  3.3

     negative rho (up, down):  6.259E-04 0.000E+00

     Adding external electric field

     Computed dipole along edir(3) : 
        Dipole                0.0089 Ry au,          0.0226 Debye
        Dipole field          0.0000 Ry au, 

        Potential amp.       -0.0021 Ry
        Total length         45.2709 bohr


     total cpu time spent up to now is     9534.0 secs

     total energy              =   -4932.80956216 Ry
     estimated scf accuracy    <       0.00011955 Ry

     iteration # 13     ecut=    55.12 Ry     beta= 0.10
     Davidson diagonalization with overlap
     ethr =  4.86E-08,  avg # of iterations =  2.3

     negative rho (up, down):  6.085E-04 0.000E+00

     Adding external electric field

     Computed dipole along edir(3) : 
        Dipole                0.0093 Ry au,          0.0236 Debye
        Dipole field          0.0000 Ry au, 

        Potential amp.       -0.0022 Ry
        Total length         45.2709 bohr


     total cpu time spent up to now is    11336.1 secs

     total energy              =   -4932.80956568 Ry
     estimated scf accuracy    <       0.00002035 Ry

     iteration # 14     ecut=    55.12 Ry     beta= 0.10
     Davidson diagonalization with overlap
     ethr =  8.27E-09,  avg # of iterations =  5.4

     negative rho (up, down):  5.698E-04 0.000E+00

     Adding external electric field

     Computed dipole along edir(3) : 
        Dipole                0.0156 Ry au,          0.0396 Debye
        Dipole field          0.0000 Ry au, 

        Potential amp.       -0.0036 Ry
        Total length         45.2709 bohr


     total cpu time spent up to now is    12918.5 secs

     End of self-consistent calculation

          k = 0.0000 0.0000 0.0000 ( 33935 PWs)   bands (ev):

   -65.8095 -65.7992 -65.7494 -65.7389 -65.5299 -65.5194 -58.1824 -58.1676
   -58.1339 -58.1214 -58.1203 -58.1079 -32.7710 -32.7343 -32.7241 -32.7108
   -32.6884 -32.6691 -32.5884 -32.5616 -32.5466 -32.4579 -32.3797 -32.3747
   -32.3265 -32.2525 -32.2015 -32.1736 -32.1618 -32.1284 -32.1228 -32.0986
   -31.9694 -31.8118 -31.7912 -31.7867 -31.7390 -31.6969 -31.6705 -31.6169
   -31.6102 -31.5775 -31.5722 -31.5684 -31.5570 -31.5394 -31.5310 -31.4956
   -17.5123 -17.5083 -17.5060 -17.5056 -17.5051 -17.4972 -17.4848 -17.4788
   -17.4744 -17.4720 -17.4433 -17.4394 -17.4380 -17.4376 -17.4374 -17.4349
   -17.4344 -17.4286 -17.4262 -17.4262 -17.4189 -17.4128 -17.4094 -17.4070
   -17.3751 -17.3747 -17.3664 -17.3664 -17.1754 -17.1747 -17.1734 -17.1728
   -17.1718 -17.1659 -17.1628 -17.1614 -17.1602 -17.1596 -17.1578 -17.1523
   -17.1517 -17.1507  -4.2240  -2.6055  -2.1223  -1.8939  -1.6976  -1.5795
    -1.3933  -1.3460  -1.3420  -1.2747  -0.7831  -0.7214  -0.3340   0.3035
     0.3566   0.3778   0.4004   0.4666   0.4672   0.6137   0.6644   0.8411
     1.1789   1.6381   1.8726   1.9262   2.0427   2.0914   2.3676   2.7858
     2.9164   2.9472   3.2352   3.2515   3.5864   4.0401   4.2223   4.3832
     4.5177   4.5286   4.9362   4.9621   4.9985   4.9989   5.0707   5.0936
     5.1752   5.2937   5.3144   5.3749   5.4279   5.4892   5.5993   5.6155
     5.7153   5.7454   6.0071   6.1459

          k = 0.0000 0.0158 0.0000 ( 33907 PWs)   bands (ev):

   -65.8094 -65.7994 -65.7493 -65.7390 -65.5297 -65.5196 -58.1822 -58.1679
   -58.1337 -58.1216 -58.1200 -58.1081 -32.7632 -32.7251 -32.7172 -32.7066
   -32.6807 -32.6606 -32.5804 -32.5551 -32.5359 -32.4518 -32.3812 -32.3775
   -32.3276 -32.2563 -32.2009 -32.1866 -32.1745 -32.1368 -32.1039 -32.0838
   -31.9691 -31.8242 -31.7910 -31.7905 -31.7382 -31.7035 -31.6759 -31.6223
   -31.6100 -31.5812 -31.5789 -31.5764 -31.5594 -31.5479 -31.5380 -31.5028
   -17.5122 -17.5083 -17.5059 -17.5056 -17.5051 -17.4974 -17.4847 -17.4789
   -17.4744 -17.4720 -17.4432 -17.4394 -17.4380 -17.4376 -17.4372 -17.4348
   -17.4344 -17.4287 -17.4264 -17.4263 -17.4188 -17.4129 -17.4094 -17.4071
   -17.3750 -17.3746 -17.3666 -17.3665 -17.1752 -17.1746 -17.1734 -17.1728
   -17.1718 -17.1659 -17.1628 -17.1613 -17.1602 -17.1599 -17.1580 -17.1525
   -17.1517 -17.1507  -4.1685  -2.5503  -2.0673  -1.8733  -1.6674  -1.5339
    -1.3722  -1.3144  -1.3031  -1.2426  -0.7477  -0.6717  -0.2978   0.3295
     0.3755   0.4063   0.4122   0.4759   0.4838   0.6381   0.6901   0.8223
     1.1869   1.6080   1.8159   1.9284   2.0105   2.0685   2.3099   2.8105
     2.8434   2.8873   3.1234   3.1961   3.5420   3.9923   4.0274   4.2282
     4.3752   4.5542   4.8415   4.8942   4.9347   4.9472   5.0656   5.1602
     5.1882   5.1964   5.3305   5.3996   5.4285   5.4791   5.5846   5.6747
     5.6919   5.7497   6.0154   6.1545

          k = 0.0000 0.0316 0.0000 ( 33879 PWs)   bands (ev):

   -65.8088 -65.7999 -65.7487 -65.7396 -65.5291 -65.5201 -58.1815 -58.1688
   -58.1330 -58.1223 -58.1194 -58.1088 -32.7418 -32.6996 -32.6991 -32.6943
   -32.6572 -32.6350 -32.5592 -32.5445 -32.4969 -32.4440 -32.3843 -32.3765
   -32.3300 -32.2680 -32.2179 -32.1985 -32.1774 -32.1561 -32.0724 -32.0628
   -31.9676 -31.8570 -31.8045 -31.7929 -31.7402 -31.7313 -31.6823 -31.6391
   -31.6100 -31.6070 -31.5987 -31.5856 -31.5740 -31.5612 -31.5593 -31.5145
   -17.5120 -17.5085 -17.5056 -17.5055 -17.5052 -17.4978 -17.4845 -17.4793
   -17.4743 -17.4722 -17.4430 -17.4396 -17.4380 -17.4376 -17.4368 -17.4344
   -17.4342 -17.4291 -17.4270 -17.4269 -17.4186 -17.4132 -17.4093 -17.4072
   -17.3746 -17.3745 -17.3673 -17.3671 -17.1745 -17.1745 -17.1733 -17.1729
   -17.1719 -17.1655 -17.1627 -17.1609 -17.1607 -17.1604 -17.1586 -17.1530
   -17.1518 -17.1509  -4.0056  -2.3909  -1.9078  -1.8370  -1.5858  -1.3989
    -1.3011  -1.2325  -1.1794  -1.1495  -0.6709  -0.5243  -0.1684   0.3968
     0.4241   0.4426   0.4863   0.4948   0.5228   0.7158   0.7654   0.7819
     1.2082   1.5239   1.6621   1.8091   1.8932   2.1533   2.1855   2.6289
     2.7390   2.8407   2.8597   3.0691   3.4129   3.5247   3.7172   4.0028
     4.1228   4.5396   4.7248   4.7634   4.8037   4.8343   4.9599   5.0266
     5.0987   5.1406   5.2047   5.3852   5.5040   5.5168   5.6030   5.6935
     5.7523   5.7919   6.0150   6.1023

          k = 0.0000 0.0474 0.0000 ( 33860 PWs)   bands (ev):

   -65.8080 -65.8007 -65.7479 -65.7404 -65.5283 -65.5209 -58.1804 -58.1701
   -58.1320 -58.1233 -58.1184 -58.1098 -32.7113 -32.6764 -32.6753 -32.6612
   -32.6179 -32.5958 -32.5344 -32.5318 -32.4575 -32.4321 -32.3832 -32.3624
   -32.3235 -32.2839 -32.2411 -32.1922 -32.1832 -32.1699 -32.0484 -32.0458
   -31.9647 -31.9065 -31.8317 -31.8071 -31.7760 -31.7510 -31.6866 -31.6594
   -31.6484 -31.6403 -31.6142 -31.6031 -31.5913 -31.5887 -31.5565 -31.5224
   -17.5116 -17.5088 -17.5057 -17.5054 -17.5047 -17.4985 -17.4841 -17.4798
   -17.4741 -17.4724 -17.4427 -17.4399 -17.4381 -17.4378 -17.4361 -17.4339
   -17.4337 -17.4298 -17.4280 -17.4277 -17.4182 -17.4138 -17.4092 -17.4075
   -17.3742 -17.3740 -17.3683 -17.3679 -17.1743 -17.1734 -17.1733 -17.1730
   -17.1721 -17.1650 -17.1625 -17.1622 -17.1606 -17.1602 -17.1594 -17.1538
   -17.1520 -17.1512  -3.7461  -2.1471  -1.8546  -1.6607  -1.4775  -1.1801
    -1.1655  -1.1059  -1.0092  -0.9847  -0.5994  -0.2840   0.0708   0.4413
     0.4752   0.4943   0.5075   0.5794   0.5871   0.6730   0.8719   0.9422
     1.2380   1.4013   1.4649   1.5935   1.8093   1.9454   2.3199   2.3860
     2.4813   2.5931   2.7222   2.9694   3.0347   3.1225   3.2920   3.8232
     3.9553   4.1559   4.3926   4.6789   4.7189   4.7694   4.8932   4.9295
     5.0432   5.0603   5.1243   5.3164   5.3532   5.4531   5.5582   5.6304
     5.7710   5.8271   5.8666   5.8983

          k = 0.0000 0.0632 0.0000 ( 33843 PWs)   bands (ev):

   -65.8069 -65.8018 -65.7467 -65.7415 -65.5272 -65.5220 -58.1791 -58.1717
   -58.1308 -58.1247 -58.1172 -58.1111 -32.6761 -32.6520 -32.6512 -32.6207
   -32.5679 -32.5572 -32.5216 -32.5170 -32.4856 -32.3744 -32.3648 -32.3492
   -32.2881 -32.2873 -32.2576 -32.1932 -32.1802 -32.1698 -32.0411 -32.0369
   -31.9684 -31.9648 -31.8699 -31.8522 -31.8106 -31.7709 -31.7010 -31.6958
   -31.6878 -31.6636 -31.6414 -31.6173 -31.6019 -31.5906 -31.5524 -31.5289
   -17.5112 -17.5092 -17.5058 -17.5055 -17.5038 -17.4995 -17.4835 -17.4805
   -17.4739 -17.4727 -17.4422 -17.4403 -17.4382 -17.4379 -17.4352 -17.4334
   -17.4330 -17.4308 -17.4292 -17.4286 -17.4176 -17.4145 -17.4090 -17.4078
   -17.3737 -17.3732 -17.3694 -17.3689 -17.1741 -17.1732 -17.1732 -17.1725
   -17.1717 -17.1644 -17.1639 -17.1623 -17.1610 -17.1603 -17.1594 -17.1548
   -17.1521 -17.1515  -3.4088  -1.9919  -1.8570  -1.3780  -1.3582  -0.9824
    -0.9527  -0.8893  -0.8536  -0.7438  -0.5366   0.0395   0.3368   0.4092
     0.4618   0.5063   0.5254   0.5595   0.6198   0.6950   1.0781   1.1575
     1.2362   1.2896   1.3041   1.5700   1.6675   1.7623   2.0415   2.1244
     2.4126   2.4368   2.4390   2.5356   2.7052   2.9683   3.2942   3.5799
     3.5950   3.9092   4.0234   4.5692   4.6758   4.7555   4.8071   4.8579
     4.9107   4.9309   5.0071   5.0514   5.1797   5.2413   5.3157   5.4529
     5.5352   5.8085   5.8138   5.8602

          k = 0.0000 0.0790 0.0000 ( 33793 PWs)   bands (ev):

   -65.8057 -65.8030 -65.7454 -65.7427 -65.5259 -65.5232 -58.1773 -58.1736
   -58.1293 -58.1261 -58.1157 -58.1126 -32.6394 -32.6297 -32.6283 -32.5949
   -32.5388 -32.5270 -32.5257 -32.5113 -32.4907 -32.4012 -32.3373 -32.2868
   -32.2601 -32.2536 -32.2476 -32.2056 -32.1672 -32.1525 -32.0601 -32.0422
   -32.0247 -31.9855 -31.9032 -31.9001 -31.8250 -31.7951 -31.7427 -31.7411
   -31.6847 -31.6614 -31.6606 -31.6370 -31.5984 -31.5926 -31.5472 -31.5352
   -17.5107 -17.5097 -17.5058 -17.5057 -17.5027 -17.5005 -17.4828 -17.4813
   -17.4737 -17.4731 -17.4417 -17.4407 -17.4382 -17.4381 -17.4341 -17.4326
   -17.4319 -17.4318 -17.4304 -17.4297 -17.4169 -17.4153 -17.4087 -17.4081
   -17.3729 -17.3722 -17.3707 -17.3699 -17.1739 -17.1734 -17.1730 -17.1726
   -17.1700 -17.1659 -17.1635 -17.1620 -17.1614 -17.1613 -17.1583 -17.1559
   -17.1521 -17.1518  -3.0214  -2.2605  -1.5814  -1.3328  -1.0564  -0.8328
    -0.8051  -0.7365  -0.5712  -0.4924  -0.4772   0.2195   0.3627   0.3945
     0.4226   0.4799   0.4903   0.5537   0.6585   0.8186   1.0955   1.1444
     1.2099   1.3910   1.4315   1.4702   1.6762   1.8271   1.8362   1.9757
     2.0160   2.0745   2.2139   2.3467   2.7223   2.7975   3.2191   3.3567
     3.4580   3.7170   3.9607   4.3358   4.3647   4.3943   4.6910   4.7508
     4.8330   4.9205   4.9692   4.9788   5.0960   5.1937   5.2003   5.2358
     5.4408   5.5784   5.7935   5.8428

          k = 0.0000-0.0948 0.0000 ( 33762 PWs)   bands (ev):

   -65.8043 -65.8043 -65.7441 -65.7441 -65.5246 -65.5246 -58.1755 -58.1754
   -58.1277 -58.1277 -58.1141 -58.1141 -32.6195 -32.6194 -32.6052 -32.6052
   -32.5333 -32.5333 -32.5191 -32.5191 -32.4432 -32.4432 -32.3080 -32.3080
   -32.2333 -32.2333 -32.1959 -32.1959 -32.1699 -32.1699 -32.0623 -32.0623
   -32.0278 -32.0278 -31.9154 -31.9154 -31.8163 -31.8163 -31.7595 -31.7595
   -31.6753 -31.6753 -31.6513 -31.6513 -31.5952 -31.5952 -31.5414 -31.5414
   -17.5102 -17.5102 -17.5057 -17.5057 -17.5016 -17.5016 -17.4821 -17.4821
   -17.4734 -17.4734 -17.4412 -17.4412 -17.4381 -17.4381 -17.4329 -17.4329
   -17.4316 -17.4316 -17.4308 -17.4308 -17.4161 -17.4161 -17.4084 -17.4084
   -17.3719 -17.3719 -17.3711 -17.3711 -17.1737 -17.1736 -17.1728 -17.1728
   -17.1680 -17.1680 -17.1625 -17.1625 -17.1617 -17.1616 -17.1572 -17.1571
   -17.1520 -17.1520  -2.6221  -2.6221  -1.3932  -1.3932  -0.8478  -0.8478
    -0.7166  -0.7166  -0.4470  -0.4470  -0.1431  -0.1431   0.3589   0.3589
     0.4505   0.4505   0.6031   0.6032   0.8546   0.8546   0.9522   0.9522
     1.2957   1.2957   1.6015   1.6016   1.6861   1.6861   1.7430   1.7430
     2.1669   2.1669   2.3194   2.3194   2.4004   2.4004   3.3812   3.3812
     3.4836   3.4836   4.1132   4.1132   4.1370   4.1370   4.7225   4.7225
     4.8831   4.8831   4.9462   4.9462   5.0818   5.0818   5.2906   5.2906
     5.3513   5.3513   5.8236   5.8236

          k = 0.0149-0.0053 0.0000 ( 33907 PWs)   bands (ev):

   -65.8094 -65.7994 -65.7493 -65.7390 -65.5297 -65.5196 -58.1822 -58.1679
   -58.1337 -58.1216 -58.1200 -58.1081 -32.7632 -32.7251 -32.7172 -32.7066
   -32.6807 -32.6606 -32.5804 -32.5551 -32.5359 -32.4518 -32.3812 -32.3775
   -32.3276 -32.2563 -32.2009 -32.1866 -32.1745 -32.1368 -32.1039 -32.0838
   -31.9691 -31.8242 -31.7910 -31.7905 -31.7382 -31.7035 -31.6759 -31.6223
   -31.6100 -31.5812 -31.5789 -31.5764 -31.5594 -31.5479 -31.5380 -31.5028
   -17.5122 -17.5083 -17.5059 -17.5056 -17.5051 -17.4974 -17.4847 -17.4789
   -17.4744 -17.4720 -17.4432 -17.4394 -17.4380 -17.4376 -17.4372 -17.4348
   -17.4344 -17.4287 -17.4264 -17.4263 -17.4188 -17.4129 -17.4094 -17.4071
   -17.3750 -17.3746 -17.3666 -17.3665 -17.1752 -17.1746 -17.1734 -17.1728
   -17.1718 -17.1659 -17.1628 -17.1613 -17.1602 -17.1599 -17.1580 -17.1525
   -17.1517 -17.1507  -4.1685  -2.5503  -2.0673  -1.8733  -1.6674  -1.5339
    -1.3722  -1.3144  -1.3031  -1.2426  -0.7477  -0.6717  -0.2978   0.3295
     0.3755   0.4063   0.4122   0.4759   0.4838   0.6381   0.6901   0.8223
     1.1869   1.6080   1.8159   1.9284   2.0105   2.0685   2.3099   2.8105
     2.8434   2.8873   3.1234   3.1961   3.5420   3.9923   4.0274   4.2282
     4.3752   4.5542   4.8415   4.8942   4.9347   4.9472   5.0656   5.1602
     5.1882   5.1964   5.3305   5.3996   5.4285   5.4791   5.5846   5.6747
     5.6919   5.7497   6.0154   6.1545

          k = 0.0149 0.0105 0.0000 ( 33899 PWs)   bands (ev):

   -65.8095 -65.7993 -65.7494 -65.7389 -65.5299 -65.5194 -58.1824 -58.1678
   -58.1340 -58.1213 -58.1203 -58.1078 -32.7613 -32.7166 -32.7135 -32.7063
   -32.6769 -32.6569 -32.5733 -32.5486 -32.5328 -32.4453 -32.3834 -32.3683
   -32.3241 -32.2536 -32.1951 -32.1755 -32.1625 -32.1272 -32.1248 -32.0966
   -31.9684 -31.8123 -31.7977 -31.7907 -31.7452 -31.7120 -31.6865 -31.6291
   -31.6159 -31.5852 -31.5831 -31.5818 -31.5681 -31.5542 -31.5369 -31.5131
   -17.5123 -17.5083 -17.5060 -17.5057 -17.5051 -17.4972 -17.4848 -17.4788
   -17.4745 -17.4720 -17.4433 -17.4394 -17.4381 -17.4375 -17.4374 -17.4350
   -17.4345 -17.4285 -17.4263 -17.4261 -17.4189 -17.4127 -17.4095 -17.4070
   -17.3752 -17.3748 -17.3666 -17.3663 -17.1754 -17.1747 -17.1735 -17.1728
   -17.1718 -17.1660 -17.1629 -17.1615 -17.1602 -17.1597 -17.1578 -17.1523
   -17.1518 -17.1507  -4.1490  -2.5336  -2.0630  -1.8534  -1.6409  -1.5383
    -1.3467  -1.3111  -1.2981  -1.2196  -0.7290  -0.6743  -0.2968   0.3397
     0.3709   0.4100   0.4708   0.4735   0.4844   0.6505   0.7067   0.8669
     1.2468   1.6566   1.8538   1.9935   2.0526   2.0566   2.3376   2.7527
     2.9079   2.9642   3.0737   3.1940   3.5293   3.8296   4.0241   4.2260
     4.4657   4.4973   4.7301   4.7307   4.7819   4.8850   5.0137   5.1256
     5.1442   5.1575   5.2381   5.2394   5.5082   5.5135   5.6274   5.7462
     5.7980   5.8401   6.0690   6.1018

          k = 0.0149 0.0263 0.0000 ( 33891 PWs)   bands (ev):

   -65.8093 -65.7994 -65.7492 -65.7391 -65.5297 -65.5196 -58.1821 -58.1682
   -58.1338 -58.1215 -58.1202 -58.1080 -32.7452 -32.6981 -32.6980 -32.6909
   -32.6577 -32.6360 -32.5524 -32.5379 -32.5008 -32.4327 -32.3872 -32.3602
   -32.3223 -32.2589 -32.1881 -32.1836 -32.1785 -32.1378 -32.1053 -32.0832
   -31.9671 -31.8286 -31.8056 -31.7984 -31.7498 -31.7401 -31.6995 -31.6466
   -31.6253 -31.6082 -31.6030 -31.5902 -31.5740 -31.5729 -31.5573 -31.5256
   -17.5123 -17.5084 -17.5059 -17.5057 -17.5052 -17.4974 -17.4847 -17.4790
   -17.4745 -17.4721 -17.4433 -17.4395 -17.4381 -17.4376 -17.4373 -17.4349
   -17.4346 -17.4287 -17.4267 -17.4263 -17.4188 -17.4129 -17.4095 -17.4071
   -17.3752 -17.3749 -17.3669 -17.3665 -17.1752 -17.1746 -17.1736 -17.1729
   -17.1719 -17.1659 -17.1629 -17.1613 -17.1602 -17.1601 -17.1580 -17.1525
   -17.1520 -17.1509  -4.0211  -2.4107  -1.9544  -1.8081  -1.5602  -1.4529
    -1.2741  -1.2371  -1.2261  -1.1347  -0.6609  -0.5785  -0.2092   0.3889
     0.4081   0.4648   0.4789   0.5108   0.5539   0.7136   0.7840   0.8697
     1.3178   1.6382   1.7848   1.9565   1.9766   2.1652   2.2566   2.7454
     2.8185   2.9102   2.9305   3.0466   3.3781   3.5100   3.8369   4.0187
     4.2466   4.3772   4.5521   4.5682   4.6208   4.6951   4.9352   5.0177
     5.0784   5.1311   5.1585   5.2497   5.4014   5.5327   5.6787   5.8188
     5.8929   5.9301   5.9950   6.1322

          k = 0.0149 0.0421 0.0000 ( 33877 PWs)   bands (ev):

   -65.8087 -65.7999 -65.7486 -65.7396 -65.5291 -65.5201 -58.1815 -58.1692
   -58.1333 -58.1221 -58.1197 -58.1086 -32.7193 -32.6822 -32.6765 -32.6528
   -32.6230 -32.5994 -32.5273 -32.5266 -32.4397 -32.4365 -32.3878 -32.3446
   -32.3123 -32.2716 -32.2080 -32.1849 -32.1779 -32.1530 -32.0791 -32.0657
   -31.9650 -31.8730 -31.8218 -31.8187 -31.7888 -31.7566 -31.7068 -31.6696
   -31.6504 -31.6481 -31.6288 -31.6004 -31.5940 -31.5890 -31.5720 -31.5297
   -17.5121 -17.5085 -17.5058 -17.5056 -17.5053 -17.4978 -17.4845 -17.4793
   -17.4744 -17.4722 -17.4431 -17.4396 -17.4382 -17.4377 -17.4369 -17.4346
   -17.4346 -17.4291 -17.4274 -17.4268 -17.4186 -17.4132 -17.4095 -17.4072
   -17.3749 -17.3748 -17.3677 -17.3670 -17.1746 -17.1745 -17.1736 -17.1730
   -17.1721 -17.1657 -17.1628 -17.1610 -17.1609 -17.1604 -17.1584 -17.1530
   -17.1522 -17.1511  -3.7936  -2.1980  -1.7989  -1.7565  -1.4479  -1.2799
    -1.1371  -1.1167  -1.0767  -0.9989  -0.6005  -0.3865  -0.0052   0.4243
     0.4793   0.4818   0.5519   0.5580   0.6325   0.8208   0.8466   0.9321
     1.3803   1.5533   1.6378   1.7864   1.8864   2.0837   2.3981   2.5926
     2.6358   2.7353   2.8260   2.8717   3.1070   3.2084   3.2948   3.8350
     3.9610   4.0797   4.3573   4.4355   4.4481   4.5151   4.7810   4.8498
     5.0408   5.0936   5.1391   5.2636   5.3494   5.4957   5.6401   5.6658
     5.7320   5.9002   5.9563   5.9896

          k = 0.0149 0.0579 0.0000 ( 33858 PWs)   bands (ev):

   -65.8079 -65.8008 -65.7477 -65.7404 -65.5283 -65.5209 -58.1803 -58.1705
   -58.1324 -58.1231 -58.1188 -58.1096 -32.6874 -32.6611 -32.6520 -32.6106
   -32.5766 -32.5588 -32.5142 -32.5110 -32.4588 -32.3770 -32.3595 -32.3508
   -32.2800 -32.2723 -32.2269 -32.1966 -32.1634 -32.1562 -32.0642 -32.0561
   -31.9651 -31.9378 -31.8657 -31.8538 -31.8269 -31.7710 -31.7156 -31.6983
   -31.6983 -31.6789 -31.6468 -31.6235 -31.6024 -31.5954 -31.5694 -31.5334
   -17.5117 -17.5088 -17.5059 -17.5055 -17.5048 -17.4985 -17.4840 -17.4799
   -17.4743 -17.4724 -17.4427 -17.4399 -17.4383 -17.4379 -17.4362 -17.4342
   -17.4340 -17.4298 -17.4284 -17.4276 -17.4181 -17.4138 -17.4093 -17.4075
   -17.3745 -17.3743 -17.3686 -17.3678 -17.1743 -17.1735 -17.1735 -17.1731
   -17.1722 -17.1653 -17.1627 -17.1624 -17.1606 -17.1603 -17.1592 -17.1538
   -17.1523 -17.1514  -3.4823  -1.9262  -1.8928  -1.4953  -1.3348  -1.0261
    -0.9706  -0.9449  -0.8610  -0.8399  -0.5515  -0.1038   0.2575   0.3969
     0.4587   0.5571   0.5920   0.6403   0.6741   0.7232   1.0402   1.1387
     1.3559   1.4615   1.4895   1.7118   1.7556   1.8950   2.3220   2.3409
     2.3600   2.6698   2.6843   2.6866   2.7451   2.8855   3.1597   3.4987
     3.5478   3.8573   4.0162   4.3545   4.4021   4.4831   4.7214   4.7577
     4.9016   4.9131   4.9884   5.0582   5.0917   5.4011   5.4413   5.5404
     5.5689   5.6991   5.8988   5.9457

          k = 0.0149 0.0737 0.0000 ( 33816 PWs)   bands (ev):

   -65.8068 -65.8018 -65.7466 -65.7415 -65.5272 -65.5220 -58.1788 -58.1721
   -58.1312 -58.1243 -58.1176 -58.1107 -32.6520 -32.6385 -32.6275 -32.5785
   -32.5342 -32.5312 -32.5128 -32.4960 -32.4854 -32.3777 -32.3526 -32.2740
   -32.2680 -32.2409 -32.2366 -32.2123 -32.1470 -32.1417 -32.0684 -32.0628
   -32.0042 -31.9855 -31.9107 -31.8915 -31.8403 -31.7903 -31.7463 -31.7426
   -31.7062 -31.6805 -31.6630 -31.6366 -31.6058 -31.5959 -31.5655 -31.5381
   -17.5113 -17.5092 -17.5060 -17.5056 -17.5039 -17.4994 -17.4835 -17.4805
   -17.4740 -17.4727 -17.4423 -17.4403 -17.4384 -17.4380 -17.4352 -17.4336
   -17.4333 -17.4307 -17.4295 -17.4285 -17.4176 -17.4145 -17.4091 -17.4077
   -17.3739 -17.3735 -17.3698 -17.3687 -17.1741 -17.1734 -17.1733 -17.1726
   -17.1717 -17.1646 -17.1641 -17.1624 -17.1609 -17.1601 -17.1594 -17.1548
   -17.1523 -17.1516  -3.1105  -2.1169  -1.6462  -1.2605  -1.2144  -0.8240
    -0.7605  -0.7050  -0.7036  -0.6203  -0.4953   0.2594   0.3223   0.4050
     0.4166   0.4555   0.6021   0.6469   0.6524   0.7475   1.1733   1.2157
     1.3044   1.4026   1.5174   1.5759   1.7653   1.8836   1.9604   2.0488
     2.0990   2.1659   2.3893   2.5747   2.6954   2.8032   3.1992   3.2793
     3.3050   3.7344   3.7940   4.2354   4.3245   4.4508   4.4724   4.5741
     4.6980   4.7582   4.8815   4.9853   5.0412   5.1710   5.3002   5.3901
     5.7094   5.7143   5.7925   5.7994

          k = 0.0149-0.1001 0.0000 ( 33770 PWs)   bands (ev):

   -65.8056 -65.8031 -65.7453 -65.7428 -65.5259 -65.5232 -58.1771 -58.1739
   -58.1297 -58.1258 -58.1162 -58.1122 -32.6220 -32.6173 -32.6105 -32.5782
   -32.5266 -32.5225 -32.5174 -32.4992 -32.4586 -32.4184 -32.3292 -32.2843
   -32.2463 -32.2199 -32.2131 -32.1808 -32.1757 -32.1578 -32.0863 -32.0544
   -32.0325 -32.0170 -31.9188 -31.9078 -31.8293 -31.8079 -31.7632 -31.7576
   -31.6988 -31.6750 -31.6734 -31.6472 -31.6043 -31.5961 -31.5605 -31.5437
   -17.5108 -17.5097 -17.5059 -17.5056 -17.5028 -17.5004 -17.4828 -17.4813
   -17.4737 -17.4730 -17.4418 -17.4407 -17.4383 -17.4380 -17.4341 -17.4327
   -17.4323 -17.4317 -17.4306 -17.4295 -17.4168 -17.4153 -17.4088 -17.4081
   -17.3729 -17.3725 -17.3709 -17.3697 -17.1738 -17.1735 -17.1731 -17.1726
   -17.1700 -17.1660 -17.1638 -17.1621 -17.1613 -17.1611 -17.1584 -17.1559
   -17.1522 -17.1518  -2.7105  -2.4495  -1.4270  -1.2765  -0.9907  -0.7208
    -0.7080  -0.6553  -0.4397  -0.4339  -0.3319   0.0897   0.2759   0.4252
     0.4824   0.5011   0.6008   0.6352   0.6868   0.8641   1.0205   1.0715
     1.2602   1.3649   1.5879   1.6039   1.7190   1.7192   1.7282   1.7422
     2.0576   2.1400   2.3335   2.3821   2.4395   2.4685   3.2401   3.3852
     3.4564   3.4966   3.8873   4.0398   4.1950   4.2948   4.5129   4.6533
     4.6903   4.8222   4.9529   4.9700   5.0125   5.0496   5.2540   5.3599
     5.5506   5.6416   5.8003   5.8368

          k = 0.0149-0.0843 0.0000 ( 33789 PWs)   bands (ev):

   -65.8044 -65.8042 -65.7442 -65.7440 -65.5246 -65.5246 -58.1758 -58.1752
   -58.1281 -58.1274 -58.1146 -58.1138 -32.6221 -32.6158 -32.6074 -32.5929
   -32.5312 -32.5215 -32.5161 -32.5075 -32.4671 -32.4188 -32.3217 -32.3100
   -32.2692 -32.2472 -32.2384 -32.1981 -32.1884 -32.1658 -32.0775 -32.0318
   -32.0310 -31.9772 -31.9098 -31.8885 -31.8151 -31.8038 -31.7453 -31.7385
   -31.6847 -31.6835 -31.6595 -31.6561 -31.6013 -31.5968 -31.5543 -31.5496
   -17.5102 -17.5102 -17.5058 -17.5057 -17.5017 -17.5016 -17.4821 -17.4820
   -17.4734 -17.4733 -17.4413 -17.4412 -17.4382 -17.4381 -17.4330 -17.4329
   -17.4318 -17.4316 -17.4311 -17.4306 -17.4161 -17.4161 -17.4085 -17.4083
   -17.3720 -17.3718 -17.3713 -17.3708 -17.1737 -17.1736 -17.1729 -17.1727
   -17.1681 -17.1679 -17.1627 -17.1622 -17.1617 -17.1616 -17.1572 -17.1571
   -17.1521 -17.1519  -2.8403  -2.3272  -1.4247  -1.3264  -0.9328  -0.8558
    -0.7250  -0.7141  -0.4814  -0.3742  -0.2522   0.0398   0.3008   0.4532
     0.4556   0.5236   0.5418   0.6273   0.6610   0.9343   0.9912   1.0960
     1.1781   1.3048   1.3519   1.4366   1.6384   1.6662   1.7595   1.8253
     2.0004   2.0334   2.0817   2.1031   2.7128   2.8151   3.2082   3.2812
     3.5297   3.7007   4.0961   4.1306   4.2961   4.4319   4.5351   4.8259
     4.8636   4.8981   4.9269   4.9612   5.1120   5.2194   5.3669   5.3877
     5.3940   5.4915   5.8120   5.8311

          k = 0.0149-0.0685 0.0000 ( 33832 PWs)   bands (ev):

   -65.8057 -65.8029 -65.7455 -65.7426 -65.5259 -65.5233 -58.1776 -58.1733
   -58.1290 -58.1265 -58.1154 -58.1130 -32.6468 -32.6373 -32.6363 -32.6093
   -32.5510 -32.5439 -32.5124 -32.4981 -32.4945 -32.3898 -32.3614 -32.3356
   -32.3021 -32.2974 -32.2802 -32.1969 -32.1900 -32.1869 -32.0392 -32.0236
   -31.9899 -31.9536 -31.8843 -31.8403 -31.7993 -31.7746 -31.6984 -31.6977
   -31.6886 -31.6625 -31.6605 -31.6385 -31.5984 -31.5981 -31.5554 -31.5472
   -17.5107 -17.5097 -17.5057 -17.5057 -17.5027 -17.5005 -17.4828 -17.4812
   -17.4736 -17.4731 -17.4417 -17.4407 -17.4381 -17.4380 -17.4340 -17.4326
   -17.4318 -17.4317 -17.4302 -17.4300 -17.4169 -17.4153 -17.4086 -17.4081
   -17.3729 -17.3720 -17.3705 -17.3702 -17.1739 -17.1734 -17.1729 -17.1726
   -17.1701 -17.1658 -17.1633 -17.1619 -17.1616 -17.1613 -17.1583 -17.1559
   -17.1520 -17.1518  -3.2363  -2.0178  -1.6872  -1.3449  -1.1440  -1.0444
    -0.8730  -0.8112  -0.7222  -0.5495  -0.4020   0.2374   0.3095   0.4107
     0.4245   0.4763   0.5357   0.5409   0.6792   0.7989   1.0994   1.1268
     1.1632   1.1662   1.1851   1.3507   1.5303   1.7156   1.8427   1.9195
     2.0775   2.1486   2.2451   2.3720   2.7151   2.9697   3.3071   3.5416
     3.6818   3.9731   4.0244   4.3402   4.6614   4.6783   4.8806   4.9247
     4.9504   5.0063   5.0625   5.0849   5.1742   5.2553   5.4046   5.4305
     5.4361   5.7607   5.7658   5.8727

          k = 0.0149-0.0527 0.0000 ( 33866 PWs)   bands (ev):

   -65.8070 -65.8017 -65.7468 -65.7414 -65.5272 -65.5220 -58.1792 -58.1714
   -58.1305 -58.1249 -58.1169 -58.1114 -32.6853 -32.6615 -32.6610 -32.6490
   -32.6016 -32.5808 -32.5217 -32.5097 -32.4653 -32.4199 -32.3863 -32.3768
   -32.3379 -32.2955 -32.2733 -32.2049 -32.1892 -32.1823 -32.0293 -32.0276
   -31.9565 -31.9406 -31.8471 -31.7949 -31.7650 -31.7505 -31.6892 -31.6578
   -31.6475 -31.6460 -31.6281 -31.6099 -31.5997 -31.5956 -31.5604 -31.5386
   -17.5112 -17.5092 -17.5056 -17.5055 -17.5038 -17.4995 -17.4835 -17.4805
   -17.4739 -17.4727 -17.4422 -17.4403 -17.4380 -17.4379 -17.4351 -17.4333
   -17.4327 -17.4308 -17.4290 -17.4288 -17.4176 -17.4144 -17.4089 -17.4078
   -17.3735 -17.3730 -17.3692 -17.3690 -17.1741 -17.1731 -17.1730 -17.1724
   -17.1718 -17.1642 -17.1638 -17.1622 -17.1609 -17.1605 -17.1594 -17.1548
   -17.1519 -17.1515  -3.5941  -1.9905  -1.8394  -1.4698  -1.4353  -1.2030
    -1.0367  -1.0151  -0.9604  -0.8178  -0.4759  -0.1004   0.1562   0.3790
     0.5042   0.5283   0.5445   0.5541   0.6466   0.6697   0.9458   0.9657
     1.1225   1.2426   1.2647   1.3338   1.7443   1.8016   2.0220   2.1662
     2.2446   2.4622   2.5927   2.6983   2.7572   3.1109   3.3174   3.8693
     3.9279   4.0934   4.4009   4.5528   4.8385   4.8758   4.9465   5.0426
     5.1021   5.1214   5.1367   5.2049   5.2458   5.2629   5.4333   5.6849
     5.7447   5.8347   5.8788   5.9463

          k = 0.0149-0.0369 0.0000 ( 33906 PWs)   bands (ev):

   -65.8080 -65.8007 -65.7479 -65.7403 -65.5283 -65.5209 -58.1805 -58.1698
   -58.1319 -58.1235 -58.1182 -58.1100 -32.7214 -32.6879 -32.6861 -32.6828
   -32.6433 -32.6203 -32.5477 -32.5245 -32.4868 -32.4376 -32.4002 -32.3864
   -32.3402 -32.2802 -32.2531 -32.2071 -32.1775 -32.1767 -32.0432 -32.0419
   -31.9646 -31.8922 -31.8173 -31.7814 -31.7369 -31.7241 -31.6880 -31.6395
   -31.6098 -31.6075 -31.6026 -31.5916 -31.5845 -31.5768 -31.5636 -31.5267
   -17.5116 -17.5088 -17.5056 -17.5053 -17.5047 -17.4985 -17.4841 -17.4798
   -17.4741 -17.4724 -17.4426 -17.4399 -17.4380 -17.4378 -17.4360 -17.4338
   -17.4336 -17.4298 -17.4278 -17.4278 -17.4182 -17.4138 -17.4091 -17.4075
   -17.3740 -17.3739 -17.3681 -17.3680 -17.1744 -17.1734 -17.1731 -17.1730
   -17.1721 -17.1649 -17.1625 -17.1620 -17.1606 -17.1602 -17.1595 -17.1538
   -17.1518 -17.1512  -3.8819  -2.2625  -1.8062  -1.7570  -1.5449  -1.3137
    -1.2641  -1.1764  -1.1028  -1.0474  -0.5756  -0.3784  -0.0916   0.3678
     0.4556   0.4835   0.5328   0.5529   0.5813   0.6468   0.7717   0.8053
     1.1224   1.3969   1.4598   1.5554   1.8587   1.9836   2.2019   2.3504
     2.4972   2.5082   2.9167   3.1695   3.1840   3.3249   3.3349   3.9689
     4.0734   4.5914   4.6623   4.7719   4.8126   5.0046   5.0580   5.0942
     5.1486   5.1863   5.2518   5.2748   5.3124   5.4527   5.4618   5.6396
     5.6868   5.7646   5.9112   6.0719

          k = 0.0149-0.0211 0.0000 ( 33883 PWs)   bands (ev):

   -65.8089 -65.7999 -65.7487 -65.7395 -65.5292 -65.5201 -58.1815 -58.1687
   -58.1328 -58.1224 -58.1192 -58.1089 -32.7492 -32.7150 -32.7068 -32.6986
   -32.6696 -32.6484 -32.5709 -32.5413 -32.5255 -32.4432 -32.3941 -32.3826
   -32.3330 -32.2653 -32.2224 -32.2053 -32.1751 -32.1574 -32.0705 -32.0620
   -31.9685 -31.8526 -31.7990 -31.7843 -31.7337 -31.7031 -31.6813 -31.6252
   -31.6058 -31.5856 -31.5851 -31.5839 -31.5619 -31.5570 -31.5510 -31.5108
   -17.5119 -17.5085 -17.5056 -17.5054 -17.5052 -17.4977 -17.4845 -17.4793
   -17.4742 -17.4722 -17.4429 -17.4396 -17.4379 -17.4377 -17.4368 -17.4343
   -17.4341 -17.4291 -17.4269 -17.4269 -17.4186 -17.4132 -17.4093 -17.4072
   -17.3745 -17.3743 -17.3671 -17.3671 -17.1745 -17.1745 -17.1732 -17.1729
   -17.1720 -17.1655 -17.1627 -17.1608 -17.1607 -17.1603 -17.1586 -17.1530
   -17.1517 -17.1508  -4.0777  -2.4572  -1.9631  -1.8470  -1.6317  -1.4408
    -1.3625  -1.2720  -1.2140  -1.2021  -0.6855  -0.5717  -0.2367   0.3723
     0.3774   0.4193   0.4561   0.4999   0.5204   0.6783   0.7156   0.7464
     1.1451   1.5151   1.6736   1.8204   1.8988   2.1046   2.1807   2.6466
     2.7059   2.8629   2.9003   3.2351   3.4326   3.7384   3.8540   4.0136
     4.2163   4.6726   4.7602   4.9174   4.9993   5.0120   5.0474   5.2313
     5.2368   5.2746   5.2842   5.3046   5.4194   5.4366   5.5617   5.5861
     5.6321   5.6502   5.9645   6.2127

          k = 0.0298-0.0106 0.0000 ( 33879 PWs)   bands (ev):

   -65.8088 -65.7999 -65.7487 -65.7396 -65.5291 -65.5201 -58.1815 -58.1688
   -58.1330 -58.1223 -58.1194 -58.1088 -32.7418 -32.6996 -32.6991 -32.6943
   -32.6572 -32.6350 -32.5592 -32.5445 -32.4969 -32.4440 -32.3843 -32.3765
   -32.3300 -32.2680 -32.2179 -32.1985 -32.1774 -32.1561 -32.0724 -32.0628
   -31.9676 -31.8570 -31.8045 -31.7929 -31.7402 -31.7313 -31.6823 -31.6391
   -31.6100 -31.6070 -31.5987 -31.5856 -31.5740 -31.5612 -31.5593 -31.5145
   -17.5120 -17.5085 -17.5056 -17.5055 -17.5052 -17.4978 -17.4845 -17.4793
   -17.4743 -17.4722 -17.4430 -17.4396 -17.4380 -17.4376 -17.4368 -17.4344
   -17.4342 -17.4291 -17.4270 -17.4269 -17.4186 -17.4132 -17.4093 -17.4072
   -17.3746 -17.3745 -17.3673 -17.3671 -17.1745 -17.1745 -17.1733 -17.1729
   -17.1719 -17.1655 -17.1627 -17.1609 -17.1607 -17.1604 -17.1586 -17.1530
   -17.1518 -17.1509  -4.0056  -2.3909  -1.9078  -1.8370  -1.5858  -1.3989
    -1.3011  -1.2325  -1.1794  -1.1495  -0.6709  -0.5243  -0.1684   0.3968
     0.4241   0.4426   0.4863   0.4948   0.5228   0.7158   0.7654   0.7819
     1.2082   1.5239   1.6621   1.8091   1.8932   2.1533   2.1855   2.6289
     2.7390   2.8407   2.8597   3.0691   3.4129   3.5247   3.7172   4.0028
     4.1228   4.5396   4.7248   4.7634   4.8037   4.8343   4.9599   5.0266
     5.0987   5.1406   5.2047   5.3852   5.5041   5.5168   5.6030   5.6935
     5.7523   5.7919   6.0150   6.1015

          k = 0.0298 0.0052 0.0000 ( 33891 PWs)   bands (ev):

   -65.8093 -65.7994 -65.7492 -65.7391 -65.5297 -65.5196 -58.1821 -58.1682
   -58.1338 -58.1215 -58.1202 -58.1080 -32.7452 -32.6981 -32.6980 -32.6909
   -32.6577 -32.6360 -32.5524 -32.5379 -32.5008 -32.4327 -32.3872 -32.3602
   -32.3223 -32.2589 -32.1881 -32.1836 -32.1785 -32.1378 -32.1053 -32.0832
   -31.9671 -31.8286 -31.8056 -31.7984 -31.7498 -31.7401 -31.6995 -31.6466
   -31.6253 -31.6082 -31.6030 -31.5902 -31.5740 -31.5729 -31.5573 -31.5256
   -17.5123 -17.5084 -17.5059 -17.5057 -17.5052 -17.4974 -17.4847 -17.4790
   -17.4745 -17.4721 -17.4433 -17.4395 -17.4381 -17.4376 -17.4373 -17.4349
   -17.4346 -17.4287 -17.4267 -17.4263 -17.4188 -17.4129 -17.4095 -17.4071
   -17.3752 -17.3749 -17.3669 -17.3665 -17.1752 -17.1746 -17.1736 -17.1729
   -17.1719 -17.1659 -17.1629 -17.1613 -17.1602 -17.1601 -17.1580 -17.1525
   -17.1520 -17.1509  -4.0211  -2.4107  -1.9544  -1.8081  -1.5602  -1.4529
    -1.2741  -1.2371  -1.2261  -1.1347  -0.6609  -0.5785  -0.2092   0.3889
     0.4081   0.4648   0.4789   0.5108   0.5539   0.7136   0.7840   0.8697
     1.3178   1.6382   1.7848   1.9565   1.9766   2.1652   2.2566   2.7454
     2.8185   2.9102   2.9305   3.0466   3.3781   3.5100   3.8369   4.0187
     4.2466   4.3772   4.5521   4.5682   4.6208   4.6951   4.9352   5.0177
     5.0784   5.1311   5.1585   5.2497   5.4014   5.5327   5.6787   5.8188
     5.8929   5.9301   5.9950   6.1323

          k = 0.0298 0.0210 0.0000 ( 33839 PWs)   bands (ev):

   -65.8094 -65.7993 -65.7493 -65.7389 -65.5298 -65.5194 -58.1823 -58.1682
   -58.1342 -58.1211 -58.1206 -58.1075 -32.7338 -32.6935 -32.6834 -32.6650
   -32.6438 -32.6217 -32.5304 -32.5107 -32.4926 -32.4092 -32.3922 -32.3497
   -32.3166 -32.2560 -32.1813 -32.1767 -32.1643 -32.1307 -32.1247 -32.0925
   -31.9652 -31.8197 -31.8139 -31.8019 -31.7624 -31.7559 -31.7320 -31.6635
   -31.6512 -31.6233 -31.6145 -31.5998 -31.5995 -31.5826 -31.5616 -31.5538
   -17.5124 -17.5083 -17.5061 -17.5058 -17.5052 -17.4972 -17.4848 -17.4789
   -17.4745 -17.4720 -17.4434 -17.4394 -17.4382 -17.4376 -17.4374 -17.4352
   -17.4349 -17.4286 -17.4267 -17.4261 -17.4189 -17.4128 -17.4096 -17.4070
   -17.3755 -17.3752 -17.3670 -17.3663 -17.1755 -17.1747 -17.1738 -17.1729
   -17.1720 -17.1661 -17.1630 -17.1615 -17.1602 -17.1599 -17.1577 -17.1523
   -17.1521 -17.1509  -3.9290  -2.3244  -1.9023  -1.7385  -1.4754  -1.4214
    -1.2136  -1.2045  -1.1720  -1.0580  -0.5719  -0.5374  -0.1904   0.4191
     0.4412   0.4854   0.4886   0.5323   0.6902   0.7642   0.8317   0.9433
     1.4443   1.7072   1.8112   1.9638   2.0610   2.1904   2.2594   2.6609
     2.7151   2.8640   3.0146   3.0601   3.2131   3.2864   3.6077   3.9954
     4.1906   4.2478   4.2973   4.3558   4.4093   4.5448   4.8189   4.9206
     5.0523   5.0829   5.1191   5.1866   5.2156   5.6026   5.7050   5.7989
     5.8150   6.0321   6.0528   6.1148

          k = 0.0298 0.0368 0.0000 ( 33808 PWs)   bands (ev):

   -65.8092 -65.7995 -65.7491 -65.7391 -65.5297 -65.5195 -58.1820 -58.1687
   -58.1342 -58.1212 -58.1206 -58.1077 -32.7118 -32.6815 -32.6620 -32.6257
   -32.6150 -32.5909 -32.5024 -32.4970 -32.4414 -32.4013 -32.3919 -32.3309
   -32.3064 -32.2615 -32.1873 -32.1791 -32.1634 -32.1411 -32.1091 -32.0832
   -31.9627 -31.8425 -31.8391 -31.8100 -31.8027 -31.7686 -31.7488 -31.6879
   -31.6808 -31.6578 -31.6533 -31.6071 -31.6067 -31.6049 -31.5907 -31.5555
   -17.5123 -17.5083 -17.5060 -17.5060 -17.5053 -17.4974 -17.4847 -17.4790
   -17.4746 -17.4721 -17.4433 -17.4394 -17.4384 -17.4377 -17.4373 -17.4352
   -17.4351 -17.4287 -17.4272 -17.4262 -17.4188 -17.4129 -17.4096 -17.4071
   -17.3755 -17.3753 -17.3674 -17.3664 -17.1753 -17.1746 -17.1739 -17.1730
   -17.1721 -17.1662 -17.1630 -17.1613 -17.1604 -17.1602 -17.1578 -17.1525
   -17.1524 -17.1510  -3.7364  -2.1450  -1.7669  -1.6872  -1.3533  -1.3027
    -1.0952  -1.0943  -1.0665  -0.9277  -0.4887  -0.4010  -0.0520   0.4470
     0.4957   0.5104   0.5582   0.5683   0.8255   0.8744   0.9515   0.9617
     1.5518   1.6970   1.7436   1.8690   1.9841   2.1624   2.4079   2.4829
     2.6714   2.7491   2.8659   2.9756   3.0085   3.0291   3.2138   3.8644
     3.8827   3.9089   4.1340   4.2079   4.2767   4.2886   4.6792   4.6920
     5.0421   5.0565   5.0682   5.1215   5.2122   5.5228   5.6304   5.6884
     5.7526   5.8962   6.0636   6.1035

          k = 0.0298 0.0526 0.0000 ( 33834 PWs)   bands (ev):

   -65.8086 -65.8000 -65.7485 -65.7397 -65.5291 -65.5200 -58.1813 -58.1697
   -58.1338 -58.1218 -58.1202 -58.1082 -32.6832 -32.6636 -32.6382 -32.5809
   -32.5741 -32.5511 -32.4859 -32.4855 -32.4152 -32.3835 -32.3650 -32.3302
   -32.2697 -32.2619 -32.1997 -32.1969 -32.1518 -32.1436 -32.0946 -32.0736
   -31.9621 -31.9061 -31.8796 -31.8478 -31.8375 -31.7755 -31.7571 -31.7157
   -31.7106 -31.6974 -31.6824 -31.6478 -31.6087 -31.6048 -31.5979 -31.5569
   -17.5121 -17.5085 -17.5061 -17.5057 -17.5054 -17.4979 -17.4845 -17.4793
   -17.4745 -17.4722 -17.4431 -17.4396 -17.4385 -17.4378 -17.4369 -17.4350
   -17.4350 -17.4292 -17.4279 -17.4266 -17.4186 -17.4133 -17.4096 -17.4072
   -17.3753 -17.3752 -17.3681 -17.3668 -17.1747 -17.1745 -17.1739 -17.1731
   -17.1722 -17.1660 -17.1629 -17.1613 -17.1610 -17.1604 -17.1583 -17.1530
   -17.1526 -17.1513  -3.4563  -1.8980  -1.7291  -1.5737  -1.2227  -1.0989
    -0.9345  -0.9117  -0.9030  -0.7671  -0.4429  -0.1724   0.1861   0.4289
     0.4890   0.5746   0.6191   0.6426   0.8960   0.9078   1.0516   1.1335
     1.4953   1.6001   1.7127   1.7939   1.8525   2.0167   2.2234   2.4851
     2.5635   2.6409   2.6955   2.7193   2.7227   2.9532   2.9623   3.4486
     3.4842   3.7108   3.9723   4.0179   4.1390   4.2008   4.4949   4.6286
     4.8259   4.8548   5.0301   5.0824   5.1402   5.2573   5.4009   5.6097
     5.6757   5.7198   5.9277   6.2118

          k = 0.0298 0.0684 0.0000 ( 33808 PWs)   bands (ev):

   -65.8078 -65.8008 -65.7476 -65.7405 -65.5283 -65.5209 -58.1802 -58.1709
   -58.1329 -58.1227 -58.1193 -58.1092 -32.6502 -32.6424 -32.6143 -32.5434
   -32.5296 -32.5197 -32.4871 -32.4737 -32.4403 -32.3633 -32.3477 -32.2809
   -32.2648 -32.2209 -32.2203 -32.2125 -32.1402 -32.1255 -32.0978 -32.0772
   -31.9877 -31.9771 -31.9176 -31.8786 -31.8612 -31.7899 -31.7662 -31.7492
   -31.7367 -31.7117 -31.6918 -31.6680 -31.6080 -31.6039 -31.6029 -31.5599
   -17.5118 -17.5088 -17.5062 -17.5055 -17.5049 -17.4985 -17.4840 -17.4799
   -17.4744 -17.4724 -17.4428 -17.4399 -17.4386 -17.4379 -17.4362 -17.4346
   -17.4345 -17.4298 -17.4289 -17.4274 -17.4181 -17.4138 -17.4094 -17.4074
   -17.3748 -17.3747 -17.3691 -17.3676 -17.1743 -17.1738 -17.1736 -17.1732
   -17.1723 -17.1656 -17.1627 -17.1627 -17.1606 -17.1603 -17.1590 -17.1538
   -17.1526 -17.1515  -3.1078  -1.9033  -1.6248  -1.3603  -1.1173  -0.8199
    -0.7848  -0.7051  -0.6612  -0.6173  -0.3998   0.1420   0.3343   0.4026
     0.4588   0.5778   0.6418   0.7170   0.7969   0.8358   1.2181   1.3308
     1.3521   1.4340   1.6813   1.7124   1.8578   1.8955   1.9666   2.0846
     2.1353   2.3879   2.4304   2.6214   2.6797   2.9205   3.0688   3.1739
     3.1913   3.5721   3.7493   3.9335   4.1121   4.1998   4.2819   4.4745
     4.5428   4.6256   4.9163   5.0282   5.0709   5.2233   5.2893   5.4037
     5.5910   5.7466   5.9375   6.0606

          k = 0.0298-0.1053 0.0000 ( 33781 PWs)   bands (ev):

   -65.8067 -65.8019 -65.7465 -65.7416 -65.5272 -65.5219 -58.1787 -58.1725
   -58.1317 -58.1240 -58.1181 -58.1104 -32.6233 -32.6146 -32.5963 -32.5339
   -32.5066 -32.5001 -32.4975 -32.4585 -32.4563 -32.3871 -32.3395 -32.2631
   -32.2562 -32.2248 -32.2071 -32.1887 -32.1546 -32.1462 -32.1116 -32.0681
   -32.0423 -31.9956 -31.9172 -31.9000 -31.8471 -31.8049 -31.7730 -31.7588
   -31.7403 -31.7096 -31.7002 -31.6720 -31.6084 -31.6059 -31.5994 -31.5643
   -17.5113 -17.5092 -17.5061 -17.5056 -17.5040 -17.4994 -17.4835 -17.4805
   -17.4741 -17.4727 -17.4424 -17.4403 -17.4386 -17.4380 -17.4353 -17.4338
   -17.4336 -17.4307 -17.4298 -17.4283 -17.4176 -17.4145 -17.4092 -17.4077
   -17.3740 -17.3738 -17.3701 -17.3685 -17.1741 -17.1735 -17.1734 -17.1726
   -17.1718 -17.1649 -17.1643 -17.1625 -17.1610 -17.1599 -17.1594 -17.1548
   -17.1526 -17.1517  -2.7176  -2.2002  -1.3873  -1.1837  -1.0858  -0.6740
    -0.5645  -0.5367  -0.4822  -0.3909  -0.3589   0.2409   0.3062   0.4433
     0.5280   0.5335   0.6651   0.6760   0.6855   0.8127   1.1722   1.1867
     1.2692   1.4559   1.5438   1.5928   1.7101   1.7568   1.7933   1.8471
     1.9271   2.1175   2.3128   2.4263   2.4922   2.6490   3.0645   3.2468
     3.3844   3.5082   3.5908   3.9656   3.9777   4.2831   4.3661   4.4160
     4.6402   4.6709   4.7525   5.0240   5.0510   5.0677   5.1928   5.5651
     5.6243   5.7678   5.8761   5.9106

          k = 0.0298-0.0895 0.0000 ( 33785 PWs)   bands (ev):

   -65.8055 -65.8031 -65.7452 -65.7429 -65.5259 -65.5232 -58.1768 -58.1743
   -58.1301 -58.1255 -58.1165 -58.1119 -32.6143 -32.5970 -32.5802 -32.5589
   -32.5091 -32.5064 -32.4957 -32.4734 -32.4284 -32.4260 -32.3250 -32.3092
   -32.2795 -32.2326 -32.2240 -32.2070 -32.1915 -32.1804 -32.1006 -32.0394
   -32.0388 -31.9568 -31.9103 -31.8789 -31.8159 -31.8120 -31.7509 -31.7389
   -31.7289 -31.7068 -31.6986 -31.6731 -31.6105 -31.6035 -31.5941 -31.5696
   -17.5108 -17.5096 -17.5060 -17.5056 -17.5029 -17.5004 -17.4828 -17.4813
   -17.4738 -17.4730 -17.4418 -17.4407 -17.4385 -17.4380 -17.4342 -17.4328
   -17.4325 -17.4317 -17.4308 -17.4293 -17.4168 -17.4153 -17.4089 -17.4080
   -17.3730 -17.3728 -17.3711 -17.3696 -17.1738 -17.1736 -17.1732 -17.1726
   -17.1700 -17.1662 -17.1640 -17.1622 -17.1612 -17.1610 -17.1584 -17.1559
   -17.1524 -17.1519  -2.5751  -2.3231  -1.2537  -1.1856  -1.1177  -0.6446
    -0.6069  -0.5825  -0.3768  -0.2181  -0.0797   0.0102   0.2146   0.4629
     0.5290   0.5520   0.6117   0.6137   0.8984   0.9145   0.9813   1.0792
     1.2193   1.2348   1.2456   1.3885   1.5344   1.7069   1.7105   1.7914
     1.8884   1.9026   1.9505   2.1855   2.6549   2.8342   3.0739   3.2208
     3.4402   3.6594   3.7802   4.0811   4.1779   4.4162   4.5247   4.5611
     4.6881   4.7374   4.9376   5.0321   5.1480   5.1775   5.2349   5.5889
     5.6871   5.7555   5.8529   5.8664

          k = 0.0298-0.0737 0.0000 ( 33817 PWs)   bands (ev):

   -65.8045 -65.8042 -65.7443 -65.7439 -65.5246 -65.5246 -58.1760 -58.1750
   -58.1285 -58.1271 -58.1149 -58.1135 -32.6210 -32.6152 -32.5980 -32.5776
   -32.5271 -32.5176 -32.5075 -32.4821 -32.4482 -32.3978 -32.3640 -32.3207
   -32.3138 -32.3095 -32.2815 -32.2137 -32.2031 -32.1878 -32.0593 -32.0270
   -31.9958 -31.9306 -31.8951 -31.8315 -31.7949 -31.7811 -31.7117 -31.7064
   -31.7015 -31.6994 -31.6778 -31.6725 -31.6105 -31.6014 -31.5867 -31.5750
   -17.5103 -17.5101 -17.5059 -17.5056 -17.5017 -17.5015 -17.4821 -17.4820
   -17.4735 -17.4733 -17.4413 -17.4411 -17.4383 -17.4380 -17.4330 -17.4328
   -17.4318 -17.4315 -17.4313 -17.4304 -17.4161 -17.4161 -17.4085 -17.4083
   -17.3721 -17.3718 -17.3715 -17.3707 -17.1738 -17.1736 -17.1729 -17.1727
   -17.1682 -17.1679 -17.1629 -17.1621 -17.1617 -17.1616 -17.1572 -17.1571
   -17.1521 -17.1519  -2.9729  -1.9795  -1.4268  -1.2492  -1.1823  -0.8506
    -0.7325  -0.7210  -0.5452  -0.2914  -0.1670   0.2373   0.2663   0.3498
     0.5439   0.5802   0.5985   0.6182   0.7006   0.9367   1.0178   1.0182
     1.0703   1.0748   1.1990   1.2956   1.3717   1.6880   1.7313   1.7776
     1.8484   1.8855   1.8993   2.2522   2.7572   2.9157   3.1662   3.4295
     3.6387   3.9912   4.0487   4.1189   4.3448   4.4552   4.7598   4.7918
     4.9056   4.9522   4.9892   5.1213   5.2956   5.3763   5.5546   5.6130
     5.6161   5.7118   5.7813   5.8760

          k = 0.0298-0.0580 0.0000 ( 33854 PWs)   bands (ev):

   -65.8058 -65.8029 -65.7456 -65.7426 -65.5259 -65.5233 -58.1777 -58.1731
   -58.1288 -58.1267 -58.1152 -58.1132 -32.6435 -32.6403 -32.6378 -32.6171
   -32.5752 -32.5537 -32.4885 -32.4756 -32.4627 -32.4048 -32.3967 -32.3776
   -32.3511 -32.3059 -32.2971 -32.2179 -32.2049 -32.1825 -32.0263 -32.0226
   -31.9680 -31.9370 -31.8648 -31.7876 -31.7578 -31.7547 -31.7144 -31.6731
   -31.6690 -31.6502 -31.6465 -31.6443 -31.6084 -31.6002 -31.5786 -31.5751
   -17.5106 -17.5097 -17.5057 -17.5056 -17.5027 -17.5005 -17.4828 -17.4812
   -17.4736 -17.4731 -17.4417 -17.4408 -17.4382 -17.4380 -17.4340 -17.4325
   -17.4318 -17.4316 -17.4302 -17.4301 -17.4169 -17.4152 -17.4086 -17.4081
   -17.3728 -17.3719 -17.3704 -17.3703 -17.1739 -17.1733 -17.1728 -17.1726
   -17.1701 -17.1657 -17.1632 -17.1619 -17.1617 -17.1613 -17.1583 -17.1560
   -17.1519 -17.1518  -3.3456  -1.7665  -1.7387  -1.3350  -1.2877  -1.1879
    -0.9098  -0.8602  -0.8037  -0.5850  -0.2548   0.1464   0.2435   0.3131
     0.4123   0.6129   0.6221   0.6286   0.7494   0.7744   0.9873   1.0144
     1.0294   1.0450   1.0705   1.1484   1.5615   1.7893   1.8133   1.8771
     1.9808   2.1518   2.2830   2.5021   2.5592   3.0880   3.2688   3.8354
     3.8932   3.9710   4.3012   4.3823   4.5863   4.6746   4.9098   4.9533
     4.9735   4.9825   5.0783   5.3444   5.3852   5.4072   5.6121   5.6348
     5.6564   5.8734   5.8785   5.9164

          k = 0.0298-0.0422 0.0000 ( 33859 PWs)   bands (ev):

   -65.8070 -65.8017 -65.7469 -65.7414 -65.5272 -65.5220 -58.1792 -58.1713
   -58.1304 -58.1250 -58.1168 -58.1114 -32.6861 -32.6642 -32.6630 -32.6587
   -32.6163 -32.5917 -32.5198 -32.4845 -32.4668 -32.4423 -32.4005 -32.3940
   -32.3526 -32.2942 -32.2822 -32.2127 -32.1957 -32.1791 -32.0262 -32.0259
   -31.9536 -31.9315 -31.8368 -31.7753 -31.7410 -31.7214 -31.7128 -31.6505
   -31.6367 -31.6178 -31.6091 -31.6030 -31.6025 -31.6001 -31.5758 -31.5537
   -17.5112 -17.5092 -17.5056 -17.5055 -17.5038 -17.4995 -17.4835 -17.4805
   -17.4738 -17.4727 -17.4422 -17.4403 -17.4380 -17.4379 -17.4351 -17.4332
   -17.4326 -17.4308 -17.4289 -17.4289 -17.4176 -17.4144 -17.4089 -17.4078
   -17.3734 -17.3729 -17.3691 -17.3691 -17.1741 -17.1731 -17.1729 -17.1723
   -17.1719 -17.1641 -17.1637 -17.1622 -17.1610 -17.1605 -17.1593 -17.1548
   -17.1518 -17.1514  -3.6569  -2.0358  -1.7440  -1.5090  -1.4504  -1.3224
    -1.0657  -1.0585  -1.0006  -0.8445  -0.4089  -0.1482   0.0375   0.3246
     0.5238   0.5475   0.5760   0.5850   0.6472   0.6766   0.8783   0.8790
     1.0607   1.2157   1.2609   1.2701   1.7749   1.8359   2.0543   2.1386
     2.1572   2.3637   2.6900   2.7941   2.8079   3.1693   3.3080   3.9280
     4.0000   4.3135   4.5089   4.7534   4.7736   4.8645   4.8851   5.0717
     5.0767   5.1823   5.2253   5.2394   5.2538   5.4727   5.4928   5.5922
     5.6951   5.8076   5.9720   6.0093

          k = 0.0298-0.0264 0.0000 ( 33906 PWs)   bands (ev):

   -65.8080 -65.8007 -65.7479 -65.7403 -65.5283 -65.5209 -58.1805 -58.1698
   -58.1319 -58.1235 -58.1182 -58.1100 -32.7214 -32.6879 -32.6861 -32.6828
   -32.6433 -32.6203 -32.5477 -32.5245 -32.4868 -32.4376 -32.4002 -32.3864
   -32.3402 -32.2802 -32.2531 -32.2071 -32.1775 -32.1767 -32.0432 -32.0419
   -31.9646 -31.8922 -31.8173 -31.7814 -31.7369 -31.7241 -31.6880 -31.6395
   -31.6098 -31.6075 -31.6026 -31.5916 -31.5845 -31.5768 -31.5636 -31.5267
   -17.5116 -17.5088 -17.5056 -17.5053 -17.5047 -17.4985 -17.4841 -17.4798
   -17.4741 -17.4724 -17.4426 -17.4399 -17.4380 -17.4378 -17.4360 -17.4338
   -17.4336 -17.4298 -17.4278 -17.4278 -17.4182 -17.4138 -17.4091 -17.4075
   -17.3740 -17.3739 -17.3681 -17.3680 -17.1744 -17.1734 -17.1731 -17.1730
   -17.1721 -17.1649 -17.1625 -17.1620 -17.1606 -17.1602 -17.1595 -17.1538
   -17.1518 -17.1512  -3.8819  -2.2625  -1.8062  -1.7570  -1.5449  -1.3137
    -1.2641  -1.1764  -1.1028  -1.0474  -0.5756  -0.3784  -0.0916   0.3678
     0.4556   0.4835   0.5328   0.5529   0.5813   0.6468   0.7717   0.8053
     1.1224   1.3969   1.4598   1.5554   1.8587   1.9836   2.2019   2.3504
     2.4972   2.5082   2.9167   3.1695   3.1840   3.3249   3.3349   3.9689
     4.0734   4.5914   4.6623   4.7719   4.8126   5.0046   5.0580   5.0942
     5.1486   5.1863   5.2518   5.2748   5.3124   5.4527   5.4620   5.6396
     5.6868   5.7646   5.9112   6.0719

          k = 0.0447-0.0158 0.0000 ( 33860 PWs)   bands (ev):

   -65.8080 -65.8007 -65.7479 -65.7404 -65.5283 -65.5209 -58.1804 -58.1701
   -58.1320 -58.1233 -58.1184 -58.1098 -32.7113 -32.6764 -32.6753 -32.6612
   -32.6179 -32.5958 -32.5344 -32.5318 -32.4575 -32.4321 -32.3832 -32.3624
   -32.3235 -32.2839 -32.2411 -32.1922 -32.1832 -32.1699 -32.0484 -32.0458
   -31.9647 -31.9065 -31.8317 -31.8071 -31.7760 -31.7510 -31.6866 -31.6594
   -31.6484 -31.6403 -31.6142 -31.6031 -31.5913 -31.5887 -31.5565 -31.5224
   -17.5116 -17.5088 -17.5057 -17.5054 -17.5047 -17.4985 -17.4841 -17.4798
   -17.4741 -17.4724 -17.4427 -17.4399 -17.4381 -17.4378 -17.4361 -17.4339
   -17.4337 -17.4298 -17.4280 -17.4277 -17.4182 -17.4138 -17.4092 -17.4075
   -17.3742 -17.3740 -17.3683 -17.3679 -17.1743 -17.1734 -17.1733 -17.1730
   -17.1721 -17.1650 -17.1625 -17.1622 -17.1606 -17.1602 -17.1594 -17.1538
   -17.1520 -17.1512  -3.7461  -2.1471  -1.8546  -1.6607  -1.4775  -1.1801
    -1.1655  -1.1059  -1.0092  -0.9847  -0.5994  -0.2840   0.0708   0.4413
     0.4752   0.4943   0.5075   0.5794   0.5871   0.6730   0.8719   0.9422
     1.2380   1.4013   1.4649   1.5935   1.8093   1.9454   2.3199   2.3860
     2.4813   2.5931   2.7222   2.9694   3.0347   3.1225   3.2920   3.8232
     3.9553   4.1559   4.3926   4.6789   4.7189   4.7694   4.8931   4.9294
     5.0432   5.0603   5.1243   5.3160   5.3532   5.4532   5.5582   5.6300
     5.7709   5.8270   5.8666   5.8985

          k = 0.0447-0.0000 0.0000 ( 33877 PWs)   bands (ev):

   -65.8087 -65.7999 -65.7486 -65.7396 -65.5291 -65.5201 -58.1815 -58.1692
   -58.1333 -58.1221 -58.1197 -58.1086 -32.7193 -32.6822 -32.6765 -32.6528
   -32.6230 -32.5994 -32.5273 -32.5266 -32.4397 -32.4365 -32.3878 -32.3446
   -32.3123 -32.2716 -32.2080 -32.1849 -32.1779 -32.1530 -32.0791 -32.0657
   -31.9650 -31.8730 -31.8218 -31.8187 -31.7888 -31.7566 -31.7068 -31.6696
   -31.6504 -31.6481 -31.6288 -31.6004 -31.5940 -31.5890 -31.5720 -31.5297
   -17.5121 -17.5085 -17.5058 -17.5056 -17.5053 -17.4978 -17.4845 -17.4793
   -17.4744 -17.4722 -17.4431 -17.4396 -17.4382 -17.4377 -17.4369 -17.4346
   -17.4346 -17.4291 -17.4274 -17.4268 -17.4186 -17.4132 -17.4095 -17.4072
   -17.3749 -17.3748 -17.3677 -17.3670 -17.1746 -17.1745 -17.1736 -17.1730
   -17.1721 -17.1657 -17.1628 -17.1610 -17.1609 -17.1604 -17.1584 -17.1530
   -17.1522 -17.1511  -3.7936  -2.1980  -1.7989  -1.7565  -1.4479  -1.2799
    -1.1371  -1.1167  -1.0767  -0.9989  -0.6005  -0.3865  -0.0052   0.4243
     0.4793   0.4818   0.5519   0.5580   0.6325   0.8208   0.8466   0.9321
     1.3803   1.5533   1.6378   1.7864   1.8864   2.0837   2.3981   2.5926
     2.6358   2.7353   2.8260   2.8717   3.1070   3.2084   3.2948   3.8350
     3.9610   4.0797   4.3573   4.4355   4.4481   4.5151   4.7810   4.8498
     5.0407   5.0935   5.1391   5.2636   5.3494   5.4957   5.6401   5.6656
     5.7319   5.9003   5.9563   5.9899

          k = 0.0447 0.0158 0.0000 ( 33808 PWs)   bands (ev):

   -65.8092 -65.7995 -65.7491 -65.7391 -65.5297 -65.5195 -58.1820 -58.1687
   -58.1342 -58.1212 -58.1206 -58.1077 -32.7118 -32.6815 -32.6620 -32.6257
   -32.6150 -32.5909 -32.5024 -32.4970 -32.4414 -32.4013 -32.3919 -32.3309
   -32.3064 -32.2615 -32.1873 -32.1791 -32.1634 -32.1411 -32.1091 -32.0832
   -31.9627 -31.8425 -31.8391 -31.8100 -31.8027 -31.7686 -31.7488 -31.6879
   -31.6808 -31.6578 -31.6533 -31.6071 -31.6067 -31.6049 -31.5907 -31.5555
   -17.5123 -17.5083 -17.5060 -17.5060 -17.5053 -17.4974 -17.4847 -17.4790
   -17.4746 -17.4721 -17.4433 -17.4394 -17.4384 -17.4377 -17.4373 -17.4352
   -17.4351 -17.4287 -17.4272 -17.4262 -17.4188 -17.4129 -17.4096 -17.4071
   -17.3755 -17.3753 -17.3674 -17.3664 -17.1753 -17.1746 -17.1739 -17.1730
   -17.1721 -17.1662 -17.1630 -17.1613 -17.1604 -17.1602 -17.1578 -17.1525
   -17.1524 -17.1510  -3.7364  -2.1450  -1.7669  -1.6872  -1.3533  -1.3027
    -1.0952  -1.0943  -1.0665  -0.9277  -0.4887  -0.4010  -0.0520   0.4470
     0.4957   0.5104   0.5582   0.5683   0.8255   0.8744   0.9515   0.9617
     1.5518   1.6970   1.7436   1.8690   1.9841   2.1624   2.4079   2.4829
     2.6714   2.7491   2.8659   2.9756   3.0085   3.0291   3.2138   3.8644
     3.8827   3.9089   4.1340   4.2079   4.2767   4.2886   4.6792   4.6919
     5.0421   5.0565   5.0682   5.1215   5.2122   5.5228   5.6307   5.6884
     5.7526   5.8962   6.0635   6.1034

          k = 0.0447 0.0316 0.0000 ( 33838 PWs)   bands (ev):

   -65.8093 -65.7993 -65.7492 -65.7390 -65.5298 -65.5193 -58.1822 -58.1688
   -58.1347 -58.1211 -58.1209 -58.1073 -32.6935 -32.6735 -32.6390 -32.5929
   -32.5843 -32.5680 -32.4742 -32.4513 -32.4294 -32.3960 -32.3530 -32.3209
   -32.3021 -32.2576 -32.1919 -32.1664 -32.1484 -32.1395 -32.1230 -32.0906
   -31.9598 -31.8610 -31.8247 -31.8195 -31.8193 -31.7996 -31.7841 -31.7272
   -31.7139 -31.7010 -31.6628 -31.6450 -31.6322 -31.6167 -31.5924 -31.5792
   -17.5124 -17.5083 -17.5062 -17.5062 -17.5054 -17.4973 -17.4848 -17.4789
   -17.4747 -17.4720 -17.4434 -17.4394 -17.4386 -17.4378 -17.4376 -17.4356
   -17.4355 -17.4286 -17.4273 -17.4260 -17.4189 -17.4128 -17.4098 -17.4070
   -17.3759 -17.3757 -17.3676 -17.3662 -17.1757 -17.1746 -17.1741 -17.1730
   -17.1722 -17.1665 -17.1631 -17.1615 -17.1604 -17.1602 -17.1577 -17.1527
   -17.1523 -17.1511  -3.5802  -2.0002  -1.7118  -1.5694  -1.2398  -1.2162
    -1.0263  -1.0162  -0.9734  -0.8012  -0.3278  -0.3247  -0.0270   0.4894
     0.5243   0.5778   0.5938   0.5969   0.9578   1.0315   1.0408   1.0681
     1.7405   1.7511   1.7714   1.8400   1.9696   2.2010   2.3007   2.4952
     2.5458   2.7149   2.7673   2.8148   2.8152   2.9352   3.1000   3.6268
     3.6672   3.8022   3.8257   4.0157   4.1371   4.1649   4.4822   4.5852
     4.8707   4.8950   5.0103   5.1053   5.2749   5.3681   5.6796   5.6870
     5.6962   5.7825   6.0802   6.1870

          k = 0.0447 0.0474 0.0000 ( 33831 PWs)   bands (ev):

   -65.8091 -65.7995 -65.7489 -65.7392 -65.5296 -65.5195 -58.1819 -58.1693
   -58.1347 -58.1211 -58.1210 -58.1074 -32.6689 -32.6594 -32.6148 -32.5586
   -32.5363 -32.5330 -32.4632 -32.4352 -32.3763 -32.3648 -32.3523 -32.3114
   -32.2608 -32.2604 -32.2018 -32.1744 -32.1480 -32.1297 -32.1180 -32.0881
   -31.9590 -31.8949 -31.8764 -31.8742 -31.8230 -31.8187 -31.7873 -31.7626
   -31.7392 -31.7369 -31.7059 -31.6762 -31.6530 -31.6210 -31.5956 -31.5873
   -17.5124 -17.5084 -17.5063 -17.5061 -17.5055 -17.4974 -17.4847 -17.4790
   -17.4747 -17.4721 -17.4434 -17.4395 -17.4387 -17.4379 -17.4375 -17.4357
   -17.4356 -17.4287 -17.4277 -17.4261 -17.4188 -17.4129 -17.4098 -17.4071
   -17.3759 -17.3758 -17.3680 -17.3663 -17.1755 -17.1746 -17.1743 -17.1731
   -17.1723 -17.1665 -17.1631 -17.1614 -17.1608 -17.1603 -17.1578 -17.1529
   -17.1525 -17.1513  -3.3362  -1.7850  -1.6169  -1.5337  -1.0880  -1.0657
    -0.8823  -0.8711  -0.8441  -0.6385  -0.2397  -0.1588   0.1460   0.4940
     0.5466   0.6227   0.6356   0.6791   1.0905   1.1095   1.1748   1.1906
     1.6199   1.6881   1.7982   1.8709   1.9132   2.0781   2.1370   2.4536
     2.5427   2.5431   2.5751   2.6502   2.7130   2.7314   3.1220   3.2811
     3.4450   3.4518   3.6494   3.9198   3.9439   4.0492   4.2709   4.5005
     4.7170   4.7390   4.9637   5.0283   5.0899   5.2524   5.3928   5.6939
     5.6986   5.7355   5.7705   5.9439

          k = 0.0447 0.0632 0.0000 ( 33832 PWs)   bands (ev):

   -65.8085 -65.8000 -65.7483 -65.7397 -65.5291 -65.5200 -58.1813 -58.1702
   -58.1343 -58.1215 -58.1207 -58.1079 -32.6413 -32.6400 -32.5923 -32.5186
   -32.4992 -32.4943 -32.4681 -32.4255 -32.3790 -32.3440 -32.3204 -32.2860
   -32.2598 -32.2180 -32.2065 -32.1883 -32.1457 -32.1237 -32.1099 -32.0920
   -31.9941 -31.9513 -31.9211 -31.8904 -31.8702 -31.8256 -31.7940 -31.7740
   -31.7572 -31.7419 -31.7416 -31.7119 -31.6538 -31.6207 -31.5999 -31.5911
   -17.5122 -17.5086 -17.5064 -17.5057 -17.5055 -17.4979 -17.4845 -17.4794
   -17.4747 -17.4722 -17.4432 -17.4397 -17.4388 -17.4379 -17.4370 -17.4354
   -17.4354 -17.4292 -17.4284 -17.4266 -17.4186 -17.4133 -17.4097 -17.4072
   -17.3757 -17.3756 -17.3687 -17.3668 -17.1748 -17.1745 -17.1742 -17.1732
   -17.1724 -17.1663 -17.1630 -17.1617 -17.1610 -17.1604 -17.1582 -17.1530
   -17.1530 -17.1515  -3.0201  -1.6436  -1.5341  -1.5093  -0.9313  -0.8534
    -0.7089  -0.6744  -0.6613  -0.4758  -0.1949   0.0909   0.3535   0.4159
     0.5450   0.6654   0.6799   0.7197   1.0194   1.1066   1.2904   1.3460
     1.3975   1.5265   1.7887   1.8144   1.8253   1.9957   2.0499   2.0790
     2.1819   2.3077   2.4956   2.5197   2.6887   2.8310   3.0388   3.1263
     3.1656   3.3045   3.5297   3.7559   3.9177   3.9858   4.1190   4.2953
     4.4573   4.4927   4.9367   5.0515   5.0765   5.1348   5.1821   5.3389
     5.7023   5.7309   5.8258   5.9700

          k = 0.0447-0.1106 0.0000 ( 33775 PWs)   bands (ev):

   -65.8077 -65.8009 -65.7475 -65.7406 -65.5283 -65.5208 -58.1800 -58.1714
   -58.1333 -58.1225 -58.1197 -58.1089 -32.6232 -32.6078 -32.5758 -32.4828
   -32.4815 -32.4786 -32.4723 -32.4218 -32.4022 -32.3496 -32.3202 -32.2655
   -32.2470 -32.2228 -32.1949 -32.1906 -32.1402 -32.1336 -32.1316 -32.0919
   -32.0559 -31.9762 -31.9126 -31.8984 -31.8721 -31.8230 -31.8088 -31.7698
   -31.7673 -31.7512 -31.7419 -31.7216 -31.6526 -31.6175 -31.6049 -31.5949
   -17.5118 -17.5089 -17.5063 -17.5056 -17.5050 -17.4985 -17.4840 -17.4799
   -17.4745 -17.4724 -17.4429 -17.4399 -17.4388 -17.4380 -17.4363 -17.4348
   -17.4348 -17.4298 -17.4292 -17.4273 -17.4181 -17.4139 -17.4095 -17.4074
   -17.3751 -17.3750 -17.3694 -17.3675 -17.1743 -17.1740 -17.1736 -17.1733
   -17.1725 -17.1659 -17.1629 -17.1628 -17.1606 -17.1603 -17.1589 -17.1538
   -17.1529 -17.1516  -2.6527  -1.8951  -1.4239  -1.2976  -0.8538  -0.5928
    -0.5470  -0.4941  -0.3901  -0.3646  -0.1542   0.2570   0.4128   0.4391
     0.5238   0.6098   0.6913   0.7895   0.8665   0.9034   1.2094   1.2780
     1.3195   1.5109   1.5426   1.5942   1.6919   1.8149   1.8890   1.9274
     2.0256   2.1473   2.3133   2.3179   2.5657   2.8361   2.9265   3.0068
     3.2623   3.2765   3.5170   3.5498   3.9269   4.0897   4.1819   4.3631
     4.4551   4.4940   4.8881   4.9663   5.0976   5.1082   5.1108   5.2945
     5.7167   5.7499   5.8695   6.0603

          k = 0.0447-0.0948 0.0000 ( 33778 PWs)   bands (ev):

   -65.8066 -65.8019 -65.7464 -65.7417 -65.5272 -65.5219 -58.1785 -58.1728
   -58.1320 -58.1238 -58.1184 -58.1102 -32.6105 -32.5767 -32.5711 -32.4966
   -32.4849 -32.4726 -32.4638 -32.4344 -32.4205 -32.3705 -32.3129 -32.2972
   -32.2782 -32.2212 -32.2186 -32.2076 -32.1929 -32.1877 -32.1215 -32.0580
   -32.0505 -31.9354 -31.9061 -31.8755 -31.8324 -31.8197 -31.8004 -31.7572
   -31.7501 -31.7460 -31.7421 -31.7132 -31.6490 -31.6130 -31.6098 -31.5988
   -17.5114 -17.5092 -17.5063 -17.5057 -17.5040 -17.4994 -17.4835 -17.4806
   -17.4742 -17.4727 -17.4424 -17.4403 -17.4387 -17.4380 -17.4353 -17.4339
   -17.4338 -17.4307 -17.4301 -17.4281 -17.4175 -17.4146 -17.4093 -17.4077
   -17.3742 -17.3741 -17.3704 -17.3684 -17.1740 -17.1737 -17.1735 -17.1726
   -17.1719 -17.1651 -17.1645 -17.1626 -17.1609 -17.1598 -17.1595 -17.1548
   -17.1528 -17.1518  -2.2636  -2.2453  -1.3951  -1.1473  -0.8984  -0.5459
    -0.4138  -0.3811  -0.1930  -0.1745  -0.0907   0.1632   0.2485   0.4883
     0.4915   0.6405   0.6881   0.7515   0.8651   0.8700   1.0776   1.1480
     1.1702   1.2428   1.2729   1.3367   1.5662   1.7433   1.7558   1.7623
     1.8508   1.9174   1.9702   2.3346   2.5364   2.8293   2.8888   3.2246
     3.2253   3.4307   3.5494   3.6772   4.0701   4.2645   4.5001   4.5800
     4.5855   4.6371   4.9695   5.0114   5.0244   5.1017   5.1877   5.6379
     5.7263   5.7961   5.8634   6.0350

          k = 0.0447-0.0790 0.0000 ( 33768 PWs)   bands (ev):

   -65.8054 -65.8032 -65.7452 -65.7429 -65.5259 -65.5232 -58.1767 -58.1743
   -58.1303 -58.1253 -58.1168 -58.1117 -32.6090 -32.5911 -32.5405 -32.5360
   -32.5092 -32.4984 -32.4856 -32.4428 -32.4018 -32.3810 -32.3666 -32.3108
   -32.3063 -32.2955 -32.2743 -32.2349 -32.2122 -32.1874 -32.0883 -32.0394
[...]
   -32.2599 -32.2315 -32.2086 -32.1939 -32.1914 -32.1869 -32.1388 -32.0826
   -32.0675 -31.9229 -31.9001 -31.8857 -31.8799 -31.8594 -31.8497 -31.8012
   -31.7867 -31.7796 -31.7510 -31.7442 -31.7073 -31.6246 -31.6220 -31.6052
   -17.5119 -17.5089 -17.5065 -17.5057 -17.5050 -17.4985 -17.4840 -17.4799
   -17.4745 -17.4724 -17.4429 -17.4399 -17.4389 -17.4380 -17.4364 -17.4350
   -17.4349 -17.4298 -17.4295 -17.4272 -17.4181 -17.4139 -17.4096 -17.4074
   -17.3752 -17.3752 -17.3697 -17.3674 -17.1743 -17.1741 -17.1736 -17.1734
   -17.1725 -17.1660 -17.1631 -17.1629 -17.1606 -17.1603 -17.1588 -17.1538
   -17.1531 -17.1517  -2.1685  -1.8847  -1.7177  -1.0580  -0.6375  -0.4551
    -0.3692  -0.3282  -0.1400  -0.1308   0.1377   0.1560   0.3803   0.5765
     0.5927   0.6667   0.7210   0.8362   0.8419   0.9247   1.0806   1.0867
     1.1596   1.3302   1.4436   1.5256   1.6916   1.7018   1.7601   1.8036
     1.9739   2.0888   2.2179   2.3926   2.5052   2.7143   2.7545   2.9536
     3.0883   3.2745   3.3150   3.3576   3.9848   4.0538   4.3234   4.4387
     4.5708   4.7956   4.8632   4.8692   4.8920   5.0403   5.1803   5.2862
     5.5356   5.6604   5.6684   5.8962

          k = 0.0745-0.0738 0.0000 ( 33778 PWs)   bands (ev):

   -65.8066 -65.8019 -65.7464 -65.7417 -65.5272 -65.5219 -58.1785 -58.1728
   -58.1320 -58.1238 -58.1184 -58.1102 -32.6105 -32.5767 -32.5711 -32.4966
   -32.4849 -32.4726 -32.4638 -32.4344 -32.4205 -32.3705 -32.3129 -32.2972
   -32.2782 -32.2212 -32.2186 -32.2076 -32.1929 -32.1877 -32.1215 -32.0580
   -32.0505 -31.9354 -31.9061 -31.8755 -31.8324 -31.8197 -31.8004 -31.7572
   -31.7501 -31.7460 -31.7421 -31.7132 -31.6490 -31.6130 -31.6098 -31.5988
   -17.5114 -17.5092 -17.5063 -17.5057 -17.5040 -17.4994 -17.4835 -17.4806
   -17.4742 -17.4727 -17.4424 -17.4403 -17.4387 -17.4380 -17.4353 -17.4339
   -17.4338 -17.4307 -17.4301 -17.4281 -17.4175 -17.4146 -17.4093 -17.4077
   -17.3742 -17.3741 -17.3704 -17.3684 -17.1740 -17.1737 -17.1735 -17.1726
   -17.1719 -17.1651 -17.1645 -17.1626 -17.1609 -17.1598 -17.1595 -17.1548
   -17.1528 -17.1518  -2.2636  -2.2453  -1.3951  -1.1473  -0.8984  -0.5459
    -0.4138  -0.3811  -0.1930  -0.1745  -0.0907   0.1632   0.2485   0.4883
     0.4915   0.6405   0.6881   0.7515   0.8651   0.8700   1.0776   1.1480
     1.1702   1.2428   1.2729   1.3367   1.5662   1.7433   1.7558   1.7623
     1.8508   1.9174   1.9702   2.3346   2.5364   2.8293   2.8888   3.2246
     3.2253   3.4307   3.5494   3.6772   4.0701   4.2645   4.5001   4.5800
     4.5855   4.6371   4.9695   5.0114   5.0244   5.1017   5.1877   5.6379
     5.7263   5.7961   5.8634   6.0353

          k = 0.0745-0.0580 0.0000 ( 33785 PWs)   bands (ev):

   -65.8055 -65.8031 -65.7452 -65.7429 -65.5259 -65.5232 -58.1768 -58.1743
   -58.1301 -58.1255 -58.1165 -58.1119 -32.6143 -32.5970 -32.5802 -32.5589
   -32.5091 -32.5064 -32.4957 -32.4734 -32.4284 -32.4260 -32.3250 -32.3092
   -32.2795 -32.2326 -32.2240 -32.2070 -32.1915 -32.1804 -32.1006 -32.0394
   -32.0388 -31.9568 -31.9103 -31.8789 -31.8159 -31.8120 -31.7509 -31.7389
   -31.7289 -31.7068 -31.6986 -31.6731 -31.6105 -31.6035 -31.5941 -31.5696
   -17.5108 -17.5096 -17.5060 -17.5056 -17.5029 -17.5004 -17.4828 -17.4813
   -17.4738 -17.4730 -17.4418 -17.4407 -17.4385 -17.4380 -17.4342 -17.4328
   -17.4325 -17.4317 -17.4308 -17.4293 -17.4168 -17.4153 -17.4089 -17.4080
   -17.3730 -17.3728 -17.3711 -17.3696 -17.1738 -17.1736 -17.1732 -17.1726
   -17.1700 -17.1662 -17.1640 -17.1622 -17.1612 -17.1610 -17.1584 -17.1559
   -17.1524 -17.1519  -2.5751  -2.3231  -1.2537  -1.1856  -1.1177  -0.6446
    -0.6069  -0.5825  -0.3768  -0.2181  -0.0797   0.0102   0.2146   0.4629
     0.5290   0.5520   0.6117   0.6137   0.8984   0.9145   0.9813   1.0792
     1.2193   1.2348   1.2456   1.3885   1.5344   1.7069   1.7105   1.7914
     1.8884   1.9026   1.9505   2.1855   2.6549   2.8342   3.0739   3.2208
     3.4402   3.6594   3.7802   4.0811   4.1779   4.4162   4.5247   4.5611
     4.6881   4.7374   4.9376   5.0321   5.1480   5.1775   5.2349   5.5889
     5.6871   5.7555   5.8529   5.8665

          k = 0.0745-0.0422 0.0000 ( 33789 PWs)   bands (ev):

   -65.8044 -65.8042 -65.7442 -65.7440 -65.5246 -65.5246 -58.1758 -58.1752
   -58.1281 -58.1274 -58.1146 -58.1138 -32.6221 -32.6158 -32.6074 -32.5929
   -32.5312 -32.5215 -32.5161 -32.5075 -32.4671 -32.4188 -32.3217 -32.3100
   -32.2692 -32.2472 -32.2384 -32.1981 -32.1884 -32.1658 -32.0775 -32.0318
   -32.0310 -31.9772 -31.9098 -31.8885 -31.8151 -31.8038 -31.7453 -31.7385
   -31.6847 -31.6835 -31.6595 -31.6561 -31.6013 -31.5968 -31.5543 -31.5496
   -17.5102 -17.5102 -17.5058 -17.5057 -17.5017 -17.5016 -17.4821 -17.4820
   -17.4734 -17.4733 -17.4413 -17.4412 -17.4382 -17.4381 -17.4330 -17.4329
   -17.4318 -17.4316 -17.4311 -17.4306 -17.4161 -17.4161 -17.4085 -17.4083
   -17.3720 -17.3718 -17.3713 -17.3708 -17.1737 -17.1736 -17.1729 -17.1727
   -17.1681 -17.1679 -17.1627 -17.1622 -17.1617 -17.1616 -17.1572 -17.1571
   -17.1521 -17.1519  -2.8403  -2.3272  -1.4247  -1.3264  -0.9328  -0.8558
    -0.7250  -0.7141  -0.4814  -0.3742  -0.2522   0.0398   0.3008   0.4532
     0.4556   0.5236   0.5418   0.6273   0.6610   0.9343   0.9912   1.0960
     1.1781   1.3048   1.3519   1.4366   1.6384   1.6662   1.7595   1.8253
     2.0004   2.0334   2.0817   2.1031   2.7128   2.8151   3.2082   3.2812
     3.5297   3.7007   4.0961   4.1306   4.2961   4.4319   4.5351   4.8259
     4.8636   4.8981   4.9269   4.9612   5.1120   5.2194   5.3669   5.3877
     5.3940   5.4915   5.8120   5.8310

          k =-0.0893 0.0317 0.0000 ( 33762 PWs)   bands (ev):

   -65.8043 -65.8043 -65.7441 -65.7441 -65.5246 -65.5246 -58.1755 -58.1754
   -58.1277 -58.1277 -58.1141 -58.1141 -32.6195 -32.6195 -32.6052 -32.6052
   -32.5333 -32.5333 -32.5191 -32.5191 -32.4432 -32.4432 -32.3080 -32.3080
   -32.2333 -32.2333 -32.1959 -32.1959 -32.1699 -32.1699 -32.0623 -32.0623
   -32.0278 -32.0278 -31.9154 -31.9154 -31.8163 -31.8163 -31.7595 -31.7595
   -31.6753 -31.6753 -31.6513 -31.6513 -31.5952 -31.5952 -31.5414 -31.5414
   -17.5102 -17.5102 -17.5057 -17.5057 -17.5016 -17.5016 -17.4821 -17.4821
   -17.4734 -17.4734 -17.4412 -17.4412 -17.4381 -17.4381 -17.4329 -17.4329
   -17.4316 -17.4316 -17.4308 -17.4308 -17.4161 -17.4161 -17.4084 -17.4084
   -17.3719 -17.3719 -17.3711 -17.3711 -17.1737 -17.1736 -17.1728 -17.1728
   -17.1680 -17.1680 -17.1625 -17.1625 -17.1617 -17.1616 -17.1572 -17.1571
   -17.1520 -17.1520  -2.6221  -2.6221  -1.3932  -1.3932  -0.8478  -0.8478
    -0.7166  -0.7166  -0.4470  -0.4470  -0.1431  -0.1431   0.3589   0.3589
     0.4505   0.4505   0.6031   0.6032   0.8546   0.8546   0.9522   0.9522
     1.2957   1.2957   1.6015   1.6015   1.6861   1.6861   1.7430   1.7430
     2.1669   2.1669   2.3194   2.3194   2.4004   2.4004   3.3812   3.3812
     3.4836   3.4836   4.1132   4.1132   4.1370   4.1370   4.7225   4.7225
     4.8831   4.8831   4.9462   4.9462   5.0818   5.0818   5.2906   5.2906
     5.3513   5.3513   5.8236   5.8236

          k =-0.0893 0.0475 0.0000 ( 33770 PWs)   bands (ev):

   -65.8056 -65.8031 -65.7453 -65.7428 -65.5259 -65.5232 -58.1771 -58.1739
   -58.1297 -58.1258 -58.1162 -58.1122 -32.6220 -32.6173 -32.6105 -32.5782
   -32.5266 -32.5225 -32.5174 -32.4992 -32.4586 -32.4184 -32.3292 -32.2843
   -32.2463 -32.2199 -32.2131 -32.1808 -32.1757 -32.1578 -32.0863 -32.0544
   -32.0325 -32.0170 -31.9188 -31.9078 -31.8293 -31.8079 -31.7632 -31.7576
   -31.6988 -31.6750 -31.6734 -31.6472 -31.6043 -31.5961 -31.5605 -31.5437
   -17.5108 -17.5097 -17.5059 -17.5056 -17.5028 -17.5004 -17.4828 -17.4813
   -17.4737 -17.4730 -17.4418 -17.4407 -17.4383 -17.4380 -17.4341 -17.4327
   -17.4323 -17.4317 -17.4306 -17.4295 -17.4168 -17.4153 -17.4088 -17.4081
   -17.3729 -17.3725 -17.3709 -17.3697 -17.1738 -17.1735 -17.1731 -17.1726
   -17.1700 -17.1660 -17.1638 -17.1621 -17.1613 -17.1611 -17.1584 -17.1559
   -17.1522 -17.1518  -2.7105  -2.4495  -1.4270  -1.2765  -0.9907  -0.7208
    -0.7080  -0.6553  -0.4397  -0.4339  -0.3319   0.0897   0.2759   0.4252
     0.4824   0.5011   0.6008   0.6352   0.6868   0.8641   1.0205   1.0715
     1.2602   1.3649   1.5879   1.6039   1.7190   1.7192   1.7282   1.7422
     2.0576   2.1400   2.3335   2.3821   2.4395   2.4685   3.2401   3.3852
     3.4564   3.4966   3.8873   4.0398   4.1950   4.2948   4.5129   4.6533
     4.6904   4.8222   4.9529   4.9700   5.0125   5.0496   5.2540   5.3599
     5.5506   5.6416   5.8003   5.8368

          k =-0.0893 0.0633 0.0000 ( 33781 PWs)   bands (ev):

   -65.8067 -65.8019 -65.7465 -65.7416 -65.5272 -65.5219 -58.1787 -58.1725
   -58.1317 -58.1240 -58.1181 -58.1104 -32.6233 -32.6146 -32.5963 -32.5339
   -32.5066 -32.5001 -32.4975 -32.4585 -32.4563 -32.3871 -32.3395 -32.2631
   -32.2562 -32.2248 -32.2071 -32.1887 -32.1546 -32.1462 -32.1116 -32.0681
   -32.0423 -31.9956 -31.9172 -31.9000 -31.8471 -31.8049 -31.7730 -31.7588
   -31.7403 -31.7096 -31.7002 -31.6720 -31.6084 -31.6059 -31.5994 -31.5643
   -17.5113 -17.5092 -17.5061 -17.5056 -17.5040 -17.4994 -17.4835 -17.4805
   -17.4741 -17.4727 -17.4424 -17.4403 -17.4386 -17.4380 -17.4353 -17.4338
   -17.4336 -17.4307 -17.4298 -17.4283 -17.4176 -17.4145 -17.4092 -17.4077
   -17.3740 -17.3738 -17.3701 -17.3685 -17.1741 -17.1735 -17.1734 -17.1726
   -17.1718 -17.1649 -17.1643 -17.1625 -17.1610 -17.1599 -17.1594 -17.1548
   -17.1526 -17.1517  -2.7176  -2.2002  -1.3873  -1.1837  -1.0858  -0.6740
    -0.5645  -0.5367  -0.4822  -0.3909  -0.3589   0.2409   0.3062   0.4433
     0.5280   0.5335   0.6651   0.6760   0.6855   0.8127   1.1722   1.1867
     1.2692   1.4559   1.5438   1.5928   1.7101   1.7568   1.7933   1.8471
     1.9271   2.1175   2.3128   2.4263   2.4922   2.6490   3.0645   3.2468
     3.3844   3.5082   3.5908   3.9656   3.9777   4.2831   4.3661   4.4160
     4.6402   4.6709   4.7525   5.0240   5.0510   5.0677   5.1929   5.5651
     5.6243   5.7678   5.8763   5.9105

          k =-0.0893 0.0791 0.0000 ( 33775 PWs)   bands (ev):

   -65.8077 -65.8009 -65.7475 -65.7406 -65.5283 -65.5208 -58.1800 -58.1714
   -58.1333 -58.1225 -58.1197 -58.1089 -32.6232 -32.6078 -32.5758 -32.4828
   -32.4815 -32.4786 -32.4723 -32.4218 -32.4022 -32.3496 -32.3202 -32.2655
   -32.2470 -32.2228 -32.1949 -32.1906 -32.1402 -32.1336 -32.1316 -32.0919
   -32.0559 -31.9762 -31.9126 -31.8984 -31.8721 -31.8230 -31.8088 -31.7698
   -31.7673 -31.7512 -31.7419 -31.7216 -31.6526 -31.6175 -31.6049 -31.5949
   -17.5118 -17.5089 -17.5063 -17.5056 -17.5050 -17.4985 -17.4840 -17.4799
   -17.4745 -17.4724 -17.4429 -17.4399 -17.4388 -17.4380 -17.4363 -17.4348
   -17.4348 -17.4298 -17.4292 -17.4273 -17.4181 -17.4139 -17.4095 -17.4074
   -17.3751 -17.3750 -17.3694 -17.3675 -17.1743 -17.1740 -17.1736 -17.1733
   -17.1725 -17.1659 -17.1629 -17.1628 -17.1607 -17.1603 -17.1589 -17.1538
   -17.1529 -17.1516  -2.6527  -1.8951  -1.4239  -1.2976  -0.8538  -0.5928
    -0.5470  -0.4941  -0.3901  -0.3646  -0.1542   0.2570   0.4128   0.4391
     0.5238   0.6098   0.6913   0.7895   0.8665   0.9034   1.2094   1.2780
     1.3195   1.5109   1.5426   1.5942   1.6919   1.8149   1.8890   1.9274
     2.0256   2.1473   2.3133   2.3179   2.5657   2.8361   2.9265   3.0068
     3.2623   3.2765   3.5170   3.5498   3.9269   4.0897   4.1819   4.3631
     4.4551   4.4940   4.8881   4.9662   5.0976   5.1082   5.1108   5.2945
     5.7167   5.7499   5.8693   6.0604

          k =-0.0893 0.0949 0.0000 ( 33797 PWs)   bands (ev):

   -65.8084 -65.8001 -65.7482 -65.7398 -65.5291 -65.5200 -58.1812 -58.1705
   -58.1346 -58.1214 -58.1210 -58.1077 -32.6212 -32.6029 -32.5551 -32.4774
   -32.4656 -32.4506 -32.4157 -32.3625 -32.3417 -32.2974 -32.2673 -32.2648
   -32.2462 -32.1997 -32.1830 -32.1813 -32.1501 -32.1360 -32.1228 -32.1131
   -32.0703 -31.9674 -31.9198 -31.9135 -31.9091 -31.8925 -31.8355 -31.8005
   -31.7995 -31.7760 -31.7701 -31.7652 -31.7071 -31.6272 -31.6235 -31.6006
   -17.5122 -17.5086 -17.5066 -17.5058 -17.5056 -17.4979 -17.4844 -17.4794
   -17.4747 -17.4722 -17.4433 -17.4397 -17.4390 -17.4380 -17.4371 -17.4357
   -17.4356 -17.4292 -17.4288 -17.4265 -17.4186 -17.4133 -17.4098 -17.4072
   -17.3760 -17.3759 -17.3690 -17.3667 -17.1748 -17.1745 -17.1744 -17.1733
   -17.1725 -17.1666 -17.1631 -17.1620 -17.1610 -17.1604 -17.1581 -17.1532
   -17.1530 -17.1516  -2.5292  -1.6783  -1.5722  -1.1920  -0.6383  -0.5989
    -0.5032  -0.4879  -0.4043  -0.1527   0.1129   0.3155   0.3700   0.4973
     0.6556   0.6984   0.7199   0.7764   1.0559   1.1028   1.1668   1.3132
     1.3835   1.5631   1.5982   1.6793   1.7578   1.7780   1.9374   2.1621
     2.1762   2.2090   2.2763   2.3295   2.5642   2.7148   2.7883   2.9446
     2.9961   3.1345   3.2122   3.5818   3.8750   3.9194   3.9708   4.2523
     4.3033   4.4187   4.7848   4.9153   4.9499   5.0280   5.0759   5.1515
     5.4071   5.5891   5.6637   5.8413

          k =-0.0893 0.1107 0.0000 ( 33772 PWs)   bands (ev):

   -65.8089 -65.7996 -65.7487 -65.7393 -65.5296 -65.5194 -58.1818 -58.1700
   -58.1354 -58.1218 -58.1206 -58.1070 -32.6186 -32.6008 -32.5401 -32.4840
   -32.4517 -32.4301 -32.3728 -32.3020 -32.2825 -32.2644 -32.2461 -32.2380
   -32.1945 -32.1768 -32.1677 -32.1626 -32.1545 -32.1514 -32.1327 -32.0941
   -32.0850 -31.9954 -31.9906 -31.9615 -31.9518 -31.8943 -31.8813 -31.8239
   -31.8238 -31.7956 -31.7919 -31.7817 -31.7396 -31.6403 -31.6332 -31.5979
   -17.5125 -17.5085 -17.5067 -17.5063 -17.5057 -17.4975 -17.4847 -17.4791
   -17.4749 -17.4721 -17.4435 -17.4395 -17.4392 -17.4380 -17.4376 -17.4363
   -17.4361 -17.4288 -17.4285 -17.4261 -17.4188 -17.4130 -17.4100 -17.4071
   -17.3765 -17.3764 -17.3687 -17.3663 -17.1756 -17.1748 -17.1746 -17.1733
   -17.1725 -17.1670 -17.1633 -17.1614 -17.1613 -17.1603 -17.1577 -17.1534
   -17.1525 -17.1515  -2.3605  -1.9256  -1.2952  -1.1075  -0.6317  -0.5290
    -0.4927  -0.4481  -0.4220   0.0531   0.3239   0.3906   0.4315   0.5629
     0.6886   0.7372   0.7795   0.7996   0.8449   1.2512   1.3498   1.4054
     1.4821   1.5870   1.7132   1.7141   1.7312   1.9205   2.0518   2.1136
     2.2345   2.2594   2.4242   2.4472   2.4795   2.4987   2.6328   2.8045
     2.8523   2.9823   3.4205   3.6776   3.7314   3.7978   3.8349   4.1260
     4.1509   4.4051   4.4136   4.5915   4.6545   4.9387   4.9574   5.1080
     5.1716   5.3558   5.6119   5.8708

          k =-0.0893-0.0631 0.0000 ( 33754 PWs)   bands (ev):

   -65.8091 -65.7994 -65.7489 -65.7391 -65.5298 -65.5193 -58.1821 -58.1698
   -58.1356 -58.1221 -58.1204 -58.1068 -32.6173 -32.6004 -32.5346 -32.4874
   -32.4465 -32.4229 -32.3583 -32.2789 -32.2575 -32.2458 -32.2363 -32.2142
   -32.2010 -32.1652 -32.1636 -32.1537 -32.1363 -32.1266 -32.1218 -32.1037
   -32.0644 -32.0420 -32.0374 -31.9927 -31.9847 -31.8932 -31.8902 -31.8368
   -31.8309 -31.8078 -31.7927 -31.7923 -31.7465 -31.6454 -31.6352 -31.5970
   -17.5126 -17.5084 -17.5067 -17.5064 -17.5056 -17.4973 -17.4848 -17.4790
   -17.4750 -17.4721 -17.4436 -17.4395 -17.4392 -17.4380 -17.4378 -17.4365
   -17.4363 -17.4286 -17.4283 -17.4259 -17.4189 -17.4129 -17.4101 -17.4071
   -17.3767 -17.3765 -17.3686 -17.3661 -17.1759 -17.1749 -17.1746 -17.1733
   -17.1725 -17.1671 -17.1634 -17.1616 -17.1611 -17.1603 -17.1575 -17.1535
   -17.1524 -17.1515  -2.1759  -2.1361  -1.1728  -1.0750  -0.6435  -0.5625
    -0.4453  -0.4367  -0.4253   0.1492   0.3899   0.4336   0.5485   0.6484
     0.6487   0.6692   0.6831   0.7994   0.8730   1.2821   1.4021   1.5256
     1.5329   1.5768   1.7193   1.7688   1.7941   1.8700   2.1227   2.1805
     2.2341   2.2756   2.3018   2.4511   2.4693   2.5138   2.5791   2.6360
     2.8357   3.2367   3.4786   3.6571   3.6987   3.7431   3.8011   4.0538
     4.0812   4.1002   4.3642   4.4067   4.6362   4.7994   4.8492   5.1147
     5.1700   5.2953   5.4581   5.8791

     the Fermi energy is     2.5889 ev

!    total energy              =   -4932.80956993 Ry
     estimated scf accuracy    <       0.00000491 Ry
     smearing contrib. (-TS)   =      -0.05913322 Ry
     internal energy E=F+TS    =   -4932.75043670 Ry

     The total energy is F=E-TS. E is the sum of the following terms:
     one-electron contribution =  -33184.51487664 Ry
     hartree contribution      =   16691.47723276 Ry
     xc contribution           =    -534.64206074 Ry
     ewald contribution        =   12094.92926729 Ry
     electric field correction =       0.00000062 Ry

     convergence has been achieved in  14 iterations

     negative rho (up, down):  5.698E-04 0.000E+00

     Forces acting on atoms (cartesian axes, Ry/au):

     atom    1 type  1   force =    -0.00027782   -0.00019516    0.00517432
     atom    2 type  1   force =    -0.00027792   -0.00019582    0.00517246
     atom    3 type  2   force =    -0.00033576   -0.00024260    0.01327651
     atom    4 type  2   force =    -0.00033342   -0.00022931    0.01328621
     atom    5 type  1   force =     0.00017836    0.00012485   -0.01429234
     atom    6 type  1   force =     0.00017723    0.00012824   -0.01429241
     atom    7 type  2   force =     0.00014705    0.00011282   -0.00810627
     atom    8 type  2   force =     0.00014400    0.00009810   -0.00810302
     atom    9 type  1   force =     0.00013593    0.00009704   -0.00241696
     atom   10 type  1   force =     0.00013788    0.00009733   -0.00241746
     atom   11 type  2   force =     0.00014663    0.00011404    0.00636376
     atom   12 type  2   force =     0.00015784    0.00009047    0.00635521

     Total force =     0.032244     Total SCF correction =     0.017483
     SCF correction compared to forces is large: reduce conv_thr to get better values

     Writing output data file ./Mo2Ta2/Mo2Ta2_beef.save/

     init_run     :    320.06s CPU    320.74s WALL (       1 calls)
     electrons    :  11992.95s CPU  12592.79s WALL (       1 calls)
     forces       :    110.55s CPU    221.41s WALL (       1 calls)

     Called by init_run:
     wfcinit      :    290.20s CPU    290.70s WALL (       1 calls)
     potinit      :     23.08s CPU     23.12s WALL (       1 calls)
     hinit0       :      3.95s CPU      3.95s WALL (       1 calls)

     Called by electrons:
     c_bands      :   9852.44s CPU  10256.37s WALL (      14 calls)
     sum_band     :   2063.94s CPU   2248.88s WALL (      14 calls)
     v_of_rho     :     64.54s CPU     70.80s WALL (      15 calls)
     newd         :     27.87s CPU     31.37s WALL (      15 calls)
     mix_rho      :      4.67s CPU      4.74s WALL (      14 calls)
     vdW_kernel   :     11.15s CPU     11.16s WALL (       1 calls)

     Called by c_bands:
     init_us_2    :      9.18s CPU      9.27s WALL (    2220 calls)
     cegterg      :   9754.55s CPU  10154.90s WALL (    1036 calls)

     Called by *egterg:
     cdiaghg      :    609.59s CPU    643.84s WALL (    5405 calls)
     h_psi        :   6373.20s CPU   6673.28s WALL (    5479 calls)
     s_psi        :    675.46s CPU    684.26s WALL (    5479 calls)
     g_psi        :      1.37s CPU      1.42s WALL (    4369 calls)

     Called by h_psi:
     h_psi:calbec :    941.71s CPU    965.16s WALL (    5479 calls)
     vloc_psi     :   4721.12s CPU   4986.23s WALL (    5479 calls)
     add_vuspsi   :    705.12s CPU    716.56s WALL (    5479 calls)

     General routines
     calbec       :   1471.38s CPU   1623.68s WALL (    6811 calls)
     fft          :     61.36s CPU     72.94s WALL (    1004 calls)
     ffts         :      1.34s CPU      1.57s WALL (      29 calls)
     fftw         :   6281.30s CPU   6698.20s WALL (  858230 calls)
     interpolate  :      1.64s CPU      1.85s WALL (      15 calls)

     Parallel routines
     fft_scatt_xy :     48.53s CPU     49.01s WALL (  859263 calls)
     fft_scatt_yz :   5837.37s CPU   6260.68s WALL (  859263 calls)

     PWSCF        :      3h27m CPU      3h39m WALL


   This run was terminated on:   5: 6:45  25Jun2022            

=------------------------------------------------------------------------------=
   JOB DONE.
=------------------------------------------------------------------------------=
