
     Program PWSCF v.6.6 starts on 23Jun2022 at 20: 1:39 

     This program is part of the open-source Quantum ESPRESSO suite
     for quantum simulation of materials; please cite
         "P. Giannozzi et al., J. Phys.:Condens. Matter 21 395502 (2009);
         "P. Giannozzi et al., J. Phys.:Condens. Matter 29 465901 (2017);
          URL http://www.quantum-espresso.org", 
     in publications or presentations arising from this work. More details at
     http://www.quantum-espresso.org/quote

     Parallel version (MPI), running on    37 processors

     MPI processes distributed on     2 nodes
     R & G space division:  proc/nbgrp/npool/nimage =      37
     Fft bands division:     nmany     =       1
     Reading input from Mo2W2.in
Warning: card &CELL ignored
Warning: card / ignored

     Current dimensions of program PWSCF are:
     Max number of different atomic species (ntypx) = 10
     Max number of k-points (npk) =  40000
     Max angular momentum in pseudopotentials (lmaxx) =  3
     Presently stress not available with electric field and gates

     Message from routine cell_base_init:
     DEPRECATED: use true lattice parameter, not A to a.u. conversion factor
     Message from routine emend_upf/check:
     BEWARE !!! Possible out of bounds while fixing pseudo
     Message from routine emend_upf/check:
     BEWARE !!! Possible out of bounds while fixing pseudo
     Message from routine read_upf:
     Pseudo file W.pbe-spn-rrkjus_psl.0.2.3.UPF has been fixed on the fly.
     To avoid this message in the future, permanently fix 
     your pseudo files following these instructions: 
     https://gitlab.com/QEF/q-e/blob/master/upftools/how_to_fix_upf.md
     file Mo.pbe-spn-rrkjus_psl.1.0.0.UPF: wavefunction(s)  4S renormalized

     **************************************************************************
     Initializing libbeef V0.1.2 with the BEEF-vdW functional.
     Citation: Wellendorff et al., PRB 85, 235149 (2012).
     **************************************************************************


     IMPORTANT: XC functional enforced from input :
     Exchange-correlation= BEEF-VDW
                           (   1   4  43  14   2   0   0)
     Any further DFT definition will be discarded
     Please, verify this is what you really want


     Subspace diagonalization in iterative solution of the eigenvalue problem:
     a serial algorithm will be used

     Found symmetry operation: I + (  0.5000  0.0000  0.0000)
     This is a supercell, fractional translations are disabled

     Parallelization info
     --------------------
     sticks:   dense  smooth     PW     G-vecs:    dense   smooth      PW
     Min         120      47     13                27828     7019    1081
     Max         121      48     14                27838     7054    1104
     Sum        4443    1773    513              1029873   260567   40507



     bravais-lattice index     =            0
     lattice parameter (alat)  =       1.8897  a.u.
     unit-cell volume          =    4713.1912 (a.u.)^3
     number of atoms/cell      =           12
     number of atomic types    =            2
     number of electrons       =       168.00
     number of Kohn-Sham states=          101
     kinetic-energy cutoff     =      55.1240  Ry
     charge density cutoff     =     551.2396  Ry
     convergence threshold     =      1.0E-05
     mixing beta               =       0.1000
     number of iterations used =           10  plain     mixing
     Exchange-correlation= BEEF-VDW
                           (   1   4  43  14   2   0   0)

     celldm(1)=   1.889726  celldm(2)=   0.000000  celldm(3)=   0.000000
     celldm(4)=   0.000000  celldm(5)=   0.000000  celldm(6)=   0.000000

     crystal axes: (cart. coord. in units of alat)
               a(1) = (   5.332476   0.000000   0.000000 )  
               a(2) = (  -2.666238   5.321014   0.000000 )  
               a(3) = (   0.000000   0.000000  24.614739 )  

     reciprocal axes: (cart. coord. in units 2 pi/alat)
               b(1) = (  0.187530  0.093967 -0.000000 )  
               b(2) = (  0.000000  0.187934  0.000000 )  
               b(3) = (  0.000000 -0.000000  0.040626 )  


     PseudoPot. # 1 for Mo read from file:
     ../pseudo/Mo.pbe-spn-rrkjus_psl.1.0.0.UPF
     MD5 check sum: 03f09b12e49601d1a456a78ce8b2d514
     Pseudo is Ultrasoft + core correction, Zval = 14.0
     Generated using "atomic" code by A. Dal Corso v.6.3
     Using radial grid of 1229 points,  6 beta functions with: 
                l(1) =   0
                l(2) =   0
                l(3) =   1
                l(4) =   1
                l(5) =   2
                l(6) =   2
     Q(r) pseudized with 0 coefficients 


     PseudoPot. # 2 for W  read from file:
     ../pseudo/W.pbe-spn-rrkjus_psl.0.2.3.UPF
     MD5 check sum: 25b665cf2bbae626ad8d9f1bc024df95
     Pseudo is Ultrasoft + core correction, Zval = 14.0
     Generated using "atomic" code by A. Dal Corso v.5.0.2 svn rev. 10551
     Using radial grid of 1273 points,  6 beta functions with: 
                l(1) =   0
                l(2) =   0
                l(3) =   1
                l(4) =   1
                l(5) =   2
                l(6) =   2
     Q(r) pseudized with 0 coefficients 


     atomic species   valence    mass     pseudopotential
        Mo            14.00    95.95000     Mo( 1.00)
        W             14.00   183.84000     W ( 1.00)

     No symmetry found



   Cartesian axes

     site n.     atom                  positions (alat units)
         1           Mo  tau(   1) = (   0.0000000   0.0000000  10.0000000  )
         2           Mo  tau(   2) = (   2.6662379   0.0000000  10.0000000  )
         3           W   tau(   3) = (   1.3331190   2.6605068  10.0000000  )
         4           W   tau(   4) = (  -1.3331190   2.6605068  10.0000000  )
         5           Mo  tau(   5) = (   2.6662379   1.3359907  12.3073694  )
         6           Mo  tau(   6) = (   0.0000000   1.3359907  12.3073694  )
         7           W   tau(   7) = (  -1.3331190   3.9964975  12.3073694  )
         8           W   tau(   8) = (   1.3331190   3.9964975  12.3073694  )
         9           Mo  tau(   9) = (   0.0004988   2.7586291  14.6018015  )
        10           Mo  tau(  10) = (   2.6667380   2.7586268  14.6017961  )
        11           W   tau(  11) = (   3.9992420   0.0909488  14.5848683  )
        12           W   tau(  12) = (   1.3330010   0.0909537  14.5848622  )

     number of k points=    74  Fermi-Dirac smearing, width (Ry)=  0.0100
                       cart. coord. in units 2pi/alat
        k(    1) = (   0.0000000   0.0000000   0.0000000), wk =   0.0138889
        k(    2) = (   0.0000000   0.0156612   0.0000000), wk =   0.0277778
        k(    3) = (   0.0000000   0.0313224   0.0000000), wk =   0.0277778
        k(    4) = (   0.0000000   0.0469835   0.0000000), wk =   0.0277778
        k(    5) = (   0.0000000   0.0626447   0.0000000), wk =   0.0277778
        k(    6) = (   0.0000000   0.0783059   0.0000000), wk =   0.0277778
        k(    7) = (   0.0000000  -0.0939671   0.0000000), wk =   0.0138889
        k(    8) = (   0.0156275   0.0078306   0.0000000), wk =   0.0277778
        k(    9) = (   0.0156275   0.0234918   0.0000000), wk =   0.0277778
        k(   10) = (   0.0156275   0.0391529   0.0000000), wk =   0.0277778
        k(   11) = (   0.0156275   0.0548141   0.0000000), wk =   0.0277778
        k(   12) = (   0.0156275   0.0704753   0.0000000), wk =   0.0277778
        k(   13) = (   0.0156275   0.0861365   0.0000000), wk =   0.0277778
        k(   14) = (   0.0156275  -0.0861365   0.0000000), wk =   0.0277778
        k(   15) = (   0.0156275  -0.0704753   0.0000000), wk =   0.0277778
        k(   16) = (   0.0156275  -0.0548141   0.0000000), wk =   0.0277778
        k(   17) = (   0.0156275  -0.0391529   0.0000000), wk =   0.0277778
        k(   18) = (   0.0156275  -0.0234918   0.0000000), wk =   0.0277778
        k(   19) = (   0.0156275  -0.0078306   0.0000000), wk =   0.0277778
        k(   20) = (   0.0312550   0.0156612   0.0000000), wk =   0.0277778
        k(   21) = (   0.0312550   0.0313224   0.0000000), wk =   0.0277778
        k(   22) = (   0.0312550   0.0469835   0.0000000), wk =   0.0277778
        k(   23) = (   0.0312550   0.0626447   0.0000000), wk =   0.0277778
        k(   24) = (   0.0312550   0.0783059   0.0000000), wk =   0.0277778
        k(   25) = (   0.0312550   0.0939671   0.0000000), wk =   0.0277778
        k(   26) = (   0.0312550  -0.0783059   0.0000000), wk =   0.0277778
        k(   27) = (   0.0312550  -0.0626447   0.0000000), wk =   0.0277778
        k(   28) = (   0.0312550  -0.0469835   0.0000000), wk =   0.0277778
        k(   29) = (   0.0312550  -0.0313224   0.0000000), wk =   0.0277778
        k(   30) = (   0.0312550  -0.0156612   0.0000000), wk =   0.0277778
        k(   31) = (   0.0312550  -0.0000000   0.0000000), wk =   0.0277778
        k(   32) = (   0.0468825   0.0234918   0.0000000), wk =   0.0277778
        k(   33) = (   0.0468825   0.0391529   0.0000000), wk =   0.0277778
        k(   34) = (   0.0468825   0.0548141   0.0000000), wk =   0.0277778
        k(   35) = (   0.0468825   0.0704753   0.0000000), wk =   0.0277778
        k(   36) = (   0.0468825   0.0861365   0.0000000), wk =   0.0277778
        k(   37) = (   0.0468825   0.1017976   0.0000000), wk =   0.0277778
        k(   38) = (   0.0468825  -0.0704753   0.0000000), wk =   0.0277778
        k(   39) = (   0.0468825  -0.0548141   0.0000000), wk =   0.0277778
        k(   40) = (   0.0468825  -0.0391529   0.0000000), wk =   0.0277778
        k(   41) = (   0.0468825  -0.0234918   0.0000000), wk =   0.0277778
        k(   42) = (   0.0468825  -0.0078306   0.0000000), wk =   0.0277778
        k(   43) = (   0.0468825   0.0078306   0.0000000), wk =   0.0277778
        k(   44) = (   0.0625100   0.0313224   0.0000000), wk =   0.0277778
        k(   45) = (   0.0625100   0.0469835   0.0000000), wk =   0.0277778
        k(   46) = (   0.0625100   0.0626447   0.0000000), wk =   0.0277778
        k(   47) = (   0.0625100   0.0783059   0.0000000), wk =   0.0277778
        k(   48) = (   0.0625100   0.0939671   0.0000000), wk =   0.0277778
        k(   49) = (   0.0625100   0.1096282   0.0000000), wk =   0.0277778
        k(   50) = (   0.0625100  -0.0626447   0.0000000), wk =   0.0277778
        k(   51) = (   0.0625100  -0.0469835   0.0000000), wk =   0.0277778
        k(   52) = (   0.0625100  -0.0313224   0.0000000), wk =   0.0277778
        k(   53) = (   0.0625100  -0.0156612   0.0000000), wk =   0.0277778
        k(   54) = (   0.0625100   0.0000000   0.0000000), wk =   0.0277778
        k(   55) = (   0.0625100   0.0156612   0.0000000), wk =   0.0277778
        k(   56) = (   0.0781376   0.0391529   0.0000000), wk =   0.0277778
        k(   57) = (   0.0781376   0.0548141   0.0000000), wk =   0.0277778
        k(   58) = (   0.0781376   0.0704753   0.0000000), wk =   0.0277778
        k(   59) = (   0.0781376   0.0861365   0.0000000), wk =   0.0277778
        k(   60) = (   0.0781376   0.1017976   0.0000000), wk =   0.0277778
        k(   61) = (   0.0781376   0.1174588   0.0000000), wk =   0.0277778
        k(   62) = (   0.0781376  -0.0548141   0.0000000), wk =   0.0277778
        k(   63) = (   0.0781376  -0.0391529   0.0000000), wk =   0.0277778
        k(   64) = (   0.0781376  -0.0234918   0.0000000), wk =   0.0277778
        k(   65) = (   0.0781376  -0.0078306   0.0000000), wk =   0.0277778
        k(   66) = (   0.0781376   0.0078306   0.0000000), wk =   0.0277778
        k(   67) = (   0.0781376   0.0234918   0.0000000), wk =   0.0277778
        k(   68) = (  -0.0937651  -0.0469835   0.0000000), wk =   0.0138889
        k(   69) = (  -0.0937651  -0.0313224   0.0000000), wk =   0.0277778
        k(   70) = (  -0.0937651  -0.0156612   0.0000000), wk =   0.0277778
        k(   71) = (  -0.0937651   0.0000000   0.0000000), wk =   0.0277778
        k(   72) = (  -0.0937651   0.0156612   0.0000000), wk =   0.0277778
        k(   73) = (  -0.0937651   0.0313224   0.0000000), wk =   0.0277778
        k(   74) = (  -0.0937651  -0.1409506   0.0000000), wk =   0.0138889

     Dense  grid:  1029873 G-vectors     FFT dimensions: (  75,  90, 360)

     Smooth grid:   260567 G-vectors     FFT dimensions: (  48,  54, 225)

     Estimated max dynamical RAM per process >     213.02 MB

     Estimated total dynamical RAM >       7.70 GB

     Initial potential from superposition of free atoms

     starting charge  167.99137, renormalised to  168.00000

     negative rho (up, down):  8.592E-04 0.000E+00


     %%%%%%%%%%%%%%%%%%%%%%%%%%%%%%%%%%%%%%%%%%%%%%%%%%%%%%%%%%%%%%%%%%%%%%%%
     %                                                                      %
     % You are using vdW-DF, which was implemented by the Thonhauser group. %
     % Please cite the following two papers that made this development      %
     % possible and the two reviews that describe the various versions:     %
     %                                                                      %
     %   T. Thonhauser et al., PRL 115, 136402 (2015).                      %
     %   T. Thonhauser et al., PRB 76, 125112 (2007).                       %
     %   K. Berland et al., Rep. Prog. Phys. 78, 066501 (2015).             %
     %   D.C. Langreth et al., J. Phys.: Condens. Matter 21, 084203 (2009). %
     %                                                                      %
     %                                                                      %
     % If you are calculating the stress with vdW-DF, please also cite:     %
     %                                                                      %
     %   R. Sabatini et al., J. Phys.: Condens. Matter 24, 424209 (2012).   %
     %                                                                      %
     %%%%%%%%%%%%%%%%%%%%%%%%%%%%%%%%%%%%%%%%%%%%%%%%%%%%%%%%%%%%%%%%%%%%%%%%



     Adding external electric field

     Computed dipole along edir(3) : 
        Dipole                0.0000 Ry au,          0.0000 Debye
        Dipole field          0.0000 Ry au, 

        Potential amp.       -0.0000 Ry
        Total length         45.3522 bohr

     Starting wfcs are  138 randomized atomic wfcs

     total cpu time spent up to now is       75.8 secs

     Self-consistent Calculation

     iteration #  1     ecut=    55.12 Ry     beta= 0.10
     Davidson diagonalization with overlap
     ethr =  1.00E-02,  avg # of iterations =  2.0

     negative rho (up, down):  8.246E-04 0.000E+00

     Adding external electric field

     Computed dipole along edir(3) : 
        Dipole               -0.0993 Ry au,         -0.2525 Debye
        Dipole field         -0.0003 Ry au, 

        Potential amp.        0.0240 Ry
        Total length         45.3522 bohr


     total cpu time spent up to now is      224.5 secs

     total energy              =   -1795.08762888 Ry
     estimated scf accuracy    <       5.71833648 Ry

     iteration #  2     ecut=    55.12 Ry     beta= 0.10
     Davidson diagonalization with overlap
     ethr =  3.40E-03,  avg # of iterations =  2.0

     negative rho (up, down):  8.620E-04 0.000E+00

     Adding external electric field

     Computed dipole along edir(3) : 
        Dipole                0.3727 Ry au,          0.9473 Debye
        Dipole field          0.0010 Ry au, 

        Potential amp.       -0.0901 Ry
        Total length         45.3522 bohr


     total cpu time spent up to now is      355.6 secs

     total energy              =   -1795.51872802 Ry
     estimated scf accuracy    <       1.90566139 Ry

     iteration #  3     ecut=    55.12 Ry     beta= 0.10
     Davidson diagonalization with overlap
     ethr =  1.13E-03,  avg # of iterations =  2.0

     negative rho (up, down):  1.188E-03 0.000E+00

     Adding external electric field

     Computed dipole along edir(3) : 
        Dipole               -0.0734 Ry au,         -0.1866 Debye
        Dipole field         -0.0002 Ry au, 

        Potential amp.        0.0178 Ry
        Total length         45.3522 bohr


     total cpu time spent up to now is      483.0 secs

     total energy              =   -1795.50217553 Ry
     estimated scf accuracy    <       7.91930491 Ry

     iteration #  4     ecut=    55.12 Ry     beta= 0.10
     Davidson diagonalization with overlap
     ethr =  1.13E-03,  avg # of iterations =  1.0

     negative rho (up, down):  1.056E-03 0.000E+00

     Adding external electric field

     Computed dipole along edir(3) : 
        Dipole                0.0055 Ry au,          0.0139 Debye
        Dipole field          0.0000 Ry au, 

        Potential amp.       -0.0013 Ry
        Total length         45.3522 bohr


     total cpu time spent up to now is      587.3 secs

     total energy              =   -1795.60507082 Ry
     estimated scf accuracy    <       0.65325442 Ry

     iteration #  5     ecut=    55.12 Ry     beta= 0.10
     Davidson diagonalization with overlap
     ethr =  3.89E-04,  avg # of iterations =  1.6

     negative rho (up, down):  1.310E-03 0.000E+00

     Adding external electric field

     Computed dipole along edir(3) : 
        Dipole                0.0077 Ry au,          0.0197 Debye
        Dipole field          0.0000 Ry au, 

        Potential amp.       -0.0019 Ry
        Total length         45.3522 bohr


     total cpu time spent up to now is      701.4 secs

     total energy              =   -1795.56500649 Ry
     estimated scf accuracy    <       0.20351485 Ry

     iteration #  6     ecut=    55.12 Ry     beta= 0.10
     Davidson diagonalization with overlap
     ethr =  1.21E-04,  avg # of iterations =  7.0

     negative rho (up, down):  1.464E-03 0.000E+00

     Adding external electric field

     Computed dipole along edir(3) : 
        Dipole                0.0008 Ry au,          0.0021 Debye
        Dipole field          0.0000 Ry au, 

        Potential amp.       -0.0002 Ry
        Total length         45.3522 bohr


     total cpu time spent up to now is      861.3 secs

     total energy              =   -1795.58687198 Ry
     estimated scf accuracy    <       0.06785592 Ry

     iteration #  7     ecut=    55.12 Ry     beta= 0.10
     Davidson diagonalization with overlap
     c_bands:  2 eigenvalues not converged
     ethr =  4.04E-05,  avg # of iterations =  9.9

     negative rho (up, down):  4.018E-03 0.000E+00

     Adding external electric field

     Computed dipole along edir(3) : 
        Dipole                0.0054 Ry au,          0.0137 Debye
        Dipole field          0.0000 Ry au, 

        Potential amp.       -0.0013 Ry
        Total length         45.3522 bohr


     total cpu time spent up to now is     1031.0 secs

     total energy              =   -1795.59024882 Ry
     estimated scf accuracy    <       0.07951442 Ry

     iteration #  8     ecut=    55.12 Ry     beta= 0.10
     Davidson diagonalization with overlap
     ethr =  4.04E-05,  avg # of iterations =  2.0

     negative rho (up, down):  4.876E-03 0.000E+00

     Adding external electric field

     Computed dipole along edir(3) : 
        Dipole                0.0045 Ry au,          0.0115 Debye
        Dipole field          0.0000 Ry au, 

        Potential amp.       -0.0011 Ry
        Total length         45.3522 bohr


     total cpu time spent up to now is     1152.5 secs

     total energy              =   -1795.59394577 Ry
     estimated scf accuracy    <       0.01357416 Ry

     iteration #  9     ecut=    55.12 Ry     beta= 0.10
     Davidson diagonalization with overlap
     c_bands:  1 eigenvalues not converged
     c_bands:  1 eigenvalues not converged
     c_bands:  1 eigenvalues not converged
     c_bands:  2 eigenvalues not converged
     c_bands:  2 eigenvalues not converged
     ethr =  8.08E-06,  avg # of iterations =  9.0

     negative rho (up, down):  3.934E-03 0.000E+00

     Adding external electric field

     Computed dipole along edir(3) : 
        Dipole                0.0094 Ry au,          0.0238 Debye
        Dipole field          0.0000 Ry au, 

        Potential amp.       -0.0023 Ry
        Total length         45.3522 bohr


     total cpu time spent up to now is     1318.3 secs

     total energy              =   -1795.59508167 Ry
     estimated scf accuracy    <       0.00348631 Ry

     iteration # 10     ecut=    55.12 Ry     beta= 0.10
     Davidson diagonalization with overlap
     c_bands:  1 eigenvalues not converged
     c_bands:  1 eigenvalues not converged
     c_bands:  1 eigenvalues not converged
     c_bands:  1 eigenvalues not converged
     c_bands:  1 eigenvalues not converged
     c_bands:  1 eigenvalues not converged
     c_bands:  1 eigenvalues not converged
     c_bands:  3 eigenvalues not converged
     c_bands:  2 eigenvalues not converged
     c_bands:  1 eigenvalues not converged
     c_bands:  1 eigenvalues not converged
     c_bands:  1 eigenvalues not converged
     c_bands:  1 eigenvalues not converged
     c_bands:  1 eigenvalues not converged
     ethr =  2.08E-06,  avg # of iterations = 12.7

     negative rho (up, down):  4.390E-03 0.000E+00

     Adding external electric field

     Computed dipole along edir(3) : 
        Dipole                0.0067 Ry au,          0.0170 Debye
        Dipole field          0.0000 Ry au, 

        Potential amp.       -0.0016 Ry
        Total length         45.3522 bohr


     total cpu time spent up to now is     1549.6 secs

     total energy              =   -1795.59499647 Ry
     estimated scf accuracy    <       0.01175283 Ry

     iteration # 11     ecut=    55.12 Ry     beta= 0.10
     Davidson diagonalization with overlap
     ethr =  2.08E-06,  avg # of iterations =  3.7

     negative rho (up, down):  4.167E-03 0.000E+00

     Adding external electric field

     Computed dipole along edir(3) : 
        Dipole                0.0073 Ry au,          0.0184 Debye
        Dipole field          0.0000 Ry au, 

        Potential amp.       -0.0018 Ry
        Total length         45.3522 bohr


     total cpu time spent up to now is     1696.7 secs

     total energy              =   -1795.59586152 Ry
     estimated scf accuracy    <       0.00061278 Ry

     iteration # 12     ecut=    55.12 Ry     beta= 0.10
     Davidson diagonalization with overlap
     c_bands:  1 eigenvalues not converged
     ethr =  3.65E-07,  avg # of iterations =  6.4

     negative rho (up, down):  4.002E-03 0.000E+00

     Adding external electric field

     Computed dipole along edir(3) : 
        Dipole                0.0069 Ry au,          0.0177 Debye
        Dipole field          0.0000 Ry au, 

        Potential amp.       -0.0017 Ry
        Total length         45.3522 bohr


     total cpu time spent up to now is     1871.9 secs

     total energy              =   -1795.59605233 Ry
     estimated scf accuracy    <       0.00067395 Ry

     iteration # 13     ecut=    55.12 Ry     beta= 0.10
     Davidson diagonalization with overlap
     c_bands:  1 eigenvalues not converged
     ethr =  3.65E-07,  avg # of iterations =  1.3

     negative rho (up, down):  3.687E-03 0.000E+00

     Adding external electric field

     Computed dipole along edir(3) : 
        Dipole                0.0063 Ry au,          0.0161 Debye
        Dipole field          0.0000 Ry au, 

        Potential amp.       -0.0015 Ry
        Total length         45.3522 bohr


     total cpu time spent up to now is     1978.7 secs

     total energy              =   -1795.59596681 Ry
     estimated scf accuracy    <       0.00043587 Ry

     iteration # 14     ecut=    55.12 Ry     beta= 0.10
     Davidson diagonalization with overlap
     c_bands:  1 eigenvalues not converged
     ethr =  2.59E-07,  avg # of iterations =  2.2

     negative rho (up, down):  3.434E-03 0.000E+00

     Adding external electric field

     Computed dipole along edir(3) : 
        Dipole                0.0066 Ry au,          0.0168 Debye
        Dipole field          0.0000 Ry au, 

        Potential amp.       -0.0016 Ry
        Total length         45.3522 bohr


     total cpu time spent up to now is     2107.4 secs

     total energy              =   -1795.59601357 Ry
     estimated scf accuracy    <       0.00001106 Ry

     iteration # 15     ecut=    55.12 Ry     beta= 0.10
     Davidson diagonalization with overlap
     ethr =  6.58E-09,  avg # of iterations =  7.0

     negative rho (up, down):  1.673E-03 0.000E+00

     Adding external electric field

     Computed dipole along edir(3) : 
        Dipole                0.0056 Ry au,          0.0143 Debye
        Dipole field          0.0000 Ry au, 

        Potential amp.       -0.0014 Ry
        Total length         45.3522 bohr


     total cpu time spent up to now is     2298.5 secs

     End of self-consistent calculation

          k = 0.0000 0.0000 0.0000 ( 32501 PWs)   bands (ev):

   -72.1925 -72.1128 -72.0900 -72.0736 -72.0119 -71.9955 -59.0569 -58.9150
   -58.8576 -58.8378 -58.7181 -58.6983 -36.8118 -36.6236 -36.5754 -36.5618
   -36.4774 -36.3458 -36.2477 -36.2041 -36.1849 -36.1595 -36.1284 -36.0439
   -36.0235 -35.8484 -35.7405 -35.7226 -35.5109 -35.4967 -33.5883 -33.3413
   -33.3220 -33.3030 -33.2125 -33.0726 -32.9663 -32.9530 -32.8588 -32.8246
   -32.8227 -32.7524 -32.7140 -32.5803 -32.4955 -32.4725 -32.2348 -32.2196
    -5.1744  -3.4809  -3.0406  -2.6704  -2.6477  -2.5043  -2.4375  -2.1548
    -2.1406  -1.6840  -1.6753  -1.5935  -1.5376  -1.5232  -1.4049  -0.4541
    -0.3652  -0.1905  -0.0657   0.0317   0.2562   0.6814   0.7341   0.7726
     0.8781   1.0147   1.6054   1.7456   1.8446   1.9592   2.2744   2.3245
     2.4314   2.6131   2.7024   2.8975   3.0109   3.0120   3.0537   3.2373
     3.2994   3.4107   3.5672   3.6836   3.9691   4.3062   4.3736   4.4871
     4.5406   4.5805   4.7832   4.9835   5.1618

          k = 0.0000 0.0157 0.0000 ( 32599 PWs)   bands (ev):

   -72.1925 -72.1128 -72.0900 -72.0736 -72.0119 -71.9955 -59.0570 -58.9150
   -58.8577 -58.8379 -58.7182 -58.6984 -36.8112 -36.6226 -36.5752 -36.5613
   -36.4771 -36.3442 -36.2485 -36.2032 -36.1833 -36.1581 -36.1286 -36.0437
   -36.0229 -35.8483 -35.7406 -35.7225 -35.5109 -35.4966 -33.5894 -33.3431
   -33.3226 -33.3039 -33.2131 -33.0748 -32.9671 -32.9520 -32.8611 -32.8248
   -32.8243 -32.7531 -32.7147 -32.5806 -32.4956 -32.4725 -32.2348 -32.2197
    -5.1255  -3.4395  -2.9961  -2.6238  -2.6127  -2.4891  -2.4033  -2.1341
    -2.1016  -1.6499  -1.6395  -1.5793  -1.4956  -1.4807  -1.3499  -0.4583
    -0.3695  -0.1777  -0.0328  -0.0125   0.2196   0.6858   0.7218   0.7750
     0.8326   0.9535   1.5456   1.6860   1.8274   1.9178   2.2644   2.2908
     2.4107   2.5417   2.7363   2.9061   2.9180   2.9324   3.0746   3.1436
     3.2696   3.4484   3.4985   3.5988   4.0469   4.1781   4.2973   4.4543
     4.4575   4.5338   4.6033   4.8822   5.0811

          k = 0.0000 0.0313 0.0000 ( 32526 PWs)   bands (ev):

   -72.1925 -72.1128 -72.0900 -72.0736 -72.0119 -71.9955 -59.0570 -58.9150
   -58.8576 -58.8378 -58.7182 -58.6984 -36.8096 -36.6199 -36.5747 -36.5599
   -36.4760 -36.3398 -36.2508 -36.2007 -36.1788 -36.1542 -36.1294 -36.0433
   -36.0215 -35.8481 -35.7406 -35.7224 -35.5108 -35.4966 -33.5926 -33.3480
   -33.3241 -33.3064 -33.2146 -33.0807 -32.9692 -32.9490 -32.8670 -32.8305
   -32.8233 -32.7547 -32.7165 -32.5812 -32.4958 -32.4725 -32.2349 -32.2199
    -4.9828  -3.3290  -2.8718  -2.5137  -2.4877  -2.4432  -2.3059  -2.0702
    -1.9878  -1.5492  -1.5344  -1.5343  -1.4164  -1.3140  -1.1910  -0.4707
    -0.3849  -0.1449  -0.1258   0.0590   0.1208   0.6623   0.6644   0.7029
     0.7697   0.8175   1.4276   1.5539   1.6540   1.9532   2.1539   2.1889
     2.2001   2.4439   2.7119   2.7838   2.8356   2.8623   2.9725   3.0237
     3.1388   3.2431   3.4822   3.5604   3.6956   3.9744   4.2380   4.2699
     4.4153   4.4333   4.5761   4.5997   4.9389

          k = 0.0000 0.0470 0.0000 ( 32550 PWs)   bands (ev):

   -72.1925 -72.1128 -72.0900 -72.0736 -72.0119 -71.9955 -59.0571 -58.9150
   -58.8577 -58.8379 -58.7182 -58.6984 -36.8074 -36.6161 -36.5740 -36.5580
   -36.4746 -36.3338 -36.2538 -36.1973 -36.1727 -36.1488 -36.1305 -36.0426
   -36.0196 -35.8478 -35.7407 -35.7222 -35.5107 -35.4964 -33.5969 -33.3547
   -33.3262 -33.3099 -33.2168 -33.0888 -32.9722 -32.9449 -32.8753 -32.8386
   -32.8219 -32.7570 -32.7190 -32.5821 -32.4962 -32.4726 -32.2351 -32.2201
    -4.7599  -3.2015  -2.6937  -2.3683  -2.3601  -2.2767  -2.1594  -1.9566
    -1.8091  -1.4561  -1.3934  -1.3725  -1.2913  -1.0527  -0.9538  -0.4780
    -0.4101  -0.2912  -0.0982  -0.0294   0.2106   0.4902   0.5094   0.5600
     0.7192   0.7362   1.3556   1.4093   1.4378   1.8123   1.8856   1.9817
     2.0417   2.2003   2.4350   2.5038   2.5715   2.8019   2.9917   2.9941
     3.0466   3.0752   3.2436   3.2569   3.5386   3.7396   4.1290   4.1741
     4.2233   4.3431   4.4182   4.4659   4.6487

          k = 0.0000 0.0626 0.0000 ( 32518 PWs)   bands (ev):

   -72.1925 -72.1128 -72.0900 -72.0736 -72.0119 -71.9955 -59.0573 -58.9150
   -58.8578 -58.8379 -58.7181 -58.6983 -36.8052 -36.6124 -36.5733 -36.5562
   -36.4732 -36.3276 -36.2569 -36.1938 -36.1666 -36.1436 -36.1317 -36.0419
   -36.0177 -35.8475 -35.7407 -35.7220 -35.5107 -35.4963 -33.6013 -33.3615
   -33.3283 -33.3134 -33.2189 -33.0967 -32.9750 -32.9408 -32.8835 -32.8467
   -32.8206 -32.7592 -32.7216 -32.5828 -32.4965 -32.4726 -32.2353 -32.2203
    -4.4841  -3.1530  -2.4864  -2.2406  -2.2064  -2.0509  -1.9542  -1.7893
    -1.5872  -1.3421  -1.2279  -1.1989  -1.1280  -0.7479  -0.7400  -0.4592
    -0.3999  -0.3802  -0.2430  -0.0586   0.2494   0.2725   0.4210   0.4573
     0.5912   0.6775   1.1748   1.3551   1.3878   1.3995   1.5556   1.6558
     1.7308   1.8615   2.1834   2.2370   2.3020   2.5927   2.5953   2.9474
     3.0436   3.1191   3.1934   3.2737   3.3668   3.7329   3.7911   3.9716
     3.9916   4.1121   4.1636   4.3505   4.6315

          k = 0.0000 0.0783 0.0000 ( 32530 PWs)   bands (ev):

   -72.1924 -72.1128 -72.0900 -72.0736 -72.0119 -71.9955 -59.0573 -58.9150
   -58.8578 -58.8380 -58.7181 -58.6983 -36.8035 -36.6097 -36.5727 -36.5548
   -36.4721 -36.3229 -36.2592 -36.1911 -36.1621 -36.1399 -36.1327 -36.0413
   -36.0164 -35.8472 -35.7408 -35.7218 -35.5106 -35.4962 -33.6044 -33.3665
   -33.3298 -33.3160 -33.2204 -33.1025 -32.9771 -32.9377 -32.8898 -32.8528
   -32.8196 -32.7608 -32.7234 -32.5834 -32.4968 -32.4726 -32.2354 -32.2205
    -4.2123  -3.2248  -2.2813  -2.1422  -2.0710  -1.9070  -1.6787  -1.6118
    -1.3681  -1.1867  -1.1642  -1.1125  -0.9457  -0.6325  -0.6079  -0.5506
    -0.4160  -0.2270  -0.2105  -0.0969   0.0448   0.2410   0.3650   0.4303
     0.5821   0.6691   0.9984   1.0959   1.2313   1.2708   1.2968   1.3858
     1.4115   1.5053   1.7480   1.8307   2.3246   2.3737   2.5443   2.9592
     3.1409   3.1683   3.1845   3.2837   3.3763   3.4828   3.4936   3.7167
     3.8182   4.0833   4.2227   4.3014   4.5115

          k = 0.0000-0.0940 0.0000 ( 32524 PWs)   bands (ev):

   -72.1924 -72.1128 -72.0900 -72.0736 -72.0119 -71.9955 -59.0574 -58.9150
   -58.8578 -58.8380 -58.7180 -58.6983 -36.8029 -36.6087 -36.5725 -36.5543
   -36.4718 -36.3211 -36.2601 -36.1901 -36.1605 -36.1385 -36.1331 -36.0410
   -36.0159 -35.8471 -35.7408 -35.7217 -35.5106 -35.4962 -33.6056 -33.3683
   -33.3303 -33.3170 -33.2210 -33.1046 -32.9779 -32.9364 -32.8921 -32.8550
   -32.8192 -32.7615 -32.7241 -32.5836 -32.4969 -32.4727 -32.2354 -32.2206
    -4.0779  -3.2949  -2.1702  -2.1258  -2.0159  -1.8533  -1.5356  -1.5082
    -1.2499  -1.2110  -1.1259  -1.0656  -0.8490  -0.6814  -0.5750  -0.4804
    -0.4627  -0.4084  -0.0894  -0.0114   0.0792   0.2787   0.3526   0.3530
     0.5993   0.7053   0.9169   0.9811   1.1511   1.2088   1.2183   1.2335
     1.2441   1.2840   1.6150   1.7092   2.2257   2.2847   2.8305   2.9200
     2.9654   3.1617   3.2113   3.3000   3.3633   3.4374   3.5398   3.5661
     3.6942   4.0214   4.2848   4.3680   4.4639

          k = 0.0156 0.0078 0.0000 ( 32553 PWs)   bands (ev):

   -72.1911 -72.1142 -72.0887 -72.0723 -72.0133 -71.9969 -59.0546 -58.9175
   -58.8553 -58.8355 -58.7206 -58.7008 -36.7943 -36.6208 -36.5583 -36.5447
   -36.4795 -36.3427 -36.2460 -36.2057 -36.1821 -36.1568 -36.1307 -36.0458
   -36.0253 -35.8465 -35.7424 -35.7422 -35.5301 -35.5159 -33.5711 -33.3397
   -33.3047 -33.2859 -33.2153 -33.0715 -32.9688 -32.9505 -32.8578 -32.8265
   -32.8216 -32.7550 -32.7166 -32.5786 -32.5156 -32.4744 -32.2546 -32.2395
    -5.1049  -3.4101  -2.9705  -2.6479  -2.6053  -2.4390  -2.3990  -2.1051
    -2.1038  -1.6604  -1.6551  -1.5567  -1.4820  -1.4438  -1.3534  -0.4308
    -0.3411  -0.1520  -0.0358   0.0754   0.3028   0.7117   0.7243   0.7685
     0.8695   0.9844   1.6125   1.7482   1.8598   1.9167   2.2280   2.2708
     2.4141   2.5371   2.5524   2.7581   2.8893   2.9305   3.0846   3.1417
     3.3259   3.3558   3.5447   3.5887   3.9881   4.1211   4.2266   4.3871
     4.5272   4.6386   4.6839   4.9468   5.0831

          k = 0.0156 0.0235 0.0000 ( 32572 PWs)   bands (ev):

   -72.1911 -72.1142 -72.0887 -72.0723 -72.0133 -71.9969 -59.0546 -58.9175
   -58.8553 -58.8355 -58.7206 -58.7008 -36.7931 -36.6189 -36.5580 -36.5437
   -36.4788 -36.3398 -36.2475 -36.2041 -36.1790 -36.1540 -36.1312 -36.0456
   -36.0243 -35.8464 -35.7424 -35.7421 -35.5301 -35.5159 -33.5733 -33.3431
   -33.3058 -33.2876 -33.2163 -33.0756 -32.9702 -32.9484 -32.8619 -32.8258
   -32.8255 -32.7561 -32.7178 -32.5790 -32.5158 -32.4744 -32.2547 -32.2396
    -5.0084  -3.3303  -2.8840  -2.5733  -2.5244  -2.4088  -2.3338  -2.0633
    -2.0242  -1.5896  -1.5820  -1.5243  -1.3943  -1.3842  -1.2379  -0.4399
    -0.3502  -0.1257  -0.0170   0.0269   0.2275   0.6537   0.7321   0.7693
     0.8023   0.8769   1.4974   1.6283   1.7392   1.9260   2.1946   2.2116
     2.2827   2.4585   2.5693   2.7545   2.8105   2.8820   3.0216   3.0694
     3.2411   3.2515   3.4347   3.5719   3.8586   4.0841   4.1229   4.1514
     4.3874   4.5768   4.6080   4.7738   4.9293

          k = 0.0156 0.0392 0.0000 ( 32568 PWs)   bands (ev):

   -72.1911 -72.1142 -72.0887 -72.0723 -72.0133 -71.9969 -59.0547 -58.9175
   -58.8553 -58.8355 -58.7207 -58.7009 -36.7912 -36.6156 -36.5574 -36.5420
   -36.4776 -36.3345 -36.2502 -36.2012 -36.1736 -36.1493 -36.1320 -36.0452
   -36.0227 -35.8462 -35.7425 -35.7420 -35.5301 -35.5158 -33.5771 -33.3490
   -33.3077 -33.2907 -33.2181 -33.0826 -32.9727 -32.9449 -32.8691 -32.8324
   -32.8247 -32.7580 -32.7199 -32.5798 -32.5160 -32.4744 -32.2548 -32.2398
    -4.8239  -3.2008  -2.7289  -2.4361  -2.3693  -2.3460  -2.2141  -1.9751
    -1.8718  -1.4599  -1.4571  -1.4424  -1.2969  -1.1853  -1.0278  -0.4556
    -0.3708  -0.1710  -0.0765   0.0804   0.1539   0.5503   0.5811   0.6534
     0.7854   0.7908   1.3756   1.4797   1.5124   1.9491   1.9962   2.0083
     2.0742   2.2840   2.5610   2.5811   2.6511   2.7172   2.9532   3.0290
     3.1117   3.1427   3.2923   3.4194   3.5885   3.7075   3.9941   4.2344
     4.3093   4.4674   4.4736   4.6024   4.6338

          k = 0.0156 0.0548 0.0000 ( 32528 PWs)   bands (ev):

   -72.1911 -72.1142 -72.0887 -72.0723 -72.0133 -71.9969 -59.0548 -58.9175
   -58.8554 -58.8355 -58.7206 -58.7007 -36.7889 -36.6119 -36.5567 -36.5401
   -36.4763 -36.3283 -36.2533 -36.1978 -36.1675 -36.1440 -36.1332 -36.0445
   -36.0209 -35.8458 -35.7426 -35.7419 -35.5300 -35.5157 -33.5815 -33.3558
   -33.3098 -33.2942 -33.2201 -33.0907 -32.9755 -32.9408 -32.8774 -32.8406
   -32.8234 -32.7601 -32.7223 -32.5806 -32.5163 -32.4745 -32.2549 -32.2399
    -4.5703  -3.0996  -2.5339  -2.2666  -2.2408  -2.1511  -2.0602  -1.8320
    -1.6626  -1.3632  -1.2858  -1.2635  -1.1561  -0.9018  -0.7871  -0.4448
    -0.3767  -0.3476  -0.1178  -0.0117   0.2685   0.3729   0.4029   0.4993
     0.6784   0.7405   1.2659   1.3433   1.3847   1.5439   1.6773   1.8189
     1.9159   2.0006   2.2106   2.3072   2.3911   2.6816   2.7958   2.9069
     3.0656   3.1261   3.1356   3.2712   3.3943   3.7472   3.8493   3.9248
     4.0963   4.2493   4.2776   4.4709   4.6971

          k = 0.0156 0.0705 0.0000 ( 32497 PWs)   bands (ev):

   -72.1911 -72.1142 -72.0887 -72.0723 -72.0133 -71.9969 -59.0549 -58.9174
   -58.8554 -58.8356 -58.7205 -58.7007 -36.7870 -36.6086 -36.5560 -36.5385
   -36.4751 -36.3228 -36.2560 -36.1948 -36.1621 -36.1395 -36.1342 -36.0439
   -36.0194 -35.8455 -35.7426 -35.7417 -35.5300 -35.5157 -33.5853 -33.3617
   -33.3116 -33.2973 -33.2219 -33.0976 -32.9779 -32.9371 -32.8848 -32.8478
   -32.8222 -32.7619 -32.7244 -32.5813 -32.5166 -32.4745 -32.2550 -32.2401
    -4.2858  -3.1177  -2.3183  -2.1185  -2.1049  -1.9349  -1.8682  -1.6409
    -1.4308  -1.2296  -1.1507  -1.1153  -0.9820  -0.6704  -0.6114  -0.5175
    -0.3365  -0.3118  -0.1942  -0.1148   0.1515   0.2392   0.3836   0.5034
     0.5302   0.6781   1.0530   1.1842   1.2359   1.3670   1.3841   1.4267
     1.5546   1.6566   1.7761   2.1239   2.3738   2.4388   2.4772   2.9825
     2.9935   3.1377   3.2294   3.2973   3.3776   3.4720   3.6411   3.7986
     3.9456   4.0959   4.1765   4.3189   4.5687

          k = 0.0156 0.0861 0.0000 ( 32534 PWs)   bands (ev):

   -72.1911 -72.1142 -72.0887 -72.0723 -72.0133 -71.9969 -59.0549 -58.9175
   -58.8555 -58.8357 -58.7205 -58.7008 -36.7858 -36.6067 -36.5557 -36.5375
   -36.4744 -36.3195 -36.2577 -36.1930 -36.1589 -36.1369 -36.1349 -36.0436
   -36.0185 -35.8454 -35.7426 -35.7417 -35.5300 -35.5157 -33.5875 -33.3651
   -33.3126 -33.2991 -33.2229 -33.1016 -32.9793 -32.9348 -32.8892 -32.8521
   -32.8216 -32.7630 -32.7256 -32.5817 -32.5167 -32.4745 -32.2551 -32.2402
    -4.0576  -3.2170  -2.1404  -2.0574  -2.0001  -1.8287  -1.6559  -1.4884
    -1.2438  -1.1507  -1.0787  -1.0603  -0.8263  -0.6337  -0.5867  -0.4860
    -0.4630  -0.3536  -0.0923   0.0093   0.0700   0.2842   0.3667   0.3670
     0.5805   0.6782   0.9136   0.9697   0.9848   1.1284   1.1675   1.2849
     1.3447   1.4139   1.6136   1.8543   2.2536   2.2886   2.6444   2.9552
     2.9784   3.1945   3.2113   3.2146   3.4090   3.4280   3.5060   3.6766
     3.7441   4.0622   4.2487   4.3326   4.4940

          k = 0.0156-0.0861 0.0000 ( 32534 PWs)   bands (ev):

   -72.1911 -72.1142 -72.0887 -72.0723 -72.0133 -71.9969 -59.0549 -58.9175
   -58.8555 -58.8357 -58.7205 -58.7008 -36.7858 -36.6067 -36.5557 -36.5375
   -36.4744 -36.3195 -36.2577 -36.1930 -36.1589 -36.1369 -36.1349 -36.0436
   -36.0185 -35.8454 -35.7426 -35.7417 -35.5300 -35.5157 -33.5875 -33.3651
   -33.3126 -33.2991 -33.2229 -33.1016 -32.9793 -32.9348 -32.8892 -32.8521
   -32.8216 -32.7630 -32.7256 -32.5817 -32.5167 -32.4745 -32.2551 -32.2402
    -4.0576  -3.2170  -2.1404  -2.0574  -2.0001  -1.8287  -1.6558  -1.4884
    -1.2439  -1.1506  -1.0787  -1.0603  -0.8263  -0.6337  -0.5868  -0.4860
    -0.4630  -0.3535  -0.0924   0.0095   0.0700   0.2842   0.3667   0.3670
     0.5806   0.6781   0.9136   0.9697   0.9848   1.1285   1.1675   1.2848
     1.3447   1.4139   1.6137   1.8542   2.2535   2.2887   2.6445   2.9553
     2.9783   3.1944   3.2113   3.2144   3.4091   3.4282   3.5061   3.6765
     3.7440   4.0622   4.2488   4.3326   4.4940

          k = 0.0156-0.0705 0.0000 ( 32497 PWs)   bands (ev):

   -72.1911 -72.1142 -72.0887 -72.0723 -72.0133 -71.9969 -59.0549 -58.9174
   -58.8554 -58.8356 -58.7205 -58.7007 -36.7870 -36.6086 -36.5560 -36.5385
   -36.4751 -36.3228 -36.2560 -36.1948 -36.1621 -36.1395 -36.1343 -36.0439
   -36.0194 -35.8455 -35.7426 -35.7417 -35.5300 -35.5157 -33.5853 -33.3617
   -33.3116 -33.2973 -33.2219 -33.0976 -32.9779 -32.9371 -32.8848 -32.8478
   -32.8222 -32.7619 -32.7244 -32.5813 -32.5166 -32.4745 -32.2550 -32.2401
    -4.2858  -3.1177  -2.3183  -2.1185  -2.1049  -1.9349  -1.8681  -1.6409
    -1.4309  -1.2297  -1.1506  -1.1154  -0.9821  -0.6705  -0.6113  -0.5176
    -0.3365  -0.3118  -0.1943  -0.1148   0.1517   0.2392   0.3836   0.5034
     0.5303   0.6780   1.0530   1.1842   1.2358   1.3673   1.3843   1.4267
     1.5543   1.6566   1.7763   2.1238   2.3739   2.4387   2.4772   2.9823
     2.9936   3.1378   3.2291   3.2974   3.3777   3.4717   3.6412   3.7987
     3.9454   4.0959   4.1765   4.3192   4.5686

          k = 0.0156-0.0548 0.0000 ( 32528 PWs)   bands (ev):

   -72.1911 -72.1142 -72.0887 -72.0723 -72.0133 -71.9969 -59.0548 -58.9175
   -58.8554 -58.8355 -58.7206 -58.7007 -36.7889 -36.6119 -36.5567 -36.5401
   -36.4763 -36.3283 -36.2533 -36.1978 -36.1675 -36.1440 -36.1332 -36.0445
   -36.0209 -35.8458 -35.7426 -35.7419 -35.5300 -35.5157 -33.5815 -33.3558
   -33.3098 -33.2942 -33.2201 -33.0907 -32.9755 -32.9408 -32.8774 -32.8406
   -32.8234 -32.7601 -32.7223 -32.5806 -32.5163 -32.4745 -32.2549 -32.2399
    -4.5703  -3.0996  -2.5339  -2.2666  -2.2408  -2.1509  -2.0602  -1.8320
    -1.6627  -1.3632  -1.2858  -1.2636  -1.1561  -0.9016  -0.7872  -0.4447
    -0.3768  -0.3477  -0.1178  -0.0117   0.2685   0.3729   0.4029   0.4993
     0.6784   0.7405   1.2659   1.3434   1.3847   1.5439   1.6776   1.8188
     1.9158   2.0006   2.2106   2.3074   2.3907   2.6816   2.7956   2.9067
     3.0656   3.1262   3.1359   3.2712   3.3941   3.7470   3.8495   3.9248
     4.0964   4.2490   4.2775   4.4713   4.6970

          k = 0.0156-0.0392 0.0000 ( 32568 PWs)   bands (ev):

   -72.1911 -72.1142 -72.0887 -72.0723 -72.0133 -71.9969 -59.0547 -58.9175
   -58.8553 -58.8355 -58.7207 -58.7009 -36.7912 -36.6156 -36.5574 -36.5420
   -36.4776 -36.3345 -36.2502 -36.2012 -36.1736 -36.1493 -36.1320 -36.0452
   -36.0227 -35.8462 -35.7425 -35.7420 -35.5301 -35.5158 -33.5771 -33.3490
   -33.3077 -33.2907 -33.2181 -33.0826 -32.9727 -32.9449 -32.8691 -32.8324
   -32.8247 -32.7580 -32.7199 -32.5798 -32.5160 -32.4744 -32.2548 -32.2398
    -4.8239  -3.2008  -2.7290  -2.4362  -2.3692  -2.3460  -2.2141  -1.9751
    -1.8719  -1.4599  -1.4571  -1.4425  -1.2969  -1.1852  -1.0279  -0.4556
    -0.3708  -0.1710  -0.0765   0.0804   0.1539   0.5502   0.5811   0.6534
     0.7854   0.7909   1.3756   1.4798   1.5124   1.9491   1.9962   2.0084
     2.0742   2.2840   2.5611   2.5811   2.6509   2.7169   2.9533   3.0291
     3.1120   3.1427   3.2917   3.4200   3.5885   3.7075   3.9941   4.2343
     4.3093   4.4674   4.4736   4.6023   4.6339

          k = 0.0156-0.0235 0.0000 ( 32572 PWs)   bands (ev):

   -72.1911 -72.1142 -72.0887 -72.0723 -72.0133 -71.9969 -59.0546 -58.9175
   -58.8553 -58.8355 -58.7206 -58.7008 -36.7931 -36.6189 -36.5580 -36.5437
   -36.4788 -36.3398 -36.2475 -36.2041 -36.1790 -36.1540 -36.1312 -36.0456
   -36.0243 -35.8464 -35.7424 -35.7421 -35.5301 -35.5159 -33.5733 -33.3431
   -33.3058 -33.2876 -33.2163 -33.0756 -32.9702 -32.9484 -32.8619 -32.8258
   -32.8255 -32.7561 -32.7178 -32.5790 -32.5158 -32.4744 -32.2547 -32.2396
    -5.0084  -3.3303  -2.8840  -2.5734  -2.5243  -2.4088  -2.3338  -2.0633
    -2.0242  -1.5896  -1.5821  -1.5243  -1.3943  -1.3841  -1.2379  -0.4399
    -0.3502  -0.1258  -0.0170   0.0269   0.2275   0.6535   0.7321   0.7692
     0.8026   0.8769   1.4972   1.6285   1.7393   1.9260   2.1946   2.2116
     2.2827   2.4585   2.5691   2.7545   2.8104   2.8821   3.0213   3.0694
     3.2414   3.2515   3.4347   3.5718   3.8586   4.0841   4.1229   4.1516
     4.3873   4.5767   4.6080   4.7739   4.9296

          k = 0.0156-0.0078 0.0000 ( 32553 PWs)   bands (ev):

   -72.1911 -72.1142 -72.0887 -72.0723 -72.0133 -71.9969 -59.0546 -58.9175
   -58.8553 -58.8355 -58.7206 -58.7008 -36.7943 -36.6208 -36.5583 -36.5447
   -36.4795 -36.3427 -36.2460 -36.2057 -36.1821 -36.1568 -36.1307 -36.0458
   -36.0253 -35.8465 -35.7424 -35.7422 -35.5301 -35.5159 -33.5711 -33.3397
   -33.3047 -33.2859 -33.2153 -33.0715 -32.9688 -32.9505 -32.8578 -32.8265
   -32.8216 -32.7549 -32.7166 -32.5786 -32.5156 -32.4744 -32.2546 -32.2395
    -5.1049  -3.4101  -2.9705  -2.6479  -2.6053  -2.4390  -2.3990  -2.1051
    -2.1038  -1.6605  -1.6551  -1.5567  -1.4819  -1.4438  -1.3535  -0.4308
    -0.3411  -0.1520  -0.0358   0.0754   0.3028   0.7115   0.7243   0.7687
     0.8695   0.9844   1.6124   1.7482   1.8598   1.9167   2.2280   2.2708
     2.4141   2.5372   2.5524   2.7580   2.8893   2.9305   3.0846   3.1416
     3.3259   3.3558   3.5447   3.5887   3.9881   4.1211   4.2266   4.3872
     4.5271   4.6387   4.6839   4.9468   5.0825

          k = 0.0313 0.0157 0.0000 ( 32578 PWs)   bands (ev):

   -72.1872 -72.1182 -72.0848 -72.0684 -72.0172 -72.0008 -59.0476 -58.9247
   -58.8485 -58.8286 -58.7277 -58.7079 -36.7427 -36.6126 -36.5087 -36.4946
   -36.4849 -36.3340 -36.2408 -36.2108 -36.1739 -36.1488 -36.1374 -36.0517
   -36.0306 -35.8412 -35.7995 -35.7478 -35.5864 -35.5721 -33.5207 -33.3349
   -33.2541 -33.2356 -33.2228 -33.0681 -32.9758 -32.9431 -32.8544 -32.8319
   -32.8180 -32.7622 -32.7239 -32.5746 -32.5731 -32.4800 -32.3125 -32.2975
    -4.9015  -3.2047  -2.7683  -2.6011  -2.4797  -2.2855  -2.2535  -1.9930
    -1.9643  -1.5967  -1.5760  -1.4405  -1.3437  -1.2151  -1.1942  -0.3651
    -0.2728  -0.0862   0.0975   0.1881   0.4362   0.6164   0.7726   0.7910
     0.8443   0.9684   1.6032   1.7235   1.7505   1.9322   2.1100   2.1542
     2.1724   2.2268   2.4372   2.5441   2.6957   2.7376   2.9694   2.9854
     3.2002   3.2225   3.2898   3.5534   3.7722   3.7884   4.0170   4.0829
     4.3415   4.5353   4.7228   4.8343   4.8480

          k = 0.0313 0.0313 0.0000 ( 32572 PWs)   bands (ev):

   -72.1872 -72.1182 -72.0848 -72.0684 -72.0172 -72.0008 -59.0477 -58.9247
   -58.8485 -58.8286 -58.7277 -58.7079 -36.7412 -36.6102 -36.5083 -36.4933
   -36.4840 -36.3300 -36.2429 -36.2088 -36.1698 -36.1452 -36.1380 -36.0516
   -36.0296 -35.8410 -35.7995 -35.7478 -35.5864 -35.5721 -33.5236 -33.3393
   -33.2555 -33.2380 -33.2240 -33.0734 -32.9775 -32.9404 -32.8599 -32.8312
   -32.8233 -32.7634 -32.7252 -32.5753 -32.5730 -32.4800 -32.3125 -32.2975
    -4.7614  -3.0934  -2.6459  -2.5163  -2.3659  -2.2091  -2.1945  -1.9004
    -1.8668  -1.4865  -1.4696  -1.3892  -1.2269  -1.1503  -1.0170  -0.3800
    -0.2890  -0.0352   0.0343   0.1635   0.3097   0.5214   0.6291   0.7901
     0.8560   0.8745   1.4169   1.5348   1.5694   1.9334   1.9504   2.0455
     2.1041   2.1498   2.4344   2.4852   2.5621   2.7942   2.8714   2.9302
     3.0454   3.1780   3.3298   3.3481   3.4996   3.7313   3.7590   4.1500
     4.1554   4.4747   4.5137   4.6822   4.6867

          k = 0.0313 0.0470 0.0000 ( 32548 PWs)   bands (ev):

   -72.1872 -72.1182 -72.0848 -72.0684 -72.0172 -72.0008 -59.0477 -58.9247
   -58.8485 -58.8286 -58.7277 -58.7079 -36.7391 -36.6067 -36.5077 -36.4915
   -36.4829 -36.3245 -36.2456 -36.2062 -36.1641 -36.1403 -36.1388 -36.0514
   -36.0282 -35.8407 -35.7996 -35.7479 -35.5864 -35.5722 -33.5275 -33.3454
   -33.2573 -33.2411 -33.2257 -33.0806 -32.9797 -32.9367 -32.8674 -32.8305
   -32.8302 -32.7649 -32.7270 -32.5759 -32.5733 -32.4799 -32.3125 -32.2975
    -4.5415  -2.9633  -2.4696  -2.3687  -2.2126  -2.1269  -2.0565  -1.7850
    -1.6723  -1.3219  -1.3063  -1.3059  -1.0430  -1.0118  -0.7904  -0.3937
    -0.3063  -0.1627   0.0240   0.1164   0.2682   0.4024   0.4343   0.6004
     0.8031   0.8614   1.3163   1.3301   1.3645   1.5758   1.7849   1.9182
     1.9274   1.9973   2.1213   2.3644   2.4713   2.6114   2.7338   2.9166
     3.0692   3.1296   3.1356   3.2357   3.4892   3.5395   3.6404   3.8871
     4.1301   4.2785   4.3807   4.6221   4.6405

          k = 0.0313 0.0626 0.0000 ( 32553 PWs)   bands (ev):

   -72.1872 -72.1182 -72.0848 -72.0684 -72.0172 -72.0008 -59.0479 -58.9247
   -58.8486 -58.8287 -58.7276 -58.7078 -36.7369 -36.6033 -36.5071 -36.4897
   -36.4817 -36.3189 -36.2485 -36.2034 -36.1584 -36.1397 -36.1355 -36.0511
   -36.0269 -35.8404 -35.7996 -35.7480 -35.5865 -35.5723 -33.5314 -33.3515
   -33.2592 -33.2443 -33.2273 -33.0877 -32.9819 -32.9330 -32.8750 -32.8380
   -32.8292 -32.7665 -32.7289 -32.5762 -32.5738 -32.4799 -32.3125 -32.2976
    -4.2671  -2.9175  -2.2606  -2.1769  -2.0493  -1.9998  -1.8979  -1.6061
    -1.4379  -1.1928  -1.1454  -1.1248  -0.8966  -0.7233  -0.6482  -0.3880
    -0.3649  -0.1928  -0.1306   0.0187   0.2434   0.2509   0.4112   0.4831
     0.6084   0.7965   1.0924   1.2119   1.2348   1.3484   1.3826   1.5070
     1.7094   1.7543   1.8265   2.1718   2.2255   2.5248   2.7080   2.7936
     2.9896   3.0753   3.2479   3.2675   3.3197   3.4312   3.6921   3.7762
     3.9436   4.0907   4.2518   4.4467   4.6456

          k = 0.0313 0.0783 0.0000 ( 32518 PWs)   bands (ev):

   -72.1871 -72.1182 -72.0848 -72.0684 -72.0172 -72.0008 -59.0479 -58.9246
   -58.8486 -58.8288 -58.7276 -58.7078 -36.7354 -36.6008 -36.5066 -36.4885
   -36.4809 -36.3146 -36.2506 -36.2013 -36.1542 -36.1404 -36.1320 -36.0509
   -36.0260 -35.8402 -35.7996 -35.7480 -35.5865 -35.5724 -33.5343 -33.3560
   -33.2605 -33.2466 -33.2285 -33.0929 -32.9835 -32.9301 -32.8806 -32.8435
   -32.8284 -32.7676 -32.7302 -32.5763 -32.5744 -32.4799 -32.3125 -32.2976
    -3.9927  -3.0020  -2.0442  -1.9903  -1.9165  -1.8902  -1.7581  -1.3844
    -1.2228  -1.0629  -1.0423  -0.9905  -0.7261  -0.6191  -0.5395  -0.4974
    -0.3642  -0.2217  -0.1995   0.0591   0.1175   0.2955   0.3651   0.4245
     0.5378   0.6923   0.8879   0.9046   0.9822   1.1242   1.1625   1.2196
     1.4771   1.5265   1.5912   2.0473   2.3125   2.3743   2.3784   2.9152
     2.9690   3.0288   3.1514   3.2933   3.3349   3.5536   3.5569   3.6704
     3.8170   4.1730   4.2448   4.2652   4.5296

          k = 0.0313 0.0940 0.0000 ( 32532 PWs)   bands (ev):

   -72.1871 -72.1182 -72.0848 -72.0684 -72.0172 -72.0008 -59.0480 -58.9246
   -58.8486 -58.8288 -58.7276 -58.7078 -36.7348 -36.5999 -36.5065 -36.4880
   -36.4806 -36.3130 -36.2514 -36.2005 -36.1527 -36.1407 -36.1308 -36.0508
   -36.0257 -35.8401 -35.7997 -35.7481 -35.5865 -35.5724 -33.5353 -33.3577
   -33.2610 -33.2475 -33.2289 -33.0948 -32.9841 -32.9290 -32.8827 -32.8455
   -32.8282 -32.7680 -32.7307 -32.5762 -32.5746 -32.4799 -32.3125 -32.2976
    -3.8541  -3.0815  -1.9256  -1.9027  -1.8686  -1.8654  -1.6977  -1.2688
    -1.1080  -1.0920  -0.9511  -0.8925  -0.7064  -0.5924  -0.5443  -0.4743
    -0.4345  -0.4283  -0.0313   0.1250   0.2442   0.3125   0.3431   0.4040
     0.5224   0.6153   0.6484   0.7939   0.8214   0.8762   1.1936   1.2179
     1.2474   1.4890   1.6342   1.9483   2.1673   2.2788   2.6432   2.6558
     2.9457   3.1114   3.1971   3.3662   3.3781   3.4092   3.4345   3.7147
     3.8734   4.0392   4.1994   4.4162   4.5604

          k = 0.0313-0.0783 0.0000 ( 32518 PWs)   bands (ev):

   -72.1871 -72.1182 -72.0848 -72.0684 -72.0172 -72.0008 -59.0479 -58.9246
   -58.8486 -58.8288 -58.7276 -58.7078 -36.7354 -36.6008 -36.5066 -36.4885
   -36.4809 -36.3146 -36.2506 -36.2013 -36.1542 -36.1404 -36.1320 -36.0509
   -36.0260 -35.8402 -35.7996 -35.7480 -35.5865 -35.5724 -33.5343 -33.3560
   -33.2605 -33.2466 -33.2285 -33.0929 -32.9835 -32.9301 -32.8806 -32.8435
   -32.8284 -32.7676 -32.7302 -32.5763 -32.5743 -32.4799 -32.3125 -32.2976
    -3.9927  -3.0020  -2.0442  -1.9903  -1.9163  -1.8902  -1.7581  -1.3844
    -1.2230  -1.0629  -1.0423  -0.9907  -0.7262  -0.6193  -0.5396  -0.4973
    -0.3642  -0.2216  -0.1996   0.0589   0.1179   0.2956   0.3650   0.4245
     0.5379   0.6923   0.8880   0.9045   0.9823   1.1242   1.1624   1.2197
     1.4771   1.5267   1.5911   2.0471   2.3129   2.3740   2.3785   2.9151
     2.9691   3.0287   3.1513   3.2929   3.3349   3.5538   3.5573   3.6703
     3.8168   4.1729   4.2449   4.2653   4.5295

          k = 0.0313-0.0626 0.0000 ( 32553 PWs)   bands (ev):

   -72.1872 -72.1182 -72.0848 -72.0684 -72.0172 -72.0008 -59.0479 -58.9247
   -58.8486 -58.8287 -58.7276 -58.7078 -36.7369 -36.6033 -36.5071 -36.4897
   -36.4817 -36.3189 -36.2485 -36.2034 -36.1584 -36.1397 -36.1355 -36.0511
   -36.0269 -35.8404 -35.7996 -35.7480 -35.5865 -35.5723 -33.5314 -33.3515
   -33.2592 -33.2443 -33.2273 -33.0877 -32.9819 -32.9330 -32.8750 -32.8380
   -32.8292 -32.7665 -32.7289 -32.5763 -32.5738 -32.4799 -32.3125 -32.2976
    -4.2671  -2.9175  -2.2606  -2.1769  -2.0491  -1.9998  -1.8979  -1.6060
    -1.4380  -1.1928  -1.1454  -1.1249  -0.8966  -0.7231  -0.6483  -0.3880
    -0.3649  -0.1929  -0.1306   0.0187   0.2434   0.2510   0.4112   0.4831
     0.6084   0.7965   1.0923   1.2120   1.2346   1.3490   1.3826   1.5070
     1.7091   1.7542   1.8267   2.1719   2.2252   2.5249   2.7078   2.7934
     2.9897   3.0754   3.2480   3.2676   3.3195   3.4309   3.6921   3.7764
     3.9436   4.0905   4.2518   4.4471   4.6456

          k = 0.0313-0.0470 0.0000 ( 32548 PWs)   bands (ev):

   -72.1872 -72.1182 -72.0848 -72.0684 -72.0172 -72.0008 -59.0477 -58.9247
   -58.8485 -58.8286 -58.7277 -58.7079 -36.7391 -36.6067 -36.5077 -36.4915
   -36.4829 -36.3245 -36.2456 -36.2062 -36.1641 -36.1403 -36.1388 -36.0514
   -36.0282 -35.8407 -35.7996 -35.7479 -35.5864 -35.5722 -33.5275 -33.3454
   -33.2573 -33.2411 -33.2257 -33.0806 -32.9797 -32.9367 -32.8674 -32.8305
   -32.8302 -32.7649 -32.7270 -32.5760 -32.5733 -32.4799 -32.3125 -32.2975
    -4.5415  -2.9633  -2.4696  -2.3686  -2.2125  -2.1269  -2.0566  -1.7849
    -1.6724  -1.3221  -1.3063  -1.3059  -1.0430  -1.0116  -0.7906  -0.3936
    -0.3064  -0.1627   0.0240   0.1164   0.2683   0.4024   0.4343   0.6004
     0.8032   0.8615   1.3165   1.3301   1.3645   1.5759   1.7852   1.9181
     1.9275   1.9973   2.1213   2.3647   2.4707   2.6112   2.7338   2.9167
     3.0693   3.1296   3.1353   3.2362   3.4891   3.5393   3.6405   3.8869
     4.1301   4.2784   4.3806   4.6219   4.6406

          k = 0.0313-0.0313 0.0000 ( 32572 PWs)   bands (ev):

   -72.1872 -72.1182 -72.0848 -72.0684 -72.0172 -72.0008 -59.0477 -58.9247
   -58.8485 -58.8286 -58.7277 -58.7079 -36.7412 -36.6102 -36.5083 -36.4933
   -36.4840 -36.3300 -36.2429 -36.2088 -36.1698 -36.1452 -36.1380 -36.0516
   -36.0296 -35.8410 -35.7995 -35.7478 -35.5864 -35.5721 -33.5236 -33.3393
   -33.2555 -33.2380 -33.2240 -33.0734 -32.9775 -32.9404 -32.8599 -32.8312
   -32.8233 -32.7634 -32.7252 -32.5754 -32.5730 -32.4800 -32.3125 -32.2975
    -4.7614  -3.0934  -2.6459  -2.5163  -2.3658  -2.2091  -2.1945  -1.9004
    -1.8668  -1.4868  -1.4694  -1.3892  -1.2267  -1.1503  -1.0171  -0.3799
    -0.2890  -0.0353   0.0343   0.1635   0.3097   0.5213   0.6291   0.7902
     0.8563   0.8745   1.4168   1.5349   1.5694   1.9335   1.9504   2.0455
     2.1042   2.1498   2.4344   2.4849   2.5621   2.7939   2.8716   2.9301
     3.0455   3.1782   3.3295   3.3480   3.4997   3.7313   3.7592   4.1500
     4.1553   4.4748   4.5136   4.6821   4.6868

          k = 0.0313-0.0157 0.0000 ( 32578 PWs)   bands (ev):

   -72.1872 -72.1182 -72.0848 -72.0684 -72.0172 -72.0008 -59.0476 -58.9247
   -58.8485 -58.8286 -58.7277 -58.7079 -36.7427 -36.6126 -36.5087 -36.4946
   -36.4849 -36.3340 -36.2408 -36.2108 -36.1739 -36.1488 -36.1374 -36.0517
   -36.0306 -35.8412 -35.7995 -35.7478 -35.5864 -35.5721 -33.5207 -33.3349
   -33.2541 -33.2356 -33.2228 -33.0681 -32.9758 -32.9431 -32.8544 -32.8319
   -32.8180 -32.7622 -32.7239 -32.5747 -32.5730 -32.4800 -32.3125 -32.2975
    -4.9015  -3.2047  -2.7683  -2.6011  -2.4797  -2.2855  -2.2535  -1.9931
    -1.9643  -1.5969  -1.5759  -1.4405  -1.3436  -1.2151  -1.1943  -0.3651
    -0.2728  -0.0862   0.0975   0.1881   0.4363   0.6162   0.7726   0.7913
     0.8443   0.9684   1.6030   1.7238   1.7506   1.9322   2.1100   2.1541
     2.1724   2.2268   2.4372   2.5438   2.6959   2.7376   2.9693   2.9853
     3.2003   3.2224   3.2899   3.5534   3.7721   3.7884   4.0170   4.0831
     4.3415   4.5351   4.7226   4.8344   4.8481

          k = 0.0313-0.0000 0.0000 ( 32586 PWs)   bands (ev):

   -72.1872 -72.1182 -72.0848 -72.0684 -72.0172 -72.0008 -59.0476 -58.9247
   -58.8485 -58.8286 -58.7277 -58.7079 -36.7433 -36.6136 -36.5088 -36.4951
   -36.4852 -36.3354 -36.2400 -36.2115 -36.1754 -36.1501 -36.1372 -36.0517
   -36.0310 -35.8413 -35.7995 -35.7477 -35.5864 -35.5720 -33.5196 -33.3333
   -33.2536 -33.2348 -33.2224 -33.0661 -32.9752 -32.9441 -32.8524 -32.8322
   -32.8161 -32.7618 -32.7234 -32.5743 -32.5732 -32.4800 -32.3125 -32.2975
    -4.9495  -3.2461  -2.8120  -2.6261  -2.5240  -2.3167  -2.2683  -2.0369
    -1.9848  -1.6355  -1.6119  -1.4580  -1.3763  -1.2626  -1.2367  -0.3602
    -0.2680  -0.1047   0.0735   0.2517   0.4842   0.6977   0.7102   0.7779
     0.8761   1.0326   1.7007   1.8155   1.8164   1.9371   2.1162   2.1336
     2.1524   2.3408   2.4875   2.5073   2.5947   2.8617   2.9580   2.9844
     3.1682   3.3253   3.3869   3.5410   3.8063   3.9333   3.9706   4.2178
     4.4500   4.5260   4.8135   4.8825   4.9273

          k = 0.0469 0.0235 0.0000 ( 32592 PWs)   bands (ev):

   -72.1809 -72.1245 -72.0786 -72.0622 -72.0234 -72.0070 -59.0365 -58.9361
   -58.8375 -58.8177 -58.7390 -58.7192 -36.6601 -36.5999 -36.4967 -36.4270
   -36.4133 -36.3204 -36.2325 -36.2193 -36.1612 -36.1479 -36.1363 -36.0612
   -36.0396 -35.8900 -35.8327 -35.7563 -35.6750 -35.6607 -33.4395 -33.3269
   -33.2360 -33.1717 -33.1545 -33.0622 -32.9867 -32.9316 -32.8486 -32.8407
   -32.8120 -32.7733 -32.7351 -32.6666 -32.5652 -32.4888 -32.4036 -32.3888
    -4.5803  -2.8890  -2.5809  -2.4598  -2.2925  -2.1019  -1.9828  -1.8109
    -1.7572  -1.4949  -1.4399  -1.2311  -1.1485  -0.9370  -0.8673  -0.2682
    -0.1750  -0.0507   0.3052   0.3700   0.4800   0.5818   0.6559   0.8210
     0.8341   1.1356   1.4858   1.5600   1.6238   1.7453   1.8150   1.9694
     1.9880   2.1327   2.1569   2.3925   2.4987   2.6343   2.7160   2.7712
     2.8690   3.0583   3.1281   3.3000   3.3890   3.4230   3.5907   3.9937
     4.1075   4.3850   4.3935   4.6374   4.6560

          k = 0.0469 0.0392 0.0000 ( 32604 PWs)   bands (ev):

   -72.1809 -72.1245 -72.0786 -72.0622 -72.0234 -72.0070 -59.0366 -58.9361
   -58.8376 -58.8177 -58.7389 -58.7192 -36.6583 -36.5972 -36.4963 -36.4264
   -36.4118 -36.3160 -36.2347 -36.2177 -36.1565 -36.1483 -36.1324 -36.0616
   -36.0389 -35.8902 -35.8325 -35.7564 -35.6752 -35.6609 -33.4426 -33.3317
   -33.2368 -33.1734 -33.1571 -33.0678 -32.9879 -32.9287 -32.8546 -32.8402
   -32.8178 -32.7740 -32.7360 -32.6664 -32.5658 -32.4887 -32.4035 -32.3886
    -4.4040  -2.7606  -2.5219  -2.3162  -2.1693  -1.9818  -1.9268  -1.6736
    -1.6372  -1.3626  -1.3021  -1.1666  -1.0124  -0.7958  -0.7404  -0.2789
    -0.2029   0.0181   0.0928   0.3378   0.3918   0.4507   0.4842   0.7027
     0.9162   1.0522   1.2723   1.3819   1.3975   1.5038   1.7556   1.8662
     1.9077   1.9772   1.9798   2.3289   2.5048   2.5417   2.6297   2.7119
     2.9355   3.0035   3.1451   3.2649   3.2803   3.3696   3.4873   3.7915
     4.0791   4.1122   4.3503   4.5287   4.5321

          k = 0.0469 0.0548 0.0000 ( 32581 PWs)   bands (ev):

   -72.1809 -72.1245 -72.0786 -72.0622 -72.0234 -72.0070 -59.0367 -58.9361
   -58.8376 -58.8178 -58.7389 -58.7191 -36.6563 -36.5940 -36.4958 -36.4256
   -36.4101 -36.3110 -36.2373 -36.2158 -36.1512 -36.1489 -36.1279 -36.0620
   -36.0381 -35.8906 -35.8322 -35.7565 -35.6754 -35.6613 -33.4462 -33.3372
   -33.2376 -33.1752 -33.1600 -33.0743 -32.9893 -32.9253 -32.8615 -32.8396
   -32.8245 -32.7747 -32.7370 -32.6662 -32.5665 -32.4886 -32.4033 -32.3883
    -4.1589  -2.6612  -2.4197  -2.1336  -2.0292  -1.8227  -1.8221  -1.5334
    -1.4093  -1.1723  -1.1354  -1.0721  -0.7841  -0.6945  -0.6262  -0.2981
    -0.1359  -0.1349   0.0539   0.1593   0.2490   0.3108   0.4646   0.5941
     0.7763   0.9319   1.1595   1.1982   1.2061   1.2787   1.4752   1.4840
     1.7713   1.8033   1.9296   1.9643   2.2010   2.6003   2.6467   2.7146
     2.7991   3.1208   3.1719   3.2117   3.2681   3.3513   3.5826   3.6096
     3.8550   4.1569   4.1848   4.5067   4.5170

          k = 0.0469 0.0705 0.0000 ( 32580 PWs)   bands (ev):

   -72.1809 -72.1245 -72.0786 -72.0622 -72.0234 -72.0070 -59.0368 -58.9361
   -58.8377 -58.8179 -58.7388 -58.7191 -36.6545 -36.5913 -36.4953 -36.4249
   -36.4086 -36.3064 -36.2396 -36.2141 -36.1494 -36.1465 -36.1240 -36.0622
   -36.0375 -35.8908 -35.8319 -35.7566 -35.6755 -35.6615 -33.4493 -33.3420
   -33.2383 -33.1768 -33.1626 -33.0798 -32.9906 -32.9222 -32.8676 -32.8391
   -32.8304 -32.7754 -32.7380 -32.6660 -32.5671 -32.4886 -32.4032 -32.3882
    -3.8784  -2.6972  -2.3009  -1.9158  -1.8950  -1.6848  -1.6544  -1.3185
    -1.1754  -1.0072  -0.9524  -0.9498  -0.6574  -0.5751  -0.4894  -0.3579
    -0.3283  -0.1867   0.0194   0.0999   0.2462   0.2615   0.3278   0.5594
     0.5735   0.7584   0.9426   0.9761   1.0036   1.1252   1.1523   1.2328
     1.5020   1.6093   1.6450   2.0558   2.1123   2.4062   2.4997   2.7469
     2.8647   2.9964   3.0107   3.3264   3.3279   3.5129   3.5433   3.5954
     3.9259   4.0432   4.2145   4.3395   4.5058

          k = 0.0469 0.0861 0.0000 ( 32578 PWs)   bands (ev):

   -72.1809 -72.1245 -72.0786 -72.0622 -72.0234 -72.0070 -59.0368 -58.9361
   -58.8377 -58.8179 -58.7388 -58.7190 -36.6534 -36.5897 -36.4951 -36.4245
   -36.4077 -36.3038 -36.2410 -36.2131 -36.1497 -36.1438 -36.1219 -36.0624
   -36.0372 -35.8910 -35.8318 -35.7567 -35.6756 -35.6617 -33.4511 -33.3448
   -33.2388 -33.1776 -33.1641 -33.0830 -32.9913 -32.9204 -32.8712 -32.8388
   -32.8338 -32.7757 -32.7385 -32.6659 -32.5674 -32.4885 -32.4031 -32.3881
    -3.6457  -2.8221  -2.2156  -1.8085  -1.7224  -1.6080  -1.5267  -1.0543
    -1.0465  -0.9570  -0.8098  -0.7772  -0.6745  -0.5518  -0.5307  -0.4438
    -0.4163  -0.1212  -0.0379   0.1572   0.2511   0.3535   0.3596   0.4236
     0.4580   0.6193   0.6520   0.7010   0.7828   0.8422   1.0985   1.2012
     1.3966   1.5286   1.6263   1.9735   2.1275   2.3368   2.3449   2.6097
     2.9116   2.9621   3.0434   3.3596   3.3804   3.4465   3.5205   3.7066
     3.8481   4.1509   4.2135   4.4243   4.5367

          k = 0.0469 0.1018 0.0000 ( 32578 PWs)   bands (ev):

   -72.1809 -72.1245 -72.0786 -72.0622 -72.0234 -72.0070 -59.0368 -58.9361
   -58.8377 -58.8179 -58.7388 -58.7190 -36.6534 -36.5897 -36.4951 -36.4245
   -36.4077 -36.3038 -36.2410 -36.2131 -36.1497 -36.1438 -36.1219 -36.0624
   -36.0372 -35.8910 -35.8318 -35.7567 -35.6756 -35.6617 -33.4511 -33.3448
   -33.2388 -33.1776 -33.1641 -33.0830 -32.9913 -32.9204 -32.8712 -32.8388
   -32.8338 -32.7757 -32.7385 -32.6659 -32.5674 -32.4885 -32.4031 -32.3881
    -3.6457  -2.8221  -2.2156  -1.8085  -1.7224  -1.6080  -1.5267  -1.0542
    -1.0467  -0.9569  -0.8098  -0.7773  -0.6746  -0.5518  -0.5307  -0.4438
    -0.4164  -0.1211  -0.0380   0.1575   0.2512   0.3535   0.3596   0.4233
     0.4578   0.6194   0.6521   0.7011   0.7828   0.8421   1.0985   1.2011
     1.3966   1.5287   1.6262   1.9734   2.1276   2.3367   2.3450   2.6096
     2.9115   2.9621   3.0433   3.3596   3.3801   3.4466   3.5207   3.7065
     3.8480   4.1508   4.2135   4.4244   4.5368

          k = 0.0469-0.0705 0.0000 ( 32580 PWs)   bands (ev):

   -72.1809 -72.1245 -72.0786 -72.0622 -72.0234 -72.0070 -59.0368 -58.9361
   -58.8377 -58.8179 -58.7388 -58.7191 -36.6545 -36.5913 -36.4953 -36.4249
   -36.4086 -36.3064 -36.2396 -36.2141 -36.1494 -36.1465 -36.1240 -36.0622
   -36.0375 -35.8908 -35.8319 -35.7566 -35.6755 -35.6615 -33.4493 -33.3420
   -33.2383 -33.1768 -33.1626 -33.0798 -32.9906 -32.9222 -32.8676 -32.8391
   -32.8304 -32.7754 -32.7380 -32.6660 -32.5671 -32.4886 -32.4032 -32.3882
    -3.8784  -2.6972  -2.3008  -1.9158  -1.8949  -1.6848  -1.6544  -1.3185
    -1.1756  -1.0072  -0.9525  -0.9499  -0.6576  -0.5752  -0.4893  -0.3579
    -0.3284  -0.1868   0.0196   0.0998   0.2464   0.2617   0.3277   0.5594
     0.5735   0.7584   0.9425   0.9761   1.0037   1.1253   1.1523   1.2330
     1.5023   1.6093   1.6447   2.0557   2.1124   2.4065   2.4993   2.7468
     2.8647   2.9962   3.0107   3.3264   3.3275   3.5128   3.5434   3.5955
     3.9259   4.0431   4.2145   4.3397   4.5061

          k = 0.0469-0.0548 0.0000 ( 32581 PWs)   bands (ev):

   -72.1809 -72.1245 -72.0786 -72.0622 -72.0234 -72.0070 -59.0367 -58.9361
   -58.8376 -58.8178 -58.7389 -58.7191 -36.6563 -36.5940 -36.4958 -36.4256
   -36.4101 -36.3110 -36.2373 -36.2158 -36.1512 -36.1489 -36.1279 -36.0620
   -36.0381 -35.8906 -35.8322 -35.7565 -35.6754 -35.6613 -33.4462 -33.3372
   -33.2376 -33.1752 -33.1600 -33.0743 -32.9893 -32.9253 -32.8615 -32.8396
   -32.8245 -32.7747 -32.7370 -32.6662 -32.5665 -32.4887 -32.4033 -32.3883
    -4.1589  -2.6612  -2.4197  -2.1336  -2.0291  -1.8227  -1.8221  -1.5334
    -1.4094  -1.1725  -1.1353  -1.0722  -0.7840  -0.6945  -0.6263  -0.2981
    -0.1359  -0.1350   0.0539   0.1592   0.2493   0.3110   0.4646   0.5942
     0.7763   0.9320   1.1592   1.1981   1.2064   1.2792   1.4753   1.4841
     1.7712   1.8031   1.9297   1.9644   2.2008   2.6004   2.6464   2.7147
     2.7989   3.1209   3.1721   3.2118   3.2678   3.3511   3.5826   3.6095
     3.8551   4.1567   4.1848   4.5069   4.5172

          k = 0.0469-0.0392 0.0000 ( 32604 PWs)   bands (ev):

   -72.1809 -72.1245 -72.0786 -72.0622 -72.0234 -72.0070 -59.0366 -58.9361
   -58.8376 -58.8177 -58.7389 -58.7192 -36.6583 -36.5972 -36.4963 -36.4264
   -36.4118 -36.3160 -36.2347 -36.2177 -36.1565 -36.1483 -36.1324 -36.0616
   -36.0389 -35.8902 -35.8325 -35.7564 -35.6752 -35.6609 -33.4426 -33.3316
   -33.2368 -33.1734 -33.1571 -33.0678 -32.9879 -32.9287 -32.8546 -32.8402
   -32.8178 -32.7740 -32.7360 -32.6664 -32.5658 -32.4888 -32.4035 -32.3886
    -4.4039  -2.7606  -2.5219  -2.3162  -2.1692  -1.9818  -1.9268  -1.6736
    -1.6373  -1.3629  -1.3020  -1.1666  -1.0123  -0.7958  -0.7406  -0.2788
    -0.2031   0.0181   0.0928   0.3378   0.3918   0.4507   0.4843   0.7028
     0.9164   1.0522   1.2724   1.3819   1.3974   1.5039   1.7556   1.8665
     1.9078   1.9770   1.9797   2.3291   2.5045   2.5413   2.6298   2.7119
     2.9355   3.0036   3.1450   3.2648   3.2806   3.3695   3.4872   3.7914
     4.0790   4.1122   4.3503   4.5288   4.5322

          k = 0.0469-0.0235 0.0000 ( 32592 PWs)   bands (ev):

   -72.1809 -72.1245 -72.0786 -72.0622 -72.0234 -72.0070 -59.0365 -58.9361
   -58.8375 -58.8177 -58.7390 -58.7192 -36.6601 -36.5999 -36.4967 -36.4270
   -36.4133 -36.3204 -36.2325 -36.2193 -36.1612 -36.1479 -36.1363 -36.0612
   -36.0396 -35.8900 -35.8327 -35.7563 -35.6750 -35.6607 -33.4395 -33.3269
   -33.2360 -33.1717 -33.1545 -33.0622 -32.9867 -32.9316 -32.8486 -32.8407
   -32.8120 -32.7733 -32.7351 -32.6666 -32.5652 -32.4888 -32.4036 -32.3888
    -4.5803  -2.8890  -2.5809  -2.4598  -2.2924  -2.1020  -1.9828  -1.8109
    -1.7572  -1.4952  -1.4397  -1.2312  -1.1484  -0.9371  -0.8673  -0.2682
    -0.1752  -0.0507   0.3052   0.3700   0.4799   0.5819   0.6559   0.8210
     0.8343   1.1356   1.4857   1.5600   1.6239   1.7453   1.8150   1.9695
     1.9881   2.1328   2.1569   2.3922   2.4986   2.6346   2.7158   2.7711
     2.8691   3.0583   3.1280   3.3001   3.3888   3.4229   3.5910   3.9937
     4.1074   4.3851   4.3935   4.6375   4.6559

          k = 0.0469-0.0078 0.0000 ( 32584 PWs)   bands (ev):

   -72.1809 -72.1245 -72.0786 -72.0622 -72.0234 -72.0070 -59.0364 -58.9361
   -58.8375 -58.8176 -58.7389 -58.7192 -36.6611 -36.6015 -36.4970 -36.4274
   -36.4142 -36.3228 -36.2311 -36.2203 -36.1638 -36.1477 -36.1386 -36.0610
   -36.0400 -35.8898 -35.8328 -35.7563 -35.6750 -35.6605 -33.4376 -33.3241
   -33.2356 -33.1708 -33.1530 -33.0589 -32.9860 -32.9333 -32.8451 -32.8410
   -32.8088 -32.7730 -32.7345 -32.6667 -32.5648 -32.4889 -32.4037 -32.3889
    -4.6720  -2.9666  -2.5969  -2.5397  -2.3762  -2.1611  -2.0105  -1.9055
    -1.7957  -1.5612  -1.5144  -1.2641  -1.1975  -1.0751  -0.9043  -0.2570
    -0.1611  -0.0884   0.3331   0.4681   0.5821   0.7066   0.7068   0.7683
     0.8154   1.2453   1.6226   1.6852   1.7164   1.8348   1.9655   2.0310
     2.0428   2.1028   2.1553   2.3359   2.5282   2.6425   2.7149   2.7463
     2.9313   2.9602   3.3124   3.3893   3.4487   3.4552   3.7376   3.9454
     4.3031   4.4171   4.5732   4.8019   4.8200

          k = 0.0469 0.0078 0.0000 ( 32584 PWs)   bands (ev):

   -72.1809 -72.1245 -72.0786 -72.0622 -72.0234 -72.0070 -59.0364 -58.9361
   -58.8375 -58.8176 -58.7389 -58.7192 -36.6611 -36.6015 -36.4970 -36.4274
   -36.4142 -36.3228 -36.2311 -36.2203 -36.1638 -36.1477 -36.1386 -36.0610
   -36.0400 -35.8898 -35.8328 -35.7563 -35.6750 -35.6605 -33.4376 -33.3241
   -33.2356 -33.1708 -33.1530 -33.0589 -32.9860 -32.9333 -32.8451 -32.8410
   -32.8088 -32.7730 -32.7345 -32.6667 -32.5648 -32.4889 -32.4037 -32.3889
    -4.6720  -2.9666  -2.5969  -2.5396  -2.3763  -2.1611  -2.0105  -1.9055
    -1.7957  -1.5611  -1.5145  -1.2641  -1.1975  -1.0751  -0.9043  -0.2570
    -0.1611  -0.0884   0.3331   0.4681   0.5823   0.7066   0.7066   0.7683
     0.8153   1.2453   1.6225   1.6852   1.7166   1.8346   1.9655   2.0308
     2.0429   2.1029   2.1554   2.3360   2.5280   2.6425   2.7150   2.7463
     2.9313   2.9603   3.3125   3.3892   3.4487   3.4553   3.7374   3.9454
     4.3031   4.4173   4.5731   4.8019   4.8198

          k = 0.0625 0.0313 0.0000 ( 32596 PWs)   bands (ev):

   -72.1727 -72.1328 -72.0706 -72.0542 -72.0315 -72.0152 -59.0220 -58.9510
   -58.8233 -58.8034 -58.7535 -58.7337 -36.5836 -36.5514 -36.5104 -36.3211
   -36.3071 -36.3032 -36.2313 -36.2214 -36.1613 -36.1450 -36.1207 -36.0742
   -36.0518 -36.0063 -35.8222 -35.7888 -35.7747 -35.7674 -33.3320 -33.3157
   -33.2513 -33.0641 -33.0537 -33.0477 -32.9999 -32.9172 -32.8526 -32.8404
   -32.8039 -32.7869 -32.7845 -32.7489 -32.5548 -32.5205 -32.5060 -32.5003
    -4.1690  -2.6598  -2.5112  -2.0952  -2.0883  -1.8645  -1.6882  -1.5779
    -1.5266  -1.3743  -1.2561  -0.9171  -0.9019  -0.6380  -0.5041  -0.1509
    -0.0678  -0.0622   0.3214   0.3494   0.4525   0.5607   0.7506   0.8840
     0.9055   1.3023   1.3170   1.3865   1.4491   1.4853   1.5503   1.7355
     1.8120   1.9052   1.9925   2.1908   2.2757   2.4823   2.5007   2.5961
     2.6694   2.8765   2.8905   3.0536   3.1051   3.2632   3.4214   3.7237
     3.8980   4.0792   4.0942   4.2780   4.3992

          k = 0.0625 0.0470 0.0000 ( 32624 PWs)   bands (ev):

   -72.1727 -72.1328 -72.0706 -72.0542 -72.0315 -72.0152 -59.0221 -58.9510
   -58.8233 -58.8035 -58.7535 -58.7337 -36.5810 -36.5497 -36.5104 -36.3205
   -36.3055 -36.2992 -36.2305 -36.2235 -36.1613 -36.1405 -36.1170 -36.0753
   -36.0519 -36.0069 -35.8220 -35.7890 -35.7753 -35.7676 -33.3350 -33.3201
   -33.2512 -33.0656 -33.0588 -33.0502 -33.0001 -32.9144 -32.8526 -32.8460
   -32.8095 -32.7866 -32.7836 -32.7488 -32.5553 -32.5202 -32.5054 -32.5001
    -3.9696  -2.6658  -2.3958  -1.9795  -1.9639  -1.7178  -1.6275  -1.4384
    -1.3794  -1.2383  -1.1062  -0.8486  -0.7467  -0.5609  -0.4788  -0.1228
    -0.0476  -0.0155   0.1123   0.2920   0.3158   0.3560   0.6545   0.8785
     0.9733   1.0470   1.1525   1.1619   1.2476   1.3624   1.3931   1.5761
     1.6715   1.7866   1.8790   2.0206   2.1068   2.3399   2.5961   2.6132
     2.6801   2.9118   3.0579   3.2058   3.2349   3.3140   3.3272   3.5222
     3.8290   3.9712   4.0062   4.2736   4.3003

          k = 0.0625 0.0626 0.0000 ( 32594 PWs)   bands (ev):

   -72.1726 -72.1328 -72.0706 -72.0542 -72.0315 -72.0152 -59.0222 -58.9509
   -58.8233 -58.8035 -58.7534 -58.7337 -36.5785 -36.5478 -36.5105 -36.3198
   -36.3040 -36.2952 -36.2298 -36.2257 -36.1614 -36.1360 -36.1133 -36.0764
   -36.0520 -36.0075 -35.8219 -35.7893 -35.7758 -35.7677 -33.3378 -33.3245
   -33.2512 -33.0671 -33.0638 -33.0526 -33.0005 -32.9116 -32.8526 -32.8516
   -32.8151 -32.7862 -32.7829 -32.7488 -32.5558 -32.5199 -32.5049 -32.4999
    -3.7161  -2.6454  -2.3710  -1.8642  -1.7991  -1.5450  -1.5137  -1.2982
    -1.1604  -1.0443  -0.9573  -0.7536  -0.6479  -0.5024  -0.4983  -0.2080
    -0.0918   0.0692   0.0898   0.1459   0.2185   0.3492   0.4790   0.7584
     0.7735   0.8357   0.9462   1.0945   1.1389   1.1649   1.1932   1.3467
     1.4822   1.6581   1.7864   1.8750   1.9882   2.3355   2.4472   2.6050
     2.7340   2.9176   3.0352   3.2485   3.2644   3.3994   3.5373   3.5788
     3.8131   3.8574   4.0682   4.1927   4.3104

          k = 0.0625 0.0783 0.0000 ( 32589 PWs)   bands (ev):

   -72.1726 -72.1328 -72.0706 -72.0542 -72.0315 -72.0152 -59.0222 -58.9509
   -58.8233 -58.8035 -58.7534 -58.7337 -36.5766 -36.5464 -36.5105 -36.3193
   -36.3028 -36.2921 -36.2293 -36.2273 -36.1615 -36.1326 -36.1106 -36.0772
   -36.0520 -36.0080 -35.8217 -35.7895 -35.7763 -35.7678 -33.3399 -33.3277
   -33.2512 -33.0682 -33.0674 -33.0543 -33.0008 -32.9095 -32.8557 -32.8525
   -32.8192 -32.7860 -32.7824 -32.7488 -32.5561 -32.5197 -32.5045 -32.4998
    -3.4543  -2.6176  -2.4893  -1.7652  -1.5992  -1.4045  -1.3656  -1.0900
    -1.0114  -0.8614  -0.8285  -0.7335  -0.6494  -0.5840  -0.3527  -0.2769
    -0.1740  -0.0703   0.0728   0.1775   0.1873   0.3477   0.5386   0.5423
     0.5682   0.6614   0.7495   0.8404   0.9549   0.9989   1.0644   1.2896
     1.5195   1.5619   1.6363   1.8851   2.0700   2.1103   2.4155   2.5267
     2.7231   2.8222   2.9991   3.2424   3.4143   3.4937   3.5437   3.6450
     3.7290   4.0675   4.2146   4.2769   4.3327

          k = 0.0625 0.0940 0.0000 ( 32556 PWs)   bands (ev):

   -72.1726 -72.1328 -72.0706 -72.0542 -72.0315 -72.0152 -59.0221 -58.9509
   -58.8233 -58.8035 -58.7534 -58.7337 -36.5759 -36.5459 -36.5106 -36.3191
   -36.3024 -36.2910 -36.2291 -36.2279 -36.1615 -36.1314 -36.1097 -36.0775
   -36.0521 -36.0082 -35.8217 -35.7895 -35.7764 -35.7679 -33.3407 -33.3289
   -33.2512 -33.0687 -33.0686 -33.0549 -33.0009 -32.9086 -32.8572 -32.8525
   -32.8207 -32.7859 -32.7822 -32.7488 -32.5562 -32.5196 -32.5044 -32.4997
    -3.3162  -2.6049  -2.5881  -1.7248  -1.4873  -1.3747  -1.2508  -1.0362
    -0.8463  -0.8338  -0.8195  -0.7430  -0.6496  -0.5128  -0.4699  -0.4065
    -0.1353   0.0409   0.1249   0.1752   0.2339   0.2864   0.2872   0.4662
     0.5081   0.6563   0.7172   0.7862   0.8294   0.8432   1.0687   1.4517
     1.4698   1.4748   1.6429   1.8590   1.9305   2.3005   2.3523   2.3692
     2.6996   2.8391   3.0195   3.2289   3.4034   3.4614   3.5346   3.6956
     3.9562   4.0081   4.0161   4.3985   4.4675

          k = 0.0625 0.1096 0.0000 ( 32589 PWs)   bands (ev):

   -72.1726 -72.1328 -72.0706 -72.0542 -72.0315 -72.0152 -59.0222 -58.9509
   -58.8233 -58.8035 -58.7534 -58.7337 -36.5766 -36.5464 -36.5105 -36.3193
   -36.3028 -36.2921 -36.2293 -36.2273 -36.1615 -36.1326 -36.1106 -36.0772
   -36.0520 -36.0080 -35.8217 -35.7895 -35.7763 -35.7678 -33.3399 -33.3277
   -33.2512 -33.0682 -33.0674 -33.0543 -33.0007 -32.9095 -32.8557 -32.8525
   -32.8192 -32.7860 -32.7824 -32.7488 -32.5561 -32.5197 -32.5045 -32.4998
    -3.4542  -2.6176  -2.4893  -1.7652  -1.5993  -1.4045  -1.3656  -1.0900
    -1.0115  -0.8614  -0.8285  -0.7337  -0.6494  -0.5840  -0.3527  -0.2769
    -0.1740  -0.0706   0.0730   0.1776   0.1874   0.3476   0.5386   0.5418
     0.5682   0.6617   0.7497   0.8403   0.9551   0.9988   1.0645   1.2896
     1.5197   1.5617   1.6364   1.8851   2.0700   2.1104   2.4154   2.5267
     2.7229   2.8221   2.9991   3.2423   3.4144   3.4937   3.5437   3.6449
     3.7290   4.0675   4.2145   4.2768   4.3330

          k = 0.0625-0.0626 0.0000 ( 32594 PWs)   bands (ev):

   -72.1726 -72.1328 -72.0706 -72.0542 -72.0315 -72.0152 -59.0222 -58.9509
   -58.8233 -58.8035 -58.7534 -58.7337 -36.5785 -36.5478 -36.5105 -36.3198
   -36.3040 -36.2952 -36.2298 -36.2257 -36.1614 -36.1360 -36.1133 -36.0764
   -36.0520 -36.0075 -35.8219 -35.7893 -35.7758 -35.7677 -33.3378 -33.3245
   -33.2512 -33.0671 -33.0638 -33.0526 -33.0005 -32.9116 -32.8526 -32.8516
   -32.8151 -32.7862 -32.7829 -32.7488 -32.5558 -32.5199 -32.5049 -32.4999
    -3.7161  -2.6453  -2.3710  -1.8641  -1.7991  -1.5449  -1.5137  -1.2982
    -1.1606  -1.0444  -0.9572  -0.7536  -0.6481  -0.5022  -0.4983  -0.2080
    -0.0918   0.0693   0.0896   0.1458   0.2187   0.3493   0.4789   0.7586
     0.7735   0.8352   0.9467   1.0941   1.1395   1.1647   1.1932   1.3467
     1.4824   1.6577   1.7865   1.8752   1.9882   2.3356   2.4472   2.6049
     2.7338   2.9176   3.0351   3.2485   3.2644   3.3994   3.5372   3.5788
     3.8132   3.8574   4.0684   4.1927   4.3106

          k = 0.0625-0.0470 0.0000 ( 32624 PWs)   bands (ev):

   -72.1727 -72.1328 -72.0706 -72.0542 -72.0315 -72.0152 -59.0221 -58.9510
   -58.8233 -58.8035 -58.7535 -58.7337 -36.5810 -36.5497 -36.5104 -36.3205
   -36.3055 -36.2992 -36.2305 -36.2235 -36.1613 -36.1405 -36.1170 -36.0753
   -36.0519 -36.0069 -35.8220 -35.7890 -35.7753 -35.7676 -33.3350 -33.3201
   -33.2512 -33.0656 -33.0588 -33.0502 -33.0001 -32.9144 -32.8526 -32.8460
   -32.8095 -32.7866 -32.7836 -32.7488 -32.5553 -32.5202 -32.5054 -32.5001
    -3.9696  -2.6657  -2.3958  -1.9794  -1.9639  -1.7178  -1.6274  -1.4383
    -1.3796  -1.2384  -1.1062  -0.8486  -0.7467  -0.5609  -0.4788  -0.1228
    -0.0477  -0.0155   0.1123   0.2919   0.3160   0.3562   0.6544   0.8787
     0.9734   1.0467   1.1528   1.1619   1.2476   1.3623   1.3932   1.5763
     1.6716   1.7864   1.8791   2.0207   2.1067   2.3398   2.5962   2.6131
     2.6799   2.9119   3.0578   3.2059   3.2350   3.3140   3.3270   3.5220
     3.8290   3.9712   4.0063   4.2736   4.3005

          k = 0.0625-0.0313 0.0000 ( 32596 PWs)   bands (ev):

   -72.1727 -72.1328 -72.0706 -72.0542 -72.0315 -72.0152 -59.0220 -58.9510
   -58.8233 -58.8034 -58.7535 -58.7337 -36.5836 -36.5514 -36.5104 -36.3211
   -36.3071 -36.3032 -36.2313 -36.2214 -36.1613 -36.1450 -36.1207 -36.0742
   -36.0518 -36.0063 -35.8222 -35.7888 -35.7747 -35.7674 -33.3320 -33.3157
   -33.2513 -33.0641 -33.0537 -33.0477 -32.9999 -32.9172 -32.8526 -32.8404
   -32.8039 -32.7869 -32.7845 -32.7489 -32.5548 -32.5205 -32.5060 -32.5003
    -4.1690  -2.6597  -2.5112  -2.0953  -2.0882  -1.8646  -1.6882  -1.5780
    -1.5265  -1.3745  -1.2560  -0.9171  -0.9018  -0.6381  -0.5042  -0.1508
    -0.0677  -0.0624   0.3213   0.3495   0.4526   0.5607   0.7505   0.8842
     0.9057   1.3024   1.3170   1.3863   1.4491   1.4853   1.5503   1.7356
     1.8122   1.9053   1.9923   2.1910   2.2757   2.4822   2.5005   2.5959
     2.6694   2.8764   2.8906   3.0536   3.1051   3.2634   3.4213   3.7237
     3.8980   4.0793   4.0943   4.2779   4.3994

          k = 0.0625-0.0157 0.0000 ( 32568 PWs)   bands (ev):

   -72.1727 -72.1328 -72.0706 -72.0542 -72.0315 -72.0152 -59.0219 -58.9510
   -58.8232 -58.8034 -58.7535 -58.7337 -36.5854 -36.5527 -36.5104 -36.3216
   -36.3082 -36.3061 -36.2319 -36.2198 -36.1612 -36.1482 -36.1235 -36.0734
   -36.0518 -36.0058 -35.8223 -35.7886 -35.7744 -35.7673 -33.3297 -33.3125
   -33.2514 -33.0630 -33.0499 -33.0458 -32.9997 -32.9193 -32.8527 -32.8362
   -32.7998 -32.7872 -32.7852 -32.7489 -32.5544 -32.5207 -32.5064 -32.5004
    -4.2947  -2.6256  -2.6084  -2.1926  -2.1887  -1.9507  -1.7223  -1.7155
    -1.5707  -1.4478  -1.3654  -0.9730  -0.9582  -0.7974  -0.5380  -0.1408
    -0.1017  -0.0393   0.4248   0.5093   0.5837   0.7108   0.7116   0.7695
     1.0084   1.3174   1.4271   1.5548   1.6108   1.6271   1.7631   1.8593
     1.8612   1.9907   2.1414   2.2629   2.2713   2.3513   2.4919   2.5535
     2.5899   2.7952   2.9142   3.0783   3.1150   3.2669   3.3527   3.8505
     4.0205   4.1947   4.3075   4.3646   4.5640

          k = 0.0625 0.0000 0.0000 ( 32594 PWs)   bands (ev):

   -72.1727 -72.1328 -72.0706 -72.0542 -72.0316 -72.0152 -59.0219 -58.9510
   -58.8232 -58.8033 -58.7535 -58.7337 -36.5861 -36.5532 -36.5104 -36.3218
   -36.3086 -36.3071 -36.2321 -36.2192 -36.1612 -36.1494 -36.1245 -36.0731
   -36.0518 -36.0056 -35.8223 -35.7886 -35.7742 -35.7673 -33.3289 -33.3113
   -33.2514 -33.0626 -33.0485 -33.0451 -32.9997 -32.9200 -32.8527 -32.8347
   -32.7983 -32.7874 -32.7855 -32.7489 -32.5542 -32.5208 -32.5066 -32.5005
    -4.3375  -2.6440  -2.5997  -2.2479  -2.2222  -1.9720  -1.7670  -1.7353
    -1.5832  -1.4689  -1.4060  -0.9769  -0.9718  -0.8824  -0.5522  -0.1306
    -0.1140  -0.0331   0.5160   0.5854   0.5883   0.6637   0.6981   0.8083
     1.1339   1.2073   1.3891   1.7024   1.7263   1.7323   1.7576   1.8586
     1.9983   2.0855   2.0974   2.1775   2.3145   2.3886   2.4085   2.4112
     2.5492   2.8714   2.8845   3.1180   3.1525   3.2694   3.3248   3.8370
     4.0796   4.2701   4.4056   4.4790   4.6295

          k = 0.0625 0.0157 0.0000 ( 32568 PWs)   bands (ev):

   -72.1727 -72.1328 -72.0706 -72.0542 -72.0315 -72.0152 -59.0219 -58.9510
   -58.8232 -58.8034 -58.7535 -58.7337 -36.5854 -36.5527 -36.5104 -36.3216
   -36.3082 -36.3061 -36.2319 -36.2198 -36.1612 -36.1482 -36.1235 -36.0734
   -36.0518 -36.0058 -35.8223 -35.7886 -35.7744 -35.7673 -33.3297 -33.3125
   -33.2514 -33.0630 -33.0499 -33.0458 -32.9997 -32.9193 -32.8527 -32.8362
[...]
    -3.0708  -3.0410  -2.3237  -1.7766  -1.4589  -1.3021  -1.1985  -1.0532
    -1.0483  -0.9702  -0.8995  -0.8779  -0.5253  -0.2763  -0.1991  -0.1290
    -0.0552  -0.0274   0.0475   0.0841   0.1962   0.4059   0.5352   0.5968
     0.9161   0.9254   0.9697   0.9979   1.0920   1.1091   1.1639   1.3922
     1.5974   1.6652   1.6882   1.7040   1.7529   2.2923   2.3284   2.3598
     2.5854   2.6301   2.9268   3.1544   3.2808   3.4288   3.4806   3.5028
     3.7682   3.8278   3.9474   4.0259   4.1395

          k = 0.0781 0.1018 0.0000 ( 32604 PWs)   bands (ev):

   -72.1631 -72.1425 -72.0612 -72.0448 -72.0410 -72.0246 -59.0052 -58.9682
   -58.8066 -58.7868 -58.7703 -58.7506 -36.5602 -36.5288 -36.4193 -36.2768
   -36.2482 -36.2134 -36.1943 -36.1783 -36.1751 -36.1420 -36.1176 -36.0955
   -36.0947 -36.0693 -35.9220 -35.9082 -35.8075 -35.7808 -33.3099 -33.2659
   -33.2099 -33.0516 -33.0128 -32.9393 -32.9255 -32.9195 -32.8948 -32.8684
   -32.8400 -32.8015 -32.7977 -32.7608 -32.6538 -32.6381 -32.5425 -32.5128
    -3.0708  -3.0410  -2.3237  -1.7766  -1.4589  -1.3021  -1.1985  -1.0532
    -1.0483  -0.9703  -0.8994  -0.8779  -0.5253  -0.2763  -0.1992  -0.1290
    -0.0551  -0.0275   0.0477   0.0839   0.1963   0.4059   0.5352   0.5967
     0.9160   0.9257   0.9691   0.9980   1.0920   1.1098   1.1638   1.3921
     1.5974   1.6651   1.6882   1.7041   1.7530   2.2922   2.3283   2.3599
     2.5851   2.6301   2.9267   3.1544   3.2808   3.4288   3.4807   3.5028
     3.7682   3.8279   3.9474   4.0259   4.1395

          k = 0.0781 0.1175 0.0000 ( 32596 PWs)   bands (ev):

   -72.1631 -72.1425 -72.0612 -72.0448 -72.0410 -72.0246 -59.0051 -58.9682
   -58.8066 -58.7868 -58.7704 -58.7506 -36.5612 -36.5285 -36.4202 -36.2784
   -36.2479 -36.2124 -36.1948 -36.1793 -36.1750 -36.1417 -36.1195 -36.0967
   -36.0937 -36.0688 -35.9218 -35.9077 -35.8076 -35.7808 -33.3082 -33.2665
   -33.2087 -33.0498 -33.0131 -32.9388 -32.9245 -32.9201 -32.8957 -32.8681
   -32.8378 -32.7996 -32.7985 -32.7614 -32.6541 -32.6385 -32.5423 -32.5129
    -3.2735  -3.0186  -2.1761  -1.8165  -1.5882  -1.3399  -1.3247  -1.1862
    -1.1211  -1.0484  -0.7704  -0.7637  -0.6109  -0.3240  -0.2018  -0.1860
    -0.0533  -0.0466   0.0538   0.1110   0.3740   0.5691   0.6513   0.7098
     0.7958   0.8681   1.0679   1.0778   1.1383   1.2195   1.2696   1.4451
     1.4787   1.5475   1.7541   1.7612   1.8620   2.1932   2.2173   2.4886
     2.7016   2.7899   2.9182   3.1034   3.3863   3.3978   3.4875   3.5455
     3.5638   3.8208   3.9235   4.0124   4.0964

          k = 0.0781-0.0548 0.0000 ( 32614 PWs)   bands (ev):

   -72.1631 -72.1425 -72.0612 -72.0448 -72.0410 -72.0246 -59.0051 -58.9682
   -58.8066 -58.7868 -58.7704 -58.7507 -36.5630 -36.5279 -36.4216 -36.2812
   -36.2474 -36.2107 -36.1955 -36.1809 -36.1749 -36.1414 -36.1228 -36.0989
   -36.0919 -36.0679 -35.9213 -35.9069 -35.8078 -35.7806 -33.3052 -33.2675
   -33.2067 -33.0467 -33.0139 -32.9378 -32.9228 -32.9214 -32.8971 -32.8676
   -32.8339 -32.7998 -32.7962 -32.7625 -32.6547 -32.6393 -32.5418 -32.5132
    -3.5090  -2.9696  -2.1025  -1.8756  -1.6983  -1.4965  -1.3889  -1.2788
    -1.2363  -1.1576  -0.8752  -0.6639  -0.5387  -0.4269  -0.3509  -0.1330
    -0.0659   0.0162   0.1215   0.2010   0.4320   0.5760   0.7301   0.8227
     0.9747   1.0100   1.1260   1.1837   1.2066   1.3535   1.3832   1.4235
     1.5156   1.6387   1.6473   1.8657   2.0671   2.0738   2.1588   2.6676
     2.7182   2.9150   2.9771   3.0304   3.1335   3.4457   3.4631   3.5259
     3.6436   3.6936   3.8027   3.8662   3.9465

          k = 0.0781-0.0392 0.0000 ( 32585 PWs)   bands (ev):

   -72.1631 -72.1424 -72.0612 -72.0448 -72.0410 -72.0246 -59.0050 -58.9682
   -58.8066 -58.7867 -58.7704 -58.7506 -36.5651 -36.5272 -36.4233 -36.2842
   -36.2468 -36.2087 -36.1961 -36.1828 -36.1749 -36.1412 -36.1267 -36.1014
   -36.0899 -36.0669 -35.9209 -35.9060 -35.8081 -35.7804 -33.3018 -33.2686
   -33.2043 -33.0428 -33.0148 -32.9365 -32.9232 -32.9208 -32.8985 -32.8670
   -32.8294 -32.8015 -32.7921 -32.7638 -32.6553 -32.6403 -32.5412 -32.5135
    -3.7094  -2.8893  -2.1567  -1.9394  -1.7617  -1.6414  -1.4325  -1.3628
    -1.3356  -1.2707  -1.0316  -0.6106  -0.6101  -0.4462  -0.3502  -0.1851
     0.0328   0.0730   0.0934   0.2694   0.3632   0.6197   0.9008   0.9160
     1.0652   1.2237   1.2274   1.2889   1.3314   1.3743   1.4866   1.5179
     1.5445   1.6210   1.9294   1.9717   1.9924   2.1334   2.2742   2.6389
     2.6540   2.7180   2.9462   3.0578   3.1775   3.2451   3.3121   3.4567
     3.6294   3.7693   3.8644   3.8758   4.0146

          k = 0.0781-0.0235 0.0000 ( 32578 PWs)   bands (ev):

   -72.1631 -72.1424 -72.0612 -72.0448 -72.0410 -72.0246 -59.0049 -58.9682
   -58.8065 -58.7867 -58.7704 -58.7506 -36.5668 -36.5265 -36.4247 -36.2868
   -36.2465 -36.2070 -36.1965 -36.1843 -36.1750 -36.1411 -36.1300 -36.1034
   -36.0882 -36.0661 -35.9205 -35.9053 -35.8083 -35.7803 -33.2988 -33.2695
   -33.2022 -33.0393 -33.0157 -32.9353 -32.9250 -32.9191 -32.8995 -32.8664
   -32.8255 -32.8031 -32.7886 -32.7650 -32.6560 -32.6413 -32.5407 -32.5137
    -3.8512  -2.7818  -2.2370  -2.0323  -1.8179  -1.7372  -1.4897  -1.4569
    -1.3566  -1.3254  -1.1657  -0.7088  -0.5962  -0.4921  -0.3889  -0.1686
    -0.0233   0.0785   0.2681   0.2801   0.5237   0.6482   0.7047   0.9791
     1.1719   1.2903   1.3092   1.3825   1.4853   1.5263   1.5801   1.6509
     1.6797   1.7506   1.9298   2.0220   2.0814   2.1812   2.4262   2.4299
     2.5358   2.5700   2.7483   2.9230   3.1320   3.2349   3.3810   3.4590
     3.5782   3.6949   4.0179   4.0906   4.0992

          k = 0.0781-0.0078 0.0000 ( 32578 PWs)   bands (ev):

   -72.1631 -72.1424 -72.0612 -72.0448 -72.0410 -72.0246 -59.0049 -58.9683
   -58.8065 -58.7866 -58.7704 -58.7507 -36.5679 -36.5262 -36.4255 -36.2882
   -36.2463 -36.2061 -36.1967 -36.1853 -36.1750 -36.1410 -36.1319 -36.1046
   -36.0873 -36.0657 -35.9203 -35.9049 -35.8085 -35.7802 -33.2971 -33.2700
   -33.2009 -33.0372 -33.0163 -32.9345 -32.9261 -32.9180 -32.9000 -32.8661
   -32.8233 -32.8041 -32.7865 -32.7657 -32.6564 -32.6419 -32.5404 -32.5139
    -3.9241  -2.6812  -2.2849  -2.1455  -1.8526  -1.7527  -1.5744  -1.4762
    -1.3548  -1.3352  -1.2527  -0.7256  -0.6105  -0.5899  -0.4399  -0.1353
    -0.0103   0.0826   0.3429   0.4232   0.5159   0.6490   0.6802   0.9589
     1.0978   1.2057   1.4531   1.4761   1.5780   1.6717   1.6838   1.7365
     1.7595   1.9719   1.9770   2.0506   2.0519   2.2154   2.2229   2.3729
     2.4544   2.5149   2.6056   2.9049   3.0556   3.2554   3.3347   3.5061
     3.5610   3.6532   4.0859   4.2137   4.2683

          k = 0.0781 0.0078 0.0000 ( 32578 PWs)   bands (ev):

   -72.1631 -72.1424 -72.0612 -72.0448 -72.0410 -72.0246 -59.0049 -58.9683
   -58.8065 -58.7866 -58.7704 -58.7507 -36.5679 -36.5262 -36.4255 -36.2882
   -36.2463 -36.2061 -36.1967 -36.1853 -36.1750 -36.1410 -36.1319 -36.1046
   -36.0873 -36.0657 -35.9203 -35.9049 -35.8085 -35.7802 -33.2971 -33.2700
   -33.2009 -33.0372 -33.0163 -32.9345 -32.9261 -32.9180 -32.9000 -32.8661
   -32.8233 -32.8041 -32.7865 -32.7657 -32.6564 -32.6419 -32.5404 -32.5139
    -3.9241  -2.6812  -2.2849  -2.1455  -1.8526  -1.7526  -1.5745  -1.4762
    -1.3548  -1.3351  -1.2528  -0.7256  -0.6105  -0.5899  -0.4399  -0.1353
    -0.0104   0.0827   0.3429   0.4232   0.5158   0.6490   0.6802   0.9589
     1.0977   1.2058   1.4531   1.4761   1.5781   1.6716   1.6837   1.7364
     1.7596   1.9719   1.9768   2.0505   2.0522   2.2153   2.2229   2.3731
     2.4544   2.5149   2.6057   2.9049   3.0556   3.2553   3.3347   3.5061
     3.5610   3.6532   4.0859   4.2134   4.2684

          k = 0.0781 0.0235 0.0000 ( 32578 PWs)   bands (ev):

   -72.1631 -72.1424 -72.0612 -72.0448 -72.0410 -72.0246 -59.0049 -58.9682
   -58.8065 -58.7867 -58.7704 -58.7506 -36.5668 -36.5265 -36.4247 -36.2868
   -36.2465 -36.2070 -36.1965 -36.1843 -36.1750 -36.1411 -36.1300 -36.1034
   -36.0882 -36.0661 -35.9205 -35.9053 -35.8083 -35.7803 -33.2988 -33.2695
   -33.2022 -33.0393 -33.0157 -32.9353 -32.9250 -32.9191 -32.8995 -32.8664
   -32.8255 -32.8031 -32.7886 -32.7650 -32.6560 -32.6413 -32.5407 -32.5137
    -3.8512  -2.7818  -2.2370  -2.0323  -1.8179  -1.7371  -1.4897  -1.4569
    -1.3566  -1.3253  -1.1658  -0.7088  -0.5961  -0.4920  -0.3889  -0.1686
    -0.0234   0.0786   0.2680   0.2801   0.5237   0.6481   0.7045   0.9791
     1.1716   1.2904   1.3093   1.3825   1.4859   1.5260   1.5798   1.6505
     1.6800   1.7506   1.9297   2.0220   2.0815   2.1813   2.4262   2.4298
     2.5361   2.5700   2.7485   2.9230   3.1319   3.2348   3.3811   3.4591
     3.5782   3.6949   4.0180   4.0905   4.0991

          k =-0.0938-0.0470 0.0000 ( 32602 PWs)   bands (ev):

   -72.1528 -72.1528 -72.0511 -72.0511 -72.0347 -72.0347 -58.9867 -58.9867
   -58.7885 -58.7885 -58.7687 -58.7687 -36.5458 -36.5458 -36.2854 -36.2854
   -36.2636 -36.2636 -36.1915 -36.1915 -36.1083 -36.1083 -36.0846 -36.0845
   -36.0591 -36.0591 -36.0444 -36.0444 -35.7943 -35.7943 -33.2857 -33.2857
   -33.0657 -33.0656 -33.0282 -33.0282 -32.8833 -32.8833 -32.8178 -32.8178
   -32.7971 -32.7971 -32.7829 -32.7829 -32.7761 -32.7761 -32.5275 -32.5275
    -3.2594  -3.2594  -1.9437  -1.9437  -1.5812  -1.5812  -1.2739  -1.2739
    -1.2656  -1.2656  -0.7612  -0.7612  -0.3546  -0.3546  -0.2667  -0.2666
    -0.0672  -0.0672   0.2234   0.2234   0.5449   0.5449   0.9241   0.9241
     1.0700   1.0700   1.2468   1.2468   1.3425   1.3425   1.4818   1.4818
     1.6053   1.6053   1.7067   1.7067   1.8491   1.8491   2.5773   2.5773
     2.8283   2.8283   2.9021   2.9021   3.1126   3.1126   3.4797   3.4797
     3.6399   3.6402   3.7071   3.7077   3.7742

          k =-0.0938-0.0313 0.0000 ( 32577 PWs)   bands (ev):

   -72.1528 -72.1528 -72.0511 -72.0511 -72.0347 -72.0347 -58.9867 -58.9866
   -58.7885 -58.7885 -58.7687 -58.7687 -36.5471 -36.5444 -36.2864 -36.2839
   -36.2654 -36.2622 -36.1924 -36.1906 -36.1111 -36.1054 -36.0862 -36.0827
   -36.0597 -36.0586 -36.0455 -36.0434 -35.7945 -35.7941 -33.2879 -33.2835
   -33.0670 -33.0637 -33.0307 -33.0262 -32.8845 -32.8820 -32.8202 -32.8149
   -32.7976 -32.7964 -32.7836 -32.7828 -32.7776 -32.7747 -32.5279 -32.5270
    -3.3885  -3.0894  -1.9784  -1.9580  -1.6214  -1.5293  -1.3196  -1.2596
    -1.2499  -1.2278  -0.9089  -0.6234  -0.4181  -0.4086  -0.2950  -0.1119
    -0.0635  -0.0277   0.1887   0.2387   0.3027   0.7171   0.7888   0.9827
     1.0314   1.1770   1.2139   1.2533   1.3105   1.4431   1.4438   1.5008
     1.5300   1.5991   1.7337   1.7520   1.8500   1.9281   2.4882   2.6096
     2.6511   2.8025   2.8590   3.0196   3.0355   3.2218   3.2665   3.5083
     3.5376   3.6069   3.6965   3.8430   3.9190

          k =-0.0938-0.0157 0.0000 ( 32606 PWs)   bands (ev):

   -72.1528 -72.1528 -72.0511 -72.0511 -72.0347 -72.0347 -58.9867 -58.9866
   -58.7886 -58.7885 -58.7688 -58.7687 -36.5481 -36.5434 -36.2870 -36.2822
   -36.2674 -36.2615 -36.1930 -36.1899 -36.1131 -36.1031 -36.0874 -36.0813
   -36.0602 -36.0583 -36.0464 -36.0427 -35.7947 -35.7940 -33.2895 -33.2819
   -33.0678 -33.0619 -33.0330 -33.0251 -32.8854 -32.8811 -32.8218 -32.8122
   -32.7982 -32.7956 -32.7843 -32.7835 -32.7786 -32.7737 -32.5282 -32.5267
    -3.4677  -2.9071  -2.1091  -1.9715  -1.5886  -1.4965  -1.3705  -1.2469
    -1.2179  -1.1682  -1.0376  -0.6187  -0.4612  -0.3608  -0.3269  -0.1456
     0.0544   0.1189   0.1232   0.1915   0.2431   0.4931   0.8424   0.9709
     1.0448   1.1579   1.2456   1.2699   1.3412   1.4349   1.4997   1.5034
     1.5582   1.5684   1.6751   1.8398   1.9488   2.0794   2.3184   2.5328
     2.5348   2.7856   2.8594   2.9530   2.9891   3.0868   3.3624   3.4241
     3.4468   3.5141   3.8380   3.9906   4.1141

          k =-0.0938 0.0000 0.0000 ( 32590 PWs)   bands (ev):

   -72.1528 -72.1528 -72.0511 -72.0511 -72.0347 -72.0347 -58.9868 -58.9865
   -58.7886 -58.7884 -58.7688 -58.7686 -36.5484 -36.5431 -36.2871 -36.2814
   -36.2683 -36.2613 -36.1932 -36.1896 -36.1138 -36.1023 -36.0879 -36.0808
   -36.0604 -36.0582 -36.0468 -36.0425 -35.7947 -35.7939 -33.2901 -33.2813
   -33.0680 -33.0611 -33.0340 -33.0247 -32.8857 -32.8807 -32.8223 -32.8111
   -32.7985 -32.7952 -32.7846 -32.7839 -32.7789 -32.7734 -32.5283 -32.5266
    -3.4943  -2.8086  -2.2015  -1.9759  -1.5460  -1.4848  -1.4035  -1.2482
    -1.1729  -1.1368  -1.1153  -0.6515  -0.4421  -0.3916  -0.2747  -0.2034
     0.0456   0.1461   0.2211   0.2364   0.2443   0.3397   0.7387   1.0399
     1.0593   1.1256   1.2368   1.3062   1.3454   1.4290   1.4587   1.5328
     1.5542   1.6394   1.6690   1.9131   1.9300   2.2094   2.3075   2.3456
     2.5037   2.8296   2.8588   2.8651   2.9748   3.0460   3.3783   3.3961
     3.4270   3.4737   3.9059   4.0499   4.1968

          k =-0.0938 0.0157 0.0000 ( 32606 PWs)   bands (ev):

   -72.1528 -72.1528 -72.0511 -72.0511 -72.0347 -72.0347 -58.9867 -58.9866
   -58.7886 -58.7885 -58.7688 -58.7687 -36.5481 -36.5434 -36.2870 -36.2822
   -36.2674 -36.2615 -36.1930 -36.1899 -36.1131 -36.1031 -36.0874 -36.0813
   -36.0602 -36.0583 -36.0464 -36.0427 -35.7947 -35.7940 -33.2895 -33.2819
   -33.0678 -33.0619 -33.0330 -33.0251 -32.8854 -32.8811 -32.8218 -32.8122
   -32.7982 -32.7956 -32.7844 -32.7835 -32.7786 -32.7737 -32.5282 -32.5267
    -3.4677  -2.9071  -2.1091  -1.9715  -1.5886  -1.4965  -1.3704  -1.2469
    -1.2180  -1.1681  -1.0375  -0.6188  -0.4612  -0.3609  -0.3269  -0.1455
     0.0544   0.1189   0.1231   0.1915   0.2431   0.4932   0.8425   0.9709
     1.0448   1.1580   1.2455   1.2699   1.3409   1.4353   1.4997   1.5036
     1.5581   1.5683   1.6752   1.8400   1.9486   2.0796   2.3183   2.5327
     2.5347   2.7856   2.8593   2.9530   2.9891   3.0868   3.3625   3.4241
     3.4468   3.5143   3.8381   3.9905   4.1143

          k =-0.0938 0.0313 0.0000 ( 32577 PWs)   bands (ev):

   -72.1528 -72.1528 -72.0511 -72.0511 -72.0347 -72.0347 -58.9867 -58.9866
   -58.7885 -58.7885 -58.7687 -58.7687 -36.5471 -36.5444 -36.2864 -36.2839
   -36.2654 -36.2622 -36.1924 -36.1906 -36.1111 -36.1054 -36.0862 -36.0827
   -36.0597 -36.0586 -36.0455 -36.0434 -35.7945 -35.7941 -33.2879 -33.2835
   -33.0670 -33.0637 -33.0307 -33.0262 -32.8845 -32.8820 -32.8202 -32.8149
   -32.7976 -32.7964 -32.7836 -32.7829 -32.7776 -32.7746 -32.5279 -32.5270
    -3.3885  -3.0894  -1.9784  -1.9580  -1.6215  -1.5294  -1.3195  -1.2597
    -1.2499  -1.2278  -0.9089  -0.6234  -0.4182  -0.4086  -0.2950  -0.1117
    -0.0636  -0.0276   0.1887   0.2387   0.3027   0.7172   0.7888   0.9828
     1.0313   1.1767   1.2142   1.2531   1.3102   1.4435   1.4441   1.5009
     1.5298   1.5992   1.7339   1.7519   1.8501   1.9280   2.4882   2.6096
     2.6509   2.8023   2.8588   3.0195   3.0355   3.2219   3.2667   3.5081
     3.5377   3.6071   3.6965   3.8434   3.9189

          k =-0.0938-0.1410 0.0000 ( 32602 PWs)   bands (ev):

   -72.1528 -72.1528 -72.0511 -72.0511 -72.0347 -72.0347 -58.9867 -58.9867
   -58.7885 -58.7885 -58.7687 -58.7687 -36.5458 -36.5458 -36.2854 -36.2854
   -36.2636 -36.2636 -36.1915 -36.1915 -36.1083 -36.1083 -36.0846 -36.0845
   -36.0591 -36.0591 -36.0444 -36.0444 -35.7943 -35.7943 -33.2857 -33.2857
   -33.0657 -33.0656 -33.0282 -33.0282 -32.8833 -32.8833 -32.8178 -32.8178
   -32.7971 -32.7971 -32.7830 -32.7830 -32.7761 -32.7761 -32.5275 -32.5275
    -3.2594  -3.2594  -1.9437  -1.9437  -1.5814  -1.5813  -1.2738  -1.2738
    -1.2656  -1.2656  -0.7613  -0.7613  -0.3547  -0.3547  -0.2666  -0.2666
    -0.0671  -0.0671   0.2234   0.2234   0.5449   0.5449   0.9243   0.9243
     1.0699   1.0699   1.2464   1.2464   1.3429   1.3429   1.4817   1.4817
     1.6055   1.6055   1.7069   1.7069   1.8489   1.8489   2.5773   2.5773
     2.8279   2.8279   2.9020   2.9021   3.1127   3.1127   3.4797   3.4798
     3.6399   3.6403   3.7069   3.7076   3.7745

     the Fermi energy is     2.2552 ev

!    total energy              =   -1795.59597772 Ry
     estimated scf accuracy    <       0.00000669 Ry
     smearing contrib. (-TS)   =      -0.06371154 Ry
     internal energy E=F+TS    =   -1795.53226618 Ry

     The total energy is F=E-TS. E is the sum of the following terms:
     one-electron contribution =  -14680.06294141 Ry
     hartree contribution      =    7326.76664154 Ry
     xc contribution           =    -368.23088828 Ry
     ewald contribution        =    5925.99492189 Ry
     electric field correction =       0.00000008 Ry

     convergence has been achieved in  15 iterations

     negative rho (up, down):  1.673E-03 0.000E+00

     Forces acting on atoms (cartesian axes, Ry/au):

     atom    1 type  1   force =     0.00001055   -0.00321416    0.00517155
     atom    2 type  1   force =     0.00001234   -0.00321742    0.00517218
     atom    3 type  2   force =    -0.00002053   -0.00147093    0.01215333
     atom    4 type  2   force =    -0.00000778   -0.00147049    0.01215731
     atom    5 type  1   force =    -0.00002496    0.00325575   -0.00817738
     atom    6 type  1   force =    -0.00004233    0.00325662   -0.00817881
     atom    7 type  2   force =     0.00001564    0.00183313   -0.00819672
     atom    8 type  2   force =     0.00001901    0.00183821   -0.00818698
     atom    9 type  1   force =     0.00001289   -0.00049030    0.00116053
     atom   10 type  1   force =     0.00002176   -0.00049070    0.00116218
     atom   11 type  2   force =     0.00000166    0.00008479   -0.00212659
     atom   12 type  2   force =     0.00000175    0.00008550   -0.00211060

     Total force =     0.026117     Total SCF correction =     0.004985
     SCF correction compared to forces is large: reduce conv_thr to get better values

     Writing output data file ./Mo2W2/Mo2W2_beef.save/

     init_run     :     54.30s CPU     72.43s WALL (       1 calls)
     electrons    :   1730.26s CPU   2222.97s WALL (       1 calls)
     forces       :     21.30s CPU     27.72s WALL (       1 calls)

     Called by init_run:
     wfcinit      :     44.19s CPU     61.37s WALL (       1 calls)
     potinit      :      7.20s CPU      7.74s WALL (       1 calls)
     hinit0       :      1.95s CPU      2.13s WALL (       1 calls)

     Called by electrons:
     c_bands      :   1560.47s CPU   1987.22s WALL (      15 calls)
     sum_band     :    152.65s CPU    210.80s WALL (      15 calls)
     v_of_rho     :     15.25s CPU     20.74s WALL (      16 calls)
     newd         :      8.06s CPU     10.45s WALL (      16 calls)
     mix_rho      :      0.34s CPU      0.61s WALL (      15 calls)
     vdW_kernel   :      5.61s CPU      5.73s WALL (       1 calls)

     Called by c_bands:
     init_us_2    :      4.33s CPU      4.47s WALL (    2368 calls)
     cegterg      :   1542.56s CPU   1961.09s WALL (    1110 calls)

     Called by *egterg:
     cdiaghg      :    231.78s CPU    265.67s WALL (    6273 calls)
     h_psi        :    695.63s CPU    919.97s WALL (    6347 calls)
     s_psi        :    150.05s CPU    150.22s WALL (    6347 calls)
     g_psi        :      1.06s CPU      1.12s WALL (    5163 calls)

     Called by h_psi:
     h_psi:calbec :    159.70s CPU    222.76s WALL (    6347 calls)
     vloc_psi     :    382.62s CPU    543.32s WALL (    6347 calls)
     add_vuspsi   :    151.91s CPU    152.28s WALL (    6347 calls)

     General routines
     calbec       :    238.58s CPU    329.49s WALL (    7753 calls)
     fft          :      6.36s CPU     14.72s WALL (    1067 calls)
     ffts         :      0.05s CPU      0.09s WALL (      31 calls)
     fftw         :    441.45s CPU    626.94s WALL (  673242 calls)
     interpolate  :      0.12s CPU      0.20s WALL (      16 calls)

     Parallel routines
     fft_scatt_xy :     24.87s CPU     34.12s WALL (  674340 calls)
     fft_scatt_yz :    121.94s CPU    220.30s WALL (  674340 calls)

     PWSCF        :  30m17.80s CPU  39m58.06s WALL


   This run was terminated on:  20:41:37  23Jun2022            

=------------------------------------------------------------------------------=
   JOB DONE.
=------------------------------------------------------------------------------=
