
     Program PWSCF v.6.6 starts on 10Jul2022 at 15:48:56 

     This program is part of the open-source Quantum ESPRESSO suite
     for quantum simulation of materials; please cite
         "P. Giannozzi et al., J. Phys.:Condens. Matter 21 395502 (2009);
         "P. Giannozzi et al., J. Phys.:Condens. Matter 29 465901 (2017);
          URL http://www.quantum-espresso.org", 
     in publications or presentations arising from this work. More details at
     http://www.quantum-espresso.org/quote

     Parallel version (MPI), running on    37 processors

     MPI processes distributed on     1 nodes
     R & G space division:  proc/nbgrp/npool/nimage =      37
     Fft bands division:     nmany     =       1
     Reading input from Nb2Ag2.in
Warning: card &CELL ignored
Warning: card / ignored

     Current dimensions of program PWSCF are:
     Max number of different atomic species (ntypx) = 10
     Max number of k-points (npk) =  40000
     Max angular momentum in pseudopotentials (lmaxx) =  3
     Presently stress not available with electric field and gates

     Message from routine cell_base_init:
     DEPRECATED: use true lattice parameter, not A to a.u. conversion factor
     file Nb.pbe-spn-rrkjus_psl.1.0.0.UPF: wavefunction(s)  4S 4P renormalized

     **************************************************************************
     Initializing libbeef V0.1.2 with the BEEF-vdW functional.
     Citation: Wellendorff et al., PRB 85, 235149 (2012).
     **************************************************************************


     IMPORTANT: XC functional enforced from input :
     Exchange-correlation= BEEF-VDW
                           (   1   4  43  14   2   0   0)
     Any further DFT definition will be discarded
     Please, verify this is what you really want


     Subspace diagonalization in iterative solution of the eigenvalue problem:
     a serial algorithm will be used

     Found symmetry operation: I + ( -0.5000  0.0000  0.0000)
     This is a supercell, fractional translations are disabled

     Parallelization info
     --------------------
     sticks:   dense  smooth     PW     G-vecs:    dense   smooth      PW
     Min         127      50     14                29669     7498    1150
     Max         128      51     15                29675     7513    1173
     Sum        4705    1885    545              1097853   277649   43083



     bravais-lattice index     =            0
     lattice parameter (alat)  =       1.8897  a.u.
     unit-cell volume          =    5023.1852 (a.u.)^3
     number of atoms/cell      =           12
     number of atomic types    =            2
     number of electrons       =       144.00
     number of Kohn-Sham states=           86
     kinetic-energy cutoff     =      55.1240  Ry
     charge density cutoff     =     551.2396  Ry
     convergence threshold     =      1.0E-05
     mixing beta               =       0.1000
     number of iterations used =           10  plain     mixing
     Exchange-correlation= BEEF-VDW
                           (   1   4  43  14   2   0   0)

     celldm(1)=   1.889726  celldm(2)=   0.000000  celldm(3)=   0.000000
     celldm(4)=   0.000000  celldm(5)=   0.000000  celldm(6)=   0.000000

     crystal axes: (cart. coord. in units of alat)
               a(1) = (   5.585996   0.000000   0.000000 )  
               a(2) = (  -2.792998   5.378830   0.000000 )  
               a(3) = (   0.000000   0.000000  24.773892 )  

     reciprocal axes: (cart. coord. in units 2 pi/alat)
               b(1) = (  0.179019  0.092957 -0.000000 )  
               b(2) = (  0.000000  0.185914  0.000000 )  
               b(3) = (  0.000000 -0.000000  0.040365 )  


     PseudoPot. # 1 for Nb read from file:
     ../pseudo/Nb.pbe-spn-rrkjus_psl.1.0.0.UPF
     MD5 check sum: 6ee677a9f002bd3e3657f443f129faad
     Pseudo is Ultrasoft + core correction, Zval = 13.0
     Generated using "atomic" code by A. Dal Corso v.6.2.2
     Using radial grid of 1227 points,  6 beta functions with: 
                l(1) =   0
                l(2) =   0
                l(3) =   1
                l(4) =   1
                l(5) =   2
                l(6) =   2
     Q(r) pseudized with 0 coefficients 


     PseudoPot. # 2 for Ag read from file:
     ../pseudo/Ag.pbe-n-rrkjus_psl.1.0.0.UPF
     MD5 check sum: d841cbfac2b0861aec33b46768a516bf
     Pseudo is Ultrasoft + core correction, Zval = 11.0
     Generated using "atomic" code by A. Dal Corso v.6.2.2
     Using radial grid of 1237 points,  6 beta functions with: 
                l(1) =   0
                l(2) =   0
                l(3) =   1
                l(4) =   1
                l(5) =   2
                l(6) =   2
     Q(r) pseudized with 0 coefficients 


     atomic species   valence    mass     pseudopotential
        Nb            13.00    92.90637     Nb( 1.00)
        Ag            11.00   107.86820     Ag( 1.00)

     No symmetry found



   Cartesian axes

     site n.     atom                  positions (alat units)
         1           Nb  tau(   1) = (   0.0000000   0.0000000  10.0000000  )
         2           Nb  tau(   2) = (   2.7929981   0.0000000  10.0000000  )
         3           Ag  tau(   3) = (   1.3964991   2.6894149  10.0000000  )
         4           Ag  tau(   4) = (  -1.3964991   2.6894149  10.0000000  )
         5           Nb  tau(   5) = (   2.7929981   1.4502854  12.3869459  )
         6           Nb  tau(   6) = (  -0.0000000   1.4502854  12.3869459  )
         7           Ag  tau(   7) = (  -1.3964991   4.1397004  12.3869459  )
         8           Ag  tau(   8) = (   1.3964991   4.1397004  12.3869459  )
         9           Nb  tau(   9) = (  -0.0000000   2.8821074  14.6235520  )
        10           Nb  tau(  10) = (   2.7929983   2.8821071  14.6235542  )
        11           Ag  tau(  11) = (   4.1894970   0.2398116  14.8583773  )
        12           Ag  tau(  12) = (   1.3964993   0.2398113  14.8583775  )

     number of k points=    74  Fermi-Dirac smearing, width (Ry)=  0.0100
                       cart. coord. in units 2pi/alat
        k(    1) = (   0.0000000   0.0000000   0.0000000), wk =   0.0138889
        k(    2) = (   0.0000000   0.0154928   0.0000000), wk =   0.0277778
        k(    3) = (   0.0000000   0.0309857   0.0000000), wk =   0.0277778
        k(    4) = (   0.0000000   0.0464785   0.0000000), wk =   0.0277778
        k(    5) = (   0.0000000   0.0619713   0.0000000), wk =   0.0277778
        k(    6) = (   0.0000000   0.0774642   0.0000000), wk =   0.0277778
        k(    7) = (   0.0000000  -0.0929570   0.0000000), wk =   0.0138889
        k(    8) = (   0.0149183   0.0077464   0.0000000), wk =   0.0277778
        k(    9) = (   0.0149183   0.0232393   0.0000000), wk =   0.0277778
        k(   10) = (   0.0149183   0.0387321   0.0000000), wk =   0.0277778
        k(   11) = (   0.0149183   0.0542249   0.0000000), wk =   0.0277778
        k(   12) = (   0.0149183   0.0697178   0.0000000), wk =   0.0277778
        k(   13) = (   0.0149183   0.0852106   0.0000000), wk =   0.0277778
        k(   14) = (   0.0149183  -0.0852106   0.0000000), wk =   0.0277778
        k(   15) = (   0.0149183  -0.0697178   0.0000000), wk =   0.0277778
        k(   16) = (   0.0149183  -0.0542249   0.0000000), wk =   0.0277778
        k(   17) = (   0.0149183  -0.0387321   0.0000000), wk =   0.0277778
        k(   18) = (   0.0149183  -0.0232393   0.0000000), wk =   0.0277778
        k(   19) = (   0.0149183  -0.0077464   0.0000000), wk =   0.0277778
        k(   20) = (   0.0298365   0.0154928   0.0000000), wk =   0.0277778
        k(   21) = (   0.0298365   0.0309857   0.0000000), wk =   0.0277778
        k(   22) = (   0.0298365   0.0464785   0.0000000), wk =   0.0277778
        k(   23) = (   0.0298365   0.0619713   0.0000000), wk =   0.0277778
        k(   24) = (   0.0298365   0.0774642   0.0000000), wk =   0.0277778
        k(   25) = (   0.0298365   0.0929570   0.0000000), wk =   0.0277778
        k(   26) = (   0.0298365  -0.0774642   0.0000000), wk =   0.0277778
        k(   27) = (   0.0298365  -0.0619713   0.0000000), wk =   0.0277778
        k(   28) = (   0.0298365  -0.0464785   0.0000000), wk =   0.0277778
        k(   29) = (   0.0298365  -0.0309857   0.0000000), wk =   0.0277778
        k(   30) = (   0.0298365  -0.0154928   0.0000000), wk =   0.0277778
        k(   31) = (   0.0298365  -0.0000000   0.0000000), wk =   0.0277778
        k(   32) = (   0.0447548   0.0232393   0.0000000), wk =   0.0277778
        k(   33) = (   0.0447548   0.0387321   0.0000000), wk =   0.0277778
        k(   34) = (   0.0447548   0.0542249   0.0000000), wk =   0.0277778
        k(   35) = (   0.0447548   0.0697178   0.0000000), wk =   0.0277778
        k(   36) = (   0.0447548   0.0852106   0.0000000), wk =   0.0277778
        k(   37) = (   0.0447548   0.1007034   0.0000000), wk =   0.0277778
        k(   38) = (   0.0447548  -0.0697178   0.0000000), wk =   0.0277778
        k(   39) = (   0.0447548  -0.0542249   0.0000000), wk =   0.0277778
        k(   40) = (   0.0447548  -0.0387321   0.0000000), wk =   0.0277778
        k(   41) = (   0.0447548  -0.0232393   0.0000000), wk =   0.0277778
        k(   42) = (   0.0447548  -0.0077464   0.0000000), wk =   0.0277778
        k(   43) = (   0.0447548   0.0077464   0.0000000), wk =   0.0277778
        k(   44) = (   0.0596730   0.0309857   0.0000000), wk =   0.0277778
        k(   45) = (   0.0596730   0.0464785   0.0000000), wk =   0.0277778
        k(   46) = (   0.0596730   0.0619713   0.0000000), wk =   0.0277778
        k(   47) = (   0.0596730   0.0774642   0.0000000), wk =   0.0277778
        k(   48) = (   0.0596730   0.0929570   0.0000000), wk =   0.0277778
        k(   49) = (   0.0596730   0.1084499   0.0000000), wk =   0.0277778
        k(   50) = (   0.0596730  -0.0619713   0.0000000), wk =   0.0277778
        k(   51) = (   0.0596730  -0.0464785   0.0000000), wk =   0.0277778
        k(   52) = (   0.0596730  -0.0309857   0.0000000), wk =   0.0277778
        k(   53) = (   0.0596730  -0.0154928   0.0000000), wk =   0.0277778
        k(   54) = (   0.0596730   0.0000000   0.0000000), wk =   0.0277778
        k(   55) = (   0.0596730   0.0154928   0.0000000), wk =   0.0277778
        k(   56) = (   0.0745913   0.0387321   0.0000000), wk =   0.0277778
        k(   57) = (   0.0745913   0.0542249   0.0000000), wk =   0.0277778
        k(   58) = (   0.0745913   0.0697178   0.0000000), wk =   0.0277778
        k(   59) = (   0.0745913   0.0852106   0.0000000), wk =   0.0277778
        k(   60) = (   0.0745913   0.1007034   0.0000000), wk =   0.0277778
        k(   61) = (   0.0745913   0.1161963   0.0000000), wk =   0.0277778
        k(   62) = (   0.0745913  -0.0542249   0.0000000), wk =   0.0277778
        k(   63) = (   0.0745913  -0.0387321   0.0000000), wk =   0.0277778
        k(   64) = (   0.0745913  -0.0232393   0.0000000), wk =   0.0277778
        k(   65) = (   0.0745913  -0.0077464   0.0000000), wk =   0.0277778
        k(   66) = (   0.0745913   0.0077464   0.0000000), wk =   0.0277778
        k(   67) = (   0.0745913   0.0232393   0.0000000), wk =   0.0277778
        k(   68) = (  -0.0895096  -0.0464785   0.0000000), wk =   0.0138889
        k(   69) = (  -0.0895096  -0.0309857   0.0000000), wk =   0.0277778
        k(   70) = (  -0.0895096  -0.0154928   0.0000000), wk =   0.0277778
        k(   71) = (  -0.0895096   0.0000000   0.0000000), wk =   0.0277778
        k(   72) = (  -0.0895096   0.0154928   0.0000000), wk =   0.0277778
        k(   73) = (  -0.0895096   0.0309857   0.0000000), wk =   0.0277778
        k(   74) = (  -0.0895096  -0.1394355   0.0000000), wk =   0.0138889

     Dense  grid:  1097853 G-vectors     FFT dimensions: (  80,  90, 360)

     Smooth grid:   277649 G-vectors     FFT dimensions: (  50,  60, 225)

     Estimated max dynamical RAM per process >     210.72 MB

     Estimated total dynamical RAM >       7.61 GB

     Initial potential from superposition of free atoms

     starting charge  143.98975, renormalised to  144.00000

     negative rho (up, down):  8.836E-04 0.000E+00


     %%%%%%%%%%%%%%%%%%%%%%%%%%%%%%%%%%%%%%%%%%%%%%%%%%%%%%%%%%%%%%%%%%%%%%%%
     %                                                                      %
     % You are using vdW-DF, which was implemented by the Thonhauser group. %
     % Please cite the following two papers that made this development      %
     % possible and the two reviews that describe the various versions:     %
     %                                                                      %
     %   T. Thonhauser et al., PRL 115, 136402 (2015).                      %
     %   T. Thonhauser et al., PRB 76, 125112 (2007).                       %
     %   K. Berland et al., Rep. Prog. Phys. 78, 066501 (2015).             %
     %   D.C. Langreth et al., J. Phys.: Condens. Matter 21, 084203 (2009). %
     %                                                                      %
     %                                                                      %
     % If you are calculating the stress with vdW-DF, please also cite:     %
     %                                                                      %
     %   R. Sabatini et al., J. Phys.: Condens. Matter 24, 424209 (2012).   %
     %                                                                      %
     %%%%%%%%%%%%%%%%%%%%%%%%%%%%%%%%%%%%%%%%%%%%%%%%%%%%%%%%%%%%%%%%%%%%%%%%



     Adding external electric field

     Computed dipole along edir(3) : 
        Dipole               -0.0003 Ry au,         -0.0009 Debye
        Dipole field         -0.0000 Ry au, 

        Potential amp.        0.0001 Ry
        Total length         45.6455 bohr

     Starting wfcs are  132 randomized atomic wfcs

     total cpu time spent up to now is      115.0 secs

     Self-consistent Calculation

     iteration #  1     ecut=    55.12 Ry     beta= 0.10
     Davidson diagonalization with overlap
     ethr =  1.00E-02,  avg # of iterations =  2.0

     negative rho (up, down):  7.868E-04 0.000E+00

     Adding external electric field

     Computed dipole along edir(3) : 
        Dipole               -0.3497 Ry au,         -0.8888 Debye
        Dipole field         -0.0009 Ry au, 

        Potential amp.        0.0799 Ry
        Total length         45.6455 bohr


     total cpu time spent up to now is      324.1 secs

     total energy              =   -1221.57781781 Ry
     estimated scf accuracy    <       2.60710125 Ry

     iteration #  2     ecut=    55.12 Ry     beta= 0.10
     Davidson diagonalization with overlap
     ethr =  1.81E-03,  avg # of iterations =  2.3

     negative rho (up, down):  7.981E-04 0.000E+00

     Adding external electric field

     Computed dipole along edir(3) : 
        Dipole                0.3745 Ry au,          0.9518 Debye
        Dipole field          0.0009 Ry au, 

        Potential amp.       -0.0855 Ry
        Total length         45.6455 bohr


     total cpu time spent up to now is      538.3 secs

     total energy              =   -1221.59741311 Ry
     estimated scf accuracy    <       6.23619872 Ry

     iteration #  3     ecut=    55.12 Ry     beta= 0.10
     Davidson diagonalization with overlap
     ethr =  1.81E-03,  avg # of iterations =  1.8

     negative rho (up, down):  8.053E-04 0.000E+00

     Adding external electric field

     Computed dipole along edir(3) : 
        Dipole               -0.0235 Ry au,         -0.0598 Debye
        Dipole field         -0.0001 Ry au, 

        Potential amp.        0.0054 Ry
        Total length         45.6455 bohr


     total cpu time spent up to now is      732.7 secs

     total energy              =   -1221.71314635 Ry
     estimated scf accuracy    <       7.45275075 Ry

     iteration #  4     ecut=    55.12 Ry     beta= 0.10
     Davidson diagonalization with overlap
     ethr =  1.81E-03,  avg # of iterations =  1.1

     negative rho (up, down):  8.185E-04 0.000E+00

     Adding external electric field

     Computed dipole along edir(3) : 
        Dipole               -0.0245 Ry au,         -0.0622 Debye
        Dipole field         -0.0001 Ry au, 

        Potential amp.        0.0056 Ry
        Total length         45.6455 bohr


     total cpu time spent up to now is      896.6 secs

     total energy              =   -1221.77102758 Ry
     estimated scf accuracy    <       0.25912959 Ry

     iteration #  5     ecut=    55.12 Ry     beta= 0.10
     Davidson diagonalization with overlap
     ethr =  1.80E-04,  avg # of iterations =  7.8

     negative rho (up, down):  8.167E-04 0.000E+00

     Adding external electric field

     Computed dipole along edir(3) : 
        Dipole               -0.0057 Ry au,         -0.0145 Debye
        Dipole field         -0.0000 Ry au, 

        Potential amp.        0.0013 Ry
        Total length         45.6455 bohr


     total cpu time spent up to now is     1148.8 secs

     total energy              =   -1221.80010998 Ry
     estimated scf accuracy    <       0.07343388 Ry

     iteration #  6     ecut=    55.12 Ry     beta= 0.10
     Davidson diagonalization with overlap
     ethr =  5.10E-05,  avg # of iterations =  2.6

     negative rho (up, down):  8.370E-04 0.000E+00

     Adding external electric field

     Computed dipole along edir(3) : 
        Dipole               -0.0342 Ry au,         -0.0868 Debye
        Dipole field         -0.0001 Ry au, 

        Potential amp.        0.0078 Ry
        Total length         45.6455 bohr


     total cpu time spent up to now is     1362.4 secs

     total energy              =   -1221.79856789 Ry
     estimated scf accuracy    <       0.06727765 Ry

     iteration #  7     ecut=    55.12 Ry     beta= 0.10
     Davidson diagonalization with overlap
     ethr =  4.67E-05,  avg # of iterations =  1.4

     negative rho (up, down):  8.633E-04 0.000E+00

     Adding external electric field

     Computed dipole along edir(3) : 
        Dipole               -0.0194 Ry au,         -0.0493 Debye
        Dipole field         -0.0000 Ry au, 

        Potential amp.        0.0044 Ry
        Total length         45.6455 bohr


     total cpu time spent up to now is     1540.2 secs

     total energy              =   -1221.79612751 Ry
     estimated scf accuracy    <       0.01848914 Ry

     iteration #  8     ecut=    55.12 Ry     beta= 0.10
     Davidson diagonalization with overlap
     ethr =  1.28E-05,  avg # of iterations =  8.6

     negative rho (up, down):  8.709E-04 0.000E+00

     Adding external electric field

     Computed dipole along edir(3) : 
        Dipole               -0.0359 Ry au,         -0.0912 Debye
        Dipole field         -0.0001 Ry au, 

        Potential amp.        0.0082 Ry
        Total length         45.6455 bohr


     total cpu time spent up to now is     1812.8 secs

     total energy              =   -1221.79950709 Ry
     estimated scf accuracy    <       0.01332619 Ry

     iteration #  9     ecut=    55.12 Ry     beta= 0.10
     Davidson diagonalization with overlap
     ethr =  9.25E-06,  avg # of iterations =  2.2

     negative rho (up, down):  8.774E-04 0.000E+00

     Adding external electric field

     Computed dipole along edir(3) : 
        Dipole               -0.0302 Ry au,         -0.0768 Debye
        Dipole field         -0.0001 Ry au, 

        Potential amp.        0.0069 Ry
        Total length         45.6455 bohr


     total cpu time spent up to now is     2026.1 secs

     total energy              =   -1221.80088903 Ry
     estimated scf accuracy    <       0.00228862 Ry

     iteration # 10     ecut=    55.12 Ry     beta= 0.10
     Davidson diagonalization with overlap
     ethr =  1.59E-06,  avg # of iterations =  9.5

     negative rho (up, down):  8.869E-04 0.000E+00

     Adding external electric field

     Computed dipole along edir(3) : 
        Dipole               -0.0288 Ry au,         -0.0732 Debye
        Dipole field         -0.0001 Ry au, 

        Potential amp.        0.0066 Ry
        Total length         45.6455 bohr


     total cpu time spent up to now is     2326.2 secs

     total energy              =   -1221.80057855 Ry
     estimated scf accuracy    <       0.00239188 Ry

     iteration # 11     ecut=    55.12 Ry     beta= 0.10
     Davidson diagonalization with overlap
     ethr =  1.59E-06,  avg # of iterations =  5.1

     negative rho (up, down):  8.892E-04 0.000E+00

     Adding external electric field

     Computed dipole along edir(3) : 
        Dipole               -0.0285 Ry au,         -0.0724 Debye
        Dipole field         -0.0001 Ry au, 

        Potential amp.        0.0065 Ry
        Total length         45.6455 bohr


     total cpu time spent up to now is     2540.1 secs

     total energy              =   -1221.80110838 Ry
     estimated scf accuracy    <       0.00146681 Ry

     iteration # 12     ecut=    55.12 Ry     beta= 0.10
     Davidson diagonalization with overlap
     ethr =  1.02E-06,  avg # of iterations =  2.4

     negative rho (up, down):  8.878E-04 0.000E+00

     Adding external electric field

     Computed dipole along edir(3) : 
        Dipole               -0.0304 Ry au,         -0.0772 Debye
        Dipole field         -0.0001 Ry au, 

        Potential amp.        0.0069 Ry
        Total length         45.6455 bohr


     total cpu time spent up to now is     2721.9 secs

     total energy              =   -1221.80129104 Ry
     estimated scf accuracy    <       0.00009808 Ry

     iteration # 13     ecut=    55.12 Ry     beta= 0.10
     Davidson diagonalization with overlap
     ethr =  6.81E-08,  avg # of iterations =  6.3

     negative rho (up, down):  8.855E-04 0.000E+00

     Adding external electric field

     Computed dipole along edir(3) : 
        Dipole               -0.0306 Ry au,         -0.0777 Debye
        Dipole field         -0.0001 Ry au, 

        Potential amp.        0.0070 Ry
        Total length         45.6455 bohr


     total cpu time spent up to now is     2985.6 secs

     total energy              =   -1221.80132355 Ry
     estimated scf accuracy    <       0.00009421 Ry

     iteration # 14     ecut=    55.12 Ry     beta= 0.10
     Davidson diagonalization with overlap
     ethr =  6.54E-08,  avg # of iterations =  1.4

     negative rho (up, down):  8.832E-04 0.000E+00

     Adding external electric field

     Computed dipole along edir(3) : 
        Dipole               -0.0305 Ry au,         -0.0774 Debye
        Dipole field         -0.0001 Ry au, 

        Potential amp.        0.0070 Ry
        Total length         45.6455 bohr


     total cpu time spent up to now is     3145.0 secs

     total energy              =   -1221.80131927 Ry
     estimated scf accuracy    <       0.00003970 Ry

     iteration # 15     ecut=    55.12 Ry     beta= 0.10
     Davidson diagonalization with overlap
     ethr =  2.76E-08,  avg # of iterations =  2.4

     negative rho (up, down):  8.924E-04 0.000E+00

     Adding external electric field

     Computed dipole along edir(3) : 
        Dipole               -0.0349 Ry au,         -0.0888 Debye
        Dipole field         -0.0001 Ry au, 

        Potential amp.        0.0080 Ry
        Total length         45.6455 bohr


     total cpu time spent up to now is     3329.9 secs

     End of self-consistent calculation

          k = 0.0000 0.0000 0.0000 ( 34859 PWs)   bands (ev):

   -54.2509 -54.1576 -54.1224 -54.0271 -53.9859 -53.8560 -30.6165 -30.6127
   -30.5654 -30.4685 -30.4641 -30.3332 -30.2782 -30.2314 -30.2088 -30.1536
   -30.1047 -30.0922 -29.9639 -29.5974 -29.5489 -29.5032 -29.4904 -29.4245
    -5.3673  -4.8992  -4.8302  -4.7570  -4.6727  -4.6307  -4.5472  -4.4873
    -4.4130  -4.3467  -4.3425  -4.2000  -4.0950  -4.0802  -3.9390  -3.7428
    -3.7320  -3.6561  -3.5814  -3.4943  -3.2980  -3.1944  -3.1349  -3.1055
    -2.9949  -2.9291  -2.8167  -2.7755  -2.7540  -2.5992  -2.4487  -1.9895
    -1.1189  -0.9794  -0.8756  -0.7705  -0.6120  -0.3700  -0.3470  -0.2611
     0.1496   0.2121   0.3125   0.8249   0.8635   1.2297   1.2598   1.2605
     1.5040   1.7666   1.9869   2.1452   2.2462   2.3260   2.6679   2.9495
     3.0847   3.1243   3.1749   3.3234   3.5153   3.8005

          k = 0.0000 0.0155 0.0000 ( 34820 PWs)   bands (ev):

   -54.2507 -54.1575 -54.1224 -54.0272 -53.9857 -53.8560 -30.6166 -30.6128
   -30.5655 -30.4685 -30.4642 -30.3333 -30.2783 -30.2317 -30.2088 -30.1536
   -30.1047 -30.0922 -29.9640 -29.5974 -29.5489 -29.5032 -29.4904 -29.4245
    -5.3309  -4.8855  -4.8199  -4.7425  -4.6589  -4.6140  -4.5399  -4.4763
    -4.3973  -4.3257  -4.3254  -4.1876  -4.0654  -4.0611  -3.9414  -3.7322
    -3.7092  -3.6361  -3.5708  -3.4939  -3.2870  -3.2039  -3.1324  -3.1015
    -3.0020  -2.9231  -2.8128  -2.7798  -2.7501  -2.6002  -2.4485  -1.9907
    -1.1699  -1.0209  -0.8670  -0.8630  -0.6142  -0.3817  -0.3295  -0.3099
     0.1032   0.1821   0.3421   0.7039   0.7280   1.1458   1.1593   1.4340
     1.4949   1.5604   1.9650   2.0979   2.1871   2.2096   2.5910   2.9675
     2.9938   3.1121   3.2402   3.3305   3.3530   3.8967

          k = 0.0000 0.0310 0.0000 ( 34754 PWs)   bands (ev):

   -54.2507 -54.1575 -54.1223 -54.0270 -53.9857 -53.8558 -30.6170 -30.6133
   -30.5655 -30.4687 -30.4643 -30.3337 -30.2787 -30.2325 -30.2088 -30.1536
   -30.1046 -30.0920 -29.9646 -29.5974 -29.5490 -29.5032 -29.4904 -29.4245
    -5.2317  -4.8487  -4.7870  -4.7004  -4.6281  -4.5639  -4.5186  -4.4407
    -4.3533  -4.2773  -4.2677  -4.1574  -4.0008  -3.9802  -3.9486  -3.7025
    -3.6470  -3.5760  -3.5385  -3.4924  -3.2566  -3.2274  -3.1261  -3.0904
    -3.0190  -2.9049  -2.8023  -2.7912  -2.7395  -2.6032  -2.4480  -1.9938
    -1.3621  -1.0778  -1.0594  -0.8781  -0.6210  -0.4775  -0.4358  -0.2496
    -0.0205   0.0672   0.3218   0.5276   0.5308   0.8838   0.9457   1.1868
     1.4891   1.5660   1.7098   1.7874   2.1638   2.1661   2.5424   2.7692
     2.7858   3.0794   3.2294   3.3517   3.5203   3.8641

          k = 0.0000 0.0465 0.0000 ( 34778 PWs)   bands (ev):

   -54.2507 -54.1574 -54.1223 -54.0270 -53.9857 -53.8559 -30.6176 -30.6139
   -30.5656 -30.4689 -30.4644 -30.3342 -30.2792 -30.2336 -30.2088 -30.1537
   -30.1046 -30.0918 -29.9654 -29.5975 -29.5490 -29.5032 -29.4905 -29.4245
    -5.1055  -4.8002  -4.7273  -4.6367  -4.5938  -4.5165  -4.4545  -4.3736
    -4.2916  -4.2058  -4.1904  -4.1222  -3.9605  -3.8963  -3.8599  -3.6589
    -3.5642  -3.4897  -3.4855  -3.4835  -3.2471  -3.2165  -3.1181  -3.0745
    -3.0313  -2.8717  -2.8059  -2.7882  -2.7244  -2.6075  -2.4473  -1.9979
    -1.6778  -1.3277  -1.0850  -0.9392  -0.7162  -0.5570  -0.5232  -0.2404
    -0.1656  -0.1642   0.1352   0.3622   0.4699   0.6111   0.6366   0.7949
     1.1932   1.3793   1.4900   1.7460   2.1578   2.1912   2.5220   2.5979
     2.5991   3.0359   3.1456   3.5004   3.6700   3.7953

          k = 0.0000 0.0620 0.0000 ( 34740 PWs)   bands (ev):

   -54.2506 -54.1573 -54.1223 -54.0270 -53.9856 -53.8559 -30.6182 -30.6144
   -30.5658 -30.4691 -30.4646 -30.3348 -30.2797 -30.2347 -30.2088 -30.1537
   -30.1045 -30.0915 -29.9661 -29.5975 -29.5491 -29.5033 -29.4905 -29.4246
    -5.0055  -4.7534  -4.6551  -4.5644  -4.5578  -4.4967  -4.3506  -4.2449
    -4.2287  -4.1260  -4.1260  -4.0776  -3.9753  -3.7599  -3.7598  -3.6067
    -3.4951  -3.4859  -3.4177  -3.3878  -3.2331  -3.1745  -3.1105  -3.0580
    -3.0156  -2.8258  -2.8168  -2.7741  -2.7087  -2.6121  -2.4466  -2.0449
    -2.0009  -1.5729  -1.1530  -1.0388  -0.8604  -0.6353  -0.5427  -0.4293
    -0.3640  -0.1952  -0.0851   0.2080   0.2955   0.3142   0.4366   0.5059
     1.0217   1.0297   1.4887   1.5368   2.1499   2.3334   2.3401   2.5375
     2.6658   2.9934   3.0663   3.6483   3.7243   3.7251

          k = 0.0000 0.0775 0.0000 ( 34686 PWs)   bands (ev):

   -54.2506 -54.1574 -54.1221 -54.0269 -53.9856 -53.8557 -30.6186 -30.6148
   -30.5658 -30.4692 -30.4647 -30.3352 -30.2800 -30.2355 -30.2087 -30.1538
   -30.1044 -30.0914 -29.9667 -29.5976 -29.5491 -29.5033 -29.4905 -29.4246
    -4.9530  -4.7199  -4.6104  -4.5230  -4.5049  -4.4873  -4.2786  -4.1839
    -4.1007  -4.0572  -4.0369  -4.0205  -3.9908  -3.7294  -3.6264  -3.5734
    -3.4825  -3.4699  -3.3366  -3.3076  -3.1926  -3.1245  -3.1052  -3.0456
    -2.9696  -2.8654  -2.8244  -2.7639  -2.6966  -2.6158  -2.4461  -2.2805
    -1.9996  -1.7649  -1.3833  -1.0646  -0.9197  -0.7458  -0.6253  -0.5135
    -0.4610  -0.2996  -0.2004   0.0623   0.0640   0.1600   0.3021   0.3702
     0.7990   1.0344   1.3137   1.4848   2.1443   2.2255   2.4304   2.5517
     2.7122   2.9630   3.0124   3.6744   3.7399   3.9159

          k = 0.0000-0.0930 0.0000 ( 34668 PWs)   bands (ev):

   -54.2506 -54.1574 -54.1221 -54.0268 -53.9855 -53.8557 -30.6187 -30.6150
   -30.5659 -30.4693 -30.4648 -30.3354 -30.2802 -30.2358 -30.2087 -30.1538
   -30.1044 -30.0913 -29.9669 -29.5976 -29.5492 -29.5033 -29.4905 -29.4246
    -4.9375  -4.7078  -4.5977  -4.5065  -4.4864  -4.4814  -4.2524  -4.1686
    -4.0944  -4.0161  -4.0105  -3.9951  -3.9070  -3.7445  -3.5663  -3.5626
    -3.4811  -3.4695  -3.3329  -3.1816  -3.1299  -3.1033  -3.0972  -3.0691
    -3.0410  -2.9342  -2.8348  -2.7601  -2.6920  -2.6173  -2.4459  -2.2816
    -1.9952  -1.8427  -1.5289  -1.0657  -0.9319  -0.7946  -0.6967  -0.4909
    -0.4839  -0.4079  -0.1999  -0.0380   0.0079   0.1306   0.2155   0.3530
     0.7185   1.1056   1.1760   1.4828   2.1423   2.1913   2.4508   2.5708
     2.7281   2.9518   2.9937   3.6547   3.7422   3.8226

          k = 0.0149 0.0077 0.0000 ( 34800 PWs)   bands (ev):

   -54.2486 -54.1553 -54.1246 -54.0294 -53.9835 -53.8582 -30.6103 -30.5993
   -30.5485 -30.4710 -30.4475 -30.3311 -30.2761 -30.2293 -30.2110 -30.1558
   -30.1069 -30.0901 -29.9661 -29.5957 -29.5681 -29.5226 -29.4922 -29.4433
    -5.3135  -4.8768  -4.8000  -4.7344  -4.6359  -4.5981  -4.5179  -4.4730
    -4.3919  -4.3432  -4.3153  -4.1965  -4.0686  -4.0667  -3.9217  -3.7317
    -3.7196  -3.6449  -3.5782  -3.4802  -3.2984  -3.1986  -3.1775  -3.1348
    -2.9997  -2.8982  -2.8409  -2.7921  -2.7787  -2.6247  -2.4680  -2.0249
    -1.1149  -0.9391  -0.8147  -0.7952  -0.5477  -0.5094  -0.3450  -0.2638
     0.0171   0.2055   0.3469   0.8064   0.8367   1.2185   1.2635   1.3299
     1.5361   1.6764   1.9605   2.0932   2.1191   2.1879   2.5900   2.9174
     2.9771   3.1313   3.1912   3.2656   3.3867   3.8519

          k = 0.0149 0.0232 0.0000 ( 34778 PWs)   bands (ev):

   -54.2485 -54.1552 -54.1246 -54.0294 -53.9835 -53.8582 -30.6106 -30.5996
   -30.5486 -30.4711 -30.4475 -30.3314 -30.2764 -30.2299 -30.2110 -30.1558
   -30.1069 -30.0900 -29.9665 -29.5957 -29.5682 -29.5226 -29.4922 -29.4433
    -5.2432  -4.8508  -4.7800  -4.7062  -4.6080  -4.5680  -4.5052  -4.4505
    -4.3614  -4.3070  -4.2795  -4.1751  -4.0282  -4.0122  -3.9260  -3.7123
    -3.6763  -3.6058  -3.5572  -3.4793  -3.2776  -3.2246  -3.1660  -3.1273
    -3.0125  -2.8881  -2.8321  -2.8000  -2.7712  -2.6263  -2.4682  -2.0275
    -1.2175  -1.0012  -0.9550  -0.8137  -0.5519  -0.5428  -0.3759  -0.3098
    -0.0508   0.1565   0.3768   0.6289   0.6379   1.0026   1.0871   1.3815
     1.5362   1.5660   1.7637   1.9264   2.0521   2.1614   2.4311   2.7727
     2.9290   3.2113   3.2225   3.3023   3.3623   3.8656

          k = 0.0149 0.0387 0.0000 ( 34773 PWs)   bands (ev):

   -54.2485 -54.1552 -54.1245 -54.0293 -53.9835 -53.8581 -30.6111 -30.6001
   -30.5487 -30.4712 -30.4477 -30.3319 -30.2768 -30.2309 -30.2110 -30.1558
   -30.1068 -30.0898 -29.9671 -29.5957 -29.5682 -29.5226 -29.4923 -29.4434
    -5.1245  -4.8067  -4.7359  -4.6529  -4.5743  -4.5034  -4.4818  -4.3994
    -4.3072  -4.2446  -4.2144  -4.1430  -3.9481  -3.9342  -3.9092  -3.6771
    -3.6020  -3.5303  -3.5145  -3.4769  -3.2542  -3.2421  -3.1562  -3.1153
    -3.0291  -2.8669  -2.8159  -2.8133  -2.7577  -2.6291  -2.4686  -2.0320
    -1.4692  -1.1853  -1.0368  -0.8509  -0.6073  -0.6013  -0.4904  -0.3409
    -0.1579   0.0393   0.2671   0.4400   0.5345   0.7042   0.8141   1.0018
     1.3517   1.3886   1.6640   1.7528   2.0982   2.1518   2.4417   2.5386
     2.7446   3.1162   3.1577   3.4597   3.5827   3.8536

          k = 0.0149 0.0542 0.0000 ( 34766 PWs)   bands (ev):

   -54.2485 -54.1552 -54.1245 -54.0293 -53.9835 -53.8581 -30.6117 -30.6007
   -30.5488 -30.4715 -30.4478 -30.3324 -30.2774 -30.2320 -30.2109 -30.1559
   -30.1068 -30.0895 -29.9679 -29.5958 -29.5683 -29.5226 -29.4923 -29.4434
    -5.0062  -4.7575  -4.6657  -4.5830  -4.5438  -4.4731  -4.3927  -4.3056
    -4.2429  -4.1734  -4.1367  -4.1063  -3.9471  -3.8285  -3.7951  -3.6310
    -3.5233  -3.4729  -3.4544  -3.4351  -3.2643  -3.2027  -3.1497  -3.1022
    -3.0300  -2.8369  -2.8264  -2.7923  -2.7408  -2.6330  -2.4688  -2.0368
    -1.8178  -1.4330  -1.0640  -0.9334  -0.7625  -0.6982  -0.4920  -0.4791
    -0.2981  -0.0812   0.0594   0.2925   0.4298   0.4365   0.5034   0.6653
     1.0773   1.0895   1.5858   1.6442   2.1442   2.2420   2.4170   2.4364
     2.6368   3.0546   3.0831   3.5840   3.6864   3.7573

          k = 0.0149 0.0697 0.0000 ( 34716 PWs)   bands (ev):

   -54.2485 -54.1552 -54.1244 -54.0292 -53.9834 -53.8580 -30.6122 -30.6012
   -30.5489 -30.4716 -30.4480 -30.3329 -30.2778 -30.2329 -30.2109 -30.1559
   -30.1067 -30.0893 -29.9686 -29.5959 -29.5683 -29.5227 -29.4924 -29.4434
    -4.9320  -4.7160  -4.5977  -4.5176  -4.5137  -4.4587  -4.3040  -4.1878
    -4.1281  -4.1271  -4.0667  -4.0532  -3.9598  -3.7309  -3.6941  -3.5875
    -3.4816  -3.4628  -3.3742  -3.3605  -3.2299  -3.1588  -3.1497  -3.0925
    -2.9992  -2.8343  -2.8174  -2.7751  -2.7320  -2.6382  -2.4687  -2.1370
    -2.0394  -1.6531  -1.2105  -1.0056  -0.8572  -0.8060  -0.6498  -0.4699
    -0.4229  -0.1636  -0.1547   0.0860   0.2183   0.2620   0.3619   0.4317
     0.8154   1.0380   1.4296   1.5560   2.1397   2.3182   2.3446   2.4450
     2.6623   3.0194   3.0417   3.6383   3.6818   3.7211

          k = 0.0149 0.0852 0.0000 ( 34690 PWs)   bands (ev):

   -54.2484 -54.1552 -54.1244 -54.0291 -53.9833 -53.8579 -30.6125 -30.6015
   -30.5489 -30.4717 -30.4481 -30.3332 -30.2780 -30.2335 -30.2109 -30.1559
   -30.1066 -30.0892 -29.9690 -29.5959 -29.5684 -29.5227 -29.4924 -29.4434
    -4.9007  -4.6924  -4.5639  -4.5002  -4.4692  -4.4513  -4.2549  -4.1589
    -4.1107  -4.0197  -4.0052  -3.9725  -3.9311  -3.7332  -3.5915  -3.5725
    -3.4757  -3.4572  -3.3397  -3.2470  -3.1815  -3.1542  -3.1161  -3.0906
    -2.9524  -2.9264  -2.8448  -2.7960  -2.7325  -2.6397  -2.4694  -2.2174
    -2.0377  -1.7907  -1.4371  -1.0052  -0.8886  -0.8823  -0.7595  -0.4650
    -0.4466  -0.3302  -0.2231  -0.0801   0.1178   0.1902   0.2841   0.3259
     0.6712   1.1004   1.2435   1.5422   2.1385   2.2856   2.3302   2.4921
     2.6916   2.9836   3.0558   3.6202   3.6759   3.7299

          k = 0.0149-0.0852 0.0000 ( 34690 PWs)   bands (ev):

   -54.2484 -54.1552 -54.1244 -54.0291 -53.9833 -53.8579 -30.6125 -30.6015
   -30.5489 -30.4717 -30.4481 -30.3332 -30.2780 -30.2335 -30.2109 -30.1559
   -30.1066 -30.0892 -29.9690 -29.5959 -29.5684 -29.5227 -29.4924 -29.4434
    -4.9007  -4.6924  -4.5639  -4.5002  -4.4692  -4.4513  -4.2549  -4.1589
    -4.1107  -4.0197  -4.0052  -3.9725  -3.9311  -3.7332  -3.5915  -3.5725
    -3.4757  -3.4572  -3.3397  -3.2470  -3.1815  -3.1542  -3.1161  -3.0906
    -2.9524  -2.9264  -2.8448  -2.7960  -2.7325  -2.6397  -2.4694  -2.2174
    -2.0377  -1.7907  -1.4371  -1.0052  -0.8886  -0.8823  -0.7595  -0.4650
    -0.4466  -0.3302  -0.2231  -0.0801   0.1178   0.1902   0.2841   0.3259
     0.6712   1.1004   1.2435   1.5422   2.1385   2.2856   2.3302   2.4921
     2.6916   2.9836   3.0558   3.6202   3.6759   3.7299

          k = 0.0149-0.0697 0.0000 ( 34716 PWs)   bands (ev):

   -54.2485 -54.1552 -54.1244 -54.0292 -53.9834 -53.8580 -30.6122 -30.6012
   -30.5489 -30.4716 -30.4480 -30.3329 -30.2778 -30.2329 -30.2109 -30.1559
   -30.1067 -30.0893 -29.9686 -29.5959 -29.5683 -29.5227 -29.4924 -29.4434
    -4.9320  -4.7160  -4.5977  -4.5176  -4.5137  -4.4587  -4.3040  -4.1878
    -4.1281  -4.1271  -4.0667  -4.0532  -3.9598  -3.7309  -3.6941  -3.5875
    -3.4816  -3.4628  -3.3742  -3.3605  -3.2299  -3.1588  -3.1497  -3.0925
    -2.9992  -2.8343  -2.8174  -2.7751  -2.7320  -2.6382  -2.4687  -2.1370
    -2.0394  -1.6531  -1.2105  -1.0056  -0.8572  -0.8060  -0.6498  -0.4699
    -0.4229  -0.1636  -0.1547   0.0860   0.2183   0.2620   0.3619   0.4317
     0.8154   1.0380   1.4296   1.5560   2.1397   2.3182   2.3446   2.4450
     2.6623   3.0194   3.0417   3.6383   3.6817   3.7211

          k = 0.0149-0.0542 0.0000 ( 34766 PWs)   bands (ev):

   -54.2485 -54.1552 -54.1245 -54.0293 -53.9835 -53.8581 -30.6117 -30.6007
   -30.5488 -30.4715 -30.4478 -30.3324 -30.2774 -30.2320 -30.2109 -30.1559
   -30.1068 -30.0895 -29.9679 -29.5958 -29.5683 -29.5226 -29.4923 -29.4434
    -5.0062  -4.7575  -4.6657  -4.5830  -4.5438  -4.4731  -4.3927  -4.3056
    -4.2429  -4.1734  -4.1367  -4.1063  -3.9471  -3.8285  -3.7951  -3.6310
    -3.5233  -3.4729  -3.4544  -3.4351  -3.2643  -3.2027  -3.1497  -3.1022
    -3.0300  -2.8369  -2.8264  -2.7923  -2.7408  -2.6330  -2.4688  -2.0368
    -1.8178  -1.4330  -1.0640  -0.9334  -0.7625  -0.6982  -0.4920  -0.4791
    -0.2981  -0.0812   0.0594   0.2925   0.4298   0.4365   0.5034   0.6653
     1.0773   1.0895   1.5858   1.6442   2.1442   2.2420   2.4170   2.4364
     2.6368   3.0546   3.0831   3.5839   3.6864   3.7574

          k = 0.0149-0.0387 0.0000 ( 34773 PWs)   bands (ev):

   -54.2485 -54.1552 -54.1245 -54.0293 -53.9835 -53.8581 -30.6111 -30.6001
   -30.5487 -30.4712 -30.4477 -30.3319 -30.2768 -30.2309 -30.2110 -30.1558
   -30.1068 -30.0898 -29.9671 -29.5957 -29.5682 -29.5226 -29.4923 -29.4434
    -5.1245  -4.8067  -4.7359  -4.6529  -4.5743  -4.5034  -4.4818  -4.3994
    -4.3072  -4.2446  -4.2144  -4.1430  -3.9481  -3.9342  -3.9092  -3.6771
    -3.6020  -3.5303  -3.5145  -3.4769  -3.2542  -3.2421  -3.1562  -3.1153
    -3.0291  -2.8669  -2.8159  -2.8133  -2.7577  -2.6291  -2.4686  -2.0320
    -1.4692  -1.1853  -1.0368  -0.8509  -0.6073  -0.6013  -0.4904  -0.3409
    -0.1579   0.0393   0.2671   0.4400   0.5345   0.7042   0.8141   1.0018
     1.3517   1.3886   1.6640   1.7528   2.0982   2.1518   2.4417   2.5386
     2.7446   3.1162   3.1577   3.4597   3.5827   3.8531

          k = 0.0149-0.0232 0.0000 ( 34778 PWs)   bands (ev):

   -54.2485 -54.1552 -54.1246 -54.0294 -53.9835 -53.8582 -30.6106 -30.5996
   -30.5486 -30.4711 -30.4475 -30.3314 -30.2764 -30.2299 -30.2110 -30.1558
   -30.1069 -30.0900 -29.9665 -29.5957 -29.5682 -29.5226 -29.4922 -29.4433
    -5.2432  -4.8508  -4.7800  -4.7062  -4.6080  -4.5680  -4.5052  -4.4505
    -4.3614  -4.3070  -4.2795  -4.1751  -4.0282  -4.0122  -3.9260  -3.7123
    -3.6763  -3.6058  -3.5572  -3.4793  -3.2776  -3.2246  -3.1660  -3.1273
    -3.0125  -2.8881  -2.8321  -2.8000  -2.7712  -2.6263  -2.4682  -2.0275
    -1.2175  -1.0012  -0.9550  -0.8137  -0.5519  -0.5428  -0.3759  -0.3098
    -0.0508   0.1565   0.3768   0.6289   0.6379   1.0026   1.0871   1.3815
     1.5362   1.5660   1.7637   1.9264   2.0521   2.1614   2.4311   2.7727
     2.9290   3.2113   3.2225   3.3023   3.3623   3.8656

          k = 0.0149-0.0077 0.0000 ( 34800 PWs)   bands (ev):

   -54.2486 -54.1553 -54.1246 -54.0294 -53.9835 -53.8582 -30.6103 -30.5993
   -30.5485 -30.4710 -30.4475 -30.3311 -30.2761 -30.2293 -30.2110 -30.1558
   -30.1069 -30.0901 -29.9661 -29.5957 -29.5681 -29.5226 -29.4922 -29.4433
    -5.3135  -4.8768  -4.8000  -4.7344  -4.6359  -4.5981  -4.5179  -4.4730
    -4.3919  -4.3432  -4.3153  -4.1965  -4.0686  -4.0667  -3.9217  -3.7317
    -3.7196  -3.6449  -3.5782  -3.4802  -3.2984  -3.1986  -3.1775  -3.1348
    -2.9997  -2.8982  -2.8409  -2.7921  -2.7787  -2.6247  -2.4680  -2.0249
    -1.1149  -0.9391  -0.8147  -0.7952  -0.5477  -0.5094  -0.3450  -0.2638
     0.0171   0.2055   0.3469   0.8064   0.8367   1.2185   1.2635   1.3299
     1.5361   1.6764   1.9605   2.0932   2.1191   2.1879   2.5900   2.9174
     2.9771   3.1313   3.1912   3.2656   3.3866   3.8517

          k = 0.0298 0.0155 0.0000 ( 34765 PWs)   bands (ev):

   -54.2422 -54.1488 -54.1311 -54.0360 -53.9771 -53.8648 -30.6034 -30.5489
   -30.4992 -30.4779 -30.3984 -30.3251 -30.2701 -30.2233 -30.2174 -30.1621
   -30.1135 -30.0839 -29.9727 -29.6248 -29.5910 -29.5784 -29.4983 -29.4976
    -5.1556  -4.8108  -4.7168  -4.6680  -4.5537  -4.4934  -4.4357  -4.4112
    -4.3375  -4.3108  -4.2631  -4.1788  -4.0282  -3.9967  -3.8719  -3.7016
    -3.6851  -3.6130  -3.5724  -3.4401  -3.2990  -3.2937  -3.2234  -3.1795
    -3.0135  -2.9244  -2.8659  -2.8421  -2.8127  -2.6907  -2.5209  -2.1358
    -1.0988  -0.9066  -0.8360  -0.8180  -0.6633  -0.4134  -0.3625  -0.2391
    -0.2104   0.1818   0.4329   0.7379   0.8130   1.1268   1.2431   1.4630
     1.4779   1.6287   1.6562   1.8818   1.9429   2.1132   2.2944   2.6549
     2.8963   3.0344   3.0929   3.1394   3.5650   3.7081

          k = 0.0298 0.0310 0.0000 ( 34744 PWs)   bands (ev):

   -54.2422 -54.1487 -54.1310 -54.0359 -53.9771 -53.8647 -30.6038 -30.5493
   -30.4992 -30.4780 -30.3985 -30.3254 -30.2705 -30.2240 -30.2173 -30.1621
   -30.1134 -30.0837 -29.9732 -29.6248 -29.5910 -29.5784 -29.4983 -29.4977
    -5.0574  -4.7753  -4.6917  -4.6287  -4.5011  -4.4730  -4.4025  -4.3897
    -4.2936  -4.2667  -4.2191  -4.1499  -3.9730  -3.9246  -3.8772  -3.6793
    -3.6271  -3.5606  -3.5423  -3.4380  -3.3167  -3.2726  -3.2198  -3.1742
    -3.0283  -2.9239  -2.8604  -2.8520  -2.7839  -2.6860  -2.5236  -2.1412
    -1.2340  -1.0289  -0.9540  -0.9096  -0.6918  -0.4805  -0.3991  -0.3203
    -0.2264   0.1431   0.4142   0.5149   0.6546   0.8432   1.0062   1.2116
     1.4014   1.4132   1.6974   1.7659   1.8773   2.1171   2.2700   2.4290
     2.8434   3.0893   3.1342   3.3940   3.5424   3.7482

          k = 0.0298 0.0465 0.0000 ( 34783 PWs)   bands (ev):

   -54.2422 -54.1488 -54.1310 -54.0359 -53.9771 -53.8647 -30.6043 -30.5498
   -30.4993 -30.4782 -30.3987 -30.3259 -30.2709 -30.2251 -30.2173 -30.1621
   -30.1133 -30.0834 -29.9739 -29.6248 -29.5911 -29.5785 -29.4983 -29.4977
    -4.9322  -4.7276  -4.6433  -4.5676  -4.4555  -4.4177  -4.3783  -4.3178
    -4.2334  -4.2089  -4.1605  -4.1047  -3.8916  -3.8765  -3.8237  -3.6466
    -3.5511  -3.4922  -3.4836  -3.4332  -3.3438  -3.2386  -3.2127  -3.1690
    -3.0389  -2.9214  -2.8643  -2.8539  -2.7476  -2.6715  -2.5275  -2.1491
    -1.5204  -1.2539  -1.0523  -0.9502  -0.7371  -0.5855  -0.5636  -0.3175
    -0.2961   0.0677   0.2517   0.3034   0.5348   0.5883   0.6931   0.8840
     1.0741   1.1862   1.6620   1.7143   2.0764   2.1238   2.2195   2.3460
     2.7291   3.0510   3.0957   3.5563   3.5840   3.7924

          k = 0.0298 0.0620 0.0000 ( 34751 PWs)   bands (ev):

   -54.2422 -54.1488 -54.1310 -54.0359 -53.9771 -53.8646 -30.6048 -30.5503
   -30.4994 -30.4784 -30.3988 -30.3264 -30.2714 -30.2261 -30.2172 -30.1621
   -30.1132 -30.0832 -29.9747 -29.6249 -29.5912 -29.5785 -29.4984 -29.4977
    -4.8372  -4.6809  -4.5719  -4.4954  -4.4416  -4.3626  -4.3238  -4.1814
    -4.1808  -4.1574  -4.0977  -4.0423  -3.8986  -3.7666  -3.7394  -3.6100
    -3.4909  -3.4310  -3.4265  -3.4050  -3.3419  -3.2067  -3.2037  -3.1659
    -3.0275  -2.9188  -2.8735  -2.8517  -2.7249  -2.6459  -2.5310  -2.1575
    -1.8484  -1.4774  -1.1788  -0.9954  -0.8241  -0.7107  -0.6807  -0.4088
    -0.3000  -0.0430   0.0393   0.1061   0.2709   0.4629   0.4656   0.6363
     0.8158   1.0991   1.5334   1.6748   2.0847   2.1242   2.2721   2.4178
     2.6383   2.9974   3.0854   3.5402   3.6594   3.6629

          k = 0.0298 0.0775 0.0000 ( 34696 PWs)   bands (ev):

   -54.2421 -54.1487 -54.1309 -54.0358 -53.9770 -53.8645 -30.6052 -30.5507
   -30.4995 -30.4785 -30.3989 -30.3268 -30.2717 -30.2268 -30.2172 -30.1621
   -30.1131 -30.0830 -29.9752 -29.6249 -29.5912 -29.5785 -29.4984 -29.4978
    -4.7918  -4.6471  -4.5084  -4.4409  -4.4336  -4.3447  -4.2616  -4.1595
    -4.1192  -4.0422  -3.9816  -3.9804  -3.9104  -3.7138  -3.6606  -3.5938
    -3.4683  -3.4179  -3.3654  -3.3635  -3.2963  -3.1928  -3.1645  -3.1621
    -2.9916  -2.9286  -2.8814  -2.8638  -2.7323  -2.6760  -2.5325  -2.1633
    -2.0260  -1.6476  -1.2939  -1.1996  -0.8460  -0.7455  -0.7375  -0.4794
    -0.2988  -0.2074  -0.1432  -0.1115   0.1968   0.3602   0.3659   0.4652
     0.6410   1.1344   1.3744   1.6479   2.0381   2.1262   2.3760   2.4301
     2.6165   2.9540   3.1253   3.4965   3.5742   3.6904

          k = 0.0298 0.0930 0.0000 ( 34680 PWs)   bands (ev):

   -54.2421 -54.1487 -54.1309 -54.0358 -53.9769 -53.8645 -30.6053 -30.5508
   -30.4995 -30.4786 -30.3990 -30.3270 -30.2718 -30.2271 -30.2172 -30.1621
   -30.1130 -30.0829 -29.9754 -29.6249 -29.5912 -29.5785 -29.4984 -29.4978
    -4.7790  -4.6347  -4.4788  -4.4485  -4.4086  -4.3386  -4.2382  -4.1546
    -4.1062  -4.0197  -3.9438  -3.9252  -3.8557  -3.7338  -3.6130  -3.5934
    -3.4652  -3.4160  -3.3609  -3.3331  -3.2693  -3.1768  -3.1438  -3.1089
    -2.9951  -2.9637  -2.8915  -2.8820  -2.7715  -2.6945  -2.5337  -2.1649
    -2.0228  -1.7128  -1.3408  -1.3356  -0.8363  -0.7573  -0.7421  -0.4578
    -0.3616  -0.3280  -0.1950  -0.1585   0.1841   0.3282   0.3435   0.3936
     0.5775   1.2120   1.2548   1.6384   2.0283   2.1274   2.4054   2.4214
     2.6227   2.9373   3.1565   3.4673   3.5553   3.6968

          k = 0.0298-0.0775 0.0000 ( 34696 PWs)   bands (ev):

   -54.2421 -54.1487 -54.1309 -54.0358 -53.9770 -53.8645 -30.6052 -30.5507
   -30.4995 -30.4785 -30.3989 -30.3268 -30.2717 -30.2268 -30.2172 -30.1621
   -30.1131 -30.0830 -29.9752 -29.6249 -29.5912 -29.5785 -29.4984 -29.4978
    -4.7918  -4.6471  -4.5084  -4.4409  -4.4336  -4.3447  -4.2616  -4.1595
    -4.1192  -4.0422  -3.9816  -3.9804  -3.9104  -3.7138  -3.6606  -3.5938
    -3.4683  -3.4179  -3.3654  -3.3635  -3.2963  -3.1928  -3.1645  -3.1621
    -2.9916  -2.9286  -2.8814  -2.8638  -2.7323  -2.6760  -2.5325  -2.1633
    -2.0260  -1.6476  -1.2939  -1.1996  -0.8460  -0.7455  -0.7375  -0.4794
    -0.2988  -0.2074  -0.1432  -0.1115   0.1968   0.3602   0.3659   0.4652
     0.6410   1.1344   1.3744   1.6479   2.0381   2.1262   2.3760   2.4301
     2.6165   2.9540   3.1253   3.4965   3.5743   3.6904

          k = 0.0298-0.0620 0.0000 ( 34751 PWs)   bands (ev):

   -54.2422 -54.1488 -54.1310 -54.0359 -53.9771 -53.8646 -30.6048 -30.5503
   -30.4994 -30.4784 -30.3988 -30.3264 -30.2714 -30.2261 -30.2172 -30.1621
   -30.1132 -30.0832 -29.9747 -29.6249 -29.5912 -29.5785 -29.4984 -29.4977
    -4.8372  -4.6809  -4.5719  -4.4954  -4.4416  -4.3626  -4.3238  -4.1814
    -4.1808  -4.1574  -4.0977  -4.0423  -3.8986  -3.7666  -3.7394  -3.6100
    -3.4909  -3.4310  -3.4265  -3.4050  -3.3419  -3.2067  -3.2037  -3.1659
    -3.0275  -2.9188  -2.8735  -2.8517  -2.7249  -2.6459  -2.5310  -2.1575
    -1.8484  -1.4774  -1.1788  -0.9954  -0.8241  -0.7107  -0.6807  -0.4088
    -0.3000  -0.0430   0.0393   0.1061   0.2709   0.4629   0.4656   0.6363
     0.8158   1.0991   1.5334   1.6748   2.0847   2.1242   2.2721   2.4178
     2.6383   2.9974   3.0854   3.5402   3.6595   3.6629

          k = 0.0298-0.0465 0.0000 ( 34783 PWs)   bands (ev):

   -54.2422 -54.1488 -54.1310 -54.0359 -53.9771 -53.8647 -30.6043 -30.5498
   -30.4993 -30.4782 -30.3987 -30.3259 -30.2709 -30.2251 -30.2173 -30.1621
   -30.1133 -30.0834 -29.9739 -29.6248 -29.5911 -29.5785 -29.4983 -29.4977
    -4.9322  -4.7276  -4.6433  -4.5676  -4.4555  -4.4177  -4.3783  -4.3178
    -4.2334  -4.2089  -4.1605  -4.1047  -3.8916  -3.8765  -3.8237  -3.6466
    -3.5511  -3.4922  -3.4836  -3.4332  -3.3438  -3.2386  -3.2127  -3.1690
    -3.0389  -2.9214  -2.8643  -2.8539  -2.7476  -2.6715  -2.5275  -2.1491
    -1.5204  -1.2539  -1.0523  -0.9502  -0.7371  -0.5855  -0.5636  -0.3175
    -0.2961   0.0677   0.2517   0.3034   0.5348   0.5883   0.6931   0.8840
     1.0741   1.1862   1.6620   1.7143   2.0764   2.1238   2.2195   2.3460
     2.7291   3.0510   3.0957   3.5563   3.5840   3.7924

          k = 0.0298-0.0310 0.0000 ( 34744 PWs)   bands (ev):

   -54.2422 -54.1487 -54.1310 -54.0359 -53.9771 -53.8647 -30.6038 -30.5493
   -30.4992 -30.4780 -30.3985 -30.3254 -30.2705 -30.2240 -30.2173 -30.1621
   -30.1134 -30.0837 -29.9732 -29.6248 -29.5910 -29.5784 -29.4983 -29.4977
    -5.0574  -4.7753  -4.6917  -4.6287  -4.5011  -4.4730  -4.4025  -4.3897
    -4.2936  -4.2667  -4.2191  -4.1499  -3.9730  -3.9246  -3.8772  -3.6793
    -3.6271  -3.5606  -3.5423  -3.4380  -3.3167  -3.2726  -3.2198  -3.1742
    -3.0283  -2.9239  -2.8604  -2.8520  -2.7839  -2.6860  -2.5236  -2.1412
    -1.2340  -1.0289  -0.9540  -0.9096  -0.6918  -0.4805  -0.3991  -0.3203
    -0.2264   0.1431   0.4142   0.5149   0.6546   0.8432   1.0062   1.2116
     1.4014   1.4132   1.6974   1.7659   1.8774   2.1171   2.2700   2.4290
     2.8434   3.0893   3.1342   3.3940   3.5424   3.7482

          k = 0.0298-0.0155 0.0000 ( 34765 PWs)   bands (ev):

   -54.2422 -54.1488 -54.1311 -54.0360 -53.9771 -53.8648 -30.6034 -30.5489
   -30.4992 -30.4779 -30.3984 -30.3251 -30.2701 -30.2233 -30.2174 -30.1621
   -30.1135 -30.0839 -29.9727 -29.6248 -29.5910 -29.5784 -29.4983 -29.4976
    -5.1556  -4.8108  -4.7168  -4.6680  -4.5537  -4.4934  -4.4357  -4.4112
    -4.3375  -4.3108  -4.2631  -4.1788  -4.0282  -3.9967  -3.8719  -3.7016
    -3.6851  -3.6130  -3.5724  -3.4401  -3.2990  -3.2937  -3.2234  -3.1795
    -3.0135  -2.9244  -2.8659  -2.8421  -2.8127  -2.6907  -2.5209  -2.1358
    -1.0988  -0.9066  -0.8360  -0.8180  -0.6633  -0.4134  -0.3625  -0.2391
    -0.2104   0.1818   0.4329   0.7379   0.8130   1.1268   1.2431   1.4630
     1.4779   1.6287   1.6562   1.8818   1.9429   2.1132   2.2944   2.6549
     2.8963   3.0344   3.0929   3.1393   3.5650   3.7081

          k = 0.0298-0.0000 0.0000 ( 34735 PWs)   bands (ev):

   -54.2422 -54.1487 -54.1310 -54.0359 -53.9770 -53.8647 -30.6032 -30.5487
   -30.4991 -30.4779 -30.3984 -30.3250 -30.2700 -30.2230 -30.2174 -30.1621
   -30.1136 -30.0839 -29.9725 -29.6248 -29.5910 -29.5784 -29.4983 -29.4976
    -5.1916  -4.8238  -4.7246  -4.6813  -4.5725  -4.5013  -4.4492  -4.4162
    -4.3534  -4.3270  -4.2790  -4.1894  -4.0463  -4.0219  -3.8701  -3.7094
    -3.7064  -3.6310  -3.5821  -3.4406  -3.3087  -3.2861  -3.2234  -3.1820
    -3.0072  -2.9241  -2.8677  -2.8384  -2.8237  -2.6919  -2.5199  -2.1338
    -1.0705  -0.8859  -0.7662  -0.7609  -0.6529  -0.3981  -0.3633  -0.2104
    -0.1900   0.1938   0.4104   0.8328   0.9563   1.2549   1.3145   1.3765
     1.5485   1.5849   1.7582   1.9162   2.0484   2.1450   2.5828   2.6331
     2.7940   2.9563   2.9973   3.1001   3.6189   3.6616

          k = 0.0448 0.0232 0.0000 ( 34747 PWs)   bands (ev):

   -54.2321 -54.1414 -54.1385 -54.0464 -53.9669 -53.8752 -30.5923 -30.4906
   -30.4680 -30.4183 -30.3199 -30.3155 -30.2605 -30.2274 -30.2136 -30.1721
   -30.1240 -30.0739 -29.9831 -29.7137 -29.6686 -29.5880 -29.5788 -29.5062
    -4.9073  -4.7055  -4.6011  -4.5627  -4.4685  -4.3619  -4.3040  -4.2994
    -4.2375  -4.2325  -4.2116  -4.1065  -3.9736  -3.9033  -3.7959  -3.6669
    -3.6359  -3.5809  -3.5681  -3.4071  -3.3862  -3.3492  -3.2918  -3.1704
    -3.0426  -3.0341  -2.9734  -2.9269  -2.8276  -2.7110  -2.5741  -2.3289
    -1.4154  -1.0643  -0.8818  -0.7850  -0.6549  -0.4995  -0.2775  -0.1331
    -0.0334   0.1697   0.5252   0.6359   0.8584   0.9800   1.1691   1.1834
     1.3402   1.4939   1.6017   1.7165   1.7445   1.9417   2.2310   2.3103
     2.6740   2.9074   3.0061   3.1113   3.5297   3.6467

          k = 0.0448 0.0387 0.0000 ( 34747 PWs)   bands (ev):

   -54.2321 -54.1413 -54.1386 -54.0464 -53.9669 -53.8751 -30.5927 -30.4907
   -30.4684 -30.4184 -30.3200 -30.3158 -30.2609 -30.2273 -30.2145 -30.1721
   -30.1238 -30.0737 -29.9837 -29.7136 -29.6686 -29.5880 -29.5788 -29.5062
    -4.7903  -4.6643  -4.5833  -4.5163  -4.4169  -4.3081  -4.2836  -4.2589
    -4.2097  -4.1984  -4.1634  -4.0611  -3.9119  -3.8351  -3.8022  -3.6538
    -3.5720  -3.5526  -3.5151  -3.4245  -3.3788  -3.3445  -3.2696  -3.1687
    -3.0474  -3.0473  -2.9710  -2.9353  -2.8229  -2.6681  -2.5683  -2.3402
    -1.5074  -1.2161  -1.0589  -0.8617  -0.7900  -0.5288  -0.3011  -0.2411
    -0.0345   0.1059   0.3959   0.4420   0.6757   0.7670   0.9009   1.0834
     1.1435   1.1564   1.5912   1.7301   1.8493   2.0087   2.1189   2.2648
     2.6544   2.9408   3.0348   3.3951   3.5179   3.6349

          k = 0.0448 0.0542 0.0000 ( 34724 PWs)   bands (ev):

   -54.2320 -54.1413 -54.1385 -54.0464 -53.9669 -53.8751 -30.5932 -30.4908
   -30.4689 -30.4186 -30.3201 -30.3163 -30.2613 -30.2273 -30.2154 -30.1720
   -30.1236 -30.0733 -29.9845 -29.7136 -29.6686 -29.5880 -29.5789 -29.5063
    -4.6736  -4.6161  -4.5472  -4.4507  -4.3519  -4.2719  -4.2233  -4.2148
    -4.1702  -4.1530  -4.1002  -3.9990  -3.8349  -3.8060  -3.7580  -3.6394
    -3.5218  -3.5070  -3.4543  -3.4276  -3.3676  -3.3359  -3.2465  -3.1679
    -3.0538  -3.0506  -2.9744  -2.9428  -2.8167  -2.6354  -2.5438  -2.3554
    -1.6371  -1.4921  -1.2642  -0.9241  -0.8310  -0.5579  -0.4359  -0.3618
    -0.0107   0.0025   0.1685   0.2703   0.3494   0.6644   0.6937   0.8723
     0.9040   1.1558   1.5147   1.7236   1.9212   2.0522   2.0547   2.3227
     2.6112   2.9268   3.0416   3.4671   3.5494   3.5931

          k = 0.0448 0.0697 0.0000 ( 34705 PWs)   bands (ev):

   -54.2320 -54.1413 -54.1385 -54.0463 -53.9668 -53.8750 -30.5936 -30.4908
   -30.4694 -30.4187 -30.3202 -30.3167 -30.2617 -30.2272 -30.2163 -30.1720
   -30.1234 -30.0731 -29.9851 -29.7136 -29.6686 -29.5880 -29.5789 -29.5063
    -4.6177  -4.5740  -4.4877  -4.3790  -4.2979  -4.2539  -4.2042  -4.1739
    -4.1133  -4.0380  -4.0283  -3.9320  -3.8276  -3.7394  -3.7084  -3.6409
    -3.4922  -3.4683  -3.4106  -3.4090  -3.3547  -3.3017  -3.2231  -3.1688
    -3.0631  -3.0343  -2.9889  -2.9485  -2.8089  -2.6285  -2.5415  -2.3709
    -1.7692  -1.7170  -1.4435  -0.9530  -0.9207  -0.6025  -0.5405  -0.4422
    -0.1904  -0.0127  -0.0049   0.0988   0.1876   0.5294   0.6215   0.7124
     0.7208   1.2088   1.4580   1.7096   1.7882   2.0808   2.1691   2.3859
     2.5728   2.8944   3.0526   3.3730   3.5459   3.6159

          k = 0.0448 0.0852 0.0000 ( 34680 PWs)   bands (ev):

   -54.2320 -54.1412 -54.1385 -54.0463 -53.9668 -53.8749 -30.5938 -30.4909
   -30.4696 -30.4187 -30.3203 -30.3170 -30.2619 -30.2271 -30.2168 -30.1720
   -30.1232 -30.0729 -29.9854 -29.7136 -29.6686 -29.5880 -29.5790 -29.5063
    -4.6010  -4.5494  -4.4476  -4.3278  -4.2794  -4.2316  -4.1982  -4.1610
    -4.0945  -3.9974  -3.8774  -3.8620  -3.8429  -3.7112  -3.6820  -3.6571
    -3.4591  -3.4559  -3.4196  -3.3978  -3.3484  -3.2152  -3.2016  -3.1587
    -3.0866  -3.0169  -3.0046  -2.9606  -2.7994  -2.6381  -2.6128  -2.3809
    -1.8527  -1.7615  -1.5498  -1.0961  -0.9498  -0.6073  -0.5144  -0.5124
    -0.3452  -0.1275  -0.0946   0.0726   0.1504   0.4666   0.5856   0.6160
     0.6200   1.2719   1.4098   1.6981   1.7094   2.0934   2.2275   2.4194
     2.5580   2.8699   3.0647   3.2884   3.5255   3.5882

          k = 0.0448 0.1007 0.0000 ( 34680 PWs)   bands (ev):

   -54.2320 -54.1412 -54.1385 -54.0463 -53.9668 -53.8749 -30.5938 -30.4909
   -30.4696 -30.4187 -30.3203 -30.3170 -30.2619 -30.2271 -30.2168 -30.1720
   -30.1232 -30.0729 -29.9854 -29.7136 -29.6686 -29.5880 -29.5790 -29.5063
    -4.6010  -4.5494  -4.4476  -4.3278  -4.2794  -4.2316  -4.1982  -4.1610
    -4.0945  -3.9974  -3.8774  -3.8620  -3.8429  -3.7112  -3.6820  -3.6571
    -3.4591  -3.4559  -3.4196  -3.3978  -3.3484  -3.2152  -3.2016  -3.1587
    -3.0866  -3.0169  -3.0046  -2.9606  -2.7994  -2.6381  -2.6128  -2.3809
    -1.8527  -1.7615  -1.5498  -1.0961  -0.9498  -0.6073  -0.5144  -0.5124
    -0.3452  -0.1275  -0.0946   0.0726   0.1504   0.4666   0.5856   0.6160
     0.6200   1.2719   1.4098   1.6981   1.7094   2.0934   2.2275   2.4194
     2.5580   2.8699   3.0647   3.2884   3.5255   3.5879

          k = 0.0448-0.0697 0.0000 ( 34705 PWs)   bands (ev):

   -54.2320 -54.1413 -54.1385 -54.0463 -53.9668 -53.8750 -30.5936 -30.4908
   -30.4694 -30.4187 -30.3202 -30.3167 -30.2617 -30.2272 -30.2163 -30.1720
   -30.1234 -30.0731 -29.9851 -29.7136 -29.6686 -29.5880 -29.5789 -29.5063
    -4.6177  -4.5740  -4.4877  -4.3790  -4.2979  -4.2539  -4.2042  -4.1739
    -4.1133  -4.0380  -4.0283  -3.9320  -3.8276  -3.7394  -3.7084  -3.6409
    -3.4922  -3.4683  -3.4106  -3.4090  -3.3547  -3.3017  -3.2231  -3.1688
    -3.0631  -3.0343  -2.9889  -2.9485  -2.8089  -2.6285  -2.5415  -2.3709
    -1.7692  -1.7170  -1.4435  -0.9530  -0.9207  -0.6025  -0.5405  -0.4422
    -0.1904  -0.0127  -0.0049   0.0988   0.1876   0.5294   0.6215   0.7124
     0.7208   1.2088   1.4580   1.7096   1.7882   2.0807   2.1691   2.3859
     2.5728   2.8944   3.0526   3.3729   3.5453   3.6156

          k = 0.0448-0.0542 0.0000 ( 34724 PWs)   bands (ev):

   -54.2320 -54.1413 -54.1385 -54.0464 -53.9669 -53.8751 -30.5932 -30.4908
   -30.4689 -30.4186 -30.3201 -30.3163 -30.2613 -30.2273 -30.2154 -30.1720
   -30.1236 -30.0733 -29.9845 -29.7136 -29.6686 -29.5880 -29.5789 -29.5063
    -4.6736  -4.6161  -4.5472  -4.4507  -4.3519  -4.2719  -4.2233  -4.2148
    -4.1702  -4.1530  -4.1002  -3.9990  -3.8349  -3.8060  -3.7580  -3.6394
    -3.5218  -3.5070  -3.4543  -3.4276  -3.3676  -3.3359  -3.2465  -3.1679
    -3.0538  -3.0506  -2.9744  -2.9428  -2.8167  -2.6354  -2.5438  -2.3554
    -1.6371  -1.4921  -1.2642  -0.9241  -0.8310  -0.5579  -0.4359  -0.3618
    -0.0107   0.0025   0.1685   0.2703   0.3494   0.6644   0.6937   0.8723
     0.9040   1.1558   1.5147   1.7236   1.9212   2.0522   2.0547   2.3227
     2.6112   2.9268   3.0416   3.4671   3.5494   3.5931

          k = 0.0448-0.0387 0.0000 ( 34747 PWs)   bands (ev):

   -54.2321 -54.1413 -54.1386 -54.0464 -53.9669 -53.8751 -30.5927 -30.4907
   -30.4684 -30.4184 -30.3200 -30.3158 -30.2609 -30.2273 -30.2145 -30.1721
   -30.1238 -30.0737 -29.9837 -29.7136 -29.6686 -29.5880 -29.5788 -29.5062
    -4.7903  -4.6643  -4.5833  -4.5163  -4.4169  -4.3081  -4.2836  -4.2589
    -4.2097  -4.1984  -4.1634  -4.0611  -3.9119  -3.8351  -3.8022  -3.6538
    -3.5720  -3.5526  -3.5151  -3.4245  -3.3788  -3.3445  -3.2696  -3.1687
    -3.0474  -3.0473  -2.9710  -2.9353  -2.8229  -2.6681  -2.5683  -2.3402
    -1.5074  -1.2161  -1.0589  -0.8617  -0.7900  -0.5288  -0.3011  -0.2411
    -0.0345   0.1059   0.3959   0.4420   0.6757   0.7670   0.9009   1.0834
     1.1435   1.1564   1.5912   1.7301   1.8493   2.0087   2.1189   2.2648
     2.6544   2.9408   3.0348   3.3951   3.5180   3.6348

          k = 0.0448-0.0232 0.0000 ( 34747 PWs)   bands (ev):

   -54.2321 -54.1414 -54.1385 -54.0464 -53.9669 -53.8752 -30.5923 -30.4906
   -30.4680 -30.4183 -30.3199 -30.3155 -30.2605 -30.2274 -30.2136 -30.1721
   -30.1240 -30.0739 -29.9831 -29.7137 -29.6686 -29.5880 -29.5788 -29.5062
    -4.9073  -4.7055  -4.6011  -4.5627  -4.4685  -4.3619  -4.3040  -4.2994
    -4.2375  -4.2325  -4.2116  -4.1065  -3.9736  -3.9033  -3.7959  -3.6669
    -3.6359  -3.5809  -3.5681  -3.4071  -3.3862  -3.3492  -3.2918  -3.1704
    -3.0426  -3.0341  -2.9734  -2.9269  -2.8276  -2.7110  -2.5741  -2.3289
    -1.4154  -1.0643  -0.8818  -0.7850  -0.6549  -0.4995  -0.2775  -0.1331
    -0.0334   0.1697   0.5252   0.6359   0.8584   0.9800   1.1691   1.1834
     1.3402   1.4939   1.6017   1.7165   1.7445   1.9417   2.2310   2.3103
     2.6740   2.9074   3.0061   3.1113   3.5297   3.6467

          k = 0.0448-0.0077 0.0000 ( 34762 PWs)   bands (ev):

   -54.2321 -54.1414 -54.1385 -54.0464 -53.9669 -53.8752 -30.5920 -30.4905
   -30.4678 -30.4183 -30.3198 -30.3152 -30.2603 -30.2275 -30.2131 -30.1721
   -30.1241 -30.0741 -29.9828 -29.7137 -29.6686 -29.5880 -29.5788 -29.5062
    -4.9748  -4.7287  -4.6095  -4.5860  -4.4964  -4.3880  -4.3249  -4.3176
    -4.2626  -4.2445  -4.2361  -4.1303  -4.0056  -3.9407  -3.7929  -3.6741
    -3.6738  -3.5979  -3.5955  -3.3993  -3.3905  -3.3489  -3.3049  -3.1717
    -3.0399  -3.0240  -2.9763  -2.9215  -2.8306  -2.7364  -2.5744  -2.3231
    -1.3700  -1.0254  -0.7943  -0.7133  -0.5477  -0.4290  -0.2803  -0.1568
     0.0149   0.2057   0.5211   0.7940   1.0123   1.1719   1.1897   1.3580
     1.3946   1.5530   1.6977   1.7460   1.8973   2.0161   2.1844   2.4807
     2.6140   2.7504   2.9037   2.9362   3.5170   3.5201

          k = 0.0448 0.0077 0.0000 ( 34762 PWs)   bands (ev):

   -54.2321 -54.1414 -54.1385 -54.0464 -53.9669 -53.8752 -30.5920 -30.4905
   -30.4678 -30.4183 -30.3198 -30.3152 -30.2603 -30.2275 -30.2131 -30.1721
   -30.1241 -30.0741 -29.9828 -29.7137 -29.6686 -29.5880 -29.5788 -29.5062
    -4.9748  -4.7287  -4.6095  -4.5860  -4.4964  -4.3880  -4.3249  -4.3176
    -4.2626  -4.2445  -4.2361  -4.1303  -4.0056  -3.9407  -3.7929  -3.6741
    -3.6738  -3.5979  -3.5955  -3.3993  -3.3905  -3.3489  -3.3049  -3.1717
    -3.0399  -3.0240  -2.9763  -2.9215  -2.8306  -2.7364  -2.5744  -2.3231
    -1.3700  -1.0254  -0.7943  -0.7133  -0.5477  -0.4290  -0.2803  -0.1568
     0.0149   0.2057   0.5211   0.7940   1.0123   1.1719   1.1897   1.3580
     1.3946   1.5530   1.6977   1.7460   1.8973   2.0161   2.1844   2.4807
     2.6140   2.7504   2.9037   2.9362   3.5170   3.5201

          k = 0.0597 0.0310 0.0000 ( 34730 PWs)   bands (ev):

   -54.2189 -54.1548 -54.1251 -54.0600 -53.9535 -53.8887 -30.5777 -30.5057
   -30.3616 -30.3132 -30.3028 -30.2479 -30.2407 -30.2170 -30.2009 -30.1842
   -30.1374 -30.0609 -29.9967 -29.8282 -29.7831 -29.6971 -29.5705 -29.5174
    -4.6217  -4.5692  -4.4593  -4.4292  -4.3792  -4.2904  -4.2526  -4.2158
    -4.0828  -4.0764  -3.9885  -3.9842  -3.9213  -3.8378  -3.7045  -3.6835
    -3.6073  -3.5831  -3.5243  -3.4882  -3.4496  -3.3640  -3.2378  -3.1901
    -3.1615  -3.1034  -3.0749  -3.0326  -2.9267  -2.7632  -2.6001  -2.4832
    -1.9706  -1.2481  -1.0049  -0.8600  -0.5803  -0.3540  -0.2980   0.0882
     0.1098   0.2962   0.5807   0.5922   0.7849   0.9889   1.0238   1.0683
     1.1798   1.2363   1.4600   1.6532   1.7206   1.8379   2.0381   2.1765
     2.3882   2.7263   2.9136   3.1170   3.3806   3.4752

          k = 0.0597 0.0465 0.0000 ( 34693 PWs)   bands (ev):

   -54.2188 -54.1547 -54.1251 -54.0599 -53.9535 -53.8886 -30.5781 -30.5057
   -30.3620 -30.3133 -30.3032 -30.2483 -30.2405 -30.2170 -30.2017 -30.1841
   -30.1371 -30.0605 -29.9973 -29.8281 -29.7830 -29.6971 -29.5705 -29.5174
    -4.5262  -4.5249  -4.4343  -4.3828  -4.3436  -4.2684  -4.1851  -4.1773
    -4.0628  -4.0312  -3.9663  -3.9342  -3.8697  -3.8064  -3.7117  -3.6865
    -3.6019  -3.5246  -3.4863  -3.4819  -3.4331  -3.3441  -3.2332  -3.2066
    -3.1548  -3.1001  -3.0905  -3.0310  -2.9185  -2.7498  -2.6212  -2.4293
    -2.0949  -1.3137  -1.1520  -0.9968  -0.6840  -0.3529  -0.3174  -0.0828
    -0.0482   0.3093   0.3750   0.4820   0.5115   0.8720   0.9479   1.0457
     1.0577   1.1241   1.4294   1.6755   1.8146   1.8765   1.8978   2.1860
     2.4057   2.7765   2.9312   3.3280   3.3557   3.5083

          k = 0.0597 0.0620 0.0000 ( 34703 PWs)   bands (ev):

   -54.2189 -54.1547 -54.1251 -54.0599 -53.9535 -53.8886 -30.5785 -30.5057
   -30.3624 -30.3134 -30.3036 -30.2487 -30.2404 -30.2171 -30.2026 -30.1841
   -30.1368 -30.0602 -29.9979 -29.8280 -29.7830 -29.6971 -29.5706 -29.5174
    -4.4791  -4.4726  -4.3805  -4.3201  -4.2945  -4.2502  -4.1433  -4.0957
    -4.0418  -3.9744  -3.9442  -3.8726  -3.8152  -3.7847  -3.7197  -3.6826
    -3.5939  -3.4843  -3.4790  -3.4554  -3.3908  -3.3184  -3.2346  -3.2322
    -3.1461  -3.1060  -3.0958  -3.0290  -2.9025  -2.7445  -2.6475  -2.3923
    -2.2323  -1.4025  -1.3497  -1.0950  -0.7205  -0.4283  -0.3265  -0.2212
    -0.1992   0.1805   0.2799   0.3236   0.4077   0.7278   0.8711   0.8898
     0.9768   1.2618   1.3813   1.7035   1.7618   1.9130   1.9344   2.1881
     2.4312   2.7760   2.9165   3.2583   3.4174   3.4665

          k = 0.0597 0.0775 0.0000 ( 34702 PWs)   bands (ev):

   -54.2189 -54.1547 -54.1251 -54.0600 -53.9535 -53.8885 -30.5787 -30.5057
   -30.3628 -30.3135 -30.3039 -30.2489 -30.2403 -30.2172 -30.2032 -30.1840
   -30.1366 -30.0599 -29.9984 -29.8280 -29.7830 -29.6971 -29.5706 -29.5174
    -4.4573  -4.4425  -4.3376  -4.2653  -4.2412  -4.2282  -4.1270  -4.0831
    -3.9574  -3.9333  -3.9080  -3.8153  -3.7794  -3.7705  -3.7255  -3.6827
    -3.5902  -3.4824  -3.4609  -3.4407  -3.3452  -3.2909  -3.2452  -3.2420
    -3.1458  -3.1161  -3.0890  -3.0306  -2.8752  -2.7456  -2.6713  -2.4255
    -2.3387  -1.4863  -1.4403  -1.1393  -0.8291  -0.5684  -0.3255  -0.2497
    -0.2059   0.0396   0.1802   0.1932   0.4188   0.6430   0.7472   0.8389
     0.9463   1.3336   1.3981   1.6608   1.7060   1.9718   1.9874   2.1882
     2.4593   2.7582   2.8789   3.1570   3.2753   3.5061

          k = 0.0597 0.0930 0.0000 ( 34664 PWs)   bands (ev):

   -54.2188 -54.1546 -54.1251 -54.0599 -53.9535 -53.8885 -30.5788 -30.5057
   -30.3629 -30.3135 -30.3040 -30.2490 -30.2402 -30.2173 -30.2034 -30.1840
   -30.1365 -30.0598 -29.9985 -29.8279 -29.7830 -29.6971 -29.5706 -29.5174
    -4.4534  -4.4285  -4.3240  -4.2530  -4.2156  -4.2030  -4.1277  -4.0902
    -3.9412  -3.9202  -3.8544  -3.7895  -3.7742  -3.7472  -3.7324  -3.6965
    -3.5918  -3.4782  -3.4605  -3.4360  -3.3344  -3.2768  -3.2482  -3.2322
    -3.1532  -3.1200  -3.0823  -3.0340  -2.8541  -2.7486  -2.6810  -2.4700
    -2.3783  -1.5201  -1.4382  -1.1500  -0.9101  -0.6306  -0.3363  -0.1928
    -0.1906  -0.0154   0.0951   0.1494   0.4371   0.6135   0.7035   0.8181
     0.9393   1.3159   1.4781   1.5971   1.7038   1.9936   2.0073   2.1881
     2.4727   2.7487   2.8618   3.0839   3.2409   3.5182

          k = 0.0597 0.1084 0.0000 ( 34702 PWs)   bands (ev):

   -54.2189 -54.1547 -54.1251 -54.0600 -53.9535 -53.8885 -30.5787 -30.5057
   -30.3628 -30.3135 -30.3039 -30.2489 -30.2403 -30.2172 -30.2032 -30.1840
   -30.1366 -30.0599 -29.9984 -29.8280 -29.7830 -29.6971 -29.5706 -29.5174
    -4.4573  -4.4425  -4.3376  -4.2653  -4.2412  -4.2282  -4.1270  -4.0831
    -3.9574  -3.9333  -3.9080  -3.8153  -3.7794  -3.7705  -3.7255  -3.6827
    -3.5902  -3.4824  -3.4609  -3.4407  -3.3452  -3.2909  -3.2452  -3.2420
    -3.1458  -3.1161  -3.0890  -3.0306  -2.8752  -2.7456  -2.6713  -2.4255
    -2.3387  -1.4863  -1.4403  -1.1393  -0.8291  -0.5684  -0.3255  -0.2497
    -0.2059   0.0396   0.1802   0.1932   0.4188   0.6430   0.7472   0.8389
     0.9463   1.3336   1.3981   1.6608   1.7060   1.9719   1.9874   2.1882
     2.4593   2.7582   2.8789   3.1570   3.2753   3.5066

          k = 0.0597-0.0620 0.0000 ( 34703 PWs)   bands (ev):

   -54.2189 -54.1547 -54.1251 -54.0599 -53.9535 -53.8886 -30.5785 -30.5057
   -30.3624 -30.3134 -30.3036 -30.2487 -30.2404 -30.2171 -30.2026 -30.1841
   -30.1368 -30.0602 -29.9979 -29.8280 -29.7830 -29.6971 -29.5706 -29.5174
    -4.4791  -4.4726  -4.3805  -4.3201  -4.2945  -4.2502  -4.1433  -4.0957
    -4.0418  -3.9744  -3.9442  -3.8726  -3.8152  -3.7847  -3.7197  -3.6826
    -3.5939  -3.4843  -3.4790  -3.4554  -3.3908  -3.3184  -3.2346  -3.2322
    -3.1461  -3.1060  -3.0958  -3.0290  -2.9025  -2.7445  -2.6475  -2.3923
    -2.2323  -1.4025  -1.3497  -1.0950  -0.7205  -0.4283  -0.3265  -0.2212
    -0.1992   0.1805   0.2799   0.3236   0.4077   0.7278   0.8711   0.8898
     0.9768   1.2618   1.3813   1.7035   1.7618   1.9130   1.9344   2.1881
     2.4312   2.7760   2.9165   3.2583   3.4174   3.4653

          k = 0.0597-0.0465 0.0000 ( 34693 PWs)   bands (ev):

   -54.2188 -54.1547 -54.1251 -54.0599 -53.9535 -53.8886 -30.5781 -30.5057
   -30.3620 -30.3133 -30.3032 -30.2483 -30.2405 -30.2170 -30.2017 -30.1841
   -30.1371 -30.0605 -29.9973 -29.8281 -29.7830 -29.6971 -29.5705 -29.5174
    -4.5262  -4.5249  -4.4343  -4.3828  -4.3436  -4.2684  -4.1851  -4.1773
    -4.0628  -4.0312  -3.9663  -3.9342  -3.8697  -3.8064  -3.7117  -3.6865
    -3.6019  -3.5246  -3.4863  -3.4819  -3.4331  -3.3441  -3.2332  -3.2066
    -3.1548  -3.1001  -3.0905  -3.0310  -2.9185  -2.7498  -2.6212  -2.4293
    -2.0949  -1.3137  -1.1520  -0.9968  -0.6840  -0.3529  -0.3174  -0.0828
    -0.0482   0.3093   0.3750   0.4820   0.5115   0.8720   0.9479   1.0457
     1.0577   1.1241   1.4294   1.6755   1.8146   1.8765   1.8978   2.1860
     2.4057   2.7765   2.9312   3.3281   3.3558   3.5083

          k = 0.0597-0.0310 0.0000 ( 34730 PWs)   bands (ev):

   -54.2189 -54.1548 -54.1251 -54.0600 -53.9535 -53.8887 -30.5777 -30.5057
   -30.3616 -30.3132 -30.3028 -30.2479 -30.2407 -30.2170 -30.2009 -30.1842
   -30.1374 -30.0609 -29.9967 -29.8282 -29.7831 -29.6971 -29.5705 -29.5174
    -4.6217  -4.5692  -4.4593  -4.4292  -4.3792  -4.2904  -4.2526  -4.2158
    -4.0828  -4.0764  -3.9885  -3.9842  -3.9213  -3.8378  -3.7045  -3.6835
    -3.6073  -3.5831  -3.5243  -3.4882  -3.4496  -3.3640  -3.2378  -3.1901
    -3.1615  -3.1034  -3.0749  -3.0326  -2.9267  -2.7632  -2.6001  -2.4832
    -1.9706  -1.2481  -1.0049  -0.8600  -0.5803  -0.3540  -0.2980   0.0882
     0.1098   0.2962   0.5807   0.5922   0.7849   0.9889   1.0238   1.0683
     1.1798   1.2363   1.4600   1.6532   1.7206   1.8379   2.0381   2.1765
     2.3882   2.7263   2.9136   3.1170   3.3806   3.4752

          k = 0.0597-0.0155 0.0000 ( 34712 PWs)   bands (ev):

   -54.2189 -54.1547 -54.1251 -54.0600 -53.9535 -53.8887 -30.5774 -30.5057
   -30.3613 -30.3131 -30.3025 -30.2476 -30.2408 -30.2169 -30.2002 -30.1843
   -30.1376 -30.0611 -29.9962 -29.8283 -29.7831 -29.6971 -29.5705 -29.5173
    -4.7002  -4.5975  -4.4717  -4.4557  -4.4009  -4.3099  -4.2896  -4.2462
    -4.1162  -4.0914  -4.0154  -4.0037  -3.9571  -3.8615  -3.7010  -3.6814
    -3.6300  -3.6028  -3.5538  -3.5111  -3.4423  -3.3778  -3.2429  -3.1920
    -3.1541  -3.1124  -3.0570  -3.0354  -2.9301  -2.7794  -2.5873  -2.5181
    -1.8896  -1.2063  -0.9681  -0.7396  -0.4076  -0.3727  -0.2607   0.1067
     0.2295   0.3634   0.6336   0.7395   0.8981   1.0373   1.1095   1.2316
     1.2670   1.4653   1.4751   1.6417   1.7405   1.8298   2.1343   2.1747
     2.3528   2.6413   2.8119   2.8818   3.4095   3.4397

          k = 0.0597 0.0000 0.0000 ( 34717 PWs)   bands (ev):

   -54.2188 -54.1548 -54.1251 -54.0601 -53.9535 -53.8887 -30.5773 -30.5057
   -30.3611 -30.3131 -30.3024 -30.2475 -30.2408 -30.2169 -30.2000 -30.1843
   -30.1377 -30.0612 -29.9961 -29.8283 -29.7831 -29.6971 -29.5705 -29.5173
    -4.7289  -4.6071  -4.4760  -4.4641  -4.4081  -4.3177  -4.3014  -4.2580
    -4.1275  -4.0981  -4.0260  -4.0087  -3.9698  -3.8699  -3.7004  -3.6813
    -3.6478  -3.5967  -3.5646  -3.5239  -3.4376  -3.3831  -3.2449  -3.1954
    -3.1477  -3.1182  -3.0449  -3.0413  -2.9309  -2.7870  -2.5830  -2.5291
    -1.8622  -1.1913  -0.9640  -0.6901  -0.3845  -0.3497  -0.1975   0.0563
     0.2902   0.4039   0.6462   0.7837   0.8605   1.1252   1.1843   1.2524
     1.2979   1.4821   1.6056   1.6187   1.8459   1.9139   2.0194   2.2375
     2.3085   2.6122   2.6726   2.8630   3.1949   3.4305

          k = 0.0597 0.0155 0.0000 ( 34712 PWs)   bands (ev):

   -54.2189 -54.1547 -54.1251 -54.0600 -53.9535 -53.8887 -30.5774 -30.5057
   -30.3613 -30.3131 -30.3025 -30.2476 -30.2408 -30.2169 -30.2002 -30.1843
   -30.1376 -30.0611 -29.9962 -29.8283 -29.7831 -29.6971 -29.5705 -29.5173
    -4.7002  -4.5975  -4.4717  -4.4557  -4.4009  -4.3099  -4.2896  -4.2462
    -4.1162  -4.0914  -4.0154  -4.0037  -3.9571  -3.8615  -3.7010  -3.6814
    -3.6300  -3.6028  -3.5538  -3.5111  -3.4423  -3.3778  -3.2429  -3.1920
    -3.1541  -3.1124  -3.0570  -3.0354  -2.9301  -2.7794  -2.5873  -2.5181
    -1.8896  -1.2063  -0.9681  -0.7396  -0.4076  -0.3727  -0.2607   0.1067
     0.2295   0.3634   0.6336   0.7395   0.8981   1.0373   1.1095   1.2316
     1.2670   1.4653   1.4751   1.6417   1.7405   1.8298   2.1343   2.1747
     2.3528   2.6413   2.8119   2.8818   3.4095   3.4397

          k = 0.0746 0.0387 0.0000 ( 34680 PWs)   bands (ev):

   -54.2034 -54.1703 -54.1095 -54.0758 -53.9379 -53.9044 -30.5606 -30.5233
   -30.2880 -30.2562 -30.2360 -30.2332 -30.2025 -30.1864 -30.1859 -30.1531
   -30.0933 -30.0456 -30.0124 -29.9597 -29.9142 -29.8252 -29.5578 -29.5303
    -4.4658  -4.4232  -4.3376  -4.3328  -4.2600  -4.1841  -4.1748  -4.1368
    -3.9905  -3.9354  -3.9075  -3.8426  -3.7997  -3.7401  -3.6802  -3.6486
    -3.6243  -3.5385  -3.5278  -3.4888  -3.4398  -3.3797  -3.3342  -3.2271
    -3.2257  -3.1474  -3.1389  -3.0706  -2.9819  -2.9200  -2.8760  -2.4940
    -2.2767  -1.6565  -0.9221  -0.8393  -0.5490  -0.4151  -0.1763  -0.1162
     0.2095   0.5048   0.5615   0.5762   0.8844   1.0509   1.0725   1.1263
     1.1315   1.3046   1.3722   1.5416   1.7507   1.7589   1.8397   1.8699
     2.0904   2.5515   2.8374   2.9551   3.1362   3.2798

          k = 0.0746 0.0542 0.0000 ( 34679 PWs)   bands (ev):

   -54.2035 -54.1702 -54.1095 -54.0757 -53.9379 -53.9043 -30.5609 -30.5232
   -30.2883 -30.2560 -30.2364 -30.2335 -30.2023 -30.1866 -30.1865 -30.1526
   -30.0934 -30.0451 -30.0129 -29.9596 -29.9142 -29.8251 -29.5579 -29.5303
    -4.4352  -4.3864  -4.3248  -4.3050  -4.2288  -4.1506  -4.1456  -4.0991
    -3.9894  -3.9043  -3.8693  -3.8020  -3.7975  -3.7390  -3.6857  -3.6443
    -3.6270  -3.5123  -3.4991  -3.4737  -3.4245  -3.3646  -3.3520  -3.2379
    -3.2158  -3.1420  -3.1353  -3.0716  -2.9524  -2.9513  -2.8673  -2.6215
    -2.2208  -1.7155  -1.0272  -0.9001  -0.5816  -0.4398  -0.2552  -0.1598
     0.1211   0.3760   0.4337   0.5102   0.8562   0.9340   1.0185   1.0563
     1.2504   1.2897   1.4089   1.6195   1.7272   1.7370   1.8088   1.8401
     2.1195   2.5582   2.7949   3.0991   3.1464   3.3392

          k = 0.0746 0.0697 0.0000 ( 34657 PWs)   bands (ev):

   -54.2034 -54.1702 -54.1095 -54.0757 -53.9379 -53.9043 -30.5611 -30.5231
   -30.2886 -30.2559 -30.2366 -30.2338 -30.2021 -30.1873 -30.1866 -30.1522
   -30.0935 -30.0448 -30.0134 -29.9594 -29.9141 -29.8251 -29.5579 -29.5303
    -4.4141  -4.3490  -4.3057  -4.2691  -4.2000  -4.1292  -4.1136  -4.0718
    -3.9767  -3.9065  -3.8131  -3.7966  -3.7457  -3.7443  -3.6768  -3.6378
    -3.6265  -3.5004  -3.4962  -3.4535  -3.4225  -3.3668  -3.3529  -3.2450
    -3.2129  -3.1455  -3.1264  -3.0815  -2.9862  -2.9089  -2.8546  -2.7279
    -2.2103  -1.7821  -1.1066  -0.9308  -0.6418  -0.6099  -0.1826  -0.0770
     0.0659   0.2209   0.3410   0.5112   0.8197   0.8380   0.9045   0.9989
     1.2809   1.3824   1.4411   1.6865   1.7328   1.7622   1.7877   1.8434
     2.1640   2.5390   2.7013   3.0093   3.2106   3.2714

          k = 0.0746 0.0852 0.0000 ( 34659 PWs)   bands (ev):

   -54.2034 -54.1702 -54.1095 -54.0757 -53.9379 -53.9042 -30.5613 -30.5231
   -30.2888 -30.2558 -30.2368 -30.2340 -30.2020 -30.1876 -30.1867 -30.1520
   -30.0935 -30.0446 -30.0137 -29.9593 -29.9141 -29.8251 -29.5579 -29.5303
    -4.4038  -4.3324  -4.2805  -4.2386  -4.1928  -4.1235  -4.0781  -4.0655
    -3.9481  -3.9356  -3.7859  -3.7741  -3.7603  -3.6988  -3.6617  -3.6311
    -3.6193  -3.5177  -3.4926  -3.4451  -3.4394  -3.3639  -3.3491  -3.2464
    -3.2128  -3.1454  -3.1226  -3.1008  -3.0045  -2.8866  -2.8263  -2.7851
    -2.2395  -1.8260  -1.1127  -0.9401  -0.7240  -0.7173  -0.0765  -0.0225
     0.0929   0.1214   0.2957   0.4307   0.7811   0.8455   0.8484   0.9497
     1.2940   1.3230   1.5759   1.6852   1.7507   1.7635   1.8418   1.8588
     2.1944   2.5222   2.6286   2.9270   3.0167   3.2820

          k = 0.0746 0.1007 0.0000 ( 34659 PWs)   bands (ev):

   -54.2034 -54.1702 -54.1095 -54.0757 -53.9379 -53.9042 -30.5613 -30.5231
   -30.2888 -30.2558 -30.2368 -30.2340 -30.2020 -30.1876 -30.1867 -30.1520
   -30.0935 -30.0446 -30.0137 -29.9593 -29.9141 -29.8251 -29.5579 -29.5303
    -4.4038  -4.3324  -4.2805  -4.2386  -4.1928  -4.1235  -4.0781  -4.0655
    -3.9481  -3.9356  -3.7859  -3.7741  -3.7603  -3.6988  -3.6617  -3.6311
    -3.6193  -3.5177  -3.4926  -3.4451  -3.4394  -3.3639  -3.3491  -3.2464
    -3.2128  -3.1454  -3.1226  -3.1008  -3.0045  -2.8866  -2.8263  -2.7851
    -2.2395  -1.8260  -1.1127  -0.9401  -0.7240  -0.7173  -0.0765  -0.0225
     0.0929   0.1214   0.2957   0.4307   0.7811   0.8455   0.8484   0.9497
     1.2940   1.3230   1.5759   1.6852   1.7507   1.7635   1.8418   1.8588
     2.1944   2.5222   2.6286   2.9270   3.0167   3.2820

          k = 0.0746 0.1162 0.0000 ( 34657 PWs)   bands (ev):

   -54.2034 -54.1702 -54.1095 -54.0757 -53.9379 -53.9043 -30.5611 -30.5231
   -30.2886 -30.2559 -30.2366 -30.2338 -30.2021 -30.1873 -30.1866 -30.1522
   -30.0935 -30.0448 -30.0134 -29.9594 -29.9141 -29.8251 -29.5579 -29.5303
    -4.4141  -4.3490  -4.3057  -4.2691  -4.2000  -4.1292  -4.1136  -4.0718
    -3.9767  -3.9065  -3.8131  -3.7966  -3.7457  -3.7443  -3.6768  -3.6378
    -3.6265  -3.5004  -3.4962  -3.4535  -3.4225  -3.3668  -3.3529  -3.2450
    -3.2129  -3.1455  -3.1264  -3.0815  -2.9862  -2.9089  -2.8546  -2.7279
    -2.2103  -1.7821  -1.1066  -0.9308  -0.6418  -0.6099  -0.1826  -0.0770
     0.0659   0.2209   0.3410   0.5112   0.8197   0.8380   0.9045   0.9989
     1.2809   1.3824   1.4411   1.6865   1.7328   1.7622   1.7877   1.8434
     2.1640   2.5390   2.7013   3.0093   3.2106   3.2714

          k = 0.0746-0.0542 0.0000 ( 34679 PWs)   bands (ev):

   -54.2035 -54.1702 -54.1095 -54.0757 -53.9379 -53.9043 -30.5609 -30.5232
   -30.2883 -30.2560 -30.2364 -30.2335 -30.2023 -30.1866 -30.1865 -30.1526
   -30.0934 -30.0451 -30.0129 -29.9596 -29.9142 -29.8251 -29.5579 -29.5303
    -4.4352  -4.3864  -4.3248  -4.3050  -4.2288  -4.1506  -4.1456  -4.0991
    -3.9894  -3.9043  -3.8693  -3.8020  -3.7975  -3.7390  -3.6857  -3.6443
    -3.6270  -3.5123  -3.4991  -3.4737  -3.4245  -3.3646  -3.3520  -3.2379
    -3.2158  -3.1420  -3.1353  -3.0716  -2.9524  -2.9513  -2.8673  -2.6215
    -2.2208  -1.7155  -1.0272  -0.9001  -0.5816  -0.4398  -0.2552  -0.1598
     0.1211   0.3760   0.4337   0.5102   0.8562   0.9340   1.0185   1.0563
     1.2504   1.2897   1.4089   1.6195   1.7272   1.7370   1.8088   1.8401
     2.1195   2.5582   2.7949   3.0991   3.1463   3.3392

          k = 0.0746-0.0387 0.0000 ( 34680 PWs)   bands (ev):

   -54.2034 -54.1703 -54.1095 -54.0758 -53.9379 -53.9044 -30.5606 -30.5233
   -30.2880 -30.2562 -30.2360 -30.2332 -30.2025 -30.1864 -30.1859 -30.1531
   -30.0933 -30.0456 -30.0124 -29.9597 -29.9142 -29.8252 -29.5578 -29.5303
    -4.4658  -4.4232  -4.3376  -4.3328  -4.2600  -4.1841  -4.1748  -4.1368
    -3.9905  -3.9354  -3.9075  -3.8426  -3.7997  -3.7401  -3.6802  -3.6486
    -3.6243  -3.5385  -3.5278  -3.4888  -3.4398  -3.3797  -3.3342  -3.2271
    -3.2257  -3.1474  -3.1389  -3.0706  -2.9819  -2.9200  -2.8760  -2.4940
    -2.2767  -1.6565  -0.9221  -0.8393  -0.5490  -0.4151  -0.1763  -0.1162
     0.2095   0.5048   0.5615   0.5762   0.8844   1.0509   1.0725   1.1263
     1.1315   1.3046   1.3722   1.5416   1.7507   1.7589   1.8397   1.8699
     2.0904   2.5515   2.8375   2.9551   3.1362   3.2799

          k = 0.0746-0.0232 0.0000 ( 34720 PWs)   bands (ev):

   -54.2035 -54.1703 -54.1095 -54.0758 -53.9379 -53.9044 -30.5603 -30.5234
   -30.2877 -30.2563 -30.2358 -30.2329 -30.2027 -30.1863 -30.1852 -30.1535
   -30.0933 -30.0460 -30.0119 -29.9599 -29.9143 -29.8252 -29.5578 -29.5303
    -4.4977  -4.4460  -4.3492  -4.3431  -4.2839  -4.2185  -4.2086  -4.1548
    -3.9970  -3.9681  -3.9310  -3.8725  -3.7939  -3.7404  -3.6707  -3.6493
    -3.6261  -3.5847  -3.5423  -3.5020  -3.4490  -3.3939  -3.3263  -3.2479
    -3.2140  -3.1573  -3.1379  -3.0704  -2.9977  -2.8981  -2.8861  -2.3836
    -2.3371  -1.6214  -0.8893  -0.7557  -0.4801  -0.4546  -0.1711   0.1256
     0.2800   0.5470   0.7143   0.7900   0.8460   1.0302   1.0649   1.0690
     1.2155   1.2821   1.4442   1.6059   1.7274   1.7979   1.8459   1.9545
     2.1372   2.4479   2.7927   2.8495   2.8910   3.3592

          k = 0.0746-0.0077 0.0000 ( 34708 PWs)   bands (ev):

   -54.2035 -54.1703 -54.1095 -54.0758 -53.9379 -53.9044 -30.5602 -30.5234
   -30.2875 -30.2564 -30.2356 -30.2327 -30.2028 -30.1863 -30.1848 -30.1538
   -30.0932 -30.0462 -30.0116 -29.9600 -29.9143 -29.8252 -29.5578 -29.5303
    -4.5180  -4.4547  -4.3564  -4.3413  -4.2986  -4.2429  -4.2273  -4.1623
    -4.0033  -3.9840  -3.9452  -3.8861  -3.7913  -3.7373  -3.6660  -3.6478
    -3.6311  -3.6140  -3.5491  -3.5090  -3.4520  -3.4027  -3.3241  -3.2671
    -3.2070  -3.1620  -3.1379  -3.0696  -3.0042  -2.8937  -2.8875  -2.3726
    -2.3209  -1.6073  -0.8961  -0.6769  -0.5428  -0.3638  -0.1686   0.3168
     0.3294   0.5725   0.7645   0.8024   0.9551   0.9814   1.0354   1.0716
     1.2588   1.2630   1.5319   1.6847   1.7390   1.8563   1.8963   2.0064
     2.1537   2.3356   2.6466   2.7896   2.8544   3.0599

          k = 0.0746 0.0077 0.0000 ( 34708 PWs)   bands (ev):

   -54.2035 -54.1703 -54.1095 -54.0758 -53.9379 -53.9044 -30.5602 -30.5234
   -30.2875 -30.2564 -30.2356 -30.2327 -30.2028 -30.1863 -30.1848 -30.1538
   -30.0932 -30.0462 -30.0116 -29.9600 -29.9143 -29.8252 -29.5578 -29.5303
    -4.5180  -4.4547  -4.3564  -4.3413  -4.2986  -4.2429  -4.2273  -4.1623
    -4.0033  -3.9840  -3.9452  -3.8861  -3.7913  -3.7373  -3.6660  -3.6478
    -3.6311  -3.6140  -3.5491  -3.5090  -3.4520  -3.4027  -3.3241  -3.2671
    -3.2070  -3.1620  -3.1379  -3.0696  -3.0042  -2.8937  -2.8875  -2.3726
    -2.3209  -1.6073  -0.8961  -0.6769  -0.5428  -0.3638  -0.1686   0.3168
     0.3294   0.5725   0.7645   0.8024   0.9551   0.9814   1.0354   1.0716
     1.2588   1.2630   1.5319   1.6847   1.7390   1.8563   1.8963   2.0064
     2.1537   2.3356   2.6466   2.7896   2.8544   3.0599

          k = 0.0746 0.0232 0.0000 ( 34720 PWs)   bands (ev):

   -54.2035 -54.1703 -54.1095 -54.0758 -53.9379 -53.9044 -30.5603 -30.5234
   -30.2877 -30.2563 -30.2358 -30.2329 -30.2027 -30.1863 -30.1852 -30.1535
   -30.0933 -30.0460 -30.0119 -29.9599 -29.9143 -29.8252 -29.5578 -29.5303
    -4.4977  -4.4460  -4.3492  -4.3431  -4.2839  -4.2185  -4.2086  -4.1548
    -3.9970  -3.9681  -3.9310  -3.8725  -3.7939  -3.7404  -3.6707  -3.6493
    -3.6261  -3.5847  -3.5423  -3.5020  -3.4490  -3.3939  -3.3263  -3.2479
    -3.2140  -3.1573  -3.1379  -3.0704  -2.9977  -2.8981  -2.8861  -2.3836
    -2.3371  -1.6214  -0.8893  -0.7557  -0.4801  -0.4546  -0.1711   0.1256
     0.2800   0.5470   0.7143   0.7900   0.8460   1.0302   1.0649   1.0690
     1.2155   1.2821   1.4442   1.6059   1.7274   1.7979   1.8459   1.9545
     2.1372   2.4479   2.7927   2.8495   2.8910   3.3591

          k =-0.0895-0.0465 0.0000 ( 34670 PWs)   bands (ev):

   -54.1869 -54.1869 -54.0927 -54.0927 -53.9212 -53.9211 -30.5420 -30.5420
   -30.2720 -30.2720 -30.2174 -30.2174 -30.1696 -30.1696 -30.0986 -30.0986
   -30.0524 -30.0524 -30.0291 -30.0290 -29.9604 -29.9604 -29.5441 -29.5441
    -4.3925  -4.3925  -4.3161  -4.3161  -4.1421  -4.1421  -4.1215  -4.1215
    -3.9484  -3.9484  -3.8097  -3.8097  -3.7617  -3.7617  -3.5998  -3.5998
    -3.5276  -3.5276  -3.4643  -3.4643  -3.4190  -3.4190  -3.3821  -3.3821
    -3.2074  -3.2074  -3.1128  -3.1128  -3.0101  -3.0101  -2.8648  -2.8648
    -2.0006  -2.0006  -0.8510  -0.8510  -0.4727  -0.4727  -0.2314  -0.2314
     0.3774   0.3774   0.5622   0.5622   1.0734   1.0734   1.1137   1.1137
     1.3507   1.3508   1.5041   1.5041   1.5995   1.5995   1.8060   1.8060
     2.1009   2.1009   2.7932   2.7932   3.2049   3.2050

          k =-0.0895-0.0310 0.0000 ( 34680 PWs)   bands (ev):

   -54.1869 -54.1869 -54.0927 -54.0926 -53.9212 -53.9211 -30.5422 -30.5418
   -30.2723 -30.2717 -30.2177 -30.2172 -30.1702 -30.1690 -30.0989 -30.0984
   -30.0525 -30.0523 -30.0295 -30.0286 -29.9605 -29.9603 -29.5441 -29.5441
    -4.4004  -4.3804  -4.3184  -4.3000  -4.1687  -4.1305  -4.1303  -4.1024
    -3.9557  -3.9407  -3.8248  -3.8119  -3.7708  -3.7282  -3.6152  -3.5794
    -3.5577  -3.5160  -3.4700  -3.4507  -3.4224  -3.4205  -3.3915  -3.3791
    -3.2421  -3.1818  -3.1317  -3.1030  -3.0157  -3.0101  -2.9350  -2.7694
    -2.0659  -1.9605  -0.8662  -0.8218  -0.5406  -0.5222  -0.2269  -0.0564
     0.3522   0.4092   0.4912   0.6609   0.9940   1.0420   1.0581   1.1655
     1.3066   1.4503   1.4709   1.5095   1.6239   1.6808   1.7798   1.8778
     2.0930   2.0934   2.6514   2.8838   2.9802   3.3510

          k =-0.0895-0.0155 0.0000 ( 34678 PWs)   bands (ev):

   -54.1869 -54.1869 -54.0927 -54.0926 -53.9212 -53.9211 -30.5423 -30.5417
   -30.2724 -30.2716 -30.2178 -30.2170 -30.1706 -30.1686 -30.0991 -30.0982
   -30.0526 -30.0523 -30.0299 -30.0282 -29.9605 -29.9603 -29.5441 -29.5441
    -4.4040  -4.3696  -4.3031  -4.2788  -4.2083  -4.1289  -4.1286  -4.0791
    -3.9622  -3.9307  -3.8458  -3.8329  -3.7691  -3.6696  -3.6268  -3.5901
    -3.5591  -3.5324  -3.4592  -3.4399  -3.4280  -3.4221  -3.4053  -3.3795
    -3.2802  -3.1665  -3.1541  -3.0989  -3.0252  -3.0122  -2.9673  -2.6847
    -2.1228  -1.9559  -0.8425  -0.8168  -0.6066  -0.6041  -0.1489   0.1566
     0.3376   0.4391   0.4623   0.7486   0.9045   0.9203   1.0119   1.1961
     1.2949   1.4747   1.4751   1.5738   1.6716   1.7198   1.9210   1.9737
     2.0626   2.0739   2.4663   2.7945   2.9409   3.1343

          k =-0.0895 0.0000 0.0000 ( 34688 PWs)   bands (ev):

   -54.1869 -54.1869 -54.0927 -54.0926 -53.9212 -53.9211 -30.5424 -30.5417
   -30.2725 -30.2715 -30.2179 -30.2169 -30.1708 -30.1684 -30.0991 -30.0981
   -30.0526 -30.0523 -30.0300 -30.0281 -29.9605 -29.9603 -29.5441 -29.5441
    -4.4050  -4.3657  -4.2849  -4.2681  -4.2353  -4.1310  -4.1272  -4.0649
    -3.9650  -3.9205  -3.8740  -3.8345  -3.7661  -3.6298  -3.6101  -3.6068
    -3.5978  -3.5231  -3.4515  -3.4346  -3.4319  -3.4282  -3.4073  -3.3801
    -3.3007  -3.1640  -3.1615  -3.0979  -3.0298  -3.0133  -2.9753  -2.6500
    -2.1448  -1.9612  -0.8232  -0.8154  -0.6498  -0.6232  -0.1087   0.2505
     0.3356   0.4129   0.5485   0.6890   0.8758   0.8927   0.9960   1.1985
     1.2927   1.4655   1.5031   1.5298   1.7581   1.8754   1.8807   1.9371
     2.0610   2.1461   2.3811   2.7813   2.8512   2.9618

          k =-0.0895 0.0155 0.0000 ( 34678 PWs)   bands (ev):

   -54.1869 -54.1869 -54.0927 -54.0926 -53.9212 -53.9211 -30.5423 -30.5417
   -30.2724 -30.2716 -30.2178 -30.2170 -30.1706 -30.1686 -30.0991 -30.0982
   -30.0526 -30.0523 -30.0299 -30.0282 -29.9605 -29.9603 -29.5441 -29.5441
    -4.4040  -4.3696  -4.3031  -4.2788  -4.2083  -4.1289  -4.1286  -4.0791
    -3.9622  -3.9307  -3.8458  -3.8329  -3.7691  -3.6696  -3.6268  -3.5901
    -3.5591  -3.5324  -3.4592  -3.4399  -3.4280  -3.4221  -3.4053  -3.3795
    -3.2802  -3.1665  -3.1541  -3.0989  -3.0252  -3.0122  -2.9673  -2.6847
    -2.1228  -1.9559  -0.8425  -0.8168  -0.6066  -0.6041  -0.1489   0.1566
     0.3376   0.4391   0.4623   0.7486   0.9045   0.9203   1.0119   1.1961
     1.2949   1.4747   1.4751   1.5738   1.6716   1.7198   1.9210   1.9737
     2.0626   2.0739   2.4663   2.7945   2.9409   3.1343

          k =-0.0895 0.0310 0.0000 ( 34680 PWs)   bands (ev):

   -54.1869 -54.1869 -54.0927 -54.0926 -53.9212 -53.9211 -30.5422 -30.5418
   -30.2723 -30.2717 -30.2177 -30.2172 -30.1702 -30.1690 -30.0989 -30.0984
   -30.0525 -30.0523 -30.0295 -30.0286 -29.9605 -29.9603 -29.5441 -29.5441
    -4.4004  -4.3804  -4.3184  -4.3000  -4.1687  -4.1305  -4.1303  -4.1024
    -3.9557  -3.9407  -3.8248  -3.8119  -3.7708  -3.7282  -3.6152  -3.5794
    -3.5577  -3.5160  -3.4700  -3.4507  -3.4224  -3.4205  -3.3915  -3.3791
    -3.2421  -3.1818  -3.1317  -3.1030  -3.0157  -3.0101  -2.9350  -2.7694
    -2.0659  -1.9605  -0.8662  -0.8218  -0.5406  -0.5222  -0.2269  -0.0564
     0.3522   0.4092   0.4912   0.6609   0.9940   1.0420   1.0581   1.1655
     1.3066   1.4503   1.4709   1.5095   1.6239   1.6808   1.7798   1.8778
     2.0930   2.0934   2.6514   2.8838   2.9802   3.3510

          k =-0.0895-0.1394 0.0000 ( 34670 PWs)   bands (ev):

   -54.1869 -54.1869 -54.0927 -54.0927 -53.9212 -53.9211 -30.5420 -30.5420
   -30.2720 -30.2720 -30.2174 -30.2174 -30.1696 -30.1696 -30.0986 -30.0986
   -30.0524 -30.0524 -30.0291 -30.0290 -29.9604 -29.9604 -29.5441 -29.5441
    -4.3925  -4.3925  -4.3161  -4.3161  -4.1421  -4.1421  -4.1215  -4.1215
    -3.9484  -3.9484  -3.8097  -3.8097  -3.7617  -3.7617  -3.5998  -3.5998
    -3.5276  -3.5276  -3.4643  -3.4643  -3.4190  -3.4190  -3.3821  -3.3821
    -3.2074  -3.2074  -3.1128  -3.1128  -3.0101  -3.0101  -2.8648  -2.8648
    -2.0006  -2.0006  -0.8510  -0.8510  -0.4727  -0.4727  -0.2314  -0.2314
     0.3774   0.3774   0.5622   0.5622   1.0734   1.0734   1.1137   1.1137
     1.3507   1.3508   1.5041   1.5041   1.5995   1.5995   1.8060   1.8060
     2.1009   2.1009   2.7932   2.7932   3.2050   3.2050

     the Fermi energy is     1.1404 ev

!    total energy              =   -1221.80132391 Ry
     estimated scf accuracy    <       0.00000357 Ry
     smearing contrib. (-TS)   =      -0.05765985 Ry
     internal energy E=F+TS    =   -1221.74366406 Ry

     The total energy is F=E-TS. E is the sum of the following terms:
     one-electron contribution =  -10067.38448986 Ry
     hartree contribution      =    5073.76372830 Ry
     xc contribution           =    -253.82707312 Ry
     ewald contribution        =    4025.70416757 Ry
     electric field correction =       0.00000305 Ry

     convergence has been achieved in  15 iterations

     negative rho (up, down):  8.924E-04 0.000E+00

     Forces acting on atoms (cartesian axes, Ry/au):

     atom    1 type  1   force =    -0.00000088    0.00955058    0.03096145
     atom    2 type  1   force =     0.00000302    0.00954791    0.03095281
     atom    3 type  2   force =     0.00000263   -0.00985906   -0.01858047
     atom    4 type  2   force =    -0.00000164   -0.00985975   -0.01858139
     atom    5 type  1   force =     0.00000073   -0.01124005   -0.00990770
     atom    6 type  1   force =     0.00000153   -0.01124173   -0.00990870
     atom    7 type  2   force =    -0.00000136    0.01063227   -0.00538586
     atom    8 type  2   force =    -0.00000276    0.01063461   -0.00538784
     atom    9 type  1   force =    -0.00000201    0.00079483    0.00064780
     atom   10 type  1   force =    -0.00000014    0.00079946    0.00065489
     atom   11 type  2   force =    -0.00000165    0.00012059    0.00226651
     atom   12 type  2   force =     0.00000252    0.00012033    0.00226850

     Total force =     0.061071     Total SCF correction =     0.007153
     SCF correction compared to forces is large: reduce conv_thr to get better values

     Writing output data file ./Nb2Ag2/Nb2Ag2_beef.save/

     init_run     :    112.43s CPU    113.24s WALL (       1 calls)
     electrons    :   3194.69s CPU   3215.49s WALL (       1 calls)
     forces       :     96.52s CPU     96.76s WALL (       1 calls)

     Called by init_run:
     wfcinit      :    100.68s CPU    101.00s WALL (       1 calls)
     potinit      :      7.85s CPU      7.99s WALL (       1 calls)
     hinit0       :      2.13s CPU      2.15s WALL (       1 calls)

     Called by electrons:
     c_bands      :   2835.63s CPU   2841.86s WALL (      15 calls)
     sum_band     :    316.24s CPU    322.99s WALL (      15 calls)
     v_of_rho     :     27.30s CPU     29.43s WALL (      16 calls)
     newd         :     22.03s CPU     27.58s WALL (      16 calls)
     mix_rho      :      0.64s CPU      0.65s WALL (      15 calls)
     vdW_kernel   :      5.68s CPU      5.69s WALL (       1 calls)

     Called by c_bands:
     init_us_2    :     11.86s CPU     11.90s WALL (    2368 calls)
     cegterg      :   2801.05s CPU   2806.36s WALL (    1110 calls)

     Called by *egterg:
     cdiaghg      :    109.94s CPU    109.98s WALL (    5312 calls)
     h_psi        :   1327.43s CPU   1332.23s WALL (    5386 calls)
     s_psi        :    445.92s CPU    446.02s WALL (    5386 calls)
     g_psi        :      1.08s CPU      1.09s WALL (    4202 calls)

     Called by h_psi:
     h_psi:calbec :    457.25s CPU    457.82s WALL (    5386 calls)
     vloc_psi     :    404.42s CPU    408.57s WALL (    5386 calls)
     add_vuspsi   :    459.46s CPU    459.55s WALL (    5386 calls)

     General routines
     calbec       :    736.05s CPU    736.92s WALL (    6792 calls)
     fft          :     16.14s CPU     16.72s WALL (    1067 calls)
     ffts         :      0.06s CPU      0.06s WALL (      31 calls)
     fftw         :    468.17s CPU    473.14s WALL (  556684 calls)
     interpolate  :      0.26s CPU      0.27s WALL (      16 calls)

     Parallel routines
     fft_scatt_xy :     40.93s CPU     41.35s WALL (  557782 calls)
     fft_scatt_yz :     76.18s CPU     77.64s WALL (  557782 calls)

     PWSCF        :  56m53.26s CPU  57m32.69s WALL


   This run was terminated on:  16:46:29  10Jul2022            

=------------------------------------------------------------------------------=
   JOB DONE.
=------------------------------------------------------------------------------=
