
     Program PWSCF v.6.6 starts on 23Jun2022 at 20:42:51 

     This program is part of the open-source Quantum ESPRESSO suite
     for quantum simulation of materials; please cite
         "P. Giannozzi et al., J. Phys.:Condens. Matter 21 395502 (2009);
         "P. Giannozzi et al., J. Phys.:Condens. Matter 29 465901 (2017);
          URL http://www.quantum-espresso.org", 
     in publications or presentations arising from this work. More details at
     http://www.quantum-espresso.org/quote

     Parallel version (MPI), running on    37 processors

     MPI processes distributed on     2 nodes
     R & G space division:  proc/nbgrp/npool/nimage =      37
     Fft bands division:     nmany     =       1
     Reading input from Nb2Pd2.in
Warning: card &CELL ignored
Warning: card / ignored

     Current dimensions of program PWSCF are:
     Max number of different atomic species (ntypx) = 10
     Max number of k-points (npk) =  40000
     Max angular momentum in pseudopotentials (lmaxx) =  3
     Presently stress not available with electric field and gates

     Message from routine cell_base_init:
     DEPRECATED: use true lattice parameter, not A to a.u. conversion factor
     file Nb.pbe-spn-rrkjus_psl.1.0.0.UPF: wavefunction(s)  4S 4P renormalized
     file Pd.pbe-n-rrkjus_psl.1.0.0.UPF: wavefunction(s)  4D renormalized

     **************************************************************************
     Initializing libbeef V0.1.2 with the BEEF-vdW functional.
     Citation: Wellendorff et al., PRB 85, 235149 (2012).
     **************************************************************************


     IMPORTANT: XC functional enforced from input :
     Exchange-correlation= BEEF-VDW
                           (   1   4  43  14   2   0   0)
     Any further DFT definition will be discarded
     Please, verify this is what you really want


     Subspace diagonalization in iterative solution of the eigenvalue problem:
     a serial algorithm will be used

     Found symmetry operation: I + ( -0.5000  0.0000  0.0000)
     This is a supercell, fractional translations are disabled

     Parallelization info
     --------------------
     sticks:   dense  smooth     PW     G-vecs:    dense   smooth      PW
     Min         120      47     13                27902     7043    1085
     Max         121      48     14                27930     7070    1116
     Sum        4441    1773    513              1033025   261289   40879



     bravais-lattice index     =            0
     lattice parameter (alat)  =       1.8897  a.u.
     unit-cell volume          =    4726.4738 (a.u.)^3
     number of atoms/cell      =           12
     number of atomic types    =            2
     number of electrons       =       138.00
     number of Kohn-Sham states=           83
     kinetic-energy cutoff     =      55.1240  Ry
     charge density cutoff     =     551.2396  Ry
     convergence threshold     =      1.0E-05
     mixing beta               =       0.1000
     number of iterations used =           10  plain     mixing
     Exchange-correlation= BEEF-VDW
                           (   1   4  43  14   2   0   0)

     celldm(1)=   1.889726  celldm(2)=   0.000000  celldm(3)=   0.000000
     celldm(4)=   0.000000  celldm(5)=   0.000000  celldm(6)=   0.000000

     crystal axes: (cart. coord. in units of alat)
               a(1) = (   5.651872   0.000000   0.000000 )  
               a(2) = (  -2.825936   5.022690   0.000000 )  
               a(3) = (   0.000000   0.000000  24.672437 )  

     reciprocal axes: (cart. coord. in units 2 pi/alat)
               b(1) = (  0.176933  0.099548 -0.000000 )  
               b(2) = (  0.000000  0.199097  0.000000 )  
               b(3) = (  0.000000 -0.000000  0.040531 )  


     PseudoPot. # 1 for Nb read from file:
     ../pseudo/Nb.pbe-spn-rrkjus_psl.1.0.0.UPF
     MD5 check sum: 6ee677a9f002bd3e3657f443f129faad
     Pseudo is Ultrasoft + core correction, Zval = 13.0
     Generated using "atomic" code by A. Dal Corso v.6.2.2
     Using radial grid of 1227 points,  6 beta functions with: 
                l(1) =   0
                l(2) =   0
                l(3) =   1
                l(4) =   1
                l(5) =   2
                l(6) =   2
     Q(r) pseudized with 0 coefficients 


     PseudoPot. # 2 for Pd read from file:
     ../pseudo/Pd.pbe-n-rrkjus_psl.1.0.0.UPF
     MD5 check sum: d9f693bf1c5b493397a6bd6f2231cfc3
     Pseudo is Ultrasoft + core correction, Zval = 10.0
     Generated using "atomic" code by A. Dal Corso v.6.3
     Using radial grid of 1235 points,  6 beta functions with: 
                l(1) =   0
                l(2) =   0
                l(3) =   1
                l(4) =   1
                l(5) =   2
                l(6) =   2
     Q(r) pseudized with 0 coefficients 


     atomic species   valence    mass     pseudopotential
        Nb            13.00    92.90637     Nb( 1.00)
        Pd            10.00   106.42000     Pd( 1.00)

     No symmetry found



   Cartesian axes

     site n.     atom                  positions (alat units)
         1           Nb  tau(   1) = (   0.0000000   0.0000000  10.0000000  )
         2           Nb  tau(   2) = (   2.8259361   0.0000000  10.0000000  )
         3           Pd  tau(   3) = (   1.4129680   2.5113452  10.0000000  )
         4           Pd  tau(   4) = (  -1.4129680   2.5113452  10.0000000  )
         5           Nb  tau(   5) = (   2.8259361   1.5899675  12.3362187  )
         6           Nb  tau(   6) = (   0.0000000   1.5899675  12.3362187  )
         7           Pd  tau(   7) = (  -1.4129680   4.1013128  12.3362187  )
         8           Pd  tau(   8) = (   1.4129680   4.1013128  12.3362187  )
         9           Nb  tau(   9) = (   0.0000020   3.2318289  14.5385216  )
        10           Nb  tau(  10) = (   2.8259371   3.2318346  14.5385233  )
        11           Pd  tau(  11) = (   4.2389040   0.7710525  14.6599191  )
        12           Pd  tau(  12) = (   1.4129655   0.7710526  14.6599210  )

     number of k points=    74  Fermi-Dirac smearing, width (Ry)=  0.0100
                       cart. coord. in units 2pi/alat
        k(    1) = (   0.0000000   0.0000000   0.0000000), wk =   0.0138889
        k(    2) = (   0.0000000   0.0165914   0.0000000), wk =   0.0277778
        k(    3) = (   0.0000000   0.0331828   0.0000000), wk =   0.0277778
        k(    4) = (   0.0000000   0.0497741   0.0000000), wk =   0.0277778
        k(    5) = (   0.0000000   0.0663655   0.0000000), wk =   0.0277778
        k(    6) = (   0.0000000   0.0829569   0.0000000), wk =   0.0277778
        k(    7) = (   0.0000000  -0.0995483   0.0000000), wk =   0.0138889
        k(    8) = (   0.0147444   0.0082957   0.0000000), wk =   0.0277778
        k(    9) = (   0.0147444   0.0248871   0.0000000), wk =   0.0277778
        k(   10) = (   0.0147444   0.0414784   0.0000000), wk =   0.0277778
        k(   11) = (   0.0147444   0.0580698   0.0000000), wk =   0.0277778
        k(   12) = (   0.0147444   0.0746612   0.0000000), wk =   0.0277778
        k(   13) = (   0.0147444   0.0912526   0.0000000), wk =   0.0277778
        k(   14) = (   0.0147444  -0.0912526   0.0000000), wk =   0.0277778
        k(   15) = (   0.0147444  -0.0746612   0.0000000), wk =   0.0277778
        k(   16) = (   0.0147444  -0.0580698   0.0000000), wk =   0.0277778
        k(   17) = (   0.0147444  -0.0414784   0.0000000), wk =   0.0277778
        k(   18) = (   0.0147444  -0.0248871   0.0000000), wk =   0.0277778
        k(   19) = (   0.0147444  -0.0082957   0.0000000), wk =   0.0277778
        k(   20) = (   0.0294888   0.0165914   0.0000000), wk =   0.0277778
        k(   21) = (   0.0294888   0.0331828   0.0000000), wk =   0.0277778
        k(   22) = (   0.0294888   0.0497741   0.0000000), wk =   0.0277778
        k(   23) = (   0.0294888   0.0663655   0.0000000), wk =   0.0277778
        k(   24) = (   0.0294888   0.0829569   0.0000000), wk =   0.0277778
        k(   25) = (   0.0294888   0.0995483   0.0000000), wk =   0.0277778
        k(   26) = (   0.0294888  -0.0829569   0.0000000), wk =   0.0277778
        k(   27) = (   0.0294888  -0.0663655   0.0000000), wk =   0.0277778
        k(   28) = (   0.0294888  -0.0497741   0.0000000), wk =   0.0277778
        k(   29) = (   0.0294888  -0.0331828   0.0000000), wk =   0.0277778
        k(   30) = (   0.0294888  -0.0165914   0.0000000), wk =   0.0277778
        k(   31) = (   0.0294888  -0.0000000   0.0000000), wk =   0.0277778
        k(   32) = (   0.0442331   0.0248871   0.0000000), wk =   0.0277778
        k(   33) = (   0.0442331   0.0414784   0.0000000), wk =   0.0277778
        k(   34) = (   0.0442331   0.0580698   0.0000000), wk =   0.0277778
        k(   35) = (   0.0442331   0.0746612   0.0000000), wk =   0.0277778
        k(   36) = (   0.0442331   0.0912526   0.0000000), wk =   0.0277778
        k(   37) = (   0.0442331   0.1078439   0.0000000), wk =   0.0277778
        k(   38) = (   0.0442331  -0.0746612   0.0000000), wk =   0.0277778
        k(   39) = (   0.0442331  -0.0580698   0.0000000), wk =   0.0277778
        k(   40) = (   0.0442331  -0.0414784   0.0000000), wk =   0.0277778
        k(   41) = (   0.0442331  -0.0248871   0.0000000), wk =   0.0277778
        k(   42) = (   0.0442331  -0.0082957   0.0000000), wk =   0.0277778
        k(   43) = (   0.0442331   0.0082957   0.0000000), wk =   0.0277778
        k(   44) = (   0.0589775   0.0331828   0.0000000), wk =   0.0277778
        k(   45) = (   0.0589775   0.0497741   0.0000000), wk =   0.0277778
        k(   46) = (   0.0589775   0.0663655   0.0000000), wk =   0.0277778
        k(   47) = (   0.0589775   0.0829569   0.0000000), wk =   0.0277778
        k(   48) = (   0.0589775   0.0995483   0.0000000), wk =   0.0277778
        k(   49) = (   0.0589775   0.1161396   0.0000000), wk =   0.0277778
        k(   50) = (   0.0589775  -0.0663655   0.0000000), wk =   0.0277778
        k(   51) = (   0.0589775  -0.0497741   0.0000000), wk =   0.0277778
        k(   52) = (   0.0589775  -0.0331828   0.0000000), wk =   0.0277778
        k(   53) = (   0.0589775  -0.0165914   0.0000000), wk =   0.0277778
        k(   54) = (   0.0589775   0.0000000   0.0000000), wk =   0.0277778
        k(   55) = (   0.0589775   0.0165914   0.0000000), wk =   0.0277778
        k(   56) = (   0.0737219   0.0414784   0.0000000), wk =   0.0277778
        k(   57) = (   0.0737219   0.0580698   0.0000000), wk =   0.0277778
        k(   58) = (   0.0737219   0.0746612   0.0000000), wk =   0.0277778
        k(   59) = (   0.0737219   0.0912526   0.0000000), wk =   0.0277778
        k(   60) = (   0.0737219   0.1078439   0.0000000), wk =   0.0277778
        k(   61) = (   0.0737219   0.1244353   0.0000000), wk =   0.0277778
        k(   62) = (   0.0737219  -0.0580698   0.0000000), wk =   0.0277778
        k(   63) = (   0.0737219  -0.0414784   0.0000000), wk =   0.0277778
        k(   64) = (   0.0737219  -0.0248871   0.0000000), wk =   0.0277778
        k(   65) = (   0.0737219  -0.0082957   0.0000000), wk =   0.0277778
        k(   66) = (   0.0737219   0.0082957   0.0000000), wk =   0.0277778
        k(   67) = (   0.0737219   0.0248871   0.0000000), wk =   0.0277778
        k(   68) = (  -0.0884663  -0.0497741   0.0000000), wk =   0.0138889
        k(   69) = (  -0.0884663  -0.0331828   0.0000000), wk =   0.0277778
        k(   70) = (  -0.0884663  -0.0165914   0.0000000), wk =   0.0277778
        k(   71) = (  -0.0884663   0.0000000   0.0000000), wk =   0.0277778
        k(   72) = (  -0.0884663   0.0165914   0.0000000), wk =   0.0277778
        k(   73) = (  -0.0884663   0.0331828   0.0000000), wk =   0.0277778
        k(   74) = (  -0.0884663  -0.1493224   0.0000000), wk =   0.0138889

     Dense  grid:  1033025 G-vectors     FFT dimensions: (  80,  81, 360)

     Smooth grid:   261289 G-vectors     FFT dimensions: (  54,  54, 225)

     Estimated max dynamical RAM per process >     195.24 MB

     Estimated total dynamical RAM >       7.05 GB

     Initial potential from superposition of free atoms

     starting charge  137.98872, renormalised to  138.00000

     negative rho (up, down):  1.275E-03 0.000E+00


     %%%%%%%%%%%%%%%%%%%%%%%%%%%%%%%%%%%%%%%%%%%%%%%%%%%%%%%%%%%%%%%%%%%%%%%%
     %                                                                      %
     % You are using vdW-DF, which was implemented by the Thonhauser group. %
     % Please cite the following two papers that made this development      %
     % possible and the two reviews that describe the various versions:     %
     %                                                                      %
     %   T. Thonhauser et al., PRL 115, 136402 (2015).                      %
     %   T. Thonhauser et al., PRB 76, 125112 (2007).                       %
     %   K. Berland et al., Rep. Prog. Phys. 78, 066501 (2015).             %
     %   D.C. Langreth et al., J. Phys.: Condens. Matter 21, 084203 (2009). %
     %                                                                      %
     %                                                                      %
     % If you are calculating the stress with vdW-DF, please also cite:     %
     %                                                                      %
     %   R. Sabatini et al., J. Phys.: Condens. Matter 24, 424209 (2012).   %
     %                                                                      %
     %%%%%%%%%%%%%%%%%%%%%%%%%%%%%%%%%%%%%%%%%%%%%%%%%%%%%%%%%%%%%%%%%%%%%%%%



     Adding external electric field

     Computed dipole along edir(3) : 
        Dipole               -0.0001 Ry au,         -0.0003 Debye
        Dipole field         -0.0000 Ry au, 

        Potential amp.        0.0000 Ry
        Total length         45.4585 bohr

     Starting wfcs are  132 randomized atomic wfcs

     total cpu time spent up to now is       73.8 secs

     Self-consistent Calculation

     iteration #  1     ecut=    55.12 Ry     beta= 0.10
     Davidson diagonalization with overlap
     ethr =  1.00E-02,  avg # of iterations =  1.9

     negative rho (up, down):  1.185E-03 0.000E+00

     Adding external electric field

     Computed dipole along edir(3) : 
        Dipole               -0.2215 Ry au,         -0.5631 Debye
        Dipole field         -0.0006 Ry au, 

        Potential amp.        0.0536 Ry
        Total length         45.4585 bohr


     total cpu time spent up to now is      171.1 secs

     total energy              =   -1122.79576346 Ry
     estimated scf accuracy    <       3.34728089 Ry

     iteration #  2     ecut=    55.12 Ry     beta= 0.10
     Davidson diagonalization with overlap
     ethr =  2.43E-03,  avg # of iterations =  2.0

     negative rho (up, down):  1.186E-03 0.000E+00

     Adding external electric field

     Computed dipole along edir(3) : 
        Dipole                0.5178 Ry au,          1.3162 Debye
        Dipole field          0.0014 Ry au, 

        Potential amp.       -0.1252 Ry
        Total length         45.4585 bohr


     total cpu time spent up to now is      269.0 secs

     total energy              =   -1122.84411179 Ry
     estimated scf accuracy    <       3.19652192 Ry

     iteration #  3     ecut=    55.12 Ry     beta= 0.10
     Davidson diagonalization with overlap
     ethr =  2.32E-03,  avg # of iterations =  1.9

     negative rho (up, down):  1.196E-03 0.000E+00

     Adding external electric field

     Computed dipole along edir(3) : 
        Dipole               -0.0309 Ry au,         -0.0786 Debye
        Dipole field         -0.0001 Ry au, 

        Potential amp.        0.0075 Ry
        Total length         45.4585 bohr


     total cpu time spent up to now is      363.1 secs

     total energy              =   -1122.82358892 Ry
     estimated scf accuracy    <      13.25329865 Ry

     iteration #  4     ecut=    55.12 Ry     beta= 0.10
     Davidson diagonalization with overlap
     ethr =  2.32E-03,  avg # of iterations =  1.0

     negative rho (up, down):  1.188E-03 0.000E+00

     Adding external electric field

     Computed dipole along edir(3) : 
        Dipole               -0.0095 Ry au,         -0.0241 Debye
        Dipole field         -0.0000 Ry au, 

        Potential amp.        0.0023 Ry
        Total length         45.4585 bohr


     total cpu time spent up to now is      449.2 secs

     total energy              =   -1123.01283217 Ry
     estimated scf accuracy    <       0.27514911 Ry

     iteration #  5     ecut=    55.12 Ry     beta= 0.10
     Davidson diagonalization with overlap
     ethr =  1.99E-04,  avg # of iterations =  3.8

     negative rho (up, down):  1.225E-03 0.000E+00

     Adding external electric field

     Computed dipole along edir(3) : 
        Dipole                0.0111 Ry au,          0.0283 Debye
        Dipole field          0.0000 Ry au, 

        Potential amp.       -0.0027 Ry
        Total length         45.4585 bohr


     total cpu time spent up to now is      551.1 secs

     total energy              =   -1122.99668602 Ry
     estimated scf accuracy    <       0.12540292 Ry

     iteration #  6     ecut=    55.12 Ry     beta= 0.10
     Davidson diagonalization with overlap
     c_bands:  1 eigenvalues not converged
     ethr =  9.09E-05,  avg # of iterations =  6.0

     negative rho (up, down):  1.410E-03 0.000E+00

     Adding external electric field

     Computed dipole along edir(3) : 
        Dipole               -0.0248 Ry au,         -0.0631 Debye
        Dipole field         -0.0001 Ry au, 

        Potential amp.        0.0060 Ry
        Total length         45.4585 bohr


     total cpu time spent up to now is      663.4 secs

     total energy              =   -1123.00091402 Ry
     estimated scf accuracy    <       0.03851526 Ry

     iteration #  7     ecut=    55.12 Ry     beta= 0.10
     Davidson diagonalization with overlap
     ethr =  2.79E-05,  avg # of iterations =  7.0

     negative rho (up, down):  1.443E-03 0.000E+00

     Adding external electric field

     Computed dipole along edir(3) : 
        Dipole               -0.0080 Ry au,         -0.0204 Debye
        Dipole field         -0.0000 Ry au, 

        Potential amp.        0.0019 Ry
        Total length         45.4585 bohr


     total cpu time spent up to now is      783.7 secs

     total energy              =   -1123.00573614 Ry
     estimated scf accuracy    <       0.02213329 Ry

     iteration #  8     ecut=    55.12 Ry     beta= 0.10
     Davidson diagonalization with overlap
     c_bands:  1 eigenvalues not converged
     ethr =  1.60E-05,  avg # of iterations =  2.8

     negative rho (up, down):  1.456E-03 0.000E+00

     Adding external electric field

     Computed dipole along edir(3) : 
        Dipole               -0.0029 Ry au,         -0.0073 Debye
        Dipole field         -0.0000 Ry au, 

        Potential amp.        0.0007 Ry
        Total length         45.4585 bohr


     total cpu time spent up to now is      878.3 secs

     total energy              =   -1123.00643817 Ry
     estimated scf accuracy    <       0.00274443 Ry

     iteration #  9     ecut=    55.12 Ry     beta= 0.10
     Davidson diagonalization with overlap
     c_bands:  1 eigenvalues not converged
     c_bands:  1 eigenvalues not converged
     c_bands:  1 eigenvalues not converged
     c_bands:  1 eigenvalues not converged
     ethr =  1.99E-06,  avg # of iterations =  9.2

     negative rho (up, down):  1.529E-03 0.000E+00

     Adding external electric field

     Computed dipole along edir(3) : 
        Dipole                0.0042 Ry au,          0.0107 Debye
        Dipole field          0.0000 Ry au, 

        Potential amp.       -0.0010 Ry
        Total length         45.4585 bohr


     total cpu time spent up to now is     1019.2 secs

     total energy              =   -1123.00690018 Ry
     estimated scf accuracy    <       0.00141744 Ry

     iteration # 10     ecut=    55.12 Ry     beta= 0.10
     Davidson diagonalization with overlap
     c_bands:  1 eigenvalues not converged
     ethr =  1.03E-06,  avg # of iterations =  2.8

     negative rho (up, down):  1.499E-03 0.000E+00

     Adding external electric field

     Computed dipole along edir(3) : 
        Dipole               -0.0006 Ry au,         -0.0016 Debye
        Dipole field         -0.0000 Ry au, 

        Potential amp.        0.0002 Ry
        Total length         45.4585 bohr


     total cpu time spent up to now is     1127.1 secs

     total energy              =   -1123.00707376 Ry
     estimated scf accuracy    <       0.00162550 Ry

     iteration # 11     ecut=    55.12 Ry     beta= 0.10
     Davidson diagonalization with overlap
     ethr =  1.03E-06,  avg # of iterations =  1.1

     negative rho (up, down):  1.459E-03 0.000E+00

     Adding external electric field

     Computed dipole along edir(3) : 
        Dipole               -0.0051 Ry au,         -0.0129 Debye
        Dipole field         -0.0000 Ry au, 

        Potential amp.        0.0012 Ry
        Total length         45.4585 bohr


     total cpu time spent up to now is     1214.5 secs

     total energy              =   -1123.00713002 Ry
     estimated scf accuracy    <       0.00012524 Ry

     iteration # 12     ecut=    55.12 Ry     beta= 0.10
     Davidson diagonalization with overlap
     ethr =  9.08E-08,  avg # of iterations =  4.4

     negative rho (up, down):  1.424E-03 0.000E+00

     Adding external electric field

     Computed dipole along edir(3) : 
        Dipole               -0.0046 Ry au,         -0.0117 Debye
        Dipole field         -0.0000 Ry au, 

        Potential amp.        0.0011 Ry
        Total length         45.4585 bohr


     total cpu time spent up to now is     1321.0 secs

     total energy              =   -1123.00714810 Ry
     estimated scf accuracy    <       0.00017882 Ry

     iteration # 13     ecut=    55.12 Ry     beta= 0.10
     Davidson diagonalization with overlap
     ethr =  9.08E-08,  avg # of iterations =  2.0

     negative rho (up, down):  1.386E-03 0.000E+00

     Adding external electric field

     Computed dipole along edir(3) : 
        Dipole               -0.0027 Ry au,         -0.0067 Debye
        Dipole field         -0.0000 Ry au, 

        Potential amp.        0.0006 Ry
        Total length         45.4585 bohr


     total cpu time spent up to now is     1415.4 secs

     total energy              =   -1123.00715055 Ry
     estimated scf accuracy    <       0.00004108 Ry

     iteration # 14     ecut=    55.12 Ry     beta= 0.10
     Davidson diagonalization with overlap
     c_bands:  1 eigenvalues not converged
     ethr =  2.98E-08,  avg # of iterations =  4.1

     negative rho (up, down):  1.234E-03 0.000E+00

     Adding external electric field

     Computed dipole along edir(3) : 
        Dipole               -0.0014 Ry au,         -0.0035 Debye
        Dipole field         -0.0000 Ry au, 

        Potential amp.        0.0003 Ry
        Total length         45.4585 bohr


     total cpu time spent up to now is     1518.9 secs

     End of self-consistent calculation

          k = 0.0000 0.0000 0.0000 ( 32645 PWs)   bands (ev):

   -54.1223 -54.0581 -54.0091 -53.9439 -53.8877 -53.7727 -30.4542 -30.4103
   -30.3970 -30.3407 -30.2712 -30.2037 -30.1534 -30.1046 -30.0929 -30.0469
   -29.9945 -29.9754 -29.8548 -29.5546 -29.4846 -29.4563 -29.4511 -29.3946
    -4.8620  -3.7066  -3.6651  -3.5870  -3.5563  -3.5557  -3.4768  -3.3204
    -3.2583  -3.1673  -3.1165  -3.1129  -2.9616  -2.8514  -2.7374  -2.1297
    -2.0152  -1.9424  -1.8434  -1.7412  -1.6536  -1.4376  -1.4230  -1.3092
    -1.2610  -1.2565  -0.9253  -0.9026  -0.8532  -0.3705  -0.2191  -0.1989
    -0.0458   0.0585   0.2397   0.3740   0.5057   0.7790   0.8192   1.1929
     1.2198   1.2230   1.2345   1.4616   1.8160   2.0479   2.0544   2.1260
     2.3587   2.4756   2.7215   2.8409   3.2772   3.3070   3.4917   3.6349
     3.6680   3.6684   3.8935

          k = 0.0000 0.0166 0.0000 ( 32643 PWs)   bands (ev):

   -54.1222 -54.0581 -54.0092 -53.9439 -53.8876 -53.7727 -30.4547 -30.4104
   -30.3976 -30.3409 -30.2714 -30.2038 -30.1542 -30.1053 -30.0928 -30.0467
   -29.9947 -29.9752 -29.8554 -29.5547 -29.4847 -29.4564 -29.4511 -29.3946
    -4.8075  -3.6810  -3.6296  -3.5497  -3.5102  -3.5055  -3.4553  -3.3029
    -3.2226  -3.1395  -3.0969  -3.0895  -2.9232  -2.8321  -2.6863  -2.1312
    -2.0052  -1.9349  -1.8650  -1.6876  -1.6481  -1.4630  -1.4113  -1.2960
    -1.2803  -1.2531  -0.9137  -0.8830  -0.8678  -0.3762  -0.2360  -0.2162
    -0.0741   0.0272   0.2240   0.3571   0.4280   0.7151   0.7296   1.1524
     1.1702   1.2186   1.2609   1.3393   1.6315   1.9180   2.1258   2.1760
     2.2728   2.4641   2.5686   2.8726   3.0708   3.0947   3.3896   3.6032
     3.6724   3.7687   3.9321

          k = 0.0000 0.0332 0.0000 ( 32661 PWs)   bands (ev):

   -54.1221 -54.0580 -54.0092 -53.9439 -53.8876 -53.7726 -30.4562 -30.4106
   -30.3990 -30.3413 -30.2720 -30.2042 -30.1561 -30.1070 -30.0927 -30.0462
   -29.9953 -29.9746 -29.8571 -29.5548 -29.4849 -29.4565 -29.4512 -29.3948
    -4.6486  -3.6147  -3.5295  -3.4411  -3.3934  -3.3782  -3.3582  -3.2524
    -3.1275  -3.0492  -3.0492  -3.0103  -2.8135  -2.7743  -2.5377  -2.1380
    -1.9800  -1.9104  -1.8908  -1.6310  -1.5715  -1.5324  -1.3820  -1.3430
    -1.2567  -1.2357  -0.9134  -0.8790  -0.8300  -0.3918  -0.3489  -0.2085
    -0.1787  -0.0425   0.1590   0.2424   0.3120   0.4942   0.5695   0.9880
     1.0407   1.0781   1.1699   1.3354   1.3519   1.5878   1.8122   2.0841
     2.2795   2.4193   2.4650   2.5821   2.6189   2.9090   3.3635   3.4710
     3.6069   3.8890   3.9599

          k = 0.0000 0.0498 0.0000 ( 32680 PWs)   bands (ev):

   -54.1219 -54.0578 -54.0092 -53.9440 -53.8876 -53.7726 -30.4581 -30.4109
   -30.4010 -30.3419 -30.2728 -30.2048 -30.1588 -30.1094 -30.0925 -30.0456
   -29.9961 -29.9739 -29.8595 -29.5551 -29.4852 -29.4568 -29.4513 -29.3950
    -4.4005  -3.5256  -3.3925  -3.2893  -3.2806  -3.1843  -3.1776  -3.1406
    -2.9974  -2.9654  -2.8891  -2.8846  -2.6757  -2.6489  -2.3152  -2.1539
    -1.9463  -1.9084  -1.8696  -1.6310  -1.6019  -1.4362  -1.3994  -1.3469
    -1.2195  -1.1953  -0.9940  -0.8271  -0.7554  -0.5460  -0.4136  -0.3648
    -0.1985  -0.1185  -0.0836   0.1260   0.2107   0.2901   0.2967   0.7725
     0.8045   0.8275   1.0222   1.1017   1.2006   1.2725   1.4385   1.7846
     1.9834   2.0317   2.1234   2.3997   2.8103   2.8632   3.3211   3.3688
     3.4497   3.5060   3.7504

          k = 0.0000 0.0664 0.0000 ( 32692 PWs)   bands (ev):

   -54.1218 -54.0577 -54.0092 -53.9440 -53.8875 -53.7725 -30.4600 -30.4112
   -30.4029 -30.3425 -30.2736 -30.2055 -30.1613 -30.1116 -30.0923 -30.0449
   -29.9969 -29.9733 -29.8619 -29.5553 -29.4855 -29.4570 -29.4513 -29.3953
    -4.0966  -3.4302  -3.2787  -3.1268  -3.1225  -3.1016  -2.9612  -2.9584
    -2.8280  -2.8231  -2.7554  -2.6553  -2.5266  -2.4619  -2.1740  -2.1616
    -1.8981  -1.8490  -1.8257  -1.7026  -1.5649  -1.5021  -1.3163  -1.2262
    -1.2238  -1.1255  -1.0956  -0.8237  -0.7713  -0.6766  -0.5556  -0.4365
    -0.3910  -0.2075  -0.1886  -0.0419  -0.0229   0.0127   0.2404   0.4714
     0.5601   0.6088   0.6842   0.8869   0.8983   1.0342   1.1506   1.4643
     1.4775   1.8160   2.0392   2.3624   2.7074   2.8493   3.1810   3.2089
     3.3678   3.4507   3.6418

          k = 0.0000 0.0830 0.0000 ( 32710 PWs)   bands (ev):

   -54.1218 -54.0578 -54.0091 -53.9440 -53.8875 -53.7724 -30.4613 -30.4115
   -30.4044 -30.3429 -30.2742 -30.2062 -30.1631 -30.1132 -30.0922 -30.0445
   -29.9974 -29.9728 -29.8637 -29.5554 -29.4857 -29.4572 -29.4514 -29.3954
    -3.8097  -3.3458  -3.2056  -3.0899  -2.9643  -2.9583  -2.8636  -2.8058
    -2.6944  -2.6605  -2.6325  -2.3682  -2.3468  -2.3128  -2.2372  -2.1751
    -1.9875  -1.7358  -1.6800  -1.6351  -1.5322  -1.5099  -1.3043  -1.2957
    -1.1512  -1.0852  -1.0690  -1.0265  -0.7289  -0.6782  -0.6603  -0.6151
    -0.4543  -0.3493  -0.3145  -0.2330  -0.1815  -0.1652   0.1090   0.2230
     0.4034   0.4347   0.4534   0.6046   0.7277   0.8494   0.9622   1.1211
     1.2496   1.8086   2.0056   2.3418   2.4121   2.7745   3.0793   3.3440
     3.3453   3.4325   3.5951

          k = 0.0000-0.0995 0.0000 ( 32734 PWs)   bands (ev):

   -54.1217 -54.0577 -54.0092 -53.9441 -53.8875 -53.7724 -30.4618 -30.4116
   -30.4049 -30.3431 -30.2744 -30.2064 -30.1637 -30.1138 -30.0921 -30.0443
   -29.9976 -29.9727 -29.8644 -29.5555 -29.4858 -29.4573 -29.4514 -29.3955
    -3.6806  -3.3007  -3.1787  -3.1014  -2.8806  -2.8726  -2.8601  -2.7462
    -2.6595  -2.6346  -2.5042  -2.3559  -2.2655  -2.2437  -2.1566  -2.1059
    -2.0827  -1.8838  -1.6214  -1.5188  -1.4953  -1.4123  -1.3072  -1.2884
    -1.2573  -1.1481  -1.0471  -0.9244  -0.7922  -0.7133  -0.6814  -0.5913
    -0.4905  -0.4613  -0.4222  -0.3158  -0.2933  -0.1789  -0.0428   0.2266
     0.3150   0.3763   0.3817   0.5339   0.6789   0.7139   0.9178   0.9925
     1.1879   1.8299   1.9975   2.2776   2.3356   2.7583   3.0419   3.3273
     3.4072   3.4287   3.5875

          k = 0.0147 0.0083 0.0000 ( 32649 PWs)   bands (ev):

   -54.1203 -54.0562 -54.0112 -53.9459 -53.8856 -53.7747 -30.4387 -30.3951
   -30.3950 -30.3256 -30.2736 -30.2019 -30.1518 -30.1030 -30.0948 -30.0488
   -29.9966 -29.9735 -29.8570 -29.5531 -29.5022 -29.4686 -29.4580 -29.4117
    -4.8051  -3.6606  -3.6358  -3.5466  -3.5203  -3.5039  -3.4508  -3.2892
    -3.2391  -3.1446  -3.0903  -3.0857  -2.9268  -2.8086  -2.7032  -2.1189
    -2.0114  -1.9313  -1.8463  -1.7264  -1.6315  -1.4742  -1.4324  -1.3450
    -1.2617  -1.2458  -0.9464  -0.9254  -0.8730  -0.4225  -0.2455  -0.1640
    -0.0088   0.1018   0.1854   0.3761   0.4934   0.7490   0.8152   0.9028
     1.1719   1.2520   1.3522   1.4458   1.4831   2.0430   2.1635   2.2238
     2.2632   2.4561   2.6928   2.7812   2.9709   3.2108   3.3737   3.6374
     3.6460   3.8424   3.9621

          k = 0.0147 0.0249 0.0000 ( 32642 PWs)   bands (ev):

   -54.1202 -54.0561 -54.0111 -53.9459 -53.8856 -53.7747 -30.4397 -30.3961
   -30.3951 -30.3258 -30.2740 -30.2021 -30.1532 -30.1042 -30.0947 -30.0485
   -29.9970 -29.9731 -29.8582 -29.5532 -29.5024 -29.4686 -29.4582 -29.4118
    -4.6982  -3.6126  -3.5708  -3.4747  -3.4344  -3.4044  -3.4035  -3.2549
    -3.1741  -3.0897  -3.0546  -3.0319  -2.8555  -2.7710  -2.6006  -2.1233
    -1.9937  -1.9192  -1.8751  -1.6459  -1.6096  -1.5185  -1.4164  -1.3166
    -1.3077  -1.2360  -0.9248  -0.9018  -0.8925  -0.4342  -0.2446  -0.2317
    -0.0768   0.0439   0.1559   0.3427   0.3535   0.6225   0.6390   0.8515
     1.1262   1.1996   1.2563   1.3430   1.3572   1.7536   1.9734   2.2284
     2.3865   2.3882   2.4933   2.6274   2.8122   2.8166   3.2650   3.6285
     3.6457   3.8260   3.9109

          k = 0.0147 0.0415 0.0000 ( 32664 PWs)   bands (ev):

   -54.1201 -54.0560 -54.0111 -53.9459 -53.8856 -53.7746 -30.4414 -30.3978
   -30.3954 -30.3264 -30.2746 -30.2026 -30.1555 -30.1063 -30.0945 -30.0479
   -29.9977 -29.9724 -29.8603 -29.5534 -29.5026 -29.4686 -29.4583 -29.4120
    -4.4935  -3.5329  -3.4486  -3.3385  -3.3381  -3.2535  -3.2227  -3.1873
    -3.0641  -2.9919  -2.9743  -2.9177  -2.7196  -2.6960  -2.4114  -2.1349
    -1.9666  -1.8967  -1.8914  -1.6047  -1.5998  -1.4930  -1.3898  -1.3807
    -1.2703  -1.2196  -0.9628  -0.8840  -0.8397  -0.4583  -0.3865  -0.2438
    -0.2166  -0.0341   0.0596   0.1194   0.3083   0.3844   0.4171   0.7578
     0.9109   0.9445   1.1185   1.1930   1.3515   1.3942   1.6139   1.8876
     2.1558   2.1725   2.3292   2.4347   2.6820   2.7829   3.2852   3.4391
     3.5420   3.5553   3.8034

          k = 0.0147 0.0581 0.0000 ( 32679 PWs)   bands (ev):

   -54.1199 -54.0559 -54.0111 -53.9460 -53.8856 -53.7745 -30.4434 -30.3998
   -30.3957 -30.3269 -30.2754 -30.2032 -30.1582 -30.1086 -30.0943 -30.0472
   -29.9984 -29.9716 -29.8627 -29.5536 -29.5028 -29.4687 -29.4586 -29.4122
    -4.2132  -3.4385  -3.3132  -3.2080  -3.1694  -3.1199  -3.0429  -3.0018
    -2.9232  -2.8820  -2.8120  -2.7510  -2.5807  -2.5390  -2.2152  -2.1355
    -1.9291  -1.8897  -1.8591  -1.6921  -1.5695  -1.4689  -1.3687  -1.3147
    -1.2354  -1.1898  -1.0553  -0.8361  -0.7913  -0.6421  -0.4879  -0.3900
    -0.2376  -0.2372  -0.1080  -0.0234   0.1083   0.1364   0.3199   0.5888
     0.6314   0.7142   0.8441   0.9819   1.1140   1.1449   1.3129   1.4406
     1.7615   1.8755   2.1552   2.3767   2.7221   2.8639   3.0769   3.3204
     3.3760   3.4798   3.6775

          k = 0.0147 0.0747 0.0000 ( 32713 PWs)   bands (ev):

   -54.1199 -54.0559 -54.0111 -53.9459 -53.8856 -53.7744 -30.4450 -30.4015
   -30.3960 -30.3274 -30.2761 -30.2040 -30.1604 -30.1105 -30.0941 -30.0466
   -29.9990 -29.9710 -29.8649 -29.5537 -29.5030 -29.4688 -29.4588 -29.4125
    -3.9052  -3.3470  -3.2190  -3.0703  -3.0277  -3.0096  -2.8668  -2.8636
    -2.7472  -2.7193  -2.6676  -2.5145  -2.4263  -2.3557  -2.2211  -2.1239
    -1.9332  -1.8170  -1.6972  -1.6968  -1.5664  -1.5297  -1.3626  -1.2647
    -1.1528  -1.1464  -1.1140  -0.9460  -0.7970  -0.7493  -0.5517  -0.5377
    -0.4934  -0.2837  -0.2483  -0.1954  -0.0856  -0.0645   0.2533   0.3098
     0.3827   0.5515   0.6051   0.7631   0.7835   0.9470   1.0242   1.1700
     1.4204   1.8178   2.0794   2.3510   2.5523   2.7751   2.9517   3.3301
     3.4202   3.4374   3.5920

          k = 0.0147 0.0913 0.0000 ( 32746 PWs)   bands (ev):

   -54.1200 -54.0559 -54.0111 -53.9460 -53.8857 -53.7744 -30.4459 -30.4025
   -30.3961 -30.3277 -30.2765 -30.2044 -30.1616 -30.1116 -30.0940 -30.0463
   -29.9993 -29.9707 -29.8661 -29.5539 -29.5032 -29.4688 -29.4589 -29.4126
    -3.6741  -3.2769  -3.1670  -3.0736  -2.8850  -2.8834  -2.8157  -2.7641
    -2.6339  -2.6335  -2.5415  -2.3363  -2.2885  -2.2731  -2.1807  -2.1359
    -2.0571  -1.7988  -1.6598  -1.5755  -1.5103  -1.3936  -1.3855  -1.3340
    -1.1924  -1.1609  -1.1148  -0.9643  -0.7961  -0.7517  -0.7435  -0.5907
    -0.5236  -0.4757  -0.3908  -0.2532  -0.2393  -0.1448  -0.0098   0.1909
     0.3299   0.4453   0.4920   0.6297   0.6640   0.7573   0.8191   1.0865
     1.2435   1.8388   2.0531   2.3397   2.3461   2.7595   2.8903   3.3142
     3.4224   3.5018   3.5619

          k = 0.0147-0.0913 0.0000 ( 32746 PWs)   bands (ev):

   -54.1200 -54.0559 -54.0111 -53.9460 -53.8857 -53.7744 -30.4459 -30.4025
   -30.3961 -30.3277 -30.2765 -30.2044 -30.1616 -30.1116 -30.0940 -30.0463
   -29.9993 -29.9707 -29.8661 -29.5539 -29.5032 -29.4688 -29.4589 -29.4126
    -3.6741  -3.2769  -3.1670  -3.0736  -2.8850  -2.8834  -2.8157  -2.7641
    -2.6339  -2.6335  -2.5415  -2.3363  -2.2885  -2.2731  -2.1807  -2.1359
    -2.0571  -1.7988  -1.6598  -1.5755  -1.5103  -1.3936  -1.3855  -1.3340
    -1.1924  -1.1609  -1.1148  -0.9643  -0.7961  -0.7517  -0.7435  -0.5907
    -0.5236  -0.4757  -0.3908  -0.2532  -0.2393  -0.1448  -0.0098   0.1909
     0.3299   0.4453   0.4920   0.6297   0.6640   0.7573   0.8191   1.0865
     1.2435   1.8388   2.0531   2.3397   2.3461   2.7595   2.8903   3.3142
     3.4224   3.5017   3.5619

          k = 0.0147-0.0747 0.0000 ( 32713 PWs)   bands (ev):

   -54.1199 -54.0559 -54.0111 -53.9459 -53.8856 -53.7744 -30.4450 -30.4015
   -30.3960 -30.3274 -30.2761 -30.2040 -30.1604 -30.1105 -30.0941 -30.0466
   -29.9990 -29.9710 -29.8649 -29.5537 -29.5030 -29.4688 -29.4588 -29.4125
    -3.9052  -3.3470  -3.2190  -3.0703  -3.0277  -3.0096  -2.8668  -2.8636
    -2.7472  -2.7193  -2.6676  -2.5145  -2.4263  -2.3557  -2.2211  -2.1239
    -1.9332  -1.8170  -1.6972  -1.6968  -1.5664  -1.5297  -1.3626  -1.2647
    -1.1528  -1.1464  -1.1140  -0.9460  -0.7970  -0.7493  -0.5517  -0.5377
    -0.4934  -0.2837  -0.2483  -0.1954  -0.0856  -0.0645   0.2533   0.3098
     0.3827   0.5515   0.6051   0.7631   0.7835   0.9470   1.0242   1.1700
     1.4204   1.8178   2.0794   2.3510   2.5523   2.7751   2.9516   3.3302
     3.4202   3.4375   3.5917

          k = 0.0147-0.0581 0.0000 ( 32679 PWs)   bands (ev):

   -54.1199 -54.0559 -54.0111 -53.9460 -53.8856 -53.7745 -30.4434 -30.3998
   -30.3957 -30.3269 -30.2754 -30.2032 -30.1582 -30.1086 -30.0943 -30.0472
   -29.9984 -29.9716 -29.8627 -29.5536 -29.5028 -29.4687 -29.4586 -29.4122
    -4.2132  -3.4385  -3.3132  -3.2080  -3.1694  -3.1199  -3.0429  -3.0018
    -2.9232  -2.8820  -2.8120  -2.7510  -2.5807  -2.5390  -2.2152  -2.1355
    -1.9291  -1.8897  -1.8591  -1.6921  -1.5695  -1.4689  -1.3687  -1.3147
    -1.2354  -1.1898  -1.0553  -0.8361  -0.7913  -0.6421  -0.4879  -0.3900
    -0.2376  -0.2372  -0.1080  -0.0234   0.1083   0.1364   0.3199   0.5888
     0.6314   0.7142   0.8441   0.9819   1.1140   1.1449   1.3129   1.4406
     1.7615   1.8755   2.1552   2.3767   2.7221   2.8639   3.0769   3.3204
     3.3760   3.4798   3.6775

          k = 0.0147-0.0415 0.0000 ( 32664 PWs)   bands (ev):

   -54.1201 -54.0560 -54.0111 -53.9459 -53.8856 -53.7746 -30.4414 -30.3978
   -30.3954 -30.3264 -30.2746 -30.2026 -30.1555 -30.1063 -30.0945 -30.0479
   -29.9977 -29.9724 -29.8603 -29.5534 -29.5026 -29.4686 -29.4583 -29.4120
    -4.4935  -3.5329  -3.4486  -3.3385  -3.3381  -3.2535  -3.2227  -3.1873
    -3.0641  -2.9919  -2.9743  -2.9177  -2.7196  -2.6960  -2.4114  -2.1349
    -1.9666  -1.8967  -1.8914  -1.6047  -1.5998  -1.4930  -1.3898  -1.3807
    -1.2703  -1.2196  -0.9628  -0.8840  -0.8397  -0.4583  -0.3865  -0.2438
    -0.2166  -0.0341   0.0596   0.1194   0.3083   0.3844   0.4171   0.7578
     0.9109   0.9445   1.1185   1.1930   1.3515   1.3942   1.6139   1.8876
     2.1558   2.1725   2.3292   2.4347   2.6820   2.7829   3.2852   3.4392
     3.5420   3.5553   3.8034

          k = 0.0147-0.0249 0.0000 ( 32642 PWs)   bands (ev):

   -54.1202 -54.0561 -54.0111 -53.9459 -53.8856 -53.7747 -30.4397 -30.3961
   -30.3951 -30.3258 -30.2740 -30.2021 -30.1532 -30.1042 -30.0947 -30.0485
   -29.9970 -29.9731 -29.8582 -29.5532 -29.5024 -29.4686 -29.4582 -29.4118
    -4.6982  -3.6126  -3.5708  -3.4747  -3.4344  -3.4044  -3.4035  -3.2549
    -3.1741  -3.0897  -3.0546  -3.0319  -2.8555  -2.7710  -2.6006  -2.1233
    -1.9937  -1.9192  -1.8751  -1.6459  -1.6096  -1.5185  -1.4164  -1.3166
    -1.3077  -1.2360  -0.9248  -0.9018  -0.8925  -0.4342  -0.2446  -0.2317
    -0.0768   0.0439   0.1559   0.3427   0.3535   0.6225   0.6390   0.8515
     1.1262   1.1996   1.2563   1.3430   1.3572   1.7536   1.9734   2.2284
     2.3865   2.3882   2.4933   2.6274   2.8122   2.8166   3.2650   3.6285
     3.6457   3.8261   3.9111

          k = 0.0147-0.0083 0.0000 ( 32649 PWs)   bands (ev):

   -54.1203 -54.0562 -54.0112 -53.9459 -53.8856 -53.7747 -30.4387 -30.3951
   -30.3950 -30.3256 -30.2736 -30.2019 -30.1518 -30.1030 -30.0948 -30.0488
   -29.9966 -29.9735 -29.8570 -29.5531 -29.5022 -29.4686 -29.4580 -29.4117
    -4.8051  -3.6606  -3.6358  -3.5466  -3.5203  -3.5039  -3.4508  -3.2892
    -3.2391  -3.1446  -3.0903  -3.0857  -2.9268  -2.8086  -2.7032  -2.1189
    -2.0114  -1.9313  -1.8463  -1.7264  -1.6315  -1.4742  -1.4324  -1.3450
    -1.2617  -1.2458  -0.9464  -0.9254  -0.8730  -0.4225  -0.2455  -0.1640
    -0.0088   0.1018   0.1854   0.3761   0.4934   0.7490   0.8152   0.9028
     1.1719   1.2520   1.3522   1.4458   1.4831   2.0430   2.1635   2.2238
     2.2632   2.4561   2.6928   2.7812   2.9709   3.2109   3.3737   3.6373
     3.6462   3.8432   3.9597

          k = 0.0295 0.0166 0.0000 ( 32648 PWs)   bands (ev):

   -54.1147 -54.0505 -54.0169 -53.9517 -53.8799 -53.7805 -30.3931 -30.3894
   -30.3499 -30.2815 -30.2797 -30.1964 -30.1469 -30.1004 -30.0981 -30.0546
   -30.0027 -29.9678 -29.8634 -29.5542 -29.5480 -29.5192 -29.4631 -29.4617
    -4.6389  -3.5566  -3.5277  -3.4365  -3.4177  -3.3720  -3.3494  -3.2010
    -3.1871  -3.0792  -3.0088  -3.0020  -2.8312  -2.6856  -2.5991  -2.0918
    -2.0079  -1.9021  -1.8461  -1.6886  -1.5950  -1.5669  -1.4460  -1.4034
    -1.2779  -1.2427  -1.0126  -0.9877  -0.9308  -0.5529  -0.3214  -0.0647
    -0.0112   0.0802   0.2179   0.4042   0.4138   0.5001   0.7266   0.8105
     0.9399   1.0723   1.2864   1.3773   1.4215   1.9208   1.9645   2.2622
     2.2726   2.4049   2.5369   2.6651   2.6970   2.9032   3.0771   3.5494
     3.5626   3.6684   3.8073

          k = 0.0295 0.0332 0.0000 ( 32657 PWs)   bands (ev):

   -54.1146 -54.0504 -54.0169 -53.9517 -53.8799 -53.7805 -30.3944 -30.3907
   -30.3501 -30.2819 -30.2802 -30.1968 -30.1488 -30.1003 -30.0998 -30.0540
   -30.0032 -29.9672 -29.8650 -29.5543 -29.5482 -29.5192 -29.4632 -29.4618
    -4.4857  -3.4737  -3.4624  -3.3411  -3.3374  -3.2629  -3.2113  -3.1500
    -3.1070  -3.0004  -2.9585  -2.9133  -2.7398  -2.6343  -2.4492  -2.1022
    -1.9887  -1.8988  -1.8707  -1.6401  -1.6022  -1.5225  -1.4418  -1.3684
    -1.3418  -1.2350  -0.9879  -0.9713  -0.9561  -0.5660  -0.3272  -0.1756
    -0.0694  -0.0390   0.1290   0.2095   0.3422   0.4092   0.6210   0.6462
     0.7838   1.0159   1.1458   1.2567   1.3799   1.6577   1.7481   2.0287
     2.1092   2.2644   2.4187   2.4803   2.6095   2.6545   3.0971   3.3208
     3.4820   3.5820   3.7937

          k = 0.0295 0.0498 0.0000 ( 32653 PWs)   bands (ev):

   -54.1145 -54.0504 -54.0168 -53.9516 -53.8800 -53.7803 -30.3962 -30.3925
   -30.3503 -30.2823 -30.2808 -30.1973 -30.1513 -30.1019 -30.1000 -30.0532
   -30.0037 -29.9663 -29.8673 -29.5544 -29.5484 -29.5192 -29.4634 -29.4620
    -4.2451  -3.3733  -3.3367  -3.2523  -3.1888  -3.0901  -3.0809  -2.9949
    -2.9945  -2.8822  -2.8625  -2.7726  -2.5873  -2.5523  -2.2605  -2.1031
    -1.9671  -1.8865  -1.8821  -1.7095  -1.5517  -1.4522  -1.4445  -1.3693
    -1.3283  -1.2246  -1.0408  -0.9577  -0.9263  -0.5865  -0.4282  -0.3319
    -0.2107  -0.1750  -0.0621   0.0474   0.1232   0.3374   0.4825   0.5084
     0.5996   0.8565   0.9391   1.0686   1.2790   1.3577   1.4663   1.4703
     1.8986   1.9483   2.2992   2.4406   2.5830   2.7115   3.0163   3.1749
     3.4332   3.4989   3.7037

          k = 0.0295 0.0664 0.0000 ( 32698 PWs)   bands (ev):

   -54.1144 -54.0503 -54.0168 -53.9517 -53.8800 -53.7803 -30.3980 -30.3943
   -30.3506 -30.2828 -30.2815 -30.1980 -30.1537 -30.1039 -30.0998 -30.0525
   -30.0043 -29.9656 -29.8696 -29.5545 -29.5486 -29.5193 -29.4636 -29.4622
    -3.9470  -3.2783  -3.2093  -3.1018  -3.0370  -3.0140  -2.9052  -2.8473
    -2.8239  -2.7267  -2.6879  -2.6024  -2.4508  -2.3961  -2.2195  -2.0392
    -1.9369  -1.8865  -1.8039  -1.7538  -1.5336  -1.5090  -1.4694  -1.3087
    -1.2160  -1.2145  -1.1236  -0.9533  -0.9191  -0.7297  -0.6076  -0.4658
    -0.3575  -0.3403  -0.3110  -0.0559  -0.0083   0.1158   0.2840   0.3962
     0.4837   0.6782   0.7723   0.7990   0.9118   1.0385   1.2247   1.2691
     1.6048   1.8535   2.2270   2.3731   2.5580   2.7385   2.8033   3.2302
     3.3973   3.4983   3.5954

          k = 0.0295 0.0830 0.0000 ( 32741 PWs)   bands (ev):

   -54.1144 -54.0503 -54.0169 -53.9518 -53.8800 -53.7803 -30.3992 -30.3956
   -30.3508 -30.2832 -30.2820 -30.1986 -30.1555 -30.1054 -30.0997 -30.0519
   -30.0046 -29.9651 -29.8713 -29.5545 -29.5487 -29.5193 -29.4638 -29.4624
    -3.6569  -3.1994  -3.1331  -3.0043  -2.9145  -2.8856  -2.8003  -2.7325
    -2.6757  -2.5702  -2.5602  -2.4021  -2.3656  -2.2680  -2.2096  -2.0600
    -2.0281  -1.7703  -1.7161  -1.7141  -1.5417  -1.4788  -1.4628  -1.3387
    -1.2159  -1.1848  -1.0556  -1.0534  -0.9545  -0.9226  -0.6873  -0.6400
    -0.5962  -0.4225  -0.3489  -0.1871  -0.1734   0.0197   0.0404   0.1753
     0.4390   0.5047   0.6163   0.6590   0.7062   0.8822   1.0379   1.1890
     1.3649   1.8757   2.1800   2.3536   2.4783   2.6297   2.7787   3.2480
     3.3713   3.5236   3.5501

          k = 0.0295 0.0995 0.0000 ( 32738 PWs)   bands (ev):

   -54.1144 -54.0502 -54.0168 -53.9517 -53.8800 -53.7802 -30.3997 -30.3961
   -30.3509 -30.2833 -30.2822 -30.1988 -30.1561 -30.1059 -30.0996 -30.0517
   -30.0048 -29.9649 -29.8719 -29.5546 -29.5488 -29.5193 -29.4638 -29.4624
    -3.5186  -3.1610  -3.1050  -3.0214  -2.8123  -2.8118  -2.7691  -2.7038
    -2.6102  -2.5176  -2.5121  -2.3540  -2.3125  -2.2632  -2.1126  -2.0837
    -2.0686  -1.8472  -1.7470  -1.5752  -1.4728  -1.4506  -1.3882  -1.3276
    -1.2852  -1.1943  -1.1912  -0.9922  -0.9905  -0.9594  -0.7617  -0.7131
    -0.6661  -0.3990  -0.3562  -0.3204  -0.1786  -0.1741   0.0444   0.0723
     0.3422   0.5117   0.5539   0.6195   0.6670   0.8369   0.9687   1.1444
     1.2933   1.8911   2.1651   2.3497   2.4218   2.6205   2.7551   3.2470
     3.3622   3.5019   3.5496

          k = 0.0295-0.0830 0.0000 ( 32741 PWs)   bands (ev):

   -54.1144 -54.0503 -54.0169 -53.9518 -53.8800 -53.7803 -30.3992 -30.3956
   -30.3508 -30.2832 -30.2820 -30.1986 -30.1555 -30.1054 -30.0997 -30.0519
   -30.0046 -29.9651 -29.8713 -29.5545 -29.5487 -29.5193 -29.4638 -29.4624
    -3.6569  -3.1994  -3.1331  -3.0043  -2.9145  -2.8856  -2.8003  -2.7325
    -2.6757  -2.5702  -2.5602  -2.4021  -2.3656  -2.2680  -2.2096  -2.0600
    -2.0281  -1.7703  -1.7161  -1.7141  -1.5417  -1.4788  -1.4628  -1.3387
    -1.2159  -1.1848  -1.0556  -1.0534  -0.9545  -0.9226  -0.6873  -0.6400
    -0.5962  -0.4225  -0.3489  -0.1871  -0.1734   0.0197   0.0404   0.1753
     0.4390   0.5047   0.6163   0.6590   0.7062   0.8822   1.0379   1.1890
     1.3649   1.8757   2.1800   2.3537   2.4783   2.6297   2.7787   3.2480
     3.3713   3.5237   3.5502

          k = 0.0295-0.0664 0.0000 ( 32698 PWs)   bands (ev):

   -54.1144 -54.0503 -54.0168 -53.9517 -53.8800 -53.7803 -30.3980 -30.3943
   -30.3506 -30.2828 -30.2815 -30.1980 -30.1537 -30.1039 -30.0998 -30.0525
   -30.0043 -29.9656 -29.8696 -29.5545 -29.5486 -29.5193 -29.4636 -29.4622
    -3.9470  -3.2783  -3.2093  -3.1018  -3.0370  -3.0140  -2.9052  -2.8473
    -2.8239  -2.7267  -2.6879  -2.6024  -2.4508  -2.3961  -2.2195  -2.0392
    -1.9369  -1.8865  -1.8039  -1.7538  -1.5336  -1.5090  -1.4694  -1.3087
    -1.2160  -1.2145  -1.1236  -0.9533  -0.9191  -0.7297  -0.6076  -0.4658
    -0.3575  -0.3403  -0.3110  -0.0559  -0.0083   0.1158   0.2840   0.3962
     0.4837   0.6782   0.7723   0.7990   0.9118   1.0385   1.2247   1.2691
     1.6048   1.8535   2.2270   2.3731   2.5580   2.7385   2.8033   3.2302
     3.3972   3.4983   3.5954

          k = 0.0295-0.0498 0.0000 ( 32653 PWs)   bands (ev):

   -54.1145 -54.0504 -54.0168 -53.9516 -53.8800 -53.7803 -30.3962 -30.3925
   -30.3503 -30.2823 -30.2808 -30.1973 -30.1513 -30.1019 -30.1000 -30.0532
   -30.0037 -29.9663 -29.8673 -29.5544 -29.5484 -29.5192 -29.4634 -29.4620
    -4.2451  -3.3733  -3.3367  -3.2523  -3.1888  -3.0901  -3.0809  -2.9949
    -2.9945  -2.8822  -2.8625  -2.7726  -2.5873  -2.5523  -2.2605  -2.1031
    -1.9671  -1.8865  -1.8821  -1.7095  -1.5517  -1.4522  -1.4445  -1.3693
    -1.3283  -1.2246  -1.0408  -0.9577  -0.9263  -0.5865  -0.4282  -0.3319
    -0.2107  -0.1750  -0.0621   0.0474   0.1232   0.3374   0.4825   0.5084
     0.5996   0.8565   0.9391   1.0686   1.2790   1.3577   1.4663   1.4703
     1.8986   1.9483   2.2992   2.4406   2.5830   2.7115   3.0163   3.1749
     3.4332   3.4990   3.7037

          k = 0.0295-0.0332 0.0000 ( 32657 PWs)   bands (ev):

   -54.1146 -54.0504 -54.0169 -53.9517 -53.8799 -53.7805 -30.3944 -30.3907
   -30.3501 -30.2819 -30.2802 -30.1968 -30.1488 -30.1003 -30.0998 -30.0540
   -30.0032 -29.9672 -29.8650 -29.5543 -29.5482 -29.5192 -29.4632 -29.4618
    -4.4857  -3.4737  -3.4624  -3.3411  -3.3374  -3.2629  -3.2113  -3.1500
    -3.1070  -3.0004  -2.9585  -2.9133  -2.7398  -2.6343  -2.4492  -2.1022
    -1.9887  -1.8988  -1.8707  -1.6401  -1.6022  -1.5225  -1.4418  -1.3684
    -1.3418  -1.2350  -0.9879  -0.9713  -0.9561  -0.5660  -0.3272  -0.1756
    -0.0694  -0.0390   0.1290   0.2095   0.3422   0.4092   0.6210   0.6462
     0.7838   1.0159   1.1458   1.2567   1.3799   1.6577   1.7481   2.0287
     2.1092   2.2644   2.4187   2.4803   2.6095   2.6545   3.0971   3.3208
     3.4820   3.5820   3.7937

          k = 0.0295-0.0166 0.0000 ( 32648 PWs)   bands (ev):

   -54.1147 -54.0505 -54.0169 -53.9517 -53.8799 -53.7805 -30.3931 -30.3894
   -30.3499 -30.2815 -30.2797 -30.1964 -30.1469 -30.1004 -30.0981 -30.0546
   -30.0027 -29.9678 -29.8634 -29.5542 -29.5480 -29.5192 -29.4631 -29.4617
    -4.6389  -3.5566  -3.5277  -3.4365  -3.4177  -3.3720  -3.3494  -3.2010
    -3.1871  -3.0792  -3.0088  -3.0020  -2.8312  -2.6856  -2.5991  -2.0918
    -2.0079  -1.9021  -1.8461  -1.6886  -1.5950  -1.5669  -1.4460  -1.4034
    -1.2779  -1.2427  -1.0126  -0.9877  -0.9308  -0.5529  -0.3214  -0.0647
    -0.0112   0.0802   0.2179   0.4042   0.4138   0.5001   0.7266   0.8105
     0.9399   1.0723   1.2864   1.3773   1.4215   1.9208   1.9645   2.2622
     2.2726   2.4049   2.5369   2.6651   2.6970   2.9032   3.0771   3.5494
     3.5626   3.6684   3.8073

          k = 0.0295-0.0000 0.0000 ( 32643 PWs)   bands (ev):

   -54.1147 -54.0505 -54.0169 -53.9516 -53.8799 -53.7805 -30.3926 -30.3889
   -30.3498 -30.2814 -30.2795 -30.1963 -30.1462 -30.1005 -30.0975 -30.0548
   -30.0025 -29.9681 -29.8628 -29.5541 -29.5480 -29.5192 -29.4630 -29.4616
    -4.6913  -3.5813  -3.5527  -3.4695  -3.4627  -3.3988  -3.3947  -3.2177
    -3.2170  -3.1046  -3.0421  -3.0166  -2.8601  -2.7031  -2.6545  -2.0882
    -2.0158  -1.9020  -1.8215  -1.7421  -1.5822  -1.5755  -1.4387  -1.4243
    -1.2534  -1.2455  -1.0207  -1.0016  -0.9179  -0.5485  -0.3197  -0.0381
     0.0053   0.1304   0.2550   0.3974   0.5050   0.5295   0.7756   0.9078
     0.9962   1.0728   1.2570   1.4224   1.5371   1.9247   2.1105   2.1811
     2.3075   2.5530   2.5637   2.7111   2.7748   3.1094   3.2249   3.5778
     3.5879   3.7388   3.7840

          k = 0.0442 0.0249 0.0000 ( 32660 PWs)   bands (ev):

   -54.1058 -54.0415 -54.0259 -53.9608 -53.8709 -53.7897 -30.3802 -30.3199
   -30.2927 -30.2758 -30.2093 -30.1878 -30.1391 -30.1093 -30.0903 -30.0637
   -30.0123 -29.9587 -29.8735 -29.6347 -29.6001 -29.5427 -29.5381 -29.4711
    -4.3772  -3.4459  -3.3266  -3.2902  -3.2811  -3.2217  -3.1206  -3.1088
    -3.0626  -2.9775  -2.8766  -2.8582  -2.6960  -2.4999  -2.4286  -2.0621
    -2.0235  -1.8772  -1.8254  -1.7510  -1.6394  -1.5270  -1.4650  -1.4108
    -1.3043  -1.2685  -1.1170  -1.0755  -1.0219  -0.7190  -0.4401  -0.4060
     0.0549   0.0798   0.1606   0.3071   0.3671   0.4078   0.5678   0.6395
     0.8558   0.9043   1.2240   1.3337   1.4466   1.6799   1.8429   1.9710
     2.1373   2.2494   2.2898   2.5058   2.5412   2.7442   2.8913   3.1042
     3.2632   3.6020   3.6657

          k = 0.0442 0.0415 0.0000 ( 32658 PWs)   bands (ev):

   -54.1057 -54.0414 -54.0259 -53.9608 -53.8709 -53.7896 -30.3816 -30.3214
   -30.2928 -30.2762 -30.2097 -30.1882 -30.1412 -30.1091 -30.0920 -30.0628
   -30.0126 -29.9578 -29.8754 -29.6346 -29.6001 -29.5429 -29.5383 -29.4712
    -4.1892  -3.3553  -3.2491  -3.2324  -3.1725  -3.0887  -3.0315  -3.0101
    -2.9365  -2.8709  -2.8057  -2.7605  -2.5943  -2.4446  -2.2661  -2.0637
    -2.0093  -1.9098  -1.8398  -1.7928  -1.5539  -1.5116  -1.4308  -1.3941
    -1.3565  -1.2660  -1.0996  -1.0668  -1.0542  -0.7250  -0.5191  -0.4605
    -0.1515  -0.0725   0.0599   0.1444   0.2313   0.2559   0.5378   0.5499
     0.7259   0.7934   1.0893   1.1635   1.3715   1.5372   1.5830   1.6341
     1.8353   2.0813   2.2888   2.3842   2.5430   2.6056   2.8773   2.9634
     3.2233   3.5603   3.6387

          k = 0.0442 0.0581 0.0000 ( 32657 PWs)   bands (ev):

   -54.1056 -54.0413 -54.0258 -53.9608 -53.8709 -53.7895 -30.3833 -30.3231
   -30.2931 -30.2767 -30.2102 -30.1888 -30.1436 -30.1089 -30.0940 -30.0618
   -30.0129 -29.9569 -29.8776 -29.6346 -29.6000 -29.5430 -29.5384 -29.4714
    -3.9279  -3.2084  -3.1525  -3.1498  -3.0400  -2.9606  -2.9538  -2.8804
    -2.7379  -2.7206  -2.7091  -2.6236  -2.4322  -2.3768  -2.1978  -2.0023
    -1.9731  -1.9387  -1.8338  -1.8337  -1.5408  -1.5174  -1.4740  -1.3736
    -1.2689  -1.2588  -1.1270  -1.1102  -1.0510  -0.7400  -0.7015  -0.5095
    -0.4398  -0.2340  -0.1694  -0.0560   0.1100   0.2038   0.3560   0.4164
     0.6477   0.7057   0.9206   0.9702   0.9984   1.2506   1.4061   1.4414
     1.7526   1.8547   2.2790   2.4241   2.4759   2.6089   2.6910   3.0483
     3.2179   3.5285   3.5664

          k = 0.0442 0.0747 0.0000 ( 32681 PWs)   bands (ev):

   -54.1055 -54.0413 -54.0258 -53.9608 -53.8709 -53.7894 -30.3847 -30.3245
   -30.2933 -30.2771 -30.2106 -30.1894 -30.1457 -30.1087 -30.0955 -30.0610
   -30.0132 -29.9561 -29.8795 -29.6345 -29.6000 -29.5431 -29.5386 -29.4715
    -3.6299  -3.0832  -3.0650  -3.0082  -2.9421  -2.8772  -2.8351  -2.7402
    -2.6350  -2.5745  -2.5279  -2.4705  -2.3393  -2.2474  -2.2107  -2.0316
    -1.9487  -1.9280  -1.8501  -1.7344  -1.5813  -1.5676  -1.4394  -1.3686
    -1.2546  -1.1995  -1.1842  -1.1407  -1.0858  -0.8840  -0.7911  -0.7277
    -0.5005  -0.4782  -0.3769  -0.1613  -0.0046   0.0667   0.2078   0.2579
     0.4174   0.6230   0.7036   0.8016   0.9103   1.1779   1.2647   1.3258
     1.4894   1.9111   2.2827   2.4020   2.4168   2.5985   2.6646   3.1043
     3.2062   3.4860   3.5106

          k = 0.0442 0.0913 0.0000 ( 32695 PWs)   bands (ev):

   -54.1055 -54.0413 -54.0259 -53.9609 -53.8709 -53.7894 -30.3855 -30.3253
   -30.2934 -30.2773 -30.2108 -30.1898 -30.1468 -30.1085 -30.0964 -30.0605
   -30.0133 -29.9557 -29.8807 -29.6345 -29.6000 -29.5431 -29.5387 -29.4716
    -3.3832  -3.0255  -3.0228  -2.9295  -2.8682  -2.7852  -2.7375  -2.6380
    -2.5625  -2.5471  -2.4044  -2.3463  -2.3388  -2.2423  -2.1457  -2.0660
    -1.9731  -1.9435  -1.7961  -1.7209  -1.5096  -1.5077  -1.4250  -1.3893
    -1.3326  -1.2335  -1.2168  -1.1455  -1.1351  -0.9327  -0.9285  -0.8135
    -0.6661  -0.5036  -0.4749  -0.1942  -0.1101  -0.0740   0.0294   0.1592
     0.2995   0.5770   0.6571   0.7177   0.9184   1.1570   1.1897   1.2266
     1.3801   1.9485   2.2736   2.3803   2.3989   2.5882   2.6966   3.1320
     3.1901   3.4371   3.5046

          k = 0.0442 0.1078 0.0000 ( 32695 PWs)   bands (ev):

   -54.1055 -54.0413 -54.0259 -53.9609 -53.8709 -53.7894 -30.3855 -30.3253
   -30.2934 -30.2773 -30.2108 -30.1898 -30.1468 -30.1085 -30.0964 -30.0605
   -30.0133 -29.9557 -29.8807 -29.6345 -29.6000 -29.5431 -29.5387 -29.4716
    -3.3832  -3.0255  -3.0228  -2.9295  -2.8682  -2.7852  -2.7375  -2.6380
    -2.5625  -2.5471  -2.4044  -2.3463  -2.3388  -2.2423  -2.1457  -2.0660
    -1.9731  -1.9435  -1.7961  -1.7209  -1.5096  -1.5077  -1.4250  -1.3893
    -1.3326  -1.2335  -1.2168  -1.1455  -1.1351  -0.9327  -0.9285  -0.8135
    -0.6661  -0.5036  -0.4749  -0.1942  -0.1101  -0.0740   0.0294   0.1592
     0.2995   0.5770   0.6571   0.7177   0.9184   1.1570   1.1897   1.2266
     1.3801   1.9485   2.2736   2.3803   2.3989   2.5882   2.6966   3.1321
     3.1901   3.4371   3.5045

          k = 0.0442-0.0747 0.0000 ( 32681 PWs)   bands (ev):

   -54.1055 -54.0413 -54.0258 -53.9608 -53.8709 -53.7894 -30.3847 -30.3245
   -30.2933 -30.2771 -30.2106 -30.1894 -30.1457 -30.1087 -30.0955 -30.0610
   -30.0132 -29.9561 -29.8795 -29.6345 -29.6000 -29.5431 -29.5386 -29.4715
    -3.6299  -3.0832  -3.0650  -3.0082  -2.9421  -2.8772  -2.8351  -2.7402
    -2.6350  -2.5745  -2.5279  -2.4705  -2.3393  -2.2474  -2.2107  -2.0316
    -1.9487  -1.9280  -1.8501  -1.7344  -1.5813  -1.5676  -1.4394  -1.3686
    -1.2546  -1.1995  -1.1842  -1.1407  -1.0858  -0.8840  -0.7911  -0.7277
    -0.5005  -0.4782  -0.3769  -0.1613  -0.0046   0.0667   0.2078   0.2579
     0.4174   0.6230   0.7036   0.8016   0.9103   1.1779   1.2647   1.3258
     1.4894   1.9111   2.2827   2.4020   2.4168   2.5985   2.6646   3.1043
     3.2062   3.4860   3.5107

          k = 0.0442-0.0581 0.0000 ( 32657 PWs)   bands (ev):

   -54.1056 -54.0413 -54.0258 -53.9608 -53.8709 -53.7895 -30.3833 -30.3231
   -30.2931 -30.2767 -30.2102 -30.1888 -30.1436 -30.1089 -30.0940 -30.0618
   -30.0129 -29.9569 -29.8776 -29.6346 -29.6000 -29.5430 -29.5384 -29.4714
    -3.9279  -3.2084  -3.1525  -3.1498  -3.0400  -2.9606  -2.9538  -2.8804
    -2.7379  -2.7206  -2.7091  -2.6235  -2.4322  -2.3768  -2.1978  -2.0023
    -1.9731  -1.9387  -1.8338  -1.8337  -1.5408  -1.5174  -1.4740  -1.3736
    -1.2689  -1.2588  -1.1270  -1.1102  -1.0510  -0.7400  -0.7015  -0.5095
    -0.4398  -0.2340  -0.1694  -0.0560   0.1100   0.2038   0.3560   0.4164
     0.6477   0.7058   0.9206   0.9702   0.9984   1.2506   1.4061   1.4414
     1.7526   1.8547   2.2790   2.4241   2.4759   2.6089   2.6910   3.0484
     3.2179   3.5285   3.5664

          k = 0.0442-0.0415 0.0000 ( 32658 PWs)   bands (ev):

   -54.1057 -54.0414 -54.0259 -53.9608 -53.8709 -53.7896 -30.3816 -30.3214
   -30.2928 -30.2762 -30.2097 -30.1882 -30.1412 -30.1091 -30.0920 -30.0628
   -30.0126 -29.9578 -29.8754 -29.6346 -29.6001 -29.5429 -29.5383 -29.4712
    -4.1892  -3.3553  -3.2491  -3.2324  -3.1725  -3.0887  -3.0315  -3.0101
    -2.9365  -2.8709  -2.8057  -2.7605  -2.5943  -2.4446  -2.2661  -2.0637
    -2.0093  -1.9098  -1.8398  -1.7928  -1.5539  -1.5116  -1.4308  -1.3941
    -1.3565  -1.2660  -1.0996  -1.0668  -1.0542  -0.7250  -0.5191  -0.4605
    -0.1515  -0.0725   0.0599   0.1444   0.2313   0.2559   0.5378   0.5499
     0.7259   0.7934   1.0893   1.1635   1.3715   1.5372   1.5830   1.6341
     1.8352   2.0813   2.2888   2.3842   2.5430   2.6056   2.8774   2.9638
     3.2236   3.5606   3.6391

          k = 0.0442-0.0249 0.0000 ( 32660 PWs)   bands (ev):

   -54.1058 -54.0415 -54.0259 -53.9608 -53.8709 -53.7897 -30.3802 -30.3199
   -30.2927 -30.2758 -30.2093 -30.1878 -30.1391 -30.1093 -30.0903 -30.0637
   -30.0123 -29.9587 -29.8735 -29.6347 -29.6001 -29.5427 -29.5381 -29.4711
    -4.3772  -3.4459  -3.3266  -3.2902  -3.2811  -3.2217  -3.1206  -3.1088
    -3.0626  -2.9775  -2.8766  -2.8582  -2.6960  -2.4999  -2.4286  -2.0621
    -2.0235  -1.8772  -1.8254  -1.7510  -1.6394  -1.5270  -1.4650  -1.4108
    -1.3043  -1.2685  -1.1170  -1.0755  -1.0219  -0.7190  -0.4401  -0.4060
     0.0549   0.0798   0.1606   0.3071   0.3671   0.4078   0.5678   0.6395
     0.8558   0.9043   1.2240   1.3337   1.4466   1.6799   1.8429   1.9710
     2.1373   2.2494   2.2898   2.5058   2.5412   2.7442   2.8913   3.1042
     3.2632   3.6018   3.6657

          k = 0.0442-0.0083 0.0000 ( 32652 PWs)   bands (ev):

   -54.1058 -54.0416 -54.0259 -53.9608 -53.8709 -53.7897 -30.3794 -30.3190
   -30.2926 -30.2756 -30.2090 -30.1875 -30.1379 -30.1094 -30.0893 -30.0642
   -30.0120 -29.9593 -29.8724 -29.6347 -29.6002 -29.5427 -29.5380 -29.4710
    -4.4748  -3.4774  -3.3701  -3.3410  -3.3385  -3.2900  -3.2029  -3.1625
    -3.0967  -3.0267  -2.9447  -2.8845  -2.7354  -2.5403  -2.5297  -2.0505
    -2.0348  -1.8519  -1.7974  -1.7299  -1.7228  -1.5485  -1.4828  -1.4218
    -1.2692  -1.2586  -1.1292  -1.0951  -0.9998  -0.7167  -0.4304  -0.3574
     0.1246   0.1318   0.2955   0.3598   0.4595   0.4770   0.5521   0.7899
     0.9215   0.9640   1.2954   1.4309   1.5139   1.6401   1.9425   2.1268
     2.2502   2.3169   2.4790   2.6183   2.6912   2.8485   2.9491   3.2765
     3.4395   3.6274   3.6500

          k = 0.0442 0.0083 0.0000 ( 32652 PWs)   bands (ev):

   -54.1058 -54.0416 -54.0259 -53.9608 -53.8709 -53.7897 -30.3794 -30.3190
   -30.2926 -30.2756 -30.2090 -30.1875 -30.1379 -30.1094 -30.0893 -30.0642
   -30.0120 -29.9593 -29.8724 -29.6347 -29.6002 -29.5427 -29.5380 -29.4710
    -4.4748  -3.4774  -3.3701  -3.3410  -3.3385  -3.2900  -3.2029  -3.1625
    -3.0967  -3.0267  -2.9447  -2.8845  -2.7354  -2.5403  -2.5297  -2.0505
    -2.0348  -1.8519  -1.7974  -1.7299  -1.7228  -1.5485  -1.4828  -1.4218
    -1.2692  -1.2586  -1.1292  -1.0951  -0.9998  -0.7167  -0.4304  -0.3574
     0.1246   0.1318   0.2955   0.3598   0.4595   0.4770   0.5521   0.7899
     0.9215   0.9640   1.2954   1.4309   1.5139   1.6401   1.9425   2.1268
     2.2502   2.3169   2.4790   2.6183   2.6912   2.8485   2.9491   3.2765
     3.4394   3.6275   3.6499

          k = 0.0590 0.0332 0.0000 ( 32658 PWs)   bands (ev):

   -54.0941 -54.0376 -54.0298 -53.9727 -53.8591 -53.8016 -30.3680 -30.3054
   -30.2235 -30.1816 -30.1765 -30.1287 -30.1214 -30.1147 -30.0799 -30.0751
   -30.0243 -29.9467 -29.8865 -29.7389 -29.7031 -29.6424 -29.5303 -29.4814
    -4.0483  -3.3343  -3.1724  -3.1358  -3.0869  -3.0672  -2.9593  -2.9189
    -2.8421  -2.8319  -2.7241  -2.6691  -2.5437  -2.2925  -2.2283  -2.0703
    -2.0204  -1.9131  -1.8839  -1.7804  -1.5979  -1.5741  -1.4094  -1.3621
    -1.3423  -1.3089  -1.2083  -1.1827  -1.1385  -0.8835  -0.8796  -0.5903
    -0.3790  -0.1426   0.1091   0.2577   0.2742   0.3612   0.5312   0.7785
     0.8228   1.0182   1.0514   1.2535   1.4806   1.5991   1.6238   1.7683
     1.7728   2.1018   2.1610   2.2786   2.4266   2.6709   2.7377   2.7491
     2.9503   3.4223   3.6463

          k = 0.0590 0.0498 0.0000 ( 32632 PWs)   bands (ev):

   -54.0940 -54.0376 -54.0296 -53.9727 -53.8590 -53.8015 -30.3693 -30.3054
   -30.2250 -30.1818 -30.1769 -30.1308 -30.1211 -30.1151 -30.0814 -30.0739
   -30.0244 -29.9456 -29.8884 -29.7386 -29.7030 -29.6424 -29.5304 -29.4815
    -3.8460  -3.2637  -3.1154  -3.0504  -2.9997  -2.9855  -2.8759  -2.8457
    -2.6980  -2.6976  -2.6224  -2.6162  -2.4391  -2.2469  -2.1597  -2.0673
    -1.9860  -1.9275  -1.9051  -1.7947  -1.5754  -1.5444  -1.4221  -1.3896
    -1.3478  -1.2582  -1.2080  -1.1800  -1.1752  -0.9918  -0.8739  -0.6243
    -0.5092  -0.2441  -0.1728   0.0179   0.2079   0.3776   0.4444   0.6156
     0.6351   0.9872   1.0320   1.0571   1.1158   1.4552   1.5350   1.6201
     1.8431   1.8595   2.2386   2.2561   2.4365   2.5487   2.5903   2.7704
     2.9604   3.3717   3.5972

          k = 0.0590 0.0664 0.0000 ( 32625 PWs)   bands (ev):

   -54.0940 -54.0375 -54.0296 -53.9726 -53.8591 -53.8014 -30.3706 -30.3055
   -30.2264 -30.1821 -30.1775 -30.1330 -30.1207 -30.1155 -30.0829 -30.0728
   -30.0244 -29.9445 -29.8904 -29.7383 -29.7029 -29.6424 -29.5306 -29.4816
    -3.5882  -3.1555  -3.0269  -2.9535  -2.8989  -2.8841  -2.8301  -2.7525
    -2.5874  -2.5637  -2.5323  -2.5013  -2.2775  -2.2144  -2.1622  -2.0705
    -2.0194  -1.9360  -1.8474  -1.7721  -1.6137  -1.5619  -1.4477  -1.3977
    -1.3493  -1.2588  -1.2395  -1.1912  -1.1834  -1.0834  -0.9007  -0.6693
    -0.6543  -0.4304  -0.3636  -0.2587   0.1407   0.3319   0.3688   0.4604
     0.4754   0.7286   0.9072   0.9724   1.0694   1.4311   1.4870   1.4927
     1.5949   1.9143   2.2934   2.3355   2.4453   2.4566   2.5675   2.8185
     2.9864   3.3227   3.5265

          k = 0.0590 0.0830 0.0000 ( 32656 PWs)   bands (ev):

   -54.0939 -54.0376 -54.0296 -53.9728 -53.8590 -53.8014 -30.3715 -30.3055
   -30.2274 -30.1824 -30.1779 -30.1345 -30.1204 -30.1159 -30.0840 -30.0720
   -30.0243 -29.9438 -29.8919 -29.7381 -29.7028 -29.6424 -29.5306 -29.4817
    -3.3186  -3.0528  -2.9378  -2.8948  -2.8099  -2.7831  -2.7588  -2.6945
    -2.5380  -2.5275  -2.4780  -2.3689  -2.2398  -2.1664  -2.0917  -2.0836
    -2.0185  -1.9073  -1.8956  -1.7443  -1.6036  -1.5797  -1.4916  -1.4411
    -1.3958  -1.3303  -1.3071  -1.2009  -1.1855  -1.0466  -0.9569  -0.7971
    -0.6969  -0.5726  -0.4874  -0.4619   0.0881   0.1478   0.2385   0.3254
     0.5673   0.6156   0.8037   0.8797   1.1711   1.3380   1.3857   1.4786
     1.5302   1.9310   2.3264   2.3637   2.4085   2.4800   2.7194   2.8519
     3.0000   3.2808   3.4359

          k = 0.0590 0.0995 0.0000 ( 32632 PWs)   bands (ev):

   -54.0938 -54.0376 -54.0295 -53.9727 -53.8590 -53.8014 -30.3719 -30.3055
   -30.2277 -30.1824 -30.1780 -30.1351 -30.1202 -30.1160 -30.0843 -30.0717
   -30.0243 -29.9435 -29.8924 -29.7380 -29.7028 -29.6424 -29.5307 -29.4818
    -3.1675  -3.0102  -2.9015  -2.8992  -2.7821  -2.7443  -2.6892  -2.6256
    -2.5949  -2.5368  -2.4716  -2.2807  -2.2724  -2.1836  -2.0966  -2.0277
    -2.0138  -1.9176  -1.7838  -1.7717  -1.6106  -1.5791  -1.5210  -1.4923
    -1.4514  -1.3782  -1.3141  -1.2004  -1.1807  -1.0161  -0.9839  -0.8354
    -0.7456  -0.5912  -0.5872  -0.5029   0.0704   0.0838   0.1765   0.2679
     0.5981   0.6449   0.7796   0.8090   1.2217   1.2602   1.3693   1.4567
     1.5527   1.9179   2.3308   2.3897   2.4007   2.4988   2.8495   2.8630
     3.0031   3.2638   3.4206

          k = 0.0590 0.1161 0.0000 ( 32656 PWs)   bands (ev):

   -54.0939 -54.0376 -54.0296 -53.9728 -53.8590 -53.8014 -30.3715 -30.3055
   -30.2274 -30.1824 -30.1779 -30.1345 -30.1204 -30.1159 -30.0840 -30.0720
   -30.0243 -29.9438 -29.8919 -29.7381 -29.7028 -29.6424 -29.5306 -29.4817
    -3.3186  -3.0528  -2.9378  -2.8948  -2.8099  -2.7831  -2.7588  -2.6945
    -2.5380  -2.5276  -2.4780  -2.3689  -2.2398  -2.1664  -2.0917  -2.0836
    -2.0185  -1.9073  -1.8956  -1.7443  -1.6036  -1.5797  -1.4916  -1.4411
    -1.3958  -1.3303  -1.3071  -1.2009  -1.1855  -1.0466  -0.9569  -0.7971
    -0.6969  -0.5726  -0.4874  -0.4619   0.0881   0.1478   0.2385   0.3254
     0.5673   0.6156   0.8037   0.8797   1.1711   1.3380   1.3857   1.4786
     1.5302   1.9310   2.3264   2.3637   2.4085   2.4800   2.7193   2.8519
     3.0000   3.2808   3.4361

          k = 0.0590-0.0664 0.0000 ( 32625 PWs)   bands (ev):

   -54.0940 -54.0375 -54.0296 -53.9726 -53.8591 -53.8014 -30.3706 -30.3055
   -30.2264 -30.1821 -30.1775 -30.1330 -30.1207 -30.1155 -30.0829 -30.0728
   -30.0244 -29.9445 -29.8904 -29.7383 -29.7029 -29.6424 -29.5306 -29.4816
    -3.5882  -3.1555  -3.0269  -2.9535  -2.8989  -2.8841  -2.8301  -2.7525
    -2.5874  -2.5638  -2.5323  -2.5013  -2.2775  -2.2144  -2.1622  -2.0705
    -2.0194  -1.9360  -1.8474  -1.7721  -1.6137  -1.5619  -1.4477  -1.3977
    -1.3493  -1.2588  -1.2395  -1.1912  -1.1834  -1.0834  -0.9007  -0.6693
    -0.6543  -0.4304  -0.3636  -0.2587   0.1407   0.3319   0.3688   0.4604
     0.4754   0.7286   0.9072   0.9724   1.0694   1.4311   1.4870   1.4927
     1.5949   1.9143   2.2934   2.3355   2.4453   2.4566   2.5675   2.8185
     2.9864   3.3229   3.5238

          k = 0.0590-0.0498 0.0000 ( 32632 PWs)   bands (ev):

   -54.0940 -54.0376 -54.0296 -53.9727 -53.8590 -53.8015 -30.3693 -30.3054
   -30.2250 -30.1818 -30.1769 -30.1308 -30.1211 -30.1151 -30.0814 -30.0739
   -30.0244 -29.9456 -29.8884 -29.7386 -29.7030 -29.6424 -29.5304 -29.4815
    -3.8460  -3.2637  -3.1154  -3.0504  -2.9997  -2.9855  -2.8759  -2.8457
    -2.6980  -2.6976  -2.6224  -2.6162  -2.4391  -2.2469  -2.1597  -2.0673
    -1.9860  -1.9275  -1.9051  -1.7947  -1.5754  -1.5444  -1.4221  -1.3896
    -1.3478  -1.2582  -1.2080  -1.1800  -1.1752  -0.9918  -0.8739  -0.6243
    -0.5092  -0.2441  -0.1728   0.0179   0.2079   0.3776   0.4444   0.6156
     0.6351   0.9872   1.0320   1.0571   1.1158   1.4552   1.5350   1.6201
     1.8430   1.8595   2.2386   2.2561   2.4365   2.5487   2.5903   2.7704
     2.9604   3.3717   3.5977

          k = 0.0590-0.0332 0.0000 ( 32658 PWs)   bands (ev):

   -54.0941 -54.0376 -54.0298 -53.9727 -53.8591 -53.8016 -30.3680 -30.3054
   -30.2235 -30.1816 -30.1765 -30.1287 -30.1214 -30.1147 -30.0799 -30.0751
   -30.0243 -29.9467 -29.8865 -29.7389 -29.7031 -29.6424 -29.5303 -29.4814
    -4.0483  -3.3343  -3.1724  -3.1358  -3.0869  -3.0672  -2.9593  -2.9189
    -2.8421  -2.8319  -2.7241  -2.6691  -2.5437  -2.2925  -2.2284  -2.0703
    -2.0204  -1.9131  -1.8839  -1.7804  -1.5979  -1.5741  -1.4094  -1.3621
    -1.3423  -1.3089  -1.2083  -1.1827  -1.1385  -0.8835  -0.8796  -0.5903
    -0.3790  -0.1426   0.1091   0.2577   0.2742   0.3612   0.5312   0.7785
     0.8228   1.0182   1.0514   1.2535   1.4806   1.5991   1.6238   1.7683
     1.7728   2.1018   2.1611   2.2786   2.4267   2.6709   2.7377   2.7491
     2.9503   3.4217   3.6459

          k = 0.0590-0.0166 0.0000 ( 32670 PWs)   bands (ev):

   -54.0943 -54.0376 -54.0299 -53.9726 -53.8591 -53.8017 -30.3671 -30.3053
   -30.2224 -30.1814 -30.1761 -30.1271 -30.1216 -30.1144 -30.0786 -30.0760
   -30.0243 -29.9476 -29.8851 -29.7391 -29.7032 -29.6424 -29.5302 -29.4813
    -4.1756  -3.3526  -3.1937  -3.1907  -3.1429  -3.1402  -3.0655  -2.9635
    -2.9209  -2.9156  -2.8063  -2.6975  -2.5823  -2.3610  -2.3263  -2.0818
    -2.0207  -1.8710  -1.8257  -1.7698  -1.6748  -1.6230  -1.4368  -1.3601
    -1.3216  -1.2772  -1.2310  -1.1982  -1.1144  -0.8879  -0.8189  -0.5687
    -0.3006  -0.0734   0.2928   0.3247   0.3424   0.4134   0.7029   0.8470
     0.8856   1.0438   1.2072   1.4037   1.4822   1.6538   1.7543   1.7977
     1.9905   2.1486   2.2169   2.3750   2.5363   2.7330   2.8500   2.9043
     3.1077   3.4805   3.6376

          k = 0.0590 0.0000 0.0000 ( 32671 PWs)   bands (ev):

   -54.0943 -54.0376 -54.0299 -53.9727 -53.8590 -53.8017 -30.3667 -30.3053
   -30.2220 -30.1813 -30.1760 -30.1265 -30.1217 -30.1143 -30.0782 -30.0764
   -30.0242 -29.9479 -29.8846 -29.7392 -29.7033 -29.6424 -29.5302 -29.4813
    -4.2189  -3.3429  -3.2133  -3.2093  -3.1648  -3.1615  -3.1075  -2.9909
    -2.9444  -2.9344  -2.8391  -2.7065  -2.5794  -2.4293  -2.3384  -2.0870
    -2.0117  -1.8666  -1.7698  -1.7549  -1.7213  -1.6679  -1.4499  -1.3652
    -1.3110  -1.2550  -1.2367  -1.2125  -1.1066  -0.8910  -0.7987  -0.5618
    -0.2751  -0.0492   0.3197   0.3512   0.3575   0.4753   0.7790   0.8444
     0.9431   1.0419   1.3539   1.3900   1.4621   1.6641   1.7595   1.7635
     2.0981   2.1910   2.3091   2.3218   2.6572   2.7386   2.9811   2.9835
     3.2399   3.6112   3.6614

          k = 0.0590 0.0166 0.0000 ( 32670 PWs)   bands (ev):

   -54.0943 -54.0376 -54.0299 -53.9726 -53.8591 -53.8017 -30.3671 -30.3053
   -30.2224 -30.1814 -30.1761 -30.1271 -30.1216 -30.1144 -30.0786 -30.0760
   -30.0243 -29.9476 -29.8851 -29.7391 -29.7032 -29.6424 -29.5302 -29.4813
    -4.1756  -3.3526  -3.1937  -3.1907  -3.1429  -3.1402  -3.0655  -2.9635
    -2.9209  -2.9156  -2.8063  -2.6975  -2.5823  -2.3610  -2.3263  -2.0818
    -2.0207  -1.8710  -1.8257  -1.7698  -1.6748  -1.6230  -1.4368  -1.3601
    -1.3216  -1.2772  -1.2310  -1.1982  -1.1144  -0.8879  -0.8189  -0.5687
    -0.3006  -0.0734   0.2928   0.3247   0.3424   0.4134   0.7029   0.8470
     0.8856   1.0438   1.2072   1.4037   1.4822   1.6538   1.7543   1.7977
     1.9905   2.1486   2.2169   2.3750   2.5363   2.7330   2.8500   2.9043
     3.1077   3.4805   3.6369

          k = 0.0737 0.0415 0.0000 ( 32649 PWs)   bands (ev):

   -54.0805 -54.0513 -54.0160 -53.9865 -53.8452 -53.8155 -30.3534 -30.3210
   -30.1632 -30.1350 -30.1163 -30.1098 -30.0884 -30.0688 -30.0673 -30.0388
   -30.0027 -29.9326 -29.9014 -29.8585 -29.8213 -29.7590 -29.5187 -29.4934
    -3.7043  -3.3014  -3.0724  -3.0173  -2.9495  -2.9410  -2.7822  -2.6858
    -2.6588  -2.6501  -2.6046  -2.5335  -2.3924  -2.2055  -2.1345  -2.1302
    -1.9733  -1.8746  -1.8273  -1.7655  -1.6079  -1.5764  -1.4472  -1.3829
    -1.3786  -1.3192  -1.3032  -1.2486  -1.2197  -1.1163  -0.9935  -0.8377
    -0.7542  -0.6176   0.0472   0.1264   0.3520   0.4514   0.4699   0.6681
     0.8185   0.9965   1.1068   1.1709   1.4027   1.5177   1.7515   1.7885
     1.8553   1.8748   2.0836   2.1541   2.3653   2.4273   2.4889   2.5445
     2.7013   2.9274   3.4202

          k = 0.0737 0.0581 0.0000 ( 32599 PWs)   bands (ev):

   -54.0804 -54.0512 -54.0159 -53.9864 -53.8452 -53.8154 -30.3544 -30.3207
   -30.1637 -30.1349 -30.1183 -30.1108 -30.0868 -30.0691 -30.0685 -30.0384
   -30.0030 -29.9312 -29.9031 -29.8579 -29.8212 -29.7589 -29.5187 -29.4934
    -3.5236  -3.3032  -3.0038  -2.9758  -2.9023  -2.8855  -2.7210  -2.6523
    -2.6038  -2.5535  -2.5302  -2.5016  -2.2946  -2.2393  -2.1386  -2.1371
    -1.9743  -1.8286  -1.8094  -1.7428  -1.6221  -1.5968  -1.4642  -1.4337
    -1.3580  -1.3538  -1.3159  -1.2440  -1.1986  -1.1082  -0.9798  -0.9530
    -0.8004  -0.7001  -0.1303  -0.0459   0.3915   0.4396   0.4875   0.5201
     0.6273   0.8667   1.0113   1.0848   1.3521   1.6290   1.6325   1.6704
     1.7755   1.9310   2.2230   2.2498   2.3281   2.3431   2.4355   2.4927
     2.7435   2.9098   3.4299

          k = 0.0737 0.0747 0.0000 ( 32634 PWs)   bands (ev):

   -54.0804 -54.0513 -54.0159 -53.9865 -53.8453 -53.8154 -30.3553 -30.3205
   -30.1641 -30.1348 -30.1200 -30.1116 -30.0855 -30.0695 -30.0693 -30.0380
   -30.0033 -29.9301 -29.9048 -29.8574 -29.8210 -29.7588 -29.5188 -29.4935
    -3.3093  -3.2828  -2.9266  -2.9010  -2.8492  -2.8217  -2.6897  -2.6302
    -2.5872  -2.5296  -2.4857  -2.3869  -2.3298  -2.1947  -2.1046  -2.1004
    -1.9439  -1.9390  -1.8078  -1.6727  -1.6644  -1.6028  -1.5422  -1.4639
    -1.3973  -1.3967  -1.3152  -1.2186  -1.1812  -1.1085  -1.0685  -1.0193
    -0.8423  -0.7866  -0.2507  -0.2261   0.3316   0.3569   0.4643   0.4986
     0.7169   0.7400   0.9097   1.1555   1.3529   1.4441   1.5901   1.6284
     1.8486   1.9460   2.2656   2.2909   2.3411   2.4028   2.4439   2.6707
     2.7656   2.9007   3.4607

          k = 0.0737 0.0913 0.0000 ( 32667 PWs)   bands (ev):

   -54.0803 -54.0514 -54.0158 -53.9867 -53.8452 -53.8154 -30.3558 -30.3204
   -30.1643 -30.1347 -30.1210 -30.1120 -30.0849 -30.0700 -30.0695 -30.0378
   -30.0035 -29.9295 -29.9057 -29.8572 -29.8209 -29.7587 -29.5188 -29.4935
    -3.2627  -3.1176  -2.8930  -2.8256  -2.7863  -2.7705  -2.6925  -2.6653
    -2.6021  -2.5256  -2.4563  -2.4075  -2.2914  -2.1692  -2.0907  -2.0451
    -1.9543  -1.8886  -1.8208  -1.7217  -1.6801  -1.6298  -1.5882  -1.4832
    -1.4698  -1.4369  -1.3100  -1.1865  -1.1641  -1.1496  -1.0907  -1.0758
    -0.8703  -0.8434  -0.3318  -0.3011   0.2575   0.3247   0.4137   0.5531
     0.6388   0.8838   0.9342   1.0862   1.3093   1.4769   1.5603   1.5738
     1.8195   1.9715   2.2443   2.3130   2.3925   2.4527   2.5716   2.7690
     2.8956   2.9979   3.3456

          k = 0.0737 0.1078 0.0000 ( 32667 PWs)   bands (ev):

   -54.0803 -54.0514 -54.0158 -53.9867 -53.8452 -53.8154 -30.3558 -30.3204
   -30.1643 -30.1347 -30.1210 -30.1120 -30.0849 -30.0700 -30.0695 -30.0378
   -30.0035 -29.9295 -29.9057 -29.8572 -29.8209 -29.7587 -29.5188 -29.4935
    -3.2627  -3.1176  -2.8930  -2.8256  -2.7863  -2.7705  -2.6925  -2.6653
    -2.6021  -2.5256  -2.4563  -2.4075  -2.2914  -2.1692  -2.0907  -2.0451
    -1.9543  -1.8886  -1.8208  -1.7217  -1.6801  -1.6298  -1.5882  -1.4832
    -1.4698  -1.4369  -1.3100  -1.1865  -1.1641  -1.1496  -1.0907  -1.0758
    -0.8703  -0.8434  -0.3318  -0.3011   0.2575   0.3247   0.4137   0.5531
     0.6388   0.8838   0.9342   1.0862   1.3093   1.4769   1.5603   1.5738
     1.8195   1.9715   2.2443   2.3130   2.3925   2.4527   2.5716   2.7690
     2.8956   2.9979   3.3464

          k = 0.0737 0.1244 0.0000 ( 32634 PWs)   bands (ev):

   -54.0804 -54.0513 -54.0159 -53.9865 -53.8453 -53.8154 -30.3553 -30.3205
   -30.1641 -30.1348 -30.1200 -30.1116 -30.0855 -30.0695 -30.0693 -30.0380
   -30.0033 -29.9301 -29.9048 -29.8574 -29.8210 -29.7588 -29.5188 -29.4935
    -3.3093  -3.2828  -2.9266  -2.9010  -2.8492  -2.8217  -2.6897  -2.6302
    -2.5872  -2.5296  -2.4857  -2.3869  -2.3298  -2.1947  -2.1046  -2.1004
    -1.9439  -1.9390  -1.8078  -1.6727  -1.6644  -1.6028  -1.5422  -1.4639
    -1.3973  -1.3967  -1.3152  -1.2186  -1.1812  -1.1085  -1.0685  -1.0193
    -0.8423  -0.7866  -0.2507  -0.2261   0.3316   0.3569   0.4643   0.4986
     0.7169   0.7400   0.9097   1.1555   1.3529   1.4441   1.5901   1.6284
     1.8486   1.9460   2.2656   2.2909   2.3411   2.4028   2.4439   2.6707
     2.7656   2.9007   3.4607

          k = 0.0737-0.0581 0.0000 ( 32599 PWs)   bands (ev):

   -54.0804 -54.0512 -54.0159 -53.9864 -53.8452 -53.8154 -30.3544 -30.3207
   -30.1637 -30.1349 -30.1183 -30.1108 -30.0868 -30.0691 -30.0685 -30.0384
   -30.0030 -29.9312 -29.9031 -29.8579 -29.8212 -29.7589 -29.5187 -29.4934
    -3.5236  -3.3032  -3.0038  -2.9758  -2.9023  -2.8855  -2.7210  -2.6523
    -2.6038  -2.5535  -2.5302  -2.5016  -2.2946  -2.2393  -2.1386  -2.1371
    -1.9743  -1.8286  -1.8094  -1.7428  -1.6221  -1.5968  -1.4642  -1.4337
    -1.3580  -1.3538  -1.3159  -1.2440  -1.1986  -1.1082  -0.9798  -0.9530
    -0.8004  -0.7001  -0.1303  -0.0459   0.3915   0.4396   0.4875   0.5201
     0.6273   0.8667   1.0113   1.0848   1.3521   1.6290   1.6325   1.6704
     1.7755   1.9310   2.2230   2.2498   2.3281   2.3431   2.4355   2.4927
     2.7435   2.9098   3.4299

          k = 0.0737-0.0415 0.0000 ( 32649 PWs)   bands (ev):

   -54.0805 -54.0513 -54.0160 -53.9865 -53.8452 -53.8155 -30.3534 -30.3210
   -30.1632 -30.1350 -30.1163 -30.1098 -30.0884 -30.0688 -30.0673 -30.0388
   -30.0027 -29.9326 -29.9014 -29.8585 -29.8213 -29.7590 -29.5187 -29.4934
    -3.7043  -3.3014  -3.0724  -3.0173  -2.9495  -2.9410  -2.7822  -2.6858
    -2.6588  -2.6501  -2.6046  -2.5335  -2.3924  -2.2055  -2.1345  -2.1302
    -1.9733  -1.8746  -1.8273  -1.7655  -1.6079  -1.5764  -1.4472  -1.3829
    -1.3786  -1.3192  -1.3032  -1.2486  -1.2197  -1.1163  -0.9935  -0.8377
    -0.7542  -0.6176   0.0472   0.1264   0.3520   0.4514   0.4699   0.6681
     0.8185   0.9965   1.1068   1.1709   1.4027   1.5177   1.7515   1.7885
     1.8553   1.8748   2.0836   2.1541   2.3653   2.4273   2.4889   2.5445
     2.7013   2.9274   3.4203

          k = 0.0737-0.0249 0.0000 ( 32644 PWs)   bands (ev):

   -54.0806 -54.0512 -54.0161 -53.9864 -53.8452 -53.8155 -30.3526 -30.3212
   -30.1629 -30.1351 -30.1146 -30.1088 -30.0899 -30.0685 -30.0662 -30.0391
   -30.0024 -29.9338 -29.8998 -29.8590 -29.8215 -29.7590 -29.5186 -29.4933
    -3.8316  -3.2646  -3.0954  -3.0482  -2.9873  -2.9689  -2.8674  -2.7898
    -2.7239  -2.6950  -2.6620  -2.5206  -2.4297  -2.2279  -2.1717  -2.1295
    -1.9755  -1.9048  -1.8446  -1.7517  -1.6474  -1.5834  -1.4754  -1.3837
    -1.3268  -1.3221  -1.2781  -1.2586  -1.2312  -1.1320  -1.0208  -0.7589
    -0.7200  -0.5630   0.1873   0.1895   0.3147   0.4992   0.5681   0.8456
     0.9592   1.0516   1.3184   1.3760   1.4062   1.4458   1.7008   1.7642
     1.8712   1.9939   2.0532   2.1760   2.3958   2.4800   2.6484   2.6915
     2.7810   2.9738   3.4119

          k = 0.0737-0.0083 0.0000 ( 32635 PWs)   bands (ev):

   -54.0807 -54.0512 -54.0162 -53.9864 -53.8452 -53.8155 -30.3521 -30.3214
   -30.1627 -30.1352 -30.1137 -30.1081 -30.0909 -30.0683 -30.0655 -30.0393
   -30.0022 -29.9345 -29.8990 -29.8593 -29.8216 -29.7591 -29.5186 -29.4933
    -3.8969  -3.2000  -3.0924  -3.0679  -3.0248  -2.9698  -2.9640  -2.8456
    -2.7615  -2.7118  -2.7031  -2.5013  -2.4080  -2.2623  -2.2611  -2.1348
    -1.9933  -1.8656  -1.7944  -1.7606  -1.6816  -1.6511  -1.5122  -1.3555
    -1.3396  -1.2909  -1.2837  -1.2586  -1.2218  -1.1537  -1.0308  -0.7213
    -0.7048  -0.5377   0.1927   0.2376   0.3291   0.5250   0.6493   1.0191
     1.0193   1.1752   1.3479   1.4363   1.4641   1.5023   1.6027   1.6478
     1.8740   1.9895   2.1043   2.3501   2.3956   2.4608   2.7326   2.9181
     2.9927   3.1902   3.3571

          k = 0.0737 0.0083 0.0000 ( 32635 PWs)   bands (ev):

   -54.0807 -54.0512 -54.0162 -53.9864 -53.8452 -53.8155 -30.3521 -30.3214
   -30.1627 -30.1352 -30.1137 -30.1081 -30.0909 -30.0683 -30.0655 -30.0393
   -30.0022 -29.9345 -29.8990 -29.8593 -29.8216 -29.7591 -29.5186 -29.4933
    -3.8969  -3.2000  -3.0924  -3.0679  -3.0248  -2.9698  -2.9640  -2.8456
    -2.7615  -2.7118  -2.7031  -2.5013  -2.4080  -2.2623  -2.2611  -2.1348
    -1.9933  -1.8656  -1.7944  -1.7606  -1.6816  -1.6511  -1.5122  -1.3555
    -1.3396  -1.2909  -1.2837  -1.2586  -1.2218  -1.1537  -1.0308  -0.7213
    -0.7048  -0.5377   0.1927   0.2376   0.3291   0.5250   0.6493   1.0191
     1.0193   1.1752   1.3479   1.4363   1.4641   1.5023   1.6027   1.6478
     1.8740   1.9895   2.1043   2.3501   2.3956   2.4608   2.7326   2.9181
     2.9927   3.1902   3.3572

          k = 0.0737 0.0249 0.0000 ( 32644 PWs)   bands (ev):

   -54.0806 -54.0512 -54.0161 -53.9864 -53.8452 -53.8155 -30.3526 -30.3212
   -30.1629 -30.1351 -30.1146 -30.1088 -30.0899 -30.0685 -30.0662 -30.0391
   -30.0024 -29.9338 -29.8998 -29.8590 -29.8215 -29.7590 -29.5186 -29.4933
    -3.8316  -3.2646  -3.0954  -3.0482  -2.9873  -2.9689  -2.8674  -2.7898
    -2.7239  -2.6950  -2.6620  -2.5206  -2.4297  -2.2279  -2.1717  -2.1295
    -1.9755  -1.9048  -1.8446  -1.7517  -1.6474  -1.5834  -1.4754  -1.3837
    -1.3268  -1.3221  -1.2781  -1.2586  -1.2312  -1.1320  -1.0208  -0.7589
    -0.7200  -0.5630   0.1873   0.1895   0.3147   0.4992   0.5681   0.8456
     0.9592   1.0516   1.3184   1.3760   1.4062   1.4458   1.7008   1.7642
     1.8711   1.9939   2.0532   2.1760   2.3958   2.4799   2.6484   2.6915
     2.7810   2.9738   3.4119

          k =-0.0885-0.0498 0.0000 ( 32624 PWs)   bands (ev):

   -54.0659 -54.0659 -54.0013 -54.0012 -53.8304 -53.8303 -30.3374 -30.3374
   -30.1490 -30.1490 -30.1029 -30.1028 -30.0536 -30.0535 -29.9846 -29.9846
   -29.9461 -29.9460 -29.9171 -29.9171 -29.8821 -29.8820 -29.5061 -29.5060
    -3.4291  -3.4291  -2.9989  -2.9989  -2.8919  -2.8919  -2.6606  -2.6606
    -2.5667  -2.5667  -2.4916  -2.4916  -2.2794  -2.2794  -2.1786  -2.1786
    -1.8781  -1.8781  -1.7219  -1.7219  -1.6110  -1.6110  -1.4510  -1.4510
    -1.3711  -1.3711  -1.2665  -1.2665  -1.2058  -1.2058  -1.0236  -1.0236
    -0.8681  -0.8681   0.0378   0.0378   0.4460   0.4460   0.5126   0.5126
     0.8534   0.8534   1.0744   1.0744   1.6090   1.6091   1.7556   1.7556
     1.9698   1.9698   2.1857   2.1857   2.2246   2.2246   2.3856   2.3856
     2.5580   2.5580   3.5077

          k =-0.0885-0.0332 0.0000 ( 32642 PWs)   bands (ev):

   -54.0660 -54.0658 -54.0014 -54.0012 -53.8304 -53.8304 -30.3380 -30.3368
   -30.1494 -30.1487 -30.1045 -30.1012 -30.0543 -30.0527 -29.9854 -29.9838
   -29.9463 -29.9458 -29.9186 -29.9156 -29.8822 -29.8818 -29.5061 -29.5061
    -3.5110  -3.3126  -3.0088  -2.9612  -2.8955  -2.8802  -2.6956  -2.6465
    -2.6241  -2.5458  -2.5183  -2.4485  -2.3093  -2.2422  -2.1859  -2.1455
    -1.9488  -1.8401  -1.7950  -1.6744  -1.6583  -1.5859  -1.4520  -1.4469
    -1.4024  -1.3416  -1.3167  -1.2594  -1.2354  -1.1675  -1.0729  -1.0116
    -0.8878  -0.8459   0.0131   0.0142   0.3521   0.4641   0.5146   0.7332
     0.8641   0.8736   0.9838   1.2093   1.4904   1.6535   1.6995   1.8634
     1.9080   1.9682   2.0935   2.1948   2.3026   2.3417   2.3716   2.4727
     2.5818   2.6137   3.4970

          k =-0.0885-0.0166 0.0000 ( 32661 PWs)   bands (ev):

   -54.0661 -54.0658 -54.0015 -54.0012 -53.8304 -53.8304 -30.3385 -30.3364
   -30.1496 -30.1484 -30.1057 -30.1000 -30.0548 -30.0520 -29.9860 -29.9832
   -29.9465 -29.9457 -29.9198 -29.9145 -29.8824 -29.8817 -29.5061 -29.5061
    -3.5579  -3.1727  -2.9979  -2.9377  -2.8674  -2.8604  -2.7522  -2.7244
    -2.6586  -2.5704  -2.4615  -2.4082  -2.3005  -2.2398  -2.1670  -2.1653
    -1.9369  -1.9343  -1.7895  -1.7052  -1.6504  -1.6115  -1.4640  -1.4475
    -1.4323  -1.3703  -1.3202  -1.2794  -1.2509  -1.1454  -1.0933  -1.0333
    -0.9020  -0.8332  -0.0423  -0.0138   0.3093   0.5003   0.5800   0.8262
     0.9077   0.9739   1.0400   1.3202   1.3573   1.6426   1.6716   1.8326
     1.8733   1.9677   2.0565   2.2618   2.3286   2.4041   2.4300   2.6407
     2.6590   2.9289   3.3893

          k =-0.0885 0.0000 0.0000 ( 32657 PWs)   bands (ev):

   -54.0661 -54.0658 -54.0015 -54.0011 -53.8304 -53.8303 -30.3386 -30.3362
   -30.1497 -30.1483 -30.1061 -30.0996 -30.0550 -30.0518 -29.9863 -29.9830
   -29.9465 -29.9456 -29.9202 -29.9141 -29.8825 -29.8817 -29.5061 -29.5061
    -3.5730  -3.0705  -3.0046  -2.9369  -2.8731  -2.8228  -2.8058  -2.7596
    -2.6778  -2.5789  -2.4465  -2.3332  -2.2878  -2.2866  -2.2053  -2.1388
    -2.0093  -1.8654  -1.7772  -1.7319  -1.6825  -1.6259  -1.4746  -1.4620
    -1.4454  -1.3464  -1.3323  -1.3124  -1.2442  -1.1365  -1.0884  -1.0487
    -0.9080  -0.8313  -0.0628  -0.0248   0.2966   0.5168   0.6052   0.8330
     0.9261   1.0056   1.2375   1.2756   1.2818   1.6362   1.6634   1.8275
     1.8634   1.9040   2.0504   2.3049   2.3304   2.4549   2.4603   2.6488
     2.8742   3.2010   3.2974

          k =-0.0885 0.0166 0.0000 ( 32661 PWs)   bands (ev):

   -54.0661 -54.0658 -54.0015 -54.0012 -53.8304 -53.8304 -30.3385 -30.3364
   -30.1496 -30.1484 -30.1057 -30.1000 -30.0548 -30.0520 -29.9860 -29.9832
   -29.9465 -29.9457 -29.9198 -29.9145 -29.8824 -29.8817 -29.5061 -29.5061
    -3.5579  -3.1727  -2.9979  -2.9377  -2.8674  -2.8604  -2.7522  -2.7244
    -2.6586  -2.5704  -2.4615  -2.4082  -2.3005  -2.2398  -2.1670  -2.1653
    -1.9369  -1.9343  -1.7895  -1.7052  -1.6504  -1.6115  -1.4640  -1.4475
    -1.4323  -1.3703  -1.3202  -1.2794  -1.2509  -1.1454  -1.0933  -1.0333
    -0.9020  -0.8332  -0.0423  -0.0138   0.3093   0.5003   0.5800   0.8262
     0.9077   0.9739   1.0400   1.3202   1.3573   1.6426   1.6716   1.8326
     1.8733   1.9677   2.0565   2.2618   2.3286   2.4041   2.4300   2.6407
     2.6590   2.9290   3.3894

          k =-0.0885 0.0332 0.0000 ( 32642 PWs)   bands (ev):

   -54.0660 -54.0658 -54.0014 -54.0012 -53.8304 -53.8304 -30.3380 -30.3368
   -30.1494 -30.1487 -30.1045 -30.1012 -30.0543 -30.0527 -29.9854 -29.9838
   -29.9463 -29.9458 -29.9186 -29.9156 -29.8822 -29.8818 -29.5061 -29.5061
    -3.5110  -3.3126  -3.0088  -2.9612  -2.8955  -2.8802  -2.6956  -2.6465
    -2.6241  -2.5458  -2.5183  -2.4485  -2.3093  -2.2422  -2.1859  -2.1455
    -1.9488  -1.8401  -1.7950  -1.6744  -1.6583  -1.5859  -1.4520  -1.4469
    -1.4024  -1.3416  -1.3167  -1.2594  -1.2354  -1.1675  -1.0729  -1.0116
    -0.8878  -0.8459   0.0131   0.0142   0.3521   0.4641   0.5146   0.7332
     0.8641   0.8736   0.9838   1.2093   1.4904   1.6535   1.6995   1.8634
     1.9080   1.9682   2.0935   2.1948   2.3026   2.3417   2.3716   2.4727
     2.5818   2.6137   3.4971

          k =-0.0885-0.1493 0.0000 ( 32624 PWs)   bands (ev):

   -54.0659 -54.0659 -54.0013 -54.0012 -53.8304 -53.8303 -30.3374 -30.3374
   -30.1490 -30.1490 -30.1029 -30.1028 -30.0536 -30.0535 -29.9846 -29.9846
   -29.9461 -29.9460 -29.9171 -29.9171 -29.8821 -29.8820 -29.5061 -29.5060
    -3.4291  -3.4291  -2.9989  -2.9988  -2.8919  -2.8919  -2.6606  -2.6606
    -2.5667  -2.5667  -2.4916  -2.4916  -2.2794  -2.2794  -2.1786  -2.1786
    -1.8781  -1.8781  -1.7219  -1.7219  -1.6110  -1.6110  -1.4510  -1.4510
    -1.3711  -1.3711  -1.2665  -1.2665  -1.2058  -1.2058  -1.0236  -1.0236
    -0.8681  -0.8681   0.0378   0.0378   0.4460   0.4460   0.5126   0.5126
     0.8534   0.8534   1.0744   1.0744   1.6090   1.6091   1.7556   1.7556
     1.9698   1.9698   2.1857   2.1857   2.2246   2.2246   2.3856   2.3856
     2.5580   2.5580   3.5078

     the Fermi energy is     1.3328 ev

!    total energy              =   -1123.00714868 Ry
     estimated scf accuracy    <       0.00000588 Ry
     smearing contrib. (-TS)   =      -0.06007183 Ry
     internal energy E=F+TS    =   -1122.94707685 Ry

     The total energy is F=E-TS. E is the sum of the following terms:
     one-electron contribution =   -9837.76359295 Ry
     hartree contribution      =    4955.77086521 Ry
     xc contribution           =    -249.55852473 Ry
     ewald contribution        =    4008.60417561 Ry
     electric field correction =       0.00000000 Ry

     convergence has been achieved in  14 iterations

     negative rho (up, down):  1.234E-03 0.000E+00

     Forces acting on atoms (cartesian axes, Ry/au):

     atom    1 type  1   force =     0.00000370    0.00836984    0.02506803
     atom    2 type  1   force =     0.00000142    0.00836833    0.02506935
     atom    3 type  2   force =    -0.00000042   -0.01562497   -0.00285144
     atom    4 type  2   force =    -0.00000053   -0.01562715   -0.00285002
     atom    5 type  1   force =     0.00000468    0.00146114   -0.01274256
     atom    6 type  1   force =    -0.00000013    0.00145672   -0.01274985
     atom    7 type  2   force =    -0.00000009    0.00530901   -0.01293608
     atom    8 type  2   force =    -0.00000069    0.00530782   -0.01293633
     atom    9 type  1   force =    -0.00000410   -0.00029794    0.00137932
     atom   10 type  1   force =     0.00000026   -0.00029906    0.00137179
     atom   11 type  2   force =    -0.00000329    0.00078784    0.00208898
     atom   12 type  2   force =    -0.00000082    0.00078842    0.00208881

     Total force =     0.051339     Total SCF correction =     0.006175
     SCF correction compared to forces is large: reduce conv_thr to get better values

     Writing output data file ./Nb2Pd2/Nb2Pd2_beef.save/

     init_run     :     52.99s CPU     67.61s WALL (       1 calls)
     electrons    :   1123.70s CPU   1445.24s WALL (       1 calls)
     forces       :     18.29s CPU     23.02s WALL (       1 calls)

     Called by init_run:
     wfcinit      :     42.60s CPU     54.87s WALL (       1 calls)
     potinit      :      7.29s CPU      7.67s WALL (       1 calls)
     hinit0       :      2.16s CPU      3.59s WALL (       1 calls)

     Called by electrons:
     c_bands      :    979.42s CPU   1249.62s WALL (      14 calls)
     sum_band     :    128.40s CPU    172.58s WALL (      14 calls)
     v_of_rho     :     14.63s CPU     19.24s WALL (      15 calls)
     newd         :      7.58s CPU     10.04s WALL (      15 calls)
     mix_rho      :      0.29s CPU      0.57s WALL (      14 calls)
     vdW_kernel   :      5.67s CPU      5.73s WALL (       1 calls)

     Called by c_bands:
     init_us_2    :      3.95s CPU      4.11s WALL (    2220 calls)
     cegterg      :    963.28s CPU   1227.95s WALL (    1036 calls)

     Called by *egterg:
     cdiaghg      :     93.14s CPU    108.16s WALL (    4740 calls)
     h_psi        :    523.09s CPU    682.38s WALL (    4814 calls)
     s_psi        :    103.57s CPU    103.67s WALL (    4814 calls)
     g_psi        :      0.62s CPU      0.66s WALL (    3704 calls)

     Called by h_psi:
     h_psi:calbec :    111.89s CPU    152.31s WALL (    4814 calls)
     vloc_psi     :    304.72s CPU    423.21s WALL (    4814 calls)
     add_vuspsi   :    105.39s CPU    105.62s WALL (    4814 calls)

     General routines
     calbec       :    173.10s CPU    233.66s WALL (    6146 calls)
     fft          :      5.81s CPU     13.13s WALL (    1004 calls)
     ffts         :      0.04s CPU      0.09s WALL (      29 calls)
     fftw         :    356.02s CPU    494.02s WALL (  481304 calls)
     interpolate  :      0.11s CPU      0.19s WALL (      15 calls)

     Parallel routines
     fft_scatt_xy :     21.25s CPU     29.31s WALL (  482337 calls)
     fft_scatt_yz :    104.18s CPU    183.72s WALL (  482337 calls)

     PWSCF        :  20m 5.94s CPU  26m40.46s WALL


   This run was terminated on:  21: 9:32  23Jun2022            

=------------------------------------------------------------------------------=
   JOB DONE.
=------------------------------------------------------------------------------=
