
     Program PWSCF v.6.6 starts on 24Jun2022 at 13:51: 0 

     This program is part of the open-source Quantum ESPRESSO suite
     for quantum simulation of materials; please cite
         "P. Giannozzi et al., J. Phys.:Condens. Matter 21 395502 (2009);
         "P. Giannozzi et al., J. Phys.:Condens. Matter 29 465901 (2017);
          URL http://www.quantum-espresso.org", 
     in publications or presentations arising from this work. More details at
     http://www.quantum-espresso.org/quote

     Parallel version (MPI), running on    37 processors

     MPI processes distributed on     1 nodes
     R & G space division:  proc/nbgrp/npool/nimage =      37
     Fft bands division:     nmany     =       1
     Reading input from Nb2Tc2.in
Warning: card &CELL ignored
Warning: card / ignored

     Current dimensions of program PWSCF are:
     Max number of different atomic species (ntypx) = 10
     Max number of k-points (npk) =  40000
     Max angular momentum in pseudopotentials (lmaxx) =  3
     Presently stress not available with electric field and gates

     Message from routine cell_base_init:
     DEPRECATED: use true lattice parameter, not A to a.u. conversion factor
     file Nb.pbe-spn-rrkjus_psl.1.0.0.UPF: wavefunction(s)  4S 4P renormalized
     file Tc.pbe-spn-rrkjus_psl.0.3.0.UPF: wavefunction(s)  4S 4P renormalized

     **************************************************************************
     Initializing libbeef V0.1.2 with the BEEF-vdW functional.
     Citation: Wellendorff et al., PRB 85, 235149 (2012).
     **************************************************************************


     IMPORTANT: XC functional enforced from input :
     Exchange-correlation= BEEF-VDW
                           (   1   4  43  14   2   0   0)
     Any further DFT definition will be discarded
     Please, verify this is what you really want


     Subspace diagonalization in iterative solution of the eigenvalue problem:
     a serial algorithm will be used

     Found symmetry operation: I + (  0.5000 -0.5000  0.0000)
     This is a supercell, fractional translations are disabled

     Parallelization info
     --------------------
     sticks:   dense  smooth     PW     G-vecs:    dense   smooth      PW
     Min         121      48     13                28005     7082    1059
     Max         122      49     14                28024     7103    1076
     Sum        4491    1805    515              1036499   262343   39447



     bravais-lattice index     =            0
     lattice parameter (alat)  =       1.8897  a.u.
     unit-cell volume          =    4742.9219 (a.u.)^3
     number of atoms/cell      =           12
     number of atomic types    =            2
     number of electrons       =       168.00
     number of Kohn-Sham states=          101
     kinetic-energy cutoff     =      55.1240  Ry
     charge density cutoff     =     551.2396  Ry
     convergence threshold     =      1.0E-05
     mixing beta               =       0.1000
     number of iterations used =           10  plain     mixing
     Exchange-correlation= BEEF-VDW
                           (   1   4  43  14   2   0   0)

     celldm(1)=   1.889726  celldm(2)=   0.000000  celldm(3)=   0.000000
     celldm(4)=   0.000000  celldm(5)=   0.000000  celldm(6)=   0.000000

     crystal axes: (cart. coord. in units of alat)
               a(1) = (   5.511233   0.000000   0.000000 )  
               a(2) = (   1.804676   5.207382   0.000000 )  
               a(3) = (   0.000000   0.000000  24.489575 )  

     reciprocal axes: (cart. coord. in units 2 pi/alat)
               b(1) = (  0.181448 -0.062883  0.000000 )  
               b(2) = (  0.000000  0.192035  0.000000 )  
               b(3) = (  0.000000  0.000000  0.040834 )  


     PseudoPot. # 1 for Nb read from file:
     ../pseudo/Nb.pbe-spn-rrkjus_psl.1.0.0.UPF
     MD5 check sum: 6ee677a9f002bd3e3657f443f129faad
     Pseudo is Ultrasoft + core correction, Zval = 13.0
     Generated using "atomic" code by A. Dal Corso v.6.2.2
     Using radial grid of 1227 points,  6 beta functions with: 
                l(1) =   0
                l(2) =   0
                l(3) =   1
                l(4) =   1
                l(5) =   2
                l(6) =   2
     Q(r) pseudized with 0 coefficients 


     PseudoPot. # 2 for Tc read from file:
     ../pseudo/Tc.pbe-spn-rrkjus_psl.0.3.0.UPF
     MD5 check sum: 5f147c0bf103030af994b79b1f5562e4
     Pseudo is Ultrasoft + core correction, Zval = 15.0
     Generated using "atomic" code by A. Dal Corso v.6.2.2
     Using radial grid of 1231 points,  6 beta functions with: 
                l(1) =   0
                l(2) =   0
                l(3) =   1
                l(4) =   1
                l(5) =   2
                l(6) =   2
     Q(r) pseudized with 0 coefficients 


     atomic species   valence    mass     pseudopotential
        Nb            13.00    92.90637     Nb( 1.00)
        Tc            15.00    97.90721     Tc( 1.00)

     No symmetry found



   Cartesian axes

     site n.     atom                  positions (alat units)
         1           Nb  tau(   1) = (   0.0000000   0.0000000  10.0000000  )
         2           Nb  tau(   2) = (   3.6579545   2.6036911  10.0000000  )
         3           Tc  tau(   3) = (   2.7556164   0.0000000  10.0000000  )
         4           Tc  tau(   4) = (   0.9023382   2.6036911  10.0000000  )
         5           Nb  tau(   5) = (   5.5112328   3.9228338  12.2447873  )
         6           Nb  tau(   6) = (   1.8532782   1.3191427  12.2447873  )
         7           Tc  tau(   7) = (   2.7556164   3.9228338  12.2447873  )
         8           Tc  tau(   8) = (   4.6088946   1.3191427  12.2447873  )
         9           Nb  tau(   9) = (   3.6860484   2.6236879  14.4832697  )
        10           Nb  tau(  10) = (   0.0280931   0.0199962  14.4832701  )
        11           Tc  tau(  11) = (   0.9330288   2.6255382  14.3674075  )
        12           Tc  tau(  12) = (   2.7863049   0.0218436  14.3674060  )

     number of k points=    74  Fermi-Dirac smearing, width (Ry)=  0.0100
                       cart. coord. in units 2pi/alat
        k(    1) = (   0.0000000   0.0000000   0.0000000), wk =   0.0138889
        k(    2) = (   0.0000000   0.0160029   0.0000000), wk =   0.0277778
        k(    3) = (   0.0000000   0.0320058   0.0000000), wk =   0.0277778
        k(    4) = (   0.0000000   0.0480088   0.0000000), wk =   0.0277778
        k(    5) = (   0.0000000   0.0640117   0.0000000), wk =   0.0277778
        k(    6) = (   0.0000000   0.0800146   0.0000000), wk =   0.0277778
        k(    7) = (   0.0000000  -0.0960175   0.0000000), wk =   0.0138889
        k(    8) = (   0.0151206  -0.0052402   0.0000000), wk =   0.0277778
        k(    9) = (   0.0151206   0.0107627   0.0000000), wk =   0.0277778
        k(   10) = (   0.0151206   0.0267656   0.0000000), wk =   0.0277778
        k(   11) = (   0.0151206   0.0427685   0.0000000), wk =   0.0277778
        k(   12) = (   0.0151206   0.0587715   0.0000000), wk =   0.0277778
        k(   13) = (   0.0151206   0.0747744   0.0000000), wk =   0.0277778
        k(   14) = (   0.0151206  -0.1012578   0.0000000), wk =   0.0277778
        k(   15) = (   0.0151206  -0.0852548   0.0000000), wk =   0.0277778
        k(   16) = (   0.0151206  -0.0692519   0.0000000), wk =   0.0277778
        k(   17) = (   0.0151206  -0.0532490   0.0000000), wk =   0.0277778
        k(   18) = (   0.0151206  -0.0372461   0.0000000), wk =   0.0277778
        k(   19) = (   0.0151206  -0.0212431   0.0000000), wk =   0.0277778
        k(   20) = (   0.0302413  -0.0104804   0.0000000), wk =   0.0277778
        k(   21) = (   0.0302413   0.0055225   0.0000000), wk =   0.0277778
        k(   22) = (   0.0302413   0.0215254   0.0000000), wk =   0.0277778
        k(   23) = (   0.0302413   0.0375283   0.0000000), wk =   0.0277778
        k(   24) = (   0.0302413   0.0535312   0.0000000), wk =   0.0277778
        k(   25) = (   0.0302413   0.0695342   0.0000000), wk =   0.0277778
        k(   26) = (   0.0302413  -0.1064980   0.0000000), wk =   0.0277778
        k(   27) = (   0.0302413  -0.0904951   0.0000000), wk =   0.0277778
        k(   28) = (   0.0302413  -0.0744921   0.0000000), wk =   0.0277778
        k(   29) = (   0.0302413  -0.0584892   0.0000000), wk =   0.0277778
        k(   30) = (   0.0302413  -0.0424863   0.0000000), wk =   0.0277778
        k(   31) = (   0.0302413  -0.0264834   0.0000000), wk =   0.0277778
        k(   32) = (   0.0453619  -0.0157207   0.0000000), wk =   0.0277778
        k(   33) = (   0.0453619   0.0002823   0.0000000), wk =   0.0277778
        k(   34) = (   0.0453619   0.0162852   0.0000000), wk =   0.0277778
        k(   35) = (   0.0453619   0.0322881   0.0000000), wk =   0.0277778
        k(   36) = (   0.0453619   0.0482910   0.0000000), wk =   0.0277778
        k(   37) = (   0.0453619   0.0642939   0.0000000), wk =   0.0277778
        k(   38) = (   0.0453619  -0.1117382   0.0000000), wk =   0.0277778
        k(   39) = (   0.0453619  -0.0957353   0.0000000), wk =   0.0277778
        k(   40) = (   0.0453619  -0.0797324   0.0000000), wk =   0.0277778
        k(   41) = (   0.0453619  -0.0637294   0.0000000), wk =   0.0277778
        k(   42) = (   0.0453619  -0.0477265   0.0000000), wk =   0.0277778
        k(   43) = (   0.0453619  -0.0317236   0.0000000), wk =   0.0277778
        k(   44) = (   0.0604825  -0.0209609   0.0000000), wk =   0.0277778
        k(   45) = (   0.0604825  -0.0049580   0.0000000), wk =   0.0277778
        k(   46) = (   0.0604825   0.0110450   0.0000000), wk =   0.0277778
        k(   47) = (   0.0604825   0.0270479   0.0000000), wk =   0.0277778
        k(   48) = (   0.0604825   0.0430508   0.0000000), wk =   0.0277778
        k(   49) = (   0.0604825   0.0590537   0.0000000), wk =   0.0277778
        k(   50) = (   0.0604825  -0.1169784   0.0000000), wk =   0.0277778
        k(   51) = (   0.0604825  -0.1009755   0.0000000), wk =   0.0277778
        k(   52) = (   0.0604825  -0.0849726   0.0000000), wk =   0.0277778
        k(   53) = (   0.0604825  -0.0689697   0.0000000), wk =   0.0277778
        k(   54) = (   0.0604825  -0.0529667   0.0000000), wk =   0.0277778
        k(   55) = (   0.0604825  -0.0369638   0.0000000), wk =   0.0277778
        k(   56) = (   0.0756032  -0.0262011   0.0000000), wk =   0.0277778
        k(   57) = (   0.0756032  -0.0101982   0.0000000), wk =   0.0277778
        k(   58) = (   0.0756032   0.0058047   0.0000000), wk =   0.0277778
        k(   59) = (   0.0756032   0.0218077   0.0000000), wk =   0.0277778
        k(   60) = (   0.0756032   0.0378106   0.0000000), wk =   0.0277778
        k(   61) = (   0.0756032   0.0538135   0.0000000), wk =   0.0277778
        k(   62) = (   0.0756032  -0.1222187   0.0000000), wk =   0.0277778
        k(   63) = (   0.0756032  -0.1062157   0.0000000), wk =   0.0277778
        k(   64) = (   0.0756032  -0.0902128   0.0000000), wk =   0.0277778
        k(   65) = (   0.0756032  -0.0742099   0.0000000), wk =   0.0277778
        k(   66) = (   0.0756032  -0.0582070   0.0000000), wk =   0.0277778
        k(   67) = (   0.0756032  -0.0422040   0.0000000), wk =   0.0277778
        k(   68) = (  -0.0907238   0.0314413   0.0000000), wk =   0.0138889
        k(   69) = (  -0.0907238   0.0474443   0.0000000), wk =   0.0277778
        k(   70) = (  -0.0907238   0.0634472   0.0000000), wk =   0.0277778
        k(   71) = (  -0.0907238   0.0794501   0.0000000), wk =   0.0277778
        k(   72) = (  -0.0907238   0.0954530   0.0000000), wk =   0.0277778
        k(   73) = (  -0.0907238   0.1114560   0.0000000), wk =   0.0277778
        k(   74) = (  -0.0907238  -0.0645762   0.0000000), wk =   0.0138889

     Dense  grid:  1036499 G-vectors     FFT dimensions: (  80,  80, 360)

     Smooth grid:   262343 G-vectors     FFT dimensions: (  50,  50, 225)

     Estimated max dynamical RAM per process >     214.04 MB

     Estimated total dynamical RAM >       7.73 GB

     Initial potential from superposition of free atoms

     starting charge  167.98836, renormalised to  168.00000

     negative rho (up, down):  6.030E-03 0.000E+00


     %%%%%%%%%%%%%%%%%%%%%%%%%%%%%%%%%%%%%%%%%%%%%%%%%%%%%%%%%%%%%%%%%%%%%%%%
     %                                                                      %
     % You are using vdW-DF, which was implemented by the Thonhauser group. %
     % Please cite the following two papers that made this development      %
     % possible and the two reviews that describe the various versions:     %
     %                                                                      %
     %   T. Thonhauser et al., PRL 115, 136402 (2015).                      %
     %   T. Thonhauser et al., PRB 76, 125112 (2007).                       %
     %   K. Berland et al., Rep. Prog. Phys. 78, 066501 (2015).             %
     %   D.C. Langreth et al., J. Phys.: Condens. Matter 21, 084203 (2009). %
     %                                                                      %
     %                                                                      %
     % If you are calculating the stress with vdW-DF, please also cite:     %
     %                                                                      %
     %   R. Sabatini et al., J. Phys.: Condens. Matter 24, 424209 (2012).   %
     %                                                                      %
     %%%%%%%%%%%%%%%%%%%%%%%%%%%%%%%%%%%%%%%%%%%%%%%%%%%%%%%%%%%%%%%%%%%%%%%%



     Adding external electric field

     Computed dipole along edir(3) : 
        Dipole                0.0002 Ry au,          0.0005 Debye
        Dipole field          0.0000 Ry au, 

        Potential amp.       -0.0000 Ry
        Total length         45.1216 bohr

     Starting wfcs are  156 randomized atomic wfcs

     total cpu time spent up to now is      154.8 secs

     Self-consistent Calculation

     iteration #  1     ecut=    55.12 Ry     beta= 0.10
     Davidson diagonalization with overlap
     ethr =  1.00E-02,  avg # of iterations =  2.0

     negative rho (up, down):  5.997E-03 0.000E+00

     Adding external electric field

     Computed dipole along edir(3) : 
        Dipole               -0.0587 Ry au,         -0.1492 Debye
        Dipole field         -0.0002 Ry au, 

        Potential amp.        0.0140 Ry
        Total length         45.1216 bohr


     total cpu time spent up to now is      406.2 secs

     total energy              =   -1799.21576319 Ry
     estimated scf accuracy    <       7.34144828 Ry

     iteration #  2     ecut=    55.12 Ry     beta= 0.10
     Davidson diagonalization with overlap
     ethr =  4.37E-03,  avg # of iterations =  2.0

     negative rho (up, down):  5.963E-03 0.000E+00

     Adding external electric field

     Computed dipole along edir(3) : 
        Dipole                0.3521 Ry au,          0.8949 Debye
        Dipole field          0.0009 Ry au, 

        Potential amp.       -0.0842 Ry
        Total length         45.1216 bohr


     total cpu time spent up to now is      638.3 secs

     total energy              =   -1799.63450165 Ry
     estimated scf accuracy    <       1.20478403 Ry

     iteration #  3     ecut=    55.12 Ry     beta= 0.10
     Davidson diagonalization with overlap
     ethr =  7.17E-04,  avg # of iterations =  5.2

     negative rho (up, down):  6.039E-03 0.000E+00

     Adding external electric field

     Computed dipole along edir(3) : 
        Dipole               -0.1126 Ry au,         -0.2862 Debye
        Dipole field         -0.0003 Ry au, 

        Potential amp.        0.0269 Ry
        Total length         45.1216 bohr


     total cpu time spent up to now is      902.2 secs

     total energy              =   -1799.62598194 Ry
     estimated scf accuracy    <       6.08453870 Ry

     iteration #  4     ecut=    55.12 Ry     beta= 0.10
     Davidson diagonalization with overlap
     ethr =  7.17E-04,  avg # of iterations =  2.1

     negative rho (up, down):  6.049E-03 0.000E+00

     Adding external electric field

     Computed dipole along edir(3) : 
        Dipole                0.0195 Ry au,          0.0495 Debye
        Dipole field          0.0001 Ry au, 

        Potential amp.       -0.0047 Ry
        Total length         45.1216 bohr


     total cpu time spent up to now is     1126.9 secs

     total energy              =   -1799.71334473 Ry
     estimated scf accuracy    <       1.06094598 Ry

     iteration #  5     ecut=    55.12 Ry     beta= 0.10
     Davidson diagonalization with overlap
     ethr =  6.32E-04,  avg # of iterations =  1.0

     negative rho (up, down):  6.202E-03 0.000E+00

     Adding external electric field

     Computed dipole along edir(3) : 
        Dipole                0.0347 Ry au,          0.0882 Debye
        Dipole field          0.0001 Ry au, 

        Potential amp.       -0.0083 Ry
        Total length         45.1216 bohr


     total cpu time spent up to now is     1318.9 secs

     total energy              =   -1799.67342075 Ry
     estimated scf accuracy    <       0.20964168 Ry

     iteration #  6     ecut=    55.12 Ry     beta= 0.10
     Davidson diagonalization with overlap
     ethr =  1.25E-04,  avg # of iterations =  6.5

     negative rho (up, down):  6.138E-03 0.000E+00

     Adding external electric field

     Computed dipole along edir(3) : 
        Dipole                0.0301 Ry au,          0.0765 Debye
        Dipole field          0.0001 Ry au, 

        Potential amp.       -0.0072 Ry
        Total length         45.1216 bohr


     total cpu time spent up to now is     1607.9 secs

     total energy              =   -1799.69535198 Ry
     estimated scf accuracy    <       0.11084604 Ry

     iteration #  7     ecut=    55.12 Ry     beta= 0.10
     Davidson diagonalization with overlap
     ethr =  6.60E-05,  avg # of iterations =  4.9

     negative rho (up, down):  6.192E-03 0.000E+00

     Adding external electric field

     Computed dipole along edir(3) : 
        Dipole                0.0372 Ry au,          0.0946 Debye
        Dipole field          0.0001 Ry au, 

        Potential amp.       -0.0089 Ry
        Total length         45.1216 bohr


     total cpu time spent up to now is     1857.8 secs

     total energy              =   -1799.70575566 Ry
     estimated scf accuracy    <       0.05797389 Ry

     iteration #  8     ecut=    55.12 Ry     beta= 0.10
     Davidson diagonalization with overlap
     ethr =  3.45E-05,  avg # of iterations =  6.0

     negative rho (up, down):  6.480E-03 0.000E+00

     Adding external electric field

     Computed dipole along edir(3) : 
        Dipole                0.0384 Ry au,          0.0976 Debye
        Dipole field          0.0001 Ry au, 

        Potential amp.       -0.0092 Ry
        Total length         45.1216 bohr


     total cpu time spent up to now is     2137.1 secs

     total energy              =   -1799.70323050 Ry
     estimated scf accuracy    <       0.05694775 Ry

     iteration #  9     ecut=    55.12 Ry     beta= 0.10
     Davidson diagonalization with overlap
     ethr =  3.39E-05,  avg # of iterations =  2.0

     negative rho (up, down):  6.557E-03 0.000E+00

     Adding external electric field

     Computed dipole along edir(3) : 
        Dipole                0.0329 Ry au,          0.0836 Debye
        Dipole field          0.0001 Ry au, 

        Potential amp.       -0.0079 Ry
        Total length         45.1216 bohr


     total cpu time spent up to now is     2368.2 secs

     total energy              =   -1799.70848515 Ry
     estimated scf accuracy    <       0.00422652 Ry

     iteration # 10     ecut=    55.12 Ry     beta= 0.10
     Davidson diagonalization with overlap
     c_bands:  1 eigenvalues not converged
     ethr =  2.52E-06,  avg # of iterations = 11.8

     negative rho (up, down):  6.697E-03 0.000E+00

     Adding external electric field

     Computed dipole along edir(3) : 
        Dipole                0.0387 Ry au,          0.0984 Debye
        Dipole field          0.0001 Ry au, 

        Potential amp.       -0.0093 Ry
        Total length         45.1216 bohr


     total cpu time spent up to now is     2781.2 secs

     total energy              =   -1799.70882499 Ry
     estimated scf accuracy    <       0.01431136 Ry

     iteration # 11     ecut=    55.12 Ry     beta= 0.10
     Davidson diagonalization with overlap
     ethr =  2.52E-06,  avg # of iterations =  5.7

     negative rho (up, down):  6.635E-03 0.000E+00

     Adding external electric field

     Computed dipole along edir(3) : 
        Dipole                0.0391 Ry au,          0.0993 Debye
        Dipole field          0.0001 Ry au, 

        Potential amp.       -0.0093 Ry
        Total length         45.1216 bohr


     total cpu time spent up to now is     3070.6 secs

     total energy              =   -1799.71007457 Ry
     estimated scf accuracy    <       0.00265382 Ry

     iteration # 12     ecut=    55.12 Ry     beta= 0.10
     Davidson diagonalization with overlap
     ethr =  1.58E-06,  avg # of iterations =  2.4

     negative rho (up, down):  6.506E-03 0.000E+00

     Adding external electric field

     Computed dipole along edir(3) : 
        Dipole                0.0394 Ry au,          0.1001 Debye
        Dipole field          0.0001 Ry au, 

        Potential amp.       -0.0094 Ry
        Total length         45.1216 bohr


     total cpu time spent up to now is     3312.3 secs

     total energy              =   -1799.71020647 Ry
     estimated scf accuracy    <       0.00200464 Ry

     iteration # 13     ecut=    55.12 Ry     beta= 0.10
     Davidson diagonalization with overlap
     ethr =  1.19E-06,  avg # of iterations =  1.0

     negative rho (up, down):  6.375E-03 0.000E+00

     Adding external electric field

     Computed dipole along edir(3) : 
        Dipole                0.0380 Ry au,          0.0965 Debye
        Dipole field          0.0001 Ry au, 

        Potential amp.       -0.0091 Ry
        Total length         45.1216 bohr


     total cpu time spent up to now is     3504.5 secs

     total energy              =   -1799.70995580 Ry
     estimated scf accuracy    <       0.00144955 Ry

     iteration # 14     ecut=    55.12 Ry     beta= 0.10
     Davidson diagonalization with overlap
     ethr =  8.63E-07,  avg # of iterations =  3.7

     negative rho (up, down):  6.300E-03 0.000E+00

     Adding external electric field

     Computed dipole along edir(3) : 
        Dipole                0.0375 Ry au,          0.0952 Debye
        Dipole field          0.0001 Ry au, 

        Potential amp.       -0.0090 Ry
        Total length         45.1216 bohr


     total cpu time spent up to now is     3748.4 secs

     total energy              =   -1799.71013574 Ry
     estimated scf accuracy    <       0.00005533 Ry

     iteration # 15     ecut=    55.12 Ry     beta= 0.10
     Davidson diagonalization with overlap
     ethr =  3.29E-08,  avg # of iterations =  5.4

     negative rho (up, down):  6.240E-03 0.000E+00

     Adding external electric field

     Computed dipole along edir(3) : 
        Dipole                0.0374 Ry au,          0.0951 Debye
        Dipole field          0.0001 Ry au, 

        Potential amp.       -0.0089 Ry
        Total length         45.1216 bohr


     total cpu time spent up to now is     4076.9 secs

     total energy              =   -1799.71015654 Ry
     estimated scf accuracy    <       0.00005824 Ry

     iteration # 16     ecut=    55.12 Ry     beta= 0.10
     Davidson diagonalization with overlap
     ethr =  3.29E-08,  avg # of iterations =  1.4

     negative rho (up, down):  6.188E-03 0.000E+00

     Adding external electric field

     Computed dipole along edir(3) : 
        Dipole                0.0376 Ry au,          0.0956 Debye
        Dipole field          0.0001 Ry au, 

        Potential amp.       -0.0090 Ry
        Total length         45.1216 bohr


     total cpu time spent up to now is     4280.7 secs

     total energy              =   -1799.71015838 Ry
     estimated scf accuracy    <       0.00002254 Ry

     iteration # 17     ecut=    55.12 Ry     beta= 0.10
     Davidson diagonalization with overlap
     ethr =  1.34E-08,  avg # of iterations =  4.1

     negative rho (up, down):  5.968E-03 0.000E+00

     Adding external electric field

     Computed dipole along edir(3) : 
        Dipole                0.0240 Ry au,          0.0609 Debye
        Dipole field          0.0001 Ry au, 

        Potential amp.       -0.0057 Ry
        Total length         45.1216 bohr


     total cpu time spent up to now is     4537.3 secs

     End of self-consistent calculation

          k = 0.0000 0.0000 0.0000 ( 32819 PWs)   bands (ev):

   -64.8861 -64.8752 -64.4511 -64.4409 -64.4375 -64.4270 -53.2506 -53.2480
   -53.2222 -53.2216 -53.1549 -53.1328 -36.9090 -36.8391 -36.8243 -36.7850
   -36.7778 -36.7466 -36.4558 -36.4318 -36.4154 -36.3996 -36.3952 -36.3803
   -36.3729 -36.3633 -36.3609 -36.3454 -36.2912 -36.2766 -29.3709 -29.3690
   -29.3571 -29.3279 -29.2986 -29.2960 -29.2770 -29.2739 -29.2454 -29.1756
   -29.1625 -29.1072 -29.0943 -29.0780 -29.0299 -29.0174 -29.0036 -28.9914
    -3.9320  -2.5483  -2.4818  -2.3823  -2.3540  -2.2540  -2.2159  -2.1470
    -2.1058  -2.0890  -1.4795  -1.1431  -1.1283  -0.7919  -0.7709  -0.6672
    -0.5795  -0.5095  -0.3381  -0.3315  -0.2303  -0.1094   0.1064   0.7081
     0.8610   1.0095   1.1164   1.4242   1.5110   1.8166   1.9388   2.1848
     2.2514   2.7535   2.8301   3.0766   3.2856   3.4363   3.4490   3.5678
     3.6834   3.7316   3.8771   3.9561   3.9619   3.9652   4.0662   4.0924
     4.1113   4.2612   4.2668   4.3006   4.4070

          k = 0.0000 0.0160 0.0000 ( 32801 PWs)   bands (ev):

   -64.8859 -64.8753 -64.4510 -64.4410 -64.4373 -64.4272 -53.2502 -53.2475
   -53.2228 -53.2222 -53.1546 -53.1332 -36.9059 -36.8380 -36.8236 -36.7848
   -36.7778 -36.7490 -36.4526 -36.4288 -36.4142 -36.3987 -36.3947 -36.3800
   -36.3730 -36.3633 -36.3608 -36.3457 -36.2936 -36.2789 -29.3711 -29.3701
   -29.3585 -29.3294 -29.2968 -29.2899 -29.2760 -29.2701 -29.2454 -29.1800
   -29.1669 -29.1064 -29.0918 -29.0790 -29.0307 -29.0234 -29.0093 -28.9973
    -3.8779  -2.5023  -2.4304  -2.3286  -2.3237  -2.2261  -2.1840  -2.1154
    -2.0653  -2.0584  -1.4313  -1.1377  -1.0730  -0.7776  -0.7409  -0.6415
    -0.5587  -0.4883  -0.3445  -0.3297  -0.2160  -0.0814   0.1170   0.7155
     0.8002   1.0062   1.0608   1.3943   1.4900   1.7494   1.8992   2.1407
     2.2274   2.5765   2.7691   3.0660   3.2469   3.3551   3.3725   3.4543
     3.6706   3.6825   3.8342   3.8703   3.9252   3.9795   4.0462   4.1264
     4.1308   4.1694   4.3069   4.3073   4.3448

          k = 0.0000 0.0320 0.0000 ( 32785 PWs)   bands (ev):

   -64.8854 -64.8759 -64.4504 -64.4415 -64.4368 -64.4277 -53.2489 -53.2464
   -53.2243 -53.2237 -53.1536 -53.1344 -36.8969 -36.8348 -36.8218 -36.7840
   -36.7776 -36.7561 -36.4436 -36.4204 -36.4109 -36.3964 -36.3932 -36.3790
   -36.3735 -36.3635 -36.3602 -36.3465 -36.3006 -36.2857 -29.3731 -29.3718
   -29.3617 -29.3335 -29.2879 -29.2756 -29.2729 -29.2605 -29.2440 -29.1911
   -29.1784 -29.1051 -29.0886 -29.0798 -29.0405 -29.0332 -29.0256 -29.0143
    -3.7201  -2.3672  -2.2822  -2.2605  -2.1771  -2.1426  -2.0742  -2.0276
    -1.9692  -1.9468  -1.2882  -1.1421  -0.9039  -0.7373  -0.6542  -0.5656
    -0.5037  -0.4308  -0.3814  -0.3139  -0.1766   0.0188   0.1480   0.6354
     0.7230   0.9025   1.0480   1.0984   1.5475   1.6540   1.8026   2.0028
     2.1625   2.1868   2.5543   2.9263   2.9650   3.1059   3.3566   3.4225
     3.5053   3.5813   3.7493   3.7604   3.7688   3.8544   3.8720   3.9759
     4.1588   4.1822   4.1885   4.3372   4.3758

          k = 0.0000 0.0480 0.0000 ( 32775 PWs)   bands (ev):

   -64.8845 -64.8767 -64.4496 -64.4423 -64.4359 -64.4285 -53.2469 -53.2444
   -53.2269 -53.2260 -53.1519 -53.1363 -36.8829 -36.8304 -36.8194 -36.7828
   -36.7776 -36.7675 -36.4296 -36.4080 -36.4062 -36.3932 -36.3906 -36.3774
   -36.3743 -36.3640 -36.3594 -36.3479 -36.3118 -36.2967 -29.3772 -29.3746
   -29.3640 -29.3392 -29.2716 -29.2681 -29.2561 -29.2516 -29.2332 -29.2052
   -29.1930 -29.1043 -29.0947 -29.0741 -29.0647 -29.0507 -29.0404 -29.0368
    -3.4726  -2.2085  -2.1498  -2.0616  -2.0152  -1.9449  -1.9111  -1.8729
    -1.8368  -1.7608  -1.1567  -1.0555  -0.6950  -0.6773  -0.5299  -0.4774
    -0.4417  -0.3998  -0.3601  -0.3097  -0.0721   0.1961   0.1994   0.4558
     0.6639   0.6761   0.7387   1.1137   1.4163   1.6761   1.7055   1.7431
     1.8368   2.0759   2.1183   2.6610   2.6638   2.9286   3.0468   3.3048
     3.3340   3.4806   3.5780   3.6002   3.6118   3.7324   3.8398   3.8846
     3.9784   4.0116   4.1038   4.2971   4.3883

          k = 0.0000 0.0640 0.0000 ( 32784 PWs)   bands (ev):

   -64.8833 -64.8779 -64.4485 -64.4434 -64.4348 -64.4296 -53.2442 -53.2420
   -53.2302 -53.2289 -53.1497 -53.1387 -36.8652 -36.8261 -36.8170 -36.7824
   -36.7814 -36.7777 -36.4124 -36.4012 -36.3968 -36.3900 -36.3837 -36.3751
   -36.3750 -36.3649 -36.3582 -36.3495 -36.3266 -36.3111 -29.3814 -29.3793
   -29.3635 -29.3456 -29.2616 -29.2517 -29.2484 -29.2298 -29.2195 -29.2112
   -29.2037 -29.1139 -29.1038 -29.0862 -29.0822 -29.0735 -29.0649 -29.0411
    -3.1603  -2.2034  -1.8808  -1.8607  -1.7739  -1.7628  -1.7040  -1.7022
    -1.6354  -1.5283  -1.1879  -0.7445  -0.6022  -0.5726  -0.5164  -0.5076
    -0.3706  -0.3382  -0.2914  -0.2699   0.1070   0.2140   0.3593   0.4067
     0.4345   0.5560   0.5852   1.0327   1.3324   1.4220   1.5919   1.5992
     1.6228   1.7162   2.0200   2.2189   2.4910   2.5800   2.9482   2.9520
     3.0264   3.3620   3.4521   3.4673   3.5541   3.6154   3.7710   3.8450
     3.8683   3.9150   3.9591   4.0265   4.1197

          k = 0.0000 0.0800 0.0000 ( 32801 PWs)   bands (ev):

   -64.8820 -64.8792 -64.4473 -64.4446 -64.4336 -64.4308 -53.2411 -53.2390
   -53.2339 -53.2322 -53.1471 -53.1415 -36.8459 -36.8235 -36.8152 -36.7993
   -36.7801 -36.7781 -36.3969 -36.3957 -36.3935 -36.3878 -36.3736 -36.3722
   -36.3687 -36.3655 -36.3569 -36.3510 -36.3437 -36.3282 -29.3844 -29.3834
   -29.3610 -29.3518 -29.2533 -29.2480 -29.2333 -29.2319 -29.2151 -29.1883
   -29.1799 -29.1470 -29.1176 -29.1098 -29.1027 -29.0948 -29.0581 -29.0461
    -2.8219  -2.2954  -1.7281  -1.6419  -1.5909  -1.5548  -1.5394  -1.4993
    -1.4242  -1.2828  -1.2391  -0.6611  -0.5936  -0.5890  -0.5072  -0.3928
    -0.3723  -0.3597  -0.2808  -0.1748   0.0699   0.2228   0.2344   0.4051
     0.5477   0.6481   0.8724   0.9339   1.1194   1.2482   1.2743   1.4341
     1.4838   1.6870   1.8593   1.8981   2.3732   2.4351   2.4633   2.6157
     3.0779   3.3344   3.3794   3.4068   3.4229   3.4476   3.5033   3.6490
     3.7890   3.8200   3.9070   3.9558   3.9790

          k = 0.0000-0.0960 0.0000 ( 32788 PWs)   bands (ev):

   -64.8806 -64.8806 -64.4459 -64.4459 -64.4322 -64.4322 -53.2375 -53.2375
   -53.2357 -53.2357 -53.1443 -53.1443 -36.8286 -36.8286 -36.8120 -36.8120
   -36.7790 -36.7790 -36.3941 -36.3941 -36.3877 -36.3877 -36.3696 -36.3696
   -36.3626 -36.3626 -36.3549 -36.3549 -36.3460 -36.3460 -29.3852 -29.3852
   -29.3571 -29.3571 -29.2443 -29.2443 -29.2404 -29.2404 -29.1828 -29.1828
   -29.1539 -29.1539 -29.1460 -29.1460 -29.1000 -29.1000 -29.0518 -29.0518
    -2.5125  -2.5125  -1.6317  -1.6316  -1.5135  -1.5135  -1.3553  -1.3553
    -1.3218  -1.3218  -0.9986  -0.9986  -0.6241  -0.6241  -0.4201  -0.4201
    -0.3529  -0.3529  -0.0699  -0.0699   0.0187   0.0187   0.2569   0.2569
     0.8520   0.8520   0.9120   0.9120   1.0132   1.0132   1.3220   1.3220
     1.6197   1.6197   1.6577   1.6577   2.2985   2.2985   2.4597   2.4597
     3.1874   3.1874   3.3137   3.3137   3.4097   3.4097   3.4614   3.4614
     3.7883   3.7883   3.9363   3.9364   4.0076

          k = 0.0151-0.0052 0.0000 ( 32801 PWs)   bands (ev):

   -64.8859 -64.8753 -64.4510 -64.4410 -64.4373 -64.4272 -53.2502 -53.2475
   -53.2228 -53.2222 -53.1546 -53.1332 -36.9059 -36.8380 -36.8236 -36.7848
   -36.7778 -36.7490 -36.4526 -36.4288 -36.4142 -36.3987 -36.3947 -36.3800
   -36.3730 -36.3633 -36.3608 -36.3457 -36.2936 -36.2789 -29.3711 -29.3701
   -29.3585 -29.3294 -29.2968 -29.2899 -29.2760 -29.2701 -29.2454 -29.1800
   -29.1669 -29.1064 -29.0918 -29.0790 -29.0307 -29.0234 -29.0093 -28.9973
    -3.8779  -2.5023  -2.4304  -2.3286  -2.3237  -2.2261  -2.1840  -2.1154
    -2.0653  -2.0584  -1.4313  -1.1377  -1.0730  -0.7776  -0.7409  -0.6415
    -0.5587  -0.4883  -0.3445  -0.3297  -0.2160  -0.0814   0.1170   0.7155
     0.8002   1.0062   1.0608   1.3943   1.4900   1.7494   1.8992   2.1407
     2.2274   2.5765   2.7691   3.0660   3.2469   3.3551   3.3725   3.4543
     3.6706   3.6825   3.8342   3.8703   3.9252   3.9795   4.0462   4.1264
     4.1308   4.1694   4.3068   4.3073   4.3449

          k = 0.0151 0.0108 0.0000 ( 32774 PWs)   bands (ev):

   -64.8861 -64.8752 -64.4511 -64.4409 -64.4375 -64.4270 -53.2504 -53.2481
   -53.2226 -53.2217 -53.1553 -53.1324 -36.9077 -36.8371 -36.8227 -36.7851
   -36.7772 -36.7463 -36.4544 -36.4304 -36.4131 -36.3984 -36.3938 -36.3803
   -36.3736 -36.3625 -36.3604 -36.3457 -36.2911 -36.2764 -29.3730 -29.3678
   -29.3633 -29.3329 -29.3065 -29.2937 -29.2765 -29.2707 -29.2404 -29.1901
   -29.1747 -29.1021 -29.0884 -29.0799 -29.0326 -29.0179 -29.0045 -28.9924
    -3.8580  -2.5019  -2.4202  -2.3116  -2.3010  -2.2075  -2.1659  -2.0920
    -2.0710  -2.0376  -1.4308  -1.1205  -1.0941  -0.7222  -0.7155  -0.6346
    -0.5581  -0.4769  -0.3312  -0.3085  -0.2066  -0.0679   0.1714   0.7703
     0.8666   1.0141   1.0817   1.3962   1.4578   1.8312   1.8861   2.1621
     2.1773   2.6748   2.6776   3.0012   3.1964   3.2989   3.4174   3.5172
     3.5418   3.5507   3.6872   3.7072   3.9149   3.9270   3.9328   4.0731
     4.0767   4.2221   4.2320   4.3746   4.4245

          k = 0.0151 0.0268 0.0000 ( 32821 PWs)   bands (ev):

   -64.8858 -64.8754 -64.4509 -64.4410 -64.4373 -64.4272 -53.2500 -53.2479
   -53.2235 -53.2224 -53.1554 -53.1326 -36.9034 -36.8342 -36.8207 -36.7849
   -36.7765 -36.7485 -36.4501 -36.4264 -36.4099 -36.3966 -36.3921 -36.3799
   -36.3742 -36.3622 -36.3597 -36.3463 -36.2933 -36.2786 -29.3793 -29.3675
   -29.3647 -29.3382 -29.3079 -29.2895 -29.2753 -29.2651 -29.2360 -29.2047
   -29.1878 -29.0989 -29.0917 -29.0747 -29.0360 -29.0242 -29.0108 -28.9991
    -3.7332  -2.4119  -2.3112  -2.2368  -2.1938  -2.1329  -2.0740  -2.0105
    -1.9977  -1.9577  -1.3347  -1.1385  -0.9714  -0.6419  -0.6369  -0.5786
    -0.5147  -0.4267  -0.3213  -0.2995  -0.1740   0.0138   0.2432   0.7775
     0.8292   0.9982   1.0433   1.2993   1.4434   1.7292   1.8553   2.0611
     2.1201   2.4468   2.4948   2.8012   3.1397   3.1434   3.2339   3.3437
     3.4031   3.4284   3.6087   3.6475   3.7038   3.7504   3.9410   3.9888
     4.0929   4.1047   4.1295   4.4089   4.4522

          k = 0.0151 0.0428 0.0000 ( 32807 PWs)   bands (ev):

   -64.8853 -64.8759 -64.4504 -64.4416 -64.4368 -64.4277 -53.2486 -53.2468
   -53.2255 -53.2238 -53.1548 -53.1335 -36.8937 -36.8300 -36.8181 -36.7842
   -36.7759 -36.7555 -36.4403 -36.4174 -36.4055 -36.3937 -36.3897 -36.3789
   -36.3749 -36.3625 -36.3587 -36.3474 -36.3002 -36.2854 -29.3874 -29.3689
   -29.3636 -29.3444 -29.3005 -29.2777 -29.2674 -29.2592 -29.2313 -29.2207
   -29.2033 -29.0994 -29.0973 -29.0669 -29.0406 -29.0403 -29.0273 -29.0163
    -3.5149  -2.2359  -2.1786  -2.1194  -2.0245  -1.9795  -1.9071  -1.8763
    -1.8523  -1.8310  -1.1653  -1.1454  -0.7881  -0.5514  -0.5490  -0.4974
    -0.3933  -0.3627  -0.3288  -0.3125  -0.0916   0.1784   0.3177   0.6266
     0.7561   0.8378   0.9938   1.1799   1.5172   1.5620   1.7990   1.9601
     1.9614   2.0515   2.2249   2.5785   2.7092   2.9925   3.0403   3.1746
     3.2698   3.2935   3.4398   3.4798   3.5386   3.6442   3.7912   3.9031
     4.0190   4.0641   4.0844   4.2295   4.4295

          k = 0.0151 0.0588 0.0000 ( 32781 PWs)   bands (ev):

   -64.8844 -64.8768 -64.4496 -64.4424 -64.4359 -64.4285 -53.2464 -53.2449
   -53.2282 -53.2261 -53.1533 -53.1351 -36.8795 -36.8257 -36.8157 -36.7833
   -36.7757 -36.7671 -36.4262 -36.4053 -36.4007 -36.3905 -36.3867 -36.3769
   -36.3756 -36.3633 -36.3574 -36.3489 -36.3117 -36.2966 -29.3945 -29.3708
   -29.3613 -29.3506 -29.2843 -29.2602 -29.2540 -29.2527 -29.2357 -29.2237
   -29.2177 -29.1091 -29.0968 -29.0647 -29.0596 -29.0514 -29.0453 -29.0420
    -3.2235  -2.1536  -1.9812  -1.9001  -1.8325  -1.7478  -1.7466  -1.7022
    -1.6516  -1.6487  -1.1970  -0.8694  -0.6370  -0.5431  -0.4746  -0.3979
    -0.3832  -0.3396  -0.3003  -0.2248   0.0753   0.3201   0.4005   0.5242
     0.6356   0.6447   0.7322   1.1869   1.4547   1.5540   1.5979   1.7475
     1.7812   1.8424   1.9464   2.2811   2.4333   2.5594   2.9074   2.9295
     2.9454   3.2087   3.2519   3.2886   3.5289   3.6306   3.6450   3.7055
     3.8215   3.9014   4.0298   4.0451   4.1871

          k = 0.0151 0.0748 0.0000 ( 32790 PWs)   bands (ev):

   -64.8832 -64.8779 -64.4485 -64.4434 -64.4348 -64.4296 -53.2436 -53.2424
   -53.2315 -53.2288 -53.1513 -53.1374 -36.8621 -36.8223 -36.8143 -36.7825
   -36.7821 -36.7759 -36.4095 -36.3966 -36.3952 -36.3877 -36.3799 -36.3760
   -36.3743 -36.3648 -36.3560 -36.3506 -36.3271 -36.3117 -29.3992 -29.3721
   -29.3578 -29.3560 -29.2608 -29.2494 -29.2442 -29.2437 -29.2432 -29.2183
   -29.2081 -29.1222 -29.0963 -29.0893 -29.0830 -29.0738 -29.0524 -29.0508
    -2.8909  -2.2063  -1.7371  -1.6614  -1.6114  -1.5755  -1.5705  -1.5388
    -1.4332  -1.4318  -1.2343  -0.6428  -0.5737  -0.5234  -0.4545  -0.4267
    -0.3937  -0.3139  -0.2636  -0.2084   0.1801   0.2384   0.3695   0.4683
     0.6330   0.6437   0.8819   1.0475   1.2066   1.2692   1.4175   1.6001
     1.6256   1.7691   1.8252   1.9022   2.3626   2.3632   2.3828   2.6037
     2.8737   3.1791   3.1957   3.2947   3.3211   3.4877   3.6040   3.6598
     3.6967   3.7196   3.7812   3.9165   4.0092

          k = 0.0151-0.1013 0.0000 ( 32796 PWs)   bands (ev):

   -64.8819 -64.8793 -64.4472 -64.4447 -64.4335 -64.4309 -53.2404 -53.2393
   -53.2350 -53.2320 -53.1487 -53.1400 -36.8432 -36.8213 -36.8141 -36.8000
   -36.7811 -36.7766 -36.3950 -36.3938 -36.3919 -36.3856 -36.3742 -36.3716
   -36.3677 -36.3645 -36.3547 -36.3519 -36.3451 -36.3296 -29.4006 -29.3721
   -29.3599 -29.3530 -29.2576 -29.2551 -29.2346 -29.2320 -29.2250 -29.1909
   -29.1822 -29.1451 -29.1175 -29.1095 -29.1044 -29.0949 -29.0568 -29.0470
    -2.5637  -2.3797  -1.6236  -1.5803  -1.4822  -1.4614  -1.3685  -1.3248
    -1.3053  -1.2711  -1.2064  -0.8013  -0.6996  -0.5088  -0.4260  -0.3930
    -0.3837  -0.2851  -0.1351  -0.1190   0.0384   0.1625   0.2694   0.2905
     0.8375   0.8558   0.8944   0.9114   0.9875   1.0440   1.2553   1.4025
     1.5820   1.6081   1.6198   1.7214   2.2715   2.2790   2.3919   2.4349
     2.9714   3.1790   3.2110   3.2960   3.3024   3.4099   3.5261   3.5531
     3.6951   3.7268   3.7770   3.8755   4.0038

          k = 0.0151-0.0853 0.0000 ( 32804 PWs)   bands (ev):

   -64.8807 -64.8805 -64.4460 -64.4459 -64.4322 -64.4322 -53.2385 -53.2367
   -53.2359 -53.2354 -53.1458 -53.1429 -36.8287 -36.8268 -36.8130 -36.8128
   -36.7802 -36.7777 -36.3957 -36.3927 -36.3870 -36.3857 -36.3711 -36.3696
   -36.3638 -36.3627 -36.3553 -36.3545 -36.3474 -36.3444 -29.3986 -29.3712
   -29.3612 -29.3470 -29.2646 -29.2625 -29.2231 -29.2199 -29.1879 -29.1754
   -29.1559 -29.1535 -29.1487 -29.1446 -29.1112 -29.0924 -29.0633 -29.0422
    -2.6639  -2.3043  -1.6604  -1.6068  -1.5328  -1.4461  -1.4139  -1.3941
    -1.3813  -1.1444  -1.0970  -0.8295  -0.7001  -0.5262  -0.5057  -0.3823
    -0.3331  -0.3123  -0.1668  -0.0898  -0.0198   0.1448   0.2146   0.3728
     0.4870   0.6166   0.8483   0.8710   0.9972   1.0872   1.2248   1.3109
     1.3513   1.4957   1.8030   1.9272   2.3145   2.3793   2.4860   2.6201
     3.1762   3.2196   3.3060   3.3653   3.4440   3.4601   3.5315   3.5415
     3.7559   3.8489   3.8768   4.0289   4.1068

          k = 0.0151-0.0693 0.0000 ( 32749 PWs)   bands (ev):

   -64.8821 -64.8791 -64.4473 -64.4446 -64.4336 -64.4308 -53.2417 -53.2385
   -53.2329 -53.2323 -53.1457 -53.1427 -36.8474 -36.8246 -36.8169 -36.7995
   -36.7795 -36.7792 -36.3998 -36.3960 -36.3929 -36.3878 -36.3738 -36.3737
   -36.3712 -36.3668 -36.3589 -36.3497 -36.3430 -36.3273 -29.3938 -29.3709
   -29.3590 -29.3405 -29.2729 -29.2637 -29.2154 -29.2070 -29.2026 -29.1872
   -29.1783 -29.1471 -29.1190 -29.1133 -29.1113 -29.0888 -29.0702 -29.0380
    -3.0008  -2.1662  -1.8081  -1.7046  -1.6898  -1.6457  -1.6214  -1.5921
    -1.5552  -1.3580  -1.0646  -0.6786  -0.6467  -0.5365  -0.5123  -0.4478
    -0.3618  -0.3058  -0.2974  -0.2032   0.1185   0.1605   0.1964   0.2293
     0.3633   0.4922   0.5221   0.8774   1.0820   1.2283   1.2895   1.3964
     1.6101   1.7408   1.9244   2.0081   2.4298   2.6250   2.8513   2.9488
     3.1361   3.3535   3.4049   3.4817   3.5141   3.5520   3.8179   3.8633
     3.8965   3.9606   3.9785   4.0211   4.1274

          k = 0.0151-0.0532 0.0000 ( 32764 PWs)   bands (ev):

   -64.8834 -64.8778 -64.4486 -64.4434 -64.4349 -64.4296 -53.2446 -53.2416
   -53.2293 -53.2289 -53.1485 -53.1397 -36.8672 -36.8286 -36.8194 -36.7826
   -36.7809 -36.7790 -36.4142 -36.4049 -36.3961 -36.3908 -36.3886 -36.3760
   -36.3733 -36.3663 -36.3597 -36.3484 -36.3264 -36.3109 -29.3874 -29.3711
   -29.3553 -29.3345 -29.2787 -29.2616 -29.2379 -29.2257 -29.2099 -29.1940
   -29.1878 -29.1133 -29.1074 -29.0876 -29.0831 -29.0775 -29.0707 -29.0345
    -3.3286  -2.1462  -1.9913  -1.9656  -1.8939  -1.8543  -1.8271  -1.7984
    -1.7834  -1.6081  -1.0275  -0.8855  -0.7598  -0.5719  -0.5528  -0.4809
    -0.4160  -0.3727  -0.3072  -0.2756  -0.0160   0.1067   0.2206   0.2974
     0.3858   0.4633   0.6294   0.9786   1.2418   1.3670   1.5860   1.6349
     1.7795   1.8212   2.1278   2.4958   2.5731   2.7577   3.0673   3.3049
     3.3967   3.4766   3.5607   3.5694   3.5939   3.6842   3.9397   3.9428
     3.9942   4.0286   4.0548   4.1298   4.3021

          k = 0.0151-0.0372 0.0000 ( 32773 PWs)   bands (ev):

   -64.8845 -64.8767 -64.4496 -64.4423 -64.4360 -64.4285 -53.2471 -53.2441
   -53.2263 -53.2259 -53.1510 -53.1370 -36.8847 -36.8331 -36.8216 -36.7825
   -36.7786 -36.7677 -36.4314 -36.4096 -36.4092 -36.3944 -36.3934 -36.3779
   -36.3728 -36.3654 -36.3604 -36.3471 -36.3119 -36.2968 -29.3805 -29.3712
   -29.3530 -29.3303 -29.2811 -29.2618 -29.2571 -29.2542 -29.2359 -29.1830
   -29.1754 -29.1124 -29.0905 -29.0806 -29.0675 -29.0500 -29.0395 -29.0319
    -3.6015  -2.2386  -2.1971  -2.1531  -2.0979  -2.0498  -2.0362  -1.9768
    -1.9210  -1.8236  -1.1522  -1.0224  -0.8283  -0.7970  -0.6212  -0.5126
    -0.4717  -0.4406  -0.3919  -0.2870  -0.1364   0.0482   0.0779   0.4717
     0.6821   0.7091   0.7694   1.0156   1.3627   1.6840   1.7727   1.8109
     1.8261   2.2083   2.3132   2.8435   2.8660   3.0675   3.1132   3.4655
     3.4921   3.6419   3.6570   3.7885   3.8701   3.8803   3.9034   4.0005
     4.0422   4.1038   4.1189   4.2966   4.3975

          k = 0.0151-0.0212 0.0000 ( 32829 PWs)   bands (ev):

   -64.8854 -64.8759 -64.4505 -64.4415 -64.4368 -64.4277 -53.2490 -53.2462
   -53.2241 -53.2237 -53.1532 -53.1348 -36.8980 -36.8365 -36.8232 -36.7839
   -36.7783 -36.7563 -36.4447 -36.4215 -36.4129 -36.3973 -36.3945 -36.3791
   -36.3727 -36.3644 -36.3608 -36.3462 -36.3007 -36.2859 -29.3745 -29.3710
   -29.3542 -29.3285 -29.2808 -29.2799 -29.2773 -29.2565 -29.2511 -29.1775
   -29.1672 -29.1103 -29.0931 -29.0786 -29.0407 -29.0305 -29.0250 -29.0136
    -3.7902  -2.4130  -2.3385  -2.2773  -2.2381  -2.1885  -2.1468  -2.0739
    -2.0184  -1.9807  -1.3371  -1.0436  -1.0398  -0.8025  -0.7080  -0.5996
    -0.5147  -0.4579  -0.4002  -0.3123  -0.1903  -0.0493   0.0848   0.6428
     0.7010   0.9328   1.0064   1.1349   1.5420   1.6806   1.8173   2.0119
     2.2264   2.2428   2.7050   3.0528   3.0620   3.1470   3.4170   3.4818
     3.6266   3.7238   3.7853   3.8391   3.9093   3.9929   4.0238   4.0413
     4.1469   4.1859   4.2275   4.3163   4.3427

          k = 0.0302-0.0105 0.0000 ( 32785 PWs)   bands (ev):

   -64.8854 -64.8759 -64.4504 -64.4415 -64.4368 -64.4277 -53.2489 -53.2464
   -53.2243 -53.2237 -53.1536 -53.1344 -36.8969 -36.8348 -36.8218 -36.7840
   -36.7776 -36.7561 -36.4436 -36.4204 -36.4109 -36.3964 -36.3932 -36.3790
   -36.3735 -36.3635 -36.3602 -36.3465 -36.3006 -36.2857 -29.3731 -29.3718
   -29.3617 -29.3335 -29.2879 -29.2756 -29.2729 -29.2605 -29.2440 -29.1911
   -29.1784 -29.1051 -29.0886 -29.0798 -29.0405 -29.0332 -29.0256 -29.0143
    -3.7201  -2.3672  -2.2822  -2.2605  -2.1771  -2.1426  -2.0742  -2.0276
    -1.9692  -1.9468  -1.2882  -1.1421  -0.9039  -0.7373  -0.6542  -0.5656
    -0.5037  -0.4308  -0.3814  -0.3139  -0.1766   0.0188   0.1480   0.6354
     0.7230   0.9025   1.0480   1.0984   1.5475   1.6540   1.8026   2.0028
     2.1625   2.1868   2.5543   2.9263   2.9650   3.1059   3.3566   3.4225
     3.5053   3.5813   3.7493   3.7604   3.7688   3.8544   3.8720   3.9759
     4.1588   4.1822   4.1885   4.3372   4.3758

          k = 0.0302 0.0055 0.0000 ( 32821 PWs)   bands (ev):

   -64.8858 -64.8754 -64.4509 -64.4410 -64.4373 -64.4272 -53.2500 -53.2479
   -53.2235 -53.2224 -53.1554 -53.1326 -36.9034 -36.8342 -36.8207 -36.7849
   -36.7765 -36.7485 -36.4501 -36.4264 -36.4099 -36.3966 -36.3921 -36.3799
   -36.3742 -36.3622 -36.3597 -36.3463 -36.2933 -36.2786 -29.3793 -29.3675
   -29.3647 -29.3382 -29.3079 -29.2895 -29.2753 -29.2651 -29.2360 -29.2047
   -29.1878 -29.0989 -29.0917 -29.0747 -29.0360 -29.0242 -29.0108 -28.9991
    -3.7332  -2.4119  -2.3112  -2.2368  -2.1938  -2.1329  -2.0740  -2.0105
    -1.9977  -1.9577  -1.3347  -1.1385  -0.9714  -0.6419  -0.6369  -0.5786
    -0.5147  -0.4267  -0.3213  -0.2995  -0.1740   0.0138   0.2432   0.7775
     0.8292   0.9982   1.0433   1.2993   1.4434   1.7292   1.8553   2.0611
     2.1201   2.4468   2.4948   2.8012   3.1397   3.1434   3.2339   3.3437
     3.4031   3.4284   3.6087   3.6475   3.7038   3.7504   3.9410   3.9888
     4.0929   4.1047   4.1295   4.4089   4.4523

          k = 0.0302 0.0215 0.0000 ( 32814 PWs)   bands (ev):

   -64.8860 -64.8752 -64.4511 -64.4409 -64.4375 -64.4270 -53.2501 -53.2486
   -53.2238 -53.2219 -53.1566 -53.1316 -36.9041 -36.8316 -36.8185 -36.7853
   -36.7753 -36.7456 -36.4508 -36.4267 -36.4071 -36.3950 -36.3901 -36.3803
   -36.3746 -36.3617 -36.3589 -36.3464 -36.2905 -36.2758 -29.3905 -29.3642
   -29.3636 -29.3438 -29.3199 -29.2957 -29.2835 -29.2583 -29.2293 -29.2213
   -29.2016 -29.0988 -29.0949 -29.0673 -29.0400 -29.0194 -29.0070 -28.9952
    -3.6421  -2.3707  -2.2428  -2.1476  -2.1113  -2.0633  -2.0199  -1.9727
    -1.9310  -1.8877  -1.2884  -1.0535  -1.0004  -0.5619  -0.5590  -0.5160
    -0.4751  -0.3837  -0.3102  -0.2394  -0.1374   0.0558   0.3585   0.8749
     0.9503   0.9928   1.0175   1.3092   1.3194   1.7314   1.8761   1.9171
     2.1277   2.3332   2.4549   2.5811   2.9381   3.0893   3.1344   3.2187
     3.2304   3.3933   3.4777   3.5143   3.6126   3.6561   3.6664   3.8375
     4.0244   4.1517   4.1789   4.3580   4.4144

          k = 0.0302 0.0375 0.0000 ( 32832 PWs)   bands (ev):

   -64.8857 -64.8755 -64.4509 -64.4411 -64.4373 -64.4272 -53.2497 -53.2484
   -53.2249 -53.2225 -53.1570 -53.1315 -36.8992 -36.8277 -36.8157 -36.7851
   -36.7743 -36.7477 -36.4457 -36.4220 -36.4030 -36.3924 -36.3878 -36.3798
   -36.3749 -36.3618 -36.3578 -36.3469 -36.2927 -36.2779 -29.4012 -29.3632
   -29.3615 -29.3492 -29.3224 -29.2937 -29.2837 -29.2524 -29.2382 -29.2240
   -29.2171 -29.1077 -29.0931 -29.0600 -29.0448 -29.0257 -29.0137 -29.0023
    -3.4560  -2.2447  -2.0892  -2.0653  -1.9711  -1.9160  -1.8742  -1.8723
    -1.8052  -1.7680  -1.1495  -1.0727  -0.8533  -0.5261  -0.4578  -0.3809
    -0.3658  -0.3180  -0.2998  -0.2122  -0.0710   0.1845   0.4660   0.7890
     0.8994   0.9030   1.1273   1.1809   1.3418   1.5775   1.7655   1.9026
     2.0235   2.1246   2.1996   2.3806   2.6087   2.9088   2.9394   3.0137
     3.1409   3.1971   3.3101   3.3280   3.4344   3.4831   3.7124   3.7959
     3.9370   4.0645   4.0899   4.2252   4.3526

          k = 0.0302 0.0535 0.0000 ( 32776 PWs)   bands (ev):

   -64.8851 -64.8760 -64.4503 -64.4416 -64.4367 -64.4277 -53.2482 -53.2473
   -53.2269 -53.2239 -53.1564 -53.1322 -36.8893 -36.8235 -36.8131 -36.7845
   -36.7737 -36.7549 -36.4358 -36.4129 -36.3987 -36.3895 -36.3856 -36.3783
   -36.3753 -36.3627 -36.3565 -36.3479 -36.2999 -36.2849 -29.4096 -29.3642
   -29.3585 -29.3535 -29.3147 -29.2835 -29.2755 -29.2546 -29.2455 -29.2331
   -29.2184 -29.1166 -29.0928 -29.0539 -29.0499 -29.0415 -29.0296 -29.0192
    -3.1916  -2.0373  -2.0213  -1.8782  -1.8039  -1.7200  -1.6929  -1.6737
    -1.6475  -1.6113  -1.1061  -0.9212  -0.6896  -0.5296  -0.3719  -0.3158
    -0.2812  -0.2761  -0.2267  -0.1784   0.0750   0.3878   0.4468   0.7095
     0.7702   0.7742   0.8657   1.2772   1.3153   1.5067   1.7329   1.7698
     1.8425   1.9191   1.9195   2.1986   2.2669   2.5324   2.7564   2.8043
     2.8783   3.0213   3.0337   3.1467   3.4353   3.4603   3.5354   3.7002
     3.7373   3.8886   3.9933   4.0999   4.1573

          k = 0.0302 0.0695 0.0000 ( 32759 PWs)   bands (ev):

   -64.8842 -64.8769 -64.4495 -64.4424 -64.4359 -64.4285 -53.2460 -53.2454
   -53.2295 -53.2260 -53.1549 -53.1338 -36.8753 -36.8200 -36.8117 -36.7837
   -36.7736 -36.7669 -36.4220 -36.4011 -36.3950 -36.3868 -36.3838 -36.3759
   -36.3757 -36.3642 -36.3552 -36.3494 -36.3118 -36.2967 -29.4148 -29.3665
   -29.3552 -29.3545 -29.2970 -29.2669 -29.2669 -29.2611 -29.2431 -29.2390
   -29.2123 -29.1243 -29.0928 -29.0649 -29.0555 -29.0553 -29.0465 -29.0441
    -2.8743  -2.0402  -1.7568  -1.6877  -1.5647  -1.5257  -1.5250  -1.4919
    -1.4815  -1.4061  -1.1363  -0.6406  -0.6119  -0.5591  -0.3700  -0.2894
    -0.2829  -0.2619  -0.2112  -0.1534   0.2593   0.2938   0.5078   0.5681
     0.6244   0.7789   0.8953   1.0583   1.1764   1.3867   1.5344   1.6863
     1.7082   1.7365   1.7733   1.8967   2.2127   2.2610   2.3318   2.5931
     2.6320   2.8678   3.0304   3.1003   3.2042   3.4420   3.4563   3.5038
     3.6492   3.7151   3.9084   3.9427   4.0175

          k = 0.0302-0.1065 0.0000 ( 32785 PWs)   bands (ev):

   -64.8831 -64.8780 -64.4484 -64.4434 -64.4348 -64.4296 -53.2432 -53.2428
   -53.2326 -53.2288 -53.1529 -53.1360 -36.8584 -36.8179 -36.8120 -36.7832
   -36.7827 -36.7741 -36.4059 -36.3925 -36.3919 -36.3843 -36.3791 -36.3753
   -36.3734 -36.3663 -36.3539 -36.3511 -36.3280 -36.3125 -29.4160 -29.3690
   -29.3539 -29.3490 -29.2757 -29.2730 -29.2631 -29.2412 -29.2304 -29.2262
   -29.2030 -29.1308 -29.0924 -29.0922 -29.0843 -29.0751 -29.0610 -29.0431
    -2.5410  -2.1707  -1.5584  -1.4737  -1.4192  -1.3866  -1.3640  -1.3393
    -1.2559  -1.2555  -1.1570  -0.7353  -0.6396  -0.4314  -0.3437  -0.3222
    -0.3137  -0.2311  -0.2267  -0.1569   0.1640   0.3018   0.3276   0.3689
     0.7948   0.8341   0.8573   0.8794   1.0624   1.0642   1.2082   1.4578
     1.5569   1.5686   1.6011   1.7575   2.1547   2.1893   2.3191   2.3588
     2.6904   2.8580   3.0933   3.1344   3.2631   3.3456   3.5099   3.5853
     3.5967   3.7022   3.7513   3.8454   3.9453

          k = 0.0302-0.0905 0.0000 ( 32794 PWs)   bands (ev):

   -64.8818 -64.8794 -64.4472 -64.4447 -64.4335 -64.4309 -53.2399 -53.2395
   -53.2358 -53.2319 -53.1501 -53.1388 -36.8399 -36.8181 -36.8142 -36.8020
   -36.7818 -36.7752 -36.3938 -36.3913 -36.3885 -36.3821 -36.3757 -36.3714
   -36.3687 -36.3642 -36.3529 -36.3518 -36.3470 -36.3312 -29.4132 -29.3710
   -29.3502 -29.3424 -29.2802 -29.2779 -29.2322 -29.2193 -29.2169 -29.1943
   -29.1854 -29.1413 -29.1188 -29.1161 -29.1091 -29.0908 -29.0671 -29.0394
    -2.4247  -2.2460  -1.5340  -1.5161  -1.4060  -1.3845  -1.2917  -1.2339
    -1.2074  -1.0233  -0.9881  -0.8917  -0.7759  -0.5088  -0.4086  -0.3899
    -0.3344  -0.2514  -0.0795   0.0412   0.0646   0.1553   0.1765   0.3657
     0.4295   0.5613   0.7984   0.8557   0.9484   0.9882   1.0926   1.2375
     1.2611   1.3048   1.7039   1.9716   2.1714   2.2636   2.3823   2.5782
     2.8944   2.9394   3.2232   3.3193   3.4558   3.4765   3.5443   3.5693
     3.5982   3.7897   3.8128   3.9924   4.0286

          k = 0.0302-0.0745 0.0000 ( 32780 PWs)   bands (ev):

   -64.8808 -64.8804 -64.4460 -64.4459 -64.4322 -64.4322 -53.2391 -53.2362
   -53.2358 -53.2351 -53.1469 -53.1418 -36.8275 -36.8234 -36.8154 -36.8152
   -36.7810 -36.7768 -36.3967 -36.3913 -36.3842 -36.3823 -36.3739 -36.3706
   -36.3656 -36.3636 -36.3554 -36.3554 -36.3477 -36.3433 -29.4070 -29.3721
   -29.3455 -29.3358 -29.2859 -29.2802 -29.2067 -29.1999 -29.1905 -29.1672
   -29.1595 -29.1549 -29.1523 -29.1441 -29.1234 -29.0888 -29.0731 -29.0362
    -2.7538  -2.0557  -1.6822  -1.5913  -1.5521  -1.5210  -1.4789  -1.3849
    -1.3131  -1.1515  -0.8436  -0.7409  -0.7172  -0.6221  -0.3714  -0.3049
    -0.2939  -0.2902  -0.2315  -0.0930   0.0117   0.0288   0.1294   0.2181
     0.3028   0.4914   0.5126   0.7484   0.9337   0.9510   1.0357   1.2159
     1.5104   1.5358   1.7889   1.9408   2.2655   2.5746   2.6539   2.9145
     3.0914   3.1520   3.3079   3.3651   3.5073   3.5813   3.5900   3.6778
     3.8964   3.9252   3.9613   4.1747   4.3212

          k = 0.0302-0.0585 0.0000 ( 32728 PWs)   bands (ev):

   -64.8822 -64.8790 -64.4473 -64.4446 -64.4336 -64.4308 -53.2420 -53.2384
   -53.2325 -53.2321 -53.1450 -53.1434 -36.8479 -36.8249 -36.8182 -36.8000
   -36.7803 -36.7787 -36.4016 -36.3957 -36.3919 -36.3868 -36.3754 -36.3752
   -36.3720 -36.3681 -36.3599 -36.3488 -36.3426 -36.3269 -29.3986 -29.3723
   -29.3429 -29.3310 -29.2899 -29.2754 -29.2038 -29.1932 -29.1887 -29.1869
   -29.1778 -29.1467 -29.1225 -29.1224 -29.1129 -29.0872 -29.0772 -29.0337
    -3.0917  -2.0026  -1.8511  -1.7855  -1.7675  -1.7258  -1.6710  -1.6506
    -1.5530  -1.4061  -0.8074  -0.7872  -0.6838  -0.6136  -0.4679  -0.4191
    -0.3289  -0.2853  -0.2268  -0.2183   0.0290   0.0334   0.0714   0.1606
     0.1675   0.2903   0.6366   0.8055   1.0502   1.0688   1.3358   1.3589
     1.6474   1.7906   1.9992   2.1181   2.3762   2.7321   3.1209   3.1518
     3.2737   3.3173   3.3982   3.4643   3.5833   3.6143   3.7248   3.8576
     3.9186   4.0763   4.1209   4.1947   4.3949

          k = 0.0302-0.0425 0.0000 ( 32742 PWs)   bands (ev):

   -64.8835 -64.8778 -64.4486 -64.4434 -64.4349 -64.4296 -53.2447 -53.2414
   -53.2291 -53.2288 -53.1481 -53.1401 -36.8679 -36.8295 -36.8203 -36.7827
   -36.7807 -36.7795 -36.4147 -36.4063 -36.3935 -36.3928 -36.3909 -36.3766
   -36.3723 -36.3674 -36.3602 -36.3479 -36.3263 -36.3108 -29.3894 -29.3719
   -29.3455 -29.3293 -29.2878 -29.2668 -29.2322 -29.2263 -29.2092 -29.1825
   -29.1798 -29.1186 -29.1049 -29.0934 -29.0829 -29.0783 -29.0711 -29.0322
    -3.3856  -2.0707  -2.0341  -1.9956  -1.9598  -1.9322  -1.8685  -1.8299
    -1.8161  -1.6378  -0.9336  -0.8221  -0.8013  -0.7558  -0.5645  -0.5363
    -0.4206  -0.3454  -0.3146  -0.2502  -0.0644   0.0350   0.1244   0.3099
     0.3750   0.4480   0.6726   0.9305   1.1698   1.3903   1.5593   1.6165
     1.8571   1.8798   2.1982   2.5580   2.6006   2.8328   3.0738   3.4653
     3.4759   3.5433   3.5622   3.6365   3.6573   3.7581   3.8794   3.9413
     3.9943   4.0624   4.0817   4.2308   4.2672

          k = 0.0302-0.0265 0.0000 ( 32773 PWs)   bands (ev):

   -64.8845 -64.8767 -64.4496 -64.4423 -64.4360 -64.4285 -53.2471 -53.2441
   -53.2263 -53.2259 -53.1510 -53.1370 -36.8847 -36.8331 -36.8216 -36.7825
   -36.7786 -36.7677 -36.4314 -36.4096 -36.4092 -36.3944 -36.3934 -36.3779
   -36.3728 -36.3654 -36.3604 -36.3471 -36.3119 -36.2968 -29.3805 -29.3712
   -29.3530 -29.3303 -29.2811 -29.2618 -29.2571 -29.2542 -29.2359 -29.1830
   -29.1754 -29.1124 -29.0905 -29.0806 -29.0675 -29.0500 -29.0395 -29.0319
    -3.6015  -2.2386  -2.1971  -2.1531  -2.0979  -2.0498  -2.0362  -1.9768
    -1.9210  -1.8236  -1.1522  -1.0224  -0.8283  -0.7970  -0.6212  -0.5126
    -0.4717  -0.4406  -0.3919  -0.2870  -0.1364   0.0482   0.0779   0.4717
     0.6821   0.7091   0.7694   1.0156   1.3627   1.6840   1.7727   1.8109
     1.8261   2.2083   2.3132   2.8435   2.8660   3.0675   3.1132   3.4655
     3.4921   3.6419   3.6570   3.7885   3.8701   3.8803   3.9034   4.0005
     4.0422   4.1038   4.1189   4.2966   4.3975

          k = 0.0454-0.0157 0.0000 ( 32775 PWs)   bands (ev):

   -64.8845 -64.8767 -64.4496 -64.4423 -64.4359 -64.4285 -53.2469 -53.2444
   -53.2269 -53.2260 -53.1519 -53.1363 -36.8829 -36.8304 -36.8194 -36.7828
   -36.7776 -36.7675 -36.4296 -36.4080 -36.4062 -36.3932 -36.3906 -36.3774
   -36.3743 -36.3640 -36.3594 -36.3479 -36.3118 -36.2967 -29.3772 -29.3746
   -29.3640 -29.3392 -29.2716 -29.2681 -29.2561 -29.2516 -29.2332 -29.2052
   -29.1930 -29.1043 -29.0947 -29.0741 -29.0647 -29.0507 -29.0404 -29.0368
    -3.4726  -2.2085  -2.1498  -2.0616  -2.0152  -1.9449  -1.9111  -1.8729
    -1.8368  -1.7608  -1.1567  -1.0555  -0.6950  -0.6773  -0.5299  -0.4774
    -0.4417  -0.3998  -0.3601  -0.3097  -0.0721   0.1961   0.1994   0.4558
     0.6639   0.6761   0.7387   1.1137   1.4163   1.6761   1.7055   1.7431
     1.8368   2.0759   2.1183   2.6610   2.6638   2.9286   3.0468   3.3048
     3.3340   3.4806   3.5780   3.6002   3.6118   3.7324   3.8398   3.8846
     3.9784   4.0116   4.1038   4.2971   4.3883

          k = 0.0454 0.0003 0.0000 ( 32807 PWs)   bands (ev):

   -64.8853 -64.8759 -64.4504 -64.4416 -64.4368 -64.4277 -53.2486 -53.2468
   -53.2255 -53.2238 -53.1548 -53.1335 -36.8937 -36.8300 -36.8181 -36.7842
   -36.7759 -36.7555 -36.4403 -36.4174 -36.4055 -36.3937 -36.3897 -36.3789
   -36.3749 -36.3625 -36.3587 -36.3474 -36.3002 -36.2854 -29.3874 -29.3689
   -29.3636 -29.3444 -29.3005 -29.2777 -29.2674 -29.2592 -29.2313 -29.2207
   -29.2033 -29.0994 -29.0973 -29.0669 -29.0406 -29.0403 -29.0273 -29.0163
    -3.5149  -2.2359  -2.1786  -2.1194  -2.0245  -1.9795  -1.9071  -1.8763
    -1.8523  -1.8310  -1.1653  -1.1454  -0.7881  -0.5514  -0.5490  -0.4974
    -0.3933  -0.3627  -0.3288  -0.3125  -0.0916   0.1784   0.3177   0.6266
     0.7561   0.8378   0.9938   1.1799   1.5172   1.5620   1.7990   1.9601
     1.9614   2.0515   2.2249   2.5785   2.7092   2.9925   3.0403   3.1746
     3.2698   3.2935   3.4398   3.4798   3.5386   3.6442   3.7912   3.9031
     4.0190   4.0641   4.0844   4.2295   4.4295

          k = 0.0454 0.0163 0.0000 ( 32832 PWs)   bands (ev):

   -64.8857 -64.8755 -64.4509 -64.4411 -64.4373 -64.4272 -53.2497 -53.2484
   -53.2249 -53.2225 -53.1570 -53.1315 -36.8992 -36.8277 -36.8157 -36.7851
   -36.7743 -36.7477 -36.4457 -36.4220 -36.4030 -36.3924 -36.3878 -36.3798
   -36.3749 -36.3618 -36.3578 -36.3469 -36.2927 -36.2779 -29.4012 -29.3632
   -29.3615 -29.3492 -29.3224 -29.2937 -29.2837 -29.2524 -29.2382 -29.2240
   -29.2171 -29.1077 -29.0931 -29.0600 -29.0448 -29.0257 -29.0137 -29.0023
    -3.4560  -2.2447  -2.0892  -2.0653  -1.9711  -1.9160  -1.8742  -1.8723
    -1.8052  -1.7680  -1.1495  -1.0727  -0.8533  -0.5261  -0.4578  -0.3809
    -0.3658  -0.3180  -0.2998  -0.2122  -0.0710   0.1845   0.4660   0.7890
     0.8994   0.9030   1.1273   1.1809   1.3418   1.5775   1.7655   1.9026
     2.0235   2.1246   2.1996   2.3806   2.6087   2.9088   2.9394   3.0137
     3.1409   3.1971   3.3101   3.3280   3.4344   3.4831   3.7124   3.7959
     3.9370   4.0645   4.0899   4.2252   4.3526

          k = 0.0454 0.0323 0.0000 ( 32822 PWs)   bands (ev):

   -64.8858 -64.8753 -64.4510 -64.4409 -64.4374 -64.4270 -53.2499 -53.2492
   -53.2252 -53.2221 -53.1583 -53.1304 -36.8993 -36.8241 -36.8127 -36.7854
   -36.7729 -36.7446 -36.4457 -36.4217 -36.3996 -36.3903 -36.3855 -36.3798
   -36.3747 -36.3620 -36.3567 -36.3467 -36.2898 -36.2750 -29.4135 -29.3622
   -29.3588 -29.3512 -29.3353 -29.3017 -29.2927 -29.2567 -29.2462 -29.2334
   -29.2176 -29.1172 -29.0915 -29.0539 -29.0496 -29.0215 -29.0104 -28.9989
    -3.3038  -2.1753  -1.9794  -1.9138  -1.8661  -1.8286  -1.7912  -1.7664
    -1.6770  -1.6546  -1.0656  -0.9441  -0.8710  -0.4851  -0.3654  -0.2988
    -0.2729  -0.2468  -0.1883  -0.1200  -0.0166   0.2561   0.6249   0.8387
     0.8842   0.9795   1.0928   1.2057   1.2535   1.4899   1.5946   1.8925
     1.9565   2.0510   2.0918   2.1811   2.3329   2.7202   2.7330   2.8675
     3.0189   3.0462   3.1353   3.1574   3.3738   3.3936   3.6508   3.6700
     3.8036   3.8553   4.0802   4.1903   4.2997

          k = 0.0454 0.0483 0.0000 ( 32781 PWs)   bands (ev):

   -64.8856 -64.8755 -64.4508 -64.4411 -64.4372 -64.4271 -53.2493 -53.2489
   -53.2264 -53.2226 -53.1586 -53.1302 -36.8943 -36.8202 -36.8098 -36.7852
   -36.7719 -36.7467 -36.4406 -36.4169 -36.3959 -36.3881 -36.3835 -36.3784
   -36.3744 -36.3628 -36.3556 -36.3471 -36.2921 -36.2771 -29.4231 -29.3653
   -29.3556 -29.3501 -29.3372 -29.3008 -29.2926 -29.2723 -29.2489 -29.2418
   -29.2131 -29.1262 -29.0914 -29.0544 -29.0487 -29.0275 -29.0171 -29.0059
    -3.0728  -2.0310  -1.8290  -1.8060  -1.7435  -1.6930  -1.6067  -1.5647
    -1.5230  -1.5047  -0.9503  -0.8948  -0.7283  -0.4747  -0.3032  -0.2627
    -0.2116  -0.1267  -0.0958  -0.0096   0.1047   0.4138   0.5880   0.8155
     0.8290   0.8954   0.9235   1.1437   1.3700   1.4351   1.5626   1.6930
     1.8136   1.9130   2.0050   2.0239   2.0601   2.4312   2.5102   2.6220
     2.7952   2.8461   2.9101   3.0364   3.2801   3.4026   3.4473   3.6193
     3.6665   3.7211   3.8884   3.9821   4.1704

          k = 0.0454 0.0643 0.0000 ( 32761 PWs)   bands (ev):

   -64.8850 -64.8761 -64.4503 -64.4416 -64.4367 -64.4277 -53.2480 -53.2476
   -53.2282 -53.2240 -53.1580 -53.1310 -36.8848 -36.8169 -36.8082 -36.7847
   -36.7714 -36.7543 -36.4311 -36.4081 -36.3927 -36.3863 -36.3827 -36.3759
   -36.3743 -36.3642 -36.3545 -36.3480 -36.2996 -36.2845 -29.4290 -29.3690
   -29.3512 -29.3478 -29.3275 -29.2905 -29.2849 -29.2832 -29.2623 -29.2366
   -29.2088 -29.1331 -29.0917 -29.0592 -29.0453 -29.0423 -29.0322 -29.0223
    -2.7830  -1.8230  -1.8177  -1.6025  -1.5916  -1.5022  -1.4068  -1.3819
    -1.3546  -1.3157  -0.9735  -0.6429  -0.6179  -0.5309  -0.2934  -0.2508
    -0.1688  -0.1069  -0.0595   0.0033   0.2890   0.3890   0.5970   0.6453
     0.6825   0.8694   0.9000   1.0063   1.2730   1.4012   1.5632   1.5936
     1.6049   1.6989   1.7502   1.9711   2.0320   2.1501   2.2378   2.3695
     2.5587   2.6084   2.8770   2.9584   3.1017   3.2257   3.3770   3.4059
     3.6512   3.6666   3.8040   3.8838   4.0439

          k = 0.0454-0.1117 0.0000 ( 32782 PWs)   bands (ev):

   -64.8841 -64.8770 -64.4494 -64.4424 -64.4358 -64.4285 -53.2460 -53.2455
   -53.2307 -53.2261 -53.1565 -53.1327 -36.8715 -36.8148 -36.8084 -36.7840
   -36.7717 -36.7670 -36.4179 -36.3965 -36.3905 -36.3844 -36.3832 -36.3742
   -36.3734 -36.3663 -36.3534 -36.3495 -36.3121 -36.2969 -29.4303 -29.3719
   -29.3453 -29.3435 -29.3071 -29.2938 -29.2806 -29.2691 -29.2588 -29.2297
   -29.2040 -29.1371 -29.0917 -29.0656 -29.0640 -29.0567 -29.0466 -29.0401
    -2.4617  -1.9081  -1.5966  -1.4443  -1.4052  -1.3210  -1.2462  -1.2207
    -1.2168  -1.1336  -0.9834  -0.7213  -0.5366  -0.3689  -0.3156  -0.2209
    -0.1946  -0.1522  -0.1318  -0.1306   0.2643   0.4057   0.4251   0.4928
     0.6366   0.8261   0.8731   0.9687   1.0584   1.1829   1.1842   1.4507
     1.4740   1.5640   1.6682   1.7246   1.9954   2.0011   2.1891   2.3731
     2.3852   2.5242   2.9448   3.0252   3.0939   3.3288   3.3550   3.4034
     3.5913   3.6621   3.8347   3.8826   3.9350

          k = 0.0454-0.0957 0.0000 ( 32795 PWs)   bands (ev):

   -64.8830 -64.8781 -64.4484 -64.4435 -64.4348 -64.4296 -53.2433 -53.2426
   -53.2334 -53.2288 -53.1541 -53.1351 -36.8554 -36.8143 -36.8107 -36.7842
   -36.7832 -36.7728 -36.4023 -36.3895 -36.3888 -36.3821 -36.3796 -36.3741
   -36.3717 -36.3691 -36.3525 -36.3510 -36.3290 -36.3133 -29.4270 -29.3736
   -29.3382 -29.3374 -29.2983 -29.2920 -29.2741 -29.2409 -29.2308 -29.2205
   -29.1982 -29.1379 -29.0943 -29.0909 -29.0858 -29.0763 -29.0689 -29.0378
    -2.1490  -2.1279  -1.4997  -1.3812  -1.3533  -1.2367  -1.1570  -1.1287
    -1.0150  -0.9883  -0.9345  -0.8103  -0.6957  -0.4556  -0.4306  -0.2805
    -0.1935  -0.1811  -0.0980   0.0461   0.1936   0.2664   0.2792   0.3765
     0.4491   0.5009   0.7920   0.8447   0.8854   0.9911   1.0404   1.1418
     1.1984   1.3175   1.5936   1.9519   1.9862   2.1764   2.1783   2.4589
     2.5869   2.6096   3.0661   3.1715   3.3507   3.4268   3.4845   3.6105
     3.7078   3.7591   3.7640   3.8845   3.9825

          k = 0.0454-0.0797 0.0000 ( 32754 PWs)   bands (ev):

   -64.8817 -64.8794 -64.4472 -64.4447 -64.4335 -64.4309 -53.2399 -53.2392
   -53.2363 -53.2318 -53.1509 -53.1380 -36.8374 -36.8151 -36.8148 -36.8044
   -36.7823 -36.7744 -36.3926 -36.3897 -36.3855 -36.3797 -36.3772 -36.3711
   -36.3703 -36.3644 -36.3520 -36.3514 -36.3485 -36.3322 -29.4198 -29.3740
   -29.3320 -29.3320 -29.2991 -29.2969 -29.2355 -29.2096 -29.2056 -29.1956
   -29.1906 -29.1367 -29.1260 -29.1198 -29.1094 -29.0895 -29.0734 -29.0357
    -2.4425  -1.9082  -1.5899  -1.5054  -1.4388  -1.3563  -1.2653  -1.0917
    -1.0153  -0.9177  -0.8130  -0.8074  -0.7363  -0.6167  -0.4670  -0.3102
    -0.1851  -0.1676  -0.0358   0.0023   0.0029   0.0614   0.0631   0.2593
     0.3813   0.4972   0.4988   0.6962   0.7045   0.8919   0.9567   1.0677
     1.1495   1.3870   1.8168   1.9091   2.0445   2.3946   2.4025   2.7859
     2.7941   2.8619   3.2170   3.3388   3.4507   3.5135   3.5659   3.6239
     3.8362   3.8589   3.8684   4.1940   4.3941

          k = 0.0454-0.0637 0.0000 ( 32756 PWs)   bands (ev):

   -64.8808 -64.8804 -64.4460 -64.4459 -64.4322 -64.4322 -53.2392 -53.2362
   -53.2356 -53.2351 -53.1472 -53.1414 -36.8265 -36.8199 -36.8186 -36.8164
   -36.7813 -36.7765 -36.3971 -36.3906 -36.3821 -36.3805 -36.3759 -36.3715
   -36.3664 -36.3640 -36.3561 -36.3553 -36.3475 -36.3430 -29.4099 -29.3735
   -29.3334 -29.3297 -29.2987 -29.2885 -29.1994 -29.1914 -29.1894 -29.1633
   -29.1628 -29.1563 -29.1540 -29.1440 -29.1298 -29.0882 -29.0765 -29.0343
    -2.7835  -1.8354  -1.7457  -1.6900  -1.5783  -1.5157  -1.5073  -1.3472
    -1.2526  -1.1669  -0.8208  -0.7529  -0.6209  -0.3893  -0.3803  -0.3318
    -0.2948  -0.1948  -0.1939  -0.1589  -0.1348  -0.0322  -0.0090   0.0551
     0.2198   0.4160   0.6270   0.6722   0.9063   0.9082   0.9283   1.1647
     1.4883   1.6259   1.7301   2.0663   2.1430   2.6058   2.7730   3.0446
     3.1010   3.1491   3.3061   3.3260   3.5021   3.5667   3.6216   3.6443
     3.9130   3.9789   4.2165   4.2769   4.3646

          k = 0.0454-0.0477 0.0000 ( 32728 PWs)   bands (ev):

   -64.8822 -64.8790 -64.4473 -64.4446 -64.4336 -64.4308 -53.2420 -53.2384
   -53.2325 -53.2321 -53.1450 -53.1434 -36.8479 -36.8249 -36.8182 -36.8000
   -36.7803 -36.7787 -36.4016 -36.3957 -36.3919 -36.3868 -36.3754 -36.3752
   -36.3720 -36.3681 -36.3599 -36.3488 -36.3426 -36.3269 -29.3986 -29.3723
   -29.3429 -29.3310 -29.2899 -29.2754 -29.2038 -29.1932 -29.1887 -29.1869
   -29.1778 -29.1467 -29.1225 -29.1224 -29.1129 -29.0872 -29.0772 -29.0337
    -3.0917  -2.0026  -1.8511  -1.7855  -1.7675  -1.7258  -1.6710  -1.6506
    -1.5530  -1.4061  -0.8074  -0.7872  -0.6838  -0.6136  -0.4679  -0.4191
    -0.3289  -0.2853  -0.2268  -0.2183   0.0290   0.0334   0.0714   0.1606
     0.1675   0.2903   0.6366   0.8055   1.0502   1.0688   1.3358   1.3589
     1.6474   1.7906   1.9992   2.1181   2.3762   2.7321   3.1209   3.1518
     3.2737   3.3173   3.3982   3.4643   3.5833   3.6143   3.7248   3.8576
     3.9186   4.0763   4.1209   4.1947   4.3949

          k = 0.0454-0.0317 0.0000 ( 32764 PWs)   bands (ev):

   -64.8834 -64.8778 -64.4486 -64.4434 -64.4349 -64.4296 -53.2446 -53.2416
   -53.2293 -53.2289 -53.1485 -53.1397 -36.8672 -36.8286 -36.8194 -36.7826
   -36.7809 -36.7790 -36.4142 -36.4049 -36.3961 -36.3908 -36.3886 -36.3760
   -36.3733 -36.3663 -36.3597 -36.3484 -36.3264 -36.3109 -29.3874 -29.3711
   -29.3553 -29.3345 -29.2787 -29.2616 -29.2379 -29.2257 -29.2099 -29.1940
   -29.1878 -29.1133 -29.1074 -29.0876 -29.0831 -29.0775 -29.0707 -29.0345
    -3.3286  -2.1462  -1.9913  -1.9656  -1.8939  -1.8543  -1.8271  -1.7984
    -1.7834  -1.6081  -1.0275  -0.8855  -0.7598  -0.5719  -0.5528  -0.4809
    -0.4160  -0.3727  -0.3072  -0.2756  -0.0160   0.1067   0.2206   0.2974
     0.3858   0.4633   0.6294   0.9786   1.2418   1.3670   1.5860   1.6349
     1.7795   1.8212   2.1278   2.4958   2.5731   2.7577   3.0673   3.3049
     3.3967   3.4766   3.5607   3.5694   3.5939   3.6842   3.9397   3.9428
     3.9942   4.0286   4.0548   4.1298   4.3021

          k = 0.0605-0.0210 0.0000 ( 32784 PWs)   bands (ev):

   -64.8833 -64.8779 -64.4485 -64.4434 -64.4348 -64.4296 -53.2442 -53.2420
   -53.2302 -53.2289 -53.1497 -53.1387 -36.8652 -36.8261 -36.8170 -36.7824
   -36.7814 -36.7777 -36.4124 -36.4012 -36.3968 -36.3900 -36.3837 -36.3751
   -36.3750 -36.3649 -36.3582 -36.3495 -36.3266 -36.3111 -29.3814 -29.3793
   -29.3635 -29.3456 -29.2616 -29.2517 -29.2484 -29.2298 -29.2195 -29.2112
   -29.2037 -29.1138 -29.1038 -29.0862 -29.0822 -29.0735 -29.0649 -29.0411
    -3.1603  -2.2034  -1.8808  -1.8607  -1.7739  -1.7628  -1.7040  -1.7022
    -1.6354  -1.5283  -1.1880  -0.7445  -0.6022  -0.5726  -0.5164  -0.5076
    -0.3706  -0.3382  -0.2914  -0.2699   0.1070   0.2140   0.3593   0.4067
     0.4345   0.5560   0.5852   1.0327   1.3324   1.4220   1.5919   1.5992
     1.6228   1.7162   2.0200   2.2189   2.4910   2.5800   2.9482   2.9520
     3.0264   3.3620   3.4521   3.4673   3.5541   3.6154   3.7710   3.8450
     3.8683   3.9150   3.9591   4.0265   4.1198

          k = 0.0605-0.0050 0.0000 ( 32781 PWs)   bands (ev):

   -64.8844 -64.8768 -64.4496 -64.4424 -64.4359 -64.4285 -53.2464 -53.2449
   -53.2282 -53.2261 -53.1533 -53.1351 -36.8795 -36.8257 -36.8157 -36.7833
   -36.7757 -36.7671 -36.4262 -36.4053 -36.4007 -36.3905 -36.3867 -36.3769
   -36.3756 -36.3633 -36.3574 -36.3489 -36.3117 -36.2966 -29.3945 -29.3708
   -29.3613 -29.3506 -29.2843 -29.2602 -29.2540 -29.2527 -29.2357 -29.2237
   -29.2177 -29.1091 -29.0968 -29.0647 -29.0596 -29.0514 -29.0453 -29.0420
    -3.2235  -2.1536  -1.9812  -1.9001  -1.8325  -1.7478  -1.7466  -1.7022
    -1.6516  -1.6487  -1.1970  -0.8694  -0.6370  -0.5431  -0.4747  -0.3979
    -0.3832  -0.3396  -0.3003  -0.2248   0.0754   0.3201   0.4005   0.5242
     0.6356   0.6447   0.7322   1.1869   1.4547   1.5540   1.5979   1.7475
     1.7812   1.8424   1.9464   2.2811   2.4333   2.5594   2.9074   2.9295
     2.9454   3.2087   3.2519   3.2887   3.5289   3.6306   3.6450   3.7055
     3.8215   3.9014   4.0298   4.0451   4.1871

          k = 0.0605 0.0110 0.0000 ( 32776 PWs)   bands (ev):

   -64.8851 -64.8760 -64.4503 -64.4416 -64.4367 -64.4277 -53.2482 -53.2473
   -53.2269 -53.2239 -53.1564 -53.1322 -36.8893 -36.8235 -36.8131 -36.7845
   -36.7737 -36.7549 -36.4358 -36.4129 -36.3987 -36.3895 -36.3856 -36.3783
   -36.3753 -36.3627 -36.3565 -36.3479 -36.2999 -36.2849 -29.4096 -29.3642
   -29.3585 -29.3535 -29.3147 -29.2835 -29.2755 -29.2546 -29.2455 -29.2331
   -29.2184 -29.1166 -29.0928 -29.0539 -29.0499 -29.0415 -29.0296 -29.0192
    -3.1916  -2.0373  -2.0213  -1.8782  -1.8039  -1.7200  -1.6929  -1.6737
    -1.6475  -1.6113  -1.1061  -0.9212  -0.6896  -0.5296  -0.3719  -0.3158
    -0.2812  -0.2762  -0.2267  -0.1784   0.0750   0.3878   0.4468   0.7095
     0.7702   0.7742   0.8657   1.2772   1.3153   1.5067   1.7329   1.7698
     1.8425   1.9191   1.9195   2.1986   2.2669   2.5324   2.7564   2.8043
     2.8783   3.0213   3.0337   3.1467   3.4353   3.4603   3.5354   3.7002
     3.7373   3.8886   3.9933   4.1572   4.1809

          k = 0.0605 0.0270 0.0000 ( 32781 PWs)   bands (ev):

   -64.8856 -64.8755 -64.4508 -64.4411 -64.4372 -64.4271 -53.2493 -53.2489
   -53.2264 -53.2226 -53.1586 -53.1302 -36.8943 -36.8202 -36.8098 -36.7852
   -36.7719 -36.7467 -36.4406 -36.4169 -36.3959 -36.3881 -36.3835 -36.3784
   -36.3744 -36.3628 -36.3556 -36.3471 -36.2921 -36.2771 -29.4231 -29.3653
   -29.3556 -29.3501 -29.3372 -29.3008 -29.2926 -29.2723 -29.2489 -29.2418
   -29.2131 -29.1262 -29.0914 -29.0544 -29.0487 -29.0275 -29.0171 -29.0059
    -3.0728  -2.0310  -1.8290  -1.8060  -1.7435  -1.6930  -1.6067  -1.5647
    -1.5230  -1.5047  -0.9503  -0.8948  -0.7283  -0.4747  -0.3032  -0.2627
    -0.2116  -0.1267  -0.0958  -0.0096   0.1047   0.4138   0.5880   0.8154
     0.8290   0.8954   0.9235   1.1437   1.3700   1.4351   1.5626   1.6930
     1.8136   1.9130   2.0050   2.0239   2.0601   2.4312   2.5102   2.6220
     2.7952   2.8461   2.9101   3.0364   3.2801   3.4026   3.4473   3.6193
     3.6665   3.7211   3.8884   3.9822   4.1704

          k = 0.0605 0.0431 0.0000 ( 32752 PWs)   bands (ev):

   -64.8857 -64.8754 -64.4509 -64.4409 -64.4374 -64.4270 -53.2498 -53.2494
   -53.2265 -53.2222 -53.1599 -53.1292 -36.8945 -36.8166 -36.8067 -36.7855
   -36.7705 -36.7436 -36.4407 -36.4167 -36.3928 -36.3873 -36.3816 -36.3766
   -36.3735 -36.3633 -36.3547 -36.3467 -36.2891 -36.2742 -29.4337 -29.3691
   -29.3522 -29.3496 -29.3446 -29.3094 -29.3013 -29.2882 -29.2641 -29.2390
   -29.2093 -29.1351 -29.0915 -29.0584 -29.0447 -29.0233 -29.0140 -29.0026
    -2.8809  -1.9675  -1.7026  -1.6696  -1.6422  -1.5606  -1.5090  -1.3863
    -1.3708  -1.3523  -0.7927  -0.7894  -0.7371  -0.4099  -0.2812  -0.2151
    -0.0962  -0.0735   0.0164   0.1922   0.2684   0.5095   0.6070   0.7648
     0.8153   0.8172   0.8670   1.2840   1.3394   1.4263   1.5185   1.5482
     1.5994   1.8171   1.8414   1.8927   2.0991   2.2069   2.2552   2.3857
     2.6168   2.7006   2.8305   2.9316   3.1500   3.3626   3.3830   3.3844
     3.5893   3.6590   3.6948   3.9050   4.1441

          k = 0.0605 0.0591 0.0000 ( 32763 PWs)   bands (ev):

   -64.8854 -64.8756 -64.4507 -64.4411 -64.4372 -64.4271 -53.2495 -53.2488
   -53.2276 -53.2228 -53.1601 -53.1292 -36.8900 -36.8137 -36.8047 -36.7853
   -36.7698 -36.7460 -36.4362 -36.4124 -36.3902 -36.3867 -36.3807 -36.3741
   -36.3729 -36.3642 -36.3538 -36.3470 -36.2915 -36.2765 -29.4402 -29.3724
   -29.3501 -29.3479 -29.3391 -29.3080 -29.3009 -29.2998 -29.2779 -29.2360
   -29.2063 -29.1415 -29.0922 -29.0621 -29.0418 -29.0288 -29.0202 -29.0091
    -2.6326  -1.8650  -1.5883  -1.5805  -1.5113  -1.4034  -1.3253  -1.2389
    -1.1994  -1.1640  -0.7855  -0.6103  -0.6093  -0.4502  -0.2538  -0.2036
    -0.0993   0.0088   0.0636   0.3433   0.3521   0.3891   0.6363   0.7029
     0.7348   0.7554   0.8856   1.2327   1.3131   1.3562   1.4286   1.5340
     1.5517   1.6392   1.6678   1.8197   1.9654   2.0508   2.0955   2.1890
     2.3639   2.5682   2.7518   2.8749   2.9901   3.0940   3.2664   3.3673
     3.5348   3.5519   3.6530   3.7683   3.9592

          k = 0.0605-0.1170 0.0000 ( 32751 PWs)   bands (ev):

   -64.8849 -64.8762 -64.4502 -64.4416 -64.4367 -64.4277 -53.2483 -53.2475
   -53.2292 -53.2240 -53.1592 -53.1302 -36.8814 -36.8120 -36.8045 -36.7848
   -36.7698 -36.7540 -36.4275 -36.4044 -36.3885 -36.3856 -36.3814 -36.3725
   -36.3719 -36.3659 -36.3531 -36.3480 -36.2994 -36.2843 -29.4418 -29.3746
   -29.3417 -29.3392 -29.3315 -29.3098 -29.2962 -29.2922 -29.2849 -29.2315
   -29.2033 -29.1446 -29.0924 -29.0655 -29.0438 -29.0395 -29.0346 -29.0246
    -2.3478  -1.7628  -1.6350  -1.4184  -1.3271  -1.2497  -1.1597  -1.1387
    -1.0718  -0.9810  -0.7917  -0.6584  -0.4688  -0.3707  -0.2466  -0.2070
    -0.1553  -0.0709   0.0470   0.1339   0.2445   0.4724   0.5126   0.5651
     0.7137   0.8298   0.9366   1.0265   1.1790   1.1937   1.3030   1.3863
     1.4601   1.5475   1.5925   1.7502   1.7987   1.8169   2.0774   2.1167
     2.2408   2.4204   2.8188   2.9295   2.9556   3.1684   3.2555   3.3337
     3.5473   3.5836   3.6739   3.7833   3.8003

          k = 0.0605-0.1010 0.0000 ( 32762 PWs)   bands (ev):

   -64.8840 -64.8770 -64.4494 -64.4424 -64.4358 -64.4285 -53.2462 -53.2452
   -53.2313 -53.2261 -53.1573 -53.1321 -36.8692 -36.8117 -36.8065 -36.7842
   -36.7707 -36.7673 -36.4154 -36.3932 -36.3879 -36.3839 -36.3838 -36.3721
   -36.3708 -36.3687 -36.3525 -36.3494 -36.3124 -36.2971 -29.4385 -29.3756
   -29.3340 -29.3267 -29.3145 -29.3129 -29.3019 -29.2726 -29.2637 -29.2248
   -29.1998 -29.1443 -29.0919 -29.0689 -29.0660 -29.0578 -29.0478 -29.0373
    -2.0521  -1.8181  -1.7146  -1.2331  -1.1975  -1.1304  -1.0783  -1.0695
    -1.0541  -0.9263  -0.7847  -0.7187  -0.5554  -0.3374  -0.3367  -0.2094
    -0.1048  -0.0889  -0.0802   0.0110   0.2635   0.3157   0.3298   0.4961
     0.5592   0.6566   0.8390   0.8957   0.9307   1.0172   1.0513   1.1615
     1.2971   1.4297   1.4893   1.6950   1.8597   1.9335   2.2371   2.2561
     2.2884   2.3159   2.9369   3.0689   3.1770   3.3169   3.4298   3.5923
     3.6127   3.6517   3.7555   3.8698   3.9649

          k = 0.0605-0.0850 0.0000 ( 32766 PWs)   bands (ev):

   -64.8829 -64.8781 -64.4484 -64.4435 -64.4348 -64.4296 -53.2434 -53.2424
   -53.2337 -53.2287 -53.1545 -53.1347 -36.8542 -36.8128 -36.8103 -36.7847
   -36.7833 -36.7723 -36.4007 -36.3884 -36.3879 -36.3815 -36.3794 -36.3733
   -36.3711 -36.3707 -36.3520 -36.3509 -36.3294 -36.3136 -29.4308 -29.3753
   -29.3299 -29.3219 -29.3105 -29.3093 -29.2769 -29.2410 -29.2322 -29.2167
   -29.1964 -29.1408 -29.0947 -29.0907 -29.0865 -29.0767 -29.0718 -29.0362
    -2.1091  -1.8180  -1.7266  -1.2962  -1.2931  -1.1964  -1.1088  -0.9696
    -0.9106  -0.8124  -0.8001  -0.7698  -0.7356  -0.6204  -0.4265  -0.2334
    -0.1960  -0.0427  -0.0193   0.0632   0.0695   0.1946   0.3096   0.3674
     0.3971   0.5129   0.5548   0.7252   0.8093   0.8368   0.8486   1.1290
     1.1829   1.2101   1.6993   1.8099   2.0528   2.1115   2.1687   2.5201
     2.5353   2.5662   3.0788   3.2120   3.2613   3.5859   3.6153   3.6626
     3.6999   3.7064   3.7483   4.1092   4.3044

          k = 0.0605-0.0690 0.0000 ( 32754 PWs)   bands (ev):

   -64.8817 -64.8794 -64.4472 -64.4447 -64.4335 -64.4309 -53.2399 -53.2392
   -53.2363 -53.2318 -53.1509 -53.1380 -36.8374 -36.8151 -36.8148 -36.8044
   -36.7823 -36.7744 -36.3926 -36.3897 -36.3855 -36.3797 -36.3772 -36.3711
   -36.3703 -36.3644 -36.3520 -36.3514 -36.3485 -36.3322 -29.4198 -29.3740
   -29.3320 -29.3320 -29.2991 -29.2969 -29.2355 -29.2096 -29.2056 -29.1956
   -29.1907 -29.1367 -29.1260 -29.1198 -29.1094 -29.0895 -29.0734 -29.0357
    -2.4425  -1.9082  -1.5899  -1.5054  -1.4388  -1.3563  -1.2653  -1.0917
    -1.0153  -0.9177  -0.8130  -0.8074  -0.7363  -0.6167  -0.4670  -0.3102
    -0.1851  -0.1676  -0.0358   0.0023   0.0029   0.0614   0.0631   0.2593
     0.3813   0.4972   0.4988   0.6962   0.7045   0.8919   0.9567   1.0677
     1.1495   1.3870   1.8168   1.9091   2.0445   2.3946   2.4025   2.7859
     2.7941   2.8619   3.2170   3.3388   3.4507   3.5135   3.5659   3.6239
     3.8362   3.8589   3.8684   4.1940   4.3940

          k = 0.0605-0.0530 0.0000 ( 32780 PWs)   bands (ev):

   -64.8808 -64.8804 -64.4460 -64.4459 -64.4322 -64.4322 -53.2391 -53.2362
   -53.2358 -53.2351 -53.1469 -53.1418 -36.8275 -36.8234 -36.8154 -36.8152
   -36.7810 -36.7768 -36.3967 -36.3913 -36.3842 -36.3823 -36.3739 -36.3706
   -36.3656 -36.3636 -36.3554 -36.3554 -36.3477 -36.3433 -29.4070 -29.3721
   -29.3455 -29.3358 -29.2859 -29.2802 -29.2067 -29.1999 -29.1905 -29.1672
   -29.1595 -29.1549 -29.1523 -29.1441 -29.1234 -29.0888 -29.0731 -29.0362
    -2.7538  -2.0557  -1.6822  -1.5913  -1.5521  -1.5210  -1.4789  -1.3849
    -1.3131  -1.1515  -0.8436  -0.7410  -0.7172  -0.6221  -0.3714  -0.3049
    -0.2939  -0.2902  -0.2315  -0.0930   0.0117   0.0288   0.1294   0.2181
     0.3028   0.4914   0.5126   0.7484   0.9337   0.9510   1.0357   1.2159
     1.5104   1.5358   1.7889   1.9408   2.2655   2.5746   2.6539   2.9145
     3.0914   3.1520   3.3079   3.3651   3.5073   3.5813   3.5900   3.6778
     3.8964   3.9252   3.9613   4.1747   4.3211

          k = 0.0605-0.0370 0.0000 ( 32749 PWs)   bands (ev):

   -64.8821 -64.8791 -64.4473 -64.4446 -64.4336 -64.4308 -53.2417 -53.2385
   -53.2329 -53.2323 -53.1457 -53.1427 -36.8474 -36.8246 -36.8169 -36.7995
   -36.7795 -36.7792 -36.3998 -36.3960 -36.3929 -36.3878 -36.3738 -36.3737
   -36.3712 -36.3668 -36.3589 -36.3497 -36.3430 -36.3273 -29.3938 -29.3709
   -29.3590 -29.3405 -29.2729 -29.2637 -29.2154 -29.2070 -29.2026 -29.1872
   -29.1783 -29.1471 -29.1190 -29.1133 -29.1113 -29.0888 -29.0702 -29.0380
[...]
    -2.7830  -1.8230  -1.8177  -1.6025  -1.5916  -1.5022  -1.4068  -1.3819
    -1.3546  -1.3157  -0.9735  -0.6429  -0.6179  -0.5309  -0.2934  -0.2508
    -0.1688  -0.1069  -0.0595   0.0033   0.2890   0.3890   0.5970   0.6453
     0.6825   0.8694   0.9000   1.0063   1.2730   1.4012   1.5632   1.5936
     1.6049   1.6989   1.7502   1.9711   2.0320   2.1501   2.2378   2.3695
     2.5587   2.6084   2.8770   2.9584   3.1017   3.2257   3.3770   3.4059
     3.6512   3.6666   3.8040   3.8837   4.0439

          k = 0.0756 0.0378 0.0000 ( 32763 PWs)   bands (ev):

   -64.8854 -64.8756 -64.4507 -64.4411 -64.4372 -64.4271 -53.2495 -53.2488
   -53.2276 -53.2228 -53.1601 -53.1292 -36.8900 -36.8137 -36.8047 -36.7853
   -36.7698 -36.7460 -36.4362 -36.4124 -36.3902 -36.3867 -36.3807 -36.3741
   -36.3729 -36.3642 -36.3538 -36.3470 -36.2915 -36.2765 -29.4402 -29.3724
   -29.3501 -29.3479 -29.3391 -29.3080 -29.3008 -29.2998 -29.2779 -29.2360
   -29.2063 -29.1415 -29.0922 -29.0621 -29.0418 -29.0288 -29.0202 -29.0091
    -2.6326  -1.8650  -1.5883  -1.5805  -1.5113  -1.4034  -1.3253  -1.2389
    -1.1994  -1.1640  -0.7855  -0.6103  -0.6093  -0.4502  -0.2538  -0.2036
    -0.0993   0.0088   0.0636   0.3433   0.3521   0.3891   0.6363   0.7029
     0.7348   0.7554   0.8856   1.2327   1.3131   1.3562   1.4286   1.5340
     1.5517   1.6392   1.6678   1.8197   1.9654   2.0508   2.0955   2.1890
     2.3639   2.5682   2.7518   2.8749   2.9901   3.0940   3.2664   3.3673
     3.5348   3.5519   3.6530   3.7683   3.9592

          k = 0.0756 0.0538 0.0000 ( 32808 PWs)   bands (ev):

   -64.8856 -64.8754 -64.4509 -64.4409 -64.4373 -64.4270 -53.2502 -53.2493
   -53.2277 -53.2224 -53.1612 -53.1285 -36.8909 -36.8112 -36.8023 -36.7855
   -36.7688 -36.7428 -36.4370 -36.4130 -36.3882 -36.3869 -36.3794 -36.3721
   -36.3720 -36.3642 -36.3533 -36.3467 -36.2886 -36.2736 -29.4473 -29.3749
   -29.3597 -29.3438 -29.3326 -29.3158 -29.3134 -29.3072 -29.2908 -29.2356
   -29.2048 -29.1473 -29.0930 -29.0643 -29.0397 -29.0245 -29.0168 -29.0054
    -2.4395  -1.8904  -1.5277  -1.4333  -1.4134  -1.2633  -1.2406  -1.1046
    -1.0563  -0.9928  -0.6319  -0.5890  -0.5127  -0.3751  -0.3243  -0.1392
    -0.1102   0.0544   0.1877   0.2254   0.4814   0.5585   0.6337   0.6922
     0.7962   0.8396   0.8763   1.1905   1.2862   1.3366   1.4039   1.4285
     1.5001   1.6311   1.6901   1.7489   1.7517   1.8437   1.9103   2.1587
     2.2947   2.5379   2.6213   2.8485   2.8669   3.0168   3.1536   3.2426
     3.3322   3.4417   3.6198   3.6356   3.7533

          k = 0.0756-0.1222 0.0000 ( 32778 PWs)   bands (ev):

   -64.8854 -64.8756 -64.4507 -64.4411 -64.4372 -64.4271 -53.2498 -53.2487
   -53.2283 -53.2229 -53.1610 -53.1287 -36.8875 -36.8100 -36.8017 -36.7853
   -36.7686 -36.7455 -36.4336 -36.4097 -36.3871 -36.3866 -36.3795 -36.3718
   -36.3705 -36.3648 -36.3529 -36.3470 -36.2912 -36.2762 -29.4494 -29.3764
   -29.3568 -29.3378 -29.3254 -29.3222 -29.3124 -29.3042 -29.3011 -29.2338
   -29.2033 -29.1498 -29.0934 -29.0661 -29.0385 -29.0295 -29.0223 -29.0110
    -2.2204  -1.9118  -1.4194  -1.4152  -1.3426  -1.1448  -1.1222  -1.0173
    -0.9740  -0.8250  -0.6467  -0.5725  -0.4216  -0.3705  -0.2467  -0.1982
    -0.1461  -0.0073   0.1025   0.2259   0.3396   0.5290   0.5808   0.7254
     0.8403   0.9866   0.9942   1.0513   1.1955   1.3124   1.3274   1.3812
     1.4188   1.5204   1.6129   1.6318   1.6536   1.7326   1.9224   2.0269
     2.1807   2.4782   2.6614   2.8079   2.9095   3.0544   3.1364   3.2781
     3.2874   3.4358   3.4568   3.5681   3.7992

          k = 0.0756-0.1062 0.0000 ( 32766 PWs)   bands (ev):

   -64.8848 -64.8762 -64.4502 -64.4416 -64.4366 -64.4277 -53.2485 -53.2474
   -53.2295 -53.2241 -53.1597 -53.1299 -36.8801 -36.8102 -36.8032 -36.7849
   -36.7692 -36.7539 -36.4262 -36.4029 -36.3869 -36.3856 -36.3811 -36.3716
   -36.3702 -36.3666 -36.3527 -36.3480 -36.2994 -36.2842 -29.4463 -29.3766
   -29.3411 -29.3308 -29.3261 -29.3188 -29.3096 -29.2976 -29.2887 -29.2300
   -29.2016 -29.1487 -29.0929 -29.0677 -29.0440 -29.0374 -29.0361 -29.0255
    -2.0237  -1.9119  -1.5607  -1.2919  -1.2269  -1.1157  -1.0545  -0.9887
    -0.9694  -0.8747  -0.6715  -0.6561  -0.4375  -0.2620  -0.2288  -0.2181
    -0.1650  -0.1337   0.1118   0.1169   0.1969   0.3576   0.4657   0.6692
     0.8558   0.8626   0.9562   0.9892   1.0058   1.0284   1.2927   1.3593
     1.4011   1.4410   1.4567   1.6007   1.6882   1.7193   2.0266   2.0900
     2.0980   2.3650   2.8179   3.0214   3.0251   3.0963   3.3304   3.4562
     3.4992   3.5167   3.5711   3.6043   3.9005

          k = 0.0756-0.0902 0.0000 ( 32762 PWs)   bands (ev):

   -64.8840 -64.8770 -64.4494 -64.4424 -64.4358 -64.4285 -53.2462 -53.2452
   -53.2313 -53.2261 -53.1573 -53.1321 -36.8692 -36.8117 -36.8065 -36.7842
   -36.7707 -36.7673 -36.4154 -36.3932 -36.3879 -36.3839 -36.3838 -36.3721
   -36.3708 -36.3687 -36.3525 -36.3494 -36.3124 -36.2971 -29.4385 -29.3756
   -29.3340 -29.3267 -29.3145 -29.3129 -29.3019 -29.2726 -29.2637 -29.2248
   -29.1998 -29.1443 -29.0919 -29.0689 -29.0660 -29.0578 -29.0478 -29.0373
    -2.0521  -1.8181  -1.7146  -1.2331  -1.1975  -1.1304  -1.0783  -1.0695
    -1.0541  -0.9263  -0.7847  -0.7187  -0.5554  -0.3374  -0.3367  -0.2094
    -0.1048  -0.0889  -0.0802   0.0110   0.2635   0.3157   0.3298   0.4961
     0.5592   0.6566   0.8390   0.8957   0.9307   1.0172   1.0513   1.1615
     1.2971   1.4297   1.4893   1.6950   1.8597   1.9335   2.2371   2.2561
     2.2884   2.3159   2.9369   3.0689   3.1770   3.3169   3.4298   3.5923
     3.6127   3.6517   3.7555   3.8698   3.9650

          k = 0.0756-0.0742 0.0000 ( 32795 PWs)   bands (ev):

   -64.8830 -64.8781 -64.4484 -64.4435 -64.4348 -64.4296 -53.2433 -53.2426
   -53.2334 -53.2288 -53.1541 -53.1351 -36.8554 -36.8143 -36.8107 -36.7842
   -36.7832 -36.7728 -36.4023 -36.3895 -36.3888 -36.3821 -36.3796 -36.3741
   -36.3717 -36.3691 -36.3525 -36.3510 -36.3290 -36.3133 -29.4270 -29.3736
   -29.3382 -29.3374 -29.2983 -29.2920 -29.2741 -29.2409 -29.2308 -29.2205
   -29.1982 -29.1379 -29.0943 -29.0909 -29.0858 -29.0763 -29.0689 -29.0378
    -2.1490  -2.1279  -1.4997  -1.3812  -1.3533  -1.2367  -1.1570  -1.1287
    -1.0150  -0.9883  -0.9345  -0.8103  -0.6957  -0.4556  -0.4306  -0.2805
    -0.1935  -0.1811  -0.0980   0.0461   0.1936   0.2664   0.2792   0.3764
     0.4491   0.5009   0.7920   0.8447   0.8854   0.9911   1.0404   1.1418
     1.1984   1.3175   1.5936   1.9519   1.9862   2.1764   2.1783   2.4589
     2.5869   2.6096   3.0661   3.1715   3.3507   3.4268   3.4845   3.6105
     3.7078   3.7591   3.7640   3.8845   3.9825

          k = 0.0756-0.0582 0.0000 ( 32794 PWs)   bands (ev):

   -64.8818 -64.8794 -64.4472 -64.4447 -64.4335 -64.4309 -53.2399 -53.2395
   -53.2358 -53.2319 -53.1501 -53.1388 -36.8399 -36.8181 -36.8142 -36.8020
   -36.7818 -36.7752 -36.3938 -36.3913 -36.3885 -36.3821 -36.3757 -36.3714
   -36.3687 -36.3642 -36.3529 -36.3518 -36.3470 -36.3312 -29.4132 -29.3710
   -29.3502 -29.3424 -29.2802 -29.2779 -29.2322 -29.2193 -29.2169 -29.1943
   -29.1854 -29.1413 -29.1188 -29.1161 -29.1091 -29.0908 -29.0671 -29.0394
    -2.4247  -2.2460  -1.5340  -1.5161  -1.4060  -1.3845  -1.2917  -1.2339
    -1.2074  -1.0233  -0.9881  -0.8917  -0.7759  -0.5088  -0.4086  -0.3899
    -0.3344  -0.2514  -0.0796   0.0412   0.0646   0.1553   0.1765   0.3657
     0.4295   0.5613   0.7984   0.8557   0.9484   0.9882   1.0926   1.2375
     1.2611   1.3048   1.7039   1.9716   2.1714   2.2636   2.3823   2.5782
     2.8944   2.9394   3.2232   3.3193   3.4558   3.4765   3.5443   3.5693
     3.5982   3.7897   3.8128   3.9924   4.0286

          k = 0.0756-0.0422 0.0000 ( 32804 PWs)   bands (ev):

   -64.8807 -64.8805 -64.4460 -64.4459 -64.4322 -64.4322 -53.2385 -53.2367
   -53.2359 -53.2354 -53.1458 -53.1429 -36.8287 -36.8268 -36.8130 -36.8128
   -36.7802 -36.7777 -36.3957 -36.3927 -36.3870 -36.3857 -36.3711 -36.3696
   -36.3638 -36.3627 -36.3553 -36.3545 -36.3474 -36.3444 -29.3986 -29.3712
   -29.3612 -29.3470 -29.2646 -29.2625 -29.2231 -29.2199 -29.1879 -29.1754
   -29.1559 -29.1535 -29.1487 -29.1446 -29.1112 -29.0924 -29.0633 -29.0422
    -2.6639  -2.3043  -1.6604  -1.6068  -1.5328  -1.4461  -1.4139  -1.3941
    -1.3813  -1.1444  -1.0970  -0.8295  -0.7001  -0.5262  -0.5057  -0.3823
    -0.3331  -0.3123  -0.1668  -0.0898  -0.0198   0.1448   0.2146   0.3728
     0.4870   0.6166   0.8483   0.8710   0.9972   1.0872   1.2248   1.3109
     1.3513   1.4957   1.8030   1.9272   2.3145   2.3793   2.4860   2.6201
     3.1763   3.2196   3.3060   3.3653   3.4440   3.4601   3.5315   3.5415
     3.7559   3.8489   3.8768   4.0289   4.1068

          k =-0.0907 0.0314 0.0000 ( 32788 PWs)   bands (ev):

   -64.8806 -64.8806 -64.4459 -64.4459 -64.4322 -64.4322 -53.2375 -53.2375
   -53.2357 -53.2357 -53.1443 -53.1443 -36.8286 -36.8286 -36.8120 -36.8120
   -36.7790 -36.7790 -36.3941 -36.3941 -36.3877 -36.3877 -36.3696 -36.3696
   -36.3626 -36.3626 -36.3549 -36.3549 -36.3460 -36.3460 -29.3852 -29.3852
   -29.3571 -29.3571 -29.2443 -29.2443 -29.2404 -29.2404 -29.1828 -29.1828
   -29.1539 -29.1539 -29.1460 -29.1460 -29.1000 -29.1000 -29.0518 -29.0518
    -2.5125  -2.5125  -1.6317  -1.6316  -1.5135  -1.5135  -1.3553  -1.3553
    -1.3218  -1.3218  -0.9986  -0.9986  -0.6241  -0.6241  -0.4201  -0.4201
    -0.3529  -0.3529  -0.0699  -0.0699   0.0187   0.0187   0.2569   0.2569
     0.8520   0.8520   0.9120   0.9120   1.0132   1.0132   1.3220   1.3220
     1.6197   1.6197   1.6577   1.6577   2.2985   2.2985   2.4597   2.4597
     3.1874   3.1874   3.3137   3.3137   3.4097   3.4097   3.4614   3.4614
     3.7883   3.7883   3.9363   3.9364   4.0076

          k =-0.0907 0.0474 0.0000 ( 32796 PWs)   bands (ev):

   -64.8819 -64.8793 -64.4472 -64.4447 -64.4335 -64.4309 -53.2404 -53.2393
   -53.2350 -53.2320 -53.1487 -53.1400 -36.8432 -36.8213 -36.8141 -36.8000
   -36.7811 -36.7766 -36.3950 -36.3938 -36.3919 -36.3856 -36.3742 -36.3716
   -36.3677 -36.3645 -36.3547 -36.3519 -36.3451 -36.3296 -29.4006 -29.3721
   -29.3599 -29.3530 -29.2576 -29.2551 -29.2346 -29.2320 -29.2250 -29.1910
   -29.1822 -29.1451 -29.1176 -29.1095 -29.1044 -29.0949 -29.0568 -29.0470
    -2.5637  -2.3797  -1.6236  -1.5803  -1.4822  -1.4614  -1.3685  -1.3248
    -1.3053  -1.2712  -1.2064  -0.8013  -0.6996  -0.5088  -0.4260  -0.3930
    -0.3837  -0.2851  -0.1351  -0.1190   0.0384   0.1625   0.2694   0.2905
     0.8375   0.8558   0.8944   0.9114   0.9875   1.0440   1.2553   1.4025
     1.5820   1.6081   1.6198   1.7214   2.2715   2.2790   2.3919   2.4349
     2.9714   3.1790   3.2110   3.2960   3.3024   3.4099   3.5261   3.5531
     3.6951   3.7268   3.7770   3.8755   4.0038

          k =-0.0907 0.0634 0.0000 ( 32785 PWs)   bands (ev):

   -64.8831 -64.8780 -64.4484 -64.4434 -64.4348 -64.4296 -53.2432 -53.2428
   -53.2326 -53.2288 -53.1529 -53.1360 -36.8584 -36.8179 -36.8120 -36.7832
   -36.7827 -36.7741 -36.4059 -36.3925 -36.3919 -36.3843 -36.3791 -36.3753
   -36.3734 -36.3663 -36.3539 -36.3511 -36.3280 -36.3125 -29.4160 -29.3690
   -29.3539 -29.3490 -29.2757 -29.2730 -29.2631 -29.2412 -29.2304 -29.2262
   -29.2030 -29.1308 -29.0924 -29.0922 -29.0843 -29.0751 -29.0610 -29.0431
    -2.5410  -2.1707  -1.5584  -1.4737  -1.4192  -1.3866  -1.3640  -1.3393
    -1.2559  -1.2555  -1.1570  -0.7353  -0.6396  -0.4314  -0.3437  -0.3222
    -0.3137  -0.2311  -0.2267  -0.1569   0.1640   0.3018   0.3276   0.3689
     0.7948   0.8341   0.8573   0.8794   1.0624   1.0642   1.2082   1.4578
     1.5569   1.5686   1.6011   1.7575   2.1547   2.1893   2.3191   2.3588
     2.6904   2.8580   3.0933   3.1344   3.2631   3.3456   3.5099   3.5853
     3.5967   3.7022   3.7513   3.8454   3.9453

          k =-0.0907 0.0795 0.0000 ( 32782 PWs)   bands (ev):

   -64.8841 -64.8770 -64.4494 -64.4424 -64.4358 -64.4285 -53.2460 -53.2455
   -53.2307 -53.2261 -53.1565 -53.1327 -36.8715 -36.8148 -36.8084 -36.7840
   -36.7717 -36.7670 -36.4179 -36.3965 -36.3905 -36.3844 -36.3832 -36.3742
   -36.3734 -36.3663 -36.3534 -36.3495 -36.3121 -36.2969 -29.4303 -29.3719
   -29.3453 -29.3435 -29.3071 -29.2938 -29.2806 -29.2691 -29.2588 -29.2297
   -29.2040 -29.1371 -29.0917 -29.0656 -29.0640 -29.0567 -29.0466 -29.0401
    -2.4617  -1.9081  -1.5966  -1.4443  -1.4052  -1.3210  -1.2462  -1.2207
    -1.2168  -1.1336  -0.9834  -0.7213  -0.5366  -0.3689  -0.3156  -0.2209
    -0.1946  -0.1522  -0.1318  -0.1306   0.2643   0.4057   0.4251   0.4928
     0.6366   0.8261   0.8731   0.9687   1.0584   1.1829   1.1842   1.4507
     1.4740   1.5640   1.6682   1.7246   1.9954   2.0011   2.1891   2.3731
     2.3852   2.5242   2.9448   3.0252   3.0939   3.3288   3.3550   3.4034
     3.5913   3.6621   3.8347   3.8826   3.9350

          k =-0.0907 0.0955 0.0000 ( 32751 PWs)   bands (ev):

   -64.8849 -64.8762 -64.4502 -64.4416 -64.4367 -64.4277 -53.2483 -53.2475
   -53.2292 -53.2240 -53.1592 -53.1302 -36.8814 -36.8120 -36.8045 -36.7848
   -36.7698 -36.7540 -36.4275 -36.4044 -36.3885 -36.3856 -36.3814 -36.3725
   -36.3719 -36.3659 -36.3531 -36.3480 -36.2994 -36.2843 -29.4418 -29.3746
   -29.3417 -29.3392 -29.3315 -29.3098 -29.2962 -29.2922 -29.2849 -29.2315
   -29.2033 -29.1446 -29.0924 -29.0655 -29.0438 -29.0395 -29.0346 -29.0246
    -2.3478  -1.7628  -1.6350  -1.4184  -1.3271  -1.2497  -1.1597  -1.1387
    -1.0718  -0.9810  -0.7917  -0.6584  -0.4688  -0.3707  -0.2466  -0.2070
    -0.1553  -0.0709   0.0470   0.1339   0.2445   0.4724   0.5126   0.5651
     0.7137   0.8298   0.9366   1.0265   1.1790   1.1937   1.3030   1.3863
     1.4601   1.5475   1.5925   1.7502   1.7987   1.8169   2.0774   2.1167
     2.2408   2.4204   2.8188   2.9295   2.9556   3.1684   3.2555   3.3337
     3.5473   3.5836   3.6739   3.7833   3.8003

          k =-0.0907 0.1115 0.0000 ( 32778 PWs)   bands (ev):

   -64.8854 -64.8756 -64.4507 -64.4411 -64.4372 -64.4271 -53.2498 -53.2487
   -53.2283 -53.2229 -53.1610 -53.1287 -36.8875 -36.8100 -36.8017 -36.7853
   -36.7686 -36.7455 -36.4336 -36.4097 -36.3871 -36.3866 -36.3795 -36.3718
   -36.3705 -36.3648 -36.3529 -36.3470 -36.2912 -36.2762 -29.4494 -29.3764
   -29.3568 -29.3378 -29.3254 -29.3222 -29.3124 -29.3042 -29.3011 -29.2338
   -29.2033 -29.1498 -29.0934 -29.0661 -29.0385 -29.0295 -29.0223 -29.0110
    -2.2204  -1.9118  -1.4194  -1.4152  -1.3426  -1.1448  -1.1222  -1.0173
    -0.9740  -0.8250  -0.6467  -0.5725  -0.4216  -0.3705  -0.2467  -0.1982
    -0.1461  -0.0073   0.1025   0.2259   0.3396   0.5290   0.5808   0.7254
     0.8403   0.9866   0.9942   1.0513   1.1955   1.3124   1.3274   1.3812
     1.4188   1.5204   1.6129   1.6318   1.6536   1.7326   1.9224   2.0269
     2.1807   2.4782   2.6614   2.8079   2.9095   3.0544   3.1364   3.2781
     3.2874   3.4358   3.4568   3.5681   3.8010

          k =-0.0907-0.0646 0.0000 ( 32762 PWs)   bands (ev):

   -64.8855 -64.8755 -64.4509 -64.4409 -64.4373 -64.4270 -53.2503 -53.2492
   -53.2280 -53.2224 -53.1616 -53.1281 -36.8896 -36.8093 -36.8006 -36.7855
   -36.7681 -36.7426 -36.4357 -36.4116 -36.3873 -36.3863 -36.3787 -36.3718
   -36.3699 -36.3642 -36.3529 -36.3467 -36.2884 -36.2733 -29.4521 -29.3770
   -29.3634 -29.3341 -29.3289 -29.3214 -29.3183 -29.3094 -29.3069 -29.2348
   -29.2035 -29.1516 -29.0938 -29.0662 -29.0382 -29.0249 -29.0179 -29.0064
    -2.1277  -2.0099  -1.4129  -1.3667  -1.3239  -1.1202  -1.0850  -0.9822
    -0.9437  -0.6995  -0.5922  -0.5879  -0.3520  -0.3310  -0.3138  -0.2571
    -0.1320   0.0161   0.0511   0.3050   0.4147   0.5315   0.6639   0.7447
     0.9956   1.0040   1.0140   1.1387   1.2313   1.2321   1.3151   1.3642
     1.4228   1.5347   1.5509   1.5660   1.6366   1.7338   1.9265   2.0117
     2.2945   2.4909   2.5079   2.7433   2.8899   3.0051   3.0627   3.0991
     3.2555   3.2824   3.3908   3.5586   3.5953

     the Fermi energy is     2.1715 ev

!    total energy              =   -1799.71017399 Ry
     estimated scf accuracy    <       0.00000818 Ry
     smearing contrib. (-TS)   =      -0.05497220 Ry
     internal energy E=F+TS    =   -1799.65520180 Ry

     The total energy is F=E-TS. E is the sum of the following terms:
     one-electron contribution =  -14806.61052559 Ry
     hartree contribution      =    7400.45790958 Ry
     xc contribution           =    -352.17994857 Ry
     ewald contribution        =    5958.67736126 Ry
     electric field correction =       0.00000152 Ry

     convergence has been achieved in  17 iterations

     negative rho (up, down):  5.968E-03 0.000E+00

     Forces acting on atoms (cartesian axes, Ry/au):

     atom    1 type  1   force =     0.00322699    0.00229552   -0.00535901
     atom    2 type  1   force =     0.00322558    0.00229710   -0.00535827
     atom    3 type  2   force =     0.00137894    0.00098156    0.02831242
     atom    4 type  2   force =     0.00137985    0.00098160    0.02831244
     atom    5 type  1   force =    -0.00202689   -0.00144225   -0.01459495
     atom    6 type  1   force =    -0.00202598   -0.00144274   -0.01459528
     atom    7 type  2   force =    -0.00145771   -0.00103714   -0.01119579
     atom    8 type  2   force =    -0.00145802   -0.00103734   -0.01119522
     atom    9 type  1   force =    -0.00040308   -0.00028587    0.00215191
     atom   10 type  1   force =    -0.00040161   -0.00028697    0.00215226
     atom   11 type  2   force =    -0.00071905   -0.00051202    0.00068477
     atom   12 type  2   force =    -0.00071902   -0.00051146    0.00068473

     Total force =     0.049045     Total SCF correction =     0.016516
     SCF correction compared to forces is large: reduce conv_thr to get better values

     Writing output data file ./Nb2Tc2/Nb2Tc2_beef.save/

     init_run     :    151.76s CPU    152.40s WALL (       1 calls)
     electrons    :   4364.31s CPU   4382.59s WALL (       1 calls)
     forces       :     71.79s CPU     72.08s WALL (       1 calls)

     Called by init_run:
     wfcinit      :    139.95s CPU    140.34s WALL (       1 calls)
     potinit      :      7.84s CPU      7.93s WALL (       1 calls)
     hinit0       :      2.04s CPU      2.05s WALL (       1 calls)

     Called by electrons:
     c_bands      :   3916.40s CPU   3927.03s WALL (      17 calls)
     sum_band     :    409.37s CPU    413.28s WALL (      17 calls)
     v_of_rho     :     25.58s CPU     26.92s WALL (      18 calls)
     newd         :     19.58s CPU     22.06s WALL (      18 calls)
     mix_rho      :      0.74s CPU      0.76s WALL (      17 calls)
     vdW_kernel   :      5.69s CPU      5.70s WALL (       1 calls)

     Called by c_bands:
     init_us_2    :     13.69s CPU     13.76s WALL (    2664 calls)
     cegterg      :   3880.25s CPU   3889.09s WALL (    1258 calls)

     Called by *egterg:
     cdiaghg      :    187.69s CPU    187.76s WALL (    6234 calls)
     h_psi        :   1781.16s CPU   1788.66s WALL (    6308 calls)
     s_psi        :    645.82s CPU    645.98s WALL (    6308 calls)
     g_psi        :      1.38s CPU      1.40s WALL (    4976 calls)

     Called by h_psi:
     h_psi:calbec :    642.89s CPU    643.72s WALL (    6308 calls)
     vloc_psi     :    483.27s CPU    489.74s WALL (    6308 calls)
     add_vuspsi   :    647.15s CPU    647.32s WALL (    6308 calls)

     General routines
     calbec       :    971.11s CPU    972.35s WALL (    7862 calls)
     fft          :     14.37s CPU     14.91s WALL (    1193 calls)
     ffts         :      0.06s CPU      0.07s WALL (      35 calls)
     fftw         :    554.47s CPU    562.17s WALL (  744202 calls)
     interpolate  :      0.31s CPU      0.32s WALL (      18 calls)

     Parallel routines
     fft_scatt_xy :     46.76s CPU     47.33s WALL (  745430 calls)
     fft_scatt_yz :     90.52s CPU     92.17s WALL (  745430 calls)

     PWSCF        :      1h16m CPU      1h17m WALL


   This run was terminated on:  15: 8:15  24Jun2022            

=------------------------------------------------------------------------------=
   JOB DONE.
=------------------------------------------------------------------------------=
