
     Program PWSCF v.6.6 starts on 23Jun2022 at 21:15:42 

     This program is part of the open-source Quantum ESPRESSO suite
     for quantum simulation of materials; please cite
         "P. Giannozzi et al., J. Phys.:Condens. Matter 21 395502 (2009);
         "P. Giannozzi et al., J. Phys.:Condens. Matter 29 465901 (2017);
          URL http://www.quantum-espresso.org", 
     in publications or presentations arising from this work. More details at
     http://www.quantum-espresso.org/quote

     Parallel version (MPI), running on    37 processors

     MPI processes distributed on     2 nodes
     R & G space division:  proc/nbgrp/npool/nimage =      37
     Fft bands division:     nmany     =       1
     Reading input from Nb2W2.in
Warning: card &CELL ignored
Warning: card / ignored

     Current dimensions of program PWSCF are:
     Max number of different atomic species (ntypx) = 10
     Max number of k-points (npk) =  40000
     Max angular momentum in pseudopotentials (lmaxx) =  3
     Presently stress not available with electric field and gates

     Message from routine cell_base_init:
     DEPRECATED: use true lattice parameter, not A to a.u. conversion factor
     Message from routine emend_upf/check:
     BEWARE !!! Possible out of bounds while fixing pseudo
     Message from routine emend_upf/check:
     BEWARE !!! Possible out of bounds while fixing pseudo
     Message from routine read_upf:
     Pseudo file W.pbe-spn-rrkjus_psl.0.2.3.UPF has been fixed on the fly.
     To avoid this message in the future, permanently fix 
     your pseudo files following these instructions: 
     https://gitlab.com/QEF/q-e/blob/master/upftools/how_to_fix_upf.md
     file Nb.pbe-spn-rrkjus_psl.1.0.0.UPF: wavefunction(s)  4S 4P renormalized

     **************************************************************************
     Initializing libbeef V0.1.2 with the BEEF-vdW functional.
     Citation: Wellendorff et al., PRB 85, 235149 (2012).
     **************************************************************************


     IMPORTANT: XC functional enforced from input :
     Exchange-correlation= BEEF-VDW
                           (   1   4  43  14   2   0   0)
     Any further DFT definition will be discarded
     Please, verify this is what you really want


     Subspace diagonalization in iterative solution of the eigenvalue problem:
     a serial algorithm will be used

     Found symmetry operation: I + (  0.5000  0.0000  0.0000)
     This is a supercell, fractional translations are disabled

     Parallelization info
     --------------------
     sticks:   dense  smooth     PW     G-vecs:    dense   smooth      PW
     Min         125      50     14                29171     7378    1134
     Max         126      51     15                29188     7393    1155
     Sum        4647    1857    527              1079615   273117   42241



     bravais-lattice index     =            0
     lattice parameter (alat)  =       1.8897  a.u.
     unit-cell volume          =    4940.1314 (a.u.)^3
     number of atoms/cell      =           12
     number of atomic types    =            2
     number of electrons       =       162.00
     number of Kohn-Sham states=           97
     kinetic-energy cutoff     =      55.1240  Ry
     charge density cutoff     =     551.2396  Ry
     convergence threshold     =      1.0E-05
     mixing beta               =       0.1000
     number of iterations used =           10  plain     mixing
     Exchange-correlation= BEEF-VDW
                           (   1   4  43  14   2   0   0)

     celldm(1)=   1.889726  celldm(2)=   0.000000  celldm(3)=   0.000000
     celldm(4)=   0.000000  celldm(5)=   0.000000  celldm(6)=   0.000000

     crystal axes: (cart. coord. in units of alat)
               a(1) = (   5.407663   0.000000   0.000000 )  
               a(2) = (  -2.703831   5.479900   0.000000 )  
               a(3) = (   0.000000   0.000000  24.703571 )  

     reciprocal axes: (cart. coord. in units 2 pi/alat)
               b(1) = (  0.184923  0.091243 -0.000000 )  
               b(2) = (  0.000000  0.182485  0.000000 )  
               b(3) = (  0.000000 -0.000000  0.040480 )  


     PseudoPot. # 1 for Nb read from file:
     ../pseudo/Nb.pbe-spn-rrkjus_psl.1.0.0.UPF
     MD5 check sum: 6ee677a9f002bd3e3657f443f129faad
     Pseudo is Ultrasoft + core correction, Zval = 13.0
     Generated using "atomic" code by A. Dal Corso v.6.2.2
     Using radial grid of 1227 points,  6 beta functions with: 
                l(1) =   0
                l(2) =   0
                l(3) =   1
                l(4) =   1
                l(5) =   2
                l(6) =   2
     Q(r) pseudized with 0 coefficients 


     PseudoPot. # 2 for W  read from file:
     ../pseudo/W.pbe-spn-rrkjus_psl.0.2.3.UPF
     MD5 check sum: 25b665cf2bbae626ad8d9f1bc024df95
     Pseudo is Ultrasoft + core correction, Zval = 14.0
     Generated using "atomic" code by A. Dal Corso v.5.0.2 svn rev. 10551
     Using radial grid of 1273 points,  6 beta functions with: 
                l(1) =   0
                l(2) =   0
                l(3) =   1
                l(4) =   1
                l(5) =   2
                l(6) =   2
     Q(r) pseudized with 0 coefficients 


     atomic species   valence    mass     pseudopotential
        Nb            13.00    92.90637     Nb( 1.00)
        W             14.00   183.84000     W ( 1.00)

     No symmetry found



   Cartesian axes

     site n.     atom                  positions (alat units)
         1           Nb  tau(   1) = (   0.0000000   0.0000000  10.0000000  )
         2           Nb  tau(   2) = (   2.7038313   0.0000000  10.0000000  )
         3           W   tau(   3) = (   1.3519156   2.7399499  10.0000000  )
         4           W   tau(   4) = (  -1.3519156   2.7399499  10.0000000  )
         5           Nb  tau(   5) = (   2.7038313   1.3340944  12.3517856  )
         6           Nb  tau(   6) = (  -0.0000000   1.3340944  12.3517856  )
         7           W   tau(   7) = (  -1.3519156   4.0740443  12.3517856  )
         8           W   tau(   8) = (   1.3519156   4.0740443  12.3517856  )
         9           Nb  tau(   9) = (  -0.0000347   2.6858389  14.7311119  )
        10           Nb  tau(  10) = (   2.7037964   2.6858393  14.7311156  )
        11           W   tau(  11) = (   1.3519505   5.3885510  14.6034740  )
        12           W   tau(  12) = (  -1.3518849   5.3885515  14.6034762  )

     number of k points=    74  Fermi-Dirac smearing, width (Ry)=  0.0100
                       cart. coord. in units 2pi/alat
        k(    1) = (   0.0000000   0.0000000   0.0000000), wk =   0.0138889
        k(    2) = (   0.0000000   0.0152071   0.0000000), wk =   0.0277778
        k(    3) = (   0.0000000   0.0304142   0.0000000), wk =   0.0277778
        k(    4) = (   0.0000000   0.0456213   0.0000000), wk =   0.0277778
        k(    5) = (   0.0000000   0.0608284   0.0000000), wk =   0.0277778
        k(    6) = (   0.0000000   0.0760355   0.0000000), wk =   0.0277778
        k(    7) = (   0.0000000  -0.0912425   0.0000000), wk =   0.0138889
        k(    8) = (   0.0154102   0.0076035   0.0000000), wk =   0.0277778
        k(    9) = (   0.0154102   0.0228106   0.0000000), wk =   0.0277778
        k(   10) = (   0.0154102   0.0380177   0.0000000), wk =   0.0277778
        k(   11) = (   0.0154102   0.0532248   0.0000000), wk =   0.0277778
        k(   12) = (   0.0154102   0.0684319   0.0000000), wk =   0.0277778
        k(   13) = (   0.0154102   0.0836390   0.0000000), wk =   0.0277778
        k(   14) = (   0.0154102  -0.0836390   0.0000000), wk =   0.0277778
        k(   15) = (   0.0154102  -0.0684319   0.0000000), wk =   0.0277778
        k(   16) = (   0.0154102  -0.0532248   0.0000000), wk =   0.0277778
        k(   17) = (   0.0154102  -0.0380177   0.0000000), wk =   0.0277778
        k(   18) = (   0.0154102  -0.0228106   0.0000000), wk =   0.0277778
        k(   19) = (   0.0154102  -0.0076035   0.0000000), wk =   0.0277778
        k(   20) = (   0.0308205   0.0152071   0.0000000), wk =   0.0277778
        k(   21) = (   0.0308205   0.0304142   0.0000000), wk =   0.0277778
        k(   22) = (   0.0308205   0.0456213   0.0000000), wk =   0.0277778
        k(   23) = (   0.0308205   0.0608284   0.0000000), wk =   0.0277778
        k(   24) = (   0.0308205   0.0760354   0.0000000), wk =   0.0277778
        k(   25) = (   0.0308205   0.0912425   0.0000000), wk =   0.0277778
        k(   26) = (   0.0308205  -0.0760355   0.0000000), wk =   0.0277778
        k(   27) = (   0.0308205  -0.0608284   0.0000000), wk =   0.0277778
        k(   28) = (   0.0308205  -0.0456213   0.0000000), wk =   0.0277778
        k(   29) = (   0.0308205  -0.0304142   0.0000000), wk =   0.0277778
        k(   30) = (   0.0308205  -0.0152071   0.0000000), wk =   0.0277778
        k(   31) = (   0.0308205  -0.0000000   0.0000000), wk =   0.0277778
        k(   32) = (   0.0462307   0.0228106   0.0000000), wk =   0.0277778
        k(   33) = (   0.0462307   0.0380177   0.0000000), wk =   0.0277778
        k(   34) = (   0.0462307   0.0532248   0.0000000), wk =   0.0277778
        k(   35) = (   0.0462307   0.0684319   0.0000000), wk =   0.0277778
        k(   36) = (   0.0462307   0.0836390   0.0000000), wk =   0.0277778
        k(   37) = (   0.0462307   0.0988461   0.0000000), wk =   0.0277778
        k(   38) = (   0.0462307  -0.0684319   0.0000000), wk =   0.0277778
        k(   39) = (   0.0462307  -0.0532248   0.0000000), wk =   0.0277778
        k(   40) = (   0.0462307  -0.0380177   0.0000000), wk =   0.0277778
        k(   41) = (   0.0462307  -0.0228106   0.0000000), wk =   0.0277778
        k(   42) = (   0.0462307  -0.0076035   0.0000000), wk =   0.0277778
        k(   43) = (   0.0462307   0.0076035   0.0000000), wk =   0.0277778
        k(   44) = (   0.0616409   0.0304142   0.0000000), wk =   0.0277778
        k(   45) = (   0.0616409   0.0456213   0.0000000), wk =   0.0277778
        k(   46) = (   0.0616409   0.0608284   0.0000000), wk =   0.0277778
        k(   47) = (   0.0616409   0.0760354   0.0000000), wk =   0.0277778
        k(   48) = (   0.0616409   0.0912425   0.0000000), wk =   0.0277778
        k(   49) = (   0.0616409   0.1064496   0.0000000), wk =   0.0277778
        k(   50) = (   0.0616409  -0.0608284   0.0000000), wk =   0.0277778
        k(   51) = (   0.0616409  -0.0456213   0.0000000), wk =   0.0277778
        k(   52) = (   0.0616409  -0.0304142   0.0000000), wk =   0.0277778
        k(   53) = (   0.0616409  -0.0152071   0.0000000), wk =   0.0277778
        k(   54) = (   0.0616409  -0.0000000   0.0000000), wk =   0.0277778
        k(   55) = (   0.0616409   0.0152071   0.0000000), wk =   0.0277778
        k(   56) = (   0.0770512   0.0380177   0.0000000), wk =   0.0277778
        k(   57) = (   0.0770512   0.0532248   0.0000000), wk =   0.0277778
        k(   58) = (   0.0770512   0.0684319   0.0000000), wk =   0.0277778
        k(   59) = (   0.0770512   0.0836390   0.0000000), wk =   0.0277778
        k(   60) = (   0.0770512   0.0988461   0.0000000), wk =   0.0277778
        k(   61) = (   0.0770512   0.1140532   0.0000000), wk =   0.0277778
        k(   62) = (   0.0770512  -0.0532248   0.0000000), wk =   0.0277778
        k(   63) = (   0.0770512  -0.0380177   0.0000000), wk =   0.0277778
        k(   64) = (   0.0770512  -0.0228106   0.0000000), wk =   0.0277778
        k(   65) = (   0.0770512  -0.0076036   0.0000000), wk =   0.0277778
        k(   66) = (   0.0770512   0.0076035   0.0000000), wk =   0.0277778
        k(   67) = (   0.0770512   0.0228106   0.0000000), wk =   0.0277778
        k(   68) = (  -0.0924614  -0.0456213   0.0000000), wk =   0.0138889
        k(   69) = (  -0.0924614  -0.0304142   0.0000000), wk =   0.0277778
        k(   70) = (  -0.0924614  -0.0152071   0.0000000), wk =   0.0277778
        k(   71) = (  -0.0924614   0.0000000   0.0000000), wk =   0.0277778
        k(   72) = (  -0.0924614   0.0152071   0.0000000), wk =   0.0277778
        k(   73) = (  -0.0924614   0.0304142   0.0000000), wk =   0.0277778
        k(   74) = (  -0.0924614  -0.1368638   0.0000000), wk =   0.0138889

     Dense  grid:  1079615 G-vectors     FFT dimensions: (  80,  90, 360)

     Smooth grid:   273117 G-vectors     FFT dimensions: (  50,  60, 225)

     Estimated max dynamical RAM per process >     218.90 MB

     Estimated total dynamical RAM >       7.91 GB

     Initial potential from superposition of free atoms

     starting charge  161.98881, renormalised to  162.00000

     negative rho (up, down):  1.188E-03 0.000E+00


     %%%%%%%%%%%%%%%%%%%%%%%%%%%%%%%%%%%%%%%%%%%%%%%%%%%%%%%%%%%%%%%%%%%%%%%%
     %                                                                      %
     % You are using vdW-DF, which was implemented by the Thonhauser group. %
     % Please cite the following two papers that made this development      %
     % possible and the two reviews that describe the various versions:     %
     %                                                                      %
     %   T. Thonhauser et al., PRL 115, 136402 (2015).                      %
     %   T. Thonhauser et al., PRB 76, 125112 (2007).                       %
     %   K. Berland et al., Rep. Prog. Phys. 78, 066501 (2015).             %
     %   D.C. Langreth et al., J. Phys.: Condens. Matter 21, 084203 (2009). %
     %                                                                      %
     %                                                                      %
     % If you are calculating the stress with vdW-DF, please also cite:     %
     %                                                                      %
     %   R. Sabatini et al., J. Phys.: Condens. Matter 24, 424209 (2012).   %
     %                                                                      %
     %%%%%%%%%%%%%%%%%%%%%%%%%%%%%%%%%%%%%%%%%%%%%%%%%%%%%%%%%%%%%%%%%%%%%%%%



     Adding external electric field

     Computed dipole along edir(3) : 
        Dipole                0.0002 Ry au,          0.0005 Debye
        Dipole field          0.0000 Ry au, 

        Potential amp.       -0.0000 Ry
        Total length         45.5159 bohr

     Starting wfcs are  156 randomized atomic wfcs

     total cpu time spent up to now is       88.8 secs

     Self-consistent Calculation

     iteration #  1     ecut=    55.12 Ry     beta= 0.10
     Davidson diagonalization with overlap
     ethr =  1.00E-02,  avg # of iterations =  2.0

     negative rho (up, down):  1.162E-03 0.000E+00

     Adding external electric field

     Computed dipole along edir(3) : 
        Dipole               -0.1310 Ry au,         -0.3330 Debye
        Dipole field         -0.0003 Ry au, 

        Potential amp.        0.0303 Ry
        Total length         45.5159 bohr


     total cpu time spent up to now is      219.4 secs

     total energy              =   -1666.21295749 Ry
     estimated scf accuracy    <       5.24781892 Ry

     iteration #  2     ecut=    55.12 Ry     beta= 0.10
     Davidson diagonalization with overlap
     ethr =  3.24E-03,  avg # of iterations =  2.0

     negative rho (up, down):  1.179E-03 0.000E+00

     Adding external electric field

     Computed dipole along edir(3) : 
        Dipole                0.5402 Ry au,          1.3730 Debye
        Dipole field          0.0014 Ry au, 

        Potential amp.       -0.1251 Ry
        Total length         45.5159 bohr


     total cpu time spent up to now is      351.4 secs

     total energy              =   -1666.51752405 Ry
     estimated scf accuracy    <       1.82846439 Ry

     iteration #  3     ecut=    55.12 Ry     beta= 0.10
     Davidson diagonalization with overlap
     ethr =  1.13E-03,  avg # of iterations =  2.6

     negative rho (up, down):  1.471E-03 0.000E+00

     Adding external electric field

     Computed dipole along edir(3) : 
        Dipole               -0.0299 Ry au,         -0.0761 Debye
        Dipole field         -0.0001 Ry au, 

        Potential amp.        0.0069 Ry
        Total length         45.5159 bohr


     total cpu time spent up to now is      474.6 secs

     total energy              =   -1666.43321898 Ry
     estimated scf accuracy    <      16.25996436 Ry

     iteration #  4     ecut=    55.12 Ry     beta= 0.10
     Davidson diagonalization with overlap
     ethr =  1.13E-03,  avg # of iterations =  1.0

     negative rho (up, down):  1.201E-03 0.000E+00

     Adding external electric field

     Computed dipole along edir(3) : 
        Dipole                0.0103 Ry au,          0.0261 Debye
        Dipole field          0.0000 Ry au, 

        Potential amp.       -0.0024 Ry
        Total length         45.5159 bohr


     total cpu time spent up to now is      582.3 secs

     total energy              =   -1666.60265875 Ry
     estimated scf accuracy    <       0.44061067 Ry

     iteration #  5     ecut=    55.12 Ry     beta= 0.10
     Davidson diagonalization with overlap
     ethr =  2.72E-04,  avg # of iterations =  2.1

     negative rho (up, down):  1.677E-03 0.000E+00

     Adding external electric field

     Computed dipole along edir(3) : 
        Dipole                0.0331 Ry au,          0.0841 Debye
        Dipole field          0.0001 Ry au, 

        Potential amp.       -0.0077 Ry
        Total length         45.5159 bohr


     total cpu time spent up to now is      705.2 secs

     total energy              =   -1666.59587550 Ry
     estimated scf accuracy    <       0.14606614 Ry

     iteration #  6     ecut=    55.12 Ry     beta= 0.10
     Davidson diagonalization with overlap
     ethr =  9.02E-05,  avg # of iterations =  8.5

     negative rho (up, down):  1.479E-03 0.000E+00

     Adding external electric field

     Computed dipole along edir(3) : 
        Dipole                0.0195 Ry au,          0.0496 Debye
        Dipole field          0.0000 Ry au, 

        Potential amp.       -0.0045 Ry
        Total length         45.5159 bohr


     total cpu time spent up to now is      877.4 secs

     total energy              =   -1666.61291944 Ry
     estimated scf accuracy    <       0.06249171 Ry

     iteration #  7     ecut=    55.12 Ry     beta= 0.10
     Davidson diagonalization with overlap
     c_bands:  2 eigenvalues not converged
     c_bands:  1 eigenvalues not converged
     c_bands:  1 eigenvalues not converged
     c_bands:  1 eigenvalues not converged
     ethr =  3.86E-05,  avg # of iterations =  4.9

     negative rho (up, down):  5.690E-03 0.000E+00

     Adding external electric field

     Computed dipole along edir(3) : 
        Dipole                0.0423 Ry au,          0.1076 Debye
        Dipole field          0.0001 Ry au, 

        Potential amp.       -0.0098 Ry
        Total length         45.5159 bohr


     total cpu time spent up to now is     1014.7 secs

     total energy              =   -1666.61294848 Ry
     estimated scf accuracy    <       0.04279893 Ry

     iteration #  8     ecut=    55.12 Ry     beta= 0.10
     Davidson diagonalization with overlap
     ethr =  2.64E-05,  avg # of iterations =  2.4

     negative rho (up, down):  5.657E-03 0.000E+00

     Adding external electric field

     Computed dipole along edir(3) : 
        Dipole                0.0224 Ry au,          0.0569 Debye
        Dipole field          0.0001 Ry au, 

        Potential amp.       -0.0052 Ry
        Total length         45.5159 bohr


     total cpu time spent up to now is     1149.3 secs

     total energy              =   -1666.61853312 Ry
     estimated scf accuracy    <       0.01631900 Ry

     iteration #  9     ecut=    55.12 Ry     beta= 0.10
     Davidson diagonalization with overlap
     c_bands:  2 eigenvalues not converged
     c_bands:  1 eigenvalues not converged
     ethr =  1.01E-05,  avg # of iterations =  8.2

     negative rho (up, down):  4.572E-03 0.000E+00

     Adding external electric field

     Computed dipole along edir(3) : 
        Dipole                0.0253 Ry au,          0.0642 Debye
        Dipole field          0.0001 Ry au, 

        Potential amp.       -0.0058 Ry
        Total length         45.5159 bohr


     total cpu time spent up to now is     1294.5 secs

     total energy              =   -1666.61799468 Ry
     estimated scf accuracy    <       0.01304878 Ry

     iteration # 10     ecut=    55.12 Ry     beta= 0.10
     Davidson diagonalization with overlap
     ethr =  8.05E-06,  avg # of iterations =  4.3

     negative rho (up, down):  4.747E-03 0.000E+00

     Adding external electric field

     Computed dipole along edir(3) : 
        Dipole                0.0272 Ry au,          0.0691 Debye
        Dipole field          0.0001 Ry au, 

        Potential amp.       -0.0063 Ry
        Total length         45.5159 bohr


     total cpu time spent up to now is     1428.4 secs

     total energy              =   -1666.61918093 Ry
     estimated scf accuracy    <       0.00408498 Ry

     iteration # 11     ecut=    55.12 Ry     beta= 0.10
     Davidson diagonalization with overlap
     c_bands:  1 eigenvalues not converged
     c_bands:  1 eigenvalues not converged
     c_bands:  1 eigenvalues not converged
     c_bands:  1 eigenvalues not converged
     c_bands:  1 eigenvalues not converged
     c_bands:  1 eigenvalues not converged
     c_bands:  2 eigenvalues not converged
     c_bands:  1 eigenvalues not converged
     ethr =  2.52E-06,  avg # of iterations =  8.6

     negative rho (up, down):  4.831E-03 0.000E+00

     Adding external electric field

     Computed dipole along edir(3) : 
        Dipole                0.0307 Ry au,          0.0781 Debye
        Dipole field          0.0001 Ry au, 

        Potential amp.       -0.0071 Ry
        Total length         45.5159 bohr


     total cpu time spent up to now is     1578.8 secs

     total energy              =   -1666.61950878 Ry
     estimated scf accuracy    <       0.00169385 Ry

     iteration # 12     ecut=    55.12 Ry     beta= 0.10
     Davidson diagonalization with overlap
     c_bands:  1 eigenvalues not converged
     c_bands:  1 eigenvalues not converged
     c_bands:  1 eigenvalues not converged
     c_bands:  1 eigenvalues not converged
     ethr =  1.05E-06,  avg # of iterations =  4.5

     negative rho (up, down):  4.474E-03 0.000E+00

     Adding external electric field

     Computed dipole along edir(3) : 
        Dipole                0.0307 Ry au,          0.0779 Debye
        Dipole field          0.0001 Ry au, 

        Potential amp.       -0.0071 Ry
        Total length         45.5159 bohr


     total cpu time spent up to now is     1711.7 secs

     total energy              =   -1666.61957137 Ry
     estimated scf accuracy    <       0.00043150 Ry

     iteration # 13     ecut=    55.12 Ry     beta= 0.10
     Davidson diagonalization with overlap
     c_bands:  1 eigenvalues not converged
     c_bands:  1 eigenvalues not converged
     c_bands:  1 eigenvalues not converged
     ethr =  2.66E-07,  avg # of iterations =  6.4

     negative rho (up, down):  4.148E-03 0.000E+00

     Adding external electric field

     Computed dipole along edir(3) : 
        Dipole                0.0310 Ry au,          0.0788 Debye
        Dipole field          0.0001 Ry au, 

        Potential amp.       -0.0072 Ry
        Total length         45.5159 bohr


     total cpu time spent up to now is     1861.1 secs

     total energy              =   -1666.61965587 Ry
     estimated scf accuracy    <       0.00006198 Ry

     iteration # 14     ecut=    55.12 Ry     beta= 0.10
     Davidson diagonalization with overlap
     c_bands:  1 eigenvalues not converged
     c_bands:  1 eigenvalues not converged
     ethr =  3.83E-08,  avg # of iterations =  6.6

     negative rho (up, down):  3.936E-03 0.000E+00

     Adding external electric field

     Computed dipole along edir(3) : 
        Dipole                0.0300 Ry au,          0.0763 Debye
        Dipole field          0.0001 Ry au, 

        Potential amp.       -0.0070 Ry
        Total length         45.5159 bohr


     total cpu time spent up to now is     2022.5 secs

     total energy              =   -1666.61967425 Ry
     estimated scf accuracy    <       0.00003794 Ry

     iteration # 15     ecut=    55.12 Ry     beta= 0.10
     Davidson diagonalization with overlap
     ethr =  2.34E-08,  avg # of iterations =  3.6

     negative rho (up, down):  3.619E-03 0.000E+00

     Adding external electric field

     Computed dipole along edir(3) : 
        Dipole                0.0306 Ry au,          0.0777 Debye
        Dipole field          0.0001 Ry au, 

        Potential amp.       -0.0071 Ry
        Total length         45.5159 bohr


     total cpu time spent up to now is     2161.7 secs

     total energy              =   -1666.61968324 Ry
     estimated scf accuracy    <       0.00003454 Ry

     iteration # 16     ecut=    55.12 Ry     beta= 0.10
     Davidson diagonalization with overlap
     ethr =  2.13E-08,  avg # of iterations =  1.9

     negative rho (up, down):  1.751E-03 0.000E+00

     Adding external electric field

     Computed dipole along edir(3) : 
        Dipole                0.0273 Ry au,          0.0695 Debye
        Dipole field          0.0001 Ry au, 

        Potential amp.       -0.0063 Ry
        Total length         45.5159 bohr


     total cpu time spent up to now is     2279.0 secs

     End of self-consistent calculation

          k = 0.0000 0.0000 0.0000 ( 34187 PWs)   bands (ev):

   -72.2579 -72.1911 -72.1485 -72.0836 -72.0829 -72.0178 -52.9867 -52.9411
   -52.8005 -52.7679 -52.7550 -52.5811 -36.7885 -36.7055 -36.5831 -36.5597
   -36.5170 -36.3537 -36.2860 -36.2393 -36.1988 -36.1830 -36.1610 -36.0883
   -36.0503 -35.8749 -35.8369 -35.7843 -35.6262 -35.5817 -29.5968 -29.5495
   -29.4496 -29.4041 -29.2148 -29.0747 -28.9592 -28.9039 -28.9013 -28.7975
   -28.7958 -28.7372 -28.6322 -28.4166 -28.2699 -28.1959 -28.1590 -28.0743
    -4.9659  -3.3322  -2.7466  -2.4051  -2.3317  -2.0916  -2.0180  -1.8549
    -1.8185  -1.2835  -1.2424  -1.2201  -1.2145  -1.2125  -1.1320  -0.2909
    -0.0006   0.0424   0.1759   0.4860   0.5991   0.6334   0.8395   1.0743
     1.3995   1.4698   1.9353   2.0145   2.2167   2.2480   2.3272   2.5439
     2.8401   2.9385   2.9600   3.2005   3.2755   3.3853   3.5446   3.5598
     3.6812   3.7245   3.8379   3.9313   4.2332   4.4055   4.4525   4.8094
     4.8578

          k = 0.0000 0.0152 0.0000 ( 34127 PWs)   bands (ev):

   -72.2579 -72.1911 -72.1485 -72.0835 -72.0829 -72.0178 -52.9867 -52.9411
   -52.8005 -52.7678 -52.7550 -52.5811 -36.7883 -36.7052 -36.5830 -36.5596
   -36.5169 -36.3531 -36.2862 -36.2391 -36.1983 -36.1830 -36.1606 -36.0882
   -36.0503 -35.8749 -35.8369 -35.7843 -35.6262 -35.5817 -29.5978 -29.5498
   -29.4498 -29.4050 -29.2151 -29.0743 -28.9611 -28.9038 -28.9025 -28.7982
   -28.7965 -28.7376 -28.6324 -28.4166 -28.2698 -28.1959 -28.1590 -28.0743
    -4.9205  -3.2950  -2.7044  -2.3774  -2.2862  -2.0789  -1.9837  -1.8362
    -1.7814  -1.2497  -1.2316  -1.1935  -1.1865  -1.1582  -1.0742  -0.2968
    -0.0030   0.0443   0.2071   0.4349   0.5873   0.6023   0.8497   1.0432
     1.3459   1.4758   1.9026   1.9639   2.0931   2.1912   2.4047   2.4638
     2.7786   2.8720   2.9558   3.0973   3.2247   3.3837   3.4114   3.5575
     3.6441   3.7024   3.8757   3.9689   4.3072   4.3163   4.4178   4.5599
     4.6883

          k = 0.0000 0.0304 0.0000 ( 34111 PWs)   bands (ev):

   -72.2579 -72.1911 -72.1485 -72.0835 -72.0829 -72.0178 -52.9868 -52.9411
   -52.8004 -52.7678 -52.7550 -52.5811 -36.7877 -36.7043 -36.5827 -36.5593
   -36.5166 -36.3515 -36.2866 -36.2385 -36.1969 -36.1831 -36.1595 -36.0879
   -36.0501 -35.8748 -35.8369 -35.7843 -35.6262 -35.5816 -29.6003 -29.5504
   -29.4503 -29.4074 -29.2160 -29.0731 -28.9664 -28.9058 -28.9033 -28.8001
   -28.7984 -28.7387 -28.6329 -28.4166 -28.2698 -28.1962 -28.1591 -28.0743
    -4.7886  -3.1953  -2.5871  -2.2991  -2.1530  -2.0412  -1.8865  -1.7776
    -1.6736  -1.1935  -1.1499  -1.1216  -1.0973  -0.9918  -0.9223  -0.3118
    -0.0126   0.0489   0.2714   0.3290   0.5282   0.5402   0.8216   0.9714
     1.2205   1.4786   1.7640   1.8439   1.8797   2.1800   2.2386   2.4003
     2.5881   2.6629   2.8055   2.9233   3.0364   3.2886   3.2913   3.4885
     3.5880   3.7100   3.7654   3.9836   4.0800   4.1432   4.4819   4.5331
     4.5540

          k = 0.0000 0.0456 0.0000 ( 34086 PWs)   bands (ev):

   -72.2579 -72.1911 -72.1485 -72.0835 -72.0829 -72.0178 -52.9868 -52.9411
   -52.8004 -52.7678 -52.7550 -52.5810 -36.7869 -36.7031 -36.5824 -36.5589
   -36.5161 -36.3494 -36.2873 -36.2376 -36.1950 -36.1833 -36.1580 -36.0875
   -36.0499 -35.8747 -35.8368 -35.7843 -35.6262 -35.5816 -29.6036 -29.5513
   -29.4511 -29.4107 -29.2171 -29.0715 -28.9735 -28.9103 -28.9028 -28.8027
   -28.8011 -28.7403 -28.6336 -28.4167 -28.2697 -28.1964 -28.1592 -28.0743
    -4.5842  -3.0756  -2.4224  -2.1853  -1.9755  -1.9424  -1.7436  -1.6716
    -1.5061  -1.1281  -1.0094  -0.9941  -0.9499  -0.7261  -0.7227  -0.3078
    -0.0320   0.0311   0.1625   0.3364   0.4316   0.5051   0.7158   0.8696
     1.1083   1.4133   1.5455   1.6890   1.7445   1.8631   2.2126   2.2555
     2.2990   2.3436   2.5225   2.5263   2.9159   3.0821   3.1672   3.3829
     3.4506   3.5758   3.6151   3.8662   3.9070   4.2505   4.2595   4.4536
     4.5624

          k = 0.0000 0.0608 0.0000 ( 34062 PWs)   bands (ev):

   -72.2579 -72.1911 -72.1485 -72.0835 -72.0829 -72.0178 -52.9870 -52.9412
   -52.8004 -52.7678 -52.7550 -52.5808 -36.7861 -36.7019 -36.5821 -36.5585
   -36.5156 -36.3472 -36.2879 -36.2367 -36.1931 -36.1836 -36.1565 -36.0872
   -36.0497 -35.8746 -35.8368 -35.7843 -35.6261 -35.5816 -29.6069 -29.5523
   -29.4518 -29.4140 -29.2182 -29.0699 -28.9806 -28.9149 -28.9022 -28.8053
   -28.8038 -28.7419 -28.6343 -28.4167 -28.2696 -28.1967 -28.1594 -28.0743
    -4.3354  -3.0115  -2.2413  -2.0608  -1.8872  -1.6773  -1.5827  -1.5103
    -1.3002  -1.0369  -0.8640  -0.8212  -0.7993  -0.5831  -0.3984  -0.1701
    -0.0625  -0.0342   0.0516   0.2208   0.2579   0.6105   0.6205   0.7648
     1.0369   1.2453   1.3191   1.4944   1.5448   1.6820   1.7788   1.9452
     2.0319   2.0765   2.3147   2.4448   2.5266   2.6026   3.2136   3.2318
     3.3359   3.4754   3.6873   3.7815   3.8801   3.9867   4.0532   4.2419
     4.4978

          k = 0.0000 0.0760 0.0000 ( 34098 PWs)   bands (ev):

   -72.2579 -72.1911 -72.1485 -72.0835 -72.0829 -72.0178 -52.9871 -52.9413
   -52.8005 -52.7679 -52.7550 -52.5809 -36.7856 -36.7010 -36.5818 -36.5583
   -36.5152 -36.3455 -36.2885 -36.2360 -36.1917 -36.1837 -36.1554 -36.0869
   -36.0496 -35.8746 -35.8367 -35.7843 -35.6261 -35.5816 -29.6093 -29.5531
   -29.4524 -29.4164 -29.2191 -29.0687 -28.9858 -28.9182 -28.9018 -28.8073
   -28.8057 -28.7430 -28.6349 -28.4168 -28.2696 -28.1969 -28.1595 -28.0743
    -4.0993  -3.0454  -2.0674  -1.9599  -1.8229  -1.4565  -1.3955  -1.3359
    -1.0916  -0.9094  -0.7892  -0.7310  -0.7065  -0.4607  -0.2052  -0.1598
    -0.0460   0.0087   0.0686   0.0923   0.2023   0.5426   0.6787   0.7573
     0.9715   1.0744   1.1637   1.2645   1.3817   1.4002   1.5279   1.6593
     1.7520   1.8743   1.9230   2.0830   2.3733   2.7596   3.0387   3.2323
     3.3296   3.5458   3.5507   3.5958   3.7374   3.9510   3.9564   4.0930
     4.3438

          k = 0.0000-0.0912 0.0000 ( 34072 PWs)   bands (ev):

   -72.2579 -72.1911 -72.1485 -72.0835 -72.0829 -72.0178 -52.9871 -52.9413
   -52.8004 -52.7678 -52.7549 -52.5809 -36.7854 -36.7006 -36.5818 -36.5582
   -36.5151 -36.3449 -36.2886 -36.2358 -36.1911 -36.1838 -36.1550 -36.0868
   -36.0496 -35.8745 -35.8367 -35.7843 -35.6261 -35.5816 -29.6101 -29.5534
   -29.4526 -29.4173 -29.2194 -29.0682 -28.9877 -28.9195 -28.9016 -28.8080
   -28.8064 -28.7435 -28.6351 -28.4167 -28.2696 -28.1970 -28.1595 -28.0743
    -3.9898  -3.0891  -1.9798  -1.9202  -1.8116  -1.3983  -1.2636  -1.2539
    -0.9518  -0.8672  -0.8088  -0.7444  -0.6121  -0.3869  -0.3145  -0.1034
    -0.0862  -0.0579  -0.0034   0.2352   0.3857   0.5244   0.7072   0.7390
     0.8969   1.0022   1.1301   1.1917   1.2265   1.3680   1.4556   1.5381
     1.5414   1.6898   1.7392   2.0511   2.3292   2.9525   3.0199   3.1117
     3.2302   3.5728   3.5860   3.5982   3.6180   3.7576   4.0286   4.1485
     4.2455

          k = 0.0154 0.0076 0.0000 ( 34136 PWs)   bands (ev):

   -72.2568 -72.1922 -72.1474 -72.0840 -72.0824 -72.0189 -52.9835 -52.9380
   -52.8037 -52.7647 -52.7582 -52.5844 -36.7731 -36.7034 -36.5851 -36.5446
   -36.5019 -36.3516 -36.2843 -36.2411 -36.1968 -36.1848 -36.1590 -36.0900
   -36.0521 -35.8734 -35.8540 -35.7858 -35.6430 -35.5985 -29.5749 -29.5276
   -29.4279 -29.4013 -29.2184 -29.0717 -28.9571 -28.9067 -28.8990 -28.7993
   -28.7950 -28.7404 -28.6353 -28.4141 -28.2724 -28.2219 -28.1847 -28.0997
    -4.8984  -3.2638  -2.6770  -2.3673  -2.3161  -2.0282  -1.9757  -1.8073
    -1.7843  -1.2664  -1.2300  -1.2071  -1.1427  -1.1295  -1.0722  -0.2668
     0.0252   0.0938   0.1898   0.5209   0.5914   0.6924   0.8606   1.1078
     1.3781   1.4446   1.9139   1.9952   2.2037   2.2265   2.3693   2.4844
     2.6897   2.7546   2.9428   3.1656   3.2166   3.2448   3.4338   3.5126
     3.6451   3.6999   3.8626   3.8815   4.2209   4.2589   4.4905   4.4962
     4.6021

          k = 0.0154 0.0228 0.0000 ( 34103 PWs)   bands (ev):

   -72.2568 -72.1922 -72.1474 -72.0840 -72.0824 -72.0189 -52.9836 -52.9379
   -52.8037 -52.7647 -52.7582 -52.5843 -36.7727 -36.7028 -36.5850 -36.5444
   -36.5017 -36.3505 -36.2846 -36.2407 -36.1958 -36.1849 -36.1583 -36.0898
   -36.0520 -35.8734 -35.8540 -35.7858 -35.6430 -35.5985 -29.5766 -29.5281
   -29.4283 -29.4029 -29.2189 -29.0709 -28.9608 -28.9064 -28.9012 -28.8005
   -28.7962 -28.7412 -28.6356 -28.4142 -28.2723 -28.2220 -28.1848 -28.0997
    -4.8091  -3.1921  -2.5948  -2.3155  -2.2307  -2.0035  -1.9091  -1.7691
    -1.7080  -1.1987  -1.1790  -1.1455  -1.0980  -1.0615  -0.9510  -0.2781
     0.0194   0.0933   0.2488   0.4218   0.5643   0.6309   0.8594   1.0550
     1.2850   1.4593   1.8302   1.8690   2.0145   2.1880   2.3186   2.4234
     2.6111   2.6165   2.9350   2.9417   3.0732   3.2770   3.4059   3.4214
     3.6136   3.6534   3.8190   3.9388   4.0844   4.2088   4.3767   4.4345
     4.5157

          k = 0.0154 0.0380 0.0000 ( 34113 PWs)   bands (ev):

   -72.2568 -72.1923 -72.1474 -72.0840 -72.0824 -72.0189 -52.9837 -52.9380
   -52.8037 -52.7647 -52.7582 -52.5843 -36.7720 -36.7017 -36.5847 -36.5440
   -36.5012 -36.3486 -36.2852 -36.2399 -36.1941 -36.1850 -36.1569 -36.0895
   -36.0519 -35.8733 -35.8539 -35.7858 -35.6430 -35.5985 -29.5796 -29.5289
   -29.4289 -29.4058 -29.2199 -29.0695 -28.9670 -28.9060 -28.9052 -28.8028
   -28.7985 -28.7425 -28.6362 -28.4142 -28.2723 -28.2222 -28.1849 -28.0997
    -4.6390  -3.0743  -2.4490  -2.2175  -2.0707  -1.9531  -1.7871  -1.6879
    -1.5628  -1.1254  -1.0691  -1.0096  -1.0056  -0.8832  -0.7520  -0.2906
     0.0039   0.0870   0.2585   0.3529   0.4915   0.5475   0.7793   0.9608
     1.1764   1.4479   1.6409   1.6927   1.8341   1.9981   2.2148   2.3427
     2.3835   2.4070   2.6243   2.6678   3.0334   3.0558   3.3337   3.4062
     3.5050   3.5869   3.7201   3.7350   3.9901   4.0917   4.2591   4.4689
     4.5890

          k = 0.0154 0.0532 0.0000 ( 34092 PWs)   bands (ev):

   -72.2568 -72.1922 -72.1474 -72.0840 -72.0824 -72.0189 -52.9838 -52.9381
   -52.8037 -52.7647 -52.7582 -52.5842 -36.7712 -36.7004 -36.5844 -36.5436
   -36.5007 -36.3464 -36.2859 -36.2391 -36.1922 -36.1852 -36.1554 -36.0892
   -36.0517 -35.8732 -35.8539 -35.7858 -35.6430 -35.5985 -29.5830 -29.5299
   -29.4297 -29.4092 -29.2210 -29.0679 -28.9742 -28.9097 -28.9054 -28.8054
   -28.8012 -28.7440 -28.6369 -28.4143 -28.2722 -28.2224 -28.1850 -28.0997
    -4.4080  -2.9716  -2.2728  -2.0932  -1.8719  -1.8518  -1.6320  -1.5537
    -1.3651  -1.0490  -0.8990  -0.8816  -0.8361  -0.6434  -0.5193  -0.2382
    -0.0137   0.0261   0.1296   0.3203   0.3545   0.5739   0.6681   0.8222
     1.1077   1.3045   1.4114   1.5810   1.6227   1.7172   1.9580   2.0480
     2.1505   2.1946   2.4176   2.4406   2.5402   2.9518   3.1345   3.3240
     3.4129   3.4517   3.6675   3.7789   3.8588   3.9873   4.2484   4.2987
     4.3786

          k = 0.0154 0.0684 0.0000 ( 34105 PWs)   bands (ev):

   -72.2568 -72.1922 -72.1474 -72.0840 -72.0824 -72.0189 -52.9840 -52.9382
   -52.8036 -52.7648 -52.7582 -52.5842 -36.7705 -36.6994 -36.5841 -36.5433
   -36.5003 -36.3444 -36.2865 -36.2383 -36.1905 -36.1854 -36.1541 -36.0889
   -36.0516 -35.8731 -35.8539 -35.7858 -35.6430 -35.5985 -29.5859 -29.5308
   -29.4304 -29.4120 -29.2219 -29.0664 -28.9804 -28.9138 -28.9049 -28.8076
   -28.8035 -28.7453 -28.6375 -28.4143 -28.2721 -28.2227 -28.1851 -28.0997
    -4.1554  -2.9596  -2.0893  -1.9736  -1.7855  -1.6070  -1.4778  -1.3680
    -1.1442  -0.9464  -0.7655  -0.7264  -0.7198  -0.5007  -0.2360  -0.1076
    -0.0549   0.0192   0.0487   0.1678   0.2000   0.5853   0.6622   0.7622
     1.0293   1.1083   1.2047   1.3242   1.4484   1.5227   1.5365   1.7963
     1.8865   1.9198   2.0135   2.2892   2.5186   2.5930   3.0859   3.2674
     3.2974   3.4759   3.6386   3.6491   3.8636   3.9407   3.9892   4.0863
     4.4358

          k = 0.0154 0.0836 0.0000 ( 34126 PWs)   bands (ev):

   -72.2568 -72.1923 -72.1474 -72.0840 -72.0824 -72.0189 -52.9840 -52.9382
   -52.8037 -52.7648 -52.7582 -52.5842 -36.7701 -36.6987 -36.5840 -36.5431
   -36.5000 -36.3433 -36.2868 -36.2379 -36.1895 -36.1855 -36.1534 -36.0888
   -36.0515 -35.8730 -35.8539 -35.7858 -35.6430 -35.5985 -29.5875 -29.5313
   -29.4308 -29.4137 -29.2225 -29.0656 -28.9840 -28.9161 -28.9047 -28.8089
   -28.8049 -28.7461 -28.6379 -28.4143 -28.2721 -28.2228 -28.1852 -28.0997
    -3.9638  -3.0193  -1.9398  -1.8975  -1.7497  -1.4166  -1.3726  -1.2213
    -0.9484  -0.8096  -0.7962  -0.6978  -0.5850  -0.3801  -0.2651  -0.0884
    -0.0641  -0.0286   0.0160   0.2307   0.3525   0.5391   0.7095   0.7469
     0.9076   0.9715   1.1279   1.1791   1.1867   1.3154   1.3542   1.5321
     1.6069   1.7311   1.9614   2.0793   2.3421   2.8511   2.9176   3.1623
     3.2598   3.5332   3.5912   3.6168   3.7113   3.7975   3.9873   4.1524
     4.2873

          k = 0.0154-0.0836 0.0000 ( 34126 PWs)   bands (ev):

   -72.2568 -72.1923 -72.1474 -72.0840 -72.0824 -72.0189 -52.9840 -52.9382
   -52.8037 -52.7648 -52.7582 -52.5842 -36.7701 -36.6987 -36.5840 -36.5431
   -36.5000 -36.3433 -36.2868 -36.2379 -36.1895 -36.1855 -36.1534 -36.0888
   -36.0515 -35.8730 -35.8539 -35.7858 -35.6430 -35.5985 -29.5875 -29.5313
   -29.4308 -29.4137 -29.2225 -29.0656 -28.9840 -28.9161 -28.9047 -28.8089
   -28.8049 -28.7461 -28.6379 -28.4143 -28.2721 -28.2228 -28.1852 -28.0997
    -3.9638  -3.0193  -1.9398  -1.8975  -1.7497  -1.4166  -1.3726  -1.2213
    -0.9484  -0.8096  -0.7962  -0.6978  -0.5850  -0.3801  -0.2651  -0.0884
    -0.0641  -0.0286   0.0160   0.2307   0.3525   0.5391   0.7095   0.7469
     0.9076   0.9715   1.1279   1.1791   1.1867   1.3154   1.3542   1.5320
     1.6069   1.7311   1.9614   2.0793   2.3421   2.8511   2.9176   3.1623
     3.2598   3.5332   3.5913   3.6168   3.7113   3.7975   3.9872   4.1524
     4.2874

          k = 0.0154-0.0684 0.0000 ( 34105 PWs)   bands (ev):

   -72.2568 -72.1922 -72.1474 -72.0840 -72.0824 -72.0189 -52.9840 -52.9382
   -52.8036 -52.7648 -52.7582 -52.5842 -36.7705 -36.6994 -36.5841 -36.5433
   -36.5003 -36.3444 -36.2865 -36.2383 -36.1905 -36.1854 -36.1541 -36.0889
   -36.0516 -35.8731 -35.8539 -35.7858 -35.6430 -35.5985 -29.5859 -29.5308
   -29.4304 -29.4120 -29.2219 -29.0664 -28.9804 -28.9138 -28.9049 -28.8076
   -28.8035 -28.7453 -28.6375 -28.4143 -28.2721 -28.2227 -28.1851 -28.0997
    -4.1554  -2.9596  -2.0893  -1.9736  -1.7855  -1.6070  -1.4778  -1.3680
    -1.1442  -0.9464  -0.7654  -0.7264  -0.7198  -0.5007  -0.2360  -0.1076
    -0.0550   0.0192   0.0487   0.1678   0.2000   0.5853   0.6622   0.7622
     1.0293   1.1083   1.2047   1.3242   1.4484   1.5227   1.5365   1.7963
     1.8865   1.9198   2.0135   2.2892   2.5186   2.5930   3.0859   3.2674
     3.2975   3.4759   3.6386   3.6491   3.8636   3.9407   3.9892   4.0863
     4.4358

          k = 0.0154-0.0532 0.0000 ( 34092 PWs)   bands (ev):

   -72.2568 -72.1922 -72.1474 -72.0840 -72.0824 -72.0189 -52.9838 -52.9381
   -52.8037 -52.7647 -52.7582 -52.5842 -36.7712 -36.7004 -36.5844 -36.5436
   -36.5007 -36.3464 -36.2859 -36.2391 -36.1922 -36.1852 -36.1554 -36.0892
   -36.0517 -35.8732 -35.8539 -35.7858 -35.6430 -35.5985 -29.5830 -29.5299
   -29.4297 -29.4092 -29.2210 -29.0679 -28.9742 -28.9097 -28.9054 -28.8054
   -28.8012 -28.7440 -28.6369 -28.4143 -28.2722 -28.2224 -28.1850 -28.0997
    -4.4080  -2.9716  -2.2728  -2.0932  -1.8720  -1.8518  -1.6320  -1.5537
    -1.3651  -1.0490  -0.8990  -0.8816  -0.8361  -0.6434  -0.5194  -0.2383
    -0.0137   0.0261   0.1296   0.3203   0.3545   0.5739   0.6681   0.8222
     1.1077   1.3045   1.4114   1.5809   1.6227   1.7172   1.9580   2.0481
     2.1505   2.1946   2.4176   2.4406   2.5401   2.9518   3.1345   3.3239
     3.4129   3.4518   3.6675   3.7789   3.8588   3.9872   4.2484   4.2987
     4.3783

          k = 0.0154-0.0380 0.0000 ( 34113 PWs)   bands (ev):

   -72.2568 -72.1923 -72.1474 -72.0840 -72.0824 -72.0189 -52.9837 -52.9380
   -52.8037 -52.7647 -52.7582 -52.5843 -36.7720 -36.7017 -36.5847 -36.5440
   -36.5012 -36.3486 -36.2852 -36.2399 -36.1941 -36.1850 -36.1569 -36.0895
   -36.0519 -35.8733 -35.8539 -35.7858 -35.6430 -35.5985 -29.5796 -29.5289
   -29.4289 -29.4058 -29.2199 -29.0695 -28.9670 -28.9060 -28.9052 -28.8028
   -28.7985 -28.7425 -28.6362 -28.4142 -28.2723 -28.2222 -28.1849 -28.0997
    -4.6390  -3.0743  -2.4490  -2.2175  -2.0707  -1.9531  -1.7871  -1.6879
    -1.5628  -1.1254  -1.0691  -1.0096  -1.0056  -0.8832  -0.7520  -0.2906
     0.0039   0.0870   0.2585   0.3530   0.4915   0.5475   0.7793   0.9608
     1.1764   1.4478   1.6409   1.6927   1.8341   1.9981   2.2148   2.3427
     2.3835   2.4070   2.6243   2.6677   3.0334   3.0558   3.3337   3.4063
     3.5050   3.5869   3.7201   3.7350   3.9901   4.0917   4.2590   4.4689
     4.5890

          k = 0.0154-0.0228 0.0000 ( 34103 PWs)   bands (ev):

   -72.2568 -72.1922 -72.1474 -72.0840 -72.0824 -72.0189 -52.9836 -52.9379
   -52.8037 -52.7647 -52.7582 -52.5843 -36.7727 -36.7028 -36.5850 -36.5444
   -36.5017 -36.3505 -36.2846 -36.2407 -36.1958 -36.1849 -36.1583 -36.0898
   -36.0520 -35.8734 -35.8540 -35.7858 -35.6430 -35.5985 -29.5766 -29.5281
   -29.4283 -29.4029 -29.2189 -29.0709 -28.9608 -28.9064 -28.9012 -28.8005
   -28.7962 -28.7412 -28.6356 -28.4142 -28.2723 -28.2220 -28.1848 -28.0997
    -4.8091  -3.1921  -2.5948  -2.3155  -2.2307  -2.0035  -1.9091  -1.7691
    -1.7080  -1.1987  -1.1790  -1.1455  -1.0980  -1.0615  -0.9510  -0.2781
     0.0194   0.0933   0.2488   0.4218   0.5643   0.6309   0.8594   1.0550
     1.2850   1.4593   1.8302   1.8690   2.0145   2.1881   2.3186   2.4234
     2.6111   2.6166   2.9350   2.9417   3.0732   3.2770   3.4059   3.4214
     3.6136   3.6533   3.8190   3.9388   4.0844   4.2088   4.3767   4.4344
     4.5156

          k = 0.0154-0.0076 0.0000 ( 34136 PWs)   bands (ev):

   -72.2568 -72.1922 -72.1474 -72.0840 -72.0824 -72.0189 -52.9835 -52.9380
   -52.8037 -52.7647 -52.7582 -52.5844 -36.7731 -36.7034 -36.5851 -36.5446
   -36.5019 -36.3516 -36.2843 -36.2411 -36.1968 -36.1848 -36.1590 -36.0900
   -36.0521 -35.8734 -35.8540 -35.7858 -35.6430 -35.5985 -29.5749 -29.5276
   -29.4279 -29.4013 -29.2184 -29.0717 -28.9571 -28.9067 -28.8990 -28.7993
   -28.7950 -28.7404 -28.6353 -28.4141 -28.2724 -28.2219 -28.1847 -28.0997
    -4.8984  -3.2638  -2.6770  -2.3673  -2.3161  -2.0282  -1.9757  -1.8073
    -1.7843  -1.2664  -1.2300  -1.2071  -1.1427  -1.1296  -1.0722  -0.2668
     0.0252   0.0938   0.1898   0.5209   0.5914   0.6924   0.8606   1.1078
     1.3781   1.4446   1.9139   1.9952   2.2037   2.2265   2.3693   2.4844
     2.6896   2.7546   2.9428   3.1656   3.2166   3.2448   3.4338   3.5125
     3.6451   3.6999   3.8626   3.8815   4.2209   4.2588   4.4905   4.4961
     4.6021

          k = 0.0308 0.0152 0.0000 ( 34152 PWs)   bands (ev):

   -72.2535 -72.1956 -72.1441 -72.0873 -72.0792 -72.0222 -52.9745 -52.9289
   -52.8132 -52.7677 -52.7556 -52.5939 -36.7279 -36.6971 -36.5911 -36.5002
   -36.4575 -36.3453 -36.2794 -36.2462 -36.1909 -36.1901 -36.1533 -36.0951
   -36.0574 -35.9040 -35.8689 -35.7903 -35.6921 -35.6477 -29.5103 -29.4632
   -29.3928 -29.3640 -29.2288 -29.0629 -28.9509 -28.9149 -28.8920 -28.8093
   -28.7874 -28.7498 -28.6443 -28.4071 -28.2976 -28.2798 -28.2598 -28.1738
    -4.7010  -3.0653  -2.4752  -2.3060  -2.2391  -1.8524  -1.8517  -1.6805
    -1.6696  -1.2089  -1.1783  -1.0966  -0.9944  -0.9198  -0.8962  -0.1972
     0.0971   0.1976   0.2715   0.5688   0.6042   0.8380   0.9158   1.2343
     1.3252   1.3766   1.8276   1.8929   2.1527   2.2090   2.2946   2.3033
     2.4066   2.5553   2.7769   2.9566   2.9629   3.1026   3.3138   3.3857
     3.4227   3.6280   3.6855   3.7757   3.9290   4.1196   4.2078   4.3205
     4.5095

          k = 0.0308 0.0304 0.0000 ( 34139 PWs)   bands (ev):

   -72.2535 -72.1956 -72.1441 -72.0873 -72.0792 -72.0222 -52.9746 -52.9290
   -52.8132 -52.7677 -52.7556 -52.5938 -36.7273 -36.6962 -36.5909 -36.4999
   -36.4571 -36.3439 -36.2798 -36.2458 -36.1902 -36.1896 -36.1522 -36.0950
   -36.0573 -35.9040 -35.8688 -35.7904 -35.6921 -35.6477 -29.5126 -29.4638
   -29.3950 -29.3645 -29.2294 -29.0619 -28.9557 -28.9146 -28.8950 -28.8107
   -28.7891 -28.7507 -28.6446 -28.4071 -28.2977 -28.2797 -28.2598 -28.1738
    -4.5714  -2.9652  -2.3579  -2.2344  -2.1422  -1.8176  -1.7580  -1.6107
    -1.5573  -1.1083  -1.0572  -1.0528  -0.9039  -0.8624  -0.7230  -0.2101
     0.0823   0.2081   0.3155   0.4598   0.5262   0.7502   0.8543   1.1311
     1.2642   1.4160   1.6793   1.6857   1.9304   2.0106   2.1783   2.2543
     2.3603   2.4161   2.5535   2.7524   3.0061   3.1510   3.2252   3.3201
     3.4871   3.4907   3.6238   3.8006   3.8141   3.9450   4.0469   4.3600
     4.4406

          k = 0.0308 0.0456 0.0000 ( 34138 PWs)   bands (ev):

   -72.2535 -72.1956 -72.1441 -72.0873 -72.0792 -72.0222 -52.9747 -52.9290
   -52.8132 -52.7677 -52.7556 -52.5938 -36.7266 -36.6951 -36.5907 -36.4995
   -36.4567 -36.3419 -36.2804 -36.2451 -36.1903 -36.1879 -36.1508 -36.0948
   -36.0572 -35.9040 -35.8687 -35.7904 -35.6921 -35.6477 -29.5157 -29.4647
   -29.3980 -29.3652 -29.2302 -29.0604 -28.9621 -28.9142 -28.8991 -28.8128
   -28.7915 -28.7519 -28.6451 -28.4072 -28.2977 -28.2797 -28.2598 -28.1737
    -4.3696  -2.8438  -2.1928  -2.1129  -2.0074  -1.7525  -1.6176  -1.5063
    -1.3693  -0.9863  -0.9530  -0.8783  -0.7657  -0.7227  -0.5129  -0.2002
     0.0564   0.1749   0.2638   0.4016   0.4410   0.6374   0.7620   0.9399
     1.2464   1.3446   1.4721   1.5416   1.6612   1.7312   1.9954   2.0767
     2.2060   2.2679   2.2693   2.5280   2.6387   3.0772   3.1656   3.2778
     3.4246   3.5104   3.5661   3.6299   3.8402   3.8934   4.0333   4.2086
     4.3864

          k = 0.0308 0.0608 0.0000 ( 34102 PWs)   bands (ev):

   -72.2534 -72.1956 -72.1441 -72.0873 -72.0792 -72.0222 -52.9747 -52.9290
   -52.8132 -52.7677 -52.7556 -52.5938 -36.7259 -36.6940 -36.5905 -36.4992
   -36.4562 -36.3399 -36.2810 -36.2444 -36.1905 -36.1861 -36.1494 -36.0946
   -36.0572 -35.9040 -35.8686 -35.7904 -35.6921 -35.6478 -29.5187 -29.4656
   -29.4010 -29.3659 -29.2311 -29.0589 -28.9685 -28.9138 -28.9032 -28.8148
   -28.7940 -28.7530 -28.6456 -28.4072 -28.2978 -28.2796 -28.2599 -28.1737
    -4.1224  -2.7810  -2.0112  -1.9674  -1.8533  -1.6541  -1.4577  -1.3416
    -1.1438  -0.9026  -0.7855  -0.6949  -0.6329  -0.5087  -0.3251  -0.1077
     0.0456   0.0780   0.1292   0.3210   0.3289   0.6131   0.6891   0.8065
     1.1247   1.1525   1.2602   1.3491   1.4588   1.5798   1.5984   1.7675
     1.9638   2.0025   2.1044   2.3770   2.3860   2.8028   3.1473   3.1704
     3.3506   3.3814   3.6262   3.7259   3.7413   3.8362   4.1065   4.1080
     4.3658

          k = 0.0308 0.0760 0.0000 ( 34117 PWs)   bands (ev):

   -72.2534 -72.1956 -72.1441 -72.0873 -72.0792 -72.0222 -52.9748 -52.9291
   -52.8132 -52.7677 -52.7557 -52.5938 -36.7254 -36.6931 -36.5904 -36.4989
   -36.4558 -36.3384 -36.2815 -36.2439 -36.1906 -36.1848 -36.1484 -36.0944
   -36.0571 -35.9040 -35.8686 -35.7904 -35.6921 -35.6478 -29.5209 -29.4663
   -29.4032 -29.3665 -29.2317 -29.0578 -28.9732 -28.9134 -28.9063 -28.8163
   -28.7958 -28.7539 -28.6460 -28.4072 -28.2979 -28.2795 -28.2599 -28.1737
    -3.8850  -2.8237  -1.8459  -1.8292  -1.7124  -1.5823  -1.3186  -1.1308
    -0.9279  -0.7932  -0.7101  -0.5992  -0.4866  -0.3713  -0.1323  -0.1121
    -0.0058   0.0068   0.1584   0.1771   0.3507   0.5737   0.6977   0.7589
     0.9379   0.9499   1.0948   1.1824   1.2160   1.2880   1.3671   1.4561
     1.7178   1.8575   1.9717   2.2463   2.4592   2.5931   2.9027   3.1284
     3.3055   3.4216   3.5628   3.6995   3.7625   3.9318   3.9413   4.1044
     4.3139

          k = 0.0308 0.0912 0.0000 ( 34106 PWs)   bands (ev):

   -72.2534 -72.1956 -72.1441 -72.0873 -72.0792 -72.0222 -52.9748 -52.9290
   -52.8132 -52.7677 -52.7557 -52.5938 -36.7252 -36.6928 -36.5903 -36.4988
   -36.4557 -36.3379 -36.2817 -36.2438 -36.1906 -36.1843 -36.1481 -36.0944
   -36.0571 -35.9041 -35.8685 -35.7904 -35.6921 -35.6478 -29.5217 -29.4666
   -29.4039 -29.3667 -29.2319 -29.0574 -28.9749 -28.9133 -28.9074 -28.8168
   -28.7964 -28.7542 -28.6462 -28.4072 -28.2979 -28.2795 -28.2599 -28.1736
    -3.7733  -2.8739  -1.7982  -1.7307  -1.6503  -1.5742  -1.2594  -1.0277
    -0.8071  -0.7369  -0.6782  -0.5798  -0.4328  -0.3137  -0.2526  -0.0693
    -0.0683   0.0353   0.0618   0.3945   0.5028   0.5461   0.6924   0.7495
     0.7597   0.8601   0.9853   1.0159   1.0321   1.1362   1.3977   1.4459
     1.5335   1.8217   1.9955   2.1748   2.3184   2.7955   2.8055   2.9190
     3.2950   3.5311   3.5902   3.6666   3.7627   3.7923   3.8950   4.2608
     4.2824

          k = 0.0308-0.0760 0.0000 ( 34117 PWs)   bands (ev):

   -72.2534 -72.1956 -72.1441 -72.0873 -72.0792 -72.0222 -52.9748 -52.9291
   -52.8132 -52.7677 -52.7557 -52.5938 -36.7254 -36.6931 -36.5904 -36.4989
   -36.4558 -36.3384 -36.2815 -36.2439 -36.1906 -36.1848 -36.1484 -36.0944
   -36.0571 -35.9040 -35.8686 -35.7904 -35.6921 -35.6478 -29.5209 -29.4663
   -29.4032 -29.3665 -29.2317 -29.0578 -28.9732 -28.9134 -28.9063 -28.8163
   -28.7958 -28.7539 -28.6460 -28.4072 -28.2979 -28.2795 -28.2599 -28.1737
    -3.8850  -2.8237  -1.8460  -1.8292  -1.7124  -1.5823  -1.3186  -1.1308
    -0.9279  -0.7932  -0.7101  -0.5992  -0.4866  -0.3712  -0.1323  -0.1121
    -0.0058   0.0068   0.1584   0.1771   0.3507   0.5737   0.6977   0.7589
     0.9379   0.9499   1.0948   1.1824   1.2160   1.2880   1.3671   1.4561
     1.7178   1.8575   1.9716   2.2462   2.4593   2.5931   2.9027   3.1284
     3.3056   3.4216   3.5627   3.6994   3.7626   3.9318   3.9413   4.1044
     4.3139

          k = 0.0308-0.0608 0.0000 ( 34102 PWs)   bands (ev):

   -72.2534 -72.1956 -72.1441 -72.0873 -72.0792 -72.0222 -52.9747 -52.9290
   -52.8132 -52.7677 -52.7556 -52.5938 -36.7259 -36.6940 -36.5905 -36.4992
   -36.4562 -36.3399 -36.2810 -36.2444 -36.1905 -36.1861 -36.1494 -36.0946
   -36.0572 -35.9040 -35.8686 -35.7904 -35.6921 -35.6478 -29.5187 -29.4656
   -29.4010 -29.3659 -29.2311 -29.0589 -28.9685 -28.9138 -28.9032 -28.8148
   -28.7940 -28.7530 -28.6456 -28.4072 -28.2978 -28.2796 -28.2599 -28.1737
    -4.1224  -2.7810  -2.0112  -1.9674  -1.8534  -1.6541  -1.4577  -1.3416
    -1.1438  -0.9026  -0.7855  -0.6949  -0.6328  -0.5086  -0.3251  -0.1077
     0.0456   0.0781   0.1292   0.3210   0.3289   0.6131   0.6891   0.8065
     1.1247   1.1525   1.2602   1.3491   1.4587   1.5798   1.5984   1.7675
     1.9638   2.0025   2.1044   2.3770   2.3860   2.8029   3.1472   3.1704
     3.3506   3.3815   3.6262   3.7259   3.7413   3.8362   4.1066   4.1080
     4.3658

          k = 0.0308-0.0456 0.0000 ( 34138 PWs)   bands (ev):

   -72.2535 -72.1956 -72.1441 -72.0873 -72.0792 -72.0222 -52.9747 -52.9290
   -52.8132 -52.7677 -52.7556 -52.5938 -36.7266 -36.6951 -36.5907 -36.4995
   -36.4567 -36.3419 -36.2804 -36.2451 -36.1903 -36.1879 -36.1508 -36.0948
   -36.0572 -35.9040 -35.8687 -35.7904 -35.6921 -35.6477 -29.5157 -29.4647
   -29.3980 -29.3652 -29.2302 -29.0604 -28.9621 -28.9142 -28.8991 -28.8128
   -28.7915 -28.7519 -28.6451 -28.4072 -28.2977 -28.2797 -28.2598 -28.1737
    -4.3696  -2.8438  -2.1928  -2.1129  -2.0074  -1.7525  -1.6176  -1.5063
    -1.3693  -0.9863  -0.9530  -0.8783  -0.7657  -0.7227  -0.5129  -0.2002
     0.0564   0.1749   0.2638   0.4016   0.4410   0.6374   0.7620   0.9400
     1.2464   1.3446   1.4721   1.5416   1.6612   1.7312   1.9954   2.0767
     2.2060   2.2679   2.2693   2.5280   2.6387   3.0771   3.1657   3.2778
     3.4245   3.5104   3.5661   3.6299   3.8402   3.8934   4.0332   4.2086
     4.3870

          k = 0.0308-0.0304 0.0000 ( 34139 PWs)   bands (ev):

   -72.2535 -72.1956 -72.1441 -72.0873 -72.0792 -72.0222 -52.9746 -52.9290
   -52.8132 -52.7677 -52.7556 -52.5938 -36.7273 -36.6962 -36.5909 -36.4999
   -36.4571 -36.3439 -36.2798 -36.2458 -36.1902 -36.1896 -36.1522 -36.0950
   -36.0573 -35.9040 -35.8688 -35.7904 -35.6921 -35.6477 -29.5126 -29.4638
   -29.3950 -29.3645 -29.2294 -29.0619 -28.9557 -28.9146 -28.8950 -28.8107
   -28.7891 -28.7507 -28.6446 -28.4071 -28.2977 -28.2797 -28.2598 -28.1738
    -4.5714  -2.9652  -2.3579  -2.2344  -2.1422  -1.8176  -1.7580  -1.6107
    -1.5573  -1.1083  -1.0572  -1.0528  -0.9039  -0.8624  -0.7230  -0.2101
     0.0823   0.2081   0.3155   0.4598   0.5263   0.7502   0.8543   1.1311
     1.2642   1.4160   1.6793   1.6858   1.9304   2.0106   2.1783   2.2543
     2.3603   2.4161   2.5535   2.7523   3.0061   3.1510   3.2252   3.3201
     3.4871   3.4908   3.6238   3.8007   3.8141   3.9450   4.0468   4.3601
     4.4406

          k = 0.0308-0.0152 0.0000 ( 34152 PWs)   bands (ev):

   -72.2535 -72.1956 -72.1441 -72.0873 -72.0792 -72.0222 -52.9745 -52.9289
   -52.8132 -52.7677 -52.7556 -52.5939 -36.7279 -36.6971 -36.5911 -36.5002
   -36.4575 -36.3453 -36.2794 -36.2462 -36.1909 -36.1901 -36.1533 -36.0951
   -36.0574 -35.9040 -35.8689 -35.7903 -35.6921 -35.6477 -29.5103 -29.4632
   -29.3928 -29.3640 -29.2288 -29.0629 -28.9509 -28.9149 -28.8920 -28.8093
   -28.7874 -28.7498 -28.6443 -28.4071 -28.2976 -28.2798 -28.2598 -28.1738
    -4.7010  -3.0653  -2.4752  -2.3060  -2.2391  -1.8524  -1.8517  -1.6805
    -1.6696  -1.2089  -1.1783  -1.0966  -0.9944  -0.9197  -0.8962  -0.1972
     0.0971   0.1976   0.2715   0.5688   0.6042   0.8380   0.9158   1.2343
     1.3252   1.3766   1.8276   1.8929   2.1527   2.2090   2.2946   2.3032
     2.4066   2.5553   2.7769   2.9565   2.9629   3.1026   3.3137   3.3857
     3.4227   3.6280   3.6855   3.7757   3.9290   4.1196   4.2076   4.3205
     4.5090

          k = 0.0308-0.0000 0.0000 ( 34180 PWs)   bands (ev):

   -72.2535 -72.1956 -72.1441 -72.0873 -72.0792 -72.0222 -52.9746 -52.9289
   -52.8132 -52.7677 -52.7557 -52.5939 -36.7281 -36.6974 -36.5911 -36.5003
   -36.4576 -36.3459 -36.2792 -36.2464 -36.1914 -36.1901 -36.1536 -36.0952
   -36.0574 -35.9040 -35.8689 -35.7903 -35.6921 -35.6477 -29.5094 -29.4629
   -29.3920 -29.3638 -29.2286 -29.0633 -28.9491 -28.9150 -28.8909 -28.8087
   -28.7868 -28.7495 -28.6441 -28.4071 -28.2976 -28.2798 -28.2598 -28.1739
    -4.7455  -3.1025  -2.5173  -2.3263  -2.2773  -1.8853  -1.8631  -1.7235
    -1.6887  -1.2432  -1.2200  -1.1120  -1.0036  -0.9782  -0.9387  -0.1917
     0.1012   0.1901   0.2531   0.5810   0.6792   0.8578   0.9253   1.2497
     1.3591   1.3818   1.8702   1.9919   2.2612   2.2981   2.3026   2.3362
     2.3940   2.6225   2.8220   2.9463   3.0300   3.0729   3.2887   3.3369
     3.4342   3.6456   3.7787   3.8339   3.9463   4.1369   4.2812   4.3701
     4.5454

          k = 0.0462 0.0228 0.0000 ( 34166 PWs)   bands (ev):

   -72.2482 -72.2009 -72.1389 -72.0926 -72.0740 -72.0274 -52.9601 -52.9144
   -52.8283 -52.7828 -52.7411 -52.6090 -36.6870 -36.6555 -36.6005 -36.4292
   -36.3863 -36.3356 -36.2716 -36.2546 -36.1985 -36.1817 -36.1441 -36.1034
   -36.0658 -35.9828 -35.8618 -35.7976 -35.7695 -35.7253 -29.4064 -29.3791
   -29.3598 -29.2615 -29.2449 -29.0490 -28.9405 -28.9280 -28.8806 -28.8248
   -28.7753 -28.7645 -28.6584 -28.4174 -28.3971 -28.3757 -28.2916 -28.2903
    -4.3885  -2.7585  -2.3204  -2.1638  -2.0676  -1.6608  -1.6079  -1.5078
    -1.4576  -1.1229  -1.0638  -0.8955  -0.8018  -0.6353  -0.5851  -0.0875
     0.1909   0.2205   0.5115   0.5413   0.6636   0.8812   1.1313   1.2413
     1.2897   1.4610   1.6586   1.7089   1.8782   1.9909   2.0317   2.2224
     2.2670   2.3276   2.4739   2.6929   2.9445   2.9829   3.0770   3.1774
     3.1841   3.3209   3.4883   3.5837   3.7402   3.7508   3.8226   4.3168
     4.3206

          k = 0.0462 0.0380 0.0000 ( 34157 PWs)   bands (ev):

   -72.2482 -72.2009 -72.1389 -72.0926 -72.0740 -72.0274 -52.9601 -52.9145
   -52.8283 -52.7828 -52.7410 -52.6090 -36.6861 -36.6549 -36.6004 -36.4288
   -36.3859 -36.3340 -36.2720 -36.2542 -36.1986 -36.1802 -36.1430 -36.1034
   -36.0659 -35.9829 -35.8617 -35.7976 -35.7696 -35.7254 -29.4089 -29.3815
   -29.3605 -29.2621 -29.2453 -29.0479 -28.9456 -28.9278 -28.8839 -28.8259
   -28.7772 -28.7651 -28.6586 -28.4172 -28.3971 -28.3757 -28.2915 -28.2902
    -4.2257  -2.6421  -2.2710  -2.0234  -1.9665  -1.5680  -1.5444  -1.3811
    -1.3361  -0.9978  -0.9246  -0.8424  -0.6855  -0.5263  -0.4463  -0.0843
     0.1470   0.2690   0.4371   0.5106   0.5215   0.7604   1.0067   1.0649
     1.3667   1.4222   1.4700   1.5311   1.6232   1.7418   1.9224   2.0619
     2.1002   2.1654   2.3245   2.5173   2.7623   2.9857   3.0771   3.2209
     3.3313   3.3465   3.4041   3.6401   3.6671   3.7017   3.8167   4.0472
     4.3303

          k = 0.0462 0.0532 0.0000 ( 34120 PWs)   bands (ev):

   -72.2482 -72.2009 -72.1389 -72.0926 -72.0740 -72.0274 -52.9602 -52.9145
   -52.8282 -52.7827 -52.7411 -52.6089 -36.6851 -36.6542 -36.6003 -36.4285
   -36.3855 -36.3322 -36.2726 -36.2538 -36.1987 -36.1786 -36.1417 -36.1034
   -36.0659 -35.9830 -35.8617 -35.7976 -35.7696 -35.7255 -29.4118 -29.3842
   -29.3613 -29.2628 -29.2459 -29.0465 -28.9514 -28.9275 -28.8876 -28.8272
   -28.7794 -28.7658 -28.6589 -28.4169 -28.3970 -28.3757 -28.2914 -28.2901
    -4.0023  -2.5411  -2.1874  -1.8559  -1.8484  -1.4798  -1.3934  -1.2634
    -1.1145  -0.8174  -0.7705  -0.7487  -0.5035  -0.4397  -0.3123  -0.0349
     0.1313   0.2477   0.2977   0.4235   0.4647   0.6251   0.8267   0.9607
     1.1865   1.2444   1.2878   1.4239   1.4755   1.5937   1.6026   1.7398
     1.9855   2.0708   2.1685   2.2105   2.4257   2.9455   3.0361   3.1858
     3.2033   3.4560   3.4945   3.5754   3.6579   3.7828   3.9615   4.0143
     4.1666

          k = 0.0462 0.0684 0.0000 ( 34172 PWs)   bands (ev):

   -72.2482 -72.2009 -72.1389 -72.0926 -72.0740 -72.0274 -52.9603 -52.9146
   -52.8283 -52.7828 -52.7412 -52.6090 -36.6842 -36.6536 -36.6003 -36.4282
   -36.3851 -36.3306 -36.2731 -36.2534 -36.1987 -36.1771 -36.1405 -36.1034
   -36.0660 -35.9831 -35.8616 -35.7976 -35.7697 -35.7255 -29.4142 -29.3866
   -29.3621 -29.2633 -29.2464 -29.0453 -28.9565 -28.9273 -28.8910 -28.8284
   -28.7814 -28.7665 -28.6591 -28.4167 -28.3970 -28.3758 -28.2914 -28.2900
    -3.7539  -2.5415  -2.0922  -1.7370  -1.6759  -1.3672  -1.2367  -1.0750
    -0.8866  -0.6880  -0.6719  -0.5526  -0.3750  -0.3298  -0.1390  -0.0745
     0.0569   0.1345   0.2459   0.3644   0.4697   0.5729   0.6575   0.8358
     0.9841   1.0087   1.0851   1.2537   1.3286   1.3454   1.4269   1.4532
     1.8076   1.8533   2.0227   2.2815   2.3256   2.6137   2.9470   3.0332
     3.3015   3.3587   3.3918   3.7025   3.7783   3.8912   3.9791   4.0136
     4.3243

          k = 0.0462 0.0836 0.0000 ( 34111 PWs)   bands (ev):

   -72.2482 -72.2009 -72.1389 -72.0926 -72.0740 -72.0274 -52.9603 -52.9145
   -52.8282 -52.7827 -52.7411 -52.6089 -36.6837 -36.6532 -36.6002 -36.4280
   -36.3849 -36.3296 -36.2734 -36.2532 -36.1988 -36.1763 -36.1399 -36.1034
   -36.0660 -35.9831 -35.8615 -35.7976 -35.7697 -35.7256 -29.4156 -29.3879
   -29.3626 -29.2637 -29.2466 -29.0446 -28.9594 -28.9271 -28.8928 -28.8290
   -28.7825 -28.7668 -28.6592 -28.4166 -28.3970 -28.3757 -28.2913 -28.2899
    -3.5608  -2.6200  -2.0257  -1.6665  -1.5085  -1.3305  -1.1210  -0.8424
    -0.7351  -0.6320  -0.5915  -0.4102  -0.3306  -0.2704  -0.1713  -0.1326
     0.0040   0.1498   0.2869   0.3339   0.5241   0.5983   0.6349   0.7120
     0.7325   0.8449   0.9464   0.9645   1.0543   1.2242   1.3093   1.5047
     1.6825   1.8366   1.9742   2.2220   2.3486   2.5443   2.7397   2.8548
     3.3473   3.3727   3.4442   3.6830   3.8170   3.8277   3.9626   4.1682
     4.2719

          k = 0.0462 0.0988 0.0000 ( 34111 PWs)   bands (ev):

   -72.2482 -72.2009 -72.1389 -72.0926 -72.0740 -72.0274 -52.9603 -52.9145
   -52.8282 -52.7827 -52.7411 -52.6089 -36.6837 -36.6532 -36.6002 -36.4280
   -36.3849 -36.3296 -36.2734 -36.2532 -36.1988 -36.1763 -36.1399 -36.1034
   -36.0660 -35.9831 -35.8615 -35.7976 -35.7697 -35.7256 -29.4156 -29.3879
   -29.3626 -29.2637 -29.2466 -29.0446 -28.9594 -28.9271 -28.8928 -28.8290
   -28.7825 -28.7668 -28.6592 -28.4166 -28.3970 -28.3757 -28.2913 -28.2899
    -3.5608  -2.6200  -2.0257  -1.6665  -1.5085  -1.3305  -1.1210  -0.8424
    -0.7351  -0.6320  -0.5915  -0.4102  -0.3306  -0.2704  -0.1713  -0.1326
     0.0040   0.1498   0.2869   0.3339   0.5241   0.5984   0.6349   0.7120
     0.7325   0.8449   0.9464   0.9645   1.0543   1.2242   1.3093   1.5047
     1.6826   1.8366   1.9741   2.2220   2.3486   2.5443   2.7397   2.8548
     3.3473   3.3727   3.4442   3.6830   3.8170   3.8276   3.9626   4.1681
     4.2719

          k = 0.0462-0.0684 0.0000 ( 34172 PWs)   bands (ev):

   -72.2482 -72.2009 -72.1389 -72.0926 -72.0740 -72.0274 -52.9603 -52.9146
   -52.8283 -52.7828 -52.7412 -52.6090 -36.6842 -36.6536 -36.6003 -36.4282
   -36.3851 -36.3306 -36.2731 -36.2534 -36.1987 -36.1771 -36.1405 -36.1034
   -36.0660 -35.9831 -35.8616 -35.7976 -35.7697 -35.7255 -29.4142 -29.3866
   -29.3621 -29.2633 -29.2464 -29.0453 -28.9565 -28.9273 -28.8910 -28.8284
   -28.7814 -28.7665 -28.6591 -28.4167 -28.3970 -28.3758 -28.2914 -28.2900
    -3.7539  -2.5415  -2.0922  -1.7370  -1.6759  -1.3672  -1.2366  -1.0750
    -0.8866  -0.6880  -0.6719  -0.5526  -0.3750  -0.3298  -0.1391  -0.0745
     0.0569   0.1345   0.2459   0.3644   0.4697   0.5729   0.6575   0.8357
     0.9841   1.0087   1.0851   1.2536   1.3286   1.3454   1.4269   1.4531
     1.8076   1.8533   2.0227   2.2815   2.3256   2.6137   2.9470   3.0331
     3.3015   3.3587   3.3918   3.7025   3.7783   3.8913   3.9791   4.0136
     4.3243

          k = 0.0462-0.0532 0.0000 ( 34120 PWs)   bands (ev):

   -72.2482 -72.2009 -72.1389 -72.0926 -72.0740 -72.0274 -52.9602 -52.9145
   -52.8282 -52.7827 -52.7411 -52.6089 -36.6851 -36.6542 -36.6003 -36.4285
   -36.3855 -36.3322 -36.2726 -36.2538 -36.1987 -36.1786 -36.1417 -36.1034
   -36.0659 -35.9830 -35.8617 -35.7976 -35.7696 -35.7255 -29.4118 -29.3842
   -29.3613 -29.2628 -29.2459 -29.0465 -28.9514 -28.9275 -28.8876 -28.8272
   -28.7794 -28.7658 -28.6589 -28.4169 -28.3970 -28.3757 -28.2914 -28.2901
    -4.0023  -2.5411  -2.1874  -1.8559  -1.8484  -1.4798  -1.3934  -1.2634
    -1.1145  -0.8174  -0.7705  -0.7487  -0.5035  -0.4397  -0.3123  -0.0349
     0.1313   0.2477   0.2977   0.4235   0.4647   0.6251   0.8267   0.9606
     1.1865   1.2444   1.2879   1.4239   1.4755   1.5937   1.6026   1.7398
     1.9855   2.0708   2.1685   2.2105   2.4257   2.9455   3.0361   3.1858
     3.2033   3.4560   3.4945   3.5754   3.6579   3.7828   3.9615   4.0143
     4.1666

          k = 0.0462-0.0380 0.0000 ( 34157 PWs)   bands (ev):

   -72.2482 -72.2009 -72.1389 -72.0926 -72.0740 -72.0274 -52.9601 -52.9145
   -52.8283 -52.7828 -52.7410 -52.6090 -36.6861 -36.6549 -36.6004 -36.4288
   -36.3859 -36.3340 -36.2720 -36.2542 -36.1986 -36.1802 -36.1430 -36.1034
   -36.0659 -35.9829 -35.8617 -35.7976 -35.7696 -35.7254 -29.4089 -29.3815
   -29.3605 -29.2621 -29.2453 -29.0479 -28.9456 -28.9278 -28.8839 -28.8259
   -28.7772 -28.7651 -28.6586 -28.4172 -28.3971 -28.3757 -28.2915 -28.2902
    -4.2257  -2.6421  -2.2710  -2.0234  -1.9665  -1.5680  -1.5444  -1.3811
    -1.3361  -0.9979  -0.9246  -0.8424  -0.6855  -0.5263  -0.4464  -0.0843
     0.1470   0.2690   0.4371   0.5106   0.5215   0.7604   1.0067   1.0649
     1.3667   1.4222   1.4700   1.5311   1.6232   1.7418   1.9224   2.0619
     2.1002   2.1654   2.3245   2.5172   2.7623   2.9857   3.0771   3.2209
     3.3313   3.3465   3.4041   3.6402   3.6671   3.7017   3.8167   4.0472
     4.3303

          k = 0.0462-0.0228 0.0000 ( 34166 PWs)   bands (ev):

   -72.2482 -72.2009 -72.1389 -72.0926 -72.0740 -72.0274 -52.9601 -52.9144
   -52.8283 -52.7828 -52.7411 -52.6090 -36.6870 -36.6555 -36.6005 -36.4292
   -36.3863 -36.3356 -36.2716 -36.2546 -36.1985 -36.1817 -36.1441 -36.1034
   -36.0658 -35.9828 -35.8618 -35.7976 -35.7695 -35.7253 -29.4064 -29.3791
   -29.3598 -29.2615 -29.2449 -29.0490 -28.9405 -28.9280 -28.8806 -28.8248
   -28.7753 -28.7645 -28.6584 -28.4174 -28.3971 -28.3757 -28.2916 -28.2903
    -4.3885  -2.7585  -2.3204  -2.1638  -2.0676  -1.6608  -1.6079  -1.5078
    -1.4576  -1.1229  -1.0638  -0.8955  -0.8019  -0.6353  -0.5851  -0.0875
     0.1909   0.2205   0.5115   0.5413   0.6636   0.8812   1.1313   1.2413
     1.2897   1.4610   1.6586   1.7089   1.8782   1.9909   2.0317   2.2224
     2.2669   2.3276   2.4739   2.6928   2.9445   2.9829   3.0770   3.1774
     3.1841   3.3209   3.4883   3.5838   3.7402   3.7508   3.8226   4.3168
     4.3205

          k = 0.0462-0.0076 0.0000 ( 34187 PWs)   bands (ev):

   -72.2482 -72.2009 -72.1389 -72.0926 -72.0740 -72.0274 -52.9600 -52.9144
   -52.8283 -52.7828 -52.7411 -52.6090 -36.6876 -36.6558 -36.6005 -36.4293
   -36.3866 -36.3365 -36.2713 -36.2548 -36.1985 -36.1825 -36.1448 -36.1034
   -36.0658 -35.9827 -35.8619 -35.7976 -35.7695 -35.7253 -29.4049 -29.3777
   -29.3594 -29.2611 -29.2446 -29.0497 -28.9376 -28.9282 -28.8788 -28.8241
   -28.7742 -28.7642 -28.6583 -28.4175 -28.3971 -28.3757 -28.2916 -28.2904
    -4.4735  -2.8283  -2.3356  -2.2425  -2.1318  -1.7214  -1.6247  -1.6032
    -1.4961  -1.1785  -1.1436  -0.9237  -0.8353  -0.7763  -0.6152  -0.0805
     0.1897   0.2125   0.5202   0.5580   0.8011   0.9247   1.2290   1.2309
     1.2917   1.5434   1.7455   1.8366   1.9088   2.1545   2.2529   2.3105
     2.3745   2.4157   2.5432   2.7958   2.8292   2.8688   3.0492   3.0568
     3.1136   3.4067   3.5338   3.6838   3.7783   3.7828   3.9461   4.2873
     4.5172

          k = 0.0462 0.0076 0.0000 ( 34187 PWs)   bands (ev):

   -72.2482 -72.2009 -72.1389 -72.0926 -72.0740 -72.0274 -52.9600 -52.9144
   -52.8283 -52.7828 -52.7411 -52.6090 -36.6876 -36.6558 -36.6005 -36.4293
   -36.3866 -36.3365 -36.2713 -36.2548 -36.1985 -36.1825 -36.1448 -36.1034
   -36.0658 -35.9827 -35.8619 -35.7976 -35.7695 -35.7253 -29.4049 -29.3777
   -29.3594 -29.2611 -29.2446 -29.0497 -28.9376 -28.9282 -28.8788 -28.8241
   -28.7742 -28.7642 -28.6583 -28.4175 -28.3971 -28.3757 -28.2916 -28.2904
    -4.4735  -2.8283  -2.3356  -2.2425  -2.1318  -1.7214  -1.6247  -1.6032
    -1.4961  -1.1785  -1.1436  -0.9237  -0.8353  -0.7763  -0.6152  -0.0805
     0.1897   0.2125   0.5202   0.5580   0.8011   0.9247   1.2290   1.2309
     1.2917   1.5434   1.7455   1.8366   1.9088   2.1545   2.2529   2.3105
     2.3745   2.4157   2.5432   2.7958   2.8292   2.8688   3.0492   3.0568
     3.1136   3.4067   3.5337   3.6838   3.7783   3.7828   3.9462   4.2873
     4.5168

          k = 0.0616 0.0304 0.0000 ( 34147 PWs)   bands (ev):

   -72.2413 -72.2079 -72.1322 -72.0994 -72.0672 -72.0343 -52.9410 -52.8954
   -52.8478 -52.8023 -52.7220 -52.6286 -36.6741 -36.6129 -36.5602 -36.3357
   -36.3230 -36.2928 -36.2657 -36.2613 -36.2094 -36.1698 -36.1323 -36.1143
   -36.0842 -36.0769 -35.8700 -35.8522 -35.8251 -35.8070 -29.3608 -29.2701
   -29.2659 -29.2217 -29.1261 -29.0310 -28.9451 -28.9262 -28.8653 -28.8442
   -28.7832 -28.7591 -28.6766 -28.5695 -28.5296 -28.4397 -28.3797 -28.3068
    -3.9869  -2.4407  -2.3860  -1.8736  -1.7875  -1.4318  -1.3621  -1.2800
    -1.2111  -1.0346  -0.8992  -0.5868  -0.5581  -0.3358  -0.2450   0.0620
     0.1785   0.2506   0.5479   0.6356   0.7664   0.8810   1.0579   1.2148
     1.3507   1.4516   1.5306   1.6302   1.6618   1.8292   1.8372   1.9102
     1.9839   2.2151   2.2575   2.4584   2.6299   2.7443   3.0053   3.0226
     3.1546   3.1957   3.2147   3.3592   3.4960   3.6499   3.7528   3.9660
     4.2326

          k = 0.0616 0.0456 0.0000 ( 34132 PWs)   bands (ev):

   -72.2413 -72.2079 -72.1322 -72.0994 -72.0672 -72.0343 -52.9411 -52.8954
   -52.8478 -52.8022 -52.7220 -52.6285 -36.6732 -36.6130 -36.5596 -36.3354
   -36.3215 -36.2924 -36.2656 -36.2618 -36.2094 -36.1685 -36.1312 -36.1145
   -36.0844 -36.0771 -35.8702 -35.8521 -35.8252 -35.8070 -29.3630 -29.2720
   -29.2664 -29.2225 -29.1267 -29.0299 -28.9450 -28.9308 -28.8684 -28.8445
   -28.7832 -28.7610 -28.6764 -28.5689 -28.5294 -28.4395 -28.3798 -28.3068
    -3.8031  -2.4540  -2.2779  -1.7776  -1.6542  -1.3177  -1.3009  -1.1358
    -1.0810  -0.9127  -0.7584  -0.5335  -0.4321  -0.2386  -0.2292   0.1285
     0.1963   0.2322   0.5002   0.5718   0.5950   0.7274   0.8947   1.1719
     1.2934   1.2980   1.3607   1.4540   1.5301   1.5551   1.6965   1.7681
     1.9146   2.0630   2.1591   2.2723   2.4096   2.7073   2.8860   3.1499
     3.2286   3.2860   3.3956   3.5283   3.5312   3.6714   3.7611   3.8700
     4.1108

          k = 0.0616 0.0608 0.0000 ( 34129 PWs)   bands (ev):

   -72.2413 -72.2079 -72.1322 -72.0994 -72.0672 -72.0343 -52.9411 -52.8954
   -52.8478 -52.8023 -52.7220 -52.6286 -36.6724 -36.6131 -36.5590 -36.3351
   -36.3201 -36.2920 -36.2655 -36.2623 -36.2093 -36.1671 -36.1301 -36.1148
   -36.0846 -36.0774 -35.8703 -35.8520 -35.8253 -35.8070 -29.3652 -29.2741
   -29.2667 -29.2234 -29.1273 -29.0288 -28.9450 -28.9354 -28.8714 -28.8447
   -28.7833 -28.7628 -28.6763 -28.5684 -28.5291 -28.4393 -28.3799 -28.3067
    -3.5741  -2.4463  -2.2324  -1.6777  -1.5140  -1.1997  -1.1486  -1.0371
    -0.8598  -0.7328  -0.6232  -0.4656  -0.3526  -0.2447  -0.1404   0.0644
     0.2840   0.3350   0.3553   0.4161   0.5545   0.6332   0.7412   0.9625
     1.0448   1.0966   1.1995   1.2959   1.4262   1.5105   1.5542   1.5620
     1.7753   2.0007   2.0556   2.1346   2.2659   2.5899   2.8072   3.0069
     3.1542   3.3162   3.4335   3.6402   3.7519   3.7527   3.8950   3.9415
     4.1727

          k = 0.0616 0.0760 0.0000 ( 34137 PWs)   bands (ev):

   -72.2413 -72.2079 -72.1322 -72.0994 -72.0672 -72.0343 -52.9412 -52.8955
   -52.8478 -52.8023 -52.7221 -52.6285 -36.6717 -36.6132 -36.5586 -36.3349
   -36.3190 -36.2917 -36.2655 -36.2626 -36.2093 -36.1660 -36.1293 -36.1150
   -36.0848 -36.0776 -35.8704 -35.8519 -35.8254 -35.8071 -29.3668 -29.2757
   -29.2668 -29.2240 -29.1277 -29.0280 -28.9450 -28.9387 -28.8736 -28.8450
   -28.7834 -28.7642 -28.6762 -28.5680 -28.5289 -28.4391 -28.3799 -28.3067
    -3.3486  -2.4307  -2.3020  -1.5948  -1.3484  -1.1122  -0.9954  -0.8558
    -0.7039  -0.5736  -0.4847  -0.3956  -0.3919  -0.2863  -0.0683   0.1085
     0.1413   0.2650   0.3663   0.3712   0.4755   0.6307   0.6973   0.7772
     0.8803   0.9385   1.0003   1.1319   1.2289   1.3327   1.4124   1.6225
     1.7758   1.9037   1.9812   2.1673   2.3249   2.3361   2.7386   2.8208
     3.0971   3.2908   3.4482   3.7309   3.7421   3.8121   3.9458   4.0969
     4.1319

          k = 0.0616 0.0912 0.0000 ( 34138 PWs)   bands (ev):

   -72.2413 -72.2079 -72.1322 -72.0994 -72.0672 -72.0343 -52.9412 -52.8955
   -52.8478 -52.8022 -52.7221 -52.6285 -36.6715 -36.6132 -36.5584 -36.3348
   -36.3186 -36.2916 -36.2655 -36.2628 -36.2093 -36.1657 -36.1290 -36.1150
   -36.0848 -36.0776 -35.8704 -35.8519 -35.8255 -35.8071 -29.3674 -29.2763
   -29.2668 -29.2242 -29.1279 -29.0277 -28.9449 -28.9400 -28.8744 -28.8450
   -28.7834 -28.7647 -28.6762 -28.5679 -28.5289 -28.4391 -28.3800 -28.3066
    -3.2394  -2.4231  -2.3672  -1.5614  -1.2355  -1.1233  -0.9060  -0.7055
    -0.6851  -0.4685  -0.4566  -0.3931  -0.3578  -0.3574  -0.1327   0.0261
     0.2028   0.3148   0.3788   0.4393   0.4732   0.5476   0.5683   0.6140
     0.8738   0.8797   0.9698   1.1015   1.1156   1.2773   1.3489   1.6936
     1.7744   1.9135   1.9352   2.1445   2.1919   2.5090   2.6130   2.6899
     3.1620   3.2349   3.4643   3.7330   3.7365   3.7847   3.9274   4.1214
     4.3759

          k = 0.0616 0.1064 0.0000 ( 34137 PWs)   bands (ev):

   -72.2413 -72.2079 -72.1322 -72.0994 -72.0672 -72.0343 -52.9412 -52.8955
   -52.8478 -52.8023 -52.7221 -52.6285 -36.6717 -36.6132 -36.5586 -36.3349
   -36.3190 -36.2917 -36.2655 -36.2626 -36.2093 -36.1660 -36.1293 -36.1150
   -36.0848 -36.0776 -35.8704 -35.8519 -35.8254 -35.8071 -29.3668 -29.2757
   -29.2668 -29.2240 -29.1277 -29.0280 -28.9450 -28.9387 -28.8736 -28.8450
   -28.7834 -28.7642 -28.6762 -28.5680 -28.5289 -28.4391 -28.3799 -28.3067
    -3.3486  -2.4307  -2.3020  -1.5948  -1.3484  -1.1122  -0.9954  -0.8558
    -0.7039  -0.5736  -0.4847  -0.3956  -0.3919  -0.2863  -0.0683   0.1086
     0.1413   0.2650   0.3662   0.3712   0.4755   0.6307   0.6973   0.7772
     0.8803   0.9385   1.0003   1.1318   1.2289   1.3327   1.4124   1.6224
     1.7758   1.9037   1.9812   2.1673   2.3249   2.3361   2.7386   2.8208
     3.0971   3.2908   3.4482   3.7310   3.7421   3.8122   3.9458   4.0969
     4.1318

          k = 0.0616-0.0608 0.0000 ( 34129 PWs)   bands (ev):

   -72.2413 -72.2079 -72.1322 -72.0994 -72.0672 -72.0343 -52.9411 -52.8954
   -52.8478 -52.8023 -52.7220 -52.6286 -36.6724 -36.6131 -36.5590 -36.3351
   -36.3201 -36.2920 -36.2655 -36.2623 -36.2093 -36.1671 -36.1301 -36.1148
   -36.0846 -36.0774 -35.8703 -35.8520 -35.8253 -35.8070 -29.3652 -29.2741
   -29.2667 -29.2234 -29.1273 -29.0288 -28.9450 -28.9354 -28.8714 -28.8447
   -28.7833 -28.7628 -28.6763 -28.5684 -28.5291 -28.4393 -28.3799 -28.3067
    -3.5741  -2.4463  -2.2324  -1.6777  -1.5140  -1.1997  -1.1486  -1.0371
    -0.8598  -0.7328  -0.6232  -0.4656  -0.3526  -0.2447  -0.1404   0.0644
     0.2840   0.3350   0.3553   0.4161   0.5545   0.6332   0.7413   0.9625
     1.0448   1.0966   1.1995   1.2959   1.4262   1.5105   1.5542   1.5619
     1.7753   2.0007   2.0556   2.1346   2.2659   2.5899   2.8072   3.0069
     3.1543   3.3162   3.4335   3.6401   3.7518   3.7526   3.8948   3.9415
     4.1642

          k = 0.0616-0.0456 0.0000 ( 34132 PWs)   bands (ev):

   -72.2413 -72.2079 -72.1322 -72.0994 -72.0672 -72.0343 -52.9411 -52.8954
   -52.8478 -52.8022 -52.7220 -52.6285 -36.6732 -36.6130 -36.5596 -36.3354
   -36.3215 -36.2924 -36.2656 -36.2618 -36.2094 -36.1685 -36.1312 -36.1145
   -36.0844 -36.0771 -35.8702 -35.8521 -35.8252 -35.8070 -29.3630 -29.2720
   -29.2664 -29.2225 -29.1267 -29.0299 -28.9450 -28.9308 -28.8684 -28.8445
   -28.7832 -28.7610 -28.6764 -28.5689 -28.5294 -28.4395 -28.3798 -28.3068
    -3.8031  -2.4541  -2.2779  -1.7776  -1.6542  -1.3177  -1.3009  -1.1358
    -1.0810  -0.9127  -0.7584  -0.5335  -0.4321  -0.2386  -0.2292   0.1284
     0.1963   0.2322   0.5002   0.5718   0.5950   0.7274   0.8947   1.1718
     1.2934   1.2980   1.3607   1.4540   1.5301   1.5552   1.6965   1.7680
     1.9146   2.0630   2.1591   2.2723   2.4096   2.7073   2.8860   3.1499
     3.2286   3.2860   3.3956   3.5283   3.5312   3.6714   3.7611   3.8700
     4.1109

          k = 0.0616-0.0304 0.0000 ( 34147 PWs)   bands (ev):

   -72.2413 -72.2079 -72.1322 -72.0994 -72.0672 -72.0343 -52.9410 -52.8954
   -52.8478 -52.8023 -52.7220 -52.6286 -36.6741 -36.6129 -36.5602 -36.3357
   -36.3230 -36.2928 -36.2657 -36.2613 -36.2094 -36.1698 -36.1323 -36.1143
   -36.0842 -36.0769 -35.8700 -35.8522 -35.8251 -35.8070 -29.3608 -29.2701
   -29.2659 -29.2217 -29.1261 -29.0310 -28.9451 -28.9262 -28.8653 -28.8442
   -28.7832 -28.7591 -28.6766 -28.5695 -28.5296 -28.4397 -28.3797 -28.3068
    -3.9869  -2.4407  -2.3860  -1.8736  -1.7875  -1.4317  -1.3621  -1.2800
    -1.2111  -1.0346  -0.8992  -0.5868  -0.5581  -0.3358  -0.2450   0.0620
     0.1785   0.2506   0.5479   0.6356   0.7664   0.8810   1.0579   1.2148
     1.3507   1.4515   1.5306   1.6302   1.6618   1.8292   1.8373   1.9102
     1.9838   2.2151   2.2575   2.4584   2.6299   2.7443   3.0052   3.0226
     3.1546   3.1957   3.2147   3.3592   3.4959   3.6500   3.7528   3.9660
     4.2326

          k = 0.0616-0.0152 0.0000 ( 34178 PWs)   bands (ev):

   -72.2413 -72.2079 -72.1322 -72.0994 -72.0672 -72.0343 -52.9410 -52.8954
   -52.8479 -52.8023 -52.7220 -52.6287 -36.6747 -36.6129 -36.5606 -36.3360
   -36.3240 -36.2930 -36.2657 -36.2610 -36.2094 -36.1709 -36.1331 -36.1141
   -36.0841 -36.0767 -35.8699 -35.8523 -35.8250 -35.8069 -29.3593 -29.2691
   -29.2652 -29.2212 -29.1257 -29.0318 -28.9451 -28.9228 -28.8632 -28.8440
   -28.7831 -28.7578 -28.6767 -28.5699 -28.5298 -28.4399 -28.3796 -28.3069
    -4.1037  -2.4746  -2.4086  -1.9567  -1.8846  -1.5130  -1.4209  -1.3739
    -1.2612  -1.0905  -1.0077  -0.6219  -0.6206  -0.4944  -0.2599   0.0540
     0.1473   0.3191   0.5307   0.7440   0.8711   1.0303   1.0943   1.1878
     1.3606   1.5480   1.6790   1.7554   1.8298   1.9507   2.0068   2.0401
     2.1745   2.3425   2.3980   2.5244   2.6109   2.7658   2.8470   2.9054
     2.9377   3.0642   3.2821   3.3754   3.4858   3.6464   3.7237   4.2465
     4.2569

          k = 0.0616-0.0000 0.0000 ( 34188 PWs)   bands (ev):

   -72.2413 -72.2079 -72.1322 -72.0994 -72.0672 -72.0343 -52.9410 -52.8954
   -52.8479 -52.8023 -52.7220 -52.6287 -36.6749 -36.6128 -36.5608 -36.3360
   -36.3244 -36.2931 -36.2657 -36.2609 -36.2094 -36.1712 -36.1334 -36.1141
   -36.0840 -36.0766 -35.8699 -35.8523 -35.8250 -35.8069 -29.3587 -29.2687
   -29.2649 -29.2210 -29.1255 -29.0321 -28.9451 -28.9215 -28.8623 -28.8440
   -28.7831 -28.7573 -28.6767 -28.5701 -28.5299 -28.4400 -28.3796 -28.3069
    -4.1437  -2.5073  -2.3881  -1.9957  -1.9193  -1.5303  -1.4804  -1.3768
    -1.2785  -1.0976  -1.0552  -0.6322  -0.6046  -0.5976  -0.2673   0.0564
     0.1368   0.3490   0.5232   0.7878   0.8972   1.0468   1.1520   1.1923
     1.3434   1.5392   1.7537   1.8891   1.9097   1.9640   2.0032   2.0416
     2.3885   2.4817   2.5291   2.5901   2.6162   2.6256   2.6469   2.7047
     2.8026   3.1578   3.2629   3.4519   3.4861   3.6578   3.7142   4.2494
     4.3505

          k = 0.0616 0.0152 0.0000 ( 34178 PWs)   bands (ev):

   -72.2413 -72.2079 -72.1322 -72.0994 -72.0672 -72.0343 -52.9410 -52.8954
   -52.8479 -52.8023 -52.7220 -52.6287 -36.6747 -36.6129 -36.5606 -36.3360
   -36.3240 -36.2930 -36.2657 -36.2610 -36.2094 -36.1709 -36.1331 -36.1141
   -36.0841 -36.0767 -35.8699 -35.8523 -35.8250 -35.8069 -29.3593 -29.2691
   -29.2652 -29.2212 -29.1257 -29.0318 -28.9451 -28.9228 -28.8632 -28.8440
   -28.7831 -28.7578 -28.6767 -28.5699 -28.5298 -28.4399 -28.3796 -28.3069
    -4.1037  -2.4746  -2.4086  -1.9567  -1.8846  -1.5130  -1.4209  -1.3739
    -1.2612  -1.0905  -1.0077  -0.6219  -0.6206  -0.4944  -0.2599   0.0540
     0.1473   0.3191   0.5306   0.7440   0.8711   1.0304   1.0943   1.1878
     1.3606   1.5480   1.6790   1.7553   1.8297   1.9507   2.0068   2.0401
     2.1745   2.3425   2.3980   2.5244   2.6108   2.7658   2.8470   2.9054
     2.9377   3.0642   3.2821   3.3754   3.4858   3.6464   3.7237   4.2464
     4.2569

          k = 0.0771 0.0380 0.0000 ( 34170 PWs)   bands (ev):

   -72.2332 -72.2160 -72.1243 -72.1073 -72.0593 -72.0422 -52.9188 -52.8731
   -52.8705 -52.8249 -52.6997 -52.6514 -36.6591 -36.6274 -36.4481 -36.3087
   -36.2790 -36.2502 -36.2257 -36.2218 -36.2008 -36.1824 -36.1556 -36.1272
   -36.1186 -36.0900 -35.9844 -35.9407 -35.8412 -35.8179 -29.3390 -29.2902
   -29.1059 -29.0606 -29.0103 -28.9735 -28.9575 -28.9085 -28.8657 -28.8469
   -28.8040 -28.7440 -28.7395 -28.7019 -28.6972 -28.6101 -28.3624 -28.3246
    -3.5348  -2.7014  -2.0225  -1.7399  -1.4266  -1.2387  -1.1604  -1.0456
    -0.9991  -0.9845  -0.6947  -0.2964  -0.2858  -0.1068  -0.1029   0.0450
     0.2304   0.3326   0.4889   0.6133   0.7583   0.9277   1.0563   1.1764
[...]
     3.0740   3.2614   3.4336   3.5250   3.7660   3.7718   3.8160   3.9163
     4.0713

          k = 0.0771 0.0836 0.0000 ( 34126 PWs)   bands (ev):

   -72.2332 -72.2160 -72.1243 -72.1073 -72.0593 -72.0422 -52.9188 -52.8731
   -52.8704 -52.8249 -52.6997 -52.6513 -36.6574 -36.6281 -36.4468 -36.3059
   -36.2797 -36.2513 -36.2249 -36.2216 -36.2011 -36.1816 -36.1530 -36.1285
   -36.1165 -36.0911 -35.9848 -35.9412 -35.8410 -35.8180 -29.3431 -29.2890
   -29.1106 -29.0623 -29.0082 -28.9743 -28.9582 -28.9167 -28.8636 -28.8526
   -28.8025 -28.7438 -28.7409 -28.7009 -28.6959 -28.6093 -28.3626 -28.3244
    -2.9728  -2.8592  -2.0995  -1.6101  -1.1494  -1.0286  -0.8297  -0.7928
    -0.7613  -0.6813  -0.5700  -0.5384  -0.2538  -0.0797   0.0976   0.1532
     0.2032   0.3514   0.4179   0.4457   0.5109   0.5975   0.7419   0.8142
     1.0579   1.1574   1.2425   1.3353   1.3527   1.4692   1.5388   1.6939
     1.8332   1.9551   1.9802   2.0384   2.1095   2.5446   2.6693   2.7284
     2.9465   3.0812   3.3915   3.5752   3.7038   3.7605   3.8797   4.0451
     4.1617

          k = 0.0771 0.0988 0.0000 ( 34126 PWs)   bands (ev):

   -72.2332 -72.2160 -72.1243 -72.1073 -72.0593 -72.0422 -52.9188 -52.8731
   -52.8704 -52.8249 -52.6997 -52.6513 -36.6574 -36.6281 -36.4468 -36.3059
   -36.2797 -36.2513 -36.2249 -36.2216 -36.2011 -36.1816 -36.1530 -36.1285
   -36.1165 -36.0911 -35.9848 -35.9412 -35.8410 -35.8180 -29.3431 -29.2890
   -29.1106 -29.0623 -29.0082 -28.9743 -28.9582 -28.9167 -28.8636 -28.8526
   -28.8025 -28.7438 -28.7409 -28.7009 -28.6959 -28.6093 -28.3626 -28.3244
    -2.9728  -2.8592  -2.0995  -1.6101  -1.1494  -1.0286  -0.8298  -0.7928
    -0.7613  -0.6813  -0.5700  -0.5384  -0.2538  -0.0797   0.0976   0.1532
     0.2032   0.3514   0.4179   0.4457   0.5109   0.5975   0.7419   0.8142
     1.0579   1.1574   1.2424   1.3353   1.3528   1.4692   1.5388   1.6939
     1.8332   1.9551   1.9802   2.0384   2.1095   2.5446   2.6693   2.7284
     2.9464   3.0812   3.3915   3.5752   3.7038   3.7605   3.8797   4.0453
     4.1646

          k = 0.0771 0.1141 0.0000 ( 34176 PWs)   bands (ev):

   -72.2332 -72.2160 -72.1243 -72.1073 -72.0593 -72.0422 -52.9188 -52.8732
   -52.8705 -52.8250 -52.6997 -52.6513 -36.6578 -36.6280 -36.4471 -36.3065
   -36.2796 -36.2511 -36.2251 -36.2216 -36.2010 -36.1818 -36.1536 -36.1282
   -36.1169 -36.0908 -35.9847 -35.9411 -35.8410 -35.8180 -29.3422 -29.2892
   -29.1097 -29.0619 -29.0087 -28.9742 -28.9580 -28.9150 -28.8640 -28.8514
   -28.8028 -28.7436 -28.7409 -28.7011 -28.6962 -28.6095 -28.3625 -28.3245
    -3.1403  -2.8342  -1.9994  -1.6389  -1.2753  -1.0135  -0.9648  -0.9278
    -0.8313  -0.7457  -0.4950  -0.4206  -0.3076  -0.1006   0.0804   0.1109
     0.2505   0.2720   0.4365   0.5199   0.6304   0.7279   0.8121   0.9648
     1.0510   1.0516   1.2557   1.3891   1.4070   1.5732   1.5892   1.7056
     1.7762   1.9461   2.0162   2.0577   2.1860   2.5451   2.6264   2.7567
     3.0740   3.2614   3.4336   3.5250   3.7660   3.7718   3.8160   3.9160
     4.0712

          k = 0.0771-0.0532 0.0000 ( 34159 PWs)   bands (ev):

   -72.2332 -72.2160 -72.1243 -72.1073 -72.0593 -72.0422 -52.9188 -52.8732
   -52.8705 -52.8249 -52.6997 -52.6513 -36.6584 -36.6277 -36.4476 -36.3075
   -36.2793 -36.2506 -36.2254 -36.2217 -36.2009 -36.1821 -36.1545 -36.1278
   -36.1177 -36.0904 -35.9846 -35.9410 -35.8411 -35.8179 -29.3407 -29.2897
   -29.1079 -29.0613 -29.0094 -28.9739 -28.9578 -28.9120 -28.8647 -28.8493
   -28.8034 -28.7435 -28.7404 -28.7015 -28.6966 -28.6098 -28.3625 -28.3245
    -3.3501  -2.7819  -1.9632  -1.6844  -1.3603  -1.1122  -1.1073  -0.9677
    -0.9310  -0.8706  -0.5649  -0.3392  -0.2759  -0.1128  -0.0307   0.0760
     0.2330   0.3567   0.4257   0.6382   0.7401   0.8107   0.9009   1.0068
     1.1181   1.2366   1.3338   1.4324   1.4842   1.5654   1.6302   1.8182
     1.8748   1.9173   1.9714   2.1773   2.4055   2.4099   2.5845   3.0447
     3.1850   3.3214   3.4597   3.4785   3.5300   3.7367   3.8174   3.8347
     4.0223

          k = 0.0771-0.0380 0.0000 ( 34170 PWs)   bands (ev):

   -72.2332 -72.2160 -72.1243 -72.1073 -72.0593 -72.0422 -52.9188 -52.8731
   -52.8705 -52.8249 -52.6997 -52.6514 -36.6591 -36.6274 -36.4481 -36.3087
   -36.2790 -36.2502 -36.2257 -36.2218 -36.2008 -36.1824 -36.1556 -36.1272
   -36.1186 -36.0900 -35.9844 -35.9407 -35.8412 -35.8179 -29.3390 -29.2902
   -29.1059 -29.0606 -29.0103 -28.9735 -28.9575 -28.9085 -28.8657 -28.8469
   -28.8040 -28.7440 -28.7395 -28.7019 -28.6972 -28.6101 -28.3624 -28.3246
    -3.5348  -2.7014  -2.0225  -1.7399  -1.4266  -1.2387  -1.1604  -1.0456
    -0.9991  -0.9845  -0.6947  -0.2964  -0.2858  -0.1068  -0.1029   0.0450
     0.2305   0.3326   0.4889   0.6133   0.7583   0.9276   1.0563   1.1764
     1.2290   1.3530   1.4220   1.5301   1.5763   1.6262   1.7401   1.7423
     1.9366   1.9520   2.2418   2.2956   2.3176   2.5580   2.6301   3.0224
     3.1935   3.2439   3.2984   3.4426   3.5097   3.6210   3.6456   3.8095
     3.9559

          k = 0.0771-0.0228 0.0000 ( 34172 PWs)   bands (ev):

   -72.2332 -72.2159 -72.1243 -72.1073 -72.0593 -72.0422 -52.9187 -52.8731
   -52.8705 -52.8249 -52.6997 -52.6514 -36.6597 -36.6272 -36.4485 -36.3096
   -36.2787 -36.2498 -36.2259 -36.2219 -36.2007 -36.1827 -36.1565 -36.1268
   -36.1194 -36.0896 -35.9842 -35.9406 -35.8413 -35.8178 -29.3376 -29.2907
   -29.1041 -29.0600 -29.0111 -28.9733 -28.9572 -28.9053 -28.8665 -28.8448
   -28.8046 -28.7446 -28.7385 -28.7023 -28.6977 -28.6104 -28.3623 -28.3247
    -3.6674  -2.6011  -2.0995  -1.8165  -1.4970  -1.3291  -1.1802  -1.1533
    -1.0333  -1.0122  -0.8186  -0.3675  -0.2640  -0.1885  -0.0998   0.0348
     0.1973   0.3307   0.5621   0.6367   0.8759   0.9944   0.9963   1.2065
     1.3732   1.4839   1.5422   1.5686   1.6545   1.6971   1.8163   1.9088
     2.0414   2.1030   2.2724   2.3400   2.4592   2.5357   2.7052   2.7934
     2.9695   3.1150   3.2061   3.2369   3.5078   3.6259   3.7032   3.7889
     4.0816

          k = 0.0771-0.0076 0.0000 ( 34187 PWs)   bands (ev):

   -72.2332 -72.2159 -72.1243 -72.1073 -72.0593 -72.0422 -52.9187 -52.8731
   -52.8705 -52.8250 -52.6997 -52.6514 -36.6601 -36.6270 -36.4488 -36.3102
   -36.2785 -36.2496 -36.2260 -36.2220 -36.2006 -36.1829 -36.1570 -36.1265
   -36.1199 -36.0893 -35.9841 -35.9404 -35.8413 -35.8178 -29.3367 -29.2909
   -29.1030 -29.0597 -29.0115 -28.9731 -28.9570 -28.9035 -28.8670 -28.8436
   -28.8050 -28.7451 -28.7379 -28.7025 -28.6980 -28.6106 -28.3623 -28.3247
    -3.7361  -2.5164  -2.1460  -1.8975  -1.5390  -1.3406  -1.2813  -1.1417
    -1.0546  -0.9974  -0.9089  -0.3819  -0.3116  -0.2557  -0.1271   0.0570
     0.1938   0.4057   0.5087   0.7354   0.8747   0.9702   1.0763   1.2369
     1.3570   1.4563   1.6010   1.6162   1.7280   1.7969   2.0098   2.0178
     2.1322   2.2414   2.3067   2.3890   2.4418   2.5433   2.5436   2.7949
     2.8058   2.9181   3.0575   3.2028   3.4824   3.6866   3.7155   3.7614
     4.2108

          k = 0.0771 0.0076 0.0000 ( 34187 PWs)   bands (ev):

   -72.2332 -72.2159 -72.1243 -72.1073 -72.0593 -72.0422 -52.9187 -52.8731
   -52.8705 -52.8250 -52.6997 -52.6514 -36.6601 -36.6270 -36.4488 -36.3102
   -36.2785 -36.2496 -36.2260 -36.2220 -36.2006 -36.1829 -36.1570 -36.1265
   -36.1199 -36.0893 -35.9841 -35.9404 -35.8413 -35.8178 -29.3367 -29.2909
   -29.1030 -29.0597 -29.0115 -28.9731 -28.9570 -28.9035 -28.8670 -28.8436
   -28.8050 -28.7451 -28.7379 -28.7025 -28.6980 -28.6106 -28.3623 -28.3247
    -3.7361  -2.5164  -2.1460  -1.8975  -1.5390  -1.3406  -1.2812  -1.1417
    -1.0546  -0.9974  -0.9089  -0.3819  -0.3116  -0.2557  -0.1271   0.0570
     0.1938   0.4057   0.5086   0.7354   0.8747   0.9701   1.0763   1.2369
     1.3570   1.4563   1.6010   1.6162   1.7280   1.7969   2.0097   2.0178
     2.1322   2.2414   2.3067   2.3890   2.4418   2.5433   2.5436   2.7949
     2.8058   2.9181   3.0575   3.2028   3.4825   3.6866   3.7156   3.7614
     4.2108

          k = 0.0771 0.0228 0.0000 ( 34172 PWs)   bands (ev):

   -72.2332 -72.2159 -72.1243 -72.1073 -72.0593 -72.0422 -52.9187 -52.8731
   -52.8705 -52.8249 -52.6997 -52.6514 -36.6597 -36.6272 -36.4485 -36.3096
   -36.2787 -36.2498 -36.2259 -36.2219 -36.2007 -36.1827 -36.1565 -36.1268
   -36.1194 -36.0896 -35.9842 -35.9406 -35.8413 -35.8178 -29.3376 -29.2907
   -29.1041 -29.0600 -29.0111 -28.9733 -28.9572 -28.9053 -28.8665 -28.8448
   -28.8046 -28.7446 -28.7385 -28.7023 -28.6977 -28.6104 -28.3623 -28.3247
    -3.6674  -2.6011  -2.0995  -1.8165  -1.4970  -1.3291  -1.1802  -1.1533
    -1.0333  -1.0122  -0.8186  -0.3675  -0.2640  -0.1885  -0.0998   0.0348
     0.1973   0.3307   0.5621   0.6367   0.8759   0.9944   0.9963   1.2065
     1.3733   1.4839   1.5422   1.5686   1.6545   1.6971   1.8163   1.9088
     2.0414   2.1030   2.2724   2.3400   2.4592   2.5357   2.7052   2.7934
     2.9695   3.1150   3.2061   3.2369   3.5078   3.6259   3.7032   3.7888
     4.0814

          k =-0.0925-0.0456 0.0000 ( 34190 PWs)   bands (ev):

   -72.2246 -72.2246 -72.1158 -72.1158 -72.0508 -72.0508 -52.8947 -52.8947
   -52.8491 -52.8491 -52.6756 -52.6756 -36.6432 -36.6432 -36.3266 -36.3266
   -36.2935 -36.2935 -36.2348 -36.2348 -36.1415 -36.1415 -36.1059 -36.1059
   -36.1042 -36.1042 -36.0624 -36.0624 -35.8296 -35.8296 -29.3150 -29.3150
   -28.9888 -28.9888 -28.9272 -28.9272 -28.8872 -28.8872 -28.8830 -28.8830
   -28.8264 -28.8264 -28.7886 -28.7885 -28.7188 -28.7188 -28.3436 -28.3435
    -3.0851  -3.0851  -1.7779  -1.7779  -1.2102  -1.2102  -1.0331  -1.0331
    -0.9119  -0.9119  -0.4495  -0.4495  -0.1285  -0.1285   0.1498   0.1498
     0.1549   0.1549   0.5983   0.5983   0.8301   0.8301   1.1066   1.1066
     1.2267   1.2267   1.4157   1.4157   1.5087   1.5087   1.8225   1.8225
     1.9246   1.9246   2.0694   2.0694   2.2651   2.2651   2.9457   2.9457
     3.2763   3.2763   3.3992   3.3992   3.5740   3.5740   3.7925   3.7929
     4.0000

          k =-0.0925-0.0304 0.0000 ( 34165 PWs)   bands (ev):

   -72.2246 -72.2246 -72.1158 -72.1158 -72.0508 -72.0508 -52.8947 -52.8947
   -52.8491 -52.8491 -52.6756 -52.6755 -36.6437 -36.6427 -36.3270 -36.3261
   -36.2943 -36.2928 -36.2350 -36.2346 -36.1422 -36.1406 -36.1061 -36.1057
   -36.1048 -36.1035 -36.0627 -36.0621 -35.8296 -35.8295 -29.3160 -29.3139
   -28.9895 -28.9880 -28.9282 -28.9258 -28.8896 -28.8857 -28.8830 -28.8824
   -28.8280 -28.8249 -28.7891 -28.7880 -28.7198 -28.7178 -28.3436 -28.3435
    -3.2079  -2.9279  -1.7988  -1.7981  -1.2506  -1.1715  -1.0095  -1.0091
    -0.9731  -0.8672  -0.5724  -0.3456  -0.1535  -0.1214   0.0519   0.1529
     0.1687   0.3021   0.4845   0.6290   0.6611   0.9522   1.0725   1.1473
     1.1569   1.3336   1.4198   1.4212   1.5123   1.6136   1.7326   1.8337
     1.8948   1.9380   2.0320   2.1584   2.2211   2.3427   2.7666   3.0440
     3.0509   3.2858   3.4000   3.4888   3.4935   3.5888   3.6915   3.8354
     3.9067

          k =-0.0925-0.0152 0.0000 ( 34169 PWs)   bands (ev):

   -72.2246 -72.2246 -72.1158 -72.1158 -72.0508 -72.0508 -52.8947 -52.8946
   -52.8491 -52.8491 -52.6757 -52.6756 -36.6440 -36.6424 -36.3273 -36.3258
   -36.2948 -36.2924 -36.2351 -36.2344 -36.1428 -36.1400 -36.1064 -36.1056
   -36.1052 -36.1029 -36.0629 -36.0619 -35.8297 -35.8295 -29.3168 -29.3131
   -28.9900 -28.9875 -28.9287 -28.9244 -28.8918 -28.8855 -28.8823 -28.8818
   -28.8292 -28.8238 -28.7895 -28.7876 -28.7206 -28.7171 -28.3437 -28.3434
    -3.2844  -2.7689  -1.8896  -1.8188  -1.2261  -1.1564  -1.0632  -0.9568
    -0.9280  -0.8503  -0.6911  -0.3386  -0.1418  -0.1000  -0.0235   0.1415
     0.2372   0.3386   0.4420   0.5978   0.6544   0.7707   1.0905   1.1467
     1.2757   1.3762   1.4250   1.4297   1.6026   1.6983   1.7257   1.7680
     1.8464   1.9266   2.0557   2.1386   2.3266   2.4759   2.5449   2.9397
     3.0239   3.1241   3.3740   3.4116   3.4559   3.4940   3.7658   3.8444
     3.8677

          k =-0.0925 0.0000 0.0000 ( 34184 PWs)   bands (ev):

   -72.2246 -72.2246 -72.1158 -72.1158 -72.0508 -72.0508 -52.8948 -52.8946
   -52.8492 -52.8491 -52.6757 -52.6755 -36.6442 -36.6422 -36.3274 -36.3257
   -36.2950 -36.2922 -36.2352 -36.2344 -36.1430 -36.1398 -36.1064 -36.1057
   -36.1053 -36.1028 -36.0629 -36.0618 -35.8297 -35.8295 -29.3171 -29.3128
   -28.9902 -28.9873 -28.9289 -28.9238 -28.8927 -28.8855 -28.8820 -28.8816
   -28.8297 -28.8234 -28.7896 -28.7874 -28.7209 -28.7169 -28.3437 -28.3434
    -3.3102  -2.6908  -1.9534  -1.8265  -1.1573  -1.1520  -1.1367  -0.9309
    -0.8729  -0.8467  -0.7648  -0.3589  -0.1316  -0.0833  -0.0501   0.1255
     0.2621   0.3242   0.4896   0.5557   0.6963   0.6991   1.0147   1.1510
     1.3767   1.3924   1.4263   1.4520   1.5696   1.7044   1.7288   1.7611
     1.9350   1.9412   1.9612   2.1981   2.3147   2.4295   2.7480   2.7539
     2.9078   3.1146   3.3595   3.3810   3.4268   3.4672   3.7657   3.8350
     3.9557

          k =-0.0925 0.0152 0.0000 ( 34169 PWs)   bands (ev):

   -72.2246 -72.2246 -72.1158 -72.1158 -72.0508 -72.0508 -52.8947 -52.8946
   -52.8491 -52.8491 -52.6757 -52.6756 -36.6440 -36.6424 -36.3273 -36.3258
   -36.2948 -36.2924 -36.2351 -36.2344 -36.1428 -36.1400 -36.1064 -36.1056
   -36.1052 -36.1029 -36.0629 -36.0619 -35.8297 -35.8295 -29.3168 -29.3131
   -28.9900 -28.9875 -28.9287 -28.9244 -28.8918 -28.8855 -28.8823 -28.8818
   -28.8292 -28.8238 -28.7895 -28.7876 -28.7206 -28.7171 -28.3437 -28.3434
    -3.2844  -2.7689  -1.8896  -1.8188  -1.2261  -1.1564  -1.0632  -0.9568
    -0.9280  -0.8503  -0.6911  -0.3386  -0.1418  -0.1000  -0.0235   0.1415
     0.2372   0.3386   0.4420   0.5978   0.6544   0.7707   1.0905   1.1467
     1.2757   1.3762   1.4250   1.4298   1.6026   1.6983   1.7258   1.7680
     1.8464   1.9266   2.0556   2.1386   2.3266   2.4759   2.5449   2.9397
     3.0239   3.1241   3.3740   3.4116   3.4559   3.4940   3.7658   3.8443
     3.8700

          k =-0.0925 0.0304 0.0000 ( 34165 PWs)   bands (ev):

   -72.2246 -72.2246 -72.1158 -72.1158 -72.0508 -72.0508 -52.8947 -52.8947
   -52.8491 -52.8491 -52.6756 -52.6755 -36.6437 -36.6427 -36.3270 -36.3261
   -36.2943 -36.2928 -36.2350 -36.2346 -36.1422 -36.1406 -36.1061 -36.1057
   -36.1048 -36.1035 -36.0627 -36.0621 -35.8296 -35.8295 -29.3160 -29.3139
   -28.9895 -28.9880 -28.9282 -28.9258 -28.8896 -28.8857 -28.8830 -28.8824
   -28.8280 -28.8249 -28.7891 -28.7880 -28.7198 -28.7178 -28.3436 -28.3435
    -3.2079  -2.9279  -1.7988  -1.7981  -1.2506  -1.1715  -1.0096  -1.0091
    -0.9731  -0.8672  -0.5724  -0.3456  -0.1534  -0.1214   0.0519   0.1529
     0.1687   0.3021   0.4845   0.6290   0.6611   0.9522   1.0725   1.1473
     1.1569   1.3336   1.4198   1.4212   1.5123   1.6136   1.7326   1.8337
     1.8948   1.9380   2.0320   2.1584   2.2211   2.3426   2.7666   3.0440
     3.0509   3.2858   3.4000   3.4887   3.4935   3.5888   3.6915   3.8346
     3.9067

          k =-0.0925-0.1369 0.0000 ( 34190 PWs)   bands (ev):

   -72.2246 -72.2246 -72.1158 -72.1158 -72.0508 -72.0508 -52.8947 -52.8947
   -52.8491 -52.8491 -52.6756 -52.6756 -36.6432 -36.6432 -36.3266 -36.3266
   -36.2935 -36.2935 -36.2348 -36.2348 -36.1415 -36.1415 -36.1059 -36.1059
   -36.1042 -36.1042 -36.0624 -36.0624 -35.8296 -35.8296 -29.3150 -29.3150
   -28.9888 -28.9888 -28.9272 -28.9272 -28.8872 -28.8872 -28.8830 -28.8830
   -28.8264 -28.8264 -28.7886 -28.7885 -28.7188 -28.7188 -28.3436 -28.3435
    -3.0851  -3.0851  -1.7779  -1.7779  -1.2102  -1.2102  -1.0331  -1.0331
    -0.9119  -0.9119  -0.4495  -0.4495  -0.1285  -0.1285   0.1498   0.1498
     0.1549   0.1549   0.5983   0.5983   0.8301   0.8301   1.1066   1.1066
     1.2267   1.2267   1.4157   1.4157   1.5087   1.5087   1.8225   1.8225
     1.9246   1.9246   2.0694   2.0694   2.2651   2.2651   2.9457   2.9457
     3.2763   3.2764   3.3992   3.3992   3.5739   3.5740   3.7926   3.7928
     3.9995

     the Fermi energy is     2.1218 ev

!    total energy              =   -1666.61965957 Ry
     estimated scf accuracy    <       0.00000217 Ry
     smearing contrib. (-TS)   =      -0.07029508 Ry
     internal energy E=F+TS    =   -1666.54936449 Ry

     The total energy is F=E-TS. E is the sum of the following terms:
     one-electron contribution =  -13008.37953027 Ry
     hartree contribution      =    6491.41865789 Ry
     xc contribution           =    -362.71531039 Ry
     ewald contribution        =    5213.12681637 Ry
     electric field correction =       0.00000190 Ry

     convergence has been achieved in  16 iterations

     negative rho (up, down):  1.751E-03 0.000E+00

     Forces acting on atoms (cartesian axes, Ry/au):

     atom    1 type  1   force =     0.00000184   -0.00737283   -0.00895770
     atom    2 type  1   force =    -0.00000025   -0.00737546   -0.00896491
     atom    3 type  2   force =    -0.00000017    0.00446622    0.02573070
     atom    4 type  2   force =     0.00000673    0.00446853    0.02573648
     atom    5 type  1   force =     0.00000572    0.01093568   -0.00323934
     atom    6 type  1   force =    -0.00000075    0.01093556   -0.00323740
     atom    7 type  2   force =    -0.00000157   -0.00878581   -0.01519784
     atom    8 type  2   force =    -0.00000252   -0.00877887   -0.01519545
     atom    9 type  1   force =    -0.00000604   -0.00030596   -0.00007645
     atom   10 type  1   force =    -0.00000179   -0.00030015   -0.00007357
     atom   11 type  2   force =     0.00000388    0.00105721    0.00173853
     atom   12 type  2   force =    -0.00000508    0.00105588    0.00173696

     Total force =     0.050184     Total SCF correction =     0.006362
     SCF correction compared to forces is large: reduce conv_thr to get better values

     Writing output data file ./Nb2W2/Nb2W2_beef.save/

     init_run     :     44.55s CPU     80.23s WALL (       1 calls)
     electrons    :   1227.73s CPU   2190.40s WALL (       1 calls)
     forces       :     13.57s CPU     28.93s WALL (       1 calls)

     Called by init_run:
     wfcinit      :     37.42s CPU     69.00s WALL (       1 calls)
     potinit      :      4.80s CPU      7.85s WALL (       1 calls)
     hinit0       :      1.63s CPU      2.37s WALL (       1 calls)

     Called by electrons:
     c_bands      :   1097.68s CPU   1924.32s WALL (      16 calls)
     sum_band     :    117.09s CPU    238.40s WALL (      16 calls)
     v_of_rho     :     10.84s CPU     22.09s WALL (      17 calls)
     newd         :      6.14s CPU     11.82s WALL (      17 calls)
     mix_rho      :      0.23s CPU      0.65s WALL (      16 calls)
     vdW_kernel   :      3.57s CPU      5.78s WALL (       1 calls)

     Called by c_bands:
     init_us_2    :      2.75s CPU      2.90s WALL (    2516 calls)
     cegterg      :   1084.35s CPU   1890.93s WALL (    1184 calls)

     Called by *egterg:
     cdiaghg      :    131.78s CPU    155.09s WALL (    6331 calls)
     h_psi        :    521.74s CPU    944.74s WALL (    6405 calls)
     s_psi        :    105.81s CPU    106.03s WALL (    6405 calls)
     g_psi        :      0.85s CPU      0.95s WALL (    5147 calls)

     Called by h_psi:
     h_psi:calbec :    101.40s CPU    225.04s WALL (    6405 calls)
     vloc_psi     :    311.84s CPU    610.41s WALL (    6405 calls)
     add_vuspsi   :    107.90s CPU    108.48s WALL (    6405 calls)

     General routines
     calbec       :    152.77s CPU    339.89s WALL (    7885 calls)
     fft          :      5.89s CPU     22.36s WALL (    1130 calls)
     ffts         :      0.04s CPU      0.12s WALL (      33 calls)
     fftw         :    367.11s CPU    722.31s WALL (  661374 calls)
     interpolate  :      0.09s CPU      0.23s WALL (      17 calls)

     Parallel routines
     fft_scatt_xy :     17.70s CPU     30.12s WALL (  662537 calls)
     fft_scatt_yz :    190.40s CPU    468.11s WALL (  662537 calls)

     PWSCF        :  21m37.25s CPU  39m32.02s WALL


   This run was terminated on:  21:55:15  23Jun2022            

=------------------------------------------------------------------------------=
   JOB DONE.
=------------------------------------------------------------------------------=
