
     Program PWSCF v.6.6 starts on 27Jun2022 at  1:32:40 

     This program is part of the open-source Quantum ESPRESSO suite
     for quantum simulation of materials; please cite
         "P. Giannozzi et al., J. Phys.:Condens. Matter 21 395502 (2009);
         "P. Giannozzi et al., J. Phys.:Condens. Matter 29 465901 (2017);
          URL http://www.quantum-espresso.org", 
     in publications or presentations arising from this work. More details at
     http://www.quantum-espresso.org/quote

     Parallel version (MPI), running on    37 processors

     MPI processes distributed on     1 nodes
     R & G space division:  proc/nbgrp/npool/nimage =      37
     Fft bands division:     nmany     =       1
     Reading input from Ni2Cu2.in
Warning: card &CELL ignored
Warning: card / ignored

     Current dimensions of program PWSCF are:
     Max number of different atomic species (ntypx) = 10
     Max number of k-points (npk) =  40000
     Max angular momentum in pseudopotentials (lmaxx) =  3
     Presently stress not available with electric field and gates

     Message from routine cell_base_init:
     DEPRECATED: use true lattice parameter, not A to a.u. conversion factor
     file Ni.pbe-n-rrkjus_psl.1.0.0.UPF: wavefunction(s)  3D renormalized
     file Cu.pbe-dn-rrkjus_psl.1.0.0.UPF: wavefunction(s)  3D renormalized

     **************************************************************************
     Initializing libbeef V0.1.2 with the BEEF-vdW functional.
     Citation: Wellendorff et al., PRB 85, 235149 (2012).
     **************************************************************************


     IMPORTANT: XC functional enforced from input :
     Exchange-correlation= BEEF-VDW
                           (   1   4  43  14   2   0   0)
     Any further DFT definition will be discarded
     Please, verify this is what you really want


     Subspace diagonalization in iterative solution of the eigenvalue problem:
     a serial algorithm will be used


     Parallelization info
     --------------------
     sticks:   dense  smooth     PW     G-vecs:    dense   smooth      PW
     Min          94      37     11                21522     5429     873
     Max          95      38     12                21545     5456     882
     Sum        3509    1393    421               796793   201363   32425



     bravais-lattice index     =            0
     lattice parameter (alat)  =       1.8897  a.u.
     unit-cell volume          =    3645.3338 (a.u.)^3
     number of atoms/cell      =           12
     number of atomic types    =            2
     number of electrons       =       126.00
     number of Kohn-Sham states=           76
     kinetic-energy cutoff     =      55.1240  Ry
     charge density cutoff     =     551.2396  Ry
     convergence threshold     =      1.0E-05
     mixing beta               =       0.1000
     number of iterations used =           10  plain     mixing
     Exchange-correlation= BEEF-VDW
                           (   1   4  43  14   2   0   0)

     celldm(1)=   1.889726  celldm(2)=   0.000000  celldm(3)=   0.000000
     celldm(4)=   0.000000  celldm(5)=   0.000000  celldm(6)=   0.000000

     crystal axes: (cart. coord. in units of alat)
               a(1) = (   5.005819   0.000000   0.000000 )  
               a(2) = (  -2.502909   4.468911   0.000000 )  
               a(3) = (   0.000000   0.000000  24.147042 )  

     reciprocal axes: (cart. coord. in units 2 pi/alat)
               b(1) = (  0.199768  0.111884 -0.000000 )  
               b(2) = (  0.000000  0.223768  0.000000 )  
               b(3) = (  0.000000 -0.000000  0.041413 )  


     PseudoPot. # 1 for Ni read from file:
     ../pseudo/Ni.pbe-n-rrkjus_psl.1.0.0.UPF
     MD5 check sum: 9f76af1bddcd5839b31985483df98d0a
     Pseudo is Ultrasoft + core correction, Zval = 10.0
     Generated using "atomic" code by A. Dal Corso v.6.5
     Using radial grid of 1195 points,  6 beta functions with: 
                l(1) =   0
                l(2) =   0
                l(3) =   1
                l(4) =   1
                l(5) =   2
                l(6) =   2
     Q(r) pseudized with 0 coefficients 


     PseudoPot. # 2 for Cu read from file:
     ../pseudo/Cu.pbe-dn-rrkjus_psl.1.0.0.UPF
     MD5 check sum: 8469560995d0c2df1ffe68c099c04a63
     Pseudo is Ultrasoft + core correction, Zval = 11.0
     Generated using "atomic" code by A. Dal Corso v.6.3
     Using radial grid of 1199 points,  6 beta functions with: 
                l(1) =   0
                l(2) =   0
                l(3) =   1
                l(4) =   1
                l(5) =   2
                l(6) =   2
     Q(r) pseudized with 0 coefficients 


     atomic species   valence    mass     pseudopotential
        Ni            10.00    58.69340     Ni( 1.00)
        Cu            11.00    63.54600     Cu( 1.00)

     Starting magnetic structure 
     atomic species   magnetization
        Ni           0.500
        Cu           0.000

     No symmetry found



   Cartesian axes

     site n.     atom                  positions (alat units)
         1           Ni  tau(   1) = (   0.0000000   0.0000000  10.0000000  )
         2           Ni  tau(   2) = (   2.5029094   0.0000000  10.0000000  )
         3           Cu  tau(   3) = (   1.2514547   2.2344554  10.0000000  )
         4           Cu  tau(   4) = (  -1.2514547   2.2344554  10.0000000  )
         5           Ni  tau(   5) = (   2.5029094   1.4018081  12.0735210  )
         6           Ni  tau(   6) = (  -0.0000000   1.4018081  12.0735210  )
         7           Cu  tau(   7) = (  -1.2514547   3.6362635  12.0735210  )
         8           Cu  tau(   8) = (   1.2514547   3.6362635  12.0735210  )
         9           Ni  tau(   9) = (  -0.0000165   2.7956798  14.0994330  )
        10           Ni  tau(  10) = (   2.5029189   2.7953720  14.0992731  )
        11           Cu  tau(  11) = (   3.7540512   0.5773498  14.1737809  )
        12           Cu  tau(  12) = (   1.2517745   0.5773413  14.1737812  )

     number of k points=    74  Fermi-Dirac smearing, width (Ry)=  0.0100
                       cart. coord. in units 2pi/alat
        k(    1) = (   0.0000000   0.0000000   0.0000000), wk =   0.0069444
        k(    2) = (   0.0000000   0.0186473   0.0000000), wk =   0.0138889
        k(    3) = (   0.0000000   0.0372947   0.0000000), wk =   0.0138889
        k(    4) = (   0.0000000   0.0559420   0.0000000), wk =   0.0138889
        k(    5) = (   0.0000000   0.0745894   0.0000000), wk =   0.0138889
        k(    6) = (   0.0000000   0.0932367   0.0000000), wk =   0.0138889
        k(    7) = (   0.0000000  -0.1118841   0.0000000), wk =   0.0069444
        k(    8) = (   0.0166473   0.0093237   0.0000000), wk =   0.0138889
        k(    9) = (   0.0166473   0.0279710   0.0000000), wk =   0.0138889
        k(   10) = (   0.0166473   0.0466184   0.0000000), wk =   0.0138889
        k(   11) = (   0.0166473   0.0652657   0.0000000), wk =   0.0138889
        k(   12) = (   0.0166473   0.0839131   0.0000000), wk =   0.0138889
        k(   13) = (   0.0166473   0.1025604   0.0000000), wk =   0.0138889
        k(   14) = (   0.0166473  -0.1025604   0.0000000), wk =   0.0138889
        k(   15) = (   0.0166473  -0.0839131   0.0000000), wk =   0.0138889
        k(   16) = (   0.0166473  -0.0652657   0.0000000), wk =   0.0138889
        k(   17) = (   0.0166473  -0.0466184   0.0000000), wk =   0.0138889
        k(   18) = (   0.0166473  -0.0279710   0.0000000), wk =   0.0138889
        k(   19) = (   0.0166473  -0.0093237   0.0000000), wk =   0.0138889
        k(   20) = (   0.0332946   0.0186473   0.0000000), wk =   0.0138889
        k(   21) = (   0.0332946   0.0372947   0.0000000), wk =   0.0138889
        k(   22) = (   0.0332946   0.0559420   0.0000000), wk =   0.0138889
        k(   23) = (   0.0332946   0.0745894   0.0000000), wk =   0.0138889
        k(   24) = (   0.0332946   0.0932367   0.0000000), wk =   0.0138889
        k(   25) = (   0.0332946   0.1118841   0.0000000), wk =   0.0138889
        k(   26) = (   0.0332946  -0.0932367   0.0000000), wk =   0.0138889
        k(   27) = (   0.0332946  -0.0745894   0.0000000), wk =   0.0138889
        k(   28) = (   0.0332946  -0.0559420   0.0000000), wk =   0.0138889
        k(   29) = (   0.0332946  -0.0372947   0.0000000), wk =   0.0138889
        k(   30) = (   0.0332946  -0.0186474   0.0000000), wk =   0.0138889
        k(   31) = (   0.0332946  -0.0000000   0.0000000), wk =   0.0138889
        k(   32) = (   0.0499419   0.0279710   0.0000000), wk =   0.0138889
        k(   33) = (   0.0499419   0.0466184   0.0000000), wk =   0.0138889
        k(   34) = (   0.0499419   0.0652657   0.0000000), wk =   0.0138889
        k(   35) = (   0.0499419   0.0839131   0.0000000), wk =   0.0138889
        k(   36) = (   0.0499419   0.1025604   0.0000000), wk =   0.0138889
        k(   37) = (   0.0499419   0.1212077   0.0000000), wk =   0.0138889
        k(   38) = (   0.0499419  -0.0839131   0.0000000), wk =   0.0138889
        k(   39) = (   0.0499419  -0.0652657   0.0000000), wk =   0.0138889
        k(   40) = (   0.0499419  -0.0466184   0.0000000), wk =   0.0138889
        k(   41) = (   0.0499419  -0.0279710   0.0000000), wk =   0.0138889
        k(   42) = (   0.0499419  -0.0093237   0.0000000), wk =   0.0138889
        k(   43) = (   0.0499419   0.0093237   0.0000000), wk =   0.0138889
        k(   44) = (   0.0665892   0.0372947   0.0000000), wk =   0.0138889
        k(   45) = (   0.0665892   0.0559420   0.0000000), wk =   0.0138889
        k(   46) = (   0.0665892   0.0745894   0.0000000), wk =   0.0138889
        k(   47) = (   0.0665892   0.0932367   0.0000000), wk =   0.0138889
        k(   48) = (   0.0665892   0.1118841   0.0000000), wk =   0.0138889
        k(   49) = (   0.0665892   0.1305314   0.0000000), wk =   0.0138889
        k(   50) = (   0.0665892  -0.0745894   0.0000000), wk =   0.0138889
        k(   51) = (   0.0665892  -0.0559420   0.0000000), wk =   0.0138889
        k(   52) = (   0.0665892  -0.0372947   0.0000000), wk =   0.0138889
        k(   53) = (   0.0665892  -0.0186474   0.0000000), wk =   0.0138889
        k(   54) = (   0.0665892  -0.0000000   0.0000000), wk =   0.0138889
        k(   55) = (   0.0665892   0.0186473   0.0000000), wk =   0.0138889
        k(   56) = (   0.0832365   0.0466184   0.0000000), wk =   0.0138889
        k(   57) = (   0.0832365   0.0652657   0.0000000), wk =   0.0138889
        k(   58) = (   0.0832365   0.0839131   0.0000000), wk =   0.0138889
        k(   59) = (   0.0832365   0.1025604   0.0000000), wk =   0.0138889
        k(   60) = (   0.0832365   0.1212077   0.0000000), wk =   0.0138889
        k(   61) = (   0.0832365   0.1398551   0.0000000), wk =   0.0138889
        k(   62) = (   0.0832365  -0.0652657   0.0000000), wk =   0.0138889
        k(   63) = (   0.0832365  -0.0466184   0.0000000), wk =   0.0138889
        k(   64) = (   0.0832365  -0.0279710   0.0000000), wk =   0.0138889
        k(   65) = (   0.0832365  -0.0093237   0.0000000), wk =   0.0138889
        k(   66) = (   0.0832365   0.0093237   0.0000000), wk =   0.0138889
        k(   67) = (   0.0832365   0.0279710   0.0000000), wk =   0.0138889
        k(   68) = (  -0.0998838  -0.0559420   0.0000000), wk =   0.0069444
        k(   69) = (  -0.0998838  -0.0372947   0.0000000), wk =   0.0138889
        k(   70) = (  -0.0998838  -0.0186473   0.0000000), wk =   0.0138889
        k(   71) = (  -0.0998838   0.0000000   0.0000000), wk =   0.0138889
        k(   72) = (  -0.0998838   0.0186474   0.0000000), wk =   0.0138889
        k(   73) = (  -0.0998838   0.0372947   0.0000000), wk =   0.0138889
        k(   74) = (  -0.0998838  -0.1678261   0.0000000), wk =   0.0069444

     Dense  grid:   796793 G-vectors     FFT dimensions: (  72,  75, 360)

     Smooth grid:   201363 G-vectors     FFT dimensions: (  45,  45, 216)

     Estimated max dynamical RAM per process >     214.73 MB

     Estimated total dynamical RAM >       7.76 GB
     Generating pointlists ...
     new r_m :   1.0143 (alat units)  1.9167 (a.u.) for type    1
     new r_m :   1.0322 (alat units)  1.9506 (a.u.) for type    2

     Initial potential from superposition of free atoms

     starting charge  125.99714, renormalised to  126.00000


     %%%%%%%%%%%%%%%%%%%%%%%%%%%%%%%%%%%%%%%%%%%%%%%%%%%%%%%%%%%%%%%%%%%%%%%%
     %                                                                      %
     % You are using vdW-DF, which was implemented by the Thonhauser group. %
     % Please cite the following two papers that made this development      %
     % possible and the two reviews that describe the various versions:     %
     %                                                                      %
     %   T. Thonhauser et al., PRL 115, 136402 (2015).                      %
     %   T. Thonhauser et al., PRB 76, 125112 (2007).                       %
     %   K. Berland et al., Rep. Prog. Phys. 78, 066501 (2015).             %
     %   D.C. Langreth et al., J. Phys.: Condens. Matter 21, 084203 (2009). %
     %                                                                      %
     %                                                                      %
     % If you are calculating the stress with vdW-DF, please also cite:     %
     %                                                                      %
     %   R. Sabatini et al., J. Phys.: Condens. Matter 24, 424209 (2012).   %
     %                                                                      %
     %%%%%%%%%%%%%%%%%%%%%%%%%%%%%%%%%%%%%%%%%%%%%%%%%%%%%%%%%%%%%%%%%%%%%%%%



     Adding external electric field

     Computed dipole along edir(3) : 
        Dipole               -0.0000 Ry au,         -0.0000 Debye
        Dipole field         -0.0000 Ry au, 

        Potential amp.        0.0000 Ry
        Total length         44.4905 bohr


     Adding external electric field

     Computed dipole along edir(3) : 
        Dipole               -0.0000 Ry au,         -0.0000 Debye
        Dipole field         -0.0000 Ry au, 

        Potential amp.        0.0000 Ry
        Total length         44.4905 bohr

     Starting wfcs are  108 randomized atomic wfcs

     total cpu time spent up to now is      126.3 secs

     Self-consistent Calculation

     iteration #  1     ecut=    55.12 Ry     beta= 0.10
     Davidson diagonalization with overlap
     ethr =  1.00E-02,  avg # of iterations =  2.0

     Adding external electric field

     Computed dipole along edir(3) : 
        Dipole               -0.0002 Ry au,         -0.0005 Debye
        Dipole field         -0.0000 Ry au, 

        Potential amp.        0.0001 Ry
        Total length         44.4905 bohr


     Adding external electric field

     Computed dipole along edir(3) : 
        Dipole               -0.0002 Ry au,         -0.0005 Debye
        Dipole field         -0.0000 Ry au, 

        Potential amp.        0.0001 Ry
        Total length         44.4905 bohr


     total cpu time spent up to now is      327.4 secs

     total energy              =   -1354.20205427 Ry
     estimated scf accuracy    <       7.99388261 Ry

     total magnetization       =     4.52 Bohr mag/cell
     absolute magnetization    =     4.82 Bohr mag/cell

     iteration #  2     ecut=    55.12 Ry     beta= 0.10
     Davidson diagonalization with overlap
     ethr =  6.34E-03,  avg # of iterations =  1.0

     Adding external electric field

     Computed dipole along edir(3) : 
        Dipole                0.0732 Ry au,          0.1860 Debye
        Dipole field          0.0003 Ry au, 

        Potential amp.       -0.0224 Ry
        Total length         44.4905 bohr


     Adding external electric field

     Computed dipole along edir(3) : 
        Dipole                0.0732 Ry au,          0.1860 Debye
        Dipole field          0.0003 Ry au, 

        Potential amp.       -0.0224 Ry
        Total length         44.4905 bohr


     total cpu time spent up to now is      509.9 secs

     total energy              =   -1354.69510858 Ry
     estimated scf accuracy    <       2.71186369 Ry

     total magnetization       =     8.79 Bohr mag/cell
     absolute magnetization    =     9.05 Bohr mag/cell

     iteration #  3     ecut=    55.12 Ry     beta= 0.10
     Davidson diagonalization with overlap
     ethr =  2.15E-03,  avg # of iterations =  1.2

     Adding external electric field

     Computed dipole along edir(3) : 
        Dipole               -0.2024 Ry au,         -0.5146 Debye
        Dipole field         -0.0007 Ry au, 

        Potential amp.        0.0621 Ry
        Total length         44.4905 bohr


     Adding external electric field

     Computed dipole along edir(3) : 
        Dipole               -0.2024 Ry au,         -0.5146 Debye
        Dipole field         -0.0007 Ry au, 

        Potential amp.        0.0621 Ry
        Total length         44.4905 bohr


     total cpu time spent up to now is      693.7 secs

     total energy              =   -1354.89900631 Ry
     estimated scf accuracy    <       5.57097999 Ry

     total magnetization       =     8.25 Bohr mag/cell
     absolute magnetization    =     8.69 Bohr mag/cell

     iteration #  4     ecut=    55.12 Ry     beta= 0.10
     Davidson diagonalization with overlap
     ethr =  2.15E-03,  avg # of iterations =  1.0

     Adding external electric field

     Computed dipole along edir(3) : 
        Dipole                0.0157 Ry au,          0.0399 Debye
        Dipole field          0.0001 Ry au, 

        Potential amp.       -0.0048 Ry
        Total length         44.4905 bohr


     Adding external electric field

     Computed dipole along edir(3) : 
        Dipole                0.0157 Ry au,          0.0399 Debye
        Dipole field          0.0001 Ry au, 

        Potential amp.       -0.0048 Ry
        Total length         44.4905 bohr


     total cpu time spent up to now is      875.9 secs

     total energy              =   -1355.21127270 Ry
     estimated scf accuracy    <      10.27918455 Ry

     total magnetization       =     7.80 Bohr mag/cell
     absolute magnetization    =     8.20 Bohr mag/cell

     iteration #  5     ecut=    55.12 Ry     beta= 0.10
     Davidson diagonalization with overlap
     ethr =  2.15E-03,  avg # of iterations =  1.0

     Adding external electric field

     Computed dipole along edir(3) : 
        Dipole                0.0020 Ry au,          0.0052 Debye
        Dipole field          0.0000 Ry au, 

        Potential amp.       -0.0006 Ry
        Total length         44.4905 bohr


     Adding external electric field

     Computed dipole along edir(3) : 
        Dipole                0.0020 Ry au,          0.0052 Debye
        Dipole field          0.0000 Ry au, 

        Potential amp.       -0.0006 Ry
        Total length         44.4905 bohr


     total cpu time spent up to now is     1051.2 secs

     total energy              =   -1356.40237549 Ry
     estimated scf accuracy    <       1.11383426 Ry

     total magnetization       =     7.45 Bohr mag/cell
     absolute magnetization    =     7.79 Bohr mag/cell

     iteration #  6     ecut=    55.12 Ry     beta= 0.10
     Davidson diagonalization with overlap
     ethr =  8.84E-04,  avg # of iterations =  2.6

     Adding external electric field

     Computed dipole along edir(3) : 
        Dipole                0.0005 Ry au,          0.0012 Debye
        Dipole field          0.0000 Ry au, 

        Potential amp.       -0.0001 Ry
        Total length         44.4905 bohr


     Adding external electric field

     Computed dipole along edir(3) : 
        Dipole                0.0005 Ry au,          0.0012 Debye
        Dipole field          0.0000 Ry au, 

        Potential amp.       -0.0001 Ry
        Total length         44.4905 bohr


     total cpu time spent up to now is     1263.6 secs

     total energy              =   -1356.77125952 Ry
     estimated scf accuracy    <       1.81750424 Ry

     total magnetization       =     5.74 Bohr mag/cell
     absolute magnetization    =     6.26 Bohr mag/cell

     iteration #  7     ecut=    55.12 Ry     beta= 0.10
     Davidson diagonalization with overlap
     ethr =  8.84E-04,  avg # of iterations =  1.3

     Adding external electric field

     Computed dipole along edir(3) : 
        Dipole               -0.0077 Ry au,         -0.0196 Debye
        Dipole field         -0.0000 Ry au, 

        Potential amp.        0.0024 Ry
        Total length         44.4905 bohr


     Adding external electric field

     Computed dipole along edir(3) : 
        Dipole               -0.0077 Ry au,         -0.0196 Debye
        Dipole field         -0.0000 Ry au, 

        Potential amp.        0.0024 Ry
        Total length         44.4905 bohr


     total cpu time spent up to now is     1454.9 secs

     total energy              =   -1358.90413968 Ry
     estimated scf accuracy    <       0.38542010 Ry

     total magnetization       =     5.19 Bohr mag/cell
     absolute magnetization    =     5.88 Bohr mag/cell

     iteration #  8     ecut=    55.12 Ry     beta= 0.10
     Davidson diagonalization with overlap
     ethr =  3.06E-04,  avg # of iterations =  3.5

     Adding external electric field

     Computed dipole along edir(3) : 
        Dipole                0.0021 Ry au,          0.0053 Debye
        Dipole field          0.0000 Ry au, 

        Potential amp.       -0.0006 Ry
        Total length         44.4905 bohr


     Adding external electric field

     Computed dipole along edir(3) : 
        Dipole                0.0021 Ry au,          0.0053 Debye
        Dipole field          0.0000 Ry au, 

        Potential amp.       -0.0006 Ry
        Total length         44.4905 bohr


     total cpu time spent up to now is     1813.1 secs

     total energy              =   -1359.31589543 Ry
     estimated scf accuracy    <       0.62135177 Ry

     total magnetization       =     3.99 Bohr mag/cell
     absolute magnetization    =     4.96 Bohr mag/cell

     iteration #  9     ecut=    55.12 Ry     beta= 0.10
     Davidson diagonalization with overlap
     ethr =  3.06E-04,  avg # of iterations =  1.6

     Adding external electric field

     Computed dipole along edir(3) : 
        Dipole                0.0028 Ry au,          0.0071 Debye
        Dipole field          0.0000 Ry au, 

        Potential amp.       -0.0009 Ry
        Total length         44.4905 bohr


     Adding external electric field

     Computed dipole along edir(3) : 
        Dipole                0.0028 Ry au,          0.0071 Debye
        Dipole field          0.0000 Ry au, 

        Potential amp.       -0.0009 Ry
        Total length         44.4905 bohr


     total cpu time spent up to now is     2004.8 secs

     total energy              =   -1359.06625481 Ry
     estimated scf accuracy    <       0.05110631 Ry

     total magnetization       =     2.70 Bohr mag/cell
     absolute magnetization    =     3.69 Bohr mag/cell

     iteration # 10     ecut=    55.12 Ry     beta= 0.10
     Davidson diagonalization with overlap
     c_bands:  1 eigenvalues not converged
     c_bands:  1 eigenvalues not converged
     c_bands:  1 eigenvalues not converged
     c_bands:  2 eigenvalues not converged
     c_bands:  2 eigenvalues not converged
     c_bands:  2 eigenvalues not converged
     c_bands:  1 eigenvalues not converged
     c_bands:  1 eigenvalues not converged
     c_bands:  2 eigenvalues not converged
     c_bands:  1 eigenvalues not converged
     c_bands:  2 eigenvalues not converged
     c_bands:  1 eigenvalues not converged
     c_bands:  1 eigenvalues not converged
     c_bands:  2 eigenvalues not converged
     c_bands:  1 eigenvalues not converged
     c_bands:  2 eigenvalues not converged
     c_bands:  1 eigenvalues not converged
     c_bands:  1 eigenvalues not converged
     c_bands:  1 eigenvalues not converged
     c_bands:  1 eigenvalues not converged
     c_bands:  1 eigenvalues not converged
     c_bands:  1 eigenvalues not converged
     c_bands:  1 eigenvalues not converged
     ethr =  4.06E-05,  avg # of iterations =  9.8

     Adding external electric field

     Computed dipole along edir(3) : 
        Dipole                0.0002 Ry au,          0.0005 Debye
        Dipole field          0.0000 Ry au, 

        Potential amp.       -0.0001 Ry
        Total length         44.4905 bohr


     Adding external electric field

     Computed dipole along edir(3) : 
        Dipole                0.0002 Ry au,          0.0005 Debye
        Dipole field          0.0000 Ry au, 

        Potential amp.       -0.0001 Ry
        Total length         44.4905 bohr


     total cpu time spent up to now is     2207.0 secs

     total energy              =   -1358.80863981 Ry
     estimated scf accuracy    <       0.04539859 Ry

     total magnetization       =     2.46 Bohr mag/cell
     absolute magnetization    =     3.42 Bohr mag/cell

     iteration # 11     ecut=    55.12 Ry     beta= 0.10
     Davidson diagonalization with overlap
     ethr =  3.60E-05,  avg # of iterations =  2.4

     Adding external electric field

     Computed dipole along edir(3) : 
        Dipole                0.0001 Ry au,          0.0003 Debye
        Dipole field          0.0000 Ry au, 

        Potential amp.       -0.0000 Ry
        Total length         44.4905 bohr


     Adding external electric field

     Computed dipole along edir(3) : 
        Dipole                0.0001 Ry au,          0.0003 Debye
        Dipole field          0.0000 Ry au, 

        Potential amp.       -0.0000 Ry
        Total length         44.4905 bohr


     total cpu time spent up to now is     2366.0 secs

     total energy              =   -1358.49018694 Ry
     estimated scf accuracy    <       0.05533266 Ry

     total magnetization       =     2.30 Bohr mag/cell
     absolute magnetization    =     3.21 Bohr mag/cell

     iteration # 12     ecut=    55.12 Ry     beta= 0.10
     Davidson diagonalization with overlap
     ethr =  3.60E-05,  avg # of iterations =  1.4

     Adding external electric field

     Computed dipole along edir(3) : 
        Dipole                0.0002 Ry au,          0.0005 Debye
        Dipole field          0.0000 Ry au, 

        Potential amp.       -0.0001 Ry
        Total length         44.4905 bohr


     Adding external electric field

     Computed dipole along edir(3) : 
        Dipole                0.0002 Ry au,          0.0005 Debye
        Dipole field          0.0000 Ry au, 

        Potential amp.       -0.0001 Ry
        Total length         44.4905 bohr


     total cpu time spent up to now is     2543.0 secs

     total energy              =   -1358.22730467 Ry
     estimated scf accuracy    <       0.01806679 Ry

     total magnetization       =     2.20 Bohr mag/cell
     absolute magnetization    =     3.09 Bohr mag/cell

     iteration # 13     ecut=    55.12 Ry     beta= 0.10
     Davidson diagonalization with overlap
     c_bands:  1 eigenvalues not converged
     c_bands:  1 eigenvalues not converged
     c_bands:  1 eigenvalues not converged
     c_bands:  2 eigenvalues not converged
     c_bands:  2 eigenvalues not converged
     c_bands:  3 eigenvalues not converged
     c_bands:  1 eigenvalues not converged
     c_bands:  1 eigenvalues not converged
     c_bands:  2 eigenvalues not converged
     c_bands:  1 eigenvalues not converged
     ethr =  1.43E-05,  avg # of iterations =  4.3

     Adding external electric field

     Computed dipole along edir(3) : 
        Dipole                0.0007 Ry au,          0.0017 Debye
        Dipole field          0.0000 Ry au, 

        Potential amp.       -0.0002 Ry
        Total length         44.4905 bohr


     Adding external electric field

     Computed dipole along edir(3) : 
        Dipole                0.0007 Ry au,          0.0017 Debye
        Dipole field          0.0000 Ry au, 

        Potential amp.       -0.0002 Ry
        Total length         44.4905 bohr


     total cpu time spent up to now is     2730.3 secs

     total energy              =   -1357.99917295 Ry
     estimated scf accuracy    <       0.00399371 Ry

     total magnetization       =     2.08 Bohr mag/cell
     absolute magnetization    =     2.92 Bohr mag/cell

     iteration # 14     ecut=    55.12 Ry     beta= 0.10
     Davidson diagonalization with overlap
     c_bands:  1 eigenvalues not converged
     c_bands:  1 eigenvalues not converged
     c_bands:  1 eigenvalues not converged
     c_bands:  1 eigenvalues not converged
     c_bands:  1 eigenvalues not converged
     c_bands:  1 eigenvalues not converged
     c_bands:  2 eigenvalues not converged
     c_bands:  1 eigenvalues not converged
     c_bands:  1 eigenvalues not converged
     c_bands:  1 eigenvalues not converged
     c_bands:  1 eigenvalues not converged
     c_bands:  1 eigenvalues not converged
     c_bands:  1 eigenvalues not converged
     c_bands:  1 eigenvalues not converged
     c_bands:  2 eigenvalues not converged
     c_bands:  1 eigenvalues not converged
     c_bands:  1 eigenvalues not converged
     c_bands:  1 eigenvalues not converged
     c_bands:  1 eigenvalues not converged
     c_bands:  1 eigenvalues not converged
     c_bands:  1 eigenvalues not converged
     c_bands:  1 eigenvalues not converged
     c_bands:  1 eigenvalues not converged
     c_bands:  1 eigenvalues not converged
     c_bands:  1 eigenvalues not converged
     c_bands:  1 eigenvalues not converged
     c_bands:  1 eigenvalues not converged
     c_bands:  1 eigenvalues not converged
     c_bands:  1 eigenvalues not converged
     c_bands:  1 eigenvalues not converged
     c_bands:  1 eigenvalues not converged
     c_bands:  1 eigenvalues not converged
     c_bands:  1 eigenvalues not converged
     c_bands:  1 eigenvalues not converged
     c_bands:  1 eigenvalues not converged
     ethr =  3.17E-06,  avg # of iterations =  9.9

     Adding external electric field

     Computed dipole along edir(3) : 
        Dipole                0.0004 Ry au,          0.0011 Debye
        Dipole field          0.0000 Ry au, 

        Potential amp.       -0.0001 Ry
        Total length         44.4905 bohr


     Adding external electric field

     Computed dipole along edir(3) : 
        Dipole                0.0004 Ry au,          0.0011 Debye
        Dipole field          0.0000 Ry au, 

        Potential amp.       -0.0001 Ry
        Total length         44.4905 bohr


     total cpu time spent up to now is     2928.5 secs

     total energy              =   -1357.73807111 Ry
     estimated scf accuracy    <       0.00155612 Ry

     total magnetization       =     1.94 Bohr mag/cell
     absolute magnetization    =     2.71 Bohr mag/cell

     iteration # 15     ecut=    55.12 Ry     beta= 0.10
     Davidson diagonalization with overlap
     c_bands:  1 eigenvalues not converged
     c_bands:  1 eigenvalues not converged
     c_bands:  1 eigenvalues not converged
     c_bands:  1 eigenvalues not converged
     c_bands:  1 eigenvalues not converged
     c_bands:  1 eigenvalues not converged
     ethr =  1.24E-06,  avg # of iterations =  3.9

     Adding external electric field

     Computed dipole along edir(3) : 
        Dipole                0.0003 Ry au,          0.0009 Debye
        Dipole field          0.0000 Ry au, 

        Potential amp.       -0.0001 Ry
        Total length         44.4905 bohr


     Adding external electric field

     Computed dipole along edir(3) : 
        Dipole                0.0003 Ry au,          0.0009 Debye
        Dipole field          0.0000 Ry au, 

        Potential amp.       -0.0001 Ry
        Total length         44.4905 bohr


     total cpu time spent up to now is     3153.6 secs

     total energy              =   -1357.47542531 Ry
     estimated scf accuracy    <       0.00066549 Ry

     total magnetization       =     1.88 Bohr mag/cell
     absolute magnetization    =     2.59 Bohr mag/cell

     iteration # 16     ecut=    55.12 Ry     beta= 0.10
     Davidson diagonalization with overlap
     ethr =  5.28E-07,  avg # of iterations =  1.8

     Adding external electric field

     Computed dipole along edir(3) : 
        Dipole                0.0017 Ry au,          0.0044 Debye
        Dipole field          0.0000 Ry au, 

        Potential amp.       -0.0005 Ry
        Total length         44.4905 bohr


     Adding external electric field

     Computed dipole along edir(3) : 
        Dipole                0.0017 Ry au,          0.0044 Debye
        Dipole field          0.0000 Ry au, 

        Potential amp.       -0.0005 Ry
        Total length         44.4905 bohr


     total cpu time spent up to now is     3310.7 secs

     total energy              =   -1357.21388901 Ry
     estimated scf accuracy    <       0.00036732 Ry

     total magnetization       =     1.86 Bohr mag/cell
     absolute magnetization    =     2.52 Bohr mag/cell

     iteration # 17     ecut=    55.12 Ry     beta= 0.10
     Davidson diagonalization with overlap
     ethr =  2.92E-07,  avg # of iterations =  1.9

     Adding external electric field

     Computed dipole along edir(3) : 
        Dipole                0.0007 Ry au,          0.0018 Debye
        Dipole field          0.0000 Ry au, 

        Potential amp.       -0.0002 Ry
        Total length         44.4905 bohr


     Adding external electric field

     Computed dipole along edir(3) : 
        Dipole                0.0007 Ry au,          0.0018 Debye
        Dipole field          0.0000 Ry au, 

        Potential amp.       -0.0002 Ry
        Total length         44.4905 bohr


     total cpu time spent up to now is     3491.5 secs

     total energy              =   -1356.98028587 Ry
     estimated scf accuracy    <       0.00050408 Ry

     total magnetization       =     1.89 Bohr mag/cell
     absolute magnetization    =     2.50 Bohr mag/cell

     iteration # 18     ecut=    55.12 Ry     beta= 0.10
     Davidson diagonalization with overlap
     ethr =  2.92E-07,  avg # of iterations =  2.0

     Adding external electric field

     Computed dipole along edir(3) : 
        Dipole                0.0009 Ry au,          0.0023 Debye
        Dipole field          0.0000 Ry au, 

        Potential amp.       -0.0003 Ry
        Total length         44.4905 bohr


     Adding external electric field

     Computed dipole along edir(3) : 
        Dipole                0.0009 Ry au,          0.0023 Debye
        Dipole field          0.0000 Ry au, 

        Potential amp.       -0.0003 Ry
        Total length         44.4905 bohr


     total cpu time spent up to now is     3726.4 secs

     total energy              =   -1356.78038396 Ry
     estimated scf accuracy    <       0.00005041 Ry

     total magnetization       =     1.95 Bohr mag/cell
     absolute magnetization    =     2.45 Bohr mag/cell

     iteration # 19     ecut=    55.12 Ry     beta= 0.10
     Davidson diagonalization with overlap
     c_bands:  1 eigenvalues not converged
     c_bands:  1 eigenvalues not converged
     c_bands:  1 eigenvalues not converged
     c_bands:  1 eigenvalues not converged
     ethr =  4.00E-08,  avg # of iterations =  5.8

     Adding external electric field

     Computed dipole along edir(3) : 
        Dipole                0.0006 Ry au,          0.0014 Debye
        Dipole field          0.0000 Ry au, 

        Potential amp.       -0.0002 Ry
        Total length         44.4905 bohr


     Adding external electric field

     Computed dipole along edir(3) : 
        Dipole                0.0006 Ry au,          0.0014 Debye
        Dipole field          0.0000 Ry au, 

        Potential amp.       -0.0002 Ry
        Total length         44.4905 bohr


     total cpu time spent up to now is     3952.9 secs

     total energy              =   -1356.59297099 Ry
     estimated scf accuracy    <       0.00003092 Ry

     total magnetization       =     1.96 Bohr mag/cell
     absolute magnetization    =     2.43 Bohr mag/cell

     iteration # 20     ecut=    55.12 Ry     beta= 0.10
     Davidson diagonalization with overlap
     ethr =  2.45E-08,  avg # of iterations =  1.6

     Adding external electric field

     Computed dipole along edir(3) : 
        Dipole                0.0005 Ry au,          0.0012 Debye
        Dipole field          0.0000 Ry au, 

        Potential amp.       -0.0001 Ry
        Total length         44.4905 bohr


     Adding external electric field

     Computed dipole along edir(3) : 
        Dipole                0.0005 Ry au,          0.0012 Debye
        Dipole field          0.0000 Ry au, 

        Potential amp.       -0.0001 Ry
        Total length         44.4905 bohr


     total cpu time spent up to now is     4117.9 secs

     total energy              =   -1356.44864970 Ry
     estimated scf accuracy    <       0.00002100 Ry

     total magnetization       =     1.95 Bohr mag/cell
     absolute magnetization    =     2.41 Bohr mag/cell

     iteration # 21     ecut=    55.12 Ry     beta= 0.10
     Davidson diagonalization with overlap
     ethr =  1.67E-08,  avg # of iterations =  2.5

     Adding external electric field

     Computed dipole along edir(3) : 
        Dipole                0.0005 Ry au,          0.0012 Debye
        Dipole field          0.0000 Ry au, 

        Potential amp.       -0.0001 Ry
        Total length         44.4905 bohr


     Adding external electric field

     Computed dipole along edir(3) : 
        Dipole                0.0005 Ry au,          0.0012 Debye
        Dipole field          0.0000 Ry au, 

        Potential amp.       -0.0001 Ry
        Total length         44.4905 bohr


     total cpu time spent up to now is     4335.5 secs

     total energy              =   -1356.30476941 Ry
     estimated scf accuracy    <       0.00001342 Ry

     total magnetization       =     1.94 Bohr mag/cell
     absolute magnetization    =     2.36 Bohr mag/cell

     iteration # 22     ecut=    55.12 Ry     beta= 0.10
     Davidson diagonalization with overlap
     ethr =  1.07E-08,  avg # of iterations =  1.7

     Adding external electric field

     Computed dipole along edir(3) : 
        Dipole                0.0005 Ry au,          0.0012 Debye
        Dipole field          0.0000 Ry au, 

        Potential amp.       -0.0001 Ry
        Total length         44.4905 bohr


     Adding external electric field

     Computed dipole along edir(3) : 
        Dipole                0.0005 Ry au,          0.0012 Debye
        Dipole field          0.0000 Ry au, 

        Potential amp.       -0.0001 Ry
        Total length         44.4905 bohr


     total cpu time spent up to now is     4514.9 secs

     total energy              =   -1356.16805816 Ry
     estimated scf accuracy    <       0.00001153 Ry

     total magnetization       =     1.94 Bohr mag/cell
     absolute magnetization    =     2.35 Bohr mag/cell

     iteration # 23     ecut=    55.12 Ry     beta= 0.10
     Davidson diagonalization with overlap
     ethr =  9.15E-09,  avg # of iterations =  1.3

     Adding external electric field

     Computed dipole along edir(3) : 
        Dipole                0.0006 Ry au,          0.0016 Debye
        Dipole field          0.0000 Ry au, 

        Potential amp.       -0.0002 Ry
        Total length         44.4905 bohr


     Adding external electric field

     Computed dipole along edir(3) : 
        Dipole                0.0006 Ry au,          0.0016 Debye
        Dipole field          0.0000 Ry au, 

        Potential amp.       -0.0002 Ry
        Total length         44.4905 bohr


     total cpu time spent up to now is     4710.3 secs

     total energy              =   -1356.04678812 Ry
     estimated scf accuracy    <       0.00001043 Ry

     total magnetization       =     1.93 Bohr mag/cell
     absolute magnetization    =     2.34 Bohr mag/cell

     iteration # 24     ecut=    55.12 Ry     beta= 0.10
     Davidson diagonalization with overlap
     ethr =  8.28E-09,  avg # of iterations =  1.6

     Adding external electric field

     Computed dipole along edir(3) : 
        Dipole                0.0007 Ry au,          0.0017 Debye
        Dipole field          0.0000 Ry au, 

        Potential amp.       -0.0002 Ry
        Total length         44.4905 bohr


     Adding external electric field

     Computed dipole along edir(3) : 
        Dipole                0.0007 Ry au,          0.0017 Debye
        Dipole field          0.0000 Ry au, 

        Potential amp.       -0.0002 Ry
        Total length         44.4905 bohr


     total cpu time spent up to now is     4911.6 secs

     total energy              =   -1355.94290956 Ry
     estimated scf accuracy    <       0.00001016 Ry

     total magnetization       =     1.93 Bohr mag/cell
     absolute magnetization    =     2.33 Bohr mag/cell

     iteration # 25     ecut=    55.12 Ry     beta= 0.10
     Davidson diagonalization with overlap
     ethr =  8.07E-09,  avg # of iterations =  2.0

     Adding external electric field

     Computed dipole along edir(3) : 
        Dipole               -0.0041 Ry au,         -0.0105 Debye
        Dipole field         -0.0000 Ry au, 

        Potential amp.        0.0013 Ry
        Total length         44.4905 bohr


     Adding external electric field

     Computed dipole along edir(3) : 
        Dipole               -0.0041 Ry au,         -0.0105 Debye
        Dipole field         -0.0000 Ry au, 

        Potential amp.        0.0013 Ry
        Total length         44.4905 bohr


     Magnetic moment per site:
     atom:    1    charge:    8.5758    magn:    0.3384    constr:    0.0000
     atom:    2    charge:    8.5751    magn:    0.3385    constr:    0.0000
     atom:    3    charge:    9.6893    magn:    0.0126    constr:    0.0000
     atom:    4    charge:    9.6893    magn:    0.0126    constr:    0.0000
     atom:    5    charge:    8.6266    magn:    0.3166    constr:    0.0000
     atom:    6    charge:    8.6270    magn:    0.3166    constr:    0.0000
     atom:    7    charge:    9.7476    magn:    0.0150    constr:    0.0000
     atom:    8    charge:    9.7476    magn:    0.0150    constr:    0.0000
     atom:    9    charge:    8.5858    magn:    0.3311    constr:    0.0000
     atom:   10    charge:    8.5862    magn:    0.3309    constr:    0.0000
     atom:   11    charge:    9.6841    magn:    0.0121    constr:    0.0000
     atom:   12    charge:    9.6841    magn:    0.0121    constr:    0.0000

     total cpu time spent up to now is     5122.1 secs

     End of self-consistent calculation

     Number of k-points >= 100: set verbosity='high' to print the bands.

     the Fermi energy is    -0.6007 ev

!    total energy              =   -1354.97527791 Ry
     estimated scf accuracy    <       0.00000899 Ry
     smearing contrib. (-TS)   =      -0.06722759 Ry
     internal energy E=F+TS    =   -1354.90805032 Ry

     The total energy is F=E-TS. E is the sum of the following terms:
     one-electron contribution =  -11009.09893291 Ry
     hartree contribution      =    5638.73947816 Ry
     xc contribution           =    -534.01617155 Ry
     ewald contribution        =    4549.46757591 Ry
     electric field correction =       0.00000006 Ry

     total magnetization       =     1.92 Bohr mag/cell
     absolute magnetization    =     2.31 Bohr mag/cell

     convergence has been achieved in  25 iterations

     Forces acting on atoms (cartesian axes, Ry/au):

     atom    1 type  1   force =    -0.00000246    0.00335090    0.00874184
     atom    2 type  1   force =    -0.00000004    0.00340261    0.00881023
     atom    3 type  2   force =     0.00006356   -0.00364935   -0.00530543
     atom    4 type  2   force =    -0.00006296   -0.00364953   -0.00530563
     atom    5 type  1   force =     0.00000221   -0.00323560   -0.00151722
     atom    6 type  1   force =     0.00000158   -0.00310673   -0.00132236
     atom    7 type  2   force =     0.00012758    0.00362078   -0.00309897
     atom    8 type  2   force =    -0.00012168    0.00362009   -0.00309516
     atom    9 type  1   force =     0.00000956   -0.00011089    0.00088044
     atom   10 type  1   force =    -0.00000712   -0.00004473    0.00084661
     atom   11 type  2   force =     0.00008905   -0.00009997    0.00018232
     atom   12 type  2   force =    -0.00009927   -0.00009758    0.00018333

     Total force =     0.018193     Total SCF correction =     0.005150
     SCF correction compared to forces is large: reduce conv_thr to get better values

     Writing output data file ./Ni2Cu2/Ni2Cu2_beef.save/

     init_run     :    122.80s CPU    123.84s WALL (       1 calls)
     electrons    :   4939.33s CPU   4996.39s WALL (       1 calls)
     forces       :     73.62s CPU     74.07s WALL (       1 calls)

     Called by init_run:
     wfcinit      :    109.42s CPU    110.16s WALL (       1 calls)
     potinit      :      9.78s CPU      9.95s WALL (       1 calls)
     hinit0       :      1.68s CPU      1.70s WALL (       1 calls)

     Called by electrons:
     c_bands      :   4222.77s CPU   4267.68s WALL (      25 calls)
     sum_band     :    633.19s CPU    640.55s WALL (      25 calls)
     v_of_rho     :     57.20s CPU     59.55s WALL (      26 calls)
     newd         :     31.90s CPU     34.01s WALL (      26 calls)
     mix_rho      :      2.82s CPU      2.90s WALL (      25 calls)
     vdW_kernel   :      7.33s CPU      7.34s WALL (       1 calls)

     Called by c_bands:
     init_us_2    :     22.12s CPU     22.53s WALL (    7696 calls)
     cegterg      :   4152.61s CPU   4191.79s WALL (    3700 calls)

     Called by *egterg:
     cdiaghg      :    201.24s CPU    201.56s WALL (   13961 calls)
     h_psi        :   2545.28s CPU   2580.01s WALL (   14109 calls)
     s_psi        :    642.80s CPU    643.25s WALL (   14109 calls)
     g_psi        :      2.26s CPU      2.29s WALL (   10261 calls)

     Called by h_psi:
     h_psi:calbec :    839.32s CPU    842.94s WALL (   14109 calls)
     vloc_psi     :   1043.19s CPU   1073.38s WALL (   14109 calls)
     add_vuspsi   :    656.26s CPU    657.05s WALL (   14109 calls)

     General routines
     calbec       :   1273.92s CPU   1279.07s WALL (   18401 calls)
     fft          :     40.55s CPU     41.78s WALL (    2391 calls)
     ffts         :      0.44s CPU      0.44s WALL (     102 calls)
     fftw         :   1169.71s CPU   1202.08s WALL ( 1517666 calls)
     interpolate  :      1.09s CPU      1.11s WALL (      52 calls)

     Parallel routines
     fft_scatt_xy :     70.96s CPU     72.02s WALL ( 1520159 calls)
     fft_scatt_yz :    503.55s CPU    526.43s WALL ( 1520159 calls)

     PWSCF        :      1h43m CPU      1h45m WALL


   This run was terminated on:   3:18:25  27Jun2022            

=------------------------------------------------------------------------------=
   JOB DONE.
=------------------------------------------------------------------------------=
