
     Program PWSCF v.6.6 starts on 26Jun2022 at 22:50:39 

     This program is part of the open-source Quantum ESPRESSO suite
     for quantum simulation of materials; please cite
         "P. Giannozzi et al., J. Phys.:Condens. Matter 21 395502 (2009);
         "P. Giannozzi et al., J. Phys.:Condens. Matter 29 465901 (2017);
          URL http://www.quantum-espresso.org", 
     in publications or presentations arising from this work. More details at
     http://www.quantum-espresso.org/quote

     Parallel version (MPI), running on    37 processors

     MPI processes distributed on     1 nodes
     R & G space division:  proc/nbgrp/npool/nimage =      37
     Fft bands division:     nmany     =       1
     Reading input from Ni2Cd2.in
Warning: card &CELL ignored
Warning: card / ignored

     Current dimensions of program PWSCF are:
     Max number of different atomic species (ntypx) = 10
     Max number of k-points (npk) =  40000
     Max angular momentum in pseudopotentials (lmaxx) =  3
     Presently stress not available with electric field and gates

     Message from routine cell_base_init:
     DEPRECATED: use true lattice parameter, not A to a.u. conversion factor
     file Ni.pbe-n-rrkjus_psl.1.0.0.UPF: wavefunction(s)  3D renormalized
     file Cd.pbe-n-rrkjus_psl.1.0.0.UPF: wavefunction(s)  4D renormalized

     **************************************************************************
     Initializing libbeef V0.1.2 with the BEEF-vdW functional.
     Citation: Wellendorff et al., PRB 85, 235149 (2012).
     **************************************************************************


     IMPORTANT: XC functional enforced from input :
     Exchange-correlation= BEEF-VDW
                           (   1   4  43  14   2   0   0)
     Any further DFT definition will be discarded
     Please, verify this is what you really want


     Subspace diagonalization in iterative solution of the eigenvalue problem:
     a serial algorithm will be used


     Parallelization info
     --------------------
     sticks:   dense  smooth     PW     G-vecs:    dense   smooth      PW
     Min         116      46     13                26974     6816    1035
     Max         117      47     14                27005     6843    1043
     Sum        4319    1731    495               998653   252641   38459



     bravais-lattice index     =            0
     lattice parameter (alat)  =       1.8897  a.u.
     unit-cell volume          =    4568.6721 (a.u.)^3
     number of atoms/cell      =           12
     number of atomic types    =            2
     number of electrons       =       132.00
     number of Kohn-Sham states=           79
     kinetic-energy cutoff     =      55.1240  Ry
     charge density cutoff     =     551.2396  Ry
     convergence threshold     =      1.0E-05
     mixing beta               =       0.1000
     number of iterations used =           10  plain     mixing
     Exchange-correlation= BEEF-VDW
                           (   1   4  43  14   2   0   0)

     celldm(1)=   1.889726  celldm(2)=   0.000000  celldm(3)=   0.000000
     celldm(4)=   0.000000  celldm(5)=   0.000000  celldm(6)=   0.000000

     crystal axes: (cart. coord. in units of alat)
               a(1) = (   5.490363   0.000000   0.000000 )  
               a(2) = (   2.215990   5.023294   0.000000 )  
               a(3) = (   0.000000   0.000000  24.547305 )  

     reciprocal axes: (cart. coord. in units 2 pi/alat)
               b(1) = (  0.182137 -0.080349  0.000000 )  
               b(2) = (  0.000000  0.199073  0.000000 )  
               b(3) = (  0.000000  0.000000  0.040738 )  


     PseudoPot. # 1 for Ni read from file:
     ../pseudo/Ni.pbe-n-rrkjus_psl.1.0.0.UPF
     MD5 check sum: 9f76af1bddcd5839b31985483df98d0a
     Pseudo is Ultrasoft + core correction, Zval = 10.0
     Generated using "atomic" code by A. Dal Corso v.6.5
     Using radial grid of 1195 points,  6 beta functions with: 
                l(1) =   0
                l(2) =   0
                l(3) =   1
                l(4) =   1
                l(5) =   2
                l(6) =   2
     Q(r) pseudized with 0 coefficients 


     PseudoPot. # 2 for Cd read from file:
     ../pseudo/Cd.pbe-n-rrkjus_psl.1.0.0.UPF
     MD5 check sum: a744746c89d2344a134ead0d8ab94e7a
     Pseudo is Ultrasoft + core correction, Zval = 12.0
     Generated using "atomic" code by A. Dal Corso v.6.3
     Using radial grid of 1239 points,  6 beta functions with: 
                l(1) =   0
                l(2) =   0
                l(3) =   1
                l(4) =   1
                l(5) =   2
                l(6) =   2
     Q(r) pseudized with 0 coefficients 


     atomic species   valence    mass     pseudopotential
        Ni            10.00    58.69340     Ni( 1.00)
        Cd            12.00   112.41400     Cd( 1.00)

     Starting magnetic structure 
     atomic species   magnetization
        Ni           0.500
        Cd           0.000

     No symmetry found



   Cartesian axes

     site n.     atom                  positions (alat units)
         1           Ni  tau(   1) = (   0.0000000   0.0000000  10.0000000  )
         2           Ni  tau(   2) = (   3.8531764   2.5116468  10.0000000  )
         3           Cd  tau(   3) = (   2.7451817   0.0000000  10.0000000  )
         4           Cd  tau(   4) = (   1.1079948   2.5116468  10.0000000  )
         5           Ni  tau(   5) = (   5.4903633   3.5788275  12.2736524  )
         6           Ni  tau(   6) = (   1.6371869   1.0671806  12.2736524  )
         7           Cd  tau(   7) = (   2.7451817   3.5788275  12.2736524  )
         8           Cd  tau(   8) = (   4.3823685   1.0671806  12.2736524  )
         9           Ni  tau(   9) = (   2.9224627   1.9049708  14.3611843  )
        10           Ni  tau(  10) = (   6.7759281   4.4168201  14.3605390  )
        11           Cd  tau(  11) = (   5.7206691   1.9390972  14.7861168  )
        12           Cd  tau(  12) = (   4.0830766   4.4513513  14.7860952  )

     number of k points=    74  Fermi-Dirac smearing, width (Ry)=  0.0100
                       cart. coord. in units 2pi/alat
        k(    1) = (   0.0000000   0.0000000   0.0000000), wk =   0.0069444
        k(    2) = (   0.0000000   0.0165894   0.0000000), wk =   0.0138889
        k(    3) = (   0.0000000   0.0331788   0.0000000), wk =   0.0138889
        k(    4) = (   0.0000000   0.0497681   0.0000000), wk =   0.0138889
        k(    5) = (   0.0000000   0.0663575   0.0000000), wk =   0.0138889
        k(    6) = (   0.0000000   0.0829469   0.0000000), wk =   0.0138889
        k(    7) = (   0.0000000  -0.0995363   0.0000000), wk =   0.0069444
        k(    8) = (   0.0151781  -0.0066957   0.0000000), wk =   0.0138889
        k(    9) = (   0.0151781   0.0098937   0.0000000), wk =   0.0138889
        k(   10) = (   0.0151781   0.0264830   0.0000000), wk =   0.0138889
        k(   11) = (   0.0151781   0.0430724   0.0000000), wk =   0.0138889
        k(   12) = (   0.0151781   0.0596618   0.0000000), wk =   0.0138889
        k(   13) = (   0.0151781   0.0762512   0.0000000), wk =   0.0138889
        k(   14) = (   0.0151781  -0.1062320   0.0000000), wk =   0.0138889
        k(   15) = (   0.0151781  -0.0896426   0.0000000), wk =   0.0138889
        k(   16) = (   0.0151781  -0.0730532   0.0000000), wk =   0.0138889
        k(   17) = (   0.0151781  -0.0564639   0.0000000), wk =   0.0138889
        k(   18) = (   0.0151781  -0.0398745   0.0000000), wk =   0.0138889
        k(   19) = (   0.0151781  -0.0232851   0.0000000), wk =   0.0138889
        k(   20) = (   0.0303562  -0.0133914   0.0000000), wk =   0.0138889
        k(   21) = (   0.0303562   0.0031980   0.0000000), wk =   0.0138889
        k(   22) = (   0.0303562   0.0197873   0.0000000), wk =   0.0138889
        k(   23) = (   0.0303562   0.0363767   0.0000000), wk =   0.0138889
        k(   24) = (   0.0303562   0.0529661   0.0000000), wk =   0.0138889
        k(   25) = (   0.0303562   0.0695555   0.0000000), wk =   0.0138889
        k(   26) = (   0.0303562  -0.1129277   0.0000000), wk =   0.0138889
        k(   27) = (   0.0303562  -0.0963383   0.0000000), wk =   0.0138889
        k(   28) = (   0.0303562  -0.0797489   0.0000000), wk =   0.0138889
        k(   29) = (   0.0303562  -0.0631596   0.0000000), wk =   0.0138889
        k(   30) = (   0.0303562  -0.0465702   0.0000000), wk =   0.0138889
        k(   31) = (   0.0303562  -0.0299808   0.0000000), wk =   0.0138889
        k(   32) = (   0.0455343  -0.0200871   0.0000000), wk =   0.0138889
        k(   33) = (   0.0455343  -0.0034978   0.0000000), wk =   0.0138889
        k(   34) = (   0.0455343   0.0130916   0.0000000), wk =   0.0138889
        k(   35) = (   0.0455343   0.0296810   0.0000000), wk =   0.0138889
        k(   36) = (   0.0455343   0.0462704   0.0000000), wk =   0.0138889
        k(   37) = (   0.0455343   0.0628598   0.0000000), wk =   0.0138889
        k(   38) = (   0.0455343  -0.1196234   0.0000000), wk =   0.0138889
        k(   39) = (   0.0455343  -0.1030340   0.0000000), wk =   0.0138889
        k(   40) = (   0.0455343  -0.0864447   0.0000000), wk =   0.0138889
        k(   41) = (   0.0455343  -0.0698553   0.0000000), wk =   0.0138889
        k(   42) = (   0.0455343  -0.0532659   0.0000000), wk =   0.0138889
        k(   43) = (   0.0455343  -0.0366765   0.0000000), wk =   0.0138889
        k(   44) = (   0.0607124  -0.0267829   0.0000000), wk =   0.0138889
        k(   45) = (   0.0607124  -0.0101935   0.0000000), wk =   0.0138889
        k(   46) = (   0.0607124   0.0063959   0.0000000), wk =   0.0138889
        k(   47) = (   0.0607124   0.0229853   0.0000000), wk =   0.0138889
        k(   48) = (   0.0607124   0.0395747   0.0000000), wk =   0.0138889
        k(   49) = (   0.0607124   0.0561640   0.0000000), wk =   0.0138889
        k(   50) = (   0.0607124  -0.1263191   0.0000000), wk =   0.0138889
        k(   51) = (   0.0607124  -0.1097298   0.0000000), wk =   0.0138889
        k(   52) = (   0.0607124  -0.0931404   0.0000000), wk =   0.0138889
        k(   53) = (   0.0607124  -0.0765510   0.0000000), wk =   0.0138889
        k(   54) = (   0.0607124  -0.0599616   0.0000000), wk =   0.0138889
        k(   55) = (   0.0607124  -0.0433722   0.0000000), wk =   0.0138889
        k(   56) = (   0.0758905  -0.0334786   0.0000000), wk =   0.0138889
        k(   57) = (   0.0758905  -0.0168892   0.0000000), wk =   0.0138889
        k(   58) = (   0.0758905  -0.0002998   0.0000000), wk =   0.0138889
        k(   59) = (   0.0758905   0.0162896   0.0000000), wk =   0.0138889
        k(   60) = (   0.0758905   0.0328790   0.0000000), wk =   0.0138889
        k(   61) = (   0.0758905   0.0494683   0.0000000), wk =   0.0138889
        k(   62) = (   0.0758905  -0.1330149   0.0000000), wk =   0.0138889
        k(   63) = (   0.0758905  -0.1164255   0.0000000), wk =   0.0138889
        k(   64) = (   0.0758905  -0.0998361   0.0000000), wk =   0.0138889
        k(   65) = (   0.0758905  -0.0832467   0.0000000), wk =   0.0138889
        k(   66) = (   0.0758905  -0.0666573   0.0000000), wk =   0.0138889
        k(   67) = (   0.0758905  -0.0500679   0.0000000), wk =   0.0138889
        k(   68) = (  -0.0910687   0.0401743   0.0000000), wk =   0.0069444
        k(   69) = (  -0.0910687   0.0567637   0.0000000), wk =   0.0138889
        k(   70) = (  -0.0910687   0.0733530   0.0000000), wk =   0.0138889
        k(   71) = (  -0.0910687   0.0899424   0.0000000), wk =   0.0138889
        k(   72) = (  -0.0910687   0.1065318   0.0000000), wk =   0.0138889
        k(   73) = (  -0.0910687   0.1231212   0.0000000), wk =   0.0138889
        k(   74) = (  -0.0910687  -0.0593620   0.0000000), wk =   0.0069444

     Dense  grid:   998653 G-vectors     FFT dimensions: (  80,  80, 360)

     Smooth grid:   252641 G-vectors     FFT dimensions: (  50,  50, 225)

     Estimated max dynamical RAM per process >     273.75 MB

     Estimated total dynamical RAM >       9.89 GB
     Generating pointlists ...
     new r_m :   1.0685 (alat units)  2.0192 (a.u.) for type    1
     new r_m :   1.1059 (alat units)  2.0899 (a.u.) for type    2

     Initial potential from superposition of free atoms

     starting charge  131.96922, renormalised to  132.00000


     %%%%%%%%%%%%%%%%%%%%%%%%%%%%%%%%%%%%%%%%%%%%%%%%%%%%%%%%%%%%%%%%%%%%%%%%
     %                                                                      %
     % You are using vdW-DF, which was implemented by the Thonhauser group. %
     % Please cite the following two papers that made this development      %
     % possible and the two reviews that describe the various versions:     %
     %                                                                      %
     %   T. Thonhauser et al., PRL 115, 136402 (2015).                      %
     %   T. Thonhauser et al., PRB 76, 125112 (2007).                       %
     %   K. Berland et al., Rep. Prog. Phys. 78, 066501 (2015).             %
     %   D.C. Langreth et al., J. Phys.: Condens. Matter 21, 084203 (2009). %
     %                                                                      %
     %                                                                      %
     % If you are calculating the stress with vdW-DF, please also cite:     %
     %                                                                      %
     %   R. Sabatini et al., J. Phys.: Condens. Matter 24, 424209 (2012).   %
     %                                                                      %
     %%%%%%%%%%%%%%%%%%%%%%%%%%%%%%%%%%%%%%%%%%%%%%%%%%%%%%%%%%%%%%%%%%%%%%%%



     Adding external electric field

     Computed dipole along edir(3) : 
        Dipole                0.0034 Ry au,          0.0085 Debye
        Dipole field          0.0000 Ry au, 

        Potential amp.       -0.0008 Ry
        Total length         45.2280 bohr


     Adding external electric field

     Computed dipole along edir(3) : 
        Dipole                0.0034 Ry au,          0.0085 Debye
        Dipole field          0.0000 Ry au, 

        Potential amp.       -0.0008 Ry
        Total length         45.2280 bohr

     Starting wfcs are  108 randomized atomic wfcs

     total cpu time spent up to now is      190.3 secs

     Self-consistent Calculation

     iteration #  1     ecut=    55.12 Ry     beta= 0.10
     Davidson diagonalization with overlap
     ethr =  1.00E-02,  avg # of iterations =  2.4

     Adding external electric field

     Computed dipole along edir(3) : 
        Dipole                0.0953 Ry au,          0.2422 Debye
        Dipole field          0.0003 Ry au, 

        Potential amp.       -0.0237 Ry
        Total length         45.2280 bohr


     Adding external electric field

     Computed dipole along edir(3) : 
        Dipole                0.0953 Ry au,          0.2422 Debye
        Dipole field          0.0003 Ry au, 

        Potential amp.       -0.0237 Ry
        Total length         45.2280 bohr


     total cpu time spent up to now is      487.2 secs

     total energy              =   -1217.14182700 Ry
     estimated scf accuracy    <       8.14674886 Ry

     total magnetization       =     3.73 Bohr mag/cell
     absolute magnetization    =     3.95 Bohr mag/cell

     iteration #  2     ecut=    55.12 Ry     beta= 0.10
     Davidson diagonalization with overlap
     ethr =  6.17E-03,  avg # of iterations =  1.0

     Adding external electric field

     Computed dipole along edir(3) : 
        Dipole                0.0476 Ry au,          0.1209 Debye
        Dipole field          0.0001 Ry au, 

        Potential amp.       -0.0118 Ry
        Total length         45.2280 bohr


     Adding external electric field

     Computed dipole along edir(3) : 
        Dipole                0.0476 Ry au,          0.1209 Debye
        Dipole field          0.0001 Ry au, 

        Potential amp.       -0.0118 Ry
        Total length         45.2280 bohr


     total cpu time spent up to now is      761.7 secs

     total energy              =   -1217.53142934 Ry
     estimated scf accuracy    <       2.38819510 Ry

     total magnetization       =     7.26 Bohr mag/cell
     absolute magnetization    =     7.65 Bohr mag/cell

     iteration #  3     ecut=    55.12 Ry     beta= 0.10
     Davidson diagonalization with overlap
     ethr =  1.81E-03,  avg # of iterations =  1.3

     Adding external electric field

     Computed dipole along edir(3) : 
        Dipole               -0.1180 Ry au,         -0.2999 Debye
        Dipole field         -0.0003 Ry au, 

        Potential amp.        0.0294 Ry
        Total length         45.2280 bohr


     Adding external electric field

     Computed dipole along edir(3) : 
        Dipole               -0.1180 Ry au,         -0.2999 Debye
        Dipole field         -0.0003 Ry au, 

        Potential amp.        0.0294 Ry
        Total length         45.2280 bohr


     total cpu time spent up to now is     1026.3 secs

     total energy              =   -1217.68201901 Ry
     estimated scf accuracy    <       3.92195301 Ry

     total magnetization       =     7.77 Bohr mag/cell
     absolute magnetization    =     8.29 Bohr mag/cell

     iteration #  4     ecut=    55.12 Ry     beta= 0.10
     Davidson diagonalization with overlap
     ethr =  1.81E-03,  avg # of iterations =  1.0

     Adding external electric field

     Computed dipole along edir(3) : 
        Dipole                0.0557 Ry au,          0.1416 Debye
        Dipole field          0.0002 Ry au, 

        Potential amp.       -0.0139 Ry
        Total length         45.2280 bohr


     Adding external electric field

     Computed dipole along edir(3) : 
        Dipole                0.0557 Ry au,          0.1416 Debye
        Dipole field          0.0002 Ry au, 

        Potential amp.       -0.0139 Ry
        Total length         45.2280 bohr


     total cpu time spent up to now is     1278.5 secs

     total energy              =   -1217.85846001 Ry
     estimated scf accuracy    <       4.24931529 Ry

     total magnetization       =     7.03 Bohr mag/cell
     absolute magnetization    =     7.59 Bohr mag/cell

     iteration #  5     ecut=    55.12 Ry     beta= 0.10
     Davidson diagonalization with overlap
     ethr =  1.81E-03,  avg # of iterations =  1.0

     Adding external electric field

     Computed dipole along edir(3) : 
        Dipole                0.0011 Ry au,          0.0029 Debye
        Dipole field          0.0000 Ry au, 

        Potential amp.       -0.0003 Ry
        Total length         45.2280 bohr


     Adding external electric field

     Computed dipole along edir(3) : 
        Dipole                0.0011 Ry au,          0.0029 Debye
        Dipole field          0.0000 Ry au, 

        Potential amp.       -0.0003 Ry
        Total length         45.2280 bohr


     total cpu time spent up to now is     1512.9 secs

     total energy              =   -1218.84487793 Ry
     estimated scf accuracy    <       1.28716204 Ry

     total magnetization       =     6.81 Bohr mag/cell
     absolute magnetization    =     7.40 Bohr mag/cell

     iteration #  6     ecut=    55.12 Ry     beta= 0.10
     Davidson diagonalization with overlap
     ethr =  9.75E-04,  avg # of iterations =  1.9

     Adding external electric field

     Computed dipole along edir(3) : 
        Dipole                0.0188 Ry au,          0.0478 Debye
        Dipole field          0.0001 Ry au, 

        Potential amp.       -0.0047 Ry
        Total length         45.2280 bohr


     Adding external electric field

     Computed dipole along edir(3) : 
        Dipole                0.0188 Ry au,          0.0478 Debye
        Dipole field          0.0001 Ry au, 

        Potential amp.       -0.0047 Ry
        Total length         45.2280 bohr


     total cpu time spent up to now is     1761.4 secs

     total energy              =   -1219.81816847 Ry
     estimated scf accuracy    <       2.42850210 Ry

     total magnetization       =     5.37 Bohr mag/cell
     absolute magnetization    =     6.29 Bohr mag/cell

     iteration #  7     ecut=    55.12 Ry     beta= 0.10
     Davidson diagonalization with overlap
     ethr =  9.75E-04,  avg # of iterations =  1.5

     Adding external electric field

     Computed dipole along edir(3) : 
        Dipole                0.0312 Ry au,          0.0794 Debye
        Dipole field          0.0001 Ry au, 

        Potential amp.       -0.0078 Ry
        Total length         45.2280 bohr


     Adding external electric field

     Computed dipole along edir(3) : 
        Dipole                0.0312 Ry au,          0.0794 Debye
        Dipole field          0.0001 Ry au, 

        Potential amp.       -0.0078 Ry
        Total length         45.2280 bohr


     total cpu time spent up to now is     2018.4 secs

     total energy              =   -1220.31103303 Ry
     estimated scf accuracy    <       1.94744590 Ry

     total magnetization       =     3.42 Bohr mag/cell
     absolute magnetization    =     4.58 Bohr mag/cell

     iteration #  8     ecut=    55.12 Ry     beta= 0.10
     Davidson diagonalization with overlap
     ethr =  9.75E-04,  avg # of iterations =  1.0

     Adding external electric field

     Computed dipole along edir(3) : 
        Dipole                0.0380 Ry au,          0.0966 Debye
        Dipole field          0.0001 Ry au, 

        Potential amp.       -0.0095 Ry
        Total length         45.2280 bohr


     Adding external electric field

     Computed dipole along edir(3) : 
        Dipole                0.0380 Ry au,          0.0966 Debye
        Dipole field          0.0001 Ry au, 

        Potential amp.       -0.0095 Ry
        Total length         45.2280 bohr


     total cpu time spent up to now is     2271.4 secs

     total energy              =   -1220.28745070 Ry
     estimated scf accuracy    <       1.70038198 Ry

     total magnetization       =     3.11 Bohr mag/cell
     absolute magnetization    =     4.31 Bohr mag/cell

     iteration #  9     ecut=    55.12 Ry     beta= 0.10
     Davidson diagonalization with overlap
     ethr =  9.75E-04,  avg # of iterations =  1.0

     Adding external electric field

     Computed dipole along edir(3) : 
        Dipole                0.0521 Ry au,          0.1324 Debye
        Dipole field          0.0001 Ry au, 

        Potential amp.       -0.0130 Ry
        Total length         45.2280 bohr


     Adding external electric field

     Computed dipole along edir(3) : 
        Dipole                0.0521 Ry au,          0.1324 Debye
        Dipole field          0.0001 Ry au, 

        Potential amp.       -0.0130 Ry
        Total length         45.2280 bohr


     total cpu time spent up to now is     2525.2 secs

     total energy              =   -1220.82155078 Ry
     estimated scf accuracy    <       1.08748641 Ry

     total magnetization       =     2.58 Bohr mag/cell
     absolute magnetization    =     3.76 Bohr mag/cell

     iteration # 10     ecut=    55.12 Ry     beta= 0.10
     Davidson diagonalization with overlap
     ethr =  8.24E-04,  avg # of iterations =  1.5

     Adding external electric field

     Computed dipole along edir(3) : 
        Dipole                0.0512 Ry au,          0.1301 Debye
        Dipole field          0.0001 Ry au, 

        Potential amp.       -0.0127 Ry
        Total length         45.2280 bohr


     Adding external electric field

     Computed dipole along edir(3) : 
        Dipole                0.0512 Ry au,          0.1301 Debye
        Dipole field          0.0001 Ry au, 

        Potential amp.       -0.0127 Ry
        Total length         45.2280 bohr


     total cpu time spent up to now is     2808.3 secs

     total energy              =   -1220.83516376 Ry
     estimated scf accuracy    <       0.92082916 Ry

     total magnetization       =     1.25 Bohr mag/cell
     absolute magnetization    =     2.42 Bohr mag/cell

     iteration # 11     ecut=    55.12 Ry     beta= 0.10
     Davidson diagonalization with overlap
     ethr =  6.98E-04,  avg # of iterations =  1.0

     Adding external electric field

     Computed dipole along edir(3) : 
        Dipole                0.0490 Ry au,          0.1245 Debye
        Dipole field          0.0001 Ry au, 

        Potential amp.       -0.0122 Ry
        Total length         45.2280 bohr


     Adding external electric field

     Computed dipole along edir(3) : 
        Dipole                0.0490 Ry au,          0.1245 Debye
        Dipole field          0.0001 Ry au, 

        Potential amp.       -0.0122 Ry
        Total length         45.2280 bohr


     total cpu time spent up to now is     3065.0 secs

     total energy              =   -1220.70787993 Ry
     estimated scf accuracy    <       0.50798078 Ry

     total magnetization       =     0.94 Bohr mag/cell
     absolute magnetization    =     2.09 Bohr mag/cell

     iteration # 12     ecut=    55.12 Ry     beta= 0.10
     Davidson diagonalization with overlap
     ethr =  3.85E-04,  avg # of iterations =  1.1

     Adding external electric field

     Computed dipole along edir(3) : 
        Dipole                0.0386 Ry au,          0.0982 Debye
        Dipole field          0.0001 Ry au, 

        Potential amp.       -0.0096 Ry
        Total length         45.2280 bohr


     Adding external electric field

     Computed dipole along edir(3) : 
        Dipole                0.0386 Ry au,          0.0982 Debye
        Dipole field          0.0001 Ry au, 

        Potential amp.       -0.0096 Ry
        Total length         45.2280 bohr


     total cpu time spent up to now is     3318.8 secs

     total energy              =   -1220.65563787 Ry
     estimated scf accuracy    <       0.37580265 Ry

     total magnetization       =     0.75 Bohr mag/cell
     absolute magnetization    =     1.86 Bohr mag/cell

     iteration # 13     ecut=    55.12 Ry     beta= 0.10
     Davidson diagonalization with overlap
     ethr =  2.85E-04,  avg # of iterations =  1.4

     Adding external electric field

     Computed dipole along edir(3) : 
        Dipole                0.0382 Ry au,          0.0970 Debye
        Dipole field          0.0001 Ry au, 

        Potential amp.       -0.0095 Ry
        Total length         45.2280 bohr


     Adding external electric field

     Computed dipole along edir(3) : 
        Dipole                0.0382 Ry au,          0.0970 Debye
        Dipole field          0.0001 Ry au, 

        Potential amp.       -0.0095 Ry
        Total length         45.2280 bohr


     total cpu time spent up to now is     3579.9 secs

     total energy              =   -1220.53174563 Ry
     estimated scf accuracy    <       0.18512353 Ry

     total magnetization       =     0.09 Bohr mag/cell
     absolute magnetization    =     1.14 Bohr mag/cell

     iteration # 14     ecut=    55.12 Ry     beta= 0.10
     Davidson diagonalization with overlap
     c_bands:  1 eigenvalues not converged
     c_bands:  2 eigenvalues not converged
     c_bands:  2 eigenvalues not converged
     c_bands:  1 eigenvalues not converged
     ethr =  1.40E-04,  avg # of iterations =  2.9

     Adding external electric field

     Computed dipole along edir(3) : 
        Dipole                0.0362 Ry au,          0.0921 Debye
        Dipole field          0.0001 Ry au, 

        Potential amp.       -0.0090 Ry
        Total length         45.2280 bohr


     Adding external electric field

     Computed dipole along edir(3) : 
        Dipole                0.0362 Ry au,          0.0921 Debye
        Dipole field          0.0001 Ry au, 

        Potential amp.       -0.0090 Ry
        Total length         45.2280 bohr


     total cpu time spent up to now is     3776.5 secs

     total energy              =   -1220.15655365 Ry
     estimated scf accuracy    <       0.15724705 Ry

     total magnetization       =    -0.19 Bohr mag/cell
     absolute magnetization    =     0.81 Bohr mag/cell

     iteration # 15     ecut=    55.12 Ry     beta= 0.10
     Davidson diagonalization with overlap
     ethr =  1.19E-04,  avg # of iterations =  1.8

     Adding external electric field

     Computed dipole along edir(3) : 
        Dipole                0.0382 Ry au,          0.0971 Debye
        Dipole field          0.0001 Ry au, 

        Potential amp.       -0.0095 Ry
        Total length         45.2280 bohr


     Adding external electric field

     Computed dipole along edir(3) : 
        Dipole                0.0382 Ry au,          0.0971 Debye
        Dipole field          0.0001 Ry au, 

        Potential amp.       -0.0095 Ry
        Total length         45.2280 bohr


     total cpu time spent up to now is     4242.5 secs

     total energy              =   -1219.87913439 Ry
     estimated scf accuracy    <       0.00484392 Ry

     total magnetization       =     0.08 Bohr mag/cell
     absolute magnetization    =     0.95 Bohr mag/cell

     iteration # 16     ecut=    55.12 Ry     beta= 0.10
     Davidson diagonalization with overlap
     c_bands:  1 eigenvalues not converged
     c_bands:  1 eigenvalues not converged
     c_bands:  2 eigenvalues not converged
     c_bands:  2 eigenvalues not converged
     c_bands:  2 eigenvalues not converged
     c_bands:  1 eigenvalues not converged
     c_bands:  1 eigenvalues not converged
     c_bands:  2 eigenvalues not converged
     c_bands:  1 eigenvalues not converged
     c_bands:  1 eigenvalues not converged
     c_bands:  1 eigenvalues not converged
     c_bands:  1 eigenvalues not converged
     c_bands:  1 eigenvalues not converged
     c_bands:  1 eigenvalues not converged
     c_bands:  1 eigenvalues not converged
     c_bands:  1 eigenvalues not converged
     c_bands:  1 eigenvalues not converged
     c_bands:  2 eigenvalues not converged
     c_bands:  2 eigenvalues not converged
     c_bands:  3 eigenvalues not converged
     c_bands:  2 eigenvalues not converged
     c_bands:  1 eigenvalues not converged
     c_bands:  1 eigenvalues not converged
     c_bands:  1 eigenvalues not converged
     c_bands:  2 eigenvalues not converged
     c_bands:  1 eigenvalues not converged
     c_bands:  1 eigenvalues not converged
     c_bands:  1 eigenvalues not converged
     c_bands:  1 eigenvalues not converged
     c_bands:  1 eigenvalues not converged
     c_bands:  2 eigenvalues not converged
     c_bands:  2 eigenvalues not converged
     c_bands:  2 eigenvalues not converged
     c_bands:  1 eigenvalues not converged
     c_bands:  2 eigenvalues not converged
     c_bands:  1 eigenvalues not converged
     c_bands:  1 eigenvalues not converged
     c_bands:  1 eigenvalues not converged
     c_bands:  1 eigenvalues not converged
     c_bands:  1 eigenvalues not converged
     c_bands:  1 eigenvalues not converged
     c_bands:  1 eigenvalues not converged
     c_bands:  1 eigenvalues not converged
     c_bands:  2 eigenvalues not converged
     c_bands:  2 eigenvalues not converged
     c_bands:  2 eigenvalues not converged
     c_bands:  1 eigenvalues not converged
     c_bands:  3 eigenvalues not converged
     c_bands:  2 eigenvalues not converged
     c_bands:  1 eigenvalues not converged
     c_bands:  2 eigenvalues not converged
     c_bands:  1 eigenvalues not converged
     c_bands:  2 eigenvalues not converged
     c_bands:  2 eigenvalues not converged
     c_bands:  1 eigenvalues not converged
     c_bands:  2 eigenvalues not converged
     c_bands:  2 eigenvalues not converged
     c_bands:  1 eigenvalues not converged
     c_bands:  1 eigenvalues not converged
     c_bands:  1 eigenvalues not converged
     c_bands:  1 eigenvalues not converged
     c_bands:  1 eigenvalues not converged
     c_bands:  1 eigenvalues not converged
     c_bands:  1 eigenvalues not converged
     c_bands:  1 eigenvalues not converged
     c_bands:  1 eigenvalues not converged
     c_bands:  1 eigenvalues not converged
     c_bands:  1 eigenvalues not converged
     c_bands:  1 eigenvalues not converged
     c_bands:  1 eigenvalues not converged
     c_bands:  1 eigenvalues not converged
     c_bands:  1 eigenvalues not converged
     c_bands:  1 eigenvalues not converged
     c_bands:  1 eigenvalues not converged
     c_bands:  1 eigenvalues not converged
     c_bands:  1 eigenvalues not converged
     c_bands:  1 eigenvalues not converged
     c_bands:  2 eigenvalues not converged
     c_bands:  1 eigenvalues not converged
     c_bands:  1 eigenvalues not converged
     c_bands:  1 eigenvalues not converged
     c_bands:  1 eigenvalues not converged
     ethr =  3.67E-06,  avg # of iterations = 18.2

     Adding external electric field

     Computed dipole along edir(3) : 
        Dipole                0.0360 Ry au,          0.0916 Debye
        Dipole field          0.0001 Ry au, 

        Potential amp.       -0.0090 Ry
        Total length         45.2280 bohr


     Adding external electric field

     Computed dipole along edir(3) : 
        Dipole                0.0360 Ry au,          0.0916 Debye
        Dipole field          0.0001 Ry au, 

        Potential amp.       -0.0090 Ry
        Total length         45.2280 bohr


     total cpu time spent up to now is     4723.4 secs

     total energy              =   -1219.70182142 Ry
     estimated scf accuracy    <       0.01205282 Ry

     total magnetization       =     0.17 Bohr mag/cell
     absolute magnetization    =     0.88 Bohr mag/cell

     iteration # 17     ecut=    55.12 Ry     beta= 0.10
     Davidson diagonalization with overlap
     c_bands:  1 eigenvalues not converged
     c_bands:  1 eigenvalues not converged
     c_bands:  1 eigenvalues not converged
     c_bands:  1 eigenvalues not converged
     c_bands:  1 eigenvalues not converged
     c_bands:  1 eigenvalues not converged
     c_bands:  1 eigenvalues not converged
     c_bands:  1 eigenvalues not converged
     c_bands:  1 eigenvalues not converged
     c_bands:  1 eigenvalues not converged
     c_bands:  1 eigenvalues not converged
     c_bands:  1 eigenvalues not converged
     c_bands:  1 eigenvalues not converged
     c_bands:  1 eigenvalues not converged
     c_bands:  1 eigenvalues not converged
     c_bands:  1 eigenvalues not converged
     c_bands:  1 eigenvalues not converged
     c_bands:  1 eigenvalues not converged
     c_bands:  1 eigenvalues not converged
     c_bands:  1 eigenvalues not converged
     c_bands:  1 eigenvalues not converged
     ethr =  3.67E-06,  avg # of iterations =  6.5

     Adding external electric field

     Computed dipole along edir(3) : 
        Dipole                0.0302 Ry au,          0.0766 Debye
        Dipole field          0.0001 Ry au, 

        Potential amp.       -0.0075 Ry
        Total length         45.2280 bohr


     Adding external electric field

     Computed dipole along edir(3) : 
        Dipole                0.0302 Ry au,          0.0766 Debye
        Dipole field          0.0001 Ry au, 

        Potential amp.       -0.0075 Ry
        Total length         45.2280 bohr


     total cpu time spent up to now is     5026.2 secs

     total energy              =   -1219.53490868 Ry
     estimated scf accuracy    <       0.00678838 Ry

     total magnetization       =     0.11 Bohr mag/cell
     absolute magnetization    =     0.74 Bohr mag/cell

     iteration # 18     ecut=    55.12 Ry     beta= 0.10
     Davidson diagonalization with overlap
     c_bands:  1 eigenvalues not converged
     c_bands:  1 eigenvalues not converged
     c_bands:  2 eigenvalues not converged
     ethr =  3.67E-06,  avg # of iterations =  2.6

     Adding external electric field

     Computed dipole along edir(3) : 
        Dipole                0.0358 Ry au,          0.0909 Debye
        Dipole field          0.0001 Ry au, 

        Potential amp.       -0.0089 Ry
        Total length         45.2280 bohr


     Adding external electric field

     Computed dipole along edir(3) : 
        Dipole                0.0358 Ry au,          0.0909 Debye
        Dipole field          0.0001 Ry au, 

        Potential amp.       -0.0089 Ry
        Total length         45.2280 bohr


     total cpu time spent up to now is     5280.3 secs

     total energy              =   -1219.40947838 Ry
     estimated scf accuracy    <       0.00088179 Ry

     total magnetization       =     0.06 Bohr mag/cell
     absolute magnetization    =     0.61 Bohr mag/cell

     iteration # 19     ecut=    55.12 Ry     beta= 0.10
     Davidson diagonalization with overlap
     c_bands:  1 eigenvalues not converged
     c_bands:  1 eigenvalues not converged
     c_bands:  1 eigenvalues not converged
     c_bands:  1 eigenvalues not converged
     c_bands:  1 eigenvalues not converged
     c_bands:  1 eigenvalues not converged
     c_bands:  2 eigenvalues not converged
     ethr =  6.68E-07,  avg # of iterations =  3.2

     Adding external electric field

     Computed dipole along edir(3) : 
        Dipole                0.0326 Ry au,          0.0829 Debye
        Dipole field          0.0001 Ry au, 

        Potential amp.       -0.0081 Ry
        Total length         45.2280 bohr


     Adding external electric field

     Computed dipole along edir(3) : 
        Dipole                0.0326 Ry au,          0.0829 Debye
        Dipole field          0.0001 Ry au, 

        Potential amp.       -0.0081 Ry
        Total length         45.2280 bohr


     total cpu time spent up to now is     5807.3 secs

     total energy              =   -1219.24228099 Ry
     estimated scf accuracy    <       0.00326279 Ry

     total magnetization       =     0.04 Bohr mag/cell
     absolute magnetization    =     0.54 Bohr mag/cell

     iteration # 20     ecut=    55.12 Ry     beta= 0.10
     Davidson diagonalization with overlap
     c_bands:  1 eigenvalues not converged
     ethr =  6.68E-07,  avg # of iterations =  2.2

     Adding external electric field

     Computed dipole along edir(3) : 
        Dipole                0.0340 Ry au,          0.0863 Debye
        Dipole field          0.0001 Ry au, 

        Potential amp.       -0.0084 Ry
        Total length         45.2280 bohr


     Adding external electric field

     Computed dipole along edir(3) : 
        Dipole                0.0340 Ry au,          0.0863 Debye
        Dipole field          0.0001 Ry au, 

        Potential amp.       -0.0084 Ry
        Total length         45.2280 bohr


     total cpu time spent up to now is     6144.8 secs

     total energy              =   -1219.15219006 Ry
     estimated scf accuracy    <       0.00209792 Ry

     total magnetization       =     0.07 Bohr mag/cell
     absolute magnetization    =     0.46 Bohr mag/cell

     iteration # 21     ecut=    55.12 Ry     beta= 0.10
     Davidson diagonalization with overlap
     ethr =  6.68E-07,  avg # of iterations =  2.0

     Adding external electric field

     Computed dipole along edir(3) : 
        Dipole                0.0339 Ry au,          0.0863 Debye
        Dipole field          0.0001 Ry au, 

        Potential amp.       -0.0084 Ry
        Total length         45.2280 bohr


     Adding external electric field

     Computed dipole along edir(3) : 
        Dipole                0.0339 Ry au,          0.0863 Debye
        Dipole field          0.0001 Ry au, 

        Potential amp.       -0.0084 Ry
        Total length         45.2280 bohr


     total cpu time spent up to now is     6798.3 secs

     total energy              =   -1219.04487588 Ry
     estimated scf accuracy    <       0.00034578 Ry

     total magnetization       =     0.02 Bohr mag/cell
     absolute magnetization    =     0.33 Bohr mag/cell

     iteration # 22     ecut=    55.12 Ry     beta= 0.10
     Davidson diagonalization with overlap
     ethr =  2.62E-07,  avg # of iterations =  2.0

     Adding external electric field

     Computed dipole along edir(3) : 
        Dipole                0.0341 Ry au,          0.0868 Debye
        Dipole field          0.0001 Ry au, 

        Potential amp.       -0.0085 Ry
        Total length         45.2280 bohr


     Adding external electric field

     Computed dipole along edir(3) : 
        Dipole                0.0341 Ry au,          0.0868 Debye
        Dipole field          0.0001 Ry au, 

        Potential amp.       -0.0085 Ry
        Total length         45.2280 bohr


     total cpu time spent up to now is     7091.5 secs

     total energy              =   -1218.97211122 Ry
     estimated scf accuracy    <       0.00009906 Ry

     total magnetization       =     0.01 Bohr mag/cell
     absolute magnetization    =     0.31 Bohr mag/cell

     iteration # 23     ecut=    55.12 Ry     beta= 0.10
     Davidson diagonalization with overlap
     c_bands:  1 eigenvalues not converged
     ethr =  7.50E-08,  avg # of iterations =  5.4

     Adding external electric field

     Computed dipole along edir(3) : 
        Dipole                0.0342 Ry au,          0.0868 Debye
        Dipole field          0.0001 Ry au, 

        Potential amp.       -0.0085 Ry
        Total length         45.2280 bohr


     Adding external electric field

     Computed dipole along edir(3) : 
        Dipole                0.0342 Ry au,          0.0868 Debye
        Dipole field          0.0001 Ry au, 

        Potential amp.       -0.0085 Ry
        Total length         45.2280 bohr


     total cpu time spent up to now is     7481.9 secs

     total energy              =   -1218.92271128 Ry
     estimated scf accuracy    <       0.00005903 Ry

     total magnetization       =    -0.01 Bohr mag/cell
     absolute magnetization    =     0.22 Bohr mag/cell

     iteration # 24     ecut=    55.12 Ry     beta= 0.10
     Davidson diagonalization with overlap
     c_bands:  1 eigenvalues not converged
     c_bands:  1 eigenvalues not converged
     ethr =  4.47E-08,  avg # of iterations =  4.5

     Adding external electric field

     Computed dipole along edir(3) : 
        Dipole                0.0342 Ry au,          0.0868 Debye
        Dipole field          0.0001 Ry au, 

        Potential amp.       -0.0085 Ry
        Total length         45.2280 bohr


     Adding external electric field

     Computed dipole along edir(3) : 
        Dipole                0.0342 Ry au,          0.0868 Debye
        Dipole field          0.0001 Ry au, 

        Potential amp.       -0.0085 Ry
        Total length         45.2280 bohr


     total cpu time spent up to now is     7894.4 secs

     total energy              =   -1218.83859011 Ry
     estimated scf accuracy    <       0.00002477 Ry

     total magnetization       =     0.00 Bohr mag/cell
     absolute magnetization    =     0.13 Bohr mag/cell

     iteration # 25     ecut=    55.12 Ry     beta= 0.10
     Davidson diagonalization with overlap
     c_bands:  1 eigenvalues not converged
     c_bands:  1 eigenvalues not converged
     ethr =  1.88E-08,  avg # of iterations =  2.3

     Adding external electric field

     Computed dipole along edir(3) : 
        Dipole                0.0337 Ry au,          0.0856 Debye
        Dipole field          0.0001 Ry au, 

        Potential amp.       -0.0084 Ry
        Total length         45.2280 bohr


     Adding external electric field

     Computed dipole along edir(3) : 
        Dipole                0.0337 Ry au,          0.0856 Debye
        Dipole field          0.0001 Ry au, 

        Potential amp.       -0.0084 Ry
        Total length         45.2280 bohr


     total cpu time spent up to now is     8171.6 secs

     total energy              =   -1218.76733244 Ry
     estimated scf accuracy    <       0.00001584 Ry

     total magnetization       =     0.02 Bohr mag/cell
     absolute magnetization    =     0.13 Bohr mag/cell

     iteration # 26     ecut=    55.12 Ry     beta= 0.10
     Davidson diagonalization with overlap
     ethr =  1.20E-08,  avg # of iterations =  3.1

     Adding external electric field

     Computed dipole along edir(3) : 
        Dipole                0.0336 Ry au,          0.0854 Debye
        Dipole field          0.0001 Ry au, 

        Potential amp.       -0.0084 Ry
        Total length         45.2280 bohr


     Adding external electric field

     Computed dipole along edir(3) : 
        Dipole                0.0336 Ry au,          0.0854 Debye
        Dipole field          0.0001 Ry au, 

        Potential amp.       -0.0084 Ry
        Total length         45.2280 bohr


     total cpu time spent up to now is     8496.6 secs

     total energy              =   -1218.69812548 Ry
     estimated scf accuracy    <       0.00001200 Ry

     total magnetization       =     0.03 Bohr mag/cell
     absolute magnetization    =     0.12 Bohr mag/cell

     iteration # 27     ecut=    55.12 Ry     beta= 0.10
     Davidson diagonalization with overlap
     ethr =  9.09E-09,  avg # of iterations =  2.2

     Adding external electric field

     Computed dipole along edir(3) : 
        Dipole                0.0407 Ry au,          0.1035 Debye
        Dipole field          0.0001 Ry au, 

        Potential amp.       -0.0101 Ry
        Total length         45.2280 bohr


     Adding external electric field

     Computed dipole along edir(3) : 
        Dipole                0.0407 Ry au,          0.1035 Debye
        Dipole field          0.0001 Ry au, 

        Potential amp.       -0.0101 Ry
        Total length         45.2280 bohr


     Magnetic moment per site:
     atom:    1    charge:    8.7657    magn:    0.0173    constr:    0.0000
     atom:    2    charge:    8.7660    magn:    0.0148    constr:    0.0000
     atom:    3    charge:   10.0366    magn:   -0.0005    constr:    0.0000
     atom:    4    charge:   10.0366    magn:   -0.0005    constr:    0.0000
     atom:    5    charge:    8.8067    magn:   -0.0013    constr:    0.0000
     atom:    6    charge:    8.8072    magn:    0.0023    constr:    0.0000
     atom:    7    charge:   10.0752    magn:   -0.0003    constr:    0.0000
     atom:    8    charge:   10.0753    magn:   -0.0003    constr:    0.0000
     atom:    9    charge:    8.7849    magn:    0.0158    constr:    0.0000
     atom:   10    charge:    8.7852    magn:    0.0138    constr:    0.0000
     atom:   11    charge:   10.0107    magn:   -0.0004    constr:    0.0000
     atom:   12    charge:   10.0107    magn:   -0.0004    constr:    0.0000

     total cpu time spent up to now is     8798.6 secs

     End of self-consistent calculation

     Number of k-points >= 100: set verbosity='high' to print the bands.

     the Fermi energy is     0.0739 ev

!    total energy              =   -1218.08029761 Ry
     estimated scf accuracy    <       0.00000899 Ry
     smearing contrib. (-TS)   =      -0.04374156 Ry
     internal energy E=F+TS    =   -1218.03655605 Ry

     The total energy is F=E-TS. E is the sum of the following terms:
     one-electron contribution =   -9344.68082159 Ry
     hartree contribution      =    4777.73941694 Ry
     xc contribution           =    -401.26450705 Ry
     ewald contribution        =    3750.16935108 Ry
     electric field correction =       0.00000456 Ry

     total magnetization       =     0.03 Bohr mag/cell
     absolute magnetization    =     0.11 Bohr mag/cell

     convergence has been achieved in  27 iterations

     Forces acting on atoms (cartesian axes, Ry/au):

     atom    1 type  1   force =     0.00493870    0.00321741    0.01772490
     atom    2 type  1   force =     0.00499897    0.00326064    0.01773790
     atom    3 type  2   force =    -0.00533490   -0.00353705   -0.01870855
     atom    4 type  2   force =    -0.00537971   -0.00345113   -0.01870631
     atom    5 type  1   force =    -0.00344103   -0.00225089    0.01309776
     atom    6 type  1   force =    -0.00342752   -0.00222884    0.01311797
     atom    7 type  2   force =     0.00300776    0.00190772   -0.01078056
     atom    8 type  2   force =     0.00295768    0.00198100   -0.01078353
     atom    9 type  1   force =     0.00066479    0.00042898   -0.00137585
     atom   10 type  1   force =     0.00044496    0.00029342   -0.00130944
     atom   11 type  2   force =     0.00019646    0.00033001   -0.00000592
     atom   12 type  2   force =     0.00037385    0.00004874   -0.00000838

     Total force =     0.046053     Total SCF correction =     0.007526
     SCF correction compared to forces is large: reduce conv_thr to get better values

     Writing output data file ./Ni2Cd2/Ni2Cd2_beef.save/

     init_run     :    175.16s CPU    176.15s WALL (       1 calls)
     electrons    :   8515.77s CPU   8608.51s WALL (       1 calls)
     forces       :     91.45s CPU     91.93s WALL (       1 calls)

     Called by init_run:
     wfcinit      :    136.05s CPU    136.81s WALL (       1 calls)
     potinit      :     31.49s CPU     31.59s WALL (       1 calls)
     hinit0       :      4.31s CPU      4.32s WALL (       1 calls)

     Called by electrons:
     c_bands      :   7463.10s CPU   7540.57s WALL (      27 calls)
     sum_band     :    959.28s CPU    968.69s WALL (      27 calls)
     v_of_rho     :     77.80s CPU     80.54s WALL (      28 calls)
     newd         :     43.03s CPU     46.04s WALL (      28 calls)
     mix_rho      :      2.07s CPU      2.15s WALL (      27 calls)
     vdW_kernel   :     13.28s CPU     13.29s WALL (       1 calls)

     Called by c_bands:
     init_us_2    :     30.89s CPU     31.18s WALL (    8288 calls)
     cegterg      :   7336.94s CPU   7408.23s WALL (    3996 calls)

     Called by *egterg:
     cdiaghg      :    262.58s CPU    263.43s WALL (   15259 calls)
     h_psi        :   4453.32s CPU   4514.28s WALL (   15407 calls)
     s_psi        :   1062.79s CPU   1063.81s WALL (   15407 calls)
     g_psi        :      3.57s CPU      3.61s WALL (   11263 calls)

     Called by h_psi:
     h_psi:calbec :   1294.71s CPU   1300.16s WALL (   15407 calls)
     vloc_psi     :   2076.97s CPU   2131.11s WALL (   15407 calls)
     add_vuspsi   :   1070.94s CPU   1072.16s WALL (   15407 calls)

     General routines
     calbec       :   1937.37s CPU   1944.81s WALL (   19995 calls)
     fft          :     52.30s CPU     53.87s WALL (    2569 calls)
     ffts         :      0.56s CPU      0.58s WALL (     110 calls)
     fftw         :   2268.09s CPU   2324.94s WALL ( 1725648 calls)
     interpolate  :      1.47s CPU      1.52s WALL (      56 calls)

     Parallel routines
     fft_scatt_xy :    122.06s CPU    123.60s WALL ( 1728327 calls)
     fft_scatt_yz :   1211.49s CPU   1255.32s WALL ( 1728327 calls)

     PWSCF        :      2h39m CPU      2h41m WALL


   This run was terminated on:   1:32:38  27Jun2022            

=------------------------------------------------------------------------------=
   JOB DONE.
=------------------------------------------------------------------------------=
