
     Program PWSCF v.6.6 starts on 27Jun2022 at  8:33:54 

     This program is part of the open-source Quantum ESPRESSO suite
     for quantum simulation of materials; please cite
         "P. Giannozzi et al., J. Phys.:Condens. Matter 21 395502 (2009);
         "P. Giannozzi et al., J. Phys.:Condens. Matter 29 465901 (2017);
          URL http://www.quantum-espresso.org", 
     in publications or presentations arising from this work. More details at
     http://www.quantum-espresso.org/quote

     Parallel version (MPI), running on    37 processors

     MPI processes distributed on     1 nodes
     R & G space division:  proc/nbgrp/npool/nimage =      37
     Fft bands division:     nmany     =       1
     Reading input from Ni2Ir2.in
Warning: card &CELL ignored
Warning: card / ignored

     Current dimensions of program PWSCF are:
     Max number of different atomic species (ntypx) = 10
     Max number of k-points (npk) =  40000
     Max angular momentum in pseudopotentials (lmaxx) =  3
     Presently stress not available with electric field and gates

     Message from routine cell_base_init:
     DEPRECATED: use true lattice parameter, not A to a.u. conversion factor
     file Ni.pbe-n-rrkjus_psl.1.0.0.UPF: wavefunction(s)  3D renormalized
     file Ir.pbe-n-rrkjus_psl.0.2.3.UPF: wavefunction(s)  5D renormalized

     **************************************************************************
     Initializing libbeef V0.1.2 with the BEEF-vdW functional.
     Citation: Wellendorff et al., PRB 85, 235149 (2012).
     **************************************************************************


     IMPORTANT: XC functional enforced from input :
     Exchange-correlation= BEEF-VDW
                           (   1   4  43  14   2   0   0)
     Any further DFT definition will be discarded
     Please, verify this is what you really want


     Subspace diagonalization in iterative solution of the eigenvalue problem:
     a serial algorithm will be used


     Parallelization info
     --------------------
     sticks:   dense  smooth     PW     G-vecs:    dense   smooth      PW
     Min         101      40     11                23225     5864     903
     Max         102      41     12                23234     5887     930
     Sum        3743    1503    433               859445   217371   33993



     bravais-lattice index     =            0
     lattice parameter (alat)  =       1.8897  a.u.
     unit-cell volume          =    3932.9702 (a.u.)^3
     number of atoms/cell      =           12
     number of atomic types    =            2
     number of electrons       =       114.00
     number of Kohn-Sham states=           68
     kinetic-energy cutoff     =      55.1240  Ry
     charge density cutoff     =     551.2396  Ry
     convergence threshold     =      1.0E-05
     mixing beta               =       0.1000
     number of iterations used =           10  plain     mixing
     Exchange-correlation= BEEF-VDW
                           (   1   4  43  14   2   0   0)

     celldm(1)=   1.889726  celldm(2)=   0.000000  celldm(3)=   0.000000
     celldm(4)=   0.000000  celldm(5)=   0.000000  celldm(6)=   0.000000

     crystal axes: (cart. coord. in units of alat)
               a(1) = (   5.220414   0.000000   0.000000 )  
               a(2) = (   2.476821   4.595441   0.000000 )  
               a(3) = (   0.000000   0.000000  24.293607 )  

     reciprocal axes: (cart. coord. in units 2 pi/alat)
               b(1) = (  0.191556 -0.103243  0.000000 )  
               b(2) = (  0.000000  0.217607  0.000000 )  
               b(3) = (  0.000000  0.000000  0.041163 )  


     PseudoPot. # 1 for Ni read from file:
     ../pseudo/Ni.pbe-n-rrkjus_psl.1.0.0.UPF
     MD5 check sum: 9f76af1bddcd5839b31985483df98d0a
     Pseudo is Ultrasoft + core correction, Zval = 10.0
     Generated using "atomic" code by A. Dal Corso v.6.5
     Using radial grid of 1195 points,  6 beta functions with: 
                l(1) =   0
                l(2) =   0
                l(3) =   1
                l(4) =   1
                l(5) =   2
                l(6) =   2
     Q(r) pseudized with 0 coefficients 


     PseudoPot. # 2 for Ir read from file:
     ../pseudo/Ir.pbe-n-rrkjus_psl.0.2.3.UPF
     MD5 check sum: a93e608e8ddc29ee62145620b5f41564
     Pseudo is Ultrasoft + core correction, Zval =  9.0
     Generated using "atomic" code by A. Dal Corso v.5.0.2 svn rev. 9415
     Using radial grid of 1277 points,  6 beta functions with: 
                l(1) =   0
                l(2) =   0
                l(3) =   1
                l(4) =   1
                l(5) =   2
                l(6) =   2
     Q(r) pseudized with 0 coefficients 


     atomic species   valence    mass     pseudopotential
        Ni            10.00    58.69340     Ni( 1.00)
        Ir             9.00   192.21700     Ir( 1.00)

     Starting magnetic structure 
     atomic species   magnetization
        Ni           0.500
        Ir           0.000

     No symmetry found



   Cartesian axes

     site n.     atom                  positions (alat units)
         1           Ni  tau(   1) = (   0.0000000   0.0000000  10.0000000  )
         2           Ni  tau(   2) = (   3.8486176   2.2977206  10.0000000  )
         3           Ir  tau(   3) = (   2.6102070   0.0000000  10.0000000  )
         4           Ir  tau(   4) = (   1.2384106   2.2977206  10.0000000  )
         5           Ni  tau(   5) = (   5.2204140   3.1167172  12.1468033  )
         6           Ni  tau(   6) = (   1.3717964   0.8189966  12.1468033  )
         7           Ir  tau(   7) = (   2.6102070   3.1167172  12.1468033  )
         8           Ir  tau(   8) = (   3.9820034   0.8189966  12.1468033  )
         9           Ni  tau(   9) = (   2.6499037   1.5820596  14.2533437  )
        10           Ni  tau(  10) = (   6.4986699   3.8798672  14.2534270  )
        11           Ir  tau(  11) = (   5.2775344   1.5924016  14.2595159  )
        12           Ir  tau(  12) = (   3.9056860   3.8902100  14.2595158  )

     number of k points=    74  Fermi-Dirac smearing, width (Ry)=  0.0100
                       cart. coord. in units 2pi/alat
        k(    1) = (   0.0000000   0.0000000   0.0000000), wk =   0.0069444
        k(    2) = (   0.0000000   0.0181339   0.0000000), wk =   0.0138889
        k(    3) = (   0.0000000   0.0362678   0.0000000), wk =   0.0138889
        k(    4) = (   0.0000000   0.0544017   0.0000000), wk =   0.0138889
        k(    5) = (   0.0000000   0.0725357   0.0000000), wk =   0.0138889
        k(    6) = (   0.0000000   0.0906696   0.0000000), wk =   0.0138889
        k(    7) = (   0.0000000  -0.1088035   0.0000000), wk =   0.0069444
        k(    8) = (   0.0159630  -0.0086036   0.0000000), wk =   0.0138889
        k(    9) = (   0.0159630   0.0095303   0.0000000), wk =   0.0138889
        k(   10) = (   0.0159630   0.0276642   0.0000000), wk =   0.0138889
        k(   11) = (   0.0159630   0.0457981   0.0000000), wk =   0.0138889
        k(   12) = (   0.0159630   0.0639320   0.0000000), wk =   0.0138889
        k(   13) = (   0.0159630   0.0820660   0.0000000), wk =   0.0138889
        k(   14) = (   0.0159630  -0.1174071   0.0000000), wk =   0.0138889
        k(   15) = (   0.0159630  -0.0992732   0.0000000), wk =   0.0138889
        k(   16) = (   0.0159630  -0.0811393   0.0000000), wk =   0.0138889
        k(   17) = (   0.0159630  -0.0630054   0.0000000), wk =   0.0138889
        k(   18) = (   0.0159630  -0.0448714   0.0000000), wk =   0.0138889
        k(   19) = (   0.0159630  -0.0267375   0.0000000), wk =   0.0138889
        k(   20) = (   0.0319259  -0.0172072   0.0000000), wk =   0.0138889
        k(   21) = (   0.0319259   0.0009267   0.0000000), wk =   0.0138889
        k(   22) = (   0.0319259   0.0190606   0.0000000), wk =   0.0138889
        k(   23) = (   0.0319259   0.0371945   0.0000000), wk =   0.0138889
        k(   24) = (   0.0319259   0.0553284   0.0000000), wk =   0.0138889
        k(   25) = (   0.0319259   0.0734623   0.0000000), wk =   0.0138889
        k(   26) = (   0.0319259  -0.1260107   0.0000000), wk =   0.0138889
        k(   27) = (   0.0319259  -0.1078768   0.0000000), wk =   0.0138889
        k(   28) = (   0.0319259  -0.0897429   0.0000000), wk =   0.0138889
        k(   29) = (   0.0319259  -0.0716090   0.0000000), wk =   0.0138889
        k(   30) = (   0.0319259  -0.0534751   0.0000000), wk =   0.0138889
        k(   31) = (   0.0319259  -0.0353412   0.0000000), wk =   0.0138889
        k(   32) = (   0.0478889  -0.0258109   0.0000000), wk =   0.0138889
        k(   33) = (   0.0478889  -0.0076769   0.0000000), wk =   0.0138889
        k(   34) = (   0.0478889   0.0104570   0.0000000), wk =   0.0138889
        k(   35) = (   0.0478889   0.0285909   0.0000000), wk =   0.0138889
        k(   36) = (   0.0478889   0.0467248   0.0000000), wk =   0.0138889
        k(   37) = (   0.0478889   0.0648587   0.0000000), wk =   0.0138889
        k(   38) = (   0.0478889  -0.1346143   0.0000000), wk =   0.0138889
        k(   39) = (   0.0478889  -0.1164804   0.0000000), wk =   0.0138889
        k(   40) = (   0.0478889  -0.0983465   0.0000000), wk =   0.0138889
        k(   41) = (   0.0478889  -0.0802126   0.0000000), wk =   0.0138889
        k(   42) = (   0.0478889  -0.0620787   0.0000000), wk =   0.0138889
        k(   43) = (   0.0478889  -0.0439448   0.0000000), wk =   0.0138889
        k(   44) = (   0.0638519  -0.0344145   0.0000000), wk =   0.0138889
        k(   45) = (   0.0638519  -0.0162806   0.0000000), wk =   0.0138889
        k(   46) = (   0.0638519   0.0018533   0.0000000), wk =   0.0138889
        k(   47) = (   0.0638519   0.0199873   0.0000000), wk =   0.0138889
        k(   48) = (   0.0638519   0.0381212   0.0000000), wk =   0.0138889
        k(   49) = (   0.0638519   0.0562551   0.0000000), wk =   0.0138889
        k(   50) = (   0.0638519  -0.1432180   0.0000000), wk =   0.0138889
        k(   51) = (   0.0638519  -0.1250841   0.0000000), wk =   0.0138889
        k(   52) = (   0.0638519  -0.1069501   0.0000000), wk =   0.0138889
        k(   53) = (   0.0638519  -0.0888162   0.0000000), wk =   0.0138889
        k(   54) = (   0.0638519  -0.0706823   0.0000000), wk =   0.0138889
        k(   55) = (   0.0638519  -0.0525484   0.0000000), wk =   0.0138889
        k(   56) = (   0.0798149  -0.0430181   0.0000000), wk =   0.0138889
        k(   57) = (   0.0798149  -0.0248842   0.0000000), wk =   0.0138889
        k(   58) = (   0.0798149  -0.0067503   0.0000000), wk =   0.0138889
        k(   59) = (   0.0798149   0.0113836   0.0000000), wk =   0.0138889
        k(   60) = (   0.0798149   0.0295176   0.0000000), wk =   0.0138889
        k(   61) = (   0.0798149   0.0476515   0.0000000), wk =   0.0138889
        k(   62) = (   0.0798149  -0.1518216   0.0000000), wk =   0.0138889
        k(   63) = (   0.0798149  -0.1336877   0.0000000), wk =   0.0138889
        k(   64) = (   0.0798149  -0.1155538   0.0000000), wk =   0.0138889
        k(   65) = (   0.0798149  -0.0974198   0.0000000), wk =   0.0138889
        k(   66) = (   0.0798149  -0.0792859   0.0000000), wk =   0.0138889
        k(   67) = (   0.0798149  -0.0611520   0.0000000), wk =   0.0138889
        k(   68) = (  -0.0957778   0.0516217   0.0000000), wk =   0.0069444
        k(   69) = (  -0.0957778   0.0697556   0.0000000), wk =   0.0138889
        k(   70) = (  -0.0957778   0.0878896   0.0000000), wk =   0.0138889
        k(   71) = (  -0.0957778   0.1060235   0.0000000), wk =   0.0138889
        k(   72) = (  -0.0957778   0.1241574   0.0000000), wk =   0.0138889
        k(   73) = (  -0.0957778   0.1422913   0.0000000), wk =   0.0138889
        k(   74) = (  -0.0957778  -0.0571818   0.0000000), wk =   0.0069444

     Dense  grid:   859445 G-vectors     FFT dimensions: (  75,  75, 360)

     Smooth grid:   217371 G-vectors     FFT dimensions: (  48,  48, 225)

     Estimated max dynamical RAM per process >     217.82 MB

     Estimated total dynamical RAM >       7.87 GB
     Generating pointlists ...
     new r_m :   1.0640 (alat units)  2.0107 (a.u.) for type    1
     new r_m :   1.0695 (alat units)  2.0211 (a.u.) for type    2

     Initial potential from superposition of free atoms

     starting charge  113.99763, renormalised to  114.00000


     %%%%%%%%%%%%%%%%%%%%%%%%%%%%%%%%%%%%%%%%%%%%%%%%%%%%%%%%%%%%%%%%%%%%%%%%
     %                                                                      %
     % You are using vdW-DF, which was implemented by the Thonhauser group. %
     % Please cite the following two papers that made this development      %
     % possible and the two reviews that describe the various versions:     %
     %                                                                      %
     %   T. Thonhauser et al., PRL 115, 136402 (2015).                      %
     %   T. Thonhauser et al., PRB 76, 125112 (2007).                       %
     %   K. Berland et al., Rep. Prog. Phys. 78, 066501 (2015).             %
     %   D.C. Langreth et al., J. Phys.: Condens. Matter 21, 084203 (2009). %
     %                                                                      %
     %                                                                      %
     % If you are calculating the stress with vdW-DF, please also cite:     %
     %                                                                      %
     %   R. Sabatini et al., J. Phys.: Condens. Matter 24, 424209 (2012).   %
     %                                                                      %
     %%%%%%%%%%%%%%%%%%%%%%%%%%%%%%%%%%%%%%%%%%%%%%%%%%%%%%%%%%%%%%%%%%%%%%%%



     Adding external electric field

     Computed dipole along edir(3) : 
        Dipole               -0.0000 Ry au,         -0.0000 Debye
        Dipole field         -0.0000 Ry au, 

        Potential amp.        0.0000 Ry
        Total length         44.7606 bohr


     Adding external electric field

     Computed dipole along edir(3) : 
        Dipole               -0.0000 Ry au,         -0.0000 Debye
        Dipole field         -0.0000 Ry au, 

        Potential amp.        0.0000 Ry
        Total length         44.7606 bohr

     Starting wfcs are  108 randomized atomic wfcs

     total cpu time spent up to now is      365.8 secs

     Self-consistent Calculation

     iteration #  1     ecut=    55.12 Ry     beta= 0.10
     Davidson diagonalization with overlap
     ethr =  1.00E-02,  avg # of iterations =  2.0

     Adding external electric field

     Computed dipole along edir(3) : 
        Dipole                0.0009 Ry au,          0.0023 Debye
        Dipole field          0.0000 Ry au, 

        Potential amp.       -0.0003 Ry
        Total length         44.7606 bohr


     Adding external electric field

     Computed dipole along edir(3) : 
        Dipole                0.0009 Ry au,          0.0023 Debye
        Dipole field          0.0000 Ry au, 

        Potential amp.       -0.0003 Ry
        Total length         44.7606 bohr


     total cpu time spent up to now is      641.0 secs

     total energy              =    -988.64332737 Ry
     estimated scf accuracy    <       3.08224013 Ry

     total magnetization       =    10.39 Bohr mag/cell
     absolute magnetization    =    10.39 Bohr mag/cell

     iteration #  2     ecut=    55.12 Ry     beta= 0.10
     Davidson diagonalization with overlap
     ethr =  2.70E-03,  avg # of iterations =  1.6

     Adding external electric field

     Computed dipole along edir(3) : 
        Dipole                0.0626 Ry au,          0.1591 Debye
        Dipole field          0.0002 Ry au, 

        Potential amp.       -0.0179 Ry
        Total length         44.7606 bohr


     Adding external electric field

     Computed dipole along edir(3) : 
        Dipole                0.0626 Ry au,          0.1591 Debye
        Dipole field          0.0002 Ry au, 

        Potential amp.       -0.0179 Ry
        Total length         44.7606 bohr


     total cpu time spent up to now is      821.1 secs

     total energy              =    -988.96305297 Ry
     estimated scf accuracy    <       2.42206986 Ry

     total magnetization       =    12.22 Bohr mag/cell
     absolute magnetization    =    12.22 Bohr mag/cell

     iteration #  3     ecut=    55.12 Ry     beta= 0.10
     Davidson diagonalization with overlap
     ethr =  2.12E-03,  avg # of iterations =  1.0

     Adding external electric field

     Computed dipole along edir(3) : 
        Dipole               -0.2568 Ry au,         -0.6526 Debye
        Dipole field         -0.0008 Ry au, 

        Potential amp.        0.0734 Ry
        Total length         44.7606 bohr


     Adding external electric field

     Computed dipole along edir(3) : 
        Dipole               -0.2568 Ry au,         -0.6526 Debye
        Dipole field         -0.0008 Ry au, 

        Potential amp.        0.0734 Ry
        Total length         44.7606 bohr


     total cpu time spent up to now is     1048.9 secs

     total energy              =    -989.07203974 Ry
     estimated scf accuracy    <       2.62912562 Ry

     total magnetization       =    11.27 Bohr mag/cell
     absolute magnetization    =    11.28 Bohr mag/cell

     iteration #  4     ecut=    55.12 Ry     beta= 0.10
     Davidson diagonalization with overlap
     ethr =  2.12E-03,  avg # of iterations =  1.0

     Adding external electric field

     Computed dipole along edir(3) : 
        Dipole                0.0479 Ry au,          0.1217 Debye
        Dipole field          0.0002 Ry au, 

        Potential amp.       -0.0137 Ry
        Total length         44.7606 bohr


     Adding external electric field

     Computed dipole along edir(3) : 
        Dipole                0.0479 Ry au,          0.1217 Debye
        Dipole field          0.0002 Ry au, 

        Potential amp.       -0.0137 Ry
        Total length         44.7606 bohr


     total cpu time spent up to now is     1223.8 secs

     total energy              =    -989.26541598 Ry
     estimated scf accuracy    <      12.80731513 Ry

     total magnetization       =    10.39 Bohr mag/cell
     absolute magnetization    =    10.40 Bohr mag/cell

     iteration #  5     ecut=    55.12 Ry     beta= 0.10
     Davidson diagonalization with overlap
     ethr =  2.12E-03,  avg # of iterations =  1.0

     Adding external electric field

     Computed dipole along edir(3) : 
        Dipole                0.0128 Ry au,          0.0324 Debye
        Dipole field          0.0000 Ry au, 

        Potential amp.       -0.0036 Ry
        Total length         44.7606 bohr


     Adding external electric field

     Computed dipole along edir(3) : 
        Dipole                0.0128 Ry au,          0.0324 Debye
        Dipole field          0.0000 Ry au, 

        Potential amp.       -0.0036 Ry
        Total length         44.7606 bohr


     total cpu time spent up to now is     1390.6 secs

     total energy              =    -989.45161352 Ry
     estimated scf accuracy    <       1.34882359 Ry

     total magnetization       =     9.89 Bohr mag/cell
     absolute magnetization    =     9.90 Bohr mag/cell

     iteration #  6     ecut=    55.12 Ry     beta= 0.10
     Davidson diagonalization with overlap
     ethr =  1.18E-03,  avg # of iterations =  1.0

     Adding external electric field

     Computed dipole along edir(3) : 
        Dipole                0.0314 Ry au,          0.0799 Debye
        Dipole field          0.0001 Ry au, 

        Potential amp.       -0.0090 Ry
        Total length         44.7606 bohr


     Adding external electric field

     Computed dipole along edir(3) : 
        Dipole                0.0314 Ry au,          0.0799 Debye
        Dipole field          0.0001 Ry au, 

        Potential amp.       -0.0090 Ry
        Total length         44.7606 bohr


     total cpu time spent up to now is     1540.3 secs

     total energy              =    -990.50093875 Ry
     estimated scf accuracy    <       0.68465385 Ry

     total magnetization       =     9.96 Bohr mag/cell
     absolute magnetization    =    10.00 Bohr mag/cell

     iteration #  7     ecut=    55.12 Ry     beta= 0.10
     Davidson diagonalization with overlap
     ethr =  6.01E-04,  avg # of iterations =  1.0

     Adding external electric field

     Computed dipole along edir(3) : 
        Dipole               -0.0237 Ry au,         -0.0602 Debye
        Dipole field         -0.0001 Ry au, 

        Potential amp.        0.0068 Ry
        Total length         44.7606 bohr


     Adding external electric field

     Computed dipole along edir(3) : 
        Dipole               -0.0237 Ry au,         -0.0602 Debye
        Dipole field         -0.0001 Ry au, 

        Potential amp.        0.0068 Ry
        Total length         44.7606 bohr


     total cpu time spent up to now is     1881.7 secs

     total energy              =    -993.58541514 Ry
     estimated scf accuracy    <       0.44656666 Ry

     total magnetization       =     9.58 Bohr mag/cell
     absolute magnetization    =     9.65 Bohr mag/cell

     iteration #  8     ecut=    55.12 Ry     beta= 0.10
     Davidson diagonalization with overlap
     ethr =  3.92E-04,  avg # of iterations =  1.5

     Adding external electric field

     Computed dipole along edir(3) : 
        Dipole                0.0046 Ry au,          0.0118 Debye
        Dipole field          0.0000 Ry au, 

        Potential amp.       -0.0013 Ry
        Total length         44.7606 bohr


     Adding external electric field

     Computed dipole along edir(3) : 
        Dipole                0.0046 Ry au,          0.0118 Debye
        Dipole field          0.0000 Ry au, 

        Potential amp.       -0.0013 Ry
        Total length         44.7606 bohr


     total cpu time spent up to now is     2063.6 secs

     total energy              =    -995.71288478 Ry
     estimated scf accuracy    <       0.15701882 Ry

     total magnetization       =     8.35 Bohr mag/cell
     absolute magnetization    =     8.61 Bohr mag/cell

     iteration #  9     ecut=    55.12 Ry     beta= 0.10
     Davidson diagonalization with overlap
     ethr =  1.38E-04,  avg # of iterations =  3.0

     Adding external electric field

     Computed dipole along edir(3) : 
        Dipole                0.0052 Ry au,          0.0133 Debye
        Dipole field          0.0000 Ry au, 

        Potential amp.       -0.0015 Ry
        Total length         44.7606 bohr


     Adding external electric field

     Computed dipole along edir(3) : 
        Dipole                0.0052 Ry au,          0.0133 Debye
        Dipole field          0.0000 Ry au, 

        Potential amp.       -0.0015 Ry
        Total length         44.7606 bohr


     total cpu time spent up to now is     2277.9 secs

     total energy              =    -995.89384167 Ry
     estimated scf accuracy    <       0.03882980 Ry

     total magnetization       =     6.61 Bohr mag/cell
     absolute magnetization    =     7.14 Bohr mag/cell

     iteration # 10     ecut=    55.12 Ry     beta= 0.10
     Davidson diagonalization with overlap
     ethr =  3.41E-05,  avg # of iterations =  4.1

     Adding external electric field

     Computed dipole along edir(3) : 
        Dipole                0.0050 Ry au,          0.0127 Debye
        Dipole field          0.0000 Ry au, 

        Potential amp.       -0.0014 Ry
        Total length         44.7606 bohr


     Adding external electric field

     Computed dipole along edir(3) : 
        Dipole                0.0050 Ry au,          0.0127 Debye
        Dipole field          0.0000 Ry au, 

        Potential amp.       -0.0014 Ry
        Total length         44.7606 bohr


     total cpu time spent up to now is     2491.4 secs

     total energy              =    -995.80409711 Ry
     estimated scf accuracy    <       0.02333855 Ry

     total magnetization       =     5.72 Bohr mag/cell
     absolute magnetization    =     6.39 Bohr mag/cell

     iteration # 11     ecut=    55.12 Ry     beta= 0.10
     Davidson diagonalization with overlap
     ethr =  2.05E-05,  avg # of iterations =  2.4

     Adding external electric field

     Computed dipole along edir(3) : 
        Dipole                0.0051 Ry au,          0.0130 Debye
        Dipole field          0.0000 Ry au, 

        Potential amp.       -0.0015 Ry
        Total length         44.7606 bohr


     Adding external electric field

     Computed dipole along edir(3) : 
        Dipole                0.0051 Ry au,          0.0130 Debye
        Dipole field          0.0000 Ry au, 

        Potential amp.       -0.0015 Ry
        Total length         44.7606 bohr


     total cpu time spent up to now is     2666.6 secs

     total energy              =    -995.40026624 Ry
     estimated scf accuracy    <       0.01283385 Ry

     total magnetization       =     5.09 Bohr mag/cell
     absolute magnetization    =     5.83 Bohr mag/cell

     iteration # 12     ecut=    55.12 Ry     beta= 0.10
     Davidson diagonalization with overlap
     ethr =  1.13E-05,  avg # of iterations =  2.3

     Adding external electric field

     Computed dipole along edir(3) : 
        Dipole                0.0053 Ry au,          0.0135 Debye
        Dipole field          0.0000 Ry au, 

        Potential amp.       -0.0015 Ry
        Total length         44.7606 bohr


     Adding external electric field

     Computed dipole along edir(3) : 
        Dipole                0.0053 Ry au,          0.0135 Debye
        Dipole field          0.0000 Ry au, 

        Potential amp.       -0.0015 Ry
        Total length         44.7606 bohr


     total cpu time spent up to now is     2855.2 secs

     total energy              =    -994.74355646 Ry
     estimated scf accuracy    <       0.01024529 Ry

     total magnetization       =     4.65 Bohr mag/cell
     absolute magnetization    =     5.35 Bohr mag/cell

     iteration # 13     ecut=    55.12 Ry     beta= 0.10
     Davidson diagonalization with overlap
     ethr =  8.99E-06,  avg # of iterations =  1.6

     Adding external electric field

     Computed dipole along edir(3) : 
        Dipole                0.0041 Ry au,          0.0103 Debye
        Dipole field          0.0000 Ry au, 

        Potential amp.       -0.0012 Ry
        Total length         44.7606 bohr


     Adding external electric field

     Computed dipole along edir(3) : 
        Dipole                0.0041 Ry au,          0.0103 Debye
        Dipole field          0.0000 Ry au, 

        Potential amp.       -0.0012 Ry
        Total length         44.7606 bohr


     total cpu time spent up to now is     3039.1 secs

     total energy              =    -994.29610698 Ry
     estimated scf accuracy    <       0.00393562 Ry

     total magnetization       =     4.74 Bohr mag/cell
     absolute magnetization    =     5.38 Bohr mag/cell

     iteration # 14     ecut=    55.12 Ry     beta= 0.10
     Davidson diagonalization with overlap
     ethr =  3.45E-06,  avg # of iterations =  3.1

     Adding external electric field

     Computed dipole along edir(3) : 
        Dipole                0.0040 Ry au,          0.0101 Debye
        Dipole field          0.0000 Ry au, 

        Potential amp.       -0.0011 Ry
        Total length         44.7606 bohr


     Adding external electric field

     Computed dipole along edir(3) : 
        Dipole                0.0040 Ry au,          0.0101 Debye
        Dipole field          0.0000 Ry au, 

        Potential amp.       -0.0011 Ry
        Total length         44.7606 bohr


     total cpu time spent up to now is     3239.7 secs

     total energy              =    -994.08769004 Ry
     estimated scf accuracy    <       0.00253873 Ry

     total magnetization       =     4.57 Bohr mag/cell
     absolute magnetization    =     5.17 Bohr mag/cell

     iteration # 15     ecut=    55.12 Ry     beta= 0.10
     Davidson diagonalization with overlap
     c_bands:  1 eigenvalues not converged
     c_bands:  1 eigenvalues not converged
     ethr =  2.23E-06,  avg # of iterations =  4.1

     Adding external electric field

     Computed dipole along edir(3) : 
        Dipole                0.0072 Ry au,          0.0182 Debye
        Dipole field          0.0000 Ry au, 

        Potential amp.       -0.0020 Ry
        Total length         44.7606 bohr


     Adding external electric field

     Computed dipole along edir(3) : 
        Dipole                0.0072 Ry au,          0.0182 Debye
        Dipole field          0.0000 Ry au, 

        Potential amp.       -0.0020 Ry
        Total length         44.7606 bohr


     total cpu time spent up to now is     3433.6 secs

     total energy              =    -993.53072873 Ry
     estimated scf accuracy    <       0.00127520 Ry

     total magnetization       =     4.22 Bohr mag/cell
     absolute magnetization    =     4.82 Bohr mag/cell

     iteration # 16     ecut=    55.12 Ry     beta= 0.10
     Davidson diagonalization with overlap
     ethr =  1.12E-06,  avg # of iterations =  3.1

     Adding external electric field

     Computed dipole along edir(3) : 
        Dipole                0.0002 Ry au,          0.0005 Debye
        Dipole field          0.0000 Ry au, 

        Potential amp.       -0.0001 Ry
        Total length         44.7606 bohr


     Adding external electric field

     Computed dipole along edir(3) : 
        Dipole                0.0002 Ry au,          0.0005 Debye
        Dipole field          0.0000 Ry au, 

        Potential amp.       -0.0001 Ry
        Total length         44.7606 bohr


     total cpu time spent up to now is     3637.7 secs

     total energy              =    -993.11588251 Ry
     estimated scf accuracy    <       0.00171815 Ry

     total magnetization       =     4.21 Bohr mag/cell
     absolute magnetization    =     4.76 Bohr mag/cell

     iteration # 17     ecut=    55.12 Ry     beta= 0.10
     Davidson diagonalization with overlap
     ethr =  1.12E-06,  avg # of iterations =  1.7

     Adding external electric field

     Computed dipole along edir(3) : 
        Dipole                0.0059 Ry au,          0.0149 Debye
        Dipole field          0.0000 Ry au, 

        Potential amp.       -0.0017 Ry
        Total length         44.7606 bohr


     Adding external electric field

     Computed dipole along edir(3) : 
        Dipole                0.0059 Ry au,          0.0149 Debye
        Dipole field          0.0000 Ry au, 

        Potential amp.       -0.0017 Ry
        Total length         44.7606 bohr


     total cpu time spent up to now is     3811.2 secs

     total energy              =    -992.74607792 Ry
     estimated scf accuracy    <       0.00592232 Ry

     total magnetization       =     4.10 Bohr mag/cell
     absolute magnetization    =     4.62 Bohr mag/cell

     iteration # 18     ecut=    55.12 Ry     beta= 0.10
     Davidson diagonalization with overlap
     ethr =  1.12E-06,  avg # of iterations =  2.1

     Adding external electric field

     Computed dipole along edir(3) : 
        Dipole                0.0053 Ry au,          0.0133 Debye
        Dipole field          0.0000 Ry au, 

        Potential amp.       -0.0015 Ry
        Total length         44.7606 bohr


     Adding external electric field

     Computed dipole along edir(3) : 
        Dipole                0.0053 Ry au,          0.0133 Debye
        Dipole field          0.0000 Ry au, 

        Potential amp.       -0.0015 Ry
        Total length         44.7606 bohr


     total cpu time spent up to now is     4178.8 secs

     total energy              =    -992.43729488 Ry
     estimated scf accuracy    <       0.00034440 Ry

     total magnetization       =     3.84 Bohr mag/cell
     absolute magnetization    =     4.30 Bohr mag/cell

     iteration # 19     ecut=    55.12 Ry     beta= 0.10
     Davidson diagonalization with overlap
     ethr =  3.02E-07,  avg # of iterations =  5.1

     Adding external electric field

     Computed dipole along edir(3) : 
        Dipole                0.0051 Ry au,          0.0130 Debye
        Dipole field          0.0000 Ry au, 

        Potential amp.       -0.0015 Ry
        Total length         44.7606 bohr


     Adding external electric field

     Computed dipole along edir(3) : 
        Dipole                0.0051 Ry au,          0.0130 Debye
        Dipole field          0.0000 Ry au, 

        Potential amp.       -0.0015 Ry
        Total length         44.7606 bohr


     total cpu time spent up to now is     4373.6 secs

     total energy              =    -992.14138125 Ry
     estimated scf accuracy    <       0.00029295 Ry

     total magnetization       =     3.77 Bohr mag/cell
     absolute magnetization    =     4.20 Bohr mag/cell

     iteration # 20     ecut=    55.12 Ry     beta= 0.10
     Davidson diagonalization with overlap
     ethr =  2.57E-07,  avg # of iterations =  2.5

     Adding external electric field

     Computed dipole along edir(3) : 
        Dipole                0.0046 Ry au,          0.0116 Debye
        Dipole field          0.0000 Ry au, 

        Potential amp.       -0.0013 Ry
        Total length         44.7606 bohr


     Adding external electric field

     Computed dipole along edir(3) : 
        Dipole                0.0046 Ry au,          0.0116 Debye
        Dipole field          0.0000 Ry au, 

        Potential amp.       -0.0013 Ry
        Total length         44.7606 bohr


     total cpu time spent up to now is     4490.7 secs

     total energy              =    -991.83475363 Ry
     estimated scf accuracy    <       0.00025141 Ry

     total magnetization       =     3.65 Bohr mag/cell
     absolute magnetization    =     4.05 Bohr mag/cell

     iteration # 21     ecut=    55.12 Ry     beta= 0.10
     Davidson diagonalization with overlap
     ethr =  2.21E-07,  avg # of iterations =  4.4

     Adding external electric field

     Computed dipole along edir(3) : 
        Dipole                0.0041 Ry au,          0.0105 Debye
        Dipole field          0.0000 Ry au, 

        Potential amp.       -0.0012 Ry
        Total length         44.7606 bohr


     Adding external electric field

     Computed dipole along edir(3) : 
        Dipole                0.0041 Ry au,          0.0105 Debye
        Dipole field          0.0000 Ry au, 

        Potential amp.       -0.0012 Ry
        Total length         44.7606 bohr


     total cpu time spent up to now is     4740.9 secs

     total energy              =    -991.60310966 Ry
     estimated scf accuracy    <       0.00019495 Ry

     total magnetization       =     3.43 Bohr mag/cell
     absolute magnetization    =     3.78 Bohr mag/cell

     iteration # 22     ecut=    55.12 Ry     beta= 0.10
     Davidson diagonalization with overlap
     ethr =  1.71E-07,  avg # of iterations =  2.6

     Adding external electric field

     Computed dipole along edir(3) : 
        Dipole                0.0046 Ry au,          0.0116 Debye
        Dipole field          0.0000 Ry au, 

        Potential amp.       -0.0013 Ry
        Total length         44.7606 bohr


     Adding external electric field

     Computed dipole along edir(3) : 
        Dipole                0.0046 Ry au,          0.0116 Debye
        Dipole field          0.0000 Ry au, 

        Potential amp.       -0.0013 Ry
        Total length         44.7606 bohr


     total cpu time spent up to now is     4951.6 secs

     total energy              =    -991.38896970 Ry
     estimated scf accuracy    <       0.00016132 Ry

     total magnetization       =     3.31 Bohr mag/cell
     absolute magnetization    =     3.63 Bohr mag/cell

     iteration # 23     ecut=    55.12 Ry     beta= 0.10
     Davidson diagonalization with overlap
     ethr =  1.42E-07,  avg # of iterations =  1.9

     Adding external electric field

     Computed dipole along edir(3) : 
        Dipole                0.0048 Ry au,          0.0121 Debye
        Dipole field          0.0000 Ry au, 

        Potential amp.       -0.0014 Ry
        Total length         44.7606 bohr


     Adding external electric field

     Computed dipole along edir(3) : 
        Dipole                0.0048 Ry au,          0.0121 Debye
        Dipole field          0.0000 Ry au, 

        Potential amp.       -0.0014 Ry
        Total length         44.7606 bohr


     total cpu time spent up to now is     5128.5 secs

     total energy              =    -991.19500638 Ry
     estimated scf accuracy    <       0.00013860 Ry

     total magnetization       =     3.24 Bohr mag/cell
     absolute magnetization    =     3.54 Bohr mag/cell

     iteration # 24     ecut=    55.12 Ry     beta= 0.10
     Davidson diagonalization with overlap
     ethr =  1.22E-07,  avg # of iterations =  2.3

     Adding external electric field

     Computed dipole along edir(3) : 
        Dipole                0.0049 Ry au,          0.0125 Debye
        Dipole field          0.0000 Ry au, 

        Potential amp.       -0.0014 Ry
        Total length         44.7606 bohr


     Adding external electric field

     Computed dipole along edir(3) : 
        Dipole                0.0049 Ry au,          0.0125 Debye
        Dipole field          0.0000 Ry au, 

        Potential amp.       -0.0014 Ry
        Total length         44.7606 bohr


     total cpu time spent up to now is     5331.2 secs

     total energy              =    -991.14761286 Ry
     estimated scf accuracy    <       0.00011903 Ry

     total magnetization       =     3.14 Bohr mag/cell
     absolute magnetization    =     3.44 Bohr mag/cell

     iteration # 25     ecut=    55.12 Ry     beta= 0.10
     Davidson diagonalization with overlap
     ethr =  1.04E-07,  avg # of iterations =  5.0

     Adding external electric field

     Computed dipole along edir(3) : 
        Dipole                0.0050 Ry au,          0.0128 Debye
        Dipole field          0.0000 Ry au, 

        Potential amp.       -0.0014 Ry
        Total length         44.7606 bohr


     Adding external electric field

     Computed dipole along edir(3) : 
        Dipole                0.0050 Ry au,          0.0128 Debye
        Dipole field          0.0000 Ry au, 

        Potential amp.       -0.0014 Ry
        Total length         44.7606 bohr


     total cpu time spent up to now is     5585.3 secs

     total energy              =    -991.09592912 Ry
     estimated scf accuracy    <       0.00011019 Ry

     total magnetization       =     2.94 Bohr mag/cell
     absolute magnetization    =     3.19 Bohr mag/cell

     iteration # 26     ecut=    55.12 Ry     beta= 0.10
     Davidson diagonalization with overlap
     ethr =  9.67E-08,  avg # of iterations =  2.1

     Adding external electric field

     Computed dipole along edir(3) : 
        Dipole                0.0053 Ry au,          0.0136 Debye
        Dipole field          0.0000 Ry au, 

        Potential amp.       -0.0015 Ry
        Total length         44.7606 bohr


     Adding external electric field

     Computed dipole along edir(3) : 
        Dipole                0.0053 Ry au,          0.0136 Debye
        Dipole field          0.0000 Ry au, 

        Potential amp.       -0.0015 Ry
        Total length         44.7606 bohr


     total cpu time spent up to now is     5794.9 secs

     total energy              =    -991.42005077 Ry
     estimated scf accuracy    <       0.00008981 Ry

     total magnetization       =     2.79 Bohr mag/cell
     absolute magnetization    =     3.03 Bohr mag/cell

     iteration # 27     ecut=    55.12 Ry     beta= 0.10
     Davidson diagonalization with overlap
     ethr =  7.88E-08,  avg # of iterations =  5.4

     Adding external electric field

     Computed dipole along edir(3) : 
        Dipole                0.0053 Ry au,          0.0135 Debye
        Dipole field          0.0000 Ry au, 

        Potential amp.       -0.0015 Ry
        Total length         44.7606 bohr


     Adding external electric field

     Computed dipole along edir(3) : 
        Dipole                0.0053 Ry au,          0.0135 Debye
        Dipole field          0.0000 Ry au, 

        Potential amp.       -0.0015 Ry
        Total length         44.7606 bohr


     total cpu time spent up to now is     6087.7 secs

     total energy              =    -991.58412981 Ry
     estimated scf accuracy    <       0.00006508 Ry

     total magnetization       =     2.46 Bohr mag/cell
     absolute magnetization    =     2.65 Bohr mag/cell

     iteration # 28     ecut=    55.12 Ry     beta= 0.10
     Davidson diagonalization with overlap
     ethr =  5.71E-08,  avg # of iterations =  4.6

     Adding external electric field

     Computed dipole along edir(3) : 
        Dipole                0.0051 Ry au,          0.0130 Debye
        Dipole field          0.0000 Ry au, 

        Potential amp.       -0.0015 Ry
        Total length         44.7606 bohr


     Adding external electric field

     Computed dipole along edir(3) : 
        Dipole                0.0051 Ry au,          0.0130 Debye
        Dipole field          0.0000 Ry au, 

        Potential amp.       -0.0015 Ry
        Total length         44.7606 bohr


     total cpu time spent up to now is     6321.4 secs

     total energy              =    -991.61253901 Ry
     estimated scf accuracy    <       0.00006156 Ry

     total magnetization       =     2.25 Bohr mag/cell
     absolute magnetization    =     2.42 Bohr mag/cell

     iteration # 29     ecut=    55.12 Ry     beta= 0.10
     Davidson diagonalization with overlap
     ethr =  5.40E-08,  avg # of iterations =  3.2

     Adding external electric field

     Computed dipole along edir(3) : 
        Dipole                0.0061 Ry au,          0.0154 Debye
        Dipole field          0.0000 Ry au, 

        Potential amp.       -0.0017 Ry
        Total length         44.7606 bohr


     Adding external electric field

     Computed dipole along edir(3) : 
        Dipole                0.0061 Ry au,          0.0154 Debye
        Dipole field          0.0000 Ry au, 

        Potential amp.       -0.0017 Ry
        Total length         44.7606 bohr


     total cpu time spent up to now is     6535.5 secs

     total energy              =    -991.57108048 Ry
     estimated scf accuracy    <       0.00005429 Ry

     total magnetization       =     2.10 Bohr mag/cell
     absolute magnetization    =     2.25 Bohr mag/cell

     iteration # 30     ecut=    55.12 Ry     beta= 0.10
     Davidson diagonalization with overlap
     ethr =  4.76E-08,  avg # of iterations =  2.2

     Adding external electric field

     Computed dipole along edir(3) : 
        Dipole                0.0051 Ry au,          0.0130 Debye
        Dipole field          0.0000 Ry au, 

        Potential amp.       -0.0015 Ry
        Total length         44.7606 bohr


     Adding external electric field

     Computed dipole along edir(3) : 
        Dipole                0.0051 Ry au,          0.0130 Debye
        Dipole field          0.0000 Ry au, 

        Potential amp.       -0.0015 Ry
        Total length         44.7606 bohr


     total cpu time spent up to now is     7834.8 secs

     total energy              =    -991.58591690 Ry
     estimated scf accuracy    <       0.00021631 Ry

     total magnetization       =     1.99 Bohr mag/cell
     absolute magnetization    =     2.13 Bohr mag/cell

     iteration # 31     ecut=    55.12 Ry     beta= 0.10
     Davidson diagonalization with overlap
     ethr =  4.76E-08,  avg # of iterations =  2.2

     Adding external electric field

     Computed dipole along edir(3) : 
        Dipole                0.0052 Ry au,          0.0133 Debye
        Dipole field          0.0000 Ry au, 

        Potential amp.       -0.0015 Ry
        Total length         44.7606 bohr


     Adding external electric field

     Computed dipole along edir(3) : 
        Dipole                0.0052 Ry au,          0.0133 Debye
        Dipole field          0.0000 Ry au, 

        Potential amp.       -0.0015 Ry
        Total length         44.7606 bohr


     total cpu time spent up to now is     8745.8 secs

     total energy              =    -991.76641283 Ry
     estimated scf accuracy    <       0.00004439 Ry

     total magnetization       =     1.86 Bohr mag/cell
     absolute magnetization    =     2.00 Bohr mag/cell

     iteration # 32     ecut=    55.12 Ry     beta= 0.10
     Davidson diagonalization with overlap
     ethr =  3.89E-08,  avg # of iterations =  4.7

     Adding external electric field

     Computed dipole along edir(3) : 
        Dipole                0.0052 Ry au,          0.0132 Debye
        Dipole field          0.0000 Ry au, 

        Potential amp.       -0.0015 Ry
        Total length         44.7606 bohr


     Adding external electric field

     Computed dipole along edir(3) : 
        Dipole                0.0052 Ry au,          0.0132 Debye
        Dipole field          0.0000 Ry au, 

        Potential amp.       -0.0015 Ry
        Total length         44.7606 bohr


     total cpu time spent up to now is     8893.5 secs

     total energy              =    -991.87437717 Ry
     estimated scf accuracy    <       0.00003483 Ry

     total magnetization       =     1.67 Bohr mag/cell
     absolute magnetization    =     1.79 Bohr mag/cell

     iteration # 33     ecut=    55.12 Ry     beta= 0.10
     Davidson diagonalization with overlap
     ethr =  3.05E-08,  avg # of iterations =  3.5

     Adding external electric field

     Computed dipole along edir(3) : 
        Dipole                0.0053 Ry au,          0.0134 Debye
        Dipole field          0.0000 Ry au, 

        Potential amp.       -0.0015 Ry
        Total length         44.7606 bohr


     Adding external electric field

     Computed dipole along edir(3) : 
        Dipole                0.0053 Ry au,          0.0134 Debye
        Dipole field          0.0000 Ry au, 

        Potential amp.       -0.0015 Ry
        Total length         44.7606 bohr


     total cpu time spent up to now is     9025.1 secs

     total energy              =    -991.86005268 Ry
     estimated scf accuracy    <       0.00003248 Ry

     total magnetization       =     1.50 Bohr mag/cell
     absolute magnetization    =     1.61 Bohr mag/cell

     iteration # 34     ecut=    55.12 Ry     beta= 0.10
     Davidson diagonalization with overlap
     ethr =  2.85E-08,  avg # of iterations =  2.7

     Adding external electric field

     Computed dipole along edir(3) : 
        Dipole                0.0055 Ry au,          0.0139 Debye
        Dipole field          0.0000 Ry au, 

        Potential amp.       -0.0016 Ry
        Total length         44.7606 bohr


     Adding external electric field

     Computed dipole along edir(3) : 
        Dipole                0.0055 Ry au,          0.0139 Debye
        Dipole field          0.0000 Ry au, 

        Potential amp.       -0.0016 Ry
        Total length         44.7606 bohr


     total cpu time spent up to now is     9274.4 secs

     total energy              =    -991.86901914 Ry
     estimated scf accuracy    <       0.00002823 Ry

     total magnetization       =     1.38 Bohr mag/cell
     absolute magnetization    =     1.49 Bohr mag/cell

     iteration # 35     ecut=    55.12 Ry     beta= 0.10
     Davidson diagonalization with overlap
     ethr =  2.48E-08,  avg # of iterations =  3.1

     Adding external electric field

     Computed dipole along edir(3) : 
        Dipole                0.0054 Ry au,          0.0137 Debye
        Dipole field          0.0000 Ry au, 

        Potential amp.       -0.0015 Ry
        Total length         44.7606 bohr


     Adding external electric field

     Computed dipole along edir(3) : 
        Dipole                0.0054 Ry au,          0.0137 Debye
        Dipole field          0.0000 Ry au, 

        Potential amp.       -0.0015 Ry
        Total length         44.7606 bohr


     total cpu time spent up to now is     9439.4 secs

     total energy              =    -991.70880705 Ry
     estimated scf accuracy    <       0.00002486 Ry

     total magnetization       =     1.26 Bohr mag/cell
     absolute magnetization    =     1.36 Bohr mag/cell

     iteration # 36     ecut=    55.12 Ry     beta= 0.10
     Davidson diagonalization with overlap
     ethr =  2.18E-08,  avg # of iterations =  1.9

     Adding external electric field

     Computed dipole along edir(3) : 
        Dipole                0.0052 Ry au,          0.0132 Debye
        Dipole field          0.0000 Ry au, 

        Potential amp.       -0.0015 Ry
        Total length         44.7606 bohr


     Adding external electric field

     Computed dipole along edir(3) : 
        Dipole                0.0052 Ry au,          0.0132 Debye
        Dipole field          0.0000 Ry au, 

        Potential amp.       -0.0015 Ry
        Total length         44.7606 bohr


     total cpu time spent up to now is     9564.9 secs

     total energy              =    -991.96917969 Ry
     estimated scf accuracy    <       0.00002390 Ry

     total magnetization       =     1.21 Bohr mag/cell
     absolute magnetization    =     1.30 Bohr mag/cell

     iteration # 37     ecut=    55.12 Ry     beta= 0.10
     Davidson diagonalization with overlap
     ethr =  2.10E-08,  avg # of iterations =  4.2

     Adding external electric field

     Computed dipole along edir(3) : 
        Dipole                0.0054 Ry au,          0.0136 Debye
        Dipole field          0.0000 Ry au, 

        Potential amp.       -0.0015 Ry
        Total length         44.7606 bohr


     Adding external electric field

     Computed dipole along edir(3) : 
        Dipole                0.0054 Ry au,          0.0136 Debye
        Dipole field          0.0000 Ry au, 

        Potential amp.       -0.0015 Ry
        Total length         44.7606 bohr


     total cpu time spent up to now is    10089.1 secs

     total energy              =    -991.72662600 Ry
     estimated scf accuracy    <       0.00001567 Ry

     total magnetization       =     0.97 Bohr mag/cell
     absolute magnetization    =     1.06 Bohr mag/cell

     iteration # 38     ecut=    55.12 Ry     beta= 0.10
     Davidson diagonalization with overlap
     ethr =  1.37E-08,  avg # of iterations =  2.9

     Adding external electric field

     Computed dipole along edir(3) : 
        Dipole                0.0053 Ry au,          0.0134 Debye
        Dipole field          0.0000 Ry au, 

        Potential amp.       -0.0015 Ry
        Total length         44.7606 bohr


     Adding external electric field

     Computed dipole along edir(3) : 
        Dipole                0.0053 Ry au,          0.0134 Debye
        Dipole field          0.0000 Ry au, 

        Potential amp.       -0.0015 Ry
        Total length         44.7606 bohr


     total cpu time spent up to now is    10205.5 secs

     total energy              =    -991.66233754 Ry
     estimated scf accuracy    <       0.00001429 Ry

     total magnetization       =     0.96 Bohr mag/cell
     absolute magnetization    =     1.05 Bohr mag/cell

     iteration # 39     ecut=    55.12 Ry     beta= 0.10
     Davidson diagonalization with overlap
     ethr =  1.25E-08,  avg # of iterations =  2.9

     Adding external electric field

     Computed dipole along edir(3) : 
        Dipole                0.0051 Ry au,          0.0129 Debye
        Dipole field          0.0000 Ry au, 

        Potential amp.       -0.0015 Ry
        Total length         44.7606 bohr


     Adding external electric field

     Computed dipole along edir(3) : 
        Dipole                0.0051 Ry au,          0.0129 Debye
        Dipole field          0.0000 Ry au, 

        Potential amp.       -0.0015 Ry
        Total length         44.7606 bohr


     Magnetic moment per site:
     atom:    1    charge:    8.8253    magn:    0.0956    constr:    0.0000
     atom:    2    charge:    8.8251    magn:    0.0957    constr:    0.0000
     atom:    3    charge:    6.4258    magn:    0.0693    constr:    0.0000
     atom:    4    charge:    6.4258    magn:    0.0693    constr:    0.0000
     atom:    5    charge:    8.9265    magn:    0.0871    constr:    0.0000
     atom:    6    charge:    8.9268    magn:    0.0871    constr:    0.0000
     atom:    7    charge:    6.4628    magn:    0.0623    constr:    0.0000
     atom:    8    charge:    6.4628    magn:    0.0623    constr:    0.0000
     atom:    9    charge:    8.8365    magn:    0.0728    constr:    0.0000
     atom:   10    charge:    8.8364    magn:    0.0729    constr:    0.0000
     atom:   11    charge:    6.4368    magn:    0.0522    constr:    0.0000
     atom:   12    charge:    6.4368    magn:    0.0522    constr:    0.0000

     total cpu time spent up to now is    10344.3 secs

     End of self-consistent calculation

     Number of k-points >= 100: set verbosity='high' to print the bands.

     the Fermi energy is     0.1868 ev

!    total energy              =    -989.23128186 Ry
     estimated scf accuracy    <       0.00000987 Ry
     smearing contrib. (-TS)   =      -0.09765036 Ry
     internal energy E=F+TS    =    -989.13363150 Ry

     The total energy is F=E-TS. E is the sum of the following terms:
     one-electron contribution =   -8088.46249673 Ry
     hartree contribution      =    4140.15941147 Ry
     xc contribution           =    -453.27628799 Ry
     ewald contribution        =    3412.44574167 Ry
     electric field correction =       0.00000008 Ry

     total magnetization       =     0.88 Bohr mag/cell
     absolute magnetization    =     0.96 Bohr mag/cell

     convergence has been achieved in  39 iterations

     Forces acting on atoms (cartesian axes, Ry/au):

     atom    1 type  1   force =     0.00675865    0.00403388    0.00236670
     atom    2 type  1   force =     0.00679538    0.00404695    0.00240090
     atom    3 type  2   force =     0.00136692    0.00080330    0.00844317
     atom    4 type  2   force =     0.00135603    0.00082035    0.00844119
     atom    5 type  1   force =    -0.00210393   -0.00125479   -0.00699074
     atom    6 type  1   force =    -0.00212040   -0.00126382   -0.00702545
     atom    7 type  2   force =    -0.00718064   -0.00428140   -0.01095154
     atom    8 type  2   force =    -0.00717512   -0.00429044   -0.01095400
     atom    9 type  1   force =     0.00010872    0.00007280    0.00351054
     atom   10 type  1   force =     0.00000066   -0.00000119    0.00343049
     atom   11 type  2   force =     0.00106646    0.00071326    0.00366547
     atom   12 type  2   force =     0.00112725    0.00060111    0.00366326

     Total force =     0.028770     Total SCF correction =     0.003869
     SCF correction compared to forces is large: reduce conv_thr to get better values

     Writing output data file ./Ni2Ir2/Ni2Ir2_beef.save/

     init_run     :    345.36s CPU    346.51s WALL (       1 calls)
     electrons    :   9036.40s CPU   9978.59s WALL (       1 calls)
     forces       :     30.71s CPU     30.94s WALL (       1 calls)

     Called by init_run:
     wfcinit      :    307.63s CPU    308.69s WALL (       1 calls)
     potinit      :     27.54s CPU     27.57s WALL (       1 calls)
     hinit0       :      7.57s CPU      7.57s WALL (       1 calls)

     Called by electrons:
     c_bands      :   7757.61s CPU   8520.19s WALL (      39 calls)
     sum_band     :   1163.15s CPU   1334.26s WALL (      39 calls)
     v_of_rho     :     89.57s CPU     93.20s WALL (      40 calls)
     newd         :     44.58s CPU     47.45s WALL (      40 calls)
     mix_rho      :      6.16s CPU      8.03s WALL (      39 calls)
     vdW_kernel   :     10.42s CPU     10.42s WALL (       1 calls)

     Called by c_bands:
     init_us_2    :     31.89s CPU     32.46s WALL (   11840 calls)
     cegterg      :   7651.21s CPU   8400.22s WALL (    5772 calls)

     Called by *egterg:
     cdiaghg      :    253.36s CPU    258.54s WALL (   21628 calls)
     h_psi        :   5417.47s CPU   6090.05s WALL (   21776 calls)
     s_psi        :    903.78s CPU    912.40s WALL (   21776 calls)
     g_psi        :      3.96s CPU      4.05s WALL (   15856 calls)

     Called by h_psi:
     h_psi:calbec :   1242.90s CPU   1286.57s WALL (   21776 calls)
     vloc_psi     :   3233.37s CPU   3853.36s WALL (   21776 calls)
     add_vuspsi   :    933.04s CPU    941.93s WALL (   21776 calls)

     General routines
     calbec       :   1756.69s CPU   1817.39s WALL (   28140 calls)
     fft          :     68.33s CPU     71.36s WALL (    3637 calls)
     ffts         :      1.25s CPU      1.50s WALL (     158 calls)
     fftw         :   3699.25s CPU   4467.35s WALL ( 2265412 calls)
     interpolate  :      2.02s CPU      2.06s WALL (      80 calls)

     Parallel routines
     fft_scatt_xy :    113.33s CPU    114.82s WALL ( 2269207 calls)
     fft_scatt_yz :   2647.35s CPU   3401.91s WALL ( 2269207 calls)

     PWSCF        :      2h40m CPU      2h58m WALL


   This run was terminated on:  11:32:15  27Jun2022            

=------------------------------------------------------------------------------=
   JOB DONE.
=------------------------------------------------------------------------------=
