
     Program PWSCF v.6.6 starts on 27Jun2022 at 15:42:51 

     This program is part of the open-source Quantum ESPRESSO suite
     for quantum simulation of materials; please cite
         "P. Giannozzi et al., J. Phys.:Condens. Matter 21 395502 (2009);
         "P. Giannozzi et al., J. Phys.:Condens. Matter 29 465901 (2017);
          URL http://www.quantum-espresso.org", 
     in publications or presentations arising from this work. More details at
     http://www.quantum-espresso.org/quote

     Parallel version (MPI), running on    37 processors

     MPI processes distributed on     1 nodes
     R & G space division:  proc/nbgrp/npool/nimage =      37
     Fft bands division:     nmany     =       1
     Reading input from Ni2Nb2.in
Warning: card &CELL ignored
Warning: card / ignored

     Current dimensions of program PWSCF are:
     Max number of different atomic species (ntypx) = 10
     Max number of k-points (npk) =  40000
     Max angular momentum in pseudopotentials (lmaxx) =  3
     Presently stress not available with electric field and gates

     Message from routine cell_base_init:
     DEPRECATED: use true lattice parameter, not A to a.u. conversion factor
     file Ni.pbe-n-rrkjus_psl.1.0.0.UPF: wavefunction(s)  3D renormalized
     file Nb.pbe-spn-rrkjus_psl.1.0.0.UPF: wavefunction(s)  4S 4P renormalized

     **************************************************************************
     Initializing libbeef V0.1.2 with the BEEF-vdW functional.
     Citation: Wellendorff et al., PRB 85, 235149 (2012).
     **************************************************************************


     IMPORTANT: XC functional enforced from input :
     Exchange-correlation= BEEF-VDW
                           (   1   4  43  14   2   0   0)
     Any further DFT definition will be discarded
     Please, verify this is what you really want


     Subspace diagonalization in iterative solution of the eigenvalue problem:
     a serial algorithm will be used


     Parallelization info
     --------------------
     sticks:   dense  smooth     PW     G-vecs:    dense   smooth      PW
     Min         109      43     12                25225     6369     982
     Max         110      44     13                25248     6392     995
     Sum        4057    1627    467               933673   236313   36571



     bravais-lattice index     =            0
     lattice parameter (alat)  =       1.8897  a.u.
     unit-cell volume          =    4271.4940 (a.u.)^3
     number of atoms/cell      =           12
     number of atomic types    =            2
     number of electrons       =       138.00
     number of Kohn-Sham states=           83
     kinetic-energy cutoff     =      55.1240  Ry
     charge density cutoff     =     551.2396  Ry
     convergence threshold     =      1.0E-05
     mixing beta               =       0.1000
     number of iterations used =           10  plain     mixing
     Exchange-correlation= BEEF-VDW
                           (   1   4  43  14   2   0   0)

     celldm(1)=   1.889726  celldm(2)=   0.000000  celldm(3)=   0.000000
     celldm(4)=   0.000000  celldm(5)=   0.000000  celldm(6)=   0.000000

     crystal axes: (cart. coord. in units of alat)
               a(1) = (   5.450520   0.000000   0.000000 )  
               a(2) = (   2.677999   4.747261   0.000000 )  
               a(3) = (   0.000000   0.000000  24.462579 )  

     reciprocal axes: (cart. coord. in units 2 pi/alat)
               b(1) = (  0.183469 -0.103497  0.000000 )  
               b(2) = (  0.000000  0.210648  0.000000 )  
               b(3) = (  0.000000  0.000000  0.040879 )  


     PseudoPot. # 1 for Ni read from file:
     ../pseudo/Ni.pbe-n-rrkjus_psl.1.0.0.UPF
     MD5 check sum: 9f76af1bddcd5839b31985483df98d0a
     Pseudo is Ultrasoft + core correction, Zval = 10.0
     Generated using "atomic" code by A. Dal Corso v.6.5
     Using radial grid of 1195 points,  6 beta functions with: 
                l(1) =   0
                l(2) =   0
                l(3) =   1
                l(4) =   1
                l(5) =   2
                l(6) =   2
     Q(r) pseudized with 0 coefficients 


     PseudoPot. # 2 for Nb read from file:
     ../pseudo/Nb.pbe-spn-rrkjus_psl.1.0.0.UPF
     MD5 check sum: 6ee677a9f002bd3e3657f443f129faad
     Pseudo is Ultrasoft + core correction, Zval = 13.0
     Generated using "atomic" code by A. Dal Corso v.6.2.2
     Using radial grid of 1227 points,  6 beta functions with: 
                l(1) =   0
                l(2) =   0
                l(3) =   1
                l(4) =   1
                l(5) =   2
                l(6) =   2
     Q(r) pseudized with 0 coefficients 


     atomic species   valence    mass     pseudopotential
        Ni            10.00    58.69340     Ni( 1.00)
        Nb            13.00    92.90637     Nb( 1.00)

     Starting magnetic structure 
     atomic species   magnetization
        Ni           0.500
        Nb           0.000

     No symmetry found



   Cartesian axes

     site n.     atom                  positions (alat units)
         1           Ni  tau(   1) = (   0.0000000   0.0000000  10.0000000  )
         2           Ni  tau(   2) = (   4.0642597   2.3736307  10.0000000  )
         3           Nb  tau(   3) = (   2.7252601   0.0000000  10.0000000  )
         4           Nb  tau(   4) = (   1.3389996   2.3736307  10.0000000  )
         5           Ni  tau(   5) = (   5.4505202   3.1832420  12.2312894  )
         6           Ni  tau(   6) = (   1.3862605   0.8096113  12.2312894  )
         7           Nb  tau(   7) = (   2.7252601   3.1832420  12.2312894  )
         8           Nb  tau(   8) = (   4.1115206   0.8096113  12.2312894  )
         9           Ni  tau(   9) = (   2.8292322   1.6523451  14.3963761  )
        10           Ni  tau(  10) = (   6.8933673   4.0258977  14.3962476  )
        11           Nb  tau(  11) = (   5.5800538   1.6672597  14.3756834  )
        12           Nb  tau(  12) = (   4.1937844   4.0409111  14.3756832  )

     number of k points=    74  Fermi-Dirac smearing, width (Ry)=  0.0100
                       cart. coord. in units 2pi/alat
        k(    1) = (   0.0000000   0.0000000   0.0000000), wk =   0.0069444
        k(    2) = (   0.0000000   0.0175540   0.0000000), wk =   0.0138889
        k(    3) = (   0.0000000   0.0351080   0.0000000), wk =   0.0138889
        k(    4) = (   0.0000000   0.0526619   0.0000000), wk =   0.0138889
        k(    5) = (   0.0000000   0.0702159   0.0000000), wk =   0.0138889
        k(    6) = (   0.0000000   0.0877699   0.0000000), wk =   0.0138889
        k(    7) = (   0.0000000  -0.1053239   0.0000000), wk =   0.0069444
        k(    8) = (   0.0152891  -0.0086248   0.0000000), wk =   0.0138889
        k(    9) = (   0.0152891   0.0089292   0.0000000), wk =   0.0138889
        k(   10) = (   0.0152891   0.0264832   0.0000000), wk =   0.0138889
        k(   11) = (   0.0152891   0.0440372   0.0000000), wk =   0.0138889
        k(   12) = (   0.0152891   0.0615911   0.0000000), wk =   0.0138889
        k(   13) = (   0.0152891   0.0791451   0.0000000), wk =   0.0138889
        k(   14) = (   0.0152891  -0.1139487   0.0000000), wk =   0.0138889
        k(   15) = (   0.0152891  -0.0963947   0.0000000), wk =   0.0138889
        k(   16) = (   0.0152891  -0.0788407   0.0000000), wk =   0.0138889
        k(   17) = (   0.0152891  -0.0612867   0.0000000), wk =   0.0138889
        k(   18) = (   0.0152891  -0.0437327   0.0000000), wk =   0.0138889
        k(   19) = (   0.0152891  -0.0261788   0.0000000), wk =   0.0138889
        k(   20) = (   0.0305781  -0.0172496   0.0000000), wk =   0.0138889
        k(   21) = (   0.0305781   0.0003044   0.0000000), wk =   0.0138889
        k(   22) = (   0.0305781   0.0178584   0.0000000), wk =   0.0138889
        k(   23) = (   0.0305781   0.0354124   0.0000000), wk =   0.0138889
        k(   24) = (   0.0305781   0.0529664   0.0000000), wk =   0.0138889
        k(   25) = (   0.0305781   0.0705203   0.0000000), wk =   0.0138889
        k(   26) = (   0.0305781  -0.1225735   0.0000000), wk =   0.0138889
        k(   27) = (   0.0305781  -0.1050195   0.0000000), wk =   0.0138889
        k(   28) = (   0.0305781  -0.0874655   0.0000000), wk =   0.0138889
        k(   29) = (   0.0305781  -0.0699115   0.0000000), wk =   0.0138889
        k(   30) = (   0.0305781  -0.0523575   0.0000000), wk =   0.0138889
        k(   31) = (   0.0305781  -0.0348035   0.0000000), wk =   0.0138889
        k(   32) = (   0.0458672  -0.0258743   0.0000000), wk =   0.0138889
        k(   33) = (   0.0458672  -0.0083204   0.0000000), wk =   0.0138889
        k(   34) = (   0.0458672   0.0092336   0.0000000), wk =   0.0138889
        k(   35) = (   0.0458672   0.0267876   0.0000000), wk =   0.0138889
        k(   36) = (   0.0458672   0.0443416   0.0000000), wk =   0.0138889
        k(   37) = (   0.0458672   0.0618956   0.0000000), wk =   0.0138889
        k(   38) = (   0.0458672  -0.1311982   0.0000000), wk =   0.0138889
        k(   39) = (   0.0458672  -0.1136443   0.0000000), wk =   0.0138889
        k(   40) = (   0.0458672  -0.0960903   0.0000000), wk =   0.0138889
        k(   41) = (   0.0458672  -0.0785363   0.0000000), wk =   0.0138889
        k(   42) = (   0.0458672  -0.0609823   0.0000000), wk =   0.0138889
        k(   43) = (   0.0458672  -0.0434283   0.0000000), wk =   0.0138889
        k(   44) = (   0.0611562  -0.0344991   0.0000000), wk =   0.0138889
        k(   45) = (   0.0611562  -0.0169451   0.0000000), wk =   0.0138889
        k(   46) = (   0.0611562   0.0006088   0.0000000), wk =   0.0138889
        k(   47) = (   0.0611562   0.0181628   0.0000000), wk =   0.0138889
        k(   48) = (   0.0611562   0.0357168   0.0000000), wk =   0.0138889
        k(   49) = (   0.0611562   0.0532708   0.0000000), wk =   0.0138889
        k(   50) = (   0.0611562  -0.1398230   0.0000000), wk =   0.0138889
        k(   51) = (   0.0611562  -0.1222690   0.0000000), wk =   0.0138889
        k(   52) = (   0.0611562  -0.1047151   0.0000000), wk =   0.0138889
        k(   53) = (   0.0611562  -0.0871611   0.0000000), wk =   0.0138889
        k(   54) = (   0.0611562  -0.0696071   0.0000000), wk =   0.0138889
        k(   55) = (   0.0611562  -0.0520531   0.0000000), wk =   0.0138889
        k(   56) = (   0.0764453  -0.0431239   0.0000000), wk =   0.0138889
        k(   57) = (   0.0764453  -0.0255699   0.0000000), wk =   0.0138889
        k(   58) = (   0.0764453  -0.0080159   0.0000000), wk =   0.0138889
        k(   59) = (   0.0764453   0.0095380   0.0000000), wk =   0.0138889
        k(   60) = (   0.0764453   0.0270920   0.0000000), wk =   0.0138889
        k(   61) = (   0.0764453   0.0446460   0.0000000), wk =   0.0138889
        k(   62) = (   0.0764453  -0.1484478   0.0000000), wk =   0.0138889
        k(   63) = (   0.0764453  -0.1308938   0.0000000), wk =   0.0138889
        k(   64) = (   0.0764453  -0.1133398   0.0000000), wk =   0.0138889
        k(   65) = (   0.0764453  -0.0957859   0.0000000), wk =   0.0138889
        k(   66) = (   0.0764453  -0.0782319   0.0000000), wk =   0.0138889
        k(   67) = (   0.0764453  -0.0606779   0.0000000), wk =   0.0138889
        k(   68) = (  -0.0917344   0.0517487   0.0000000), wk =   0.0069444
        k(   69) = (  -0.0917344   0.0693027   0.0000000), wk =   0.0138889
        k(   70) = (  -0.0917344   0.0868567   0.0000000), wk =   0.0138889
        k(   71) = (  -0.0917344   0.1044106   0.0000000), wk =   0.0138889
        k(   72) = (  -0.0917344   0.1219646   0.0000000), wk =   0.0138889
        k(   73) = (  -0.0917344   0.1395186   0.0000000), wk =   0.0138889
        k(   74) = (  -0.0917344  -0.0535752   0.0000000), wk =   0.0069444

     Dense  grid:   933673 G-vectors     FFT dimensions: (  80,  80, 360)

     Smooth grid:   236313 G-vectors     FFT dimensions: (  50,  50, 225)

     Estimated max dynamical RAM per process >     263.71 MB

     Estimated total dynamical RAM >       9.53 GB
     Generating pointlists ...
     new r_m :   1.0846 (alat units)  2.0496 (a.u.) for type    1
     new r_m :   1.0846 (alat units)  2.0496 (a.u.) for type    2

     Initial potential from superposition of free atoms

     starting charge  137.99067, renormalised to  138.00000


     %%%%%%%%%%%%%%%%%%%%%%%%%%%%%%%%%%%%%%%%%%%%%%%%%%%%%%%%%%%%%%%%%%%%%%%%
     %                                                                      %
     % You are using vdW-DF, which was implemented by the Thonhauser group. %
     % Please cite the following two papers that made this development      %
     % possible and the two reviews that describe the various versions:     %
     %                                                                      %
     %   T. Thonhauser et al., PRL 115, 136402 (2015).                      %
     %   T. Thonhauser et al., PRB 76, 125112 (2007).                       %
     %   K. Berland et al., Rep. Prog. Phys. 78, 066501 (2015).             %
     %   D.C. Langreth et al., J. Phys.: Condens. Matter 21, 084203 (2009). %
     %                                                                      %
     %                                                                      %
     % If you are calculating the stress with vdW-DF, please also cite:     %
     %                                                                      %
     %   R. Sabatini et al., J. Phys.: Condens. Matter 24, 424209 (2012).   %
     %                                                                      %
     %%%%%%%%%%%%%%%%%%%%%%%%%%%%%%%%%%%%%%%%%%%%%%%%%%%%%%%%%%%%%%%%%%%%%%%%



     Adding external electric field

     Computed dipole along edir(3) : 
        Dipole               -0.0000 Ry au,         -0.0001 Debye
        Dipole field         -0.0000 Ry au, 

        Potential amp.        0.0000 Ry
        Total length         45.0719 bohr


     Adding external electric field

     Computed dipole along edir(3) : 
        Dipole               -0.0000 Ry au,         -0.0001 Debye
        Dipole field         -0.0000 Ry au, 

        Potential amp.        0.0000 Ry
        Total length         45.0719 bohr

     Starting wfcs are  132 randomized atomic wfcs

     total cpu time spent up to now is      184.6 secs

     Self-consistent Calculation

     iteration #  1     ecut=    55.12 Ry     beta= 0.10
     Davidson diagonalization with overlap
     ethr =  1.00E-02,  avg # of iterations =  2.0

     Adding external electric field

     Computed dipole along edir(3) : 
        Dipole               -0.1851 Ry au,         -0.4705 Debye
        Dipole field         -0.0005 Ry au, 

        Potential amp.        0.0491 Ry
        Total length         45.0719 bohr


     Adding external electric field

     Computed dipole along edir(3) : 
        Dipole               -0.1851 Ry au,         -0.4705 Debye
        Dipole field         -0.0005 Ry au, 

        Potential amp.        0.0491 Ry
        Total length         45.0719 bohr


     total cpu time spent up to now is      340.8 secs

     total energy              =   -1321.90133396 Ry
     estimated scf accuracy    <       8.50070659 Ry

     total magnetization       =     5.81 Bohr mag/cell
     absolute magnetization    =     5.97 Bohr mag/cell

     iteration #  2     ecut=    55.12 Ry     beta= 0.10
     Davidson diagonalization with overlap
     ethr =  6.16E-03,  avg # of iterations =  1.2

     Adding external electric field

     Computed dipole along edir(3) : 
        Dipole                0.5378 Ry au,          1.3668 Debye
        Dipole field          0.0016 Ry au, 

        Potential amp.       -0.1426 Ry
        Total length         45.0719 bohr


     Adding external electric field

     Computed dipole along edir(3) : 
        Dipole                0.5378 Ry au,          1.3668 Debye
        Dipole field          0.0016 Ry au, 

        Potential amp.       -0.1426 Ry
        Total length         45.0719 bohr


     total cpu time spent up to now is      490.7 secs

     total energy              =   -1322.15347654 Ry
     estimated scf accuracy    <       7.41513408 Ry

     total magnetization       =     9.68 Bohr mag/cell
     absolute magnetization    =    10.17 Bohr mag/cell

     iteration #  3     ecut=    55.12 Ry     beta= 0.10
     Davidson diagonalization with overlap
     ethr =  5.37E-03,  avg # of iterations =  1.2

     Adding external electric field

     Computed dipole along edir(3) : 
        Dipole               -0.1414 Ry au,         -0.3595 Debye
        Dipole field         -0.0004 Ry au, 

        Potential amp.        0.0375 Ry
        Total length         45.0719 bohr


     Adding external electric field

     Computed dipole along edir(3) : 
        Dipole               -0.1414 Ry au,         -0.3595 Debye
        Dipole field         -0.0004 Ry au, 

        Potential amp.        0.0375 Ry
        Total length         45.0719 bohr


     total cpu time spent up to now is      626.6 secs

     total energy              =   -1322.29511557 Ry
     estimated scf accuracy    <      36.54848813 Ry

     total magnetization       =     9.38 Bohr mag/cell
     absolute magnetization    =     9.66 Bohr mag/cell

     iteration #  4     ecut=    55.12 Ry     beta= 0.10
     Davidson diagonalization with overlap
     ethr =  5.37E-03,  avg # of iterations =  1.0

     Adding external electric field

     Computed dipole along edir(3) : 
        Dipole                0.0255 Ry au,          0.0649 Debye
        Dipole field          0.0001 Ry au, 

        Potential amp.       -0.0068 Ry
        Total length         45.0719 bohr


     Adding external electric field

     Computed dipole along edir(3) : 
        Dipole                0.0255 Ry au,          0.0649 Debye
        Dipole field          0.0001 Ry au, 

        Potential amp.       -0.0068 Ry
        Total length         45.0719 bohr


     total cpu time spent up to now is      757.9 secs

     total energy              =   -1322.88752903 Ry
     estimated scf accuracy    <       4.45788730 Ry

     total magnetization       =     7.33 Bohr mag/cell
     absolute magnetization    =     7.62 Bohr mag/cell

     iteration #  5     ecut=    55.12 Ry     beta= 0.10
     Davidson diagonalization with overlap
     ethr =  3.23E-03,  avg # of iterations =  1.0

     Adding external electric field

     Computed dipole along edir(3) : 
        Dipole               -0.0114 Ry au,         -0.0290 Debye
        Dipole field         -0.0000 Ry au, 

        Potential amp.        0.0030 Ry
        Total length         45.0719 bohr


     Adding external electric field

     Computed dipole along edir(3) : 
        Dipole               -0.0114 Ry au,         -0.0290 Debye
        Dipole field         -0.0000 Ry au, 

        Potential amp.        0.0030 Ry
        Total length         45.0719 bohr


     total cpu time spent up to now is      886.7 secs

     total energy              =   -1322.84286234 Ry
     estimated scf accuracy    <       1.68096707 Ry

     total magnetization       =     6.59 Bohr mag/cell
     absolute magnetization    =     6.86 Bohr mag/cell

     iteration #  6     ecut=    55.12 Ry     beta= 0.10
     Davidson diagonalization with overlap
     ethr =  1.22E-03,  avg # of iterations =  1.0

     Adding external electric field

     Computed dipole along edir(3) : 
        Dipole                0.0640 Ry au,          0.1627 Debye
        Dipole field          0.0002 Ry au, 

        Potential amp.       -0.0170 Ry
        Total length         45.0719 bohr


     Adding external electric field

     Computed dipole along edir(3) : 
        Dipole                0.0640 Ry au,          0.1627 Debye
        Dipole field          0.0002 Ry au, 

        Potential amp.       -0.0170 Ry
        Total length         45.0719 bohr


     total cpu time spent up to now is     1016.1 secs

     total energy              =   -1323.35103053 Ry
     estimated scf accuracy    <       1.06103184 Ry

     total magnetization       =     6.48 Bohr mag/cell
     absolute magnetization    =     6.94 Bohr mag/cell

     iteration #  7     ecut=    55.12 Ry     beta= 0.10
     Davidson diagonalization with overlap
     ethr =  7.69E-04,  avg # of iterations =  1.6

     Adding external electric field

     Computed dipole along edir(3) : 
        Dipole               -0.0018 Ry au,         -0.0047 Debye
        Dipole field         -0.0000 Ry au, 

        Potential amp.        0.0005 Ry
        Total length         45.0719 bohr


     Adding external electric field

     Computed dipole along edir(3) : 
        Dipole               -0.0018 Ry au,         -0.0047 Debye
        Dipole field         -0.0000 Ry au, 

        Potential amp.        0.0005 Ry
        Total length         45.0719 bohr


     total cpu time spent up to now is     1153.6 secs

     total energy              =   -1323.81433441 Ry
     estimated scf accuracy    <       0.57433800 Ry

     total magnetization       =     5.40 Bohr mag/cell
     absolute magnetization    =     6.29 Bohr mag/cell

     iteration #  8     ecut=    55.12 Ry     beta= 0.10
     Davidson diagonalization with overlap
     ethr =  4.16E-04,  avg # of iterations =  1.2

     Adding external electric field

     Computed dipole along edir(3) : 
        Dipole               -0.0103 Ry au,         -0.0263 Debye
        Dipole field         -0.0000 Ry au, 

        Potential amp.        0.0027 Ry
        Total length         45.0719 bohr


     Adding external electric field

     Computed dipole along edir(3) : 
        Dipole               -0.0103 Ry au,         -0.0263 Debye
        Dipole field         -0.0000 Ry au, 

        Potential amp.        0.0027 Ry
        Total length         45.0719 bohr


     total cpu time spent up to now is     1288.6 secs

     total energy              =   -1326.68378782 Ry
     estimated scf accuracy    <       0.43094712 Ry

     total magnetization       =     4.67 Bohr mag/cell
     absolute magnetization    =     5.68 Bohr mag/cell

     iteration #  9     ecut=    55.12 Ry     beta= 0.10
     Davidson diagonalization with overlap
     ethr =  3.12E-04,  avg # of iterations =  2.2

     Adding external electric field

     Computed dipole along edir(3) : 
        Dipole                0.0235 Ry au,          0.0597 Debye
        Dipole field          0.0001 Ry au, 

        Potential amp.       -0.0062 Ry
        Total length         45.0719 bohr


     Adding external electric field

     Computed dipole along edir(3) : 
        Dipole                0.0235 Ry au,          0.0597 Debye
        Dipole field          0.0001 Ry au, 

        Potential amp.       -0.0062 Ry
        Total length         45.0719 bohr


     total cpu time spent up to now is     1441.8 secs

     total energy              =   -1327.27801500 Ry
     estimated scf accuracy    <       0.10025284 Ry

     total magnetization       =     1.91 Bohr mag/cell
     absolute magnetization    =     3.50 Bohr mag/cell

     iteration # 10     ecut=    55.12 Ry     beta= 0.10
     Davidson diagonalization with overlap
     c_bands:  1 eigenvalues not converged
     ethr =  7.26E-05,  avg # of iterations =  4.5

     Adding external electric field

     Computed dipole along edir(3) : 
        Dipole                0.0246 Ry au,          0.0625 Debye
        Dipole field          0.0001 Ry au, 

        Potential amp.       -0.0065 Ry
        Total length         45.0719 bohr


     Adding external electric field

     Computed dipole along edir(3) : 
        Dipole                0.0246 Ry au,          0.0625 Debye
        Dipole field          0.0001 Ry au, 

        Potential amp.       -0.0065 Ry
        Total length         45.0719 bohr


     total cpu time spent up to now is     1868.8 secs

     total energy              =   -1327.55379460 Ry
     estimated scf accuracy    <       0.15505588 Ry

     total magnetization       =     1.14 Bohr mag/cell
     absolute magnetization    =     2.62 Bohr mag/cell

     iteration # 11     ecut=    55.12 Ry     beta= 0.10
     Davidson diagonalization with overlap
     ethr =  7.26E-05,  avg # of iterations =  1.5

     Adding external electric field

     Computed dipole along edir(3) : 
        Dipole                0.0205 Ry au,          0.0521 Debye
        Dipole field          0.0001 Ry au, 

        Potential amp.       -0.0054 Ry
        Total length         45.0719 bohr


     Adding external electric field

     Computed dipole along edir(3) : 
        Dipole                0.0205 Ry au,          0.0521 Debye
        Dipole field          0.0001 Ry au, 

        Potential amp.       -0.0054 Ry
        Total length         45.0719 bohr


     total cpu time spent up to now is     2005.2 secs

     total energy              =   -1326.91015002 Ry
     estimated scf accuracy    <       0.09410260 Ry

     total magnetization       =     0.05 Bohr mag/cell
     absolute magnetization    =     1.67 Bohr mag/cell

     iteration # 12     ecut=    55.12 Ry     beta= 0.10
     Davidson diagonalization with overlap
     ethr =  6.82E-05,  avg # of iterations =  2.0

     Adding external electric field

     Computed dipole along edir(3) : 
        Dipole                0.0166 Ry au,          0.0422 Debye
        Dipole field          0.0000 Ry au, 

        Potential amp.       -0.0044 Ry
        Total length         45.0719 bohr


     Adding external electric field

     Computed dipole along edir(3) : 
        Dipole                0.0166 Ry au,          0.0422 Debye
        Dipole field          0.0000 Ry au, 

        Potential amp.       -0.0044 Ry
        Total length         45.0719 bohr


     total cpu time spent up to now is     2150.1 secs

     total energy              =   -1326.50894420 Ry
     estimated scf accuracy    <       0.01181445 Ry

     total magnetization       =     0.03 Bohr mag/cell
     absolute magnetization    =     1.44 Bohr mag/cell

     iteration # 13     ecut=    55.12 Ry     beta= 0.10
     Davidson diagonalization with overlap
     c_bands:  1 eigenvalues not converged
     c_bands:  1 eigenvalues not converged
     c_bands:  1 eigenvalues not converged
     c_bands:  1 eigenvalues not converged
     c_bands:  1 eigenvalues not converged
     c_bands:  1 eigenvalues not converged
     c_bands:  1 eigenvalues not converged
     c_bands:  1 eigenvalues not converged
     c_bands:  1 eigenvalues not converged
     c_bands:  1 eigenvalues not converged
     c_bands:  1 eigenvalues not converged
     ethr =  8.56E-06,  avg # of iterations = 10.4

     Adding external electric field

     Computed dipole along edir(3) : 
        Dipole                0.0123 Ry au,          0.0313 Debye
        Dipole field          0.0000 Ry au, 

        Potential amp.       -0.0033 Ry
        Total length         45.0719 bohr


     Adding external electric field

     Computed dipole along edir(3) : 
        Dipole                0.0123 Ry au,          0.0313 Debye
        Dipole field          0.0000 Ry au, 

        Potential amp.       -0.0033 Ry
        Total length         45.0719 bohr


     total cpu time spent up to now is     2381.6 secs

     total energy              =   -1326.18690351 Ry
     estimated scf accuracy    <       0.00592543 Ry

     total magnetization       =    -0.03 Bohr mag/cell
     absolute magnetization    =     1.20 Bohr mag/cell

     iteration # 14     ecut=    55.12 Ry     beta= 0.10
     Davidson diagonalization with overlap
     c_bands:  1 eigenvalues not converged
     ethr =  4.29E-06,  avg # of iterations =  3.9

     Adding external electric field

     Computed dipole along edir(3) : 
        Dipole                0.0103 Ry au,          0.0262 Debye
        Dipole field          0.0000 Ry au, 

        Potential amp.       -0.0027 Ry
        Total length         45.0719 bohr


     Adding external electric field

     Computed dipole along edir(3) : 
        Dipole                0.0103 Ry au,          0.0262 Debye
        Dipole field          0.0000 Ry au, 

        Potential amp.       -0.0027 Ry
        Total length         45.0719 bohr


     total cpu time spent up to now is     2999.5 secs

     total energy              =   -1325.77207625 Ry
     estimated scf accuracy    <       0.00600716 Ry

     total magnetization       =    -0.05 Bohr mag/cell
     absolute magnetization    =     1.07 Bohr mag/cell

     iteration # 15     ecut=    55.12 Ry     beta= 0.10
     Davidson diagonalization with overlap
     ethr =  4.29E-06,  avg # of iterations =  1.2

     Adding external electric field

     Computed dipole along edir(3) : 
        Dipole                0.0095 Ry au,          0.0240 Debye
        Dipole field          0.0000 Ry au, 

        Potential amp.       -0.0025 Ry
        Total length         45.0719 bohr


     Adding external electric field

     Computed dipole along edir(3) : 
        Dipole                0.0095 Ry au,          0.0240 Debye
        Dipole field          0.0000 Ry au, 

        Potential amp.       -0.0025 Ry
        Total length         45.0719 bohr


     total cpu time spent up to now is     3131.6 secs

     total energy              =   -1325.66096953 Ry
     estimated scf accuracy    <       0.00383084 Ry

     total magnetization       =    -0.00 Bohr mag/cell
     absolute magnetization    =     1.05 Bohr mag/cell

     iteration # 16     ecut=    55.12 Ry     beta= 0.10
     Davidson diagonalization with overlap
     c_bands:  1 eigenvalues not converged
     ethr =  2.78E-06,  avg # of iterations =  3.1

     Adding external electric field

     Computed dipole along edir(3) : 
        Dipole                0.0120 Ry au,          0.0305 Debye
        Dipole field          0.0000 Ry au, 

        Potential amp.       -0.0032 Ry
        Total length         45.0719 bohr


     Adding external electric field

     Computed dipole along edir(3) : 
        Dipole                0.0120 Ry au,          0.0305 Debye
        Dipole field          0.0000 Ry au, 

        Potential amp.       -0.0032 Ry
        Total length         45.0719 bohr


     total cpu time spent up to now is     3296.3 secs

     total energy              =   -1325.33315009 Ry
     estimated scf accuracy    <       0.00056635 Ry

     total magnetization       =    -0.18 Bohr mag/cell
     absolute magnetization    =     0.62 Bohr mag/cell

     iteration # 17     ecut=    55.12 Ry     beta= 0.10
     Davidson diagonalization with overlap
     c_bands:  1 eigenvalues not converged
     c_bands:  1 eigenvalues not converged
     ethr =  4.10E-07,  avg # of iterations =  4.4

     Adding external electric field

     Computed dipole along edir(3) : 
        Dipole                0.0125 Ry au,          0.0318 Debye
        Dipole field          0.0000 Ry au, 

        Potential amp.       -0.0033 Ry
        Total length         45.0719 bohr


     Adding external electric field

     Computed dipole along edir(3) : 
        Dipole                0.0125 Ry au,          0.0318 Debye
        Dipole field          0.0000 Ry au, 

        Potential amp.       -0.0033 Ry
        Total length         45.0719 bohr


     total cpu time spent up to now is     3459.1 secs

     total energy              =   -1325.06488624 Ry
     estimated scf accuracy    <       0.00030408 Ry

     total magnetization       =    -0.12 Bohr mag/cell
     absolute magnetization    =     0.64 Bohr mag/cell

     iteration # 18     ecut=    55.12 Ry     beta= 0.10
     Davidson diagonalization with overlap
     ethr =  2.20E-07,  avg # of iterations =  2.7

     Adding external electric field

     Computed dipole along edir(3) : 
        Dipole                0.0170 Ry au,          0.0433 Debye
        Dipole field          0.0001 Ry au, 

        Potential amp.       -0.0045 Ry
        Total length         45.0719 bohr


     Adding external electric field

     Computed dipole along edir(3) : 
        Dipole                0.0170 Ry au,          0.0433 Debye
        Dipole field          0.0001 Ry au, 

        Potential amp.       -0.0045 Ry
        Total length         45.0719 bohr


     total cpu time spent up to now is     3611.8 secs

     total energy              =   -1324.86919582 Ry
     estimated scf accuracy    <       0.00027191 Ry

     total magnetization       =    -0.13 Bohr mag/cell
     absolute magnetization    =     0.58 Bohr mag/cell

     iteration # 19     ecut=    55.12 Ry     beta= 0.10
     Davidson diagonalization with overlap
     ethr =  1.97E-07,  avg # of iterations =  5.0

     Adding external electric field

     Computed dipole along edir(3) : 
        Dipole                0.0162 Ry au,          0.0411 Debye
        Dipole field          0.0000 Ry au, 

        Potential amp.       -0.0043 Ry
        Total length         45.0719 bohr


     Adding external electric field

     Computed dipole along edir(3) : 
        Dipole                0.0162 Ry au,          0.0411 Debye
        Dipole field          0.0000 Ry au, 

        Potential amp.       -0.0043 Ry
        Total length         45.0719 bohr


     total cpu time spent up to now is     4466.7 secs

     total energy              =   -1324.70198178 Ry
     estimated scf accuracy    <       0.00057768 Ry

     total magnetization       =    -0.10 Bohr mag/cell
     absolute magnetization    =     0.47 Bohr mag/cell

     iteration # 20     ecut=    55.12 Ry     beta= 0.10
     Davidson diagonalization with overlap
     c_bands:  1 eigenvalues not converged
     ethr =  1.97E-07,  avg # of iterations =  4.8

     Adding external electric field

     Computed dipole along edir(3) : 
        Dipole                0.0161 Ry au,          0.0409 Debye
        Dipole field          0.0000 Ry au, 

        Potential amp.       -0.0043 Ry
        Total length         45.0719 bohr


     Adding external electric field

     Computed dipole along edir(3) : 
        Dipole                0.0161 Ry au,          0.0409 Debye
        Dipole field          0.0000 Ry au, 

        Potential amp.       -0.0043 Ry
        Total length         45.0719 bohr


     total cpu time spent up to now is     4853.8 secs

     total energy              =   -1324.52289995 Ry
     estimated scf accuracy    <       0.00013190 Ry

     total magnetization       =    -0.10 Bohr mag/cell
     absolute magnetization    =     0.34 Bohr mag/cell

     iteration # 21     ecut=    55.12 Ry     beta= 0.10
     Davidson diagonalization with overlap
     ethr =  9.56E-08,  avg # of iterations =  2.2

     Adding external electric field

     Computed dipole along edir(3) : 
        Dipole                0.0148 Ry au,          0.0376 Debye
        Dipole field          0.0000 Ry au, 

        Potential amp.       -0.0039 Ry
        Total length         45.0719 bohr


     Adding external electric field

     Computed dipole along edir(3) : 
        Dipole                0.0148 Ry au,          0.0376 Debye
        Dipole field          0.0000 Ry au, 

        Potential amp.       -0.0039 Ry
        Total length         45.0719 bohr


     total cpu time spent up to now is     5170.2 secs

     total energy              =   -1324.35506898 Ry
     estimated scf accuracy    <       0.00002332 Ry

     total magnetization       =    -0.11 Bohr mag/cell
     absolute magnetization    =     0.29 Bohr mag/cell

     iteration # 22     ecut=    55.12 Ry     beta= 0.10
     Davidson diagonalization with overlap
     ethr =  1.69E-08,  avg # of iterations =  5.9

     Adding external electric field

     Computed dipole along edir(3) : 
        Dipole                0.0145 Ry au,          0.0369 Debye
        Dipole field          0.0000 Ry au, 

        Potential amp.       -0.0038 Ry
        Total length         45.0719 bohr


     Adding external electric field

     Computed dipole along edir(3) : 
        Dipole                0.0145 Ry au,          0.0369 Debye
        Dipole field          0.0000 Ry au, 

        Potential amp.       -0.0038 Ry
        Total length         45.0719 bohr


     total cpu time spent up to now is     5626.7 secs

     total energy              =   -1324.21034352 Ry
     estimated scf accuracy    <       0.00001993 Ry

     total magnetization       =    -0.11 Bohr mag/cell
     absolute magnetization    =     0.25 Bohr mag/cell

     iteration # 23     ecut=    55.12 Ry     beta= 0.10
     Davidson diagonalization with overlap
     ethr =  1.44E-08,  avg # of iterations =  2.0

     Adding external electric field

     Computed dipole along edir(3) : 
        Dipole                0.0139 Ry au,          0.0354 Debye
        Dipole field          0.0000 Ry au, 

        Potential amp.       -0.0037 Ry
        Total length         45.0719 bohr


     Adding external electric field

     Computed dipole along edir(3) : 
        Dipole                0.0139 Ry au,          0.0354 Debye
        Dipole field          0.0000 Ry au, 

        Potential amp.       -0.0037 Ry
        Total length         45.0719 bohr


     total cpu time spent up to now is     5922.2 secs

     total energy              =   -1324.07079639 Ry
     estimated scf accuracy    <       0.00001284 Ry

     total magnetization       =    -0.11 Bohr mag/cell
     absolute magnetization    =     0.22 Bohr mag/cell

     iteration # 24     ecut=    55.12 Ry     beta= 0.10
     Davidson diagonalization with overlap
     c_bands:  1 eigenvalues not converged
     c_bands:  1 eigenvalues not converged
     ethr =  9.30E-09,  avg # of iterations =  5.6

     Adding external electric field

     Computed dipole along edir(3) : 
        Dipole                0.0190 Ry au,          0.0483 Debye
        Dipole field          0.0001 Ry au, 

        Potential amp.       -0.0050 Ry
        Total length         45.0719 bohr


     Adding external electric field

     Computed dipole along edir(3) : 
        Dipole                0.0190 Ry au,          0.0483 Debye
        Dipole field          0.0001 Ry au, 

        Potential amp.       -0.0050 Ry
        Total length         45.0719 bohr


     Magnetic moment per site:
     atom:    1    charge:    8.9497    magn:    0.0091    constr:    0.0000
     atom:    2    charge:    8.9499    magn:    0.0091    constr:    0.0000
     atom:    3    charge:   10.2585    magn:   -0.0148    constr:    0.0000
     atom:    4    charge:   10.2585    magn:   -0.0147    constr:    0.0000
     atom:    5    charge:    9.0737    magn:    0.0043    constr:    0.0000
     atom:    6    charge:    9.0741    magn:    0.0044    constr:    0.0000
     atom:    7    charge:   10.3175    magn:    0.0016    constr:    0.0000
     atom:    8    charge:   10.3175    magn:    0.0016    constr:    0.0000
     atom:    9    charge:    8.9757    magn:    0.0038    constr:    0.0000
     atom:   10    charge:    8.9764    magn:    0.0037    constr:    0.0000
     atom:   11    charge:   10.2790    magn:   -0.0123    constr:    0.0000
     atom:   12    charge:   10.2790    magn:   -0.0123    constr:    0.0000

     total cpu time spent up to now is     6336.0 secs

     End of self-consistent calculation

     Number of k-points >= 100: set verbosity='high' to print the bands.

     the Fermi energy is     1.0946 ev

!    total energy              =   -1322.74357814 Ry
     estimated scf accuracy    <       0.00000854 Ry
     smearing contrib. (-TS)   =      -0.06510477 Ry
     internal energy E=F+TS    =   -1322.67847337 Ry

     The total energy is F=E-TS. E is the sum of the following terms:
     one-electron contribution =  -11102.77013319 Ry
     hartree contribution      =    5610.46964936 Ry
     xc contribution           =    -373.32581862 Ry
     ewald contribution        =    4542.94782802 Ry
     electric field correction =       0.00000106 Ry

     total magnetization       =    -0.09 Bohr mag/cell
     absolute magnetization    =     0.18 Bohr mag/cell

     convergence has been achieved in  24 iterations

     Forces acting on atoms (cartesian axes, Ry/au):

     atom    1 type  1   force =    -0.00054623   -0.00032108    0.01126949
     atom    2 type  1   force =    -0.00050099   -0.00029499    0.01131344
     atom    3 type  2   force =    -0.00625402   -0.00363160    0.01282454
     atom    4 type  2   force =    -0.00623313   -0.00366394    0.01282472
     atom    5 type  1   force =     0.00353369    0.00206590   -0.01333269
     atom    6 type  1   force =     0.00358463    0.00209570   -0.01329981
     atom    7 type  2   force =     0.00315834    0.00186405   -0.01181168
     atom    8 type  2   force =     0.00317707    0.00183426   -0.01181262
     atom    9 type  1   force =     0.00030038    0.00017907    0.00096413
     atom   10 type  1   force =     0.00027404    0.00016179    0.00099278
     atom   11 type  2   force =    -0.00023911   -0.00015648    0.00003430
     atom   12 type  2   force =    -0.00025467   -0.00013269    0.00003341

     Total force =     0.037231     Total SCF correction =     0.008124
     SCF correction compared to forces is large: reduce conv_thr to get better values

     Writing output data file ./Ni2Nb2/Ni2Nb2_beef.save/

     init_run     :    153.98s CPU    178.46s WALL (       1 calls)
     electrons    :   5641.70s CPU   6151.52s WALL (       1 calls)
     forces       :    110.26s CPU    110.64s WALL (       1 calls)

     Called by init_run:
     wfcinit      :    134.96s CPU    135.64s WALL (       1 calls)
     potinit      :     14.12s CPU     36.16s WALL (       1 calls)
     hinit0       :      2.77s CPU      3.88s WALL (       1 calls)

     Called by electrons:
     c_bands      :   5027.58s CPU   5529.31s WALL (      24 calls)
     sum_band     :    555.43s CPU    560.92s WALL (      24 calls)
     v_of_rho     :     44.51s CPU     66.99s WALL (      25 calls)
     newd         :     26.16s CPU     27.27s WALL (      25 calls)
     mix_rho      :      1.21s CPU      1.25s WALL (      24 calls)
     vdW_kernel   :      5.22s CPU     13.68s WALL (       1 calls)

     Called by c_bands:
     init_us_2    :     14.87s CPU     15.09s WALL (    7400 calls)
     cegterg      :   4911.74s CPU   5401.45s WALL (    3552 calls)

     Called by *egterg:
     cdiaghg      :    259.98s CPU    267.68s WALL (   14161 calls)
     h_psi        :   2643.10s CPU   3029.81s WALL (   14309 calls)
     s_psi        :    336.05s CPU    341.17s WALL (   14309 calls)
     g_psi        :      2.32s CPU      2.37s WALL (   10609 calls)

     Called by h_psi:
     h_psi:calbec :    650.12s CPU    683.59s WALL (   14309 calls)
     vloc_psi     :   1642.18s CPU   1990.82s WALL (   14309 calls)
     add_vuspsi   :    346.60s CPU    351.20s WALL (   14309 calls)

     General routines
     calbec       :   1009.59s CPU   1044.49s WALL (   18453 calls)
     fft          :     41.91s CPU     54.94s WALL (    2302 calls)
     ffts         :      0.58s CPU      0.59s WALL (      98 calls)
     fftw         :   1831.01s CPU   2181.87s WALL ( 1676976 calls)
     interpolate  :      1.21s CPU      1.23s WALL (      50 calls)

     Parallel routines
     fft_scatt_xy :     88.54s CPU     89.64s WALL ( 1679376 calls)
     fft_scatt_yz :    941.17s CPU   1293.51s WALL ( 1679376 calls)

     PWSCF        :      1h38m CPU      1h48m WALL


   This run was terminated on:  17:30:54  27Jun2022            

=------------------------------------------------------------------------------=
   JOB DONE.
=------------------------------------------------------------------------------=
