
     Program PWSCF v.6.6 starts on 27Jun2022 at 20:31:59 

     This program is part of the open-source Quantum ESPRESSO suite
     for quantum simulation of materials; please cite
         "P. Giannozzi et al., J. Phys.:Condens. Matter 21 395502 (2009);
         "P. Giannozzi et al., J. Phys.:Condens. Matter 29 465901 (2017);
          URL http://www.quantum-espresso.org", 
     in publications or presentations arising from this work. More details at
     http://www.quantum-espresso.org/quote

     Parallel version (MPI), running on    37 processors

     MPI processes distributed on     1 nodes
     R & G space division:  proc/nbgrp/npool/nimage =      37
     Fft bands division:     nmany     =       1
     Reading input from Ni2Pd2.in
Warning: card &CELL ignored
Warning: card / ignored

     Current dimensions of program PWSCF are:
     Max number of different atomic species (ntypx) = 10
     Max number of k-points (npk) =  40000
     Max angular momentum in pseudopotentials (lmaxx) =  3
     Presently stress not available with electric field and gates

     Message from routine cell_base_init:
     DEPRECATED: use true lattice parameter, not A to a.u. conversion factor
     file Ni.pbe-n-rrkjus_psl.1.0.0.UPF: wavefunction(s)  3D renormalized
     file Pd.pbe-n-rrkjus_psl.1.0.0.UPF: wavefunction(s)  4D renormalized

     **************************************************************************
     Initializing libbeef V0.1.2 with the BEEF-vdW functional.
     Citation: Wellendorff et al., PRB 85, 235149 (2012).
     **************************************************************************


     IMPORTANT: XC functional enforced from input :
     Exchange-correlation= BEEF-VDW
                           (   1   4  43  14   2   0   0)
     Any further DFT definition will be discarded
     Please, verify this is what you really want


     Subspace diagonalization in iterative solution of the eigenvalue problem:
     a serial algorithm will be used


     Parallelization info
     --------------------
     sticks:   dense  smooth     PW     G-vecs:    dense   smooth      PW
     Min         105      42     12                24187     6112     946
     Max         106      44     13                24204     6126     959
     Sum        3907    1557    453               895239   226461   35209



     bravais-lattice index     =            0
     lattice parameter (alat)  =       1.8897  a.u.
     unit-cell volume          =    4095.0517 (a.u.)^3
     number of atoms/cell      =           12
     number of atomic types    =            2
     number of electrons       =       120.00
     number of Kohn-Sham states=           72
     kinetic-energy cutoff     =      55.1240  Ry
     charge density cutoff     =     551.2396  Ry
     convergence threshold     =      1.0E-05
     mixing beta               =       0.1000
     number of iterations used =           10  plain     mixing
     Exchange-correlation= BEEF-VDW
                           (   1   4  43  14   2   0   0)

     celldm(1)=   1.889726  celldm(2)=   0.000000  celldm(3)=   0.000000
     celldm(4)=   0.000000  celldm(5)=   0.000000  celldm(6)=   0.000000

     crystal axes: (cart. coord. in units of alat)
               a(1) = (   5.305451   0.000000   0.000000 )  
               a(2) = (   2.474366   4.693114   0.000000 )  
               a(3) = (   0.000000   0.000000  24.371343 )  

     reciprocal axes: (cart. coord. in units 2 pi/alat)
               b(1) = (  0.188485 -0.099376  0.000000 )  
               b(2) = (  0.000000  0.213078  0.000000 )  
               b(3) = (  0.000000  0.000000  0.041032 )  


     PseudoPot. # 1 for Ni read from file:
     ../pseudo/Ni.pbe-n-rrkjus_psl.1.0.0.UPF
     MD5 check sum: 9f76af1bddcd5839b31985483df98d0a
     Pseudo is Ultrasoft + core correction, Zval = 10.0
     Generated using "atomic" code by A. Dal Corso v.6.5
     Using radial grid of 1195 points,  6 beta functions with: 
                l(1) =   0
                l(2) =   0
                l(3) =   1
                l(4) =   1
                l(5) =   2
                l(6) =   2
     Q(r) pseudized with 0 coefficients 


     PseudoPot. # 2 for Pd read from file:
     ../pseudo/Pd.pbe-n-rrkjus_psl.1.0.0.UPF
     MD5 check sum: d9f693bf1c5b493397a6bd6f2231cfc3
     Pseudo is Ultrasoft + core correction, Zval = 10.0
     Generated using "atomic" code by A. Dal Corso v.6.3
     Using radial grid of 1235 points,  6 beta functions with: 
                l(1) =   0
                l(2) =   0
                l(3) =   1
                l(4) =   1
                l(5) =   2
                l(6) =   2
     Q(r) pseudized with 0 coefficients 


     atomic species   valence    mass     pseudopotential
        Ni            10.00    58.69340     Ni( 1.00)
        Pd            10.00   106.42000     Pd( 1.00)

     Starting magnetic structure 
     atomic species   magnetization
        Ni           0.500
        Pd           0.000

     No symmetry found



   Cartesian axes

     site n.     atom                  positions (alat units)
         1           Ni  tau(   1) = (   0.0000000   0.0000000  10.0000000  )
         2           Ni  tau(   2) = (   3.8899083   2.3465571  10.0000000  )
         3           Pd  tau(   3) = (   2.6527254   0.0000000  10.0000000  )
         4           Pd  tau(   4) = (   1.2371829   2.3465571  10.0000000  )
         5           Ni  tau(   5) = (   5.3054507   3.2004722  12.1856714  )
         6           Ni  tau(   6) = (   1.4155424   0.8539150  12.1856714  )
         7           Pd  tau(   7) = (   2.6527254   3.2004722  12.1856714  )
         8           Pd  tau(   8) = (   4.0682678   0.8539150  12.1856714  )
         9           Ni  tau(   9) = (   2.8164288   1.6989886  14.2971774  )
        10           Ni  tau(  10) = (   6.7063527   4.0455563  14.2972281  )
        11           Pd  tau(  11) = (   5.5065559   1.7216091  14.3996647  )
        12           Pd  tau(  12) = (   4.0910643   4.0680813  14.3996641  )

     number of k points=    74  Fermi-Dirac smearing, width (Ry)=  0.0100
                       cart. coord. in units 2pi/alat
        k(    1) = (   0.0000000   0.0000000   0.0000000), wk =   0.0069444
        k(    2) = (   0.0000000   0.0177565   0.0000000), wk =   0.0138889
        k(    3) = (   0.0000000   0.0355130   0.0000000), wk =   0.0138889
        k(    4) = (   0.0000000   0.0532695   0.0000000), wk =   0.0138889
        k(    5) = (   0.0000000   0.0710260   0.0000000), wk =   0.0138889
        k(    6) = (   0.0000000   0.0887826   0.0000000), wk =   0.0138889
        k(    7) = (   0.0000000  -0.1065391   0.0000000), wk =   0.0069444
        k(    8) = (   0.0157071  -0.0082813   0.0000000), wk =   0.0138889
        k(    9) = (   0.0157071   0.0094752   0.0000000), wk =   0.0138889
        k(   10) = (   0.0157071   0.0272317   0.0000000), wk =   0.0138889
        k(   11) = (   0.0157071   0.0449882   0.0000000), wk =   0.0138889
        k(   12) = (   0.0157071   0.0627447   0.0000000), wk =   0.0138889
        k(   13) = (   0.0157071   0.0805012   0.0000000), wk =   0.0138889
        k(   14) = (   0.0157071  -0.1148204   0.0000000), wk =   0.0138889
        k(   15) = (   0.0157071  -0.0970639   0.0000000), wk =   0.0138889
        k(   16) = (   0.0157071  -0.0793074   0.0000000), wk =   0.0138889
        k(   17) = (   0.0157071  -0.0615508   0.0000000), wk =   0.0138889
        k(   18) = (   0.0157071  -0.0437943   0.0000000), wk =   0.0138889
        k(   19) = (   0.0157071  -0.0260378   0.0000000), wk =   0.0138889
        k(   20) = (   0.0314142  -0.0165626   0.0000000), wk =   0.0138889
        k(   21) = (   0.0314142   0.0011939   0.0000000), wk =   0.0138889
        k(   22) = (   0.0314142   0.0189504   0.0000000), wk =   0.0138889
        k(   23) = (   0.0314142   0.0367069   0.0000000), wk =   0.0138889
        k(   24) = (   0.0314142   0.0544634   0.0000000), wk =   0.0138889
        k(   25) = (   0.0314142   0.0722199   0.0000000), wk =   0.0138889
        k(   26) = (   0.0314142  -0.1231017   0.0000000), wk =   0.0138889
        k(   27) = (   0.0314142  -0.1053452   0.0000000), wk =   0.0138889
        k(   28) = (   0.0314142  -0.0875887   0.0000000), wk =   0.0138889
        k(   29) = (   0.0314142  -0.0698322   0.0000000), wk =   0.0138889
        k(   30) = (   0.0314142  -0.0520757   0.0000000), wk =   0.0138889
        k(   31) = (   0.0314142  -0.0343191   0.0000000), wk =   0.0138889
        k(   32) = (   0.0471213  -0.0248439   0.0000000), wk =   0.0138889
        k(   33) = (   0.0471213  -0.0070874   0.0000000), wk =   0.0138889
        k(   34) = (   0.0471213   0.0106691   0.0000000), wk =   0.0138889
        k(   35) = (   0.0471213   0.0284256   0.0000000), wk =   0.0138889
        k(   36) = (   0.0471213   0.0461821   0.0000000), wk =   0.0138889
        k(   37) = (   0.0471213   0.0639386   0.0000000), wk =   0.0138889
        k(   38) = (   0.0471213  -0.1313830   0.0000000), wk =   0.0138889
        k(   39) = (   0.0471213  -0.1136265   0.0000000), wk =   0.0138889
        k(   40) = (   0.0471213  -0.0958700   0.0000000), wk =   0.0138889
        k(   41) = (   0.0471213  -0.0781135   0.0000000), wk =   0.0138889
        k(   42) = (   0.0471213  -0.0603570   0.0000000), wk =   0.0138889
        k(   43) = (   0.0471213  -0.0426005   0.0000000), wk =   0.0138889
        k(   44) = (   0.0628285  -0.0331253   0.0000000), wk =   0.0138889
        k(   45) = (   0.0628285  -0.0153687   0.0000000), wk =   0.0138889
        k(   46) = (   0.0628285   0.0023878   0.0000000), wk =   0.0138889
        k(   47) = (   0.0628285   0.0201443   0.0000000), wk =   0.0138889
        k(   48) = (   0.0628285   0.0379008   0.0000000), wk =   0.0138889
        k(   49) = (   0.0628285   0.0556573   0.0000000), wk =   0.0138889
        k(   50) = (   0.0628285  -0.1396643   0.0000000), wk =   0.0138889
        k(   51) = (   0.0628285  -0.1219078   0.0000000), wk =   0.0138889
        k(   52) = (   0.0628285  -0.1041513   0.0000000), wk =   0.0138889
        k(   53) = (   0.0628285  -0.0863948   0.0000000), wk =   0.0138889
        k(   54) = (   0.0628285  -0.0686383   0.0000000), wk =   0.0138889
        k(   55) = (   0.0628285  -0.0508818   0.0000000), wk =   0.0138889
        k(   56) = (   0.0785356  -0.0414066   0.0000000), wk =   0.0138889
        k(   57) = (   0.0785356  -0.0236501   0.0000000), wk =   0.0138889
        k(   58) = (   0.0785356  -0.0058935   0.0000000), wk =   0.0138889
        k(   59) = (   0.0785356   0.0118630   0.0000000), wk =   0.0138889
        k(   60) = (   0.0785356   0.0296195   0.0000000), wk =   0.0138889
        k(   61) = (   0.0785356   0.0473760   0.0000000), wk =   0.0138889
        k(   62) = (   0.0785356  -0.1479456   0.0000000), wk =   0.0138889
        k(   63) = (   0.0785356  -0.1301891   0.0000000), wk =   0.0138889
        k(   64) = (   0.0785356  -0.1124326   0.0000000), wk =   0.0138889
        k(   65) = (   0.0785356  -0.0946761   0.0000000), wk =   0.0138889
        k(   66) = (   0.0785356  -0.0769196   0.0000000), wk =   0.0138889
        k(   67) = (   0.0785356  -0.0591631   0.0000000), wk =   0.0138889
        k(   68) = (  -0.0942427   0.0496879   0.0000000), wk =   0.0069444
        k(   69) = (  -0.0942427   0.0674444   0.0000000), wk =   0.0138889
        k(   70) = (  -0.0942427   0.0852009   0.0000000), wk =   0.0138889
        k(   71) = (  -0.0942427   0.1029574   0.0000000), wk =   0.0138889
        k(   72) = (  -0.0942427   0.1207139   0.0000000), wk =   0.0138889
        k(   73) = (  -0.0942427   0.1384704   0.0000000), wk =   0.0138889
        k(   74) = (  -0.0942427  -0.0568512   0.0000000), wk =   0.0069444

     Dense  grid:   895239 G-vectors     FFT dimensions: (  75,  75, 360)

     Smooth grid:   226461 G-vectors     FFT dimensions: (  48,  48, 225)

     Estimated max dynamical RAM per process >     233.38 MB

     Estimated total dynamical RAM >       8.43 GB
     Generating pointlists ...
     new r_m :   1.0709 (alat units)  2.0237 (a.u.) for type    1
     new r_m :   1.0709 (alat units)  2.0237 (a.u.) for type    2

     Initial potential from superposition of free atoms

     starting charge  119.99509, renormalised to  120.00000


     %%%%%%%%%%%%%%%%%%%%%%%%%%%%%%%%%%%%%%%%%%%%%%%%%%%%%%%%%%%%%%%%%%%%%%%%
     %                                                                      %
     % You are using vdW-DF, which was implemented by the Thonhauser group. %
     % Please cite the following two papers that made this development      %
     % possible and the two reviews that describe the various versions:     %
     %                                                                      %
     %   T. Thonhauser et al., PRL 115, 136402 (2015).                      %
     %   T. Thonhauser et al., PRB 76, 125112 (2007).                       %
     %   K. Berland et al., Rep. Prog. Phys. 78, 066501 (2015).             %
     %   D.C. Langreth et al., J. Phys.: Condens. Matter 21, 084203 (2009). %
     %                                                                      %
     %                                                                      %
     % If you are calculating the stress with vdW-DF, please also cite:     %
     %                                                                      %
     %   R. Sabatini et al., J. Phys.: Condens. Matter 24, 424209 (2012).   %
     %                                                                      %
     %%%%%%%%%%%%%%%%%%%%%%%%%%%%%%%%%%%%%%%%%%%%%%%%%%%%%%%%%%%%%%%%%%%%%%%%



     Adding external electric field

     Computed dipole along edir(3) : 
        Dipole                0.0001 Ry au,          0.0002 Debye
        Dipole field          0.0000 Ry au, 

        Potential amp.       -0.0000 Ry
        Total length         44.9038 bohr


     Adding external electric field

     Computed dipole along edir(3) : 
        Dipole                0.0001 Ry au,          0.0002 Debye
        Dipole field          0.0000 Ry au, 

        Potential amp.       -0.0000 Ry
        Total length         44.9038 bohr

     Starting wfcs are  108 randomized atomic wfcs

     total cpu time spent up to now is      149.3 secs

     Self-consistent Calculation

     iteration #  1     ecut=    55.12 Ry     beta= 0.10
     Davidson diagonalization with overlap
     ethr =  1.00E-02,  avg # of iterations =  2.0

     Adding external electric field

     Computed dipole along edir(3) : 
        Dipole                0.0187 Ry au,          0.0475 Debye
        Dipole field          0.0001 Ry au, 

        Potential amp.       -0.0052 Ry
        Total length         44.9038 bohr


     Adding external electric field

     Computed dipole along edir(3) : 
        Dipole                0.0187 Ry au,          0.0475 Debye
        Dipole field          0.0001 Ry au, 

        Potential amp.       -0.0052 Ry
        Total length         44.9038 bohr


     total cpu time spent up to now is      399.2 secs

     total energy              =   -1021.04268798 Ry
     estimated scf accuracy    <       9.22911236 Ry

     total magnetization       =     6.19 Bohr mag/cell
     absolute magnetization    =     6.19 Bohr mag/cell

     iteration #  2     ecut=    55.12 Ry     beta= 0.10
     Davidson diagonalization with overlap
     ethr =  7.69E-03,  avg # of iterations =  1.0

     Adding external electric field

     Computed dipole along edir(3) : 
        Dipole               -0.0338 Ry au,         -0.0860 Debye
        Dipole field         -0.0001 Ry au, 

        Potential amp.        0.0093 Ry
        Total length         44.9038 bohr


     Adding external electric field

     Computed dipole along edir(3) : 
        Dipole               -0.0338 Ry au,         -0.0860 Debye
        Dipole field         -0.0001 Ry au, 

        Potential amp.        0.0093 Ry
        Total length         44.9038 bohr


     total cpu time spent up to now is      624.4 secs

     total energy              =   -1021.81541766 Ry
     estimated scf accuracy    <       2.64076676 Ry

     total magnetization       =    11.03 Bohr mag/cell
     absolute magnetization    =    11.12 Bohr mag/cell

     iteration #  3     ecut=    55.12 Ry     beta= 0.10
     Davidson diagonalization with overlap
     ethr =  2.20E-03,  avg # of iterations =  1.0

     Adding external electric field

     Computed dipole along edir(3) : 
        Dipole                0.1042 Ry au,          0.2648 Debye
        Dipole field          0.0003 Ry au, 

        Potential amp.       -0.0287 Ry
        Total length         44.9038 bohr


     Adding external electric field

     Computed dipole along edir(3) : 
        Dipole                0.1042 Ry au,          0.2648 Debye
        Dipole field          0.0003 Ry au, 

        Potential amp.       -0.0287 Ry
        Total length         44.9038 bohr


     total cpu time spent up to now is      854.1 secs

     total energy              =   -1022.47849430 Ry
     estimated scf accuracy    <       5.32049551 Ry

     total magnetization       =     9.99 Bohr mag/cell
     absolute magnetization    =    10.10 Bohr mag/cell

     iteration #  4     ecut=    55.12 Ry     beta= 0.10
     Davidson diagonalization with overlap
     ethr =  2.20E-03,  avg # of iterations =  1.0

     Adding external electric field

     Computed dipole along edir(3) : 
        Dipole               -0.0383 Ry au,         -0.0973 Debye
        Dipole field         -0.0001 Ry au, 

        Potential amp.        0.0106 Ry
        Total length         44.9038 bohr


     Adding external electric field

     Computed dipole along edir(3) : 
        Dipole               -0.0383 Ry au,         -0.0973 Debye
        Dipole field         -0.0001 Ry au, 

        Potential amp.        0.0106 Ry
        Total length         44.9038 bohr


     total cpu time spent up to now is     1085.6 secs

     total energy              =   -1023.51937812 Ry
     estimated scf accuracy    <       4.51261333 Ry

     total magnetization       =     9.54 Bohr mag/cell
     absolute magnetization    =     9.60 Bohr mag/cell

     iteration #  5     ecut=    55.12 Ry     beta= 0.10
     Davidson diagonalization with overlap
     ethr =  2.20E-03,  avg # of iterations =  1.0

     Adding external electric field

     Computed dipole along edir(3) : 
        Dipole               -0.0059 Ry au,         -0.0151 Debye
        Dipole field         -0.0000 Ry au, 

        Potential amp.        0.0016 Ry
        Total length         44.9038 bohr


     Adding external electric field

     Computed dipole along edir(3) : 
        Dipole               -0.0059 Ry au,         -0.0151 Debye
        Dipole field         -0.0000 Ry au, 

        Potential amp.        0.0016 Ry
        Total length         44.9038 bohr


     total cpu time spent up to now is     1316.0 secs

     total energy              =   -1026.36643550 Ry
     estimated scf accuracy    <       1.38447672 Ry

     total magnetization       =     9.46 Bohr mag/cell
     absolute magnetization    =     9.49 Bohr mag/cell

     iteration #  6     ecut=    55.12 Ry     beta= 0.10
     Davidson diagonalization with overlap
     ethr =  1.15E-03,  avg # of iterations =  1.5

     Adding external electric field

     Computed dipole along edir(3) : 
        Dipole               -0.0108 Ry au,         -0.0275 Debye
        Dipole field         -0.0000 Ry au, 

        Potential amp.        0.0030 Ry
        Total length         44.9038 bohr


     Adding external electric field

     Computed dipole along edir(3) : 
        Dipole               -0.0108 Ry au,         -0.0275 Debye
        Dipole field         -0.0000 Ry au, 

        Potential amp.        0.0030 Ry
        Total length         44.9038 bohr


     total cpu time spent up to now is     1553.3 secs

     total energy              =   -1026.65177722 Ry
     estimated scf accuracy    <       2.57570163 Ry

     total magnetization       =     7.67 Bohr mag/cell
     absolute magnetization    =     7.89 Bohr mag/cell

     iteration #  7     ecut=    55.12 Ry     beta= 0.10
     Davidson diagonalization with overlap
     ethr =  1.15E-03,  avg # of iterations =  1.0

     Adding external electric field

     Computed dipole along edir(3) : 
        Dipole                0.0372 Ry au,          0.0945 Debye
        Dipole field          0.0001 Ry au, 

        Potential amp.       -0.0102 Ry
        Total length         44.9038 bohr


     Adding external electric field

     Computed dipole along edir(3) : 
        Dipole                0.0372 Ry au,          0.0945 Debye
        Dipole field          0.0001 Ry au, 

        Potential amp.       -0.0102 Ry
        Total length         44.9038 bohr


     total cpu time spent up to now is     1781.3 secs

     total energy              =   -1026.84418511 Ry
     estimated scf accuracy    <       0.97270397 Ry

     total magnetization       =     7.68 Bohr mag/cell
     absolute magnetization    =     7.97 Bohr mag/cell

     iteration #  8     ecut=    55.12 Ry     beta= 0.10
     Davidson diagonalization with overlap
     ethr =  8.11E-04,  avg # of iterations =  1.5

     Adding external electric field

     Computed dipole along edir(3) : 
        Dipole               -0.0135 Ry au,         -0.0344 Debye
        Dipole field         -0.0000 Ry au, 

        Potential amp.        0.0037 Ry
        Total length         44.9038 bohr


     Adding external electric field

     Computed dipole along edir(3) : 
        Dipole               -0.0135 Ry au,         -0.0344 Debye
        Dipole field         -0.0000 Ry au, 

        Potential amp.        0.0037 Ry
        Total length         44.9038 bohr


     total cpu time spent up to now is     2024.6 secs

     total energy              =   -1027.92468374 Ry
     estimated scf accuracy    <       3.09505201 Ry

     total magnetization       =     8.36 Bohr mag/cell
     absolute magnetization    =     8.98 Bohr mag/cell

     iteration #  9     ecut=    55.12 Ry     beta= 0.10
     Davidson diagonalization with overlap
     ethr =  8.11E-04,  avg # of iterations =  1.0

     Adding external electric field

     Computed dipole along edir(3) : 
        Dipole               -0.0223 Ry au,         -0.0568 Debye
        Dipole field         -0.0001 Ry au, 

        Potential amp.        0.0062 Ry
        Total length         44.9038 bohr


     Adding external electric field

     Computed dipole along edir(3) : 
        Dipole               -0.0223 Ry au,         -0.0568 Debye
        Dipole field         -0.0001 Ry au, 

        Potential amp.        0.0062 Ry
        Total length         44.9038 bohr


     total cpu time spent up to now is     2285.1 secs

     total energy              =   -1028.04045381 Ry
     estimated scf accuracy    <       0.38102330 Ry

     total magnetization       =     6.62 Bohr mag/cell
     absolute magnetization    =     7.36 Bohr mag/cell

     iteration # 10     ecut=    55.12 Ry     beta= 0.10
     Davidson diagonalization with overlap
     ethr =  3.18E-04,  avg # of iterations =  1.0

     Adding external electric field

     Computed dipole along edir(3) : 
        Dipole               -0.0129 Ry au,         -0.0327 Debye
        Dipole field         -0.0000 Ry au, 

        Potential amp.        0.0035 Ry
        Total length         44.9038 bohr


     Adding external electric field

     Computed dipole along edir(3) : 
        Dipole               -0.0129 Ry au,         -0.0327 Debye
        Dipole field         -0.0000 Ry au, 

        Potential amp.        0.0035 Ry
        Total length         44.9038 bohr


     total cpu time spent up to now is     2521.7 secs

     total energy              =   -1027.80206907 Ry
     estimated scf accuracy    <       0.59003508 Ry

     total magnetization       =     6.23 Bohr mag/cell
     absolute magnetization    =     6.98 Bohr mag/cell

     iteration # 11     ecut=    55.12 Ry     beta= 0.10
     Davidson diagonalization with overlap
     ethr =  3.18E-04,  avg # of iterations =  1.0

     Adding external electric field

     Computed dipole along edir(3) : 
        Dipole               -0.0081 Ry au,         -0.0205 Debye
        Dipole field         -0.0000 Ry au, 

        Potential amp.        0.0022 Ry
        Total length         44.9038 bohr


     Adding external electric field

     Computed dipole along edir(3) : 
        Dipole               -0.0081 Ry au,         -0.0205 Debye
        Dipole field         -0.0000 Ry au, 

        Potential amp.        0.0022 Ry
        Total length         44.9038 bohr


     total cpu time spent up to now is     2867.3 secs

     total energy              =   -1027.42681236 Ry
     estimated scf accuracy    <       0.15757201 Ry

     total magnetization       =     6.13 Bohr mag/cell
     absolute magnetization    =     6.89 Bohr mag/cell

     iteration # 12     ecut=    55.12 Ry     beta= 0.10
     Davidson diagonalization with overlap
     ethr =  1.31E-04,  avg # of iterations =  1.1

     Adding external electric field

     Computed dipole along edir(3) : 
        Dipole               -0.0030 Ry au,         -0.0076 Debye
        Dipole field         -0.0000 Ry au, 

        Potential amp.        0.0008 Ry
        Total length         44.9038 bohr


     Adding external electric field

     Computed dipole along edir(3) : 
        Dipole               -0.0030 Ry au,         -0.0076 Debye
        Dipole field         -0.0000 Ry au, 

        Potential amp.        0.0008 Ry
        Total length         44.9038 bohr


     total cpu time spent up to now is     3143.8 secs

     total energy              =   -1027.10104231 Ry
     estimated scf accuracy    <       0.04465114 Ry

     total magnetization       =     6.30 Bohr mag/cell
     absolute magnetization    =     7.07 Bohr mag/cell

     iteration # 13     ecut=    55.12 Ry     beta= 0.10
     Davidson diagonalization with overlap
     ethr =  3.72E-05,  avg # of iterations =  1.5

     Adding external electric field

     Computed dipole along edir(3) : 
        Dipole               -0.0034 Ry au,         -0.0087 Debye
        Dipole field         -0.0000 Ry au, 

        Potential amp.        0.0009 Ry
        Total length         44.9038 bohr


     Adding external electric field

     Computed dipole along edir(3) : 
        Dipole               -0.0034 Ry au,         -0.0087 Debye
        Dipole field         -0.0000 Ry au, 

        Potential amp.        0.0009 Ry
        Total length         44.9038 bohr


     total cpu time spent up to now is     3376.7 secs

     total energy              =   -1026.79867194 Ry
     estimated scf accuracy    <       0.01515018 Ry

     total magnetization       =     6.47 Bohr mag/cell
     absolute magnetization    =     7.25 Bohr mag/cell

     iteration # 14     ecut=    55.12 Ry     beta= 0.10
     Davidson diagonalization with overlap
     ethr =  1.26E-05,  avg # of iterations =  2.2

     Adding external electric field

     Computed dipole along edir(3) : 
        Dipole               -0.0008 Ry au,         -0.0020 Debye
        Dipole field         -0.0000 Ry au, 

        Potential amp.        0.0002 Ry
        Total length         44.9038 bohr


     Adding external electric field

     Computed dipole along edir(3) : 
        Dipole               -0.0008 Ry au,         -0.0020 Debye
        Dipole field         -0.0000 Ry au, 

        Potential amp.        0.0002 Ry
        Total length         44.9038 bohr


     total cpu time spent up to now is     3617.7 secs

     total energy              =   -1026.50795097 Ry
     estimated scf accuracy    <       0.00613705 Ry

     total magnetization       =     6.33 Bohr mag/cell
     absolute magnetization    =     7.12 Bohr mag/cell

     iteration # 15     ecut=    55.12 Ry     beta= 0.10
     Davidson diagonalization with overlap
     ethr =  5.11E-06,  avg # of iterations =  1.6

     Adding external electric field

     Computed dipole along edir(3) : 
        Dipole               -0.0016 Ry au,         -0.0041 Debye
        Dipole field         -0.0000 Ry au, 

        Potential amp.        0.0004 Ry
        Total length         44.9038 bohr


     Adding external electric field

     Computed dipole along edir(3) : 
        Dipole               -0.0016 Ry au,         -0.0041 Debye
        Dipole field         -0.0000 Ry au, 

        Potential amp.        0.0004 Ry
        Total length         44.9038 bohr


     total cpu time spent up to now is     3980.6 secs

     total energy              =   -1026.21856881 Ry
     estimated scf accuracy    <       0.00151237 Ry

     total magnetization       =     6.39 Bohr mag/cell
     absolute magnetization    =     7.17 Bohr mag/cell

     iteration # 16     ecut=    55.12 Ry     beta= 0.10
     Davidson diagonalization with overlap
     c_bands:  1 eigenvalues not converged
     ethr =  1.26E-06,  avg # of iterations =  3.1

     Adding external electric field

     Computed dipole along edir(3) : 
        Dipole                0.0001 Ry au,          0.0003 Debye
        Dipole field          0.0000 Ry au, 

        Potential amp.       -0.0000 Ry
        Total length         44.9038 bohr


     Adding external electric field

     Computed dipole along edir(3) : 
        Dipole                0.0001 Ry au,          0.0003 Debye
        Dipole field          0.0000 Ry au, 

        Potential amp.       -0.0000 Ry
        Total length         44.9038 bohr


     total cpu time spent up to now is     4226.3 secs

     total energy              =   -1025.92891111 Ry
     estimated scf accuracy    <       0.00498186 Ry

     total magnetization       =     6.43 Bohr mag/cell
     absolute magnetization    =     7.20 Bohr mag/cell

     iteration # 17     ecut=    55.12 Ry     beta= 0.10
     Davidson diagonalization with overlap
     ethr =  1.26E-06,  avg # of iterations =  1.4

     Adding external electric field

     Computed dipole along edir(3) : 
        Dipole               -0.0029 Ry au,         -0.0074 Debye
        Dipole field         -0.0000 Ry au, 

        Potential amp.        0.0008 Ry
        Total length         44.9038 bohr


     Adding external electric field

     Computed dipole along edir(3) : 
        Dipole               -0.0029 Ry au,         -0.0074 Debye
        Dipole field         -0.0000 Ry au, 

        Potential amp.        0.0008 Ry
        Total length         44.9038 bohr


     total cpu time spent up to now is     4459.9 secs

     total energy              =   -1025.65307680 Ry
     estimated scf accuracy    <       0.00160130 Ry

     total magnetization       =     6.42 Bohr mag/cell
     absolute magnetization    =     7.20 Bohr mag/cell

     iteration # 18     ecut=    55.12 Ry     beta= 0.10
     Davidson diagonalization with overlap
     ethr =  1.26E-06,  avg # of iterations =  1.2

     Adding external electric field

     Computed dipole along edir(3) : 
        Dipole               -0.0006 Ry au,         -0.0014 Debye
        Dipole field         -0.0000 Ry au, 

        Potential amp.        0.0002 Ry
        Total length         44.9038 bohr


     Adding external electric field

     Computed dipole along edir(3) : 
        Dipole               -0.0006 Ry au,         -0.0014 Debye
        Dipole field         -0.0000 Ry au, 

        Potential amp.        0.0002 Ry
        Total length         44.9038 bohr


     total cpu time spent up to now is     4706.2 secs

     total energy              =   -1025.43440770 Ry
     estimated scf accuracy    <       0.00041703 Ry

     total magnetization       =     6.46 Bohr mag/cell
     absolute magnetization    =     7.23 Bohr mag/cell

     iteration # 19     ecut=    55.12 Ry     beta= 0.10
     Davidson diagonalization with overlap
     ethr =  3.48E-07,  avg # of iterations =  1.5

     Adding external electric field

     Computed dipole along edir(3) : 
        Dipole               -0.0016 Ry au,         -0.0040 Debye
        Dipole field         -0.0000 Ry au, 

        Potential amp.        0.0004 Ry
        Total length         44.9038 bohr


     Adding external electric field

     Computed dipole along edir(3) : 
        Dipole               -0.0016 Ry au,         -0.0040 Debye
        Dipole field         -0.0000 Ry au, 

        Potential amp.        0.0004 Ry
        Total length         44.9038 bohr


     total cpu time spent up to now is     4950.9 secs

     total energy              =   -1025.26804542 Ry
     estimated scf accuracy    <       0.00021749 Ry

     total magnetization       =     6.50 Bohr mag/cell
     absolute magnetization    =     7.26 Bohr mag/cell

     iteration # 20     ecut=    55.12 Ry     beta= 0.10
     Davidson diagonalization with overlap
     ethr =  1.81E-07,  avg # of iterations =  1.5

     Adding external electric field

     Computed dipole along edir(3) : 
        Dipole               -0.0024 Ry au,         -0.0060 Debye
        Dipole field         -0.0000 Ry au, 

        Potential amp.        0.0007 Ry
        Total length         44.9038 bohr


     Adding external electric field

     Computed dipole along edir(3) : 
        Dipole               -0.0024 Ry au,         -0.0060 Debye
        Dipole field         -0.0000 Ry au, 

        Potential amp.        0.0007 Ry
        Total length         44.9038 bohr


     total cpu time spent up to now is     5255.6 secs

     total energy              =   -1025.31413056 Ry
     estimated scf accuracy    <       0.00016375 Ry

     total magnetization       =     6.51 Bohr mag/cell
     absolute magnetization    =     7.27 Bohr mag/cell

     iteration # 21     ecut=    55.12 Ry     beta= 0.10
     Davidson diagonalization with overlap
     ethr =  1.36E-07,  avg # of iterations =  1.4

     Adding external electric field

     Computed dipole along edir(3) : 
        Dipole               -0.0023 Ry au,         -0.0059 Debye
        Dipole field         -0.0000 Ry au, 

        Potential amp.        0.0006 Ry
        Total length         44.9038 bohr


     Adding external electric field

     Computed dipole along edir(3) : 
        Dipole               -0.0023 Ry au,         -0.0059 Debye
        Dipole field         -0.0000 Ry au, 

        Potential amp.        0.0006 Ry
        Total length         44.9038 bohr


     total cpu time spent up to now is     5518.6 secs

     total energy              =   -1025.28228218 Ry
     estimated scf accuracy    <       0.00008355 Ry

     total magnetization       =     6.53 Bohr mag/cell
     absolute magnetization    =     7.29 Bohr mag/cell

     iteration # 22     ecut=    55.12 Ry     beta= 0.10
     Davidson diagonalization with overlap
     ethr =  6.96E-08,  avg # of iterations =  1.8

     Adding external electric field

     Computed dipole along edir(3) : 
        Dipole               -0.0019 Ry au,         -0.0047 Debye
        Dipole field         -0.0000 Ry au, 

        Potential amp.        0.0005 Ry
        Total length         44.9038 bohr


     Adding external electric field

     Computed dipole along edir(3) : 
        Dipole               -0.0019 Ry au,         -0.0047 Debye
        Dipole field         -0.0000 Ry au, 

        Potential amp.        0.0005 Ry
        Total length         44.9038 bohr


     total cpu time spent up to now is     5760.9 secs

     total energy              =   -1025.13706564 Ry
     estimated scf accuracy    <       0.00001234 Ry

     total magnetization       =     6.54 Bohr mag/cell
     absolute magnetization    =     7.31 Bohr mag/cell

     iteration # 23     ecut=    55.12 Ry     beta= 0.10
     Davidson diagonalization with overlap
     ethr =  1.03E-08,  avg # of iterations =  3.9

     Adding external electric field

     Computed dipole along edir(3) : 
        Dipole               -0.0043 Ry au,         -0.0110 Debye
        Dipole field         -0.0000 Ry au, 

        Potential amp.        0.0012 Ry
        Total length         44.9038 bohr


     Adding external electric field

     Computed dipole along edir(3) : 
        Dipole               -0.0043 Ry au,         -0.0110 Debye
        Dipole field         -0.0000 Ry au, 

        Potential amp.        0.0012 Ry
        Total length         44.9038 bohr


     Magnetic moment per site:
     atom:    1    charge:    8.7398    magn:    0.8440    constr:    0.0000
     atom:    2    charge:    8.7404    magn:    0.8434    constr:    0.0000
     atom:    3    charge:    8.1270    magn:    0.2656    constr:    0.0000
     atom:    4    charge:    8.1270    magn:    0.2656    constr:    0.0000
     atom:    5    charge:    8.7902    magn:    0.8811    constr:    0.0000
     atom:    6    charge:    8.7886    magn:    0.8823    constr:    0.0000
     atom:    7    charge:    8.1510    magn:    0.3273    constr:    0.0000
     atom:    8    charge:    8.1510    magn:    0.3273    constr:    0.0000
     atom:    9    charge:    8.7587    magn:    0.8467    constr:    0.0000
     atom:   10    charge:    8.7570    magn:    0.8478    constr:    0.0000
     atom:   11    charge:    8.1248    magn:    0.2624    constr:    0.0000
     atom:   12    charge:    8.1248    magn:    0.2624    constr:    0.0000

     total cpu time spent up to now is     6088.8 secs

     End of self-consistent calculation

     Number of k-points >= 100: set verbosity='high' to print the bands.

     the Fermi energy is    -0.3310 ev

!    total energy              =   -1022.27490863 Ry
     estimated scf accuracy    <       0.00000788 Ry
     smearing contrib. (-TS)   =      -0.09537188 Ry
     internal energy E=F+TS    =   -1022.17953674 Ry

     The total energy is F=E-TS. E is the sum of the following terms:
     one-electron contribution =   -8647.60049233 Ry
     hartree contribution      =    4427.73950167 Ry
     xc contribution           =    -393.28665750 Ry
     ewald contribution        =    3590.96811137 Ry
     electric field correction =       0.00000006 Ry

     total magnetization       =     6.54 Bohr mag/cell
     absolute magnetization    =     7.31 Bohr mag/cell

     convergence has been achieved in  23 iterations

     Forces acting on atoms (cartesian axes, Ry/au):

     atom    1 type  1   force =     0.00615454    0.00371245    0.01046521
     atom    2 type  1   force =     0.00597867    0.00360653    0.01027944
     atom    3 type  2   force =    -0.00888184   -0.00530748   -0.00755815
     atom    4 type  2   force =    -0.00883754   -0.00537992   -0.00755789
     atom    5 type  1   force =    -0.00136448   -0.00082686    0.00118213
     atom    6 type  1   force =    -0.00163381   -0.00098989    0.00097838
     atom    7 type  2   force =     0.00495498    0.00307804   -0.00509753
     atom    8 type  2   force =     0.00503162    0.00294807   -0.00509789
     atom    9 type  1   force =     0.00009975    0.00006377    0.00044456
     atom   10 type  1   force =     0.00032564    0.00019768    0.00059820
     atom   11 type  2   force =    -0.00087761   -0.00060942    0.00068238
     atom   12 type  2   force =    -0.00094991   -0.00049295    0.00068115

     Total force =     0.027865     Total SCF correction =     0.004735
     SCF correction compared to forces is large: reduce conv_thr to get better values

     Writing output data file ./Ni2Pd2/Ni2Pd2_beef.save/

     init_run     :    146.23s CPU    147.21s WALL (       1 calls)
     electrons    :   5878.52s CPU   5939.92s WALL (       1 calls)
     forces       :    168.49s CPU    169.28s WALL (       1 calls)

     Called by init_run:
     wfcinit      :    133.89s CPU    134.62s WALL (       1 calls)
     potinit      :      8.20s CPU      8.31s WALL (       1 calls)
     hinit0       :      1.79s CPU      1.80s WALL (       1 calls)

     Called by electrons:
     c_bands      :   4955.98s CPU   5001.35s WALL (      23 calls)
     sum_band     :    833.23s CPU    843.18s WALL (      23 calls)
     v_of_rho     :     53.54s CPU     56.39s WALL (      24 calls)
     newd         :     41.48s CPU     44.56s WALL (      24 calls)
     mix_rho      :      2.06s CPU      2.18s WALL (      23 calls)
     vdW_kernel   :      5.76s CPU      5.77s WALL (       1 calls)

     Called by c_bands:
     init_us_2    :     31.25s CPU     31.65s WALL (    7104 calls)
     cegterg      :   4868.73s CPU   4908.27s WALL (    3404 calls)

     Called by *egterg:
     cdiaghg      :    121.06s CPU    121.50s WALL (    8621 calls)
     h_psi        :   3297.80s CPU   3330.78s WALL (    8769 calls)
     s_psi        :    889.51s CPU    891.46s WALL (    8769 calls)
     g_psi        :      2.46s CPU      2.51s WALL (    5217 calls)

     Called by h_psi:
     h_psi:calbec :   1121.80s CPU   1126.93s WALL (    8769 calls)
     vloc_psi     :   1213.07s CPU   1239.02s WALL (    8769 calls)
     add_vuspsi   :    954.35s CPU    956.16s WALL (    8769 calls)

     General routines
     calbec       :   1794.38s CPU   1802.40s WALL (   12765 calls)
     fft          :     45.02s CPU     46.73s WALL (    2213 calls)
     ffts         :      0.22s CPU      0.24s WALL (      94 calls)
     fftw         :   1341.64s CPU   1369.68s WALL ( 1271736 calls)
     interpolate  :      0.76s CPU      0.82s WALL (      48 calls)

     Parallel routines
     fft_scatt_xy :     71.58s CPU     72.45s WALL ( 1274043 calls)
     fft_scatt_yz :    732.03s CPU    750.77s WALL ( 1274043 calls)

     PWSCF        :      1h44m CPU      1h45m WALL


   This run was terminated on:  22:17:54  27Jun2022            

=------------------------------------------------------------------------------=
   JOB DONE.
=------------------------------------------------------------------------------=
