
     Program PWSCF v.6.6 starts on 28Jun2022 at  4:10:46 

     This program is part of the open-source Quantum ESPRESSO suite
     for quantum simulation of materials; please cite
         "P. Giannozzi et al., J. Phys.:Condens. Matter 21 395502 (2009);
         "P. Giannozzi et al., J. Phys.:Condens. Matter 29 465901 (2017);
          URL http://www.quantum-espresso.org", 
     in publications or presentations arising from this work. More details at
     http://www.quantum-espresso.org/quote

     Parallel version (MPI), running on    37 processors

     MPI processes distributed on     1 nodes
     R & G space division:  proc/nbgrp/npool/nimage =      37
     Fft bands division:     nmany     =       1
     Reading input from Ni2Rh2.in
Warning: card &CELL ignored
Warning: card / ignored

     Current dimensions of program PWSCF are:
     Max number of different atomic species (ntypx) = 10
     Max number of k-points (npk) =  40000
     Max angular momentum in pseudopotentials (lmaxx) =  3
     Presently stress not available with electric field and gates

     Message from routine cell_base_init:
     DEPRECATED: use true lattice parameter, not A to a.u. conversion factor
     file Ni.pbe-n-rrkjus_psl.1.0.0.UPF: wavefunction(s)  3D renormalized
     file Rh.pbe-spn-rrkjus_psl.1.0.0.UPF: wavefunction(s)  4S 5S renormalized

     **************************************************************************
     Initializing libbeef V0.1.2 with the BEEF-vdW functional.
     Citation: Wellendorff et al., PRB 85, 235149 (2012).
     **************************************************************************


     IMPORTANT: XC functional enforced from input :
     Exchange-correlation= BEEF-VDW
                           (   1   4  43  14   2   0   0)
     Any further DFT definition will be discarded
     Please, verify this is what you really want


     Subspace diagonalization in iterative solution of the eigenvalue problem:
     a serial algorithm will be used


     Parallelization info
     --------------------
     sticks:   dense  smooth     PW     G-vecs:    dense   smooth      PW
     Min         100      40     11                23060     5826     901
     Max         101      41     12                23083     5843     924
     Sum        3731    1485    433               853837   215813   33781



     bravais-lattice index     =            0
     lattice parameter (alat)  =       1.8897  a.u.
     unit-cell volume          =    3906.3968 (a.u.)^3
     number of atoms/cell      =           12
     number of atomic types    =            2
     number of electrons       =       162.00
     number of Kohn-Sham states=           97
     kinetic-energy cutoff     =      55.1240  Ry
     charge density cutoff     =     551.2396  Ry
     convergence threshold     =      1.0E-05
     mixing beta               =       0.1000
     number of iterations used =           10  plain     mixing
     Exchange-correlation= BEEF-VDW
                           (   1   4  43  14   2   0   0)

     celldm(1)=   1.889726  celldm(2)=   0.000000  celldm(3)=   0.000000
     celldm(4)=   0.000000  celldm(5)=   0.000000  celldm(6)=   0.000000

     crystal axes: (cart. coord. in units of alat)
               a(1) = (   5.200310   0.000000   0.000000 )  
               a(2) = (   2.454347   4.584692   0.000000 )  
               a(3) = (   0.000000   0.000000  24.279539 )  

     reciprocal axes: (cart. coord. in units 2 pi/alat)
               b(1) = (  0.192296 -0.102943  0.000000 )  
               b(2) = (  0.000000  0.218117  0.000000 )  
               b(3) = (  0.000000  0.000000  0.041187 )  


     PseudoPot. # 1 for Ni read from file:
     ../pseudo/Ni.pbe-n-rrkjus_psl.1.0.0.UPF
     MD5 check sum: 9f76af1bddcd5839b31985483df98d0a
     Pseudo is Ultrasoft + core correction, Zval = 10.0
     Generated using "atomic" code by A. Dal Corso v.6.5
     Using radial grid of 1195 points,  6 beta functions with: 
                l(1) =   0
                l(2) =   0
                l(3) =   1
                l(4) =   1
                l(5) =   2
                l(6) =   2
     Q(r) pseudized with 0 coefficients 


     PseudoPot. # 2 for Rh read from file:
     ../pseudo/Rh.pbe-spn-rrkjus_psl.1.0.0.UPF
     MD5 check sum: 912a852783f0c9b7bd5e9eb06cc0cc10
     Pseudo is Ultrasoft + core correction, Zval = 17.0
     Generated using "atomic" code by A. Dal Corso v.6.3
     Using radial grid of 1233 points,  6 beta functions with: 
                l(1) =   0
                l(2) =   0
                l(3) =   1
                l(4) =   1
                l(5) =   2
                l(6) =   2
     Q(r) pseudized with 0 coefficients 


     atomic species   valence    mass     pseudopotential
        Ni            10.00    58.69340     Ni( 1.00)
        Rh            17.00   102.90550     Rh( 1.00)

     Starting magnetic structure 
     atomic species   magnetization
        Ni           0.500
        Rh           0.000

     No symmetry found



   Cartesian axes

     site n.     atom                  positions (alat units)
         1           Ni  tau(   1) = (   0.0000000   0.0000000  10.0000000  )
         2           Ni  tau(   2) = (   3.8273285   2.2923459  10.0000000  )
         3           Rh  tau(   3) = (   2.6001548   0.0000000  10.0000000  )
         4           Rh  tau(   4) = (   1.2271737   2.2923459  10.0000000  )
         5           Ni  tau(   5) = (   5.2003096   3.1146812  12.1397696  )
         6           Ni  tau(   6) = (   1.3729811   0.8223353  12.1397696  )
         7           Rh  tau(   7) = (   2.6001548   3.1146812  12.1397696  )
         8           Rh  tau(   8) = (   3.9731358   0.8223353  12.1397696  )
         9           Ni  tau(   9) = (   2.6857855   1.6086259  14.2332070  )
        10           Ni  tau(  10) = (   6.5132412   3.9010521  14.2329530  )
        11           Rh  tau(  11) = (   5.2996837   1.6165401  14.2800129  )
        12           Rh  tau(  12) = (   3.9264202   3.9093562  14.2800128  )

     number of k points=    74  Fermi-Dirac smearing, width (Ry)=  0.0100
                       cart. coord. in units 2pi/alat
        k(    1) = (   0.0000000   0.0000000   0.0000000), wk =   0.0069444
        k(    2) = (   0.0000000   0.0181764   0.0000000), wk =   0.0138889
        k(    3) = (   0.0000000   0.0363529   0.0000000), wk =   0.0138889
        k(    4) = (   0.0000000   0.0545293   0.0000000), wk =   0.0138889
        k(    5) = (   0.0000000   0.0727057   0.0000000), wk =   0.0138889
        k(    6) = (   0.0000000   0.0908822   0.0000000), wk =   0.0138889
        k(    7) = (   0.0000000  -0.1090586   0.0000000), wk =   0.0069444
        k(    8) = (   0.0160247  -0.0085786   0.0000000), wk =   0.0138889
        k(    9) = (   0.0160247   0.0095979   0.0000000), wk =   0.0138889
        k(   10) = (   0.0160247   0.0277743   0.0000000), wk =   0.0138889
        k(   11) = (   0.0160247   0.0459507   0.0000000), wk =   0.0138889
        k(   12) = (   0.0160247   0.0641271   0.0000000), wk =   0.0138889
        k(   13) = (   0.0160247   0.0823036   0.0000000), wk =   0.0138889
        k(   14) = (   0.0160247  -0.1176372   0.0000000), wk =   0.0138889
        k(   15) = (   0.0160247  -0.0994607   0.0000000), wk =   0.0138889
        k(   16) = (   0.0160247  -0.0812843   0.0000000), wk =   0.0138889
        k(   17) = (   0.0160247  -0.0631079   0.0000000), wk =   0.0138889
        k(   18) = (   0.0160247  -0.0449314   0.0000000), wk =   0.0138889
        k(   19) = (   0.0160247  -0.0267550   0.0000000), wk =   0.0138889
        k(   20) = (   0.0320494  -0.0171572   0.0000000), wk =   0.0138889
        k(   21) = (   0.0320494   0.0010193   0.0000000), wk =   0.0138889
        k(   22) = (   0.0320494   0.0191957   0.0000000), wk =   0.0138889
        k(   23) = (   0.0320494   0.0373721   0.0000000), wk =   0.0138889
        k(   24) = (   0.0320494   0.0555486   0.0000000), wk =   0.0138889
        k(   25) = (   0.0320494   0.0737250   0.0000000), wk =   0.0138889
        k(   26) = (   0.0320494  -0.1262157   0.0000000), wk =   0.0138889
        k(   27) = (   0.0320494  -0.1080393   0.0000000), wk =   0.0138889
        k(   28) = (   0.0320494  -0.0898629   0.0000000), wk =   0.0138889
        k(   29) = (   0.0320494  -0.0716864   0.0000000), wk =   0.0138889
        k(   30) = (   0.0320494  -0.0535100   0.0000000), wk =   0.0138889
        k(   31) = (   0.0320494  -0.0353336   0.0000000), wk =   0.0138889
        k(   32) = (   0.0480741  -0.0257357   0.0000000), wk =   0.0138889
        k(   33) = (   0.0480741  -0.0075593   0.0000000), wk =   0.0138889
        k(   34) = (   0.0480741   0.0106171   0.0000000), wk =   0.0138889
        k(   35) = (   0.0480741   0.0287936   0.0000000), wk =   0.0138889
        k(   36) = (   0.0480741   0.0469700   0.0000000), wk =   0.0138889
        k(   37) = (   0.0480741   0.0651464   0.0000000), wk =   0.0138889
        k(   38) = (   0.0480741  -0.1347943   0.0000000), wk =   0.0138889
        k(   39) = (   0.0480741  -0.1166179   0.0000000), wk =   0.0138889
        k(   40) = (   0.0480741  -0.0984415   0.0000000), wk =   0.0138889
        k(   41) = (   0.0480741  -0.0802650   0.0000000), wk =   0.0138889
        k(   42) = (   0.0480741  -0.0620886   0.0000000), wk =   0.0138889
        k(   43) = (   0.0480741  -0.0439122   0.0000000), wk =   0.0138889
        k(   44) = (   0.0640987  -0.0343143   0.0000000), wk =   0.0138889
        k(   45) = (   0.0640987  -0.0161379   0.0000000), wk =   0.0138889
        k(   46) = (   0.0640987   0.0020385   0.0000000), wk =   0.0138889
        k(   47) = (   0.0640987   0.0202150   0.0000000), wk =   0.0138889
        k(   48) = (   0.0640987   0.0383914   0.0000000), wk =   0.0138889
        k(   49) = (   0.0640987   0.0565678   0.0000000), wk =   0.0138889
        k(   50) = (   0.0640987  -0.1433729   0.0000000), wk =   0.0138889
        k(   51) = (   0.0640987  -0.1251965   0.0000000), wk =   0.0138889
        k(   52) = (   0.0640987  -0.1070200   0.0000000), wk =   0.0138889
        k(   53) = (   0.0640987  -0.0888436   0.0000000), wk =   0.0138889
        k(   54) = (   0.0640987  -0.0706672   0.0000000), wk =   0.0138889
        k(   55) = (   0.0640987  -0.0524907   0.0000000), wk =   0.0138889
        k(   56) = (   0.0801234  -0.0428929   0.0000000), wk =   0.0138889
        k(   57) = (   0.0801234  -0.0247165   0.0000000), wk =   0.0138889
        k(   58) = (   0.0801234  -0.0065400   0.0000000), wk =   0.0138889
        k(   59) = (   0.0801234   0.0116364   0.0000000), wk =   0.0138889
        k(   60) = (   0.0801234   0.0298128   0.0000000), wk =   0.0138889
        k(   61) = (   0.0801234   0.0479893   0.0000000), wk =   0.0138889
        k(   62) = (   0.0801234  -0.1519515   0.0000000), wk =   0.0138889
        k(   63) = (   0.0801234  -0.1337750   0.0000000), wk =   0.0138889
        k(   64) = (   0.0801234  -0.1155986   0.0000000), wk =   0.0138889
        k(   65) = (   0.0801234  -0.0974222   0.0000000), wk =   0.0138889
        k(   66) = (   0.0801234  -0.0792458   0.0000000), wk =   0.0138889
        k(   67) = (   0.0801234  -0.0610693   0.0000000), wk =   0.0138889
        k(   68) = (  -0.0961481   0.0514715   0.0000000), wk =   0.0069444
        k(   69) = (  -0.0961481   0.0696479   0.0000000), wk =   0.0138889
        k(   70) = (  -0.0961481   0.0878243   0.0000000), wk =   0.0138889
        k(   71) = (  -0.0961481   0.1060008   0.0000000), wk =   0.0138889
        k(   72) = (  -0.0961481   0.1241772   0.0000000), wk =   0.0138889
        k(   73) = (  -0.0961481   0.1423536   0.0000000), wk =   0.0138889
        k(   74) = (  -0.0961481  -0.0575871   0.0000000), wk =   0.0069444

     Dense  grid:   853837 G-vectors     FFT dimensions: (  75,  75, 360)

     Smooth grid:   215813 G-vectors     FFT dimensions: (  48,  48, 225)

     Estimated max dynamical RAM per process >     264.52 MB

     Estimated total dynamical RAM >       9.56 GB
     Generating pointlists ...
     new r_m :   1.0643 (alat units)  2.0112 (a.u.) for type    1
     new r_m :   1.0643 (alat units)  2.0112 (a.u.) for type    2

     Initial potential from superposition of free atoms

     starting charge  161.99558, renormalised to  162.00000


     %%%%%%%%%%%%%%%%%%%%%%%%%%%%%%%%%%%%%%%%%%%%%%%%%%%%%%%%%%%%%%%%%%%%%%%%
     %                                                                      %
     % You are using vdW-DF, which was implemented by the Thonhauser group. %
     % Please cite the following two papers that made this development      %
     % possible and the two reviews that describe the various versions:     %
     %                                                                      %
     %   T. Thonhauser et al., PRL 115, 136402 (2015).                      %
     %   T. Thonhauser et al., PRB 76, 125112 (2007).                       %
     %   K. Berland et al., Rep. Prog. Phys. 78, 066501 (2015).             %
     %   D.C. Langreth et al., J. Phys.: Condens. Matter 21, 084203 (2009). %
     %                                                                      %
     %                                                                      %
     % If you are calculating the stress with vdW-DF, please also cite:     %
     %                                                                      %
     %   R. Sabatini et al., J. Phys.: Condens. Matter 24, 424209 (2012).   %
     %                                                                      %
     %%%%%%%%%%%%%%%%%%%%%%%%%%%%%%%%%%%%%%%%%%%%%%%%%%%%%%%%%%%%%%%%%%%%%%%%



     Adding external electric field

     Computed dipole along edir(3) : 
        Dipole                0.0000 Ry au,          0.0000 Debye
        Dipole field          0.0000 Ry au, 

        Potential amp.       -0.0000 Ry
        Total length         44.7346 bohr


     Adding external electric field

     Computed dipole along edir(3) : 
        Dipole                0.0000 Ry au,          0.0000 Debye
        Dipole field          0.0000 Ry au, 

        Potential amp.       -0.0000 Ry
        Total length         44.7346 bohr

     Starting wfcs are  114 randomized atomic wfcs

     total cpu time spent up to now is      158.6 secs

     Self-consistent Calculation

     iteration #  1     ecut=    55.12 Ry     beta= 0.10
     Davidson diagonalization with overlap
     ethr =  1.00E-02,  avg # of iterations =  3.1

     Adding external electric field

     Computed dipole along edir(3) : 
        Dipole               -0.1111 Ry au,         -0.2824 Debye
        Dipole field         -0.0004 Ry au, 

        Potential amp.        0.0320 Ry
        Total length         44.7346 bohr


     Adding external electric field

     Computed dipole along edir(3) : 
        Dipole               -0.1111 Ry au,         -0.2824 Debye
        Dipole field         -0.0004 Ry au, 

        Potential amp.        0.0320 Ry
        Total length         44.7346 bohr


     total cpu time spent up to now is      682.0 secs

     total energy              =   -1974.88109060 Ry
     estimated scf accuracy    <       7.21395442 Ry

     total magnetization       =    14.10 Bohr mag/cell
     absolute magnetization    =    14.13 Bohr mag/cell

     iteration #  2     ecut=    55.12 Ry     beta= 0.10
     Davidson diagonalization with overlap
     ethr =  4.45E-03,  avg # of iterations =  1.1

     Adding external electric field

     Computed dipole along edir(3) : 
        Dipole                0.1796 Ry au,          0.4566 Debye
        Dipole field          0.0006 Ry au, 

        Potential amp.       -0.0517 Ry
        Total length         44.7346 bohr


     Adding external electric field

     Computed dipole along edir(3) : 
        Dipole                0.1796 Ry au,          0.4566 Debye
        Dipole field          0.0006 Ry au, 

        Potential amp.       -0.0517 Ry
        Total length         44.7346 bohr


     total cpu time spent up to now is     1098.1 secs

     total energy              =   -1975.50695351 Ry
     estimated scf accuracy    <      11.30967959 Ry

     total magnetization       =     9.86 Bohr mag/cell
     absolute magnetization    =     9.90 Bohr mag/cell

     iteration #  3     ecut=    55.12 Ry     beta= 0.10
     Davidson diagonalization with overlap
     ethr =  4.45E-03,  avg # of iterations =  1.0

     Adding external electric field

     Computed dipole along edir(3) : 
        Dipole               -0.2551 Ry au,         -0.6484 Debye
        Dipole field         -0.0008 Ry au, 

        Potential amp.        0.0734 Ry
        Total length         44.7346 bohr


     Adding external electric field

     Computed dipole along edir(3) : 
        Dipole               -0.2551 Ry au,         -0.6484 Debye
        Dipole field         -0.0008 Ry au, 

        Potential amp.        0.0734 Ry
        Total length         44.7346 bohr


     total cpu time spent up to now is     1458.7 secs

     total energy              =   -1976.03815023 Ry
     estimated scf accuracy    <      10.29846956 Ry

     total magnetization       =     9.38 Bohr mag/cell
     absolute magnetization    =     9.43 Bohr mag/cell

     iteration #  4     ecut=    55.12 Ry     beta= 0.10
     Davidson diagonalization with overlap
     ethr =  4.45E-03,  avg # of iterations =  1.0

     Adding external electric field

     Computed dipole along edir(3) : 
        Dipole                0.0127 Ry au,          0.0324 Debye
        Dipole field          0.0000 Ry au, 

        Potential amp.       -0.0037 Ry
        Total length         44.7346 bohr


     Adding external electric field

     Computed dipole along edir(3) : 
        Dipole                0.0127 Ry au,          0.0324 Debye
        Dipole field          0.0000 Ry au, 

        Potential amp.       -0.0037 Ry
        Total length         44.7346 bohr


     total cpu time spent up to now is     2050.8 secs

     total energy              =   -1976.43206376 Ry
     estimated scf accuracy    <      16.42768450 Ry

     total magnetization       =    10.30 Bohr mag/cell
     absolute magnetization    =    10.34 Bohr mag/cell

     iteration #  5     ecut=    55.12 Ry     beta= 0.10
     Davidson diagonalization with overlap
     ethr =  4.45E-03,  avg # of iterations =  1.0

     Adding external electric field

     Computed dipole along edir(3) : 
        Dipole                0.0436 Ry au,          0.1108 Debye
        Dipole field          0.0001 Ry au, 

        Potential amp.       -0.0125 Ry
        Total length         44.7346 bohr


     Adding external electric field

     Computed dipole along edir(3) : 
        Dipole                0.0436 Ry au,          0.1108 Debye
        Dipole field          0.0001 Ry au, 

        Potential amp.       -0.0125 Ry
        Total length         44.7346 bohr


     total cpu time spent up to now is     2854.8 secs

     total energy              =   -1975.77746726 Ry
     estimated scf accuracy    <       1.65155509 Ry

     total magnetization       =    11.30 Bohr mag/cell
     absolute magnetization    =    11.35 Bohr mag/cell

     iteration #  6     ecut=    55.12 Ry     beta= 0.10
     Davidson diagonalization with overlap
     ethr =  1.02E-03,  avg # of iterations =  1.2

     Adding external electric field

     Computed dipole along edir(3) : 
        Dipole               -0.0047 Ry au,         -0.0120 Debye
        Dipole field         -0.0000 Ry au, 

        Potential amp.        0.0014 Ry
        Total length         44.7346 bohr


     Adding external electric field

     Computed dipole along edir(3) : 
        Dipole               -0.0047 Ry au,         -0.0120 Debye
        Dipole field         -0.0000 Ry au, 

        Potential amp.        0.0014 Ry
        Total length         44.7346 bohr


     total cpu time spent up to now is     3518.1 secs

     total energy              =   -1975.88027388 Ry
     estimated scf accuracy    <       1.27850386 Ry

     total magnetization       =    11.57 Bohr mag/cell
     absolute magnetization    =    11.66 Bohr mag/cell

     iteration #  7     ecut=    55.12 Ry     beta= 0.10
     Davidson diagonalization with overlap
     ethr =  7.89E-04,  avg # of iterations =  1.1

     Adding external electric field

     Computed dipole along edir(3) : 
        Dipole               -0.0213 Ry au,         -0.0541 Debye
        Dipole field         -0.0001 Ry au, 

        Potential amp.        0.0061 Ry
        Total length         44.7346 bohr


     Adding external electric field

     Computed dipole along edir(3) : 
        Dipole               -0.0213 Ry au,         -0.0541 Debye
        Dipole field         -0.0001 Ry au, 

        Potential amp.        0.0061 Ry
        Total length         44.7346 bohr


     total cpu time spent up to now is     3841.3 secs

     total energy              =   -1976.56224639 Ry
     estimated scf accuracy    <       0.79667598 Ry

     total magnetization       =    10.28 Bohr mag/cell
     absolute magnetization    =    10.41 Bohr mag/cell

     iteration #  8     ecut=    55.12 Ry     beta= 0.10
     Davidson diagonalization with overlap
     ethr =  4.92E-04,  avg # of iterations =  1.3

     Adding external electric field

     Computed dipole along edir(3) : 
        Dipole                0.0308 Ry au,          0.0782 Debye
        Dipole field          0.0001 Ry au, 

        Potential amp.       -0.0089 Ry
        Total length         44.7346 bohr


     Adding external electric field

     Computed dipole along edir(3) : 
        Dipole                0.0308 Ry au,          0.0782 Debye
        Dipole field          0.0001 Ry au, 

        Potential amp.       -0.0089 Ry
        Total length         44.7346 bohr


     total cpu time spent up to now is     4176.4 secs

     total energy              =   -1980.37766891 Ry
     estimated scf accuracy    <       0.40613677 Ry

     total magnetization       =    10.44 Bohr mag/cell
     absolute magnetization    =    10.68 Bohr mag/cell

     iteration #  9     ecut=    55.12 Ry     beta= 0.10
     Davidson diagonalization with overlap
     ethr =  2.51E-04,  avg # of iterations =  2.3

     Adding external electric field

     Computed dipole along edir(3) : 
        Dipole                0.0007 Ry au,          0.0017 Debye
        Dipole field          0.0000 Ry au, 

        Potential amp.       -0.0002 Ry
        Total length         44.7346 bohr


     Adding external electric field

     Computed dipole along edir(3) : 
        Dipole                0.0007 Ry au,          0.0017 Debye
        Dipole field          0.0000 Ry au, 

        Potential amp.       -0.0002 Ry
        Total length         44.7346 bohr


     total cpu time spent up to now is     4581.6 secs

     total energy              =   -1980.66430546 Ry
     estimated scf accuracy    <       0.69009266 Ry

     total magnetization       =     9.85 Bohr mag/cell
     absolute magnetization    =    10.60 Bohr mag/cell

     iteration # 10     ecut=    55.12 Ry     beta= 0.10
     Davidson diagonalization with overlap
     ethr =  2.51E-04,  avg # of iterations =  1.2

     Adding external electric field

     Computed dipole along edir(3) : 
        Dipole               -0.0105 Ry au,         -0.0268 Debye
        Dipole field         -0.0000 Ry au, 

        Potential amp.        0.0030 Ry
        Total length         44.7346 bohr


     Adding external electric field

     Computed dipole along edir(3) : 
        Dipole               -0.0105 Ry au,         -0.0268 Debye
        Dipole field         -0.0000 Ry au, 

        Potential amp.        0.0030 Ry
        Total length         44.7346 bohr


     total cpu time spent up to now is     4977.0 secs

     total energy              =   -1980.52249080 Ry
     estimated scf accuracy    <       0.02890651 Ry

     total magnetization       =     8.42 Bohr mag/cell
     absolute magnetization    =     9.31 Bohr mag/cell

     iteration # 11     ecut=    55.12 Ry     beta= 0.10
     Davidson diagonalization with overlap
     c_bands:  1 eigenvalues not converged
     c_bands:  1 eigenvalues not converged
     c_bands:  1 eigenvalues not converged
     c_bands:  1 eigenvalues not converged
     c_bands:  1 eigenvalues not converged
     c_bands:  1 eigenvalues not converged
     c_bands:  1 eigenvalues not converged
     c_bands:  1 eigenvalues not converged
     c_bands:  1 eigenvalues not converged
     c_bands:  1 eigenvalues not converged
     c_bands:  1 eigenvalues not converged
     c_bands:  1 eigenvalues not converged
     c_bands:  1 eigenvalues not converged
     c_bands:  1 eigenvalues not converged
     c_bands:  1 eigenvalues not converged
     c_bands:  1 eigenvalues not converged
     c_bands:  1 eigenvalues not converged
     c_bands:  1 eigenvalues not converged
     c_bands:  1 eigenvalues not converged
     c_bands:  1 eigenvalues not converged
     c_bands:  1 eigenvalues not converged
     c_bands:  1 eigenvalues not converged
     c_bands:  1 eigenvalues not converged
     c_bands:  1 eigenvalues not converged
     c_bands:  1 eigenvalues not converged
     ethr =  1.78E-05,  avg # of iterations =  8.3

     Adding external electric field

     Computed dipole along edir(3) : 
        Dipole               -0.0070 Ry au,         -0.0179 Debye
        Dipole field         -0.0000 Ry au, 

        Potential amp.        0.0020 Ry
        Total length         44.7346 bohr


     Adding external electric field

     Computed dipole along edir(3) : 
        Dipole               -0.0070 Ry au,         -0.0179 Debye
        Dipole field         -0.0000 Ry au, 

        Potential amp.        0.0020 Ry
        Total length         44.7346 bohr


     total cpu time spent up to now is     5492.3 secs

     total energy              =   -1980.36282996 Ry
     estimated scf accuracy    <       0.13122552 Ry

     total magnetization       =     7.87 Bohr mag/cell
     absolute magnetization    =     8.82 Bohr mag/cell

     iteration # 12     ecut=    55.12 Ry     beta= 0.10
     Davidson diagonalization with overlap
     ethr =  1.78E-05,  avg # of iterations =  1.6

     Adding external electric field

     Computed dipole along edir(3) : 
        Dipole                0.0046 Ry au,          0.0116 Debye
        Dipole field          0.0000 Ry au, 

        Potential amp.       -0.0013 Ry
        Total length         44.7346 bohr


     Adding external electric field

     Computed dipole along edir(3) : 
        Dipole                0.0046 Ry au,          0.0116 Debye
        Dipole field          0.0000 Ry au, 

        Potential amp.       -0.0013 Ry
        Total length         44.7346 bohr


     total cpu time spent up to now is     5888.0 secs

     total energy              =   -1979.99250862 Ry
     estimated scf accuracy    <       0.06207437 Ry

     total magnetization       =     7.80 Bohr mag/cell
     absolute magnetization    =     8.78 Bohr mag/cell

     iteration # 13     ecut=    55.12 Ry     beta= 0.10
     Davidson diagonalization with overlap
     ethr =  1.78E-05,  avg # of iterations =  1.7

     Adding external electric field

     Computed dipole along edir(3) : 
        Dipole               -0.0047 Ry au,         -0.0120 Debye
        Dipole field         -0.0000 Ry au, 

        Potential amp.        0.0014 Ry
        Total length         44.7346 bohr


     Adding external electric field

     Computed dipole along edir(3) : 
        Dipole               -0.0047 Ry au,         -0.0120 Debye
        Dipole field         -0.0000 Ry au, 

        Potential amp.        0.0014 Ry
        Total length         44.7346 bohr


     total cpu time spent up to now is     6314.3 secs

     total energy              =   -1979.64484243 Ry
     estimated scf accuracy    <       0.08553171 Ry

     total magnetization       =     8.27 Bohr mag/cell
     absolute magnetization    =     9.20 Bohr mag/cell

     iteration # 14     ecut=    55.12 Ry     beta= 0.10
     Davidson diagonalization with overlap
     ethr =  1.78E-05,  avg # of iterations =  1.2

     Adding external electric field

     Computed dipole along edir(3) : 
        Dipole               -0.0016 Ry au,         -0.0042 Debye
        Dipole field         -0.0000 Ry au, 

        Potential amp.        0.0005 Ry
        Total length         44.7346 bohr


     Adding external electric field

     Computed dipole along edir(3) : 
        Dipole               -0.0016 Ry au,         -0.0042 Debye
        Dipole field         -0.0000 Ry au, 

        Potential amp.        0.0005 Ry
        Total length         44.7346 bohr


     total cpu time spent up to now is     6756.9 secs

     total energy              =   -1979.19964259 Ry
     estimated scf accuracy    <       0.00192155 Ry

     total magnetization       =     8.11 Bohr mag/cell
     absolute magnetization    =     9.04 Bohr mag/cell

     iteration # 15     ecut=    55.12 Ry     beta= 0.10
     Davidson diagonalization with overlap
     c_bands:  1 eigenvalues not converged
     c_bands:  1 eigenvalues not converged
     c_bands:  1 eigenvalues not converged
     c_bands:  1 eigenvalues not converged
     c_bands:  1 eigenvalues not converged
     c_bands:  1 eigenvalues not converged
     ethr =  1.19E-06,  avg # of iterations =  5.3

     Adding external electric field

     Computed dipole along edir(3) : 
        Dipole                0.0015 Ry au,          0.0039 Debye
        Dipole field          0.0000 Ry au, 

        Potential amp.       -0.0004 Ry
        Total length         44.7346 bohr


     Adding external electric field

     Computed dipole along edir(3) : 
        Dipole                0.0015 Ry au,          0.0039 Debye
        Dipole field          0.0000 Ry au, 

        Potential amp.       -0.0004 Ry
        Total length         44.7346 bohr


     total cpu time spent up to now is     7139.7 secs

     total energy              =   -1978.86469303 Ry
     estimated scf accuracy    <       0.00110833 Ry

     total magnetization       =     8.20 Bohr mag/cell
     absolute magnetization    =     9.12 Bohr mag/cell

     iteration # 16     ecut=    55.12 Ry     beta= 0.10
     Davidson diagonalization with overlap
     ethr =  6.84E-07,  avg # of iterations =  1.8

     Adding external electric field

     Computed dipole along edir(3) : 
        Dipole               -0.0014 Ry au,         -0.0035 Debye
        Dipole field         -0.0000 Ry au, 

        Potential amp.        0.0004 Ry
        Total length         44.7346 bohr


     Adding external electric field

     Computed dipole along edir(3) : 
        Dipole               -0.0014 Ry au,         -0.0035 Debye
        Dipole field         -0.0000 Ry au, 

        Potential amp.        0.0004 Ry
        Total length         44.7346 bohr


     total cpu time spent up to now is     7537.1 secs

     total energy              =   -1978.58295253 Ry
     estimated scf accuracy    <       0.00155324 Ry

     total magnetization       =     8.22 Bohr mag/cell
     absolute magnetization    =     9.13 Bohr mag/cell

     iteration # 17     ecut=    55.12 Ry     beta= 0.10
     Davidson diagonalization with overlap
     ethr =  6.84E-07,  avg # of iterations =  1.4

     Adding external electric field

     Computed dipole along edir(3) : 
        Dipole                0.0041 Ry au,          0.0103 Debye
        Dipole field          0.0000 Ry au, 

        Potential amp.       -0.0012 Ry
        Total length         44.7346 bohr


     Adding external electric field

     Computed dipole along edir(3) : 
        Dipole                0.0041 Ry au,          0.0103 Debye
        Dipole field          0.0000 Ry au, 

        Potential amp.       -0.0012 Ry
        Total length         44.7346 bohr


     total cpu time spent up to now is     8100.3 secs

     total energy              =   -1978.31638779 Ry
     estimated scf accuracy    <       0.00185962 Ry

     total magnetization       =     8.23 Bohr mag/cell
     absolute magnetization    =     9.14 Bohr mag/cell

     iteration # 18     ecut=    55.12 Ry     beta= 0.10
     Davidson diagonalization with overlap
     ethr =  6.84E-07,  avg # of iterations =  1.4

     Adding external electric field

     Computed dipole along edir(3) : 
        Dipole                0.0025 Ry au,          0.0064 Debye
        Dipole field          0.0000 Ry au, 

        Potential amp.       -0.0007 Ry
        Total length         44.7346 bohr


     Adding external electric field

     Computed dipole along edir(3) : 
        Dipole                0.0025 Ry au,          0.0064 Debye
        Dipole field          0.0000 Ry au, 

        Potential amp.       -0.0007 Ry
        Total length         44.7346 bohr


     total cpu time spent up to now is     8698.9 secs

     total energy              =   -1978.09437554 Ry
     estimated scf accuracy    <       0.00019528 Ry

     total magnetization       =     8.32 Bohr mag/cell
     absolute magnetization    =     9.20 Bohr mag/cell

     iteration # 19     ecut=    55.12 Ry     beta= 0.10
     Davidson diagonalization with overlap
     ethr =  1.21E-07,  avg # of iterations =  2.2

     Adding external electric field

     Computed dipole along edir(3) : 
        Dipole                0.0011 Ry au,          0.0027 Debye
        Dipole field          0.0000 Ry au, 

        Potential amp.       -0.0003 Ry
        Total length         44.7346 bohr


     Adding external electric field

     Computed dipole along edir(3) : 
        Dipole                0.0011 Ry au,          0.0027 Debye
        Dipole field          0.0000 Ry au, 

        Potential amp.       -0.0003 Ry
        Total length         44.7346 bohr


     total cpu time spent up to now is     9150.3 secs

     total energy              =   -1977.88852169 Ry
     estimated scf accuracy    <       0.00016215 Ry

     total magnetization       =     8.34 Bohr mag/cell
     absolute magnetization    =     9.21 Bohr mag/cell

     iteration # 20     ecut=    55.12 Ry     beta= 0.10
     Davidson diagonalization with overlap
     ethr =  1.00E-07,  avg # of iterations =  1.8

     Adding external electric field

     Computed dipole along edir(3) : 
        Dipole                0.0001 Ry au,          0.0002 Debye
        Dipole field          0.0000 Ry au, 

        Potential amp.       -0.0000 Ry
        Total length         44.7346 bohr


     Adding external electric field

     Computed dipole along edir(3) : 
        Dipole                0.0001 Ry au,          0.0002 Debye
        Dipole field          0.0000 Ry au, 

        Potential amp.       -0.0000 Ry
        Total length         44.7346 bohr


     total cpu time spent up to now is     9516.1 secs

     total energy              =   -1977.72151329 Ry
     estimated scf accuracy    <       0.00010907 Ry

     total magnetization       =     8.36 Bohr mag/cell
     absolute magnetization    =     9.22 Bohr mag/cell

     iteration # 21     ecut=    55.12 Ry     beta= 0.10
     Davidson diagonalization with overlap
     ethr =  6.73E-08,  avg # of iterations =  2.0

     Adding external electric field

     Computed dipole along edir(3) : 
        Dipole               -0.0003 Ry au,         -0.0007 Debye
        Dipole field         -0.0000 Ry au, 

        Potential amp.        0.0001 Ry
        Total length         44.7346 bohr


     Adding external electric field

     Computed dipole along edir(3) : 
        Dipole               -0.0003 Ry au,         -0.0007 Debye
        Dipole field         -0.0000 Ry au, 

        Potential amp.        0.0001 Ry
        Total length         44.7346 bohr


     total cpu time spent up to now is     9941.4 secs

     total energy              =   -1977.53029686 Ry
     estimated scf accuracy    <       0.00007261 Ry

     total magnetization       =     8.40 Bohr mag/cell
     absolute magnetization    =     9.25 Bohr mag/cell

     iteration # 22     ecut=    55.12 Ry     beta= 0.10
     Davidson diagonalization with overlap
     ethr =  4.48E-08,  avg # of iterations =  1.8

     Adding external electric field

     Computed dipole along edir(3) : 
        Dipole               -0.0002 Ry au,         -0.0005 Debye
        Dipole field         -0.0000 Ry au, 

        Potential amp.        0.0001 Ry
        Total length         44.7346 bohr


     Adding external electric field

     Computed dipole along edir(3) : 
        Dipole               -0.0002 Ry au,         -0.0005 Debye
        Dipole field         -0.0000 Ry au, 

        Potential amp.        0.0001 Ry
        Total length         44.7346 bohr


     total cpu time spent up to now is    10323.1 secs

     total energy              =   -1977.37257493 Ry
     estimated scf accuracy    <       0.00006074 Ry

     total magnetization       =     8.42 Bohr mag/cell
     absolute magnetization    =     9.27 Bohr mag/cell

     iteration # 23     ecut=    55.12 Ry     beta= 0.10
     Davidson diagonalization with overlap
     ethr =  3.75E-08,  avg # of iterations =  1.5

     Adding external electric field

     Computed dipole along edir(3) : 
        Dipole                0.0004 Ry au,          0.0010 Debye
        Dipole field          0.0000 Ry au, 

        Potential amp.       -0.0001 Ry
        Total length         44.7346 bohr


     Adding external electric field

     Computed dipole along edir(3) : 
        Dipole                0.0004 Ry au,          0.0010 Debye
        Dipole field          0.0000 Ry au, 

        Potential amp.       -0.0001 Ry
        Total length         44.7346 bohr


     total cpu time spent up to now is    10676.3 secs

     total energy              =   -1977.22952353 Ry
     estimated scf accuracy    <       0.00004471 Ry

     total magnetization       =     8.44 Bohr mag/cell
     absolute magnetization    =     9.28 Bohr mag/cell

     iteration # 24     ecut=    55.12 Ry     beta= 0.10
     Davidson diagonalization with overlap
     ethr =  2.76E-08,  avg # of iterations =  1.4

     Adding external electric field

     Computed dipole along edir(3) : 
        Dipole                0.0003 Ry au,          0.0007 Debye
        Dipole field          0.0000 Ry au, 

        Potential amp.       -0.0001 Ry
        Total length         44.7346 bohr


     Adding external electric field

     Computed dipole along edir(3) : 
        Dipole                0.0003 Ry au,          0.0007 Debye
        Dipole field          0.0000 Ry au, 

        Potential amp.       -0.0001 Ry
        Total length         44.7346 bohr


     total cpu time spent up to now is    11024.9 secs

     total energy              =   -1977.09153213 Ry
     estimated scf accuracy    <       0.00003450 Ry

     total magnetization       =     8.46 Bohr mag/cell
     absolute magnetization    =     9.30 Bohr mag/cell

     iteration # 25     ecut=    55.12 Ry     beta= 0.10
     Davidson diagonalization with overlap
     ethr =  2.13E-08,  avg # of iterations =  1.3

     Adding external electric field

     Computed dipole along edir(3) : 
        Dipole                0.0012 Ry au,          0.0030 Debye
        Dipole field          0.0000 Ry au, 

        Potential amp.       -0.0003 Ry
        Total length         44.7346 bohr


     Adding external electric field

     Computed dipole along edir(3) : 
        Dipole                0.0012 Ry au,          0.0030 Debye
        Dipole field          0.0000 Ry au, 

        Potential amp.       -0.0003 Ry
        Total length         44.7346 bohr


     total cpu time spent up to now is    11420.5 secs

     total energy              =   -1976.97301206 Ry
     estimated scf accuracy    <       0.00004683 Ry

     total magnetization       =     8.48 Bohr mag/cell
     absolute magnetization    =     9.32 Bohr mag/cell

     iteration # 26     ecut=    55.12 Ry     beta= 0.10
     Davidson diagonalization with overlap
     ethr =  2.13E-08,  avg # of iterations =  1.1

     Adding external electric field

     Computed dipole along edir(3) : 
        Dipole                0.0010 Ry au,          0.0027 Debye
        Dipole field          0.0000 Ry au, 

        Potential amp.       -0.0003 Ry
        Total length         44.7346 bohr


     Adding external electric field

     Computed dipole along edir(3) : 
        Dipole                0.0010 Ry au,          0.0027 Debye
        Dipole field          0.0000 Ry au, 

        Potential amp.       -0.0003 Ry
        Total length         44.7346 bohr


     total cpu time spent up to now is    12034.2 secs

     total energy              =   -1976.89676674 Ry
     estimated scf accuracy    <       0.00002257 Ry

     total magnetization       =     8.50 Bohr mag/cell
     absolute magnetization    =     9.34 Bohr mag/cell

     iteration # 27     ecut=    55.12 Ry     beta= 0.10
     Davidson diagonalization with overlap
     ethr =  1.39E-08,  avg # of iterations =  1.5

     Adding external electric field

     Computed dipole along edir(3) : 
        Dipole                0.0011 Ry au,          0.0029 Debye
        Dipole field          0.0000 Ry au, 

        Potential amp.       -0.0003 Ry
        Total length         44.7346 bohr


     Adding external electric field

     Computed dipole along edir(3) : 
        Dipole                0.0011 Ry au,          0.0029 Debye
        Dipole field          0.0000 Ry au, 

        Potential amp.       -0.0003 Ry
        Total length         44.7346 bohr


     total cpu time spent up to now is    12484.4 secs

     total energy              =   -1976.85160406 Ry
     estimated scf accuracy    <       0.00001733 Ry

     total magnetization       =     8.53 Bohr mag/cell
     absolute magnetization    =     9.37 Bohr mag/cell

     iteration # 28     ecut=    55.12 Ry     beta= 0.10
     Davidson diagonalization with overlap
     ethr =  1.07E-08,  avg # of iterations =  2.0

     Adding external electric field

     Computed dipole along edir(3) : 
        Dipole                0.0009 Ry au,          0.0022 Debye
        Dipole field          0.0000 Ry au, 

        Potential amp.       -0.0002 Ry
        Total length         44.7346 bohr


     Adding external electric field

     Computed dipole along edir(3) : 
        Dipole                0.0009 Ry au,          0.0022 Debye
        Dipole field          0.0000 Ry au, 

        Potential amp.       -0.0002 Ry
        Total length         44.7346 bohr


     total cpu time spent up to now is    13089.8 secs

     total energy              =   -1976.75477180 Ry
     estimated scf accuracy    <       0.00001067 Ry

     total magnetization       =     8.58 Bohr mag/cell
     absolute magnetization    =     9.42 Bohr mag/cell

     iteration # 29     ecut=    55.12 Ry     beta= 0.10
     Davidson diagonalization with overlap
     ethr =  6.58E-09,  avg # of iterations =  1.6

     Adding external electric field

     Computed dipole along edir(3) : 
        Dipole                0.0009 Ry au,          0.0024 Debye
        Dipole field          0.0000 Ry au, 

        Potential amp.       -0.0003 Ry
        Total length         44.7346 bohr


     Adding external electric field

     Computed dipole along edir(3) : 
        Dipole                0.0009 Ry au,          0.0024 Debye
        Dipole field          0.0000 Ry au, 

        Potential amp.       -0.0003 Ry
        Total length         44.7346 bohr


     total cpu time spent up to now is    13461.3 secs

     total energy              =   -1976.67265556 Ry
     estimated scf accuracy    <       0.00001220 Ry

     total magnetization       =     8.60 Bohr mag/cell
     absolute magnetization    =     9.43 Bohr mag/cell

     iteration # 30     ecut=    55.12 Ry     beta= 0.10
     Davidson diagonalization with overlap
     ethr =  6.58E-09,  avg # of iterations =  1.2

     Adding external electric field

     Computed dipole along edir(3) : 
        Dipole               -0.0059 Ry au,         -0.0149 Debye
        Dipole field         -0.0000 Ry au, 

        Potential amp.        0.0017 Ry
        Total length         44.7346 bohr


     Adding external electric field

     Computed dipole along edir(3) : 
        Dipole               -0.0059 Ry au,         -0.0149 Debye
        Dipole field         -0.0000 Ry au, 

        Potential amp.        0.0017 Ry
        Total length         44.7346 bohr


     Magnetic moment per site:
     atom:    1    charge:    8.7881    magn:    0.7279    constr:    0.0000
     atom:    2    charge:    8.7881    magn:    0.7277    constr:    0.0000
     atom:    3    charge:   14.8715    magn:    0.6715    constr:    0.0000
     atom:    4    charge:   14.8715    magn:    0.6715    constr:    0.0000
     atom:    5    charge:    8.8628    magn:    0.7889    constr:    0.0000
     atom:    6    charge:    8.8629    magn:    0.7890    constr:    0.0000
     atom:    7    charge:   14.8998    magn:    0.7757    constr:    0.0000
     atom:    8    charge:   14.8998    magn:    0.7757    constr:    0.0000
     atom:    9    charge:    8.8003    magn:    0.7287    constr:    0.0000
     atom:   10    charge:    8.8004    magn:    0.7288    constr:    0.0000
     atom:   11    charge:   14.8731    magn:    0.6722    constr:    0.0000
     atom:   12    charge:   14.8731    magn:    0.6722    constr:    0.0000

     total cpu time spent up to now is    13813.3 secs

     End of self-consistent calculation

     Number of k-points >= 100: set verbosity='high' to print the bands.

     the Fermi energy is     0.8142 ev

!    total energy              =   -1976.10621954 Ry
     estimated scf accuracy    <       0.00000869 Ry
     smearing contrib. (-TS)   =      -0.09341826 Ry
     internal energy E=F+TS    =   -1976.01280128 Ry

     The total energy is F=E-TS. E is the sum of the following terms:
     one-electron contribution =  -16949.82310044 Ry
     hartree contribution      =    8537.89453809 Ry
     xc contribution           =    -443.17844439 Ry
     ewald contribution        =    6879.09420535 Ry
     electric field correction =       0.00000011 Ry

     total magnetization       =     8.61 Bohr mag/cell
     absolute magnetization    =     9.44 Bohr mag/cell

     convergence has been achieved in  30 iterations

     Forces acting on atoms (cartesian axes, Ry/au):

     atom    1 type  1   force =     0.00443557    0.00265963    0.00491665
     atom    2 type  1   force =     0.00444038    0.00265732    0.00493561
     atom    3 type  2   force =    -0.00083655   -0.00049329    0.00013216
     atom    4 type  2   force =    -0.00082596   -0.00050290    0.00013369
     atom    5 type  1   force =    -0.00222695   -0.00133620   -0.00166261
     atom    6 type  1   force =    -0.00221930   -0.00132824   -0.00170790
     atom    7 type  2   force =    -0.00107127   -0.00064664   -0.00559623
     atom    8 type  2   force =    -0.00107455   -0.00063937   -0.00559722
     atom    9 type  1   force =    -0.00019846   -0.00011736    0.00083903
     atom   10 type  1   force =    -0.00032415   -0.00019278    0.00091903
     atom   11 type  2   force =    -0.00012442    0.00009535    0.00134371
     atom   12 type  2   force =     0.00002565   -0.00015553    0.00134410

     Total force =     0.013938     Total SCF correction =     0.008445
     SCF correction compared to forces is large: reduce conv_thr to get better values

     Writing output data file ./Ni2Rh2/Ni2Rh2_beef.save/

     init_run     :    155.27s CPU    156.30s WALL (       1 calls)
     electrons    :  13141.83s CPU  13655.09s WALL (       1 calls)
     forces       :    137.02s CPU    138.51s WALL (       1 calls)

     Called by init_run:
     wfcinit      :    141.84s CPU    142.55s WALL (       1 calls)
     potinit      :      9.01s CPU      9.14s WALL (       1 calls)
     hinit0       :      2.40s CPU      2.42s WALL (       1 calls)

     Called by electrons:
     c_bands      :  11400.56s CPU  11848.58s WALL (      30 calls)
     sum_band     :   1592.85s CPU   1650.24s WALL (      30 calls)
     v_of_rho     :    100.20s CPU    103.66s WALL (      31 calls)
     newd         :     51.73s CPU     55.89s WALL (      31 calls)
     mix_rho      :      3.10s CPU      3.31s WALL (      30 calls)
     vdW_kernel   :      6.18s CPU      6.19s WALL (       1 calls)

     Called by c_bands:
     init_us_2    :     29.11s CPU     29.66s WALL (    9176 calls)
     cegterg      :  11173.92s CPU  11598.19s WALL (    4440 calls)

     Called by *egterg:
     cdiaghg      :    373.12s CPU    390.22s WALL (   12777 calls)
     h_psi        :   6805.77s CPU   7142.49s WALL (   12925 calls)
     s_psi        :    942.31s CPU    950.17s WALL (   12925 calls)
     g_psi        :      3.30s CPU      3.37s WALL (    8337 calls)

     Called by h_psi:
     h_psi:calbec :   1909.28s CPU   1939.70s WALL (   12925 calls)
     vloc_psi     :   3833.90s CPU   4132.74s WALL (   12925 calls)
     add_vuspsi   :   1050.63s CPU   1057.88s WALL (   12925 calls)

     General routines
     calbec       :   2910.63s CPU   2958.93s WALL (   17957 calls)
     fft          :    111.61s CPU    113.29s WALL (    2836 calls)
     ffts         :      1.53s CPU      1.57s WALL (     122 calls)
     fftw         :   4303.48s CPU   4632.83s WALL ( 2222750 calls)
     interpolate  :      2.11s CPU      2.15s WALL (      62 calls)

     Parallel routines
     fft_scatt_xy :    117.68s CPU    119.20s WALL ( 2225708 calls)
     fft_scatt_yz :   3297.32s CPU   3611.16s WALL ( 2225708 calls)

     PWSCF        :      3h49m CPU      3h58m WALL


   This run was terminated on:   8: 9:41  28Jun2022            

=------------------------------------------------------------------------------=
   JOB DONE.
=------------------------------------------------------------------------------=
