
     Program PWSCF v.6.6 starts on 28Jun2022 at  8: 9:45 

     This program is part of the open-source Quantum ESPRESSO suite
     for quantum simulation of materials; please cite
         "P. Giannozzi et al., J. Phys.:Condens. Matter 21 395502 (2009);
         "P. Giannozzi et al., J. Phys.:Condens. Matter 29 465901 (2017);
          URL http://www.quantum-espresso.org", 
     in publications or presentations arising from this work. More details at
     http://www.quantum-espresso.org/quote

     Parallel version (MPI), running on    37 processors

     MPI processes distributed on     1 nodes
     R & G space division:  proc/nbgrp/npool/nimage =      37
     Fft bands division:     nmany     =       1
     Reading input from Ni2Ru2.in
Warning: card &CELL ignored
Warning: card / ignored

     Current dimensions of program PWSCF are:
     Max number of different atomic species (ntypx) = 10
     Max number of k-points (npk) =  40000
     Max angular momentum in pseudopotentials (lmaxx) =  3
     Presently stress not available with electric field and gates

     Message from routine cell_base_init:
     DEPRECATED: use true lattice parameter, not A to a.u. conversion factor
     file Ni.pbe-n-rrkjus_psl.1.0.0.UPF: wavefunction(s)  3D renormalized

     **************************************************************************
     Initializing libbeef V0.1.2 with the BEEF-vdW functional.
     Citation: Wellendorff et al., PRB 85, 235149 (2012).
     **************************************************************************


     IMPORTANT: XC functional enforced from input :
     Exchange-correlation= BEEF-VDW
                           (   1   4  43  14   2   0   0)
     Any further DFT definition will be discarded
     Please, verify this is what you really want


     Subspace diagonalization in iterative solution of the eigenvalue problem:
     a serial algorithm will be used


     Parallelization info
     --------------------
     sticks:   dense  smooth     PW     G-vecs:    dense   smooth      PW
     Min          99      40     11                22939     5812     897
     Max         100      41     12                22972     5837     924
     Sum        3697    1495    433               849543   215251   33801



     bravais-lattice index     =            0
     lattice parameter (alat)  =       1.8897  a.u.
     unit-cell volume          =    3889.5841 (a.u.)^3
     number of atoms/cell      =           12
     number of atomic types    =            2
     number of electrons       =       156.00
     number of Kohn-Sham states=           94
     kinetic-energy cutoff     =      55.1240  Ry
     charge density cutoff     =     551.2396  Ry
     convergence threshold     =      1.0E-05
     mixing beta               =       0.1000
     number of iterations used =           10  plain     mixing
     Exchange-correlation= BEEF-VDW
                           (   1   4  43  14   2   0   0)

     celldm(1)=   1.889726  celldm(2)=   0.000000  celldm(3)=   0.000000
     celldm(4)=   0.000000  celldm(5)=   0.000000  celldm(6)=   0.000000

     crystal axes: (cart. coord. in units of alat)
               a(1) = (   5.235994   0.000000   0.000000 )  
               a(2) = (   2.617740   4.534652   0.000000 )  
               a(3) = (   0.000000   0.000000  24.275241 )  

     reciprocal axes: (cart. coord. in units 2 pi/alat)
               b(1) = (  0.190986 -0.110251  0.000000 )  
               b(2) = (  0.000000  0.220524  0.000000 )  
               b(3) = (  0.000000  0.000000  0.041194 )  


     PseudoPot. # 1 for Ni read from file:
     ../pseudo/Ni.pbe-n-rrkjus_psl.1.0.0.UPF
     MD5 check sum: 9f76af1bddcd5839b31985483df98d0a
     Pseudo is Ultrasoft + core correction, Zval = 10.0
     Generated using "atomic" code by A. Dal Corso v.6.5
     Using radial grid of 1195 points,  6 beta functions with: 
                l(1) =   0
                l(2) =   0
                l(3) =   1
                l(4) =   1
                l(5) =   2
                l(6) =   2
     Q(r) pseudized with 0 coefficients 


     PseudoPot. # 2 for Ru read from file:
     ../pseudo/Ru.pbe-spn-rrkjus_psl.1.0.0.UPF
     MD5 check sum: fbaca725316a1a65f98761fd4ac95971
     Pseudo is Ultrasoft + core correction, Zval = 16.0
     Generated using "atomic" code by A. Dal Corso v.6.2.2
     Using radial grid of 1233 points,  6 beta functions with: 
                l(1) =   0
                l(2) =   0
                l(3) =   1
                l(4) =   1
                l(5) =   2
                l(6) =   2
     Q(r) pseudized with 0 coefficients 


     atomic species   valence    mass     pseudopotential
        Ni            10.00    58.69340     Ni( 1.00)
        Ru            16.00   101.07000     Ru( 1.00)

     Starting magnetic structure 
     atomic species   magnetization
        Ni           0.500
        Ru           0.000

     No symmetry found



   Cartesian axes

     site n.     atom                  positions (alat units)
         1           Ni  tau(   1) = (   0.0000000   0.0000000  10.0000000  )
         2           Ni  tau(   2) = (   3.9268670   2.2673259  10.0000000  )
         3           Ru  tau(   3) = (   2.6179969   0.0000000  10.0000000  )
         4           Ru  tau(   4) = (   1.3088701   2.2673259  10.0000000  )
         5           Ni  tau(   5) = (   5.2359938   3.0232000  12.1376204  )
         6           Ni  tau(   6) = (   1.3091268   0.7558741  12.1376204  )
         7           Ru  tau(   7) = (   2.6179969   3.0232000  12.1376204  )
         8           Ru  tau(   8) = (   3.9271237   0.7558741  12.1376204  )
         9           Ni  tau(   9) = (   2.6051676   1.5041921  14.1950445  )
        10           Ni  tau(  10) = (   6.5322207   3.7716261  14.1952127  )
        11           Ru  tau(  11) = (   5.2145264   1.4991913  14.2101154  )
        12           Ru  tau(  12) = (   3.9053881   3.7665381  14.2101165  )

     number of k points=    74  Fermi-Dirac smearing, width (Ry)=  0.0100
                       cart. coord. in units 2pi/alat
        k(    1) = (   0.0000000   0.0000000   0.0000000), wk =   0.0069444
        k(    2) = (   0.0000000   0.0183770   0.0000000), wk =   0.0138889
        k(    3) = (   0.0000000   0.0367540   0.0000000), wk =   0.0138889
        k(    4) = (   0.0000000   0.0551310   0.0000000), wk =   0.0138889
        k(    5) = (   0.0000000   0.0735080   0.0000000), wk =   0.0138889
        k(    6) = (   0.0000000   0.0918850   0.0000000), wk =   0.0138889
        k(    7) = (   0.0000000  -0.1102620   0.0000000), wk =   0.0069444
        k(    8) = (   0.0159155  -0.0091876   0.0000000), wk =   0.0138889
        k(    9) = (   0.0159155   0.0091894   0.0000000), wk =   0.0138889
        k(   10) = (   0.0159155   0.0275664   0.0000000), wk =   0.0138889
        k(   11) = (   0.0159155   0.0459434   0.0000000), wk =   0.0138889
        k(   12) = (   0.0159155   0.0643204   0.0000000), wk =   0.0138889
        k(   13) = (   0.0159155   0.0826974   0.0000000), wk =   0.0138889
        k(   14) = (   0.0159155  -0.1194496   0.0000000), wk =   0.0138889
        k(   15) = (   0.0159155  -0.1010726   0.0000000), wk =   0.0138889
        k(   16) = (   0.0159155  -0.0826956   0.0000000), wk =   0.0138889
        k(   17) = (   0.0159155  -0.0643186   0.0000000), wk =   0.0138889
        k(   18) = (   0.0159155  -0.0459416   0.0000000), wk =   0.0138889
        k(   19) = (   0.0159155  -0.0275646   0.0000000), wk =   0.0138889
        k(   20) = (   0.0318310  -0.0183752   0.0000000), wk =   0.0138889
        k(   21) = (   0.0318310   0.0000018   0.0000000), wk =   0.0138889
        k(   22) = (   0.0318310   0.0183788   0.0000000), wk =   0.0138889
        k(   23) = (   0.0318310   0.0367558   0.0000000), wk =   0.0138889
        k(   24) = (   0.0318310   0.0551328   0.0000000), wk =   0.0138889
        k(   25) = (   0.0318310   0.0735098   0.0000000), wk =   0.0138889
        k(   26) = (   0.0318310  -0.1286372   0.0000000), wk =   0.0138889
        k(   27) = (   0.0318310  -0.1102602   0.0000000), wk =   0.0138889
        k(   28) = (   0.0318310  -0.0918832   0.0000000), wk =   0.0138889
        k(   29) = (   0.0318310  -0.0735062   0.0000000), wk =   0.0138889
        k(   30) = (   0.0318310  -0.0551292   0.0000000), wk =   0.0138889
        k(   31) = (   0.0318310  -0.0367522   0.0000000), wk =   0.0138889
        k(   32) = (   0.0477464  -0.0275628   0.0000000), wk =   0.0138889
        k(   33) = (   0.0477464  -0.0091858   0.0000000), wk =   0.0138889
        k(   34) = (   0.0477464   0.0091912   0.0000000), wk =   0.0138889
        k(   35) = (   0.0477464   0.0275682   0.0000000), wk =   0.0138889
        k(   36) = (   0.0477464   0.0459452   0.0000000), wk =   0.0138889
        k(   37) = (   0.0477464   0.0643222   0.0000000), wk =   0.0138889
        k(   38) = (   0.0477464  -0.1378248   0.0000000), wk =   0.0138889
        k(   39) = (   0.0477464  -0.1194478   0.0000000), wk =   0.0138889
        k(   40) = (   0.0477464  -0.1010708   0.0000000), wk =   0.0138889
        k(   41) = (   0.0477464  -0.0826938   0.0000000), wk =   0.0138889
        k(   42) = (   0.0477464  -0.0643168   0.0000000), wk =   0.0138889
        k(   43) = (   0.0477464  -0.0459398   0.0000000), wk =   0.0138889
        k(   44) = (   0.0636619  -0.0367504   0.0000000), wk =   0.0138889
        k(   45) = (   0.0636619  -0.0183734   0.0000000), wk =   0.0138889
        k(   46) = (   0.0636619   0.0000036   0.0000000), wk =   0.0138889
        k(   47) = (   0.0636619   0.0183806   0.0000000), wk =   0.0138889
        k(   48) = (   0.0636619   0.0367576   0.0000000), wk =   0.0138889
        k(   49) = (   0.0636619   0.0551346   0.0000000), wk =   0.0138889
        k(   50) = (   0.0636619  -0.1470125   0.0000000), wk =   0.0138889
        k(   51) = (   0.0636619  -0.1286354   0.0000000), wk =   0.0138889
        k(   52) = (   0.0636619  -0.1102584   0.0000000), wk =   0.0138889
        k(   53) = (   0.0636619  -0.0918814   0.0000000), wk =   0.0138889
        k(   54) = (   0.0636619  -0.0735044   0.0000000), wk =   0.0138889
        k(   55) = (   0.0636619  -0.0551274   0.0000000), wk =   0.0138889
        k(   56) = (   0.0795774  -0.0459380   0.0000000), wk =   0.0138889
        k(   57) = (   0.0795774  -0.0275610   0.0000000), wk =   0.0138889
        k(   58) = (   0.0795774  -0.0091840   0.0000000), wk =   0.0138889
        k(   59) = (   0.0795774   0.0091930   0.0000000), wk =   0.0138889
        k(   60) = (   0.0795774   0.0275700   0.0000000), wk =   0.0138889
        k(   61) = (   0.0795774   0.0459470   0.0000000), wk =   0.0138889
        k(   62) = (   0.0795774  -0.1562001   0.0000000), wk =   0.0138889
        k(   63) = (   0.0795774  -0.1378230   0.0000000), wk =   0.0138889
        k(   64) = (   0.0795774  -0.1194460   0.0000000), wk =   0.0138889
        k(   65) = (   0.0795774  -0.1010690   0.0000000), wk =   0.0138889
        k(   66) = (   0.0795774  -0.0826920   0.0000000), wk =   0.0138889
        k(   67) = (   0.0795774  -0.0643150   0.0000000), wk =   0.0138889
        k(   68) = (  -0.0954929   0.0551256   0.0000000), wk =   0.0069444
        k(   69) = (  -0.0954929   0.0735026   0.0000000), wk =   0.0138889
        k(   70) = (  -0.0954929   0.0918796   0.0000000), wk =   0.0138889
        k(   71) = (  -0.0954929   0.1102566   0.0000000), wk =   0.0138889
        k(   72) = (  -0.0954929   0.1286336   0.0000000), wk =   0.0138889
        k(   73) = (  -0.0954929   0.1470106   0.0000000), wk =   0.0138889
        k(   74) = (  -0.0954929  -0.0551364   0.0000000), wk =   0.0069444

     Dense  grid:   849543 G-vectors     FFT dimensions: (  75,  75, 360)

     Smooth grid:   215251 G-vectors     FFT dimensions: (  48,  48, 225)

     Estimated max dynamical RAM per process >     258.46 MB

     Estimated total dynamical RAM >       9.34 GB
     Generating pointlists ...
     new r_m :   1.0495 (alat units)  1.9832 (a.u.) for type    1
     new r_m :   1.0521 (alat units)  1.9882 (a.u.) for type    2

     Initial potential from superposition of free atoms

     starting charge  155.99469, renormalised to  156.00000


     %%%%%%%%%%%%%%%%%%%%%%%%%%%%%%%%%%%%%%%%%%%%%%%%%%%%%%%%%%%%%%%%%%%%%%%%
     %                                                                      %
     % You are using vdW-DF, which was implemented by the Thonhauser group. %
     % Please cite the following two papers that made this development      %
     % possible and the two reviews that describe the various versions:     %
     %                                                                      %
     %   T. Thonhauser et al., PRL 115, 136402 (2015).                      %
     %   T. Thonhauser et al., PRB 76, 125112 (2007).                       %
     %   K. Berland et al., Rep. Prog. Phys. 78, 066501 (2015).             %
     %   D.C. Langreth et al., J. Phys.: Condens. Matter 21, 084203 (2009). %
     %                                                                      %
     %                                                                      %
     % If you are calculating the stress with vdW-DF, please also cite:     %
     %                                                                      %
     %   R. Sabatini et al., J. Phys.: Condens. Matter 24, 424209 (2012).   %
     %                                                                      %
     %%%%%%%%%%%%%%%%%%%%%%%%%%%%%%%%%%%%%%%%%%%%%%%%%%%%%%%%%%%%%%%%%%%%%%%%



     Adding external electric field

     Computed dipole along edir(3) : 
        Dipole                0.0000 Ry au,          0.0000 Debye
        Dipole field          0.0000 Ry au, 

        Potential amp.       -0.0000 Ry
        Total length         44.7267 bohr


     Adding external electric field

     Computed dipole along edir(3) : 
        Dipole                0.0000 Ry au,          0.0000 Debye
        Dipole field          0.0000 Ry au, 

        Potential amp.       -0.0000 Ry
        Total length         44.7267 bohr

     Starting wfcs are  114 randomized atomic wfcs

     total cpu time spent up to now is      163.8 secs

     Self-consistent Calculation

     iteration #  1     ecut=    55.12 Ry     beta= 0.10
     Davidson diagonalization with overlap
     ethr =  1.00E-02,  avg # of iterations =  2.7

     Adding external electric field

     Computed dipole along edir(3) : 
        Dipole               -0.1908 Ry au,         -0.4850 Debye
        Dipole field         -0.0006 Ry au, 

        Potential amp.        0.0552 Ry
        Total length         44.7267 bohr


     Adding external electric field

     Computed dipole along edir(3) : 
        Dipole               -0.1908 Ry au,         -0.4850 Debye
        Dipole field         -0.0006 Ry au, 

        Potential amp.        0.0552 Ry
        Total length         44.7267 bohr


     total cpu time spent up to now is      554.2 secs

     total energy              =   -1798.34398698 Ry
     estimated scf accuracy    <       5.73111986 Ry

     total magnetization       =    14.31 Bohr mag/cell
     absolute magnetization    =    14.34 Bohr mag/cell

     iteration #  2     ecut=    55.12 Ry     beta= 0.10
     Davidson diagonalization with overlap
     ethr =  3.67E-03,  avg # of iterations =  1.4

     Adding external electric field

     Computed dipole along edir(3) : 
        Dipole                0.3513 Ry au,          0.8930 Debye
        Dipole field          0.0011 Ry au, 

        Potential amp.       -0.1015 Ry
        Total length         44.7267 bohr


     Adding external electric field

     Computed dipole along edir(3) : 
        Dipole                0.3513 Ry au,          0.8930 Debye
        Dipole field          0.0011 Ry au, 

        Potential amp.       -0.1015 Ry
        Total length         44.7267 bohr


     total cpu time spent up to now is      886.5 secs

     total energy              =   -1798.87685322 Ry
     estimated scf accuracy    <      11.67912940 Ry

     total magnetization       =     7.65 Bohr mag/cell
     absolute magnetization    =     7.69 Bohr mag/cell

     iteration #  3     ecut=    55.12 Ry     beta= 0.10
     Davidson diagonalization with overlap
     ethr =  3.67E-03,  avg # of iterations =  1.0

     Adding external electric field

     Computed dipole along edir(3) : 
        Dipole               -0.0711 Ry au,         -0.1808 Debye
        Dipole field         -0.0002 Ry au, 

        Potential amp.        0.0206 Ry
        Total length         44.7267 bohr


     Adding external electric field

     Computed dipole along edir(3) : 
        Dipole               -0.0711 Ry au,         -0.1808 Debye
        Dipole field         -0.0002 Ry au, 

        Potential amp.        0.0206 Ry
        Total length         44.7267 bohr


     total cpu time spent up to now is     1202.0 secs

     total energy              =   -1799.35817948 Ry
     estimated scf accuracy    <      20.46016889 Ry

     total magnetization       =     7.92 Bohr mag/cell
     absolute magnetization    =     7.95 Bohr mag/cell

     iteration #  4     ecut=    55.12 Ry     beta= 0.10
     Davidson diagonalization with overlap
     ethr =  3.67E-03,  avg # of iterations =  1.0

     Adding external electric field

     Computed dipole along edir(3) : 
        Dipole                0.0221 Ry au,          0.0562 Debye
        Dipole field          0.0001 Ry au, 

        Potential amp.       -0.0064 Ry
        Total length         44.7267 bohr


     Adding external electric field

     Computed dipole along edir(3) : 
        Dipole                0.0221 Ry au,          0.0562 Debye
        Dipole field          0.0001 Ry au, 

        Potential amp.       -0.0064 Ry
        Total length         44.7267 bohr


     total cpu time spent up to now is     1566.6 secs

     total energy              =   -1799.83809171 Ry
     estimated scf accuracy    <       3.48698249 Ry

     total magnetization       =     8.66 Bohr mag/cell
     absolute magnetization    =     8.69 Bohr mag/cell

     iteration #  5     ecut=    55.12 Ry     beta= 0.10
     Davidson diagonalization with overlap
     ethr =  2.24E-03,  avg # of iterations =  1.0

     Adding external electric field

     Computed dipole along edir(3) : 
        Dipole                0.0523 Ry au,          0.1329 Debye
        Dipole field          0.0002 Ry au, 

        Potential amp.       -0.0151 Ry
        Total length         44.7267 bohr


     Adding external electric field

     Computed dipole along edir(3) : 
        Dipole                0.0523 Ry au,          0.1329 Debye
        Dipole field          0.0002 Ry au, 

        Potential amp.       -0.0151 Ry
        Total length         44.7267 bohr


     total cpu time spent up to now is     1956.2 secs

     total energy              =   -1799.14526467 Ry
     estimated scf accuracy    <       1.68638801 Ry

     total magnetization       =     9.64 Bohr mag/cell
     absolute magnetization    =     9.67 Bohr mag/cell

     iteration #  6     ecut=    55.12 Ry     beta= 0.10
     Davidson diagonalization with overlap
     ethr =  1.08E-03,  avg # of iterations =  1.2

     Adding external electric field

     Computed dipole along edir(3) : 
        Dipole                0.0253 Ry au,          0.0642 Debye
        Dipole field          0.0001 Ry au, 

        Potential amp.       -0.0073 Ry
        Total length         44.7267 bohr


     Adding external electric field

     Computed dipole along edir(3) : 
        Dipole                0.0253 Ry au,          0.0642 Debye
        Dipole field          0.0001 Ry au, 

        Potential amp.       -0.0073 Ry
        Total length         44.7267 bohr


     total cpu time spent up to now is     2327.2 secs

     total energy              =   -1799.19118842 Ry
     estimated scf accuracy    <       1.75281097 Ry

     total magnetization       =    10.24 Bohr mag/cell
     absolute magnetization    =    10.34 Bohr mag/cell

     iteration #  7     ecut=    55.12 Ry     beta= 0.10
     Davidson diagonalization with overlap
     ethr =  1.08E-03,  avg # of iterations =  1.0

     Adding external electric field

     Computed dipole along edir(3) : 
        Dipole               -0.0355 Ry au,         -0.0903 Debye
        Dipole field         -0.0001 Ry au, 

        Potential amp.        0.0103 Ry
        Total length         44.7267 bohr


     Adding external electric field

     Computed dipole along edir(3) : 
        Dipole               -0.0355 Ry au,         -0.0903 Debye
        Dipole field         -0.0001 Ry au, 

        Potential amp.        0.0103 Ry
        Total length         44.7267 bohr


     total cpu time spent up to now is     2673.3 secs

     total energy              =   -1799.72908155 Ry
     estimated scf accuracy    <       0.65366315 Ry

     total magnetization       =     9.00 Bohr mag/cell
     absolute magnetization    =     9.12 Bohr mag/cell

     iteration #  8     ecut=    55.12 Ry     beta= 0.10
     Davidson diagonalization with overlap
     ethr =  4.19E-04,  avg # of iterations =  1.2

     Adding external electric field

     Computed dipole along edir(3) : 
        Dipole               -0.0128 Ry au,         -0.0326 Debye
        Dipole field         -0.0000 Ry au, 

        Potential amp.        0.0037 Ry
        Total length         44.7267 bohr


     Adding external electric field

     Computed dipole along edir(3) : 
        Dipole               -0.0128 Ry au,         -0.0326 Debye
        Dipole field         -0.0000 Ry au, 

        Potential amp.        0.0037 Ry
        Total length         44.7267 bohr


     total cpu time spent up to now is     2981.5 secs

     total energy              =   -1800.98895354 Ry
     estimated scf accuracy    <       1.93389100 Ry

     total magnetization       =     6.56 Bohr mag/cell
     absolute magnetization    =     6.79 Bohr mag/cell

     iteration #  9     ecut=    55.12 Ry     beta= 0.10
     Davidson diagonalization with overlap
     ethr =  4.19E-04,  avg # of iterations =  1.2

     Adding external electric field

     Computed dipole along edir(3) : 
        Dipole                0.0143 Ry au,          0.0364 Debye
        Dipole field          0.0000 Ry au, 

        Potential amp.       -0.0041 Ry
        Total length         44.7267 bohr


     Adding external electric field

     Computed dipole along edir(3) : 
        Dipole                0.0143 Ry au,          0.0364 Debye
        Dipole field          0.0000 Ry au, 

        Potential amp.       -0.0041 Ry
        Total length         44.7267 bohr


     total cpu time spent up to now is     3295.8 secs

     total energy              =   -1802.97855841 Ry
     estimated scf accuracy    <       0.83680225 Ry

     total magnetization       =     6.39 Bohr mag/cell
     absolute magnetization    =     6.82 Bohr mag/cell

     iteration # 10     ecut=    55.12 Ry     beta= 0.10
     Davidson diagonalization with overlap
     ethr =  4.19E-04,  avg # of iterations =  1.6

     Adding external electric field

     Computed dipole along edir(3) : 
        Dipole                0.0121 Ry au,          0.0308 Debye
        Dipole field          0.0000 Ry au, 

        Potential amp.       -0.0035 Ry
        Total length         44.7267 bohr


     Adding external electric field

     Computed dipole along edir(3) : 
        Dipole                0.0121 Ry au,          0.0308 Debye
        Dipole field          0.0000 Ry au, 

        Potential amp.       -0.0035 Ry
        Total length         44.7267 bohr


     total cpu time spent up to now is     3635.0 secs

     total energy              =   -1803.10796305 Ry
     estimated scf accuracy    <       0.28372475 Ry

     total magnetization       =     5.37 Bohr mag/cell
     absolute magnetization    =     6.13 Bohr mag/cell

     iteration # 11     ecut=    55.12 Ry     beta= 0.10
     Davidson diagonalization with overlap
     ethr =  1.82E-04,  avg # of iterations =  1.2

     Adding external electric field

     Computed dipole along edir(3) : 
        Dipole                0.0260 Ry au,          0.0660 Debye
        Dipole field          0.0001 Ry au, 

        Potential amp.       -0.0075 Ry
        Total length         44.7267 bohr


     Adding external electric field

     Computed dipole along edir(3) : 
        Dipole                0.0260 Ry au,          0.0660 Debye
        Dipole field          0.0001 Ry au, 

        Potential amp.       -0.0075 Ry
        Total length         44.7267 bohr


     total cpu time spent up to now is     3956.4 secs

     total energy              =   -1803.50106527 Ry
     estimated scf accuracy    <       0.15095000 Ry

     total magnetization       =     4.64 Bohr mag/cell
     absolute magnetization    =     5.45 Bohr mag/cell

     iteration # 12     ecut=    55.12 Ry     beta= 0.10
     Davidson diagonalization with overlap
     ethr =  9.68E-05,  avg # of iterations =  2.2

     Adding external electric field

     Computed dipole along edir(3) : 
        Dipole                0.0209 Ry au,          0.0532 Debye
        Dipole field          0.0001 Ry au, 

        Potential amp.       -0.0061 Ry
        Total length         44.7267 bohr


     Adding external electric field

     Computed dipole along edir(3) : 
        Dipole                0.0209 Ry au,          0.0532 Debye
        Dipole field          0.0001 Ry au, 

        Potential amp.       -0.0061 Ry
        Total length         44.7267 bohr


     total cpu time spent up to now is     4303.8 secs

     total energy              =   -1803.41375860 Ry
     estimated scf accuracy    <       0.41752854 Ry

     total magnetization       =     2.85 Bohr mag/cell
     absolute magnetization    =     3.75 Bohr mag/cell

     iteration # 13     ecut=    55.12 Ry     beta= 0.10
     Davidson diagonalization with overlap
     ethr =  9.68E-05,  avg # of iterations =  1.2

     Adding external electric field

     Computed dipole along edir(3) : 
        Dipole                0.0027 Ry au,          0.0069 Debye
        Dipole field          0.0000 Ry au, 

        Potential amp.       -0.0008 Ry
        Total length         44.7267 bohr


     Adding external electric field

     Computed dipole along edir(3) : 
        Dipole                0.0027 Ry au,          0.0069 Debye
        Dipole field          0.0000 Ry au, 

        Potential amp.       -0.0008 Ry
        Total length         44.7267 bohr


     total cpu time spent up to now is     4659.4 secs

     total energy              =   -1803.16728398 Ry
     estimated scf accuracy    <       0.25928478 Ry

     total magnetization       =     2.37 Bohr mag/cell
     absolute magnetization    =     3.24 Bohr mag/cell

     iteration # 14     ecut=    55.12 Ry     beta= 0.10
     Davidson diagonalization with overlap
     ethr =  9.68E-05,  avg # of iterations =  1.3

     Adding external electric field

     Computed dipole along edir(3) : 
        Dipole                0.0071 Ry au,          0.0181 Debye
        Dipole field          0.0000 Ry au, 

        Potential amp.       -0.0021 Ry
        Total length         44.7267 bohr


     Adding external electric field

     Computed dipole along edir(3) : 
        Dipole                0.0071 Ry au,          0.0181 Debye
        Dipole field          0.0000 Ry au, 

        Potential amp.       -0.0021 Ry
        Total length         44.7267 bohr


     total cpu time spent up to now is     4991.4 secs

     total energy              =   -1802.79917059 Ry
     estimated scf accuracy    <       0.03503927 Ry

     total magnetization       =     1.94 Bohr mag/cell
     absolute magnetization    =     2.69 Bohr mag/cell

     iteration # 15     ecut=    55.12 Ry     beta= 0.10
     Davidson diagonalization with overlap
     ethr =  2.25E-05,  avg # of iterations =  3.2

     Adding external electric field

     Computed dipole along edir(3) : 
        Dipole                0.0044 Ry au,          0.0112 Debye
        Dipole field          0.0000 Ry au, 

        Potential amp.       -0.0013 Ry
        Total length         44.7267 bohr


     Adding external electric field

     Computed dipole along edir(3) : 
        Dipole                0.0044 Ry au,          0.0112 Debye
        Dipole field          0.0000 Ry au, 

        Potential amp.       -0.0013 Ry
        Total length         44.7267 bohr


     total cpu time spent up to now is     5386.8 secs

     total energy              =   -1802.42131509 Ry
     estimated scf accuracy    <       0.01121710 Ry

     total magnetization       =     2.02 Bohr mag/cell
     absolute magnetization    =     2.70 Bohr mag/cell

     iteration # 16     ecut=    55.12 Ry     beta= 0.10
     Davidson diagonalization with overlap
     c_bands:  1 eigenvalues not converged
     c_bands:  1 eigenvalues not converged
     c_bands:  1 eigenvalues not converged
     c_bands:  1 eigenvalues not converged
     c_bands:  1 eigenvalues not converged
     ethr =  7.19E-06,  avg # of iterations =  3.7

     Adding external electric field

     Computed dipole along edir(3) : 
        Dipole                0.0054 Ry au,          0.0138 Debye
        Dipole field          0.0000 Ry au, 

        Potential amp.       -0.0016 Ry
        Total length         44.7267 bohr


     Adding external electric field

     Computed dipole along edir(3) : 
        Dipole                0.0054 Ry au,          0.0138 Debye
        Dipole field          0.0000 Ry au, 

        Potential amp.       -0.0016 Ry
        Total length         44.7267 bohr


     total cpu time spent up to now is     5770.5 secs

     total energy              =   -1801.97735474 Ry
     estimated scf accuracy    <       0.00404852 Ry

     total magnetization       =     2.14 Bohr mag/cell
     absolute magnetization    =     2.79 Bohr mag/cell

     iteration # 17     ecut=    55.12 Ry     beta= 0.10
     Davidson diagonalization with overlap
     c_bands:  1 eigenvalues not converged
     ethr =  2.60E-06,  avg # of iterations =  4.1

     Adding external electric field

     Computed dipole along edir(3) : 
        Dipole                0.0058 Ry au,          0.0148 Debye
        Dipole field          0.0000 Ry au, 

        Potential amp.       -0.0017 Ry
        Total length         44.7267 bohr


     Adding external electric field

     Computed dipole along edir(3) : 
        Dipole                0.0058 Ry au,          0.0148 Debye
        Dipole field          0.0000 Ry au, 

        Potential amp.       -0.0017 Ry
        Total length         44.7267 bohr


     total cpu time spent up to now is     6167.0 secs

     total energy              =   -1801.85003421 Ry
     estimated scf accuracy    <       0.00220766 Ry

     total magnetization       =     2.39 Bohr mag/cell
     absolute magnetization    =     2.93 Bohr mag/cell

     iteration # 18     ecut=    55.12 Ry     beta= 0.10
     Davidson diagonalization with overlap
     ethr =  1.42E-06,  avg # of iterations =  2.9

     Adding external electric field

     Computed dipole along edir(3) : 
        Dipole                0.0039 Ry au,          0.0098 Debye
        Dipole field          0.0000 Ry au, 

        Potential amp.       -0.0011 Ry
        Total length         44.7267 bohr


     Adding external electric field

     Computed dipole along edir(3) : 
        Dipole                0.0039 Ry au,          0.0098 Debye
        Dipole field          0.0000 Ry au, 

        Potential amp.       -0.0011 Ry
        Total length         44.7267 bohr


     total cpu time spent up to now is     6587.2 secs

     total energy              =   -1801.70192091 Ry
     estimated scf accuracy    <       0.00471624 Ry

     total magnetization       =     2.09 Bohr mag/cell
     absolute magnetization    =     2.53 Bohr mag/cell

     iteration # 19     ecut=    55.12 Ry     beta= 0.10
     Davidson diagonalization with overlap
     ethr =  1.42E-06,  avg # of iterations =  1.2

     Adding external electric field

     Computed dipole along edir(3) : 
        Dipole                0.0062 Ry au,          0.0158 Debye
        Dipole field          0.0000 Ry au, 

        Potential amp.       -0.0018 Ry
        Total length         44.7267 bohr


     Adding external electric field

     Computed dipole along edir(3) : 
        Dipole                0.0062 Ry au,          0.0158 Debye
        Dipole field          0.0000 Ry au, 

        Potential amp.       -0.0018 Ry
        Total length         44.7267 bohr


     total cpu time spent up to now is     6916.5 secs

     total energy              =   -1801.47783328 Ry
     estimated scf accuracy    <       0.00311419 Ry

     total magnetization       =     1.87 Bohr mag/cell
     absolute magnetization    =     2.30 Bohr mag/cell

     iteration # 20     ecut=    55.12 Ry     beta= 0.10
     Davidson diagonalization with overlap
     ethr =  1.42E-06,  avg # of iterations =  1.3

     Adding external electric field

     Computed dipole along edir(3) : 
        Dipole                0.0060 Ry au,          0.0151 Debye
        Dipole field          0.0000 Ry au, 

        Potential amp.       -0.0017 Ry
        Total length         44.7267 bohr


     Adding external electric field

     Computed dipole along edir(3) : 
        Dipole                0.0060 Ry au,          0.0151 Debye
        Dipole field          0.0000 Ry au, 

        Potential amp.       -0.0017 Ry
        Total length         44.7267 bohr


     total cpu time spent up to now is     7241.4 secs

     total energy              =   -1801.26952054 Ry
     estimated scf accuracy    <       0.00123091 Ry

     total magnetization       =     1.80 Bohr mag/cell
     absolute magnetization    =     2.18 Bohr mag/cell

     iteration # 21     ecut=    55.12 Ry     beta= 0.10
     Davidson diagonalization with overlap
     ethr =  7.89E-07,  avg # of iterations =  1.1

     Adding external electric field

     Computed dipole along edir(3) : 
        Dipole                0.0069 Ry au,          0.0176 Debye
        Dipole field          0.0000 Ry au, 

        Potential amp.       -0.0020 Ry
        Total length         44.7267 bohr


     Adding external electric field

     Computed dipole along edir(3) : 
        Dipole                0.0069 Ry au,          0.0176 Debye
        Dipole field          0.0000 Ry au, 

        Potential amp.       -0.0020 Ry
        Total length         44.7267 bohr


     total cpu time spent up to now is     7564.6 secs

     total energy              =   -1801.13338321 Ry
     estimated scf accuracy    <       0.00072695 Ry

     total magnetization       =     1.75 Bohr mag/cell
     absolute magnetization    =     2.11 Bohr mag/cell

     iteration # 22     ecut=    55.12 Ry     beta= 0.10
     Davidson diagonalization with overlap
     c_bands:  1 eigenvalues not converged
     ethr =  4.66E-07,  avg # of iterations =  2.3

     Adding external electric field

     Computed dipole along edir(3) : 
        Dipole                0.0065 Ry au,          0.0165 Debye
        Dipole field          0.0000 Ry au, 

        Potential amp.       -0.0019 Ry
        Total length         44.7267 bohr


     Adding external electric field

     Computed dipole along edir(3) : 
        Dipole                0.0065 Ry au,          0.0165 Debye
        Dipole field          0.0000 Ry au, 

        Potential amp.       -0.0019 Ry
        Total length         44.7267 bohr


     total cpu time spent up to now is     8042.0 secs

     total energy              =   -1800.98806796 Ry
     estimated scf accuracy    <       0.00028159 Ry

     total magnetization       =     1.55 Bohr mag/cell
     absolute magnetization    =     1.84 Bohr mag/cell

     iteration # 23     ecut=    55.12 Ry     beta= 0.10
     Davidson diagonalization with overlap
     ethr =  1.81E-07,  avg # of iterations =  2.3

     Adding external electric field

     Computed dipole along edir(3) : 
        Dipole                0.0068 Ry au,          0.0172 Debye
        Dipole field          0.0000 Ry au, 

        Potential amp.       -0.0020 Ry
        Total length         44.7267 bohr


     Adding external electric field

     Computed dipole along edir(3) : 
        Dipole                0.0068 Ry au,          0.0172 Debye
        Dipole field          0.0000 Ry au, 

        Potential amp.       -0.0020 Ry
        Total length         44.7267 bohr


     total cpu time spent up to now is     8427.9 secs

     total energy              =   -1800.83627295 Ry
     estimated scf accuracy    <       0.00025060 Ry

     total magnetization       =     1.46 Bohr mag/cell
     absolute magnetization    =     1.73 Bohr mag/cell

     iteration # 24     ecut=    55.12 Ry     beta= 0.10
     Davidson diagonalization with overlap
     ethr =  1.61E-07,  avg # of iterations =  2.2

     Adding external electric field

     Computed dipole along edir(3) : 
        Dipole                0.0072 Ry au,          0.0183 Debye
        Dipole field          0.0000 Ry au, 

        Potential amp.       -0.0021 Ry
        Total length         44.7267 bohr


     Adding external electric field

     Computed dipole along edir(3) : 
        Dipole                0.0072 Ry au,          0.0183 Debye
        Dipole field          0.0000 Ry au, 

        Potential amp.       -0.0021 Ry
        Total length         44.7267 bohr


     total cpu time spent up to now is     8829.0 secs

     total energy              =   -1800.70859592 Ry
     estimated scf accuracy    <       0.00016717 Ry

     total magnetization       =     1.40 Bohr mag/cell
     absolute magnetization    =     1.63 Bohr mag/cell

     iteration # 25     ecut=    55.12 Ry     beta= 0.10
     Davidson diagonalization with overlap
     ethr =  1.07E-07,  avg # of iterations =  5.3

     Adding external electric field

     Computed dipole along edir(3) : 
        Dipole                0.0070 Ry au,          0.0178 Debye
        Dipole field          0.0000 Ry au, 

        Potential amp.       -0.0020 Ry
        Total length         44.7267 bohr


     Adding external electric field

     Computed dipole along edir(3) : 
        Dipole                0.0070 Ry au,          0.0178 Debye
        Dipole field          0.0000 Ry au, 

        Potential amp.       -0.0020 Ry
        Total length         44.7267 bohr


     total cpu time spent up to now is     9318.5 secs

     total energy              =   -1800.63348053 Ry
     estimated scf accuracy    <       0.00018976 Ry

     total magnetization       =     1.32 Bohr mag/cell
     absolute magnetization    =     1.50 Bohr mag/cell

     iteration # 26     ecut=    55.12 Ry     beta= 0.10
     Davidson diagonalization with overlap
     ethr =  1.07E-07,  avg # of iterations =  2.0

     Adding external electric field

     Computed dipole along edir(3) : 
        Dipole                0.0069 Ry au,          0.0176 Debye
        Dipole field          0.0000 Ry au, 

        Potential amp.       -0.0020 Ry
        Total length         44.7267 bohr


     Adding external electric field

     Computed dipole along edir(3) : 
        Dipole                0.0069 Ry au,          0.0176 Debye
        Dipole field          0.0000 Ry au, 

        Potential amp.       -0.0020 Ry
        Total length         44.7267 bohr


     total cpu time spent up to now is     9923.1 secs

     total energy              =   -1800.51326127 Ry
     estimated scf accuracy    <       0.00011021 Ry

     total magnetization       =     1.19 Bohr mag/cell
     absolute magnetization    =     1.34 Bohr mag/cell

     iteration # 27     ecut=    55.12 Ry     beta= 0.10
     Davidson diagonalization with overlap
     ethr =  7.06E-08,  avg # of iterations =  1.8

     Adding external electric field

     Computed dipole along edir(3) : 
        Dipole                0.0071 Ry au,          0.0182 Debye
        Dipole field          0.0000 Ry au, 

        Potential amp.       -0.0021 Ry
        Total length         44.7267 bohr


     Adding external electric field

     Computed dipole along edir(3) : 
        Dipole                0.0071 Ry au,          0.0182 Debye
        Dipole field          0.0000 Ry au, 

        Potential amp.       -0.0021 Ry
        Total length         44.7267 bohr


     total cpu time spent up to now is    10308.1 secs

     total energy              =   -1800.48245920 Ry
     estimated scf accuracy    <       0.00009082 Ry

     total magnetization       =     1.12 Bohr mag/cell
     absolute magnetization    =     1.26 Bohr mag/cell

     iteration # 28     ecut=    55.12 Ry     beta= 0.10
     Davidson diagonalization with overlap
     ethr =  5.82E-08,  avg # of iterations =  2.6

     Adding external electric field

     Computed dipole along edir(3) : 
        Dipole                0.0068 Ry au,          0.0174 Debye
        Dipole field          0.0000 Ry au, 

        Potential amp.       -0.0020 Ry
        Total length         44.7267 bohr


     Adding external electric field

     Computed dipole along edir(3) : 
        Dipole                0.0068 Ry au,          0.0174 Debye
        Dipole field          0.0000 Ry au, 

        Potential amp.       -0.0020 Ry
        Total length         44.7267 bohr


     total cpu time spent up to now is    10718.5 secs

     total energy              =   -1800.52076708 Ry
     estimated scf accuracy    <       0.00007214 Ry

     total magnetization       =     0.96 Bohr mag/cell
     absolute magnetization    =     1.08 Bohr mag/cell

     iteration # 29     ecut=    55.12 Ry     beta= 0.10
     Davidson diagonalization with overlap
     ethr =  4.62E-08,  avg # of iterations =  4.7

     Adding external electric field

     Computed dipole along edir(3) : 
        Dipole                0.0068 Ry au,          0.0173 Debye
        Dipole field          0.0000 Ry au, 

        Potential amp.       -0.0020 Ry
        Total length         44.7267 bohr


     Adding external electric field

     Computed dipole along edir(3) : 
        Dipole                0.0068 Ry au,          0.0173 Debye
        Dipole field          0.0000 Ry au, 

        Potential amp.       -0.0020 Ry
        Total length         44.7267 bohr


     total cpu time spent up to now is    11175.7 secs

     total energy              =   -1800.62206261 Ry
     estimated scf accuracy    <       0.00006883 Ry

     total magnetization       =     0.76 Bohr mag/cell
     absolute magnetization    =     0.86 Bohr mag/cell

     iteration # 30     ecut=    55.12 Ry     beta= 0.10
     Davidson diagonalization with overlap
     ethr =  4.41E-08,  avg # of iterations =  3.7

     Adding external electric field

     Computed dipole along edir(3) : 
        Dipole                0.0067 Ry au,          0.0171 Debye
        Dipole field          0.0000 Ry au, 

        Potential amp.       -0.0019 Ry
        Total length         44.7267 bohr


     Adding external electric field

     Computed dipole along edir(3) : 
        Dipole                0.0067 Ry au,          0.0171 Debye
        Dipole field          0.0000 Ry au, 

        Potential amp.       -0.0019 Ry
        Total length         44.7267 bohr


     total cpu time spent up to now is    11624.5 secs

     total energy              =   -1800.50291408 Ry
     estimated scf accuracy    <       0.00003951 Ry

     total magnetization       =     0.56 Bohr mag/cell
     absolute magnetization    =     0.63 Bohr mag/cell

     iteration # 31     ecut=    55.12 Ry     beta= 0.10
     Davidson diagonalization with overlap
     ethr =  2.53E-08,  avg # of iterations =  1.8

     Adding external electric field

     Computed dipole along edir(3) : 
        Dipole                0.0072 Ry au,          0.0184 Debye
        Dipole field          0.0000 Ry au, 

        Potential amp.       -0.0021 Ry
        Total length         44.7267 bohr


     Adding external electric field

     Computed dipole along edir(3) : 
        Dipole                0.0072 Ry au,          0.0184 Debye
        Dipole field          0.0000 Ry au, 

        Potential amp.       -0.0021 Ry
        Total length         44.7267 bohr


     total cpu time spent up to now is    11965.4 secs

     total energy              =   -1800.48333998 Ry
     estimated scf accuracy    <       0.00003269 Ry

     total magnetization       =     0.52 Bohr mag/cell
     absolute magnetization    =     0.59 Bohr mag/cell

     iteration # 32     ecut=    55.12 Ry     beta= 0.10
     Davidson diagonalization with overlap
     ethr =  2.10E-08,  avg # of iterations =  2.5

     Adding external electric field

     Computed dipole along edir(3) : 
        Dipole                0.0066 Ry au,          0.0167 Debye
        Dipole field          0.0000 Ry au, 

        Potential amp.       -0.0019 Ry
        Total length         44.7267 bohr


     Adding external electric field

     Computed dipole along edir(3) : 
        Dipole                0.0066 Ry au,          0.0167 Debye
        Dipole field          0.0000 Ry au, 

        Potential amp.       -0.0019 Ry
        Total length         44.7267 bohr


     total cpu time spent up to now is    12411.6 secs

     total energy              =   -1800.36745198 Ry
     estimated scf accuracy    <       0.00006648 Ry

     total magnetization       =     0.45 Bohr mag/cell
     absolute magnetization    =     0.49 Bohr mag/cell

     iteration # 33     ecut=    55.12 Ry     beta= 0.10
     Davidson diagonalization with overlap
     ethr =  2.10E-08,  avg # of iterations =  1.6

     Adding external electric field

     Computed dipole along edir(3) : 
        Dipole                0.0067 Ry au,          0.0171 Debye
        Dipole field          0.0000 Ry au, 

        Potential amp.       -0.0019 Ry
        Total length         44.7267 bohr


     Adding external electric field

     Computed dipole along edir(3) : 
        Dipole                0.0067 Ry au,          0.0171 Debye
        Dipole field          0.0000 Ry au, 

        Potential amp.       -0.0019 Ry
        Total length         44.7267 bohr


     total cpu time spent up to now is    12768.2 secs

     total energy              =   -1800.41275801 Ry
     estimated scf accuracy    <       0.00002828 Ry

     total magnetization       =     0.40 Bohr mag/cell
     absolute magnetization    =     0.45 Bohr mag/cell

     iteration # 34     ecut=    55.12 Ry     beta= 0.10
     Davidson diagonalization with overlap
     ethr =  1.81E-08,  avg # of iterations =  3.2

     Adding external electric field

     Computed dipole along edir(3) : 
        Dipole                0.0069 Ry au,          0.0176 Debye
        Dipole field          0.0000 Ry au, 

        Potential amp.       -0.0020 Ry
        Total length         44.7267 bohr


     Adding external electric field

     Computed dipole along edir(3) : 
        Dipole                0.0069 Ry au,          0.0176 Debye
        Dipole field          0.0000 Ry au, 

        Potential amp.       -0.0020 Ry
        Total length         44.7267 bohr


     total cpu time spent up to now is    13226.8 secs

     total energy              =   -1800.38694560 Ry
     estimated scf accuracy    <       0.00001577 Ry

     total magnetization       =     0.29 Bohr mag/cell
     absolute magnetization    =     0.33 Bohr mag/cell

     iteration # 35     ecut=    55.12 Ry     beta= 0.10
     Davidson diagonalization with overlap
     ethr =  1.01E-08,  avg # of iterations =  4.4

     Adding external electric field

     Computed dipole along edir(3) : 
        Dipole               -0.0022 Ry au,         -0.0056 Debye
        Dipole field         -0.0000 Ry au, 

        Potential amp.        0.0006 Ry
        Total length         44.7267 bohr


     Adding external electric field

     Computed dipole along edir(3) : 
        Dipole               -0.0022 Ry au,         -0.0056 Debye
        Dipole field         -0.0000 Ry au, 

        Potential amp.        0.0006 Ry
        Total length         44.7267 bohr


     Magnetic moment per site:
     atom:    1    charge:    8.7573    magn:    0.0214    constr:    0.0000
     atom:    2    charge:    8.7568    magn:    0.0214    constr:    0.0000
     atom:    3    charge:   13.5843    magn:    0.0401    constr:    0.0000
     atom:    4    charge:   13.5843    magn:    0.0401    constr:    0.0000
     atom:    5    charge:    8.8561    magn:    0.0097    constr:    0.0000
     atom:    6    charge:    8.8550    magn:    0.0097    constr:    0.0000
     atom:    7    charge:   13.6149    magn:    0.0023    constr:    0.0000
     atom:    8    charge:   13.6149    magn:    0.0023    constr:    0.0000
     atom:    9    charge:    8.7832    magn:    0.0097    constr:    0.0000
     atom:   10    charge:    8.7831    magn:    0.0097    constr:    0.0000
     atom:   11    charge:   13.6017    magn:    0.0271    constr:    0.0000
     atom:   12    charge:   13.6017    magn:    0.0271    constr:    0.0000

     total cpu time spent up to now is    13711.9 secs

     End of self-consistent calculation

     Number of k-points >= 100: set verbosity='high' to print the bands.

     the Fermi energy is     0.9662 ev

!    total energy              =   -1799.04839794 Ry
     estimated scf accuracy    <       0.00000967 Ry
     smearing contrib. (-TS)   =      -0.08860328 Ry
     internal energy E=F+TS    =   -1798.95979466 Ry

     The total energy is F=E-TS. E is the sum of the following terms:
     one-electron contribution =  -15807.58995909 Ry
     hartree contribution      =    7964.77031756 Ry
     xc contribution           =    -438.11271968 Ry
     ewald contribution        =    6481.97256654 Ry
     electric field correction =       0.00000002 Ry

     total magnetization       =     0.23 Bohr mag/cell
     absolute magnetization    =     0.26 Bohr mag/cell

     convergence has been achieved in  35 iterations

     Forces acting on atoms (cartesian axes, Ry/au):

     atom    1 type  1   force =    -0.00122476   -0.00070431    0.01141819
     atom    2 type  1   force =    -0.00130174   -0.00075536    0.01136329
     atom    3 type  2   force =     0.00329190    0.00186749    0.01455133
     atom    4 type  2   force =     0.00326449    0.00191800    0.01454914
     atom    5 type  1   force =     0.00151102    0.00086522   -0.01326025
     atom    6 type  1   force =     0.00152477    0.00088793   -0.01323932
     atom    7 type  2   force =    -0.00200015   -0.00113267   -0.01528135
     atom    8 type  2   force =    -0.00198349   -0.00116747   -0.01528082
     atom    9 type  1   force =    -0.00059294   -0.00034284    0.00164692
     atom   10 type  1   force =    -0.00056204   -0.00032283    0.00168424
     atom   11 type  2   force =    -0.00099077   -0.00050813    0.00092533
     atom   12 type  2   force =    -0.00093628   -0.00060502    0.00092329

     Total force =     0.039514     Total SCF correction =     0.011376
     SCF correction compared to forces is large: reduce conv_thr to get better values

     Writing output data file ./Ni2Ru2/Ni2Ru2_beef.save/

     init_run     :    159.38s CPU    160.99s WALL (       1 calls)
     electrons    :  13335.90s CPU  13548.38s WALL (       1 calls)
     forces       :    130.65s CPU    131.92s WALL (       1 calls)

     Called by init_run:
     wfcinit      :    145.87s CPU    146.93s WALL (       1 calls)
     potinit      :      9.06s CPU      9.29s WALL (       1 calls)
     hinit0       :      2.25s CPU      2.31s WALL (       1 calls)

     Called by electrons:
     c_bands      :  11531.40s CPU  11705.61s WALL (      35 calls)
     sum_band     :   1666.02s CPU   1694.56s WALL (      35 calls)
     v_of_rho     :     83.50s CPU     88.45s WALL (      36 calls)
     newd         :     57.64s CPU     62.27s WALL (      36 calls)
     mix_rho      :      5.38s CPU      5.61s WALL (      35 calls)
     vdW_kernel   :      6.13s CPU      6.19s WALL (       1 calls)

     Called by c_bands:
     init_us_2    :     42.00s CPU     42.62s WALL (   10656 calls)
     cegterg      :  11330.64s CPU  11492.73s WALL (    5180 calls)

     Called by *egterg:
     cdiaghg      :    465.75s CPU    468.45s WALL (   16600 calls)
     h_psi        :   6452.68s CPU   6580.22s WALL (   16748 calls)
     s_psi        :   1450.61s CPU   1458.44s WALL (   16748 calls)
     g_psi        :      4.61s CPU      4.70s WALL (   11420 calls)

     Called by h_psi:
     h_psi:calbec :   2279.72s CPU   2297.89s WALL (   16748 calls)
     vloc_psi     :   2461.56s CPU   2562.92s WALL (   16748 calls)
     add_vuspsi   :   1696.91s CPU   1704.73s WALL (   16748 calls)

     General routines
     calbec       :   3416.71s CPU   3442.37s WALL (   22520 calls)
     fft          :     69.03s CPU     71.91s WALL (    3281 calls)
     ffts         :      0.82s CPU      0.85s WALL (     142 calls)
     fftw         :   2797.41s CPU   2909.72s WALL ( 2646202 calls)
     interpolate  :      1.09s CPU      1.15s WALL (      72 calls)

     Parallel routines
     fft_scatt_xy :    164.14s CPU    166.32s WALL ( 2649625 calls)
     fft_scatt_yz :   1501.31s CPU   1593.53s WALL ( 2649625 calls)

     PWSCF        :      3h48m CPU      3h52m WALL


   This run was terminated on:  12: 2:39  28Jun2022            

=------------------------------------------------------------------------------=
   JOB DONE.
=------------------------------------------------------------------------------=
