
     Program PWSCF v.6.6 starts on 29Jun2022 at  0:21:42 

     This program is part of the open-source Quantum ESPRESSO suite
     for quantum simulation of materials; please cite
         "P. Giannozzi et al., J. Phys.:Condens. Matter 21 395502 (2009);
         "P. Giannozzi et al., J. Phys.:Condens. Matter 29 465901 (2017);
          URL http://www.quantum-espresso.org", 
     in publications or presentations arising from this work. More details at
     http://www.quantum-espresso.org/quote

     Parallel version (MPI), running on    37 processors

     MPI processes distributed on     1 nodes
     R & G space division:  proc/nbgrp/npool/nimage =      37
     Fft bands division:     nmany     =       1
     Reading input from Ni2Zr2.in
Warning: card &CELL ignored
Warning: card / ignored

     Current dimensions of program PWSCF are:
     Max number of different atomic species (ntypx) = 10
     Max number of k-points (npk) =  40000
     Max angular momentum in pseudopotentials (lmaxx) =  3
     Presently stress not available with electric field and gates

     Message from routine cell_base_init:
     DEPRECATED: use true lattice parameter, not A to a.u. conversion factor
     file Ni.pbe-n-rrkjus_psl.1.0.0.UPF: wavefunction(s)  3D renormalized
     file Zr.pbe-spn-rrkjus_psl.1.0.0.UPF: wavefunction(s)  4S renormalized

     **************************************************************************
     Initializing libbeef V0.1.2 with the BEEF-vdW functional.
     Citation: Wellendorff et al., PRB 85, 235149 (2012).
     **************************************************************************


     IMPORTANT: XC functional enforced from input :
     Exchange-correlation= BEEF-VDW
                           (   1   4  43  14   2   0   0)
     Any further DFT definition will be discarded
     Please, verify this is what you really want


     Subspace diagonalization in iterative solution of the eigenvalue problem:
     a serial algorithm will be used


     Parallelization info
     --------------------
     sticks:   dense  smooth     PW     G-vecs:    dense   smooth      PW
     Min         124      49     14                28656     7245    1090
     Max         125      50     15                28667     7264    1105
     Sum        4597    1829    527              1060471   268319   40455



     bravais-lattice index     =            0
     lattice parameter (alat)  =       1.8897  a.u.
     unit-cell volume          =    4851.5329 (a.u.)^3
     number of atoms/cell      =           12
     number of atomic types    =            2
     number of electrons       =       132.00
     number of Kohn-Sham states=           79
     kinetic-energy cutoff     =      55.1240  Ry
     charge density cutoff     =     551.2396  Ry
     convergence threshold     =      1.0E-05
     mixing beta               =       0.1000
     number of iterations used =           10  plain     mixing
     Exchange-correlation= BEEF-VDW
                           (   1   4  43  14   2   0   0)

     celldm(1)=   1.889726  celldm(2)=   0.000000  celldm(3)=   0.000000
     celldm(4)=   0.000000  celldm(5)=   0.000000  celldm(6)=   0.000000

     crystal axes: (cart. coord. in units of alat)
               a(1) = (   5.571733   0.000000   0.000000 )  
               a(2) = (   1.847137   5.256643   0.000000 )  
               a(3) = (   0.000000   0.000000  24.546167 )  

     reciprocal axes: (cart. coord. in units 2 pi/alat)
               b(1) = (  0.179477 -0.063067  0.000000 )  
               b(2) = (  0.000000  0.190235  0.000000 )  
               b(3) = (  0.000000  0.000000  0.040740 )  


     PseudoPot. # 1 for Ni read from file:
     ../pseudo/Ni.pbe-n-rrkjus_psl.1.0.0.UPF
     MD5 check sum: 9f76af1bddcd5839b31985483df98d0a
     Pseudo is Ultrasoft + core correction, Zval = 10.0
     Generated using "atomic" code by A. Dal Corso v.6.5
     Using radial grid of 1195 points,  6 beta functions with: 
                l(1) =   0
                l(2) =   0
                l(3) =   1
                l(4) =   1
                l(5) =   2
                l(6) =   2
     Q(r) pseudized with 0 coefficients 


     PseudoPot. # 2 for Zr read from file:
     ../pseudo/Zr.pbe-spn-rrkjus_psl.1.0.0.UPF
     MD5 check sum: 3d17ee99aa1707c2ccb6b09ed65e51a1
     Pseudo is Ultrasoft + core correction, Zval = 12.0
     Generated using "atomic" code by A. Dal Corso v.6.2.2
     Using radial grid of 1225 points,  6 beta functions with: 
                l(1) =   0
                l(2) =   0
                l(3) =   1
                l(4) =   1
                l(5) =   2
                l(6) =   2
     Q(r) pseudized with 0 coefficients 


     atomic species   valence    mass     pseudopotential
        Ni            10.00    58.69340     Ni( 1.00)
        Zr            12.00    91.22400     Zr( 1.00)

     Starting magnetic structure 
     atomic species   magnetization
        Ni           0.500
        Zr           0.000

     No symmetry found



   Cartesian axes

     site n.     atom                  positions (alat units)
         1           Ni  tau(   1) = (   0.0000000   0.0000000  10.0000000  )
         2           Ni  tau(   2) = (   3.7094350   2.6283213  10.0000000  )
         3           Zr  tau(   3) = (   2.7858664   0.0000000  10.0000000  )
         4           Zr  tau(   4) = (   0.9235686   2.6283213  10.0000000  )
         5           Ni  tau(   5) = (   5.5717328   3.9478530  12.2730836  )
         6           Ni  tau(   6) = (   1.8622979   1.3195317  12.2730836  )
         7           Zr  tau(   7) = (   2.7858664   3.9478530  12.2730836  )
         8           Zr  tau(   8) = (   4.6481643   1.3195317  12.2730836  )
         9           Ni  tau(   9) = (   3.7237472   2.6384525  14.3088550  )
        10           Ni  tau(  10) = (   0.0142417   0.0101001  14.3088297  )
        11           Zr  tau(  11) = (   0.9357924   2.6369773  14.5694475  )
        12           Zr  tau(  12) = (   2.7980796   0.0086581  14.5694474  )

     number of k points=    74  Fermi-Dirac smearing, width (Ry)=  0.0100
                       cart. coord. in units 2pi/alat
        k(    1) = (   0.0000000   0.0000000   0.0000000), wk =   0.0069444
        k(    2) = (   0.0000000   0.0158530   0.0000000), wk =   0.0138889
        k(    3) = (   0.0000000   0.0317059   0.0000000), wk =   0.0138889
        k(    4) = (   0.0000000   0.0475589   0.0000000), wk =   0.0138889
        k(    5) = (   0.0000000   0.0634118   0.0000000), wk =   0.0138889
        k(    6) = (   0.0000000   0.0792648   0.0000000), wk =   0.0138889
        k(    7) = (   0.0000000  -0.0951177   0.0000000), wk =   0.0069444
        k(    8) = (   0.0149564  -0.0052556   0.0000000), wk =   0.0138889
        k(    9) = (   0.0149564   0.0105974   0.0000000), wk =   0.0138889
        k(   10) = (   0.0149564   0.0264504   0.0000000), wk =   0.0138889
        k(   11) = (   0.0149564   0.0423033   0.0000000), wk =   0.0138889
        k(   12) = (   0.0149564   0.0581563   0.0000000), wk =   0.0138889
        k(   13) = (   0.0149564   0.0740092   0.0000000), wk =   0.0138889
        k(   14) = (   0.0149564  -0.1003733   0.0000000), wk =   0.0138889
        k(   15) = (   0.0149564  -0.0845203   0.0000000), wk =   0.0138889
        k(   16) = (   0.0149564  -0.0686674   0.0000000), wk =   0.0138889
        k(   17) = (   0.0149564  -0.0528144   0.0000000), wk =   0.0138889
        k(   18) = (   0.0149564  -0.0369615   0.0000000), wk =   0.0138889
        k(   19) = (   0.0149564  -0.0211085   0.0000000), wk =   0.0138889
        k(   20) = (   0.0299129  -0.0105111   0.0000000), wk =   0.0138889
        k(   21) = (   0.0299129   0.0053418   0.0000000), wk =   0.0138889
        k(   22) = (   0.0299129   0.0211948   0.0000000), wk =   0.0138889
        k(   23) = (   0.0299129   0.0370477   0.0000000), wk =   0.0138889
        k(   24) = (   0.0299129   0.0529007   0.0000000), wk =   0.0138889
        k(   25) = (   0.0299129   0.0687537   0.0000000), wk =   0.0138889
        k(   26) = (   0.0299129  -0.1056289   0.0000000), wk =   0.0138889
        k(   27) = (   0.0299129  -0.0897759   0.0000000), wk =   0.0138889
        k(   28) = (   0.0299129  -0.0739229   0.0000000), wk =   0.0138889
        k(   29) = (   0.0299129  -0.0580700   0.0000000), wk =   0.0138889
        k(   30) = (   0.0299129  -0.0422170   0.0000000), wk =   0.0138889
        k(   31) = (   0.0299129  -0.0263641   0.0000000), wk =   0.0138889
        k(   32) = (   0.0448693  -0.0157667   0.0000000), wk =   0.0138889
        k(   33) = (   0.0448693   0.0000863   0.0000000), wk =   0.0138889
        k(   34) = (   0.0448693   0.0159392   0.0000000), wk =   0.0138889
        k(   35) = (   0.0448693   0.0317922   0.0000000), wk =   0.0138889
        k(   36) = (   0.0448693   0.0476451   0.0000000), wk =   0.0138889
        k(   37) = (   0.0448693   0.0634981   0.0000000), wk =   0.0138889
        k(   38) = (   0.0448693  -0.1108844   0.0000000), wk =   0.0138889
        k(   39) = (   0.0448693  -0.0950315   0.0000000), wk =   0.0138889
        k(   40) = (   0.0448693  -0.0791785   0.0000000), wk =   0.0138889
        k(   41) = (   0.0448693  -0.0633256   0.0000000), wk =   0.0138889
        k(   42) = (   0.0448693  -0.0474726   0.0000000), wk =   0.0138889
        k(   43) = (   0.0448693  -0.0316196   0.0000000), wk =   0.0138889
        k(   44) = (   0.0598258  -0.0210222   0.0000000), wk =   0.0138889
        k(   45) = (   0.0598258  -0.0051693   0.0000000), wk =   0.0138889
        k(   46) = (   0.0598258   0.0106837   0.0000000), wk =   0.0138889
        k(   47) = (   0.0598258   0.0265366   0.0000000), wk =   0.0138889
        k(   48) = (   0.0598258   0.0423896   0.0000000), wk =   0.0138889
        k(   49) = (   0.0598258   0.0582425   0.0000000), wk =   0.0138889
        k(   50) = (   0.0598258  -0.1161400   0.0000000), wk =   0.0138889
        k(   51) = (   0.0598258  -0.1002870   0.0000000), wk =   0.0138889
        k(   52) = (   0.0598258  -0.0844341   0.0000000), wk =   0.0138889
        k(   53) = (   0.0598258  -0.0685811   0.0000000), wk =   0.0138889
        k(   54) = (   0.0598258  -0.0527282   0.0000000), wk =   0.0138889
        k(   55) = (   0.0598258  -0.0368752   0.0000000), wk =   0.0138889
        k(   56) = (   0.0747822  -0.0262778   0.0000000), wk =   0.0138889
        k(   57) = (   0.0747822  -0.0104248   0.0000000), wk =   0.0138889
        k(   58) = (   0.0747822   0.0054281   0.0000000), wk =   0.0138889
        k(   59) = (   0.0747822   0.0212811   0.0000000), wk =   0.0138889
        k(   60) = (   0.0747822   0.0371340   0.0000000), wk =   0.0138889
        k(   61) = (   0.0747822   0.0529870   0.0000000), wk =   0.0138889
        k(   62) = (   0.0747822  -0.1213955   0.0000000), wk =   0.0138889
        k(   63) = (   0.0747822  -0.1055426   0.0000000), wk =   0.0138889
        k(   64) = (   0.0747822  -0.0896896   0.0000000), wk =   0.0138889
        k(   65) = (   0.0747822  -0.0738367   0.0000000), wk =   0.0138889
        k(   66) = (   0.0747822  -0.0579837   0.0000000), wk =   0.0138889
        k(   67) = (   0.0747822  -0.0421308   0.0000000), wk =   0.0138889
        k(   68) = (  -0.0897387   0.0315334   0.0000000), wk =   0.0069444
        k(   69) = (  -0.0897387   0.0473863   0.0000000), wk =   0.0138889
        k(   70) = (  -0.0897387   0.0632393   0.0000000), wk =   0.0138889
        k(   71) = (  -0.0897387   0.0790922   0.0000000), wk =   0.0138889
        k(   72) = (  -0.0897387   0.0949452   0.0000000), wk =   0.0138889
        k(   73) = (  -0.0897387   0.1107981   0.0000000), wk =   0.0138889
        k(   74) = (  -0.0897387  -0.0635844   0.0000000), wk =   0.0069444

     Dense  grid:  1060471 G-vectors     FFT dimensions: (  80,  80, 360)

     Smooth grid:   268319 G-vectors     FFT dimensions: (  50,  50, 225)

     Estimated max dynamical RAM per process >     290.01 MB

     Estimated total dynamical RAM >      10.48 GB
     Generating pointlists ...
     new r_m :   1.0708 (alat units)  2.0235 (a.u.) for type    1
     new r_m :   1.0708 (alat units)  2.0235 (a.u.) for type    2

     Initial potential from superposition of free atoms

     starting charge  131.98562, renormalised to  132.00000


     %%%%%%%%%%%%%%%%%%%%%%%%%%%%%%%%%%%%%%%%%%%%%%%%%%%%%%%%%%%%%%%%%%%%%%%%
     %                                                                      %
     % You are using vdW-DF, which was implemented by the Thonhauser group. %
     % Please cite the following two papers that made this development      %
     % possible and the two reviews that describe the various versions:     %
     %                                                                      %
     %   T. Thonhauser et al., PRL 115, 136402 (2015).                      %
     %   T. Thonhauser et al., PRB 76, 125112 (2007).                       %
     %   K. Berland et al., Rep. Prog. Phys. 78, 066501 (2015).             %
     %   D.C. Langreth et al., J. Phys.: Condens. Matter 21, 084203 (2009). %
     %                                                                      %
     %                                                                      %
     % If you are calculating the stress with vdW-DF, please also cite:     %
     %                                                                      %
     %   R. Sabatini et al., J. Phys.: Condens. Matter 24, 424209 (2012).   %
     %                                                                      %
     %%%%%%%%%%%%%%%%%%%%%%%%%%%%%%%%%%%%%%%%%%%%%%%%%%%%%%%%%%%%%%%%%%%%%%%%



     Adding external electric field

     Computed dipole along edir(3) : 
        Dipole                0.0008 Ry au,          0.0021 Debye
        Dipole field          0.0000 Ry au, 

        Potential amp.       -0.0002 Ry
        Total length         45.2259 bohr


     Adding external electric field

     Computed dipole along edir(3) : 
        Dipole                0.0008 Ry au,          0.0021 Debye
        Dipole field          0.0000 Ry au, 

        Potential amp.       -0.0002 Ry
        Total length         45.2259 bohr

     Starting wfcs are  132 randomized atomic wfcs

     total cpu time spent up to now is      190.8 secs

     Self-consistent Calculation

     iteration #  1     ecut=    55.12 Ry     beta= 0.10
     Davidson diagonalization with overlap
     ethr =  1.00E-02,  avg # of iterations =  2.0

     Adding external electric field

     Computed dipole along edir(3) : 
        Dipole                0.1023 Ry au,          0.2600 Debye
        Dipole field          0.0003 Ry au, 

        Potential amp.       -0.0240 Ry
        Total length         45.2259 bohr


     Adding external electric field

     Computed dipole along edir(3) : 
        Dipole                0.1023 Ry au,          0.2600 Debye
        Dipole field          0.0003 Ry au, 

        Potential amp.       -0.0240 Ry
        Total length         45.2259 bohr


     total cpu time spent up to now is      416.6 secs

     total energy              =   -1209.99987488 Ry
     estimated scf accuracy    <      11.68327725 Ry

     total magnetization       =     4.81 Bohr mag/cell
     absolute magnetization    =     4.92 Bohr mag/cell

     iteration #  2     ecut=    55.12 Ry     beta= 0.10
     Davidson diagonalization with overlap
     ethr =  8.85E-03,  avg # of iterations =  1.0

     Adding external electric field

     Computed dipole along edir(3) : 
        Dipole               -0.0919 Ry au,         -0.2335 Debye
        Dipole field         -0.0002 Ry au, 

        Potential amp.        0.0215 Ry
        Total length         45.2259 bohr


     Adding external electric field

     Computed dipole along edir(3) : 
        Dipole               -0.0919 Ry au,         -0.2335 Debye
        Dipole field         -0.0002 Ry au, 

        Potential amp.        0.0215 Ry
        Total length         45.2259 bohr


     total cpu time spent up to now is      634.1 secs

     total energy              =   -1210.65029030 Ry
     estimated scf accuracy    <       3.06806657 Ry

     total magnetization       =     8.56 Bohr mag/cell
     absolute magnetization    =     8.92 Bohr mag/cell

     iteration #  3     ecut=    55.12 Ry     beta= 0.10
     Davidson diagonalization with overlap
     ethr =  2.32E-03,  avg # of iterations =  2.0

     Adding external electric field

     Computed dipole along edir(3) : 
        Dipole                0.3864 Ry au,          0.9821 Debye
        Dipole field          0.0010 Ry au, 

        Potential amp.       -0.0905 Ry
        Total length         45.2259 bohr


     Adding external electric field

     Computed dipole along edir(3) : 
        Dipole                0.3864 Ry au,          0.9821 Debye
        Dipole field          0.0010 Ry au, 

        Potential amp.       -0.0905 Ry
        Total length         45.2259 bohr


     total cpu time spent up to now is      860.4 secs

     total energy              =   -1210.98681496 Ry
     estimated scf accuracy    <       3.59713092 Ry

     total magnetization       =     7.29 Bohr mag/cell
     absolute magnetization    =     7.83 Bohr mag/cell

     iteration #  4     ecut=    55.12 Ry     beta= 0.10
     Davidson diagonalization with overlap
     ethr =  2.32E-03,  avg # of iterations =  1.8

     Adding external electric field

     Computed dipole along edir(3) : 
        Dipole                0.0377 Ry au,          0.0957 Debye
        Dipole field          0.0001 Ry au, 

        Potential amp.       -0.0088 Ry
        Total length         45.2259 bohr


     Adding external electric field

     Computed dipole along edir(3) : 
        Dipole                0.0377 Ry au,          0.0957 Debye
        Dipole field          0.0001 Ry au, 

        Potential amp.       -0.0088 Ry
        Total length         45.2259 bohr


     total cpu time spent up to now is     1121.9 secs

     total energy              =   -1211.46512671 Ry
     estimated scf accuracy    <       7.46614525 Ry

     total magnetization       =     7.78 Bohr mag/cell
     absolute magnetization    =     8.26 Bohr mag/cell

     iteration #  5     ecut=    55.12 Ry     beta= 0.10
     Davidson diagonalization with overlap
     ethr =  2.32E-03,  avg # of iterations =  1.2

     Adding external electric field

     Computed dipole along edir(3) : 
        Dipole                0.0611 Ry au,          0.1554 Debye
        Dipole field          0.0002 Ry au, 

        Potential amp.       -0.0143 Ry
        Total length         45.2259 bohr


     Adding external electric field

     Computed dipole along edir(3) : 
        Dipole                0.0611 Ry au,          0.1554 Debye
        Dipole field          0.0002 Ry au, 

        Potential amp.       -0.0143 Ry
        Total length         45.2259 bohr


     total cpu time spent up to now is     1372.6 secs

     total energy              =   -1211.16934282 Ry
     estimated scf accuracy    <       1.30625211 Ry

     total magnetization       =     6.77 Bohr mag/cell
     absolute magnetization    =     7.27 Bohr mag/cell

     iteration #  6     ecut=    55.12 Ry     beta= 0.10
     Davidson diagonalization with overlap
     ethr =  9.90E-04,  avg # of iterations =  1.4

     Adding external electric field

     Computed dipole along edir(3) : 
        Dipole                0.1459 Ry au,          0.3710 Debye
        Dipole field          0.0004 Ry au, 

        Potential amp.       -0.0342 Ry
        Total length         45.2259 bohr


     Adding external electric field

     Computed dipole along edir(3) : 
        Dipole                0.1459 Ry au,          0.3710 Debye
        Dipole field          0.0004 Ry au, 

        Potential amp.       -0.0342 Ry
        Total length         45.2259 bohr


     total cpu time spent up to now is     1638.9 secs

     total energy              =   -1215.46341450 Ry
     estimated scf accuracy    <       0.92329077 Ry

     total magnetization       =     6.34 Bohr mag/cell
     absolute magnetization    =     6.86 Bohr mag/cell

     iteration #  7     ecut=    55.12 Ry     beta= 0.10
     Davidson diagonalization with overlap
     ethr =  6.99E-04,  avg # of iterations =  3.0

     Adding external electric field

     Computed dipole along edir(3) : 
        Dipole                0.0801 Ry au,          0.2035 Debye
        Dipole field          0.0002 Ry au, 

        Potential amp.       -0.0188 Ry
        Total length         45.2259 bohr


     Adding external electric field

     Computed dipole along edir(3) : 
        Dipole                0.0801 Ry au,          0.2035 Debye
        Dipole field          0.0002 Ry au, 

        Potential amp.       -0.0188 Ry
        Total length         45.2259 bohr


     total cpu time spent up to now is     1946.7 secs

     total energy              =   -1215.73142092 Ry
     estimated scf accuracy    <       0.31545560 Ry

     total magnetization       =     4.49 Bohr mag/cell
     absolute magnetization    =     5.33 Bohr mag/cell

     iteration #  8     ecut=    55.12 Ry     beta= 0.10
     Davidson diagonalization with overlap
     ethr =  2.39E-04,  avg # of iterations =  3.4

     Adding external electric field

     Computed dipole along edir(3) : 
        Dipole                0.1182 Ry au,          0.3005 Debye
        Dipole field          0.0003 Ry au, 

        Potential amp.       -0.0277 Ry
        Total length         45.2259 bohr


     Adding external electric field

     Computed dipole along edir(3) : 
        Dipole                0.1182 Ry au,          0.3005 Debye
        Dipole field          0.0003 Ry au, 

        Potential amp.       -0.0277 Ry
        Total length         45.2259 bohr


     total cpu time spent up to now is     2243.6 secs

     total energy              =   -1217.59686940 Ry
     estimated scf accuracy    <       0.22362384 Ry

     total magnetization       =     3.58 Bohr mag/cell
     absolute magnetization    =     4.38 Bohr mag/cell

     iteration #  9     ecut=    55.12 Ry     beta= 0.10
     Davidson diagonalization with overlap
     ethr =  1.69E-04,  avg # of iterations =  5.4

     Adding external electric field

     Computed dipole along edir(3) : 
        Dipole                0.1119 Ry au,          0.2845 Debye
        Dipole field          0.0003 Ry au, 

        Potential amp.       -0.0262 Ry
        Total length         45.2259 bohr


     Adding external electric field

     Computed dipole along edir(3) : 
        Dipole                0.1119 Ry au,          0.2845 Debye
        Dipole field          0.0003 Ry au, 

        Potential amp.       -0.0262 Ry
        Total length         45.2259 bohr


     total cpu time spent up to now is     2584.2 secs

     total energy              =   -1217.80608649 Ry
     estimated scf accuracy    <       0.16016395 Ry

     total magnetization       =     2.09 Bohr mag/cell
     absolute magnetization    =     3.01 Bohr mag/cell

     iteration # 10     ecut=    55.12 Ry     beta= 0.10
     Davidson diagonalization with overlap
     ethr =  1.21E-04,  avg # of iterations =  2.7

     Adding external electric field

     Computed dipole along edir(3) : 
        Dipole                0.0852 Ry au,          0.2165 Debye
        Dipole field          0.0002 Ry au, 

        Potential amp.       -0.0200 Ry
        Total length         45.2259 bohr


     Adding external electric field

     Computed dipole along edir(3) : 
        Dipole                0.0852 Ry au,          0.2165 Debye
        Dipole field          0.0002 Ry au, 

        Potential amp.       -0.0200 Ry
        Total length         45.2259 bohr


     total cpu time spent up to now is     2833.9 secs

     total energy              =   -1217.86981007 Ry
     estimated scf accuracy    <       0.11699479 Ry

     total magnetization       =     1.52 Bohr mag/cell
     absolute magnetization    =     2.46 Bohr mag/cell

     iteration # 11     ecut=    55.12 Ry     beta= 0.10
     Davidson diagonalization with overlap
     ethr =  8.86E-05,  avg # of iterations =  2.0

     Adding external electric field

     Computed dipole along edir(3) : 
        Dipole                0.0941 Ry au,          0.2392 Debye
        Dipole field          0.0002 Ry au, 

        Potential amp.       -0.0220 Ry
        Total length         45.2259 bohr


     Adding external electric field

     Computed dipole along edir(3) : 
        Dipole                0.0941 Ry au,          0.2392 Debye
        Dipole field          0.0002 Ry au, 

        Potential amp.       -0.0220 Ry
        Total length         45.2259 bohr


     total cpu time spent up to now is     3042.5 secs

     total energy              =   -1217.03313425 Ry
     estimated scf accuracy    <       0.09603232 Ry

     total magnetization       =     0.79 Bohr mag/cell
     absolute magnetization    =     1.80 Bohr mag/cell

     iteration # 12     ecut=    55.12 Ry     beta= 0.10
     Davidson diagonalization with overlap
     ethr =  7.28E-05,  avg # of iterations =  2.9

     Adding external electric field

     Computed dipole along edir(3) : 
        Dipole                0.0744 Ry au,          0.1892 Debye
        Dipole field          0.0002 Ry au, 

        Potential amp.       -0.0174 Ry
        Total length         45.2259 bohr


     Adding external electric field

     Computed dipole along edir(3) : 
        Dipole                0.0744 Ry au,          0.1892 Debye
        Dipole field          0.0002 Ry au, 

        Potential amp.       -0.0174 Ry
        Total length         45.2259 bohr


     total cpu time spent up to now is     3255.2 secs

     total energy              =   -1217.12106125 Ry
     estimated scf accuracy    <       0.03225335 Ry

     total magnetization       =     0.83 Bohr mag/cell
     absolute magnetization    =     1.64 Bohr mag/cell

     iteration # 13     ecut=    55.12 Ry     beta= 0.10
     Davidson diagonalization with overlap
     c_bands:  1 eigenvalues not converged
     c_bands:  1 eigenvalues not converged
     c_bands:  1 eigenvalues not converged
     c_bands:  1 eigenvalues not converged
     c_bands:  1 eigenvalues not converged
     ethr =  2.44E-05,  avg # of iterations =  6.5

     Adding external electric field

     Computed dipole along edir(3) : 
        Dipole                0.0766 Ry au,          0.1948 Debye
        Dipole field          0.0002 Ry au, 

        Potential amp.       -0.0180 Ry
        Total length         45.2259 bohr


     Adding external electric field

     Computed dipole along edir(3) : 
        Dipole                0.0766 Ry au,          0.1948 Debye
        Dipole field          0.0002 Ry au, 

        Potential amp.       -0.0180 Ry
        Total length         45.2259 bohr


     total cpu time spent up to now is     3505.3 secs

     total energy              =   -1216.58466688 Ry
     estimated scf accuracy    <       0.00406065 Ry

     total magnetization       =     0.13 Bohr mag/cell
     absolute magnetization    =     0.97 Bohr mag/cell

     iteration # 14     ecut=    55.12 Ry     beta= 0.10
     Davidson diagonalization with overlap
     c_bands:  1 eigenvalues not converged
     c_bands:  3 eigenvalues not converged
     c_bands:  2 eigenvalues not converged
     c_bands:  1 eigenvalues not converged
     c_bands:  1 eigenvalues not converged
     c_bands:  1 eigenvalues not converged
     c_bands:  3 eigenvalues not converged
     c_bands:  1 eigenvalues not converged
     c_bands:  2 eigenvalues not converged
     c_bands:  1 eigenvalues not converged
     c_bands:  1 eigenvalues not converged
     c_bands:  1 eigenvalues not converged
     c_bands:  1 eigenvalues not converged
     c_bands:  1 eigenvalues not converged
     c_bands:  1 eigenvalues not converged
     c_bands:  1 eigenvalues not converged
     c_bands:  2 eigenvalues not converged
     c_bands:  1 eigenvalues not converged
     c_bands:  2 eigenvalues not converged
     c_bands:  1 eigenvalues not converged
     c_bands:  1 eigenvalues not converged
     c_bands:  1 eigenvalues not converged
     c_bands:  1 eigenvalues not converged
     c_bands:  1 eigenvalues not converged
     c_bands:  1 eigenvalues not converged
     c_bands:  1 eigenvalues not converged
     c_bands:  1 eigenvalues not converged
     ethr =  3.08E-06,  avg # of iterations = 11.6

     Adding external electric field

     Computed dipole along edir(3) : 
        Dipole                0.0861 Ry au,          0.2190 Debye
        Dipole field          0.0002 Ry au, 

        Potential amp.       -0.0202 Ry
        Total length         45.2259 bohr


     Adding external electric field

     Computed dipole along edir(3) : 
        Dipole                0.0861 Ry au,          0.2190 Debye
        Dipole field          0.0002 Ry au, 

        Potential amp.       -0.0202 Ry
        Total length         45.2259 bohr


     total cpu time spent up to now is     3898.3 secs

     total energy              =   -1216.03746844 Ry
     estimated scf accuracy    <       0.00292763 Ry

     total magnetization       =     0.14 Bohr mag/cell
     absolute magnetization    =     0.83 Bohr mag/cell

     iteration # 15     ecut=    55.12 Ry     beta= 0.10
     Davidson diagonalization with overlap
     c_bands:  1 eigenvalues not converged
     c_bands:  1 eigenvalues not converged
     c_bands:  2 eigenvalues not converged
     c_bands:  1 eigenvalues not converged
     c_bands:  1 eigenvalues not converged
     c_bands:  1 eigenvalues not converged
     c_bands:  2 eigenvalues not converged
     ethr =  2.22E-06,  avg # of iterations =  4.5

     Adding external electric field

     Computed dipole along edir(3) : 
        Dipole                0.0925 Ry au,          0.2351 Debye
        Dipole field          0.0002 Ry au, 

        Potential amp.       -0.0217 Ry
        Total length         45.2259 bohr


     Adding external electric field

     Computed dipole along edir(3) : 
        Dipole                0.0925 Ry au,          0.2351 Debye
        Dipole field          0.0002 Ry au, 

        Potential amp.       -0.0217 Ry
        Total length         45.2259 bohr


     total cpu time spent up to now is     4161.6 secs

     total energy              =   -1215.80407161 Ry
     estimated scf accuracy    <       0.00501737 Ry

     total magnetization       =     0.20 Bohr mag/cell
     absolute magnetization    =     0.77 Bohr mag/cell

     iteration # 16     ecut=    55.12 Ry     beta= 0.10
     Davidson diagonalization with overlap
     c_bands:  1 eigenvalues not converged
     c_bands:  2 eigenvalues not converged
     c_bands:  1 eigenvalues not converged
     ethr =  2.22E-06,  avg # of iterations =  2.7

     Adding external electric field

     Computed dipole along edir(3) : 
        Dipole                0.0939 Ry au,          0.2387 Debye
        Dipole field          0.0002 Ry au, 

        Potential amp.       -0.0220 Ry
        Total length         45.2259 bohr


     Adding external electric field

     Computed dipole along edir(3) : 
        Dipole                0.0939 Ry au,          0.2387 Debye
        Dipole field          0.0002 Ry au, 

        Potential amp.       -0.0220 Ry
        Total length         45.2259 bohr


     total cpu time spent up to now is     4634.2 secs

     total energy              =   -1215.38438998 Ry
     estimated scf accuracy    <       0.00137295 Ry

     total magnetization       =     0.02 Bohr mag/cell
     absolute magnetization    =     0.46 Bohr mag/cell

     iteration # 17     ecut=    55.12 Ry     beta= 0.10
     Davidson diagonalization with overlap
     ethr =  1.04E-06,  avg # of iterations =  2.0

     Adding external electric field

     Computed dipole along edir(3) : 
        Dipole                0.0903 Ry au,          0.2295 Debye
        Dipole field          0.0002 Ry au, 

        Potential amp.       -0.0212 Ry
        Total length         45.2259 bohr


     Adding external electric field

     Computed dipole along edir(3) : 
        Dipole                0.0903 Ry au,          0.2295 Debye
        Dipole field          0.0002 Ry au, 

        Potential amp.       -0.0212 Ry
        Total length         45.2259 bohr


     total cpu time spent up to now is     4877.5 secs

     total energy              =   -1214.98037524 Ry
     estimated scf accuracy    <       0.00057974 Ry

     total magnetization       =     0.01 Bohr mag/cell
     absolute magnetization    =     0.37 Bohr mag/cell

     iteration # 18     ecut=    55.12 Ry     beta= 0.10
     Davidson diagonalization with overlap
     c_bands:  1 eigenvalues not converged
     c_bands:  1 eigenvalues not converged
     ethr =  4.39E-07,  avg # of iterations =  2.9

     Adding external electric field

     Computed dipole along edir(3) : 
        Dipole                0.0852 Ry au,          0.2166 Debye
        Dipole field          0.0002 Ry au, 

        Potential amp.       -0.0200 Ry
        Total length         45.2259 bohr


     Adding external electric field

     Computed dipole along edir(3) : 
        Dipole                0.0852 Ry au,          0.2166 Debye
        Dipole field          0.0002 Ry au, 

        Potential amp.       -0.0200 Ry
        Total length         45.2259 bohr


     total cpu time spent up to now is     5093.2 secs

     total energy              =   -1214.61314486 Ry
     estimated scf accuracy    <       0.00025706 Ry

     total magnetization       =     0.01 Bohr mag/cell
     absolute magnetization    =     0.33 Bohr mag/cell

     iteration # 19     ecut=    55.12 Ry     beta= 0.10
     Davidson diagonalization with overlap
     c_bands:  1 eigenvalues not converged
     c_bands:  1 eigenvalues not converged
     c_bands:  1 eigenvalues not converged
     c_bands:  1 eigenvalues not converged
     c_bands:  1 eigenvalues not converged
     ethr =  1.95E-07,  avg # of iterations =  8.0

     Adding external electric field

     Computed dipole along edir(3) : 
        Dipole                0.0869 Ry au,          0.2208 Debye
        Dipole field          0.0002 Ry au, 

        Potential amp.       -0.0203 Ry
        Total length         45.2259 bohr


     Adding external electric field

     Computed dipole along edir(3) : 
        Dipole                0.0869 Ry au,          0.2208 Debye
        Dipole field          0.0002 Ry au, 

        Potential amp.       -0.0203 Ry
        Total length         45.2259 bohr


     total cpu time spent up to now is     5378.7 secs

     total energy              =   -1214.22908867 Ry
     estimated scf accuracy    <       0.00023724 Ry

     total magnetization       =     0.03 Bohr mag/cell
     absolute magnetization    =     0.29 Bohr mag/cell

     iteration # 20     ecut=    55.12 Ry     beta= 0.10
     Davidson diagonalization with overlap
     ethr =  1.80E-07,  avg # of iterations =  1.8

     Adding external electric field

     Computed dipole along edir(3) : 
        Dipole                0.0846 Ry au,          0.2150 Debye
        Dipole field          0.0002 Ry au, 

        Potential amp.       -0.0198 Ry
        Total length         45.2259 bohr


     Adding external electric field

     Computed dipole along edir(3) : 
        Dipole                0.0846 Ry au,          0.2150 Debye
        Dipole field          0.0002 Ry au, 

        Potential amp.       -0.0198 Ry
        Total length         45.2259 bohr


     total cpu time spent up to now is     5587.5 secs

     total energy              =   -1213.99315994 Ry
     estimated scf accuracy    <       0.00019684 Ry

     total magnetization       =     0.06 Bohr mag/cell
     absolute magnetization    =     0.28 Bohr mag/cell

     iteration # 21     ecut=    55.12 Ry     beta= 0.10
     Davidson diagonalization with overlap
     ethr =  1.49E-07,  avg # of iterations =  3.4

     Adding external electric field

     Computed dipole along edir(3) : 
        Dipole                0.0836 Ry au,          0.2124 Debye
        Dipole field          0.0002 Ry au, 

        Potential amp.       -0.0196 Ry
        Total length         45.2259 bohr


     Adding external electric field

     Computed dipole along edir(3) : 
        Dipole                0.0836 Ry au,          0.2124 Debye
        Dipole field          0.0002 Ry au, 

        Potential amp.       -0.0196 Ry
        Total length         45.2259 bohr


     total cpu time spent up to now is     5855.7 secs

     total energy              =   -1213.72467145 Ry
     estimated scf accuracy    <       0.00010378 Ry

     total magnetization       =     0.03 Bohr mag/cell
     absolute magnetization    =     0.21 Bohr mag/cell

     iteration # 22     ecut=    55.12 Ry     beta= 0.10
     Davidson diagonalization with overlap
     ethr =  7.86E-08,  avg # of iterations =  4.2

     Adding external electric field

     Computed dipole along edir(3) : 
        Dipole                0.0845 Ry au,          0.2149 Debye
        Dipole field          0.0002 Ry au, 

        Potential amp.       -0.0198 Ry
        Total length         45.2259 bohr


     Adding external electric field

     Computed dipole along edir(3) : 
        Dipole                0.0845 Ry au,          0.2149 Debye
        Dipole field          0.0002 Ry au, 

        Potential amp.       -0.0198 Ry
        Total length         45.2259 bohr


     total cpu time spent up to now is     6130.9 secs

     total energy              =   -1213.48842457 Ry
     estimated scf accuracy    <       0.00005708 Ry

     total magnetization       =     0.02 Bohr mag/cell
     absolute magnetization    =     0.17 Bohr mag/cell

     iteration # 23     ecut=    55.12 Ry     beta= 0.10
     Davidson diagonalization with overlap
     c_bands:  1 eigenvalues not converged
     ethr =  4.32E-08,  avg # of iterations =  6.7

     Adding external electric field

     Computed dipole along edir(3) : 
        Dipole                0.0852 Ry au,          0.2166 Debye
        Dipole field          0.0002 Ry au, 

        Potential amp.       -0.0200 Ry
        Total length         45.2259 bohr


     Adding external electric field

     Computed dipole along edir(3) : 
        Dipole                0.0852 Ry au,          0.2166 Debye
        Dipole field          0.0002 Ry au, 

        Potential amp.       -0.0200 Ry
        Total length         45.2259 bohr


     total cpu time spent up to now is     6476.3 secs

     total energy              =   -1213.26724942 Ry
     estimated scf accuracy    <       0.00003070 Ry

     total magnetization       =     0.02 Bohr mag/cell
     absolute magnetization    =     0.12 Bohr mag/cell

     iteration # 24     ecut=    55.12 Ry     beta= 0.10
     Davidson diagonalization with overlap
     ethr =  2.33E-08,  avg # of iterations =  3.9

     Adding external electric field

     Computed dipole along edir(3) : 
        Dipole                0.0852 Ry au,          0.2166 Debye
        Dipole field          0.0002 Ry au, 

        Potential amp.       -0.0200 Ry
        Total length         45.2259 bohr


     Adding external electric field

     Computed dipole along edir(3) : 
        Dipole                0.0852 Ry au,          0.2166 Debye
        Dipole field          0.0002 Ry au, 

        Potential amp.       -0.0200 Ry
        Total length         45.2259 bohr


     total cpu time spent up to now is     6732.3 secs

     total energy              =   -1213.06782568 Ry
     estimated scf accuracy    <       0.00002159 Ry

     total magnetization       =     0.02 Bohr mag/cell
     absolute magnetization    =     0.10 Bohr mag/cell

     iteration # 25     ecut=    55.12 Ry     beta= 0.10
     Davidson diagonalization with overlap
     ethr =  1.64E-08,  avg # of iterations =  3.0

     Adding external electric field

     Computed dipole along edir(3) : 
        Dipole                0.0851 Ry au,          0.2164 Debye
        Dipole field          0.0002 Ry au, 

        Potential amp.       -0.0199 Ry
        Total length         45.2259 bohr


     Adding external electric field

     Computed dipole along edir(3) : 
        Dipole                0.0851 Ry au,          0.2164 Debye
        Dipole field          0.0002 Ry au, 

        Potential amp.       -0.0199 Ry
        Total length         45.2259 bohr


     total cpu time spent up to now is     6965.3 secs

     total energy              =   -1212.89869519 Ry
     estimated scf accuracy    <       0.00001674 Ry

     total magnetization       =     0.01 Bohr mag/cell
     absolute magnetization    =     0.09 Bohr mag/cell

     iteration # 26     ecut=    55.12 Ry     beta= 0.10
     Davidson diagonalization with overlap
     ethr =  1.27E-08,  avg # of iterations =  6.1

     Adding external electric field

     Computed dipole along edir(3) : 
        Dipole                0.0867 Ry au,          0.2204 Debye
        Dipole field          0.0002 Ry au, 

        Potential amp.       -0.0203 Ry
        Total length         45.2259 bohr


     Adding external electric field

     Computed dipole along edir(3) : 
        Dipole                0.0867 Ry au,          0.2204 Debye
        Dipole field          0.0002 Ry au, 

        Potential amp.       -0.0203 Ry
        Total length         45.2259 bohr


     Magnetic moment per site:
     atom:    1    charge:    8.8688    magn:   -0.0021    constr:    0.0000
     atom:    2    charge:    8.8685    magn:   -0.0021    constr:    0.0000
     atom:    3    charge:    9.0054    magn:   -0.0007    constr:    0.0000
     atom:    4    charge:    9.0054    magn:   -0.0007    constr:    0.0000
     atom:    5    charge:    8.9311    magn:    0.0080    constr:    0.0000
     atom:    6    charge:    8.9314    magn:    0.0082    constr:    0.0000
     atom:    7    charge:    9.0509    magn:    0.0009    constr:    0.0000
     atom:    8    charge:    9.0509    magn:    0.0009    constr:    0.0000
     atom:    9    charge:    8.9242    magn:   -0.0031    constr:    0.0000
     atom:   10    charge:    8.9252    magn:   -0.0031    constr:    0.0000
     atom:   11    charge:    8.9994    magn:    0.0018    constr:    0.0000
     atom:   12    charge:    8.9994    magn:    0.0018    constr:    0.0000

     total cpu time spent up to now is     7312.4 secs

     End of self-consistent calculation

     Number of k-points >= 100: set verbosity='high' to print the bands.

     the Fermi energy is     1.1454 ev

!    total energy              =   -1211.14623023 Ry
     estimated scf accuracy    <       0.00000801 Ry
     smearing contrib. (-TS)   =      -0.06866051 Ry
     internal energy E=F+TS    =   -1211.07756972 Ry

     The total energy is F=E-TS. E is the sum of the following terms:
     one-electron contribution =   -8978.69280603 Ry
     hartree contribution      =    4548.22795819 Ry
     xc contribution           =    -369.71840306 Ry
     ewald contribution        =    3589.10566170 Ry
     electric field correction =       0.00001947 Ry

     total magnetization       =     0.01 Bohr mag/cell
     absolute magnetization    =     0.06 Bohr mag/cell

     convergence has been achieved in  26 iterations

     Forces acting on atoms (cartesian axes, Ry/au):

     atom    1 type  1   force =    -0.00007401   -0.00005669    0.02923247
     atom    2 type  1   force =    -0.00002975   -0.00001879    0.02928619
     atom    3 type  2   force =     0.00050872    0.00038242   -0.01195582
     atom    4 type  2   force =     0.00052898    0.00035211   -0.01195777
     atom    5 type  1   force =    -0.00009068   -0.00008508    0.00797175
     atom    6 type  1   force =     0.00013033    0.00011414    0.00795888
     atom    7 type  2   force =    -0.00032215   -0.00012157   -0.02503548
     atom    8 type  2   force =    -0.00022556   -0.00026602   -0.02504061
     atom    9 type  1   force =    -0.00009258   -0.00007090    0.00092036
     atom   10 type  1   force =    -0.00017289   -0.00011545    0.00104115
     atom   11 type  2   force =    -0.00006476   -0.00007630   -0.00120696
     atom   12 type  2   force =    -0.00009565   -0.00003786   -0.00121416

     Total force =     0.058180     Total SCF correction =     0.004904

     Writing output data file ./Ni2Zr2/Ni2Zr2_beef.save/

     init_run     :    179.35s CPU    188.35s WALL (       1 calls)
     electrons    :   7018.70s CPU   7121.73s WALL (       1 calls)
     forces       :     85.80s CPU     86.44s WALL (       1 calls)

     Called by init_run:
     wfcinit      :    165.69s CPU    173.24s WALL (       1 calls)
     potinit      :      8.38s CPU      8.93s WALL (       1 calls)
     hinit0       :      2.53s CPU      2.71s WALL (       1 calls)

     Called by electrons:
     c_bands      :   6146.35s CPU   6233.02s WALL (      26 calls)
     sum_band     :    796.91s CPU    808.08s WALL (      26 calls)
     v_of_rho     :     46.84s CPU     49.59s WALL (      27 calls)
     newd         :     34.50s CPU     37.44s WALL (      27 calls)
     mix_rho      :      1.65s CPU      1.79s WALL (      26 calls)
     vdW_kernel   :      5.96s CPU      6.24s WALL (       1 calls)

     Called by c_bands:
     init_us_2    :     23.02s CPU     23.44s WALL (    7992 calls)
     cegterg      :   6055.10s CPU   6135.07s WALL (    3848 calls)

     Called by *egterg:
     cdiaghg      :    297.72s CPU    299.49s WALL (   18040 calls)
     h_psi        :   3299.63s CPU   3364.41s WALL (   18188 calls)
     s_psi        :    715.19s CPU    721.37s WALL (   18188 calls)
     g_psi        :      3.32s CPU      3.37s WALL (   14192 calls)

     Called by h_psi:
     h_psi:calbec :   1042.18s CPU   1052.90s WALL (   18188 calls)
     vloc_psi     :   1517.51s CPU   1565.06s WALL (   18188 calls)
     add_vuspsi   :    733.10s CPU    739.48s WALL (   18188 calls)

     General routines
     calbec       :   1560.06s CPU   1573.96s WALL (   22628 calls)
     fft          :     34.73s CPU     36.16s WALL (    2480 calls)
     ffts         :      0.23s CPU      0.25s WALL (     106 calls)
     fftw         :   1719.08s CPU   1769.80s WALL ( 1741600 calls)
     interpolate  :      0.62s CPU      0.67s WALL (      54 calls)

     Parallel routines
     fft_scatt_xy :    109.25s CPU    111.38s WALL ( 1744186 calls)
     fft_scatt_yz :    651.06s CPU    681.72s WALL ( 1744186 calls)

     PWSCF        :      2h 1m CPU      2h 4m WALL


   This run was terminated on:   2:26: 1  29Jun2022            

=------------------------------------------------------------------------------=
   JOB DONE.
=------------------------------------------------------------------------------=
