
     Program PWSCF v.6.6 starts on 10Jul2022 at  7:31:14 

     This program is part of the open-source Quantum ESPRESSO suite
     for quantum simulation of materials; please cite
         "P. Giannozzi et al., J. Phys.:Condens. Matter 21 395502 (2009);
         "P. Giannozzi et al., J. Phys.:Condens. Matter 29 465901 (2017);
          URL http://www.quantum-espresso.org", 
     in publications or presentations arising from this work. More details at
     http://www.quantum-espresso.org/quote

     Parallel version (MPI), running on    37 processors

     MPI processes distributed on     4 nodes
     R & G space division:  proc/nbgrp/npool/nimage =      37
     Fft bands division:     nmany     =       1
     Reading input from Ni2Zn2.in
Warning: card &CELL ignored
Warning: card / ignored

     Current dimensions of program PWSCF are:
     Max number of different atomic species (ntypx) = 10
     Max number of k-points (npk) =  40000
     Max angular momentum in pseudopotentials (lmaxx) =  3
     Presently stress not available with electric field and gates

     Message from routine cell_base_init:
     DEPRECATED: use true lattice parameter, not A to a.u. conversion factor
     file Ni.pbe-n-rrkjus_psl.1.0.0.UPF: wavefunction(s)  3D renormalized
     file Zn.pbe-dnl-rrkjus_psl.1.0.0.UPF: wavefunction(s)  3D renormalized

     **************************************************************************
     Initializing libbeef V0.1.2 with the BEEF-vdW functional.
     Citation: Wellendorff et al., PRB 85, 235149 (2012).
     **************************************************************************


     IMPORTANT: XC functional enforced from input :
     Exchange-correlation= BEEF-VDW
                           (   1   4  43  14   2   0   0)
     Any further DFT definition will be discarded
     Please, verify this is what you really want


     Subspace diagonalization in iterative solution of the eigenvalue problem:
     a serial algorithm will be used


     Parallelization info
     --------------------
     sticks:   dense  smooth     PW     G-vecs:    dense   smooth      PW
     Min          98      39     11                22506     5691     879
     Max          99      40     12                22535     5710     890
     Sum        3651    1467    425               833255   210947   32705



     bravais-lattice index     =            0
     lattice parameter (alat)  =       1.8897  a.u.
     unit-cell volume          =    3812.3986 (a.u.)^3
     number of atoms/cell      =           12
     number of atomic types    =            2
     number of electrons       =       132.00
     number of Kohn-Sham states=           79
     kinetic-energy cutoff     =      55.1240  Ry
     charge density cutoff     =     551.2396  Ry
     convergence threshold     =      1.0E-05
     mixing beta               =       0.1000
     number of iterations used =           10  plain     mixing
     Exchange-correlation= BEEF-VDW
                           (   1   4  43  14   2   0   0)

     celldm(1)=   1.889726  celldm(2)=   0.000000  celldm(3)=   0.000000
     celldm(4)=   0.000000  celldm(5)=   0.000000  celldm(6)=   0.000000

     crystal axes: (cart. coord. in units of alat)
               a(1) = (   5.074275   0.000000   0.000000 )  
               a(2) = (   2.142059   4.599984   0.000000 )  
               a(3) = (   0.000000   0.000000  24.203126 )  

     reciprocal axes: (cart. coord. in units 2 pi/alat)
               b(1) = (  0.197072 -0.091770  0.000000 )  
               b(2) = (  0.000000  0.217392  0.000000 )  
               b(3) = (  0.000000  0.000000  0.041317 )  


     PseudoPot. # 1 for Ni read from file:
     ../pseudo/Ni.pbe-n-rrkjus_psl.1.0.0.UPF
     MD5 check sum: 9f76af1bddcd5839b31985483df98d0a
     Pseudo is Ultrasoft + core correction, Zval = 10.0
     Generated using "atomic" code by A. Dal Corso v.6.5
     Using radial grid of 1195 points,  6 beta functions with: 
                l(1) =   0
                l(2) =   0
                l(3) =   1
                l(4) =   1
                l(5) =   2
                l(6) =   2
     Q(r) pseudized with 0 coefficients 


     PseudoPot. # 2 for Zn read from file:
     ../pseudo/Zn.pbe-dnl-rrkjus_psl.1.0.0.UPF
     MD5 check sum: 7f56cabf9682ed8c977c2f7d0c5985c5
     Pseudo is Ultrasoft + core correction, Zval = 12.0
     Generated using "atomic" code by A. Dal Corso v.6.2.2
     Using radial grid of 1201 points,  6 beta functions with: 
                l(1) =   0
                l(2) =   0
                l(3) =   1
                l(4) =   1
                l(5) =   2
                l(6) =   2
     Q(r) pseudized with 0 coefficients 


     atomic species   valence    mass     pseudopotential
        Ni            10.00    58.69340     Ni( 1.00)
        Zn            12.00    65.38000     Zn( 1.00)

     Starting magnetic structure 
     atomic species   magnetization
        Ni           0.500
        Zn           0.000

     No symmetry found



   Cartesian axes

     site n.     atom                  positions (alat units)
         1           Ni  tau(   1) = (   0.0000000   0.0000000  10.0000000  )
         2           Ni  tau(   2) = (   3.6081670   2.2999918  10.0000000  )
         3           Zn  tau(   3) = (   2.5371375   0.0000000  10.0000000  )
         4           Zn  tau(   4) = (   1.0710295   2.2999918  10.0000000  )
         5           Ni  tau(   5) = (   5.0742750   3.2345485  12.1015629  )
         6           Ni  tau(   6) = (   1.4661080   0.9345566  12.1015629  )
         7           Zn  tau(   7) = (   2.5371375   3.2345485  12.1015629  )
         8           Zn  tau(   8) = (   4.0032455   0.9345566  12.1015629  )
         9           Ni  tau(   9) = (   2.9236024   1.8636222  14.1070951  )
        10           Ni  tau(  10) = (   6.5315725   4.1634887  14.1070244  )
        11           Zn  tau(  11) = (   5.4667725   1.8677362  14.3093895  )
        12           Zn  tau(  12) = (   4.0009074   4.1673462  14.3093896  )

     number of k points=    74  Fermi-Dirac smearing, width (Ry)=  0.0100
                       cart. coord. in units 2pi/alat
        k(    1) = (   0.0000000   0.0000000   0.0000000), wk =   0.0069444
        k(    2) = (   0.0000000   0.0181160   0.0000000), wk =   0.0138889
        k(    3) = (   0.0000000   0.0362320   0.0000000), wk =   0.0138889
        k(    4) = (   0.0000000   0.0543480   0.0000000), wk =   0.0138889
        k(    5) = (   0.0000000   0.0724640   0.0000000), wk =   0.0138889
        k(    6) = (   0.0000000   0.0905800   0.0000000), wk =   0.0138889
        k(    7) = (   0.0000000  -0.1086960   0.0000000), wk =   0.0069444
        k(    8) = (   0.0164227  -0.0076475   0.0000000), wk =   0.0138889
        k(    9) = (   0.0164227   0.0104685   0.0000000), wk =   0.0138889
        k(   10) = (   0.0164227   0.0285845   0.0000000), wk =   0.0138889
        k(   11) = (   0.0164227   0.0467005   0.0000000), wk =   0.0138889
        k(   12) = (   0.0164227   0.0648165   0.0000000), wk =   0.0138889
        k(   13) = (   0.0164227   0.0829325   0.0000000), wk =   0.0138889
        k(   14) = (   0.0164227  -0.1163435   0.0000000), wk =   0.0138889
        k(   15) = (   0.0164227  -0.0982275   0.0000000), wk =   0.0138889
        k(   16) = (   0.0164227  -0.0801115   0.0000000), wk =   0.0138889
        k(   17) = (   0.0164227  -0.0619955   0.0000000), wk =   0.0138889
        k(   18) = (   0.0164227  -0.0438795   0.0000000), wk =   0.0138889
        k(   19) = (   0.0164227  -0.0257635   0.0000000), wk =   0.0138889
        k(   20) = (   0.0328454  -0.0152950   0.0000000), wk =   0.0138889
        k(   21) = (   0.0328454   0.0028210   0.0000000), wk =   0.0138889
        k(   22) = (   0.0328454   0.0209370   0.0000000), wk =   0.0138889
        k(   23) = (   0.0328454   0.0390530   0.0000000), wk =   0.0138889
        k(   24) = (   0.0328454   0.0571690   0.0000000), wk =   0.0138889
        k(   25) = (   0.0328454   0.0752850   0.0000000), wk =   0.0138889
        k(   26) = (   0.0328454  -0.1239910   0.0000000), wk =   0.0138889
        k(   27) = (   0.0328454  -0.1058750   0.0000000), wk =   0.0138889
        k(   28) = (   0.0328454  -0.0877590   0.0000000), wk =   0.0138889
        k(   29) = (   0.0328454  -0.0696430   0.0000000), wk =   0.0138889
        k(   30) = (   0.0328454  -0.0515270   0.0000000), wk =   0.0138889
        k(   31) = (   0.0328454  -0.0334110   0.0000000), wk =   0.0138889
        k(   32) = (   0.0492681  -0.0229425   0.0000000), wk =   0.0138889
        k(   33) = (   0.0492681  -0.0048265   0.0000000), wk =   0.0138889
        k(   34) = (   0.0492681   0.0132895   0.0000000), wk =   0.0138889
        k(   35) = (   0.0492681   0.0314055   0.0000000), wk =   0.0138889
        k(   36) = (   0.0492681   0.0495215   0.0000000), wk =   0.0138889
        k(   37) = (   0.0492681   0.0676375   0.0000000), wk =   0.0138889
        k(   38) = (   0.0492681  -0.1316386   0.0000000), wk =   0.0138889
        k(   39) = (   0.0492681  -0.1135225   0.0000000), wk =   0.0138889
        k(   40) = (   0.0492681  -0.0954065   0.0000000), wk =   0.0138889
        k(   41) = (   0.0492681  -0.0772905   0.0000000), wk =   0.0138889
        k(   42) = (   0.0492681  -0.0591745   0.0000000), wk =   0.0138889
        k(   43) = (   0.0492681  -0.0410585   0.0000000), wk =   0.0138889
        k(   44) = (   0.0656908  -0.0305900   0.0000000), wk =   0.0138889
        k(   45) = (   0.0656908  -0.0124740   0.0000000), wk =   0.0138889
        k(   46) = (   0.0656908   0.0056420   0.0000000), wk =   0.0138889
        k(   47) = (   0.0656908   0.0237580   0.0000000), wk =   0.0138889
        k(   48) = (   0.0656908   0.0418740   0.0000000), wk =   0.0138889
        k(   49) = (   0.0656908   0.0599900   0.0000000), wk =   0.0138889
        k(   50) = (   0.0656908  -0.1392861   0.0000000), wk =   0.0138889
        k(   51) = (   0.0656908  -0.1211701   0.0000000), wk =   0.0138889
        k(   52) = (   0.0656908  -0.1030540   0.0000000), wk =   0.0138889
        k(   53) = (   0.0656908  -0.0849380   0.0000000), wk =   0.0138889
        k(   54) = (   0.0656908  -0.0668220   0.0000000), wk =   0.0138889
        k(   55) = (   0.0656908  -0.0487060   0.0000000), wk =   0.0138889
        k(   56) = (   0.0821135  -0.0382375   0.0000000), wk =   0.0138889
        k(   57) = (   0.0821135  -0.0201215   0.0000000), wk =   0.0138889
        k(   58) = (   0.0821135  -0.0020055   0.0000000), wk =   0.0138889
        k(   59) = (   0.0821135   0.0161105   0.0000000), wk =   0.0138889
        k(   60) = (   0.0821135   0.0342265   0.0000000), wk =   0.0138889
        k(   61) = (   0.0821135   0.0523425   0.0000000), wk =   0.0138889
        k(   62) = (   0.0821135  -0.1469336   0.0000000), wk =   0.0138889
        k(   63) = (   0.0821135  -0.1288176   0.0000000), wk =   0.0138889
        k(   64) = (   0.0821135  -0.1107016   0.0000000), wk =   0.0138889
        k(   65) = (   0.0821135  -0.0925855   0.0000000), wk =   0.0138889
        k(   66) = (   0.0821135  -0.0744695   0.0000000), wk =   0.0138889
        k(   67) = (   0.0821135  -0.0563535   0.0000000), wk =   0.0138889
        k(   68) = (  -0.0985362   0.0458850   0.0000000), wk =   0.0069444
        k(   69) = (  -0.0985362   0.0640010   0.0000000), wk =   0.0138889
        k(   70) = (  -0.0985362   0.0821170   0.0000000), wk =   0.0138889
        k(   71) = (  -0.0985362   0.1002331   0.0000000), wk =   0.0138889
        k(   72) = (  -0.0985362   0.1183491   0.0000000), wk =   0.0138889
        k(   73) = (  -0.0985362   0.1364651   0.0000000), wk =   0.0138889
        k(   74) = (  -0.0985362  -0.0628110   0.0000000), wk =   0.0069444

     Dense  grid:   833255 G-vectors     FFT dimensions: (  72,  72, 360)

     Smooth grid:   210947 G-vectors     FFT dimensions: (  45,  45, 225)

     Estimated max dynamical RAM per process >     228.83 MB

     Estimated total dynamical RAM >       8.27 GB
     Generating pointlists ...
     new r_m :   1.0147 (alat units)  1.9175 (a.u.) for type    1
     new r_m :   1.0147 (alat units)  1.9175 (a.u.) for type    2

     Initial potential from superposition of free atoms

     starting charge  131.97617, renormalised to  132.00000


     %%%%%%%%%%%%%%%%%%%%%%%%%%%%%%%%%%%%%%%%%%%%%%%%%%%%%%%%%%%%%%%%%%%%%%%%
     %                                                                      %
     % You are using vdW-DF, which was implemented by the Thonhauser group. %
     % Please cite the following two papers that made this development      %
     % possible and the two reviews that describe the various versions:     %
     %                                                                      %
     %   T. Thonhauser et al., PRL 115, 136402 (2015).                      %
     %   T. Thonhauser et al., PRB 76, 125112 (2007).                       %
     %   K. Berland et al., Rep. Prog. Phys. 78, 066501 (2015).             %
     %   D.C. Langreth et al., J. Phys.: Condens. Matter 21, 084203 (2009). %
     %                                                                      %
     %                                                                      %
     % If you are calculating the stress with vdW-DF, please also cite:     %
     %                                                                      %
     %   R. Sabatini et al., J. Phys.: Condens. Matter 24, 424209 (2012).   %
     %                                                                      %
     %%%%%%%%%%%%%%%%%%%%%%%%%%%%%%%%%%%%%%%%%%%%%%%%%%%%%%%%%%%%%%%%%%%%%%%%



     Adding external electric field

     Computed dipole along edir(3) : 
        Dipole                0.0012 Ry au,          0.0030 Debye
        Dipole field          0.0000 Ry au, 

        Potential amp.       -0.0004 Ry
        Total length         44.5938 bohr


     Adding external electric field

     Computed dipole along edir(3) : 
        Dipole                0.0012 Ry au,          0.0030 Debye
        Dipole field          0.0000 Ry au, 

        Potential amp.       -0.0004 Ry
        Total length         44.5938 bohr

     Starting wfcs are  108 randomized atomic wfcs

     total cpu time spent up to now is      463.2 secs

     Self-consistent Calculation

     iteration #  1     ecut=    55.12 Ry     beta= 0.10
     Davidson diagonalization with overlap
     ethr =  1.00E-02,  avg # of iterations =  3.0

     Adding external electric field

     Computed dipole along edir(3) : 
        Dipole                0.0031 Ry au,          0.0080 Debye
        Dipole field          0.0000 Ry au, 

        Potential amp.       -0.0009 Ry
        Total length         44.5938 bohr


     Adding external electric field

     Computed dipole along edir(3) : 
        Dipole                0.0031 Ry au,          0.0080 Debye
        Dipole field          0.0000 Ry au, 

        Potential amp.       -0.0009 Ry
        Total length         44.5938 bohr


     total cpu time spent up to now is      778.3 secs

     total energy              =   -1508.05865503 Ry
     estimated scf accuracy    <       6.64284263 Ry

     total magnetization       =     4.16 Bohr mag/cell
     absolute magnetization    =     4.47 Bohr mag/cell

     iteration #  2     ecut=    55.12 Ry     beta= 0.10
     Davidson diagonalization with overlap
     ethr =  5.03E-03,  avg # of iterations =  1.0

     Adding external electric field

     Computed dipole along edir(3) : 
        Dipole                0.1574 Ry au,          0.4000 Debye
        Dipole field          0.0005 Ry au, 

        Potential amp.       -0.0463 Ry
        Total length         44.5938 bohr


     Adding external electric field

     Computed dipole along edir(3) : 
        Dipole                0.1574 Ry au,          0.4000 Debye
        Dipole field          0.0005 Ry au, 

        Potential amp.       -0.0463 Ry
        Total length         44.5938 bohr


     total cpu time spent up to now is     1040.0 secs

     total energy              =   -1508.38570922 Ry
     estimated scf accuracy    <       2.20665770 Ry

     total magnetization       =     6.76 Bohr mag/cell
     absolute magnetization    =     7.18 Bohr mag/cell

     iteration #  3     ecut=    55.12 Ry     beta= 0.10
     Davidson diagonalization with overlap
     ethr =  1.67E-03,  avg # of iterations =  1.5

     Adding external electric field

     Computed dipole along edir(3) : 
        Dipole               -0.2189 Ry au,         -0.5564 Debye
        Dipole field         -0.0007 Ry au, 

        Potential amp.        0.0644 Ry
        Total length         44.5938 bohr


     Adding external electric field

     Computed dipole along edir(3) : 
        Dipole               -0.2189 Ry au,         -0.5564 Debye
        Dipole field         -0.0007 Ry au, 

        Potential amp.        0.0644 Ry
        Total length         44.5938 bohr


     total cpu time spent up to now is     1312.3 secs

     total energy              =   -1508.43994051 Ry
     estimated scf accuracy    <       7.10310361 Ry

     total magnetization       =     7.31 Bohr mag/cell
     absolute magnetization    =     7.79 Bohr mag/cell

     iteration #  4     ecut=    55.12 Ry     beta= 0.10
     Davidson diagonalization with overlap
     ethr =  1.67E-03,  avg # of iterations =  1.0

     Adding external electric field

     Computed dipole along edir(3) : 
        Dipole                0.0094 Ry au,          0.0240 Debye
        Dipole field          0.0000 Ry au, 

        Potential amp.       -0.0028 Ry
        Total length         44.5938 bohr


     Adding external electric field

     Computed dipole along edir(3) : 
        Dipole                0.0094 Ry au,          0.0240 Debye
        Dipole field          0.0000 Ry au, 

        Potential amp.       -0.0028 Ry
        Total length         44.5938 bohr


     total cpu time spent up to now is     1612.3 secs

     total energy              =   -1508.72160071 Ry
     estimated scf accuracy    <       9.12455248 Ry

     total magnetization       =     7.17 Bohr mag/cell
     absolute magnetization    =     7.65 Bohr mag/cell

     iteration #  5     ecut=    55.12 Ry     beta= 0.10
     Davidson diagonalization with overlap
     ethr =  1.67E-03,  avg # of iterations =  1.0

     Adding external electric field

     Computed dipole along edir(3) : 
        Dipole                0.0071 Ry au,          0.0181 Debye
        Dipole field          0.0000 Ry au, 

        Potential amp.       -0.0021 Ry
        Total length         44.5938 bohr


     Adding external electric field

     Computed dipole along edir(3) : 
        Dipole                0.0071 Ry au,          0.0181 Debye
        Dipole field          0.0000 Ry au, 

        Potential amp.       -0.0021 Ry
        Total length         44.5938 bohr


     total cpu time spent up to now is     1875.1 secs

     total energy              =   -1510.94832025 Ry
     estimated scf accuracy    <       1.07278257 Ry

     total magnetization       =     6.32 Bohr mag/cell
     absolute magnetization    =     6.94 Bohr mag/cell

     iteration #  6     ecut=    55.12 Ry     beta= 0.10
     Davidson diagonalization with overlap
     ethr =  8.13E-04,  avg # of iterations =  2.1

     Adding external electric field

     Computed dipole along edir(3) : 
        Dipole               -0.0111 Ry au,         -0.0283 Debye
        Dipole field         -0.0000 Ry au, 

        Potential amp.        0.0033 Ry
        Total length         44.5938 bohr


     Adding external electric field

     Computed dipole along edir(3) : 
        Dipole               -0.0111 Ry au,         -0.0283 Debye
        Dipole field         -0.0000 Ry au, 

        Potential amp.        0.0033 Ry
        Total length         44.5938 bohr


     total cpu time spent up to now is     2175.9 secs

     total energy              =   -1513.67575447 Ry
     estimated scf accuracy    <       0.50500655 Ry

     total magnetization       =     4.24 Bohr mag/cell
     absolute magnetization    =     5.25 Bohr mag/cell

     iteration #  7     ecut=    55.12 Ry     beta= 0.10
     Davidson diagonalization with overlap
     ethr =  3.83E-04,  avg # of iterations =  2.8

     Adding external electric field

     Computed dipole along edir(3) : 
        Dipole               -0.0021 Ry au,         -0.0052 Debye
        Dipole field         -0.0000 Ry au, 

        Potential amp.        0.0006 Ry
        Total length         44.5938 bohr


     Adding external electric field

     Computed dipole along edir(3) : 
        Dipole               -0.0021 Ry au,         -0.0052 Debye
        Dipole field         -0.0000 Ry au, 

        Potential amp.        0.0006 Ry
        Total length         44.5938 bohr


     total cpu time spent up to now is     2515.7 secs

     total energy              =   -1514.89023795 Ry
     estimated scf accuracy    <       0.13945537 Ry

     total magnetization       =     2.02 Bohr mag/cell
     absolute magnetization    =     3.22 Bohr mag/cell

     iteration #  8     ecut=    55.12 Ry     beta= 0.10
     Davidson diagonalization with overlap
     c_bands:  1 eigenvalues not converged
     c_bands:  1 eigenvalues not converged
     c_bands:  1 eigenvalues not converged
     c_bands:  1 eigenvalues not converged
     c_bands:  1 eigenvalues not converged
     c_bands:  1 eigenvalues not converged
     ethr =  1.06E-04,  avg # of iterations =  9.9

     Adding external electric field

     Computed dipole along edir(3) : 
        Dipole                0.0055 Ry au,          0.0139 Debye
        Dipole field          0.0000 Ry au, 

        Potential amp.       -0.0016 Ry
        Total length         44.5938 bohr


     Adding external electric field

     Computed dipole along edir(3) : 
        Dipole                0.0055 Ry au,          0.0139 Debye
        Dipole field          0.0000 Ry au, 

        Potential amp.       -0.0016 Ry
        Total length         44.5938 bohr


     total cpu time spent up to now is     2938.6 secs

     total energy              =   -1514.80482886 Ry
     estimated scf accuracy    <       0.06523382 Ry

     total magnetization       =     0.67 Bohr mag/cell
     absolute magnetization    =     1.80 Bohr mag/cell

     iteration #  9     ecut=    55.12 Ry     beta= 0.10
     Davidson diagonalization with overlap
     c_bands:  2 eigenvalues not converged
     c_bands:  2 eigenvalues not converged
     c_bands:  3 eigenvalues not converged
     c_bands:  3 eigenvalues not converged
     c_bands:  1 eigenvalues not converged
     ethr =  4.94E-05,  avg # of iterations =  3.2

     Adding external electric field

     Computed dipole along edir(3) : 
        Dipole                0.0144 Ry au,          0.0366 Debye
        Dipole field          0.0000 Ry au, 

        Potential amp.       -0.0042 Ry
        Total length         44.5938 bohr


     Adding external electric field

     Computed dipole along edir(3) : 
        Dipole                0.0144 Ry au,          0.0366 Debye
        Dipole field          0.0000 Ry au, 

        Potential amp.       -0.0042 Ry
        Total length         44.5938 bohr


     total cpu time spent up to now is     3495.6 secs

     total energy              =   -1514.52020902 Ry
     estimated scf accuracy    <       0.02237075 Ry

     total magnetization       =     0.19 Bohr mag/cell
     absolute magnetization    =     1.28 Bohr mag/cell

     iteration # 10     ecut=    55.12 Ry     beta= 0.10
     Davidson diagonalization with overlap
     c_bands:  1 eigenvalues not converged
     c_bands:  1 eigenvalues not converged
     c_bands:  1 eigenvalues not converged
     c_bands:  2 eigenvalues not converged
     c_bands:  1 eigenvalues not converged
     c_bands:  2 eigenvalues not converged
     c_bands:  2 eigenvalues not converged
     c_bands:  1 eigenvalues not converged
     c_bands:  3 eigenvalues not converged
     c_bands:  1 eigenvalues not converged
     c_bands:  2 eigenvalues not converged
     c_bands:  1 eigenvalues not converged
     c_bands:  2 eigenvalues not converged
     c_bands:  2 eigenvalues not converged
     c_bands:  2 eigenvalues not converged
     c_bands:  1 eigenvalues not converged
     c_bands:  1 eigenvalues not converged
     c_bands:  1 eigenvalues not converged
     c_bands:  1 eigenvalues not converged
     c_bands:  1 eigenvalues not converged
     ethr =  1.69E-05,  avg # of iterations =  7.1

     Adding external electric field

     Computed dipole along edir(3) : 
        Dipole                0.0104 Ry au,          0.0265 Debye
        Dipole field          0.0000 Ry au, 

        Potential amp.       -0.0031 Ry
        Total length         44.5938 bohr


     Adding external electric field

     Computed dipole along edir(3) : 
        Dipole                0.0104 Ry au,          0.0265 Debye
        Dipole field          0.0000 Ry au, 

        Potential amp.       -0.0031 Ry
        Total length         44.5938 bohr


     total cpu time spent up to now is     3858.2 secs

     total energy              =   -1513.73288211 Ry
     estimated scf accuracy    <       0.02204651 Ry

     total magnetization       =    -0.12 Bohr mag/cell
     absolute magnetization    =     0.85 Bohr mag/cell

     iteration # 11     ecut=    55.12 Ry     beta= 0.10
     Davidson diagonalization with overlap
     ethr =  1.67E-05,  avg # of iterations =  1.9

     Adding external electric field

     Computed dipole along edir(3) : 
        Dipole                0.0058 Ry au,          0.0146 Debye
        Dipole field          0.0000 Ry au, 

        Potential amp.       -0.0017 Ry
        Total length         44.5938 bohr


     Adding external electric field

     Computed dipole along edir(3) : 
        Dipole                0.0058 Ry au,          0.0146 Debye
        Dipole field          0.0000 Ry au, 

        Potential amp.       -0.0017 Ry
        Total length         44.5938 bohr


     total cpu time spent up to now is     4145.1 secs

     total energy              =   -1513.18711575 Ry
     estimated scf accuracy    <       0.00724606 Ry

     total magnetization       =     0.09 Bohr mag/cell
     absolute magnetization    =     0.93 Bohr mag/cell

     iteration # 12     ecut=    55.12 Ry     beta= 0.10
     Davidson diagonalization with overlap
     c_bands:  1 eigenvalues not converged
     c_bands:  1 eigenvalues not converged
     c_bands:  1 eigenvalues not converged
     c_bands:  3 eigenvalues not converged
     c_bands:  1 eigenvalues not converged
     c_bands:  2 eigenvalues not converged
     c_bands:  1 eigenvalues not converged
     c_bands:  1 eigenvalues not converged
     c_bands:  1 eigenvalues not converged
     ethr =  5.49E-06,  avg # of iterations =  5.5

     Adding external electric field

     Computed dipole along edir(3) : 
        Dipole                0.0046 Ry au,          0.0117 Debye
        Dipole field          0.0000 Ry au, 

        Potential amp.       -0.0014 Ry
        Total length         44.5938 bohr


     Adding external electric field

     Computed dipole along edir(3) : 
        Dipole                0.0046 Ry au,          0.0117 Debye
        Dipole field          0.0000 Ry au, 

        Potential amp.       -0.0014 Ry
        Total length         44.5938 bohr


     total cpu time spent up to now is     4745.3 secs

     total energy              =   -1512.95755576 Ry
     estimated scf accuracy    <       0.00397610 Ry

     total magnetization       =     0.17 Bohr mag/cell
     absolute magnetization    =     0.88 Bohr mag/cell

     iteration # 13     ecut=    55.12 Ry     beta= 0.10
     Davidson diagonalization with overlap
     c_bands:  1 eigenvalues not converged
     c_bands:  1 eigenvalues not converged
     c_bands:  1 eigenvalues not converged
     c_bands:  1 eigenvalues not converged
     c_bands:  1 eigenvalues not converged
     c_bands:  1 eigenvalues not converged
     c_bands:  3 eigenvalues not converged
     c_bands:  1 eigenvalues not converged
     c_bands:  1 eigenvalues not converged
     ethr =  3.01E-06,  avg # of iterations =  6.0

     Adding external electric field

     Computed dipole along edir(3) : 
        Dipole                0.0061 Ry au,          0.0155 Debye
        Dipole field          0.0000 Ry au, 

        Potential amp.       -0.0018 Ry
        Total length         44.5938 bohr


     Adding external electric field

     Computed dipole along edir(3) : 
        Dipole                0.0061 Ry au,          0.0155 Debye
        Dipole field          0.0000 Ry au, 

        Potential amp.       -0.0018 Ry
        Total length         44.5938 bohr


     total cpu time spent up to now is     5200.6 secs

     total energy              =   -1512.59395975 Ry
     estimated scf accuracy    <       0.00323445 Ry

     total magnetization       =    -0.00 Bohr mag/cell
     absolute magnetization    =     0.61 Bohr mag/cell

     iteration # 14     ecut=    55.12 Ry     beta= 0.10
     Davidson diagonalization with overlap
     c_bands:  1 eigenvalues not converged
     c_bands:  1 eigenvalues not converged
     c_bands:  2 eigenvalues not converged
     ethr =  2.45E-06,  avg # of iterations =  2.6

     Adding external electric field

     Computed dipole along edir(3) : 
        Dipole                0.0065 Ry au,          0.0165 Debye
        Dipole field          0.0000 Ry au, 

        Potential amp.       -0.0019 Ry
        Total length         44.5938 bohr


     Adding external electric field

     Computed dipole along edir(3) : 
        Dipole                0.0065 Ry au,          0.0165 Debye
        Dipole field          0.0000 Ry au, 

        Potential amp.       -0.0019 Ry
        Total length         44.5938 bohr


     total cpu time spent up to now is     5772.1 secs

     total energy              =   -1512.24978601 Ry
     estimated scf accuracy    <       0.00085147 Ry

     total magnetization       =    -0.03 Bohr mag/cell
     absolute magnetization    =     0.50 Bohr mag/cell

     iteration # 15     ecut=    55.12 Ry     beta= 0.10
     Davidson diagonalization with overlap
     c_bands:  1 eigenvalues not converged
     c_bands:  1 eigenvalues not converged
     ethr =  6.45E-07,  avg # of iterations =  2.5

     Adding external electric field

     Computed dipole along edir(3) : 
        Dipole                0.0067 Ry au,          0.0170 Debye
        Dipole field          0.0000 Ry au, 

        Potential amp.       -0.0020 Ry
        Total length         44.5938 bohr


     Adding external electric field

     Computed dipole along edir(3) : 
        Dipole                0.0067 Ry au,          0.0170 Debye
        Dipole field          0.0000 Ry au, 

        Potential amp.       -0.0020 Ry
        Total length         44.5938 bohr


     total cpu time spent up to now is     6100.9 secs

     total energy              =   -1511.86200355 Ry
     estimated scf accuracy    <       0.00044382 Ry

     total magnetization       =    -0.03 Bohr mag/cell
     absolute magnetization    =     0.41 Bohr mag/cell

     iteration # 16     ecut=    55.12 Ry     beta= 0.10
     Davidson diagonalization with overlap
     c_bands:  1 eigenvalues not converged
     c_bands:  1 eigenvalues not converged
     c_bands:  1 eigenvalues not converged
     c_bands:  1 eigenvalues not converged
     ethr =  3.36E-07,  avg # of iterations =  3.2

     Adding external electric field

     Computed dipole along edir(3) : 
        Dipole                0.0081 Ry au,          0.0206 Debye
        Dipole field          0.0000 Ry au, 

        Potential amp.       -0.0024 Ry
        Total length         44.5938 bohr


     Adding external electric field

     Computed dipole along edir(3) : 
        Dipole                0.0081 Ry au,          0.0206 Debye
        Dipole field          0.0000 Ry au, 

        Potential amp.       -0.0024 Ry
        Total length         44.5938 bohr


     total cpu time spent up to now is     6455.2 secs

     total energy              =   -1511.56829185 Ry
     estimated scf accuracy    <       0.00073391 Ry

     total magnetization       =     0.01 Bohr mag/cell
     absolute magnetization    =     0.37 Bohr mag/cell

     iteration # 17     ecut=    55.12 Ry     beta= 0.10
     Davidson diagonalization with overlap
     c_bands:  1 eigenvalues not converged
     ethr =  3.36E-07,  avg # of iterations =  2.2

     Adding external electric field

     Computed dipole along edir(3) : 
        Dipole                0.0062 Ry au,          0.0157 Debye
        Dipole field          0.0000 Ry au, 

        Potential amp.       -0.0018 Ry
        Total length         44.5938 bohr


     Adding external electric field

     Computed dipole along edir(3) : 
        Dipole                0.0062 Ry au,          0.0157 Debye
        Dipole field          0.0000 Ry au, 

        Potential amp.       -0.0018 Ry
        Total length         44.5938 bohr


     total cpu time spent up to now is     7206.5 secs

     total energy              =   -1511.29653303 Ry
     estimated scf accuracy    <       0.00087648 Ry

     total magnetization       =     0.01 Bohr mag/cell
     absolute magnetization    =     0.28 Bohr mag/cell

     iteration # 18     ecut=    55.12 Ry     beta= 0.10
     Davidson diagonalization with overlap
     ethr =  3.36E-07,  avg # of iterations =  1.7

     Adding external electric field

     Computed dipole along edir(3) : 
        Dipole                0.0080 Ry au,          0.0204 Debye
        Dipole field          0.0000 Ry au, 

        Potential amp.       -0.0024 Ry
        Total length         44.5938 bohr


     Adding external electric field

     Computed dipole along edir(3) : 
        Dipole                0.0080 Ry au,          0.0204 Debye
        Dipole field          0.0000 Ry au, 

        Potential amp.       -0.0024 Ry
        Total length         44.5938 bohr


     total cpu time spent up to now is     7513.1 secs

     total energy              =   -1511.09901750 Ry
     estimated scf accuracy    <       0.00031969 Ry

     total magnetization       =     0.01 Bohr mag/cell
     absolute magnetization    =     0.29 Bohr mag/cell

     iteration # 19     ecut=    55.12 Ry     beta= 0.10
     Davidson diagonalization with overlap
     ethr =  2.42E-07,  avg # of iterations =  2.3

     Adding external electric field

     Computed dipole along edir(3) : 
        Dipole                0.0081 Ry au,          0.0205 Debye
        Dipole field          0.0000 Ry au, 

        Potential amp.       -0.0024 Ry
        Total length         44.5938 bohr


     Adding external electric field

     Computed dipole along edir(3) : 
        Dipole                0.0081 Ry au,          0.0205 Debye
        Dipole field          0.0000 Ry au, 

        Potential amp.       -0.0024 Ry
        Total length         44.5938 bohr


     total cpu time spent up to now is     7880.0 secs

     total energy              =   -1510.86478563 Ry
     estimated scf accuracy    <       0.00003283 Ry

     total magnetization       =     0.01 Bohr mag/cell
     absolute magnetization    =     0.16 Bohr mag/cell

     iteration # 20     ecut=    55.12 Ry     beta= 0.10
     Davidson diagonalization with overlap
     c_bands:  1 eigenvalues not converged
     ethr =  2.49E-08,  avg # of iterations =  5.4

     Adding external electric field

     Computed dipole along edir(3) : 
        Dipole                0.0077 Ry au,          0.0197 Debye
        Dipole field          0.0000 Ry au, 

        Potential amp.       -0.0023 Ry
        Total length         44.5938 bohr


     Adding external electric field

     Computed dipole along edir(3) : 
        Dipole                0.0077 Ry au,          0.0197 Debye
        Dipole field          0.0000 Ry au, 

        Potential amp.       -0.0023 Ry
        Total length         44.5938 bohr


     total cpu time spent up to now is     8361.1 secs

     total energy              =   -1510.68449056 Ry
     estimated scf accuracy    <       0.00002006 Ry

     total magnetization       =     0.01 Bohr mag/cell
     absolute magnetization    =     0.13 Bohr mag/cell

     iteration # 21     ecut=    55.12 Ry     beta= 0.10
     Davidson diagonalization with overlap
     ethr =  1.52E-08,  avg # of iterations =  2.2

     Adding external electric field

     Computed dipole along edir(3) : 
        Dipole                0.0076 Ry au,          0.0192 Debye
        Dipole field          0.0000 Ry au, 

        Potential amp.       -0.0022 Ry
        Total length         44.5938 bohr


     Adding external electric field

     Computed dipole along edir(3) : 
        Dipole                0.0076 Ry au,          0.0192 Debye
        Dipole field          0.0000 Ry au, 

        Potential amp.       -0.0022 Ry
        Total length         44.5938 bohr


     total cpu time spent up to now is     8730.2 secs

     total energy              =   -1510.50204582 Ry
     estimated scf accuracy    <       0.00001458 Ry

     total magnetization       =     0.00 Bohr mag/cell
     absolute magnetization    =     0.08 Bohr mag/cell

     iteration # 22     ecut=    55.12 Ry     beta= 0.10
     Davidson diagonalization with overlap
     ethr =  1.10E-08,  avg # of iterations =  3.6

     Adding external electric field

     Computed dipole along edir(3) : 
        Dipole                0.0079 Ry au,          0.0201 Debye
        Dipole field          0.0000 Ry au, 

        Potential amp.       -0.0023 Ry
        Total length         44.5938 bohr


     Adding external electric field

     Computed dipole along edir(3) : 
        Dipole                0.0079 Ry au,          0.0201 Debye
        Dipole field          0.0000 Ry au, 

        Potential amp.       -0.0023 Ry
        Total length         44.5938 bohr


     Magnetic moment per site:
     atom:    1    charge:    8.5940    magn:    0.0087    constr:    0.0000
     atom:    2    charge:    8.5936    magn:    0.0088    constr:    0.0000
     atom:    3    charge:   10.3865    magn:   -0.0005    constr:    0.0000
     atom:    4    charge:   10.3865    magn:   -0.0005    constr:    0.0000
     atom:    5    charge:    8.6450    magn:   -0.0009    constr:    0.0000
     atom:    6    charge:    8.6436    magn:   -0.0011    constr:    0.0000
     atom:    7    charge:   10.4440    magn:   -0.0002    constr:    0.0000
     atom:    8    charge:   10.4440    magn:   -0.0002    constr:    0.0000
     atom:    9    charge:    8.6104    magn:    0.0026    constr:    0.0000
     atom:   10    charge:    8.6101    magn:    0.0027    constr:    0.0000
     atom:   11    charge:   10.3662    magn:   -0.0003    constr:    0.0000
     atom:   12    charge:   10.3662    magn:   -0.0003    constr:    0.0000

     total cpu time spent up to now is     9114.7 secs

     End of self-consistent calculation

     Number of k-points >= 100: set verbosity='high' to print the bands.

     the Fermi energy is    -0.3671 ev

!    total energy              =   -1508.78587089 Ry
     estimated scf accuracy    <       0.00000626 Ry
     smearing contrib. (-TS)   =      -0.03344885 Ry
     internal energy E=F+TS    =   -1508.75242204 Ry

     The total energy is F=E-TS. E is the sum of the following terms:
     one-electron contribution =  -11614.41513863 Ry
     hartree contribution      =    5942.89753920 Ry
     xc contribution           =    -549.62926146 Ry
     ewald contribution        =    4712.39443865 Ry
     electric field correction =       0.00000021 Ry

     total magnetization       =    -0.00 Bohr mag/cell
     absolute magnetization    =     0.06 Bohr mag/cell

     convergence has been achieved in  22 iterations

     Forces acting on atoms (cartesian axes, Ry/au):

     atom    1 type  1   force =     0.00196854    0.00125017    0.01793837
     atom    2 type  1   force =     0.00178973    0.00114047    0.01786263
     atom    3 type  2   force =    -0.00182409   -0.00088197   -0.01459754
     atom    4 type  2   force =    -0.00156936   -0.00127936   -0.01459770
     atom    5 type  1   force =    -0.00327721   -0.00208715    0.00683609
     atom    6 type  1   force =    -0.00328059   -0.00209112    0.00685846
     atom    7 type  2   force =     0.00410828    0.00262992   -0.01143085
     atom    8 type  2   force =     0.00411636    0.00261313   -0.01142993
     atom    9 type  1   force =    -0.00089746   -0.00057345    0.00041395
     atom   10 type  1   force =    -0.00060489   -0.00038266    0.00053318
     atom   11 type  2   force =    -0.00010958   -0.00041312    0.00080712
     atom   12 type  2   force =    -0.00041972    0.00007513    0.00080621

     Total force =     0.039011     Total SCF correction =     0.002039

     Writing output data file ./Ni2Zn2/Ni2Zn2_beef.save/

     init_run     :    140.81s CPU    442.72s WALL (       1 calls)
     electrons    :   5456.30s CPU   8652.31s WALL (       1 calls)
     forces       :     73.70s CPU     83.68s WALL (       1 calls)

     Called by init_run:
     wfcinit      :    128.14s CPU    414.07s WALL (       1 calls)
     potinit      :      8.47s CPU     22.04s WALL (       1 calls)
     hinit0       :      1.74s CPU      3.27s WALL (       1 calls)

     Called by electrons:
     c_bands      :   4707.29s CPU   7374.24s WALL (      22 calls)
     sum_band     :    688.55s CPU   1180.38s WALL (      22 calls)
     v_of_rho     :     35.67s CPU     75.47s WALL (      23 calls)
     newd         :     31.56s CPU     35.98s WALL (      23 calls)
     mix_rho      :      1.42s CPU      5.26s WALL (      22 calls)
     vdW_kernel   :      5.91s CPU      8.98s WALL (       1 calls)

     Called by c_bands:
     init_us_2    :     21.65s CPU     22.27s WALL (    6808 calls)
     cegterg      :   4651.44s CPU   7287.28s WALL (    3256 calls)

     Called by *egterg:
     cdiaghg      :    250.53s CPU    466.08s WALL (   13854 calls)
     h_psi        :   2875.49s CPU   5081.53s WALL (   14002 calls)
     s_psi        :    762.41s CPU    763.35s WALL (   14002 calls)
     g_psi        :      2.19s CPU      2.46s WALL (   10598 calls)

     Called by h_psi:
     h_psi:calbec :    943.61s CPU   1202.86s WALL (   14002 calls)
     vloc_psi     :   1140.17s CPU   3084.15s WALL (   14002 calls)
     add_vuspsi   :    785.47s CPU    787.45s WALL (   14002 calls)

     General routines
     calbec       :   1387.76s CPU   1760.95s WALL (   17850 calls)
     fft          :     18.04s CPU     59.64s WALL (    2124 calls)
     ffts         :      0.18s CPU      1.30s WALL (      90 calls)
     fftw         :   1292.73s CPU   3582.50s WALL ( 1420580 calls)
     interpolate  :      0.50s CPU      1.99s WALL (      46 calls)

     Parallel routines
     fft_scatt_xy :     83.92s CPU    123.75s WALL ( 1422794 calls)
     fft_scatt_yz :    697.38s CPU   2811.74s WALL ( 1422794 calls)

     PWSCF        :      1h35m CPU      2h39m WALL


   This run was terminated on:  10:10:17  10Jul2022            

=------------------------------------------------------------------------------=
   JOB DONE.
=------------------------------------------------------------------------------=
