
     Program PWSCF v.6.6 starts on 11Jul2022 at  5:22:56 

     This program is part of the open-source Quantum ESPRESSO suite
     for quantum simulation of materials; please cite
         "P. Giannozzi et al., J. Phys.:Condens. Matter 21 395502 (2009);
         "P. Giannozzi et al., J. Phys.:Condens. Matter 29 465901 (2017);
          URL http://www.quantum-espresso.org", 
     in publications or presentations arising from this work. More details at
     http://www.quantum-espresso.org/quote

     Parallel version (MPI), running on    37 processors

     MPI processes distributed on     1 nodes
     R & G space division:  proc/nbgrp/npool/nimage =      37
     Fft bands division:     nmany     =       1
     Reading input from Os2Au2.in
Warning: card &CELL ignored
Warning: card / ignored

     Current dimensions of program PWSCF are:
     Max number of different atomic species (ntypx) = 10
     Max number of k-points (npk) =  40000
     Max angular momentum in pseudopotentials (lmaxx) =  3
     Presently stress not available with electric field and gates

     Message from routine cell_base_init:
     DEPRECATED: use true lattice parameter, not A to a.u. conversion factor

     **************************************************************************
     Initializing libbeef V0.1.2 with the BEEF-vdW functional.
     Citation: Wellendorff et al., PRB 85, 235149 (2012).
     **************************************************************************


     IMPORTANT: XC functional enforced from input :
     Exchange-correlation= BEEF-VDW
                           (   1   4  43  14   2   0   0)
     Any further DFT definition will be discarded
     Please, verify this is what you really want


     Subspace diagonalization in iterative solution of the eigenvalue problem:
     a serial algorithm will be used


     Parallelization info
     --------------------
     sticks:   dense  smooth     PW     G-vecs:    dense   smooth      PW
     Min         117      47     13                27297     6901    1073
     Max         118      48     14                27324     6915    1098
     Sum        4361    1745    507              1010631   255739   40169



     bravais-lattice index     =            0
     lattice parameter (alat)  =       1.8897  a.u.
     unit-cell volume          =    4624.2567 (a.u.)^3
     number of atoms/cell      =           12
     number of atomic types    =            2
     number of electrons       =       162.00
     number of Kohn-Sham states=           97
     kinetic-energy cutoff     =      55.1240  Ry
     charge density cutoff     =     551.2396  Ry
     convergence threshold     =      1.0E-05
     mixing beta               =       0.1000
     number of iterations used =           10  plain     mixing
     Exchange-correlation= BEEF-VDW
                           (   1   4  43  14   2   0   0)

     celldm(1)=   1.889726  celldm(2)=   0.000000  celldm(3)=   0.000000
     celldm(4)=   0.000000  celldm(5)=   0.000000  celldm(6)=   0.000000

     crystal axes: (cart. coord. in units of alat)
               a(1) = (   5.593831   0.000000   0.000000 )  
               a(2) = (  -2.796915   4.974440   0.000000 )  
               a(3) = (   0.000000   0.000000  24.625887 )  

     reciprocal axes: (cart. coord. in units 2 pi/alat)
               b(1) = (  0.178768  0.100514 -0.000000 )  
               b(2) = (  0.000000  0.201028  0.000000 )  
               b(3) = (  0.000000 -0.000000  0.040608 )  


     PseudoPot. # 1 for Os read from file:
     ../pseudo/Os.pbe-spn-rrkjus_psl.1.0.0.UPF
     MD5 check sum: 3e7416ed594f6513d36e5cb31ba709d9
     Pseudo is Ultrasoft + core correction, Zval = 16.0
     Generated using "atomic" code by A. Dal Corso v.6.2.2
     Using radial grid of 1275 points,  6 beta functions with: 
                l(1) =   0
                l(2) =   0
                l(3) =   1
                l(4) =   1
                l(5) =   2
                l(6) =   2
     Q(r) pseudized with 0 coefficients 


     PseudoPot. # 2 for Au read from file:
     ../pseudo/Au.pbe-n-rrkjus_psl.1.0.0.UPF
     MD5 check sum: d7e77ba19504afed2c9b41c931dde4f0
     Pseudo is Ultrasoft + core correction, Zval = 11.0
     Generated using "atomic" code by A. Dal Corso v.6.3
     Using radial grid of 1279 points,  6 beta functions with: 
                l(1) =   0
                l(2) =   0
                l(3) =   1
                l(4) =   1
                l(5) =   2
                l(6) =   2
     Q(r) pseudized with 0 coefficients 


     atomic species   valence    mass     pseudopotential
        Os            16.00   190.23000     Os( 1.00)
        Au            11.00   196.96657     Au( 1.00)

     No symmetry found



   Cartesian axes

     site n.     atom                  positions (alat units)
         1           Os  tau(   1) = (   0.0000000   0.0000000  10.0000000  )
         2           Os  tau(   2) = (   2.7969153   0.0000000  10.0000000  )
         3           Au  tau(   3) = (   1.3984577   2.4872199  10.0000000  )
         4           Au  tau(   4) = (  -1.3984577   2.4872199  10.0000000  )
         5           Os  tau(   5) = (   2.7969153   1.5725862  12.3129436  )
         6           Os  tau(   6) = (   0.0000000   1.5725862  12.3129436  )
         7           Au  tau(   7) = (  -1.3984577   4.0598061  12.3129436  )
         8           Au  tau(   8) = (   1.3984577   4.0598061  12.3129436  )
         9           Os  tau(   9) = (   0.0001243   1.1993643  14.5833113  )
        10           Os  tau(  10) = (   2.7967905   1.1993081  14.5835936  )
        11           Au  tau(  11) = (   1.3984615   3.6595183  15.0829206  )
        12           Au  tau(  12) = (  -1.3984545   3.6592943  15.0829169  )

     number of k points=    74  Fermi-Dirac smearing, width (Ry)=  0.0100
                       cart. coord. in units 2pi/alat
        k(    1) = (   0.0000000   0.0000000   0.0000000), wk =   0.0138889
        k(    2) = (   0.0000000   0.0167523   0.0000000), wk =   0.0277778
        k(    3) = (   0.0000000   0.0335046   0.0000000), wk =   0.0277778
        k(    4) = (   0.0000000   0.0502569   0.0000000), wk =   0.0277778
        k(    5) = (   0.0000000   0.0670092   0.0000000), wk =   0.0277778
        k(    6) = (   0.0000000   0.0837615   0.0000000), wk =   0.0277778
        k(    7) = (   0.0000000  -0.1005138   0.0000000), wk =   0.0138889
        k(    8) = (   0.0148974   0.0083762   0.0000000), wk =   0.0277778
        k(    9) = (   0.0148974   0.0251285   0.0000000), wk =   0.0277778
        k(   10) = (   0.0148974   0.0418808   0.0000000), wk =   0.0277778
        k(   11) = (   0.0148974   0.0586331   0.0000000), wk =   0.0277778
        k(   12) = (   0.0148974   0.0753854   0.0000000), wk =   0.0277778
        k(   13) = (   0.0148974   0.0921377   0.0000000), wk =   0.0277778
        k(   14) = (   0.0148974  -0.0921377   0.0000000), wk =   0.0277778
        k(   15) = (   0.0148974  -0.0753854   0.0000000), wk =   0.0277778
        k(   16) = (   0.0148974  -0.0586331   0.0000000), wk =   0.0277778
        k(   17) = (   0.0148974  -0.0418808   0.0000000), wk =   0.0277778
        k(   18) = (   0.0148974  -0.0251285   0.0000000), wk =   0.0277778
        k(   19) = (   0.0148974  -0.0083762   0.0000000), wk =   0.0277778
        k(   20) = (   0.0297947   0.0167523   0.0000000), wk =   0.0277778
        k(   21) = (   0.0297947   0.0335046   0.0000000), wk =   0.0277778
        k(   22) = (   0.0297947   0.0502569   0.0000000), wk =   0.0277778
        k(   23) = (   0.0297947   0.0670092   0.0000000), wk =   0.0277778
        k(   24) = (   0.0297947   0.0837615   0.0000000), wk =   0.0277778
        k(   25) = (   0.0297947   0.1005138   0.0000000), wk =   0.0277778
        k(   26) = (   0.0297947  -0.0837615   0.0000000), wk =   0.0277778
        k(   27) = (   0.0297947  -0.0670092   0.0000000), wk =   0.0277778
        k(   28) = (   0.0297947  -0.0502569   0.0000000), wk =   0.0277778
        k(   29) = (   0.0297947  -0.0335046   0.0000000), wk =   0.0277778
        k(   30) = (   0.0297947  -0.0167523   0.0000000), wk =   0.0277778
        k(   31) = (   0.0297947  -0.0000000   0.0000000), wk =   0.0277778
        k(   32) = (   0.0446921   0.0251285   0.0000000), wk =   0.0277778
        k(   33) = (   0.0446921   0.0418808   0.0000000), wk =   0.0277778
        k(   34) = (   0.0446921   0.0586331   0.0000000), wk =   0.0277778
        k(   35) = (   0.0446921   0.0753854   0.0000000), wk =   0.0277778
        k(   36) = (   0.0446921   0.0921377   0.0000000), wk =   0.0277778
        k(   37) = (   0.0446921   0.1088900   0.0000000), wk =   0.0277778
        k(   38) = (   0.0446921  -0.0753854   0.0000000), wk =   0.0277778
        k(   39) = (   0.0446921  -0.0586331   0.0000000), wk =   0.0277778
        k(   40) = (   0.0446921  -0.0418808   0.0000000), wk =   0.0277778
        k(   41) = (   0.0446921  -0.0251285   0.0000000), wk =   0.0277778
        k(   42) = (   0.0446921  -0.0083762   0.0000000), wk =   0.0277778
        k(   43) = (   0.0446921   0.0083761   0.0000000), wk =   0.0277778
        k(   44) = (   0.0595895   0.0335046   0.0000000), wk =   0.0277778
        k(   45) = (   0.0595895   0.0502569   0.0000000), wk =   0.0277778
        k(   46) = (   0.0595895   0.0670092   0.0000000), wk =   0.0277778
        k(   47) = (   0.0595895   0.0837615   0.0000000), wk =   0.0277778
        k(   48) = (   0.0595895   0.1005138   0.0000000), wk =   0.0277778
        k(   49) = (   0.0595895   0.1172661   0.0000000), wk =   0.0277778
        k(   50) = (   0.0595895  -0.0670092   0.0000000), wk =   0.0277778
        k(   51) = (   0.0595895  -0.0502569   0.0000000), wk =   0.0277778
        k(   52) = (   0.0595895  -0.0335046   0.0000000), wk =   0.0277778
        k(   53) = (   0.0595895  -0.0167523   0.0000000), wk =   0.0277778
        k(   54) = (   0.0595895  -0.0000000   0.0000000), wk =   0.0277778
        k(   55) = (   0.0595895   0.0167523   0.0000000), wk =   0.0277778
        k(   56) = (   0.0744868   0.0418808   0.0000000), wk =   0.0277778
        k(   57) = (   0.0744868   0.0586331   0.0000000), wk =   0.0277778
        k(   58) = (   0.0744868   0.0753854   0.0000000), wk =   0.0277778
        k(   59) = (   0.0744868   0.0921377   0.0000000), wk =   0.0277778
        k(   60) = (   0.0744868   0.1088900   0.0000000), wk =   0.0277778
        k(   61) = (   0.0744868   0.1256423   0.0000000), wk =   0.0277778
        k(   62) = (   0.0744868  -0.0586331   0.0000000), wk =   0.0277778
        k(   63) = (   0.0744868  -0.0418808   0.0000000), wk =   0.0277778
        k(   64) = (   0.0744868  -0.0251285   0.0000000), wk =   0.0277778
        k(   65) = (   0.0744868  -0.0083762   0.0000000), wk =   0.0277778
        k(   66) = (   0.0744868   0.0083761   0.0000000), wk =   0.0277778
        k(   67) = (   0.0744868   0.0251284   0.0000000), wk =   0.0277778
        k(   68) = (  -0.0893842  -0.0502569   0.0000000), wk =   0.0138889
        k(   69) = (  -0.0893842  -0.0335046   0.0000000), wk =   0.0277778
        k(   70) = (  -0.0893842  -0.0167523   0.0000000), wk =   0.0277778
        k(   71) = (  -0.0893842   0.0000000   0.0000000), wk =   0.0277778
        k(   72) = (  -0.0893842   0.0167523   0.0000000), wk =   0.0277778
        k(   73) = (  -0.0893842   0.0335046   0.0000000), wk =   0.0277778
        k(   74) = (  -0.0893842  -0.1507707   0.0000000), wk =   0.0138889

     Dense  grid:  1010631 G-vectors     FFT dimensions: (  80,  81, 360)

     Smooth grid:   255739 G-vectors     FFT dimensions: (  50,  54, 225)

     Estimated max dynamical RAM per process >     205.02 MB

     Estimated total dynamical RAM >       7.41 GB

     Initial potential from superposition of free atoms

     starting charge  161.99788, renormalised to  162.00000

     negative rho (up, down):  9.370E-04 0.000E+00


     %%%%%%%%%%%%%%%%%%%%%%%%%%%%%%%%%%%%%%%%%%%%%%%%%%%%%%%%%%%%%%%%%%%%%%%%
     %                                                                      %
     % You are using vdW-DF, which was implemented by the Thonhauser group. %
     % Please cite the following two papers that made this development      %
     % possible and the two reviews that describe the various versions:     %
     %                                                                      %
     %   T. Thonhauser et al., PRL 115, 136402 (2015).                      %
     %   T. Thonhauser et al., PRB 76, 125112 (2007).                       %
     %   K. Berland et al., Rep. Prog. Phys. 78, 066501 (2015).             %
     %   D.C. Langreth et al., J. Phys.: Condens. Matter 21, 084203 (2009). %
     %                                                                      %
     %                                                                      %
     % If you are calculating the stress with vdW-DF, please also cite:     %
     %                                                                      %
     %   R. Sabatini et al., J. Phys.: Condens. Matter 24, 424209 (2012).   %
     %                                                                      %
     %%%%%%%%%%%%%%%%%%%%%%%%%%%%%%%%%%%%%%%%%%%%%%%%%%%%%%%%%%%%%%%%%%%%%%%%



     Adding external electric field

     Computed dipole along edir(3) : 
        Dipole               -0.0001 Ry au,         -0.0002 Debye
        Dipole field         -0.0000 Ry au, 

        Potential amp.        0.0000 Ry
        Total length         45.3728 bohr

     Starting wfcs are  114 randomized atomic wfcs

     total cpu time spent up to now is       98.2 secs

     Self-consistent Calculation

     iteration #  1     ecut=    55.12 Ry     beta= 0.10
     Davidson diagonalization with overlap
     ethr =  1.00E-02,  avg # of iterations =  3.8

     negative rho (up, down):  7.831E-04 0.000E+00

     Adding external electric field

     Computed dipole along edir(3) : 
        Dipole                0.4595 Ry au,          1.1680 Debye
        Dipole field          0.0012 Ry au, 

        Potential amp.       -0.1133 Ry
        Total length         45.3728 bohr


     total cpu time spent up to now is      331.9 secs

     total energy              =   -1721.72397868 Ry
     estimated scf accuracy    <       3.66639527 Ry

     iteration #  2     ecut=    55.12 Ry     beta= 0.10
     Davidson diagonalization with overlap
     ethr =  2.26E-03,  avg # of iterations =  2.0

     negative rho (up, down):  7.647E-04 0.000E+00

     Adding external electric field

     Computed dipole along edir(3) : 
        Dipole               -0.3429 Ry au,         -0.8716 Debye
        Dipole field         -0.0009 Ry au, 

        Potential amp.        0.0846 Ry
        Total length         45.3728 bohr


     total cpu time spent up to now is      547.6 secs

     total energy              =   -1721.72140221 Ry
     estimated scf accuracy    <       6.45625563 Ry

     iteration #  3     ecut=    55.12 Ry     beta= 0.10
     Davidson diagonalization with overlap
     ethr =  2.26E-03,  avg # of iterations =  1.4

     negative rho (up, down):  7.329E-04 0.000E+00

     Adding external electric field

     Computed dipole along edir(3) : 
        Dipole                0.1118 Ry au,          0.2841 Debye
        Dipole field          0.0003 Ry au, 

        Potential amp.       -0.0276 Ry
        Total length         45.3728 bohr


     total cpu time spent up to now is      740.9 secs

     total energy              =   -1721.87568847 Ry
     estimated scf accuracy    <      12.09289336 Ry

     iteration #  4     ecut=    55.12 Ry     beta= 0.10
     Davidson diagonalization with overlap
     ethr =  2.26E-03,  avg # of iterations =  1.0

     negative rho (up, down):  7.311E-04 0.000E+00

     Adding external electric field

     Computed dipole along edir(3) : 
        Dipole                0.1070 Ry au,          0.2720 Debye
        Dipole field          0.0003 Ry au, 

        Potential amp.       -0.0264 Ry
        Total length         45.3728 bohr


     total cpu time spent up to now is      919.4 secs

     total energy              =   -1722.06156643 Ry
     estimated scf accuracy    <       0.18966207 Ry

     iteration #  5     ecut=    55.12 Ry     beta= 0.10
     Davidson diagonalization with overlap
     c_bands:  1 eigenvalues not converged
     ethr =  1.17E-04,  avg # of iterations =  8.4

     negative rho (up, down):  7.607E-04 0.000E+00

     Adding external electric field

     Computed dipole along edir(3) : 
        Dipole                0.0888 Ry au,          0.2257 Debye
        Dipole field          0.0002 Ry au, 

        Potential amp.       -0.0219 Ry
        Total length         45.3728 bohr


     total cpu time spent up to now is     1156.0 secs

     total energy              =   -1722.05384949 Ry
     estimated scf accuracy    <       0.10383932 Ry

     iteration #  6     ecut=    55.12 Ry     beta= 0.10
     Davidson diagonalization with overlap
     ethr =  6.41E-05,  avg # of iterations =  2.3

     negative rho (up, down):  8.146E-04 0.000E+00

     Adding external electric field

     Computed dipole along edir(3) : 
        Dipole                0.0594 Ry au,          0.1509 Debye
        Dipole field          0.0002 Ry au, 

        Potential amp.       -0.0146 Ry
        Total length         45.3728 bohr


     total cpu time spent up to now is     1386.5 secs

     total energy              =   -1722.05821047 Ry
     estimated scf accuracy    <       0.09381295 Ry

     iteration #  7     ecut=    55.12 Ry     beta= 0.10
     Davidson diagonalization with overlap
     ethr =  5.79E-05,  avg # of iterations =  1.4

     negative rho (up, down):  8.474E-04 0.000E+00

     Adding external electric field

     Computed dipole along edir(3) : 
        Dipole                0.0780 Ry au,          0.1983 Debye
        Dipole field          0.0002 Ry au, 

        Potential amp.       -0.0192 Ry
        Total length         45.3728 bohr


     total cpu time spent up to now is     1575.3 secs

     total energy              =   -1722.06319612 Ry
     estimated scf accuracy    <       0.01356872 Ry

     iteration #  8     ecut=    55.12 Ry     beta= 0.10
     Davidson diagonalization with overlap
     ethr =  8.38E-06,  avg # of iterations =  7.3

     negative rho (up, down):  8.944E-04 0.000E+00

     Adding external electric field

     Computed dipole along edir(3) : 
        Dipole                0.0912 Ry au,          0.2319 Debye
        Dipole field          0.0002 Ry au, 

        Potential amp.       -0.0225 Ry
        Total length         45.3728 bohr


     total cpu time spent up to now is     1850.5 secs

     total energy              =   -1722.06476707 Ry
     estimated scf accuracy    <       0.00965994 Ry

     iteration #  9     ecut=    55.12 Ry     beta= 0.10
     Davidson diagonalization with overlap
     ethr =  5.96E-06,  avg # of iterations =  1.3

     negative rho (up, down):  9.490E-04 0.000E+00

     Adding external electric field

     Computed dipole along edir(3) : 
        Dipole                0.0866 Ry au,          0.2201 Debye
        Dipole field          0.0002 Ry au, 

        Potential amp.       -0.0214 Ry
        Total length         45.3728 bohr


     total cpu time spent up to now is     2039.5 secs

     total energy              =   -1722.06504076 Ry
     estimated scf accuracy    <       0.00200010 Ry

     iteration # 10     ecut=    55.12 Ry     beta= 0.10
     Davidson diagonalization with overlap
     ethr =  1.23E-06,  avg # of iterations =  4.4

     negative rho (up, down):  9.402E-04 0.000E+00

     Adding external electric field

     Computed dipole along edir(3) : 
        Dipole                0.0875 Ry au,          0.2223 Debye
        Dipole field          0.0002 Ry au, 

        Potential amp.       -0.0216 Ry
        Total length         45.3728 bohr


     total cpu time spent up to now is     2278.3 secs

     total energy              =   -1722.06525625 Ry
     estimated scf accuracy    <       0.00039854 Ry

     iteration # 11     ecut=    55.12 Ry     beta= 0.10
     Davidson diagonalization with overlap
     ethr =  2.46E-07,  avg # of iterations =  4.4

     negative rho (up, down):  9.216E-04 0.000E+00

     Adding external electric field

     Computed dipole along edir(3) : 
        Dipole                0.0893 Ry au,          0.2269 Debye
        Dipole field          0.0002 Ry au, 

        Potential amp.       -0.0220 Ry
        Total length         45.3728 bohr


     total cpu time spent up to now is     2546.0 secs

     total energy              =   -1722.06533257 Ry
     estimated scf accuracy    <       0.00011267 Ry

     iteration # 12     ecut=    55.12 Ry     beta= 0.10
     Davidson diagonalization with overlap
     ethr =  6.96E-08,  avg # of iterations =  2.4

     negative rho (up, down):  9.040E-04 0.000E+00

     Adding external electric field

     Computed dipole along edir(3) : 
        Dipole                0.0890 Ry au,          0.2263 Debye
        Dipole field          0.0002 Ry au, 

        Potential amp.       -0.0220 Ry
        Total length         45.3728 bohr


     total cpu time spent up to now is     2773.8 secs

     total energy              =   -1722.06534321 Ry
     estimated scf accuracy    <       0.00005798 Ry

     iteration # 13     ecut=    55.12 Ry     beta= 0.10
     Davidson diagonalization with overlap
     ethr =  3.58E-08,  avg # of iterations =  2.1

     negative rho (up, down):  8.903E-04 0.000E+00

     Adding external electric field

     Computed dipole along edir(3) : 
        Dipole                0.0865 Ry au,          0.2199 Debye
        Dipole field          0.0002 Ry au, 

        Potential amp.       -0.0213 Ry
        Total length         45.3728 bohr


     total cpu time spent up to now is     3001.0 secs

     total energy              =   -1722.06534290 Ry
     estimated scf accuracy    <       0.00004191 Ry

     iteration # 14     ecut=    55.12 Ry     beta= 0.10
     Davidson diagonalization with overlap
     ethr =  2.59E-08,  avg # of iterations =  2.0

     negative rho (up, down):  8.774E-04 0.000E+00

     Adding external electric field

     Computed dipole along edir(3) : 
        Dipole                0.0873 Ry au,          0.2218 Debye
        Dipole field          0.0002 Ry au, 

        Potential amp.       -0.0215 Ry
        Total length         45.3728 bohr


     total cpu time spent up to now is     3236.3 secs

     total energy              =   -1722.06534976 Ry
     estimated scf accuracy    <       0.00001518 Ry

     iteration # 15     ecut=    55.12 Ry     beta= 0.10
     Davidson diagonalization with overlap
     ethr =  9.37E-09,  avg # of iterations =  3.0

     negative rho (up, down):  8.072E-04 0.000E+00

     Adding external electric field

     Computed dipole along edir(3) : 
        Dipole                0.0844 Ry au,          0.2145 Debye
        Dipole field          0.0002 Ry au, 

        Potential amp.       -0.0208 Ry
        Total length         45.3728 bohr


     total cpu time spent up to now is     3498.1 secs

     End of self-consistent calculation

          k = 0.0000 0.0000 0.0000 ( 31995 PWs)   bands (ev):

   -85.2054 -85.1853 -84.8632 -84.8433 -84.5182 -84.4978 -45.1608 -45.1182
   -44.5013 -44.4331 -44.3946 -44.2196 -44.1123 -44.0655 -44.0545 -44.0285
   -43.9173 -43.8848 -43.8424 -43.7574 -43.7222 -43.7193 -43.6851 -43.6688
    -7.2254  -5.6316  -5.1017  -5.0858  -4.9458  -4.8343  -4.7684  -4.7614
    -4.4710  -4.4387  -4.4009  -4.2356  -3.9521  -3.9276  -3.4744  -3.4199
    -3.4180  -3.2089  -3.2083  -2.7280  -2.5477  -2.5124  -2.3858  -2.3347
    -2.1634  -2.1225  -1.9754  -1.9606  -1.9298  -1.6102  -1.6066  -1.5773
    -1.4113  -1.2946  -1.2706  -1.1539  -1.1472  -0.8378  -0.7316  -0.5717
    -0.5204   0.1799   0.2900   0.3491   0.4070   0.4882   0.6813   0.9286
     1.0209   1.0710   1.2696   1.6575   1.8046   2.0201   2.0324   2.0673
     2.1504   2.3549   2.4039   2.5663   2.5731   2.5961   2.6108   2.7789
     2.8305   3.1791   3.7646   3.8411   3.9405   4.5767   5.1167   5.5516
     5.5754

          k = 0.0000 0.0168 0.0000 ( 32015 PWs)   bands (ev):

   -85.2054 -85.1853 -84.8632 -84.8433 -84.5182 -84.4977 -45.1608 -45.1182
   -44.5013 -44.4332 -44.3947 -44.2197 -44.1123 -44.0656 -44.0546 -44.0285
   -43.9174 -43.8848 -43.8424 -43.7575 -43.7223 -43.7194 -43.6851 -43.6688
    -7.1689  -5.5806  -5.0624  -5.0578  -4.9285  -4.8024  -4.7462  -4.7190
    -4.4329  -4.4196  -4.3859  -4.2090  -3.9348  -3.8999  -3.4734  -3.4098
    -3.4049  -3.2048  -3.1544  -2.7182  -2.5701  -2.5226  -2.3616  -2.3385
    -2.1589  -2.1490  -2.0205  -1.9490  -1.9344  -1.6481  -1.6415  -1.5592
    -1.4101  -1.2730  -1.2653  -1.1783  -1.1745  -0.8390  -0.7654  -0.6021
    -0.5564   0.1261   0.2746   0.2868   0.3034   0.4250   0.5730   0.8620
     0.9267   1.0693   1.2137   1.6019   1.6763   1.7260   1.9652   1.9687
     2.1547   2.3374   2.3449   2.4194   2.4869   2.5662   2.6646   2.7265
     3.0702   3.1857   3.5223   3.9323   3.9478   4.6929   5.1536   5.5848
     5.6465

          k = 0.0000 0.0335 0.0000 ( 31974 PWs)   bands (ev):

   -85.2054 -85.1853 -84.8632 -84.8433 -84.5182 -84.4977 -45.1608 -45.1182
   -44.5015 -44.4336 -44.3948 -44.2198 -44.1123 -44.0658 -44.0547 -44.0286
   -43.9174 -43.8848 -43.8424 -43.7578 -43.7222 -43.7196 -43.6851 -43.6688
    -7.0026  -5.4358  -5.0082  -4.9494  -4.8539  -4.7130  -4.6804  -4.5970
    -4.3609  -4.3445  -4.3237  -4.1302  -3.8822  -3.8222  -3.4684  -3.3680
    -3.3639  -3.1936  -3.0135  -2.7003  -2.6396  -2.5519  -2.3483  -2.2932
    -2.2569  -2.1410  -2.1117  -1.9523  -1.9131  -1.7297  -1.7296  -1.5084
    -1.4284  -1.2796  -1.2544  -1.2398  -1.2159  -0.8496  -0.8426  -0.6846
    -0.6739  -0.0571  -0.0247   0.0496   0.2779   0.2847   0.3286   0.7126
     0.7249   0.9399   1.1106   1.2020   1.2259   1.4924   1.6162   1.8278
     2.0147   2.1772   2.3036   2.3637   2.4909   2.5215   2.5938   2.6439
     3.1513   3.1993   3.5344   3.9042   4.2386   4.7361   5.0154   5.7053
     5.8188

          k = 0.0000 0.0503 0.0000 ( 31962 PWs)   bands (ev):

   -85.2054 -85.1853 -84.8632 -84.8433 -84.5182 -84.4977 -45.1608 -45.1183
   -44.5017 -44.4341 -44.3951 -44.2199 -44.1124 -44.0661 -44.0549 -44.0287
   -43.9175 -43.8848 -43.8425 -43.7583 -43.7222 -43.7198 -43.6851 -43.6688
    -6.7367  -5.2370  -4.9789  -4.7812  -4.7098  -4.5824  -4.5716  -4.4133
    -4.2887  -4.2624  -4.1620  -4.0001  -3.7950  -3.7093  -3.4504  -3.3102
    -3.2795  -3.1745  -2.8331  -2.7483  -2.7114  -2.5971  -2.3812  -2.3436
    -2.2967  -2.1942  -2.0656  -1.9914  -1.8670  -1.8530  -1.8196  -1.5165
    -1.4362  -1.3778  -1.3090  -1.2875  -1.1857  -0.9638  -0.8852  -0.8486
    -0.7863  -0.4942  -0.3568  -0.2415   0.0041   0.1904   0.2656   0.4085
     0.4925   0.5651   0.6901   0.6983   1.1018   1.1954   1.3070   1.6318
     1.8904   2.0387   2.2050   2.3124   2.3711   2.4735   2.5559   2.6114
     3.2122   3.3376   3.8088   3.8179   4.2675   4.6226   5.3769   5.6802
     6.0309

          k = 0.0000 0.0670 0.0000 ( 31966 PWs)   bands (ev):

   -85.2054 -85.1853 -84.8632 -84.8432 -84.5182 -84.4977 -45.1609 -45.1183
   -44.5019 -44.4347 -44.3953 -44.2200 -44.1124 -44.0664 -44.0551 -44.0289
   -43.9175 -43.8848 -43.8425 -43.7587 -43.7222 -43.7200 -43.6850 -43.6689
    -6.3915  -5.1609  -4.8667  -4.6054  -4.5502  -4.4287  -4.4211  -4.2353
    -4.2011  -4.1400  -3.9993  -3.8038  -3.6937  -3.5807  -3.3978  -3.2655
    -3.1882  -3.1493  -2.8740  -2.7757  -2.6561  -2.6506  -2.5210  -2.3995
    -2.2661  -2.0906  -2.0488  -2.0482  -2.0206  -1.9410  -1.7815  -1.7147
    -1.5140  -1.3635  -1.3602  -1.2885  -1.2285  -1.1395  -1.1187  -0.9462
    -0.8569  -0.8298  -0.6821  -0.4721  -0.2690  -0.0318  -0.0188   0.1399
     0.2530   0.2868   0.2982   0.3333   0.9055   1.0740   1.0930   1.4293
     1.8925   1.9461   2.0646   2.2115   2.3045   2.4320   2.5380   2.5858
     3.2220   3.6027   3.7425   3.9290   4.1655   4.9710   5.5944   5.6340
     6.2349

          k = 0.0000 0.0838 0.0000 ( 32010 PWs)   bands (ev):

   -85.2054 -85.1853 -84.8632 -84.8433 -84.5181 -84.4977 -45.1609 -45.1183
   -44.5021 -44.4350 -44.3955 -44.2201 -44.1125 -44.0666 -44.0553 -44.0290
   -43.9176 -43.8848 -43.8425 -43.7590 -43.7222 -43.7203 -43.6850 -43.6689
    -6.0042  -5.3093  -4.6876  -4.4890  -4.4215  -4.3018  -4.2408  -4.1898
    -4.0447  -4.0078  -3.8926  -3.6253  -3.5571  -3.4600  -3.3326  -3.2504
    -3.2397  -3.1069  -2.8612  -2.7819  -2.7227  -2.6242  -2.5396  -2.4744
    -2.2235  -2.2037  -2.1006  -2.0265  -2.0131  -1.9921  -1.9706  -1.7239
    -1.6181  -1.4359  -1.3935  -1.3270  -1.3085  -1.2649  -1.2564  -1.2322
    -0.9154  -0.8655  -0.8123  -0.6226  -0.4865  -0.3229  -0.2849  -0.1938
     0.0057   0.1292   0.2217   0.2433   0.7333   0.9363   1.0827   1.2755
     1.8925   1.9256   1.9432   2.0956   2.3079   2.4157   2.5286   2.5705
     3.2280   3.5677   3.6965   3.9833   4.5888   5.1791   5.5361   5.7708
     5.8169

          k = 0.0000-0.1005 0.0000 ( 32046 PWs)   bands (ev):

   -85.2054 -85.1853 -84.8632 -84.8433 -84.5181 -84.4977 -45.1609 -45.1183
   -44.5021 -44.4352 -44.3955 -44.2202 -44.1125 -44.0667 -44.0553 -44.0290
   -43.9176 -43.8848 -43.8425 -43.7591 -43.7222 -43.7203 -43.6850 -43.6689
    -5.6944  -5.5354  -4.6143  -4.4507  -4.3795  -4.2370  -4.1743  -4.1417
    -4.0231  -3.9192  -3.8512  -3.6004  -3.4345  -3.3983  -3.3298  -3.2862
    -3.2575  -3.0605  -2.8668  -2.7581  -2.7083  -2.6496  -2.5150  -2.4444
    -2.3166  -2.2950  -2.2079  -2.1232  -2.0107  -1.9431  -1.9060  -1.7022
    -1.6605  -1.5005  -1.4238  -1.3707  -1.3664  -1.3449  -1.3213  -1.2460
    -0.9681  -0.8696  -0.7818  -0.7017  -0.5954  -0.3949  -0.3692  -0.3196
    -0.1137   0.0519   0.2090   0.2396   0.6777   0.8916   1.0781   1.2176
     1.8748   1.8957   1.9401   2.0539   2.3100   2.4109   2.5256   2.5655
     3.2300   3.5369   3.6813   3.9996   4.9939   5.2449   5.4017   5.5166
     5.8131

          k = 0.0149 0.0084 0.0000 ( 31992 PWs)   bands (ev):

   -85.2050 -85.1856 -84.8629 -84.8436 -84.5178 -84.4981 -45.1601 -45.1190
   -44.4948 -44.4325 -44.3953 -44.2134 -44.1191 -44.0649 -44.0481 -44.0292
   -43.9168 -43.8854 -43.8490 -43.7568 -43.7216 -43.7200 -43.6857 -43.6755
    -7.1658  -5.5723  -5.0749  -5.0314  -4.9016  -4.8130  -4.7303  -4.7267
    -4.4487  -4.4091  -4.3795  -4.2198  -3.9063  -3.8970  -3.4603  -3.4034
    -3.3975  -3.1987  -3.1904  -2.7278  -2.5602  -2.4935  -2.4148  -2.3464
    -2.2221  -2.1182  -2.0093  -1.9539  -1.9348  -1.6240  -1.6125  -1.5829
    -1.3877  -1.3302  -1.3003  -1.1225  -1.1051  -0.8707  -0.7318  -0.5841
    -0.5605   0.0115   0.1831   0.3218   0.3298   0.4092   0.5688   0.9292
     0.9942   1.0353   1.2280   1.5260   1.6283   1.8542   1.9316   2.0852
     2.1569   2.3266   2.3755   2.4076   2.5412   2.6017   2.6099   2.8361
     2.8957   3.1757   3.5270   3.8701   3.9578   4.4096   5.2580   5.3009
     5.7203

          k = 0.0149 0.0251 0.0000 ( 31980 PWs)   bands (ev):

   -85.2050 -85.1856 -84.8629 -84.8436 -84.5178 -84.4981 -45.1601 -45.1190
   -44.4949 -44.4327 -44.3954 -44.2134 -44.1191 -44.0650 -44.0482 -44.0292
   -43.9168 -43.8854 -43.8490 -43.7570 -43.7216 -43.7201 -43.6857 -43.6755
    -7.0542  -5.4726  -5.0046  -4.9834  -4.8631  -4.7533  -4.6818  -4.6428
    -4.3911  -4.3539  -4.3507  -4.1685  -3.8731  -3.8433  -3.4591  -3.3848
    -3.3673  -3.1921  -3.0877  -2.7121  -2.6050  -2.5144  -2.3835  -2.3562
    -2.2367  -2.1504  -2.0469  -1.9622  -1.9424  -1.6988  -1.6630  -1.5684
    -1.3889  -1.3038  -1.2897  -1.1566  -1.1557  -0.8825  -0.7862  -0.6366
    -0.6308  -0.1235   0.1155   0.1280   0.2330   0.3206   0.4212   0.8130
     0.8177   0.9613   1.1164   1.2908   1.4614   1.5083   1.7681   1.8259
     2.2070   2.2076   2.2879   2.3120   2.4641   2.5417   2.6496   2.7703
     3.1599   3.2670   3.4848   3.6299   4.0812   4.7266   5.1017   5.2626
     5.8624

          k = 0.0149 0.0419 0.0000 ( 31985 PWs)   bands (ev):

   -85.2050 -85.1856 -84.8629 -84.8436 -84.5178 -84.4981 -45.1601 -45.1190
   -44.4951 -44.4332 -44.3956 -44.2135 -44.1192 -44.0653 -44.0484 -44.0293
   -43.9169 -43.8854 -43.8490 -43.7574 -43.7216 -43.7203 -43.6857 -43.6756
    -6.8374  -5.2919  -4.9457  -4.8712  -4.7521  -4.6440  -4.5930  -4.4830
    -4.3055  -4.2997  -4.2253  -4.0667  -3.8070  -3.7462  -3.4517  -3.3302
    -3.3095  -3.1777  -2.9212  -2.7051  -2.6965  -2.5531  -2.3748  -2.3677
    -2.3056  -2.1685  -2.1085  -1.9672  -1.9227  -1.7857  -1.7714  -1.5293
    -1.4209  -1.3264  -1.2887  -1.2477  -1.1785  -0.9197  -0.8585  -0.7880
    -0.7186  -0.4249  -0.2102  -0.0977   0.1007   0.1825   0.2347   0.5720
     0.5922   0.7210   0.8253   0.8970   1.1377   1.3035   1.4596   1.6534
     2.0645   2.0751   2.2186   2.2323   2.4077   2.4531   2.6247   2.7434
     3.1828   3.3103   3.4447   3.8087   4.4944   4.5655   4.9840   5.4641
     6.0392

          k = 0.0149 0.0586 0.0000 ( 31967 PWs)   bands (ev):

   -85.2050 -85.1856 -84.8629 -84.8436 -84.5178 -84.4981 -45.1601 -45.1190
   -44.4953 -44.4337 -44.3958 -44.2137 -44.1192 -44.0656 -44.0486 -44.0294
   -43.9169 -43.8854 -43.8491 -43.7578 -43.7216 -43.7206 -43.6857 -43.6756
    -6.5298  -5.1174  -4.9009  -4.6981  -4.5956  -4.5020  -4.4631  -4.2830
    -4.2407  -4.1868  -4.0665  -3.9072  -3.7172  -3.6226  -3.4225  -3.2704
    -3.2211  -3.1560  -2.8353  -2.7489  -2.7230  -2.6053  -2.4616  -2.4001
    -2.3447  -2.1573  -2.0908  -2.0145  -1.9268  -1.8808  -1.8639  -1.5677
    -1.4638  -1.4090  -1.3342  -1.3166  -1.1864  -1.0298  -1.0128  -0.9051
    -0.8336  -0.7764  -0.5394  -0.3425  -0.1917   0.0700   0.1010   0.2497
     0.2564   0.3520   0.4641   0.5470   1.0235   1.0608   1.2345   1.4932
     1.9385   1.9719   2.1258   2.1996   2.3098   2.4042   2.5968   2.6015
     3.1908   3.4723   3.6131   3.8908   4.2000   4.9152   5.0624   5.8263
     6.2986

          k = 0.0149 0.0754 0.0000 ( 31990 PWs)   bands (ev):

   -85.2050 -85.1856 -84.8629 -84.8436 -84.5178 -84.4981 -45.1601 -45.1190
   -44.4955 -44.4342 -44.3960 -44.2138 -44.1192 -44.0659 -44.0488 -44.0295
   -43.9170 -43.8854 -43.8491 -43.7582 -43.7216 -43.7208 -43.6857 -43.6756
    -6.1582  -5.1683  -4.7244  -4.5421  -4.4472  -4.3344  -4.3212  -4.1858
    -4.0988  -4.0504  -3.9366  -3.6869  -3.6438  -3.4903  -3.3584  -3.2405
    -3.2035  -3.1238  -2.8717  -2.8011  -2.6712  -2.6052  -2.5917  -2.4568
    -2.2542  -2.1910  -2.0782  -2.0690  -2.0411  -1.9789  -1.8385  -1.7955
    -1.5315  -1.4170  -1.3787  -1.3474  -1.3427  -1.1892  -1.1652  -1.1382
    -0.9118  -0.8286  -0.7827  -0.5019  -0.4285  -0.2297  -0.1640  -0.0639
     0.0745   0.0867   0.3106   0.3303   0.8197   0.9643   1.1382   1.3260
     1.9039   1.9117   2.0075   2.1464   2.2011   2.3839   2.5749   2.5756
     3.1904   3.4709   3.6677   3.9328   4.4065   4.9706   5.2626   6.0238
     6.1249

          k = 0.0149 0.0921 0.0000 ( 32008 PWs)   bands (ev):

   -85.2050 -85.1856 -84.8629 -84.8436 -84.5178 -84.4981 -45.1601 -45.1190
   -44.4956 -44.4344 -44.3962 -44.2139 -44.1193 -44.0660 -44.0489 -44.0296
   -43.9170 -43.8854 -43.8491 -43.7584 -43.7216 -43.7209 -43.6857 -43.6756
    -5.7740  -5.3916  -4.5844  -4.4596  -4.3579  -4.2190  -4.1773  -4.1463
    -4.0307  -3.9272  -3.8466  -3.6096  -3.5060  -3.3826  -3.3393  -3.2934
    -3.2289  -3.0619  -2.8557  -2.7381  -2.7268  -2.6379  -2.5291  -2.4966
    -2.3035  -2.2919  -2.1818  -2.1423  -2.0485  -2.0049  -1.9129  -1.7928
    -1.5916  -1.4964  -1.4424  -1.4155  -1.3482  -1.3455  -1.2955  -1.2057
    -0.9603  -0.9140  -0.7600  -0.5880  -0.5812  -0.4389  -0.3191  -0.2616
    -0.0561  -0.0414   0.2582   0.2659   0.7226   0.8941   1.1117   1.2139
     1.8701   1.8793   1.9635   2.0510   2.2046   2.3669   2.5648   2.5793
     3.1889   3.4663   3.5970   3.9529   4.9066   4.9702   5.3536   5.6102
     6.0859

          k = 0.0149-0.0921 0.0000 ( 32008 PWs)   bands (ev):

   -85.2050 -85.1856 -84.8629 -84.8436 -84.5178 -84.4981 -45.1601 -45.1190
   -44.4956 -44.4344 -44.3962 -44.2139 -44.1193 -44.0660 -44.0489 -44.0296
   -43.9170 -43.8854 -43.8491 -43.7584 -43.7216 -43.7209 -43.6857 -43.6756
    -5.7740  -5.3916  -4.5844  -4.4596  -4.3579  -4.2190  -4.1773  -4.1463
    -4.0307  -3.9272  -3.8466  -3.6096  -3.5060  -3.3826  -3.3393  -3.2934
    -3.2289  -3.0619  -2.8557  -2.7381  -2.7268  -2.6379  -2.5291  -2.4966
    -2.3035  -2.2919  -2.1818  -2.1423  -2.0485  -2.0049  -1.9129  -1.7928
    -1.5916  -1.4964  -1.4424  -1.4155  -1.3482  -1.3455  -1.2955  -1.2057
    -0.9603  -0.9140  -0.7600  -0.5880  -0.5812  -0.4389  -0.3191  -0.2616
    -0.0561  -0.0414   0.2582   0.2659   0.7226   0.8941   1.1117   1.2139
     1.8701   1.8793   1.9635   2.0510   2.2046   2.3669   2.5648   2.5793
     3.1889   3.4663   3.5970   3.9529   4.9066   4.9702   5.3536   5.6102
     6.0859

          k = 0.0149-0.0754 0.0000 ( 31990 PWs)   bands (ev):

   -85.2050 -85.1856 -84.8629 -84.8436 -84.5178 -84.4981 -45.1601 -45.1190
   -44.4955 -44.4342 -44.3960 -44.2138 -44.1192 -44.0659 -44.0488 -44.0295
   -43.9170 -43.8854 -43.8491 -43.7582 -43.7216 -43.7208 -43.6857 -43.6756
    -6.1582  -5.1683  -4.7244  -4.5421  -4.4472  -4.3344  -4.3212  -4.1858
    -4.0988  -4.0504  -3.9366  -3.6869  -3.6438  -3.4903  -3.3584  -3.2405
    -3.2035  -3.1238  -2.8717  -2.8011  -2.6712  -2.6052  -2.5917  -2.4568
    -2.2542  -2.1910  -2.0782  -2.0690  -2.0411  -1.9789  -1.8385  -1.7955
    -1.5315  -1.4170  -1.3787  -1.3474  -1.3427  -1.1892  -1.1652  -1.1382
    -0.9118  -0.8286  -0.7827  -0.5019  -0.4285  -0.2297  -0.1640  -0.0639
     0.0745   0.0867   0.3106   0.3303   0.8197   0.9643   1.1382   1.3260
     1.9039   1.9117   2.0075   2.1464   2.2011   2.3839   2.5749   2.5756
     3.1904   3.4709   3.6677   3.9328   4.4065   4.9706   5.2626   6.0238
     6.1250

          k = 0.0149-0.0586 0.0000 ( 31967 PWs)   bands (ev):

   -85.2050 -85.1856 -84.8629 -84.8436 -84.5178 -84.4981 -45.1601 -45.1190
   -44.4953 -44.4337 -44.3958 -44.2137 -44.1192 -44.0656 -44.0486 -44.0294
   -43.9169 -43.8854 -43.8491 -43.7578 -43.7216 -43.7206 -43.6857 -43.6756
    -6.5298  -5.1174  -4.9009  -4.6981  -4.5956  -4.5020  -4.4631  -4.2830
    -4.2407  -4.1868  -4.0665  -3.9072  -3.7172  -3.6226  -3.4225  -3.2704
    -3.2211  -3.1560  -2.8353  -2.7489  -2.7230  -2.6053  -2.4616  -2.4001
    -2.3448  -2.1573  -2.0908  -2.0145  -1.9268  -1.8808  -1.8639  -1.5677
    -1.4638  -1.4090  -1.3342  -1.3166  -1.1864  -1.0298  -1.0128  -0.9051
    -0.8336  -0.7764  -0.5394  -0.3425  -0.1917   0.0700   0.1010   0.2497
     0.2564   0.3520   0.4641   0.5470   1.0235   1.0608   1.2345   1.4932
     1.9385   1.9719   2.1258   2.1996   2.3098   2.4042   2.5968   2.6015
     3.1908   3.4723   3.6131   3.8908   4.2000   4.9152   5.0624   5.8263
     6.2986

          k = 0.0149-0.0419 0.0000 ( 31985 PWs)   bands (ev):

   -85.2050 -85.1856 -84.8629 -84.8436 -84.5178 -84.4981 -45.1601 -45.1190
   -44.4951 -44.4332 -44.3956 -44.2135 -44.1192 -44.0653 -44.0484 -44.0293
   -43.9169 -43.8854 -43.8490 -43.7574 -43.7216 -43.7203 -43.6857 -43.6756
    -6.8374  -5.2919  -4.9457  -4.8712  -4.7521  -4.6440  -4.5930  -4.4830
    -4.3055  -4.2997  -4.2253  -4.0667  -3.8070  -3.7462  -3.4517  -3.3302
    -3.3095  -3.1777  -2.9212  -2.7051  -2.6965  -2.5531  -2.3748  -2.3677
    -2.3056  -2.1685  -2.1085  -1.9672  -1.9227  -1.7857  -1.7714  -1.5293
    -1.4209  -1.3264  -1.2887  -1.2477  -1.1785  -0.9197  -0.8585  -0.7880
    -0.7186  -0.4249  -0.2102  -0.0977   0.1007   0.1825   0.2347   0.5720
     0.5922   0.7210   0.8253   0.8970   1.1377   1.3035   1.4596   1.6534
     2.0645   2.0751   2.2186   2.2323   2.4077   2.4531   2.6247   2.7434
     3.1828   3.3103   3.4447   3.8087   4.4944   4.5655   4.9840   5.4641
     6.0392

          k = 0.0149-0.0251 0.0000 ( 31980 PWs)   bands (ev):

   -85.2050 -85.1856 -84.8629 -84.8436 -84.5178 -84.4981 -45.1601 -45.1190
   -44.4949 -44.4327 -44.3954 -44.2134 -44.1191 -44.0650 -44.0482 -44.0292
   -43.9168 -43.8854 -43.8490 -43.7570 -43.7216 -43.7201 -43.6857 -43.6755
    -7.0542  -5.4726  -5.0046  -4.9834  -4.8631  -4.7533  -4.6818  -4.6428
    -4.3911  -4.3539  -4.3507  -4.1685  -3.8731  -3.8433  -3.4591  -3.3848
    -3.3673  -3.1921  -3.0877  -2.7121  -2.6050  -2.5144  -2.3835  -2.3562
    -2.2367  -2.1504  -2.0469  -1.9622  -1.9424  -1.6988  -1.6630  -1.5684
    -1.3889  -1.3038  -1.2897  -1.1566  -1.1557  -0.8825  -0.7862  -0.6366
    -0.6308  -0.1235   0.1155   0.1280   0.2330   0.3206   0.4212   0.8130
     0.8177   0.9613   1.1164   1.2908   1.4614   1.5083   1.7681   1.8259
     2.2070   2.2076   2.2879   2.3120   2.4641   2.5417   2.6496   2.7703
     3.1599   3.2670   3.4848   3.6299   4.0812   4.7266   5.1017   5.2626
     5.8624

          k = 0.0149-0.0084 0.0000 ( 31992 PWs)   bands (ev):

   -85.2050 -85.1856 -84.8629 -84.8436 -84.5178 -84.4981 -45.1601 -45.1190
   -44.4948 -44.4325 -44.3953 -44.2134 -44.1191 -44.0649 -44.0481 -44.0292
   -43.9168 -43.8854 -43.8490 -43.7568 -43.7216 -43.7200 -43.6857 -43.6755
    -7.1658  -5.5723  -5.0749  -5.0314  -4.9016  -4.8130  -4.7303  -4.7267
    -4.4487  -4.4091  -4.3795  -4.2198  -3.9063  -3.8970  -3.4603  -3.4034
    -3.3975  -3.1987  -3.1904  -2.7278  -2.5602  -2.4935  -2.4148  -2.3464
    -2.2221  -2.1182  -2.0093  -1.9539  -1.9348  -1.6240  -1.6125  -1.5829
    -1.3877  -1.3302  -1.3003  -1.1225  -1.1051  -0.8707  -0.7318  -0.5841
    -0.5605   0.0115   0.1831   0.3218   0.3298   0.4092   0.5688   0.9292
     0.9942   1.0353   1.2280   1.5260   1.6283   1.8542   1.9316   2.0852
     2.1569   2.3266   2.3755   2.4076   2.5412   2.6017   2.6099   2.8361
     2.8957   3.1757   3.5270   3.8701   3.9578   4.4096   5.2580   5.3009
     5.7202

          k = 0.0298 0.0168 0.0000 ( 31987 PWs)   bands (ev):

   -85.2040 -85.1866 -84.8619 -84.8446 -84.5168 -84.4991 -45.1580 -45.1211
   -44.4759 -44.4307 -44.3974 -44.1950 -44.1390 -44.0631 -44.0311 -44.0293
   -43.9152 -43.8870 -43.8682 -43.7550 -43.7220 -43.7198 -43.6952 -43.6876
    -6.9902  -5.3987  -5.0109  -4.8735  -4.7747  -4.7526  -4.6342  -4.6049
    -4.3855  -4.3205  -4.3150  -4.1755  -3.8076  -3.7725  -3.4201  -3.3592
    -3.3370  -3.1726  -3.1343  -2.7373  -2.5919  -2.5028  -2.4472  -2.3780
    -2.3439  -2.2022  -2.0522  -1.9498  -1.9147  -1.7035  -1.6865  -1.5408
    -1.4152  -1.3696  -1.2823  -1.0892  -0.9901  -0.9588  -0.7243  -0.7097
    -0.6178  -0.4429  -0.0495   0.0184   0.1701   0.2596   0.4555   0.7597
     0.8741   0.9307   1.1167   1.1661   1.4277   1.6004   1.6994   1.8353
     1.9935   2.1101   2.2236   2.3013   2.4615   2.5749   2.8353   2.8870
     3.0645   3.0814   3.2795   3.6073   4.1547   4.1884   4.7684   5.5724
     5.8943

          k = 0.0298 0.0335 0.0000 ( 31993 PWs)   bands (ev):

   -85.2040 -85.1866 -84.8619 -84.8446 -84.5168 -84.4991 -45.1580 -45.1211
   -44.4760 -44.4311 -44.3975 -44.1951 -44.1390 -44.0633 -44.0312 -44.0294
   -43.9153 -43.8870 -43.8683 -43.7553 -43.7222 -43.7198 -43.6953 -43.6876
    -6.8278  -5.2566  -4.9399  -4.8218  -4.7130  -4.6687  -4.5341  -4.4987
    -4.3181  -4.2753  -4.2290  -4.1037  -3.7331  -3.7302  -3.4223  -3.3314
    -3.2911  -3.1648  -2.9974  -2.7297  -2.6561  -2.4911  -2.4843  -2.3947
    -2.3657  -2.2301  -2.0642  -1.9599  -1.9591  -1.7756  -1.7266  -1.5932
    -1.4320  -1.3232  -1.2729  -1.1309  -1.0759  -0.9854  -0.8021  -0.7931
    -0.6649  -0.6301  -0.2207  -0.0975   0.0436   0.1089   0.2802   0.5025
     0.6806   0.7489   0.9404   0.9495   1.2080   1.2847   1.5664   1.5842
     1.8963   2.1198   2.1424   2.2770   2.4342   2.6052   2.6448   2.9484
     3.0533   3.1927   3.4664   3.6407   3.9839   4.4830   5.0659   5.1015
     6.0980

          k = 0.0298 0.0503 0.0000 ( 31972 PWs)   bands (ev):

   -85.2040 -85.1866 -84.8619 -84.8446 -84.5168 -84.4991 -45.1580 -45.1211
   -44.4762 -44.4315 -44.3977 -44.1952 -44.1391 -44.0636 -44.0312 -44.0296
   -43.9153 -43.8870 -43.8683 -43.7557 -43.7224 -43.7198 -43.6953 -43.6876
    -6.5675  -5.0556  -4.8182  -4.8026  -4.5792  -4.5457  -4.4198  -4.3109
    -4.2156  -4.2151  -4.0991  -3.9764  -3.6688  -3.6230  -3.4145  -3.2691
    -3.2274  -3.1498  -2.8454  -2.7577  -2.7438  -2.5320  -2.5018  -2.4403
    -2.4084  -2.2337  -2.1305  -1.9992  -1.9488  -1.8486  -1.8078  -1.6255
    -1.4703  -1.3250  -1.3200  -1.2100  -1.1711  -1.0244  -0.9987  -0.9027
    -0.8715  -0.7127  -0.5014  -0.2300  -0.1970  -0.0086   0.0274   0.2113
     0.4037   0.4464   0.6029   0.7343   1.0647   1.0830   1.3793   1.4586
     1.8764   2.0272   2.1108   2.2000   2.3274   2.4514   2.5889   2.8509
     2.9796   3.1651   3.5848   3.7216   4.3622   4.5363   4.8418   5.7263
     6.0935

          k = 0.0298 0.0670 0.0000 ( 31968 PWs)   bands (ev):

   -85.2040 -85.1866 -84.8619 -84.8446 -84.5168 -84.4991 -45.1580 -45.1211
   -44.4764 -44.4320 -44.3979 -44.1953 -44.1391 -44.0639 -44.0313 -44.0298
   -43.9154 -43.8870 -43.8683 -43.7561 -43.7226 -43.7198 -43.6953 -43.6875
    -6.2276  -4.9757  -4.6970  -4.6673  -4.4293  -4.4018  -4.2850  -4.1388
    -4.1329  -4.0668  -3.9772  -3.7956  -3.6207  -3.4922  -3.3783  -3.2228
    -3.1842  -3.1237  -2.8561  -2.8224  -2.6795  -2.5862  -2.5643  -2.5218
    -2.3797  -2.2595  -2.1745  -2.0662  -1.9539  -1.9166  -1.9105  -1.6557
    -1.5750  -1.4572  -1.3829  -1.3430  -1.3011  -1.1924  -1.1176  -1.0616
    -0.9080  -0.7534  -0.7377  -0.5018  -0.3495  -0.2008  -0.1216  -0.0892
     0.1514   0.1552   0.4075   0.5419   0.9129   0.9786   1.2525   1.3527
     1.8557   1.9577   1.9794   2.0700   2.2678   2.3474   2.5616   2.6773
     3.0107   3.1296   3.6456   3.9111   4.3307   4.3844   5.5602   5.8754
     6.4644

          k = 0.0298 0.0838 0.0000 ( 31938 PWs)   bands (ev):

   -85.2040 -85.1866 -84.8619 -84.8446 -84.5168 -84.4991 -45.1580 -45.1211
   -44.4765 -44.4323 -44.3980 -44.1954 -44.1391 -44.0641 -44.0314 -44.0299
   -43.9154 -43.8870 -43.8683 -43.7564 -43.7227 -43.7198 -43.6953 -43.6875
    -5.8420  -5.1362  -4.5394  -4.5048  -4.3052  -4.2599  -4.1804  -4.0508
    -4.0224  -3.9239  -3.8534  -3.6289  -3.6164  -3.3706  -3.3603  -3.2902
    -3.1646  -3.0668  -2.8394  -2.8050  -2.6664  -2.6546  -2.5848  -2.5549
    -2.3766  -2.3427  -2.1872  -2.1629  -2.0639  -1.9251  -1.9190  -1.8810
    -1.6289  -1.5494  -1.5150  -1.4227  -1.4080  -1.3309  -1.2167  -1.0838
    -0.9443  -0.9064  -0.7351  -0.7032  -0.4042  -0.3781  -0.3586  -0.1827
    -0.0571   0.0200   0.3206   0.4293   0.8261   0.9093   1.1907   1.2149
     1.8292   1.8481   1.9679   2.0038   2.0978   2.3060   2.5409   2.6733
     3.0310   3.1112   3.6809   3.7654   4.3099   4.8312   5.6143   6.0265
     6.3692

          k = 0.0298 0.1005 0.0000 ( 31958 PWs)   bands (ev):

   -85.2040 -85.1866 -84.8619 -84.8446 -84.5168 -84.4991 -45.1580 -45.1211
   -44.4765 -44.4325 -44.3980 -44.1954 -44.1391 -44.0641 -44.0314 -44.0300
   -43.9155 -43.8870 -43.8683 -43.7565 -43.7228 -43.7198 -43.6953 -43.6875
    -5.5228  -5.3782  -4.4905  -4.4258  -4.2622  -4.1844  -4.1264  -4.0109
    -3.9987  -3.8734  -3.7639  -3.6191  -3.5534  -3.4287  -3.3848  -3.2374
    -3.1700  -3.0205  -2.8415  -2.7209  -2.6981  -2.6707  -2.5675  -2.5012
    -2.4688  -2.3986  -2.2246  -2.1982  -2.1460  -2.0415  -1.8854  -1.8843
    -1.6333  -1.6119  -1.5386  -1.4699  -1.4406  -1.3611  -1.2917  -1.0884
    -0.9990  -0.9017  -0.7678  -0.7296  -0.4879  -0.4458  -0.3632  -0.2388
    -0.1316  -0.0176   0.2956   0.3964   0.8039   0.8826   1.1474   1.1724
     1.8086   1.8181   1.9666   1.9862   2.0204   2.2949   2.5334   2.6846
     3.0379   3.1034   3.6926   3.7060   4.3035   5.2459   5.5956   5.6019
     6.4297

          k = 0.0298-0.0838 0.0000 ( 31938 PWs)   bands (ev):

   -85.2040 -85.1866 -84.8619 -84.8446 -84.5168 -84.4991 -45.1580 -45.1211
   -44.4765 -44.4323 -44.3980 -44.1954 -44.1391 -44.0641 -44.0314 -44.0299
   -43.9154 -43.8870 -43.8683 -43.7564 -43.7227 -43.7198 -43.6953 -43.6875
    -5.8420  -5.1362  -4.5394  -4.5048  -4.3052  -4.2599  -4.1804  -4.0508
    -4.0224  -3.9239  -3.8534  -3.6289  -3.6164  -3.3706  -3.3603  -3.2902
    -3.1646  -3.0668  -2.8394  -2.8050  -2.6664  -2.6546  -2.5848  -2.5549
    -2.3766  -2.3427  -2.1872  -2.1629  -2.0639  -1.9251  -1.9190  -1.8810
    -1.6289  -1.5494  -1.5150  -1.4227  -1.4080  -1.3309  -1.2167  -1.0838
    -0.9443  -0.9064  -0.7351  -0.7032  -0.4042  -0.3781  -0.3586  -0.1827
    -0.0571   0.0200   0.3206   0.4293   0.8261   0.9093   1.1907   1.2149
     1.8292   1.8481   1.9679   2.0038   2.0978   2.3060   2.5409   2.6733
     3.0310   3.1112   3.6809   3.7654   4.3099   4.8312   5.6143   6.0265
     6.3693

          k = 0.0298-0.0670 0.0000 ( 31968 PWs)   bands (ev):

   -85.2040 -85.1866 -84.8619 -84.8446 -84.5168 -84.4991 -45.1580 -45.1211
   -44.4764 -44.4320 -44.3979 -44.1953 -44.1391 -44.0639 -44.0313 -44.0298
   -43.9154 -43.8870 -43.8683 -43.7561 -43.7226 -43.7198 -43.6953 -43.6875
    -6.2276  -4.9757  -4.6970  -4.6673  -4.4293  -4.4018  -4.2850  -4.1388
    -4.1329  -4.0668  -3.9772  -3.7956  -3.6207  -3.4922  -3.3783  -3.2228
    -3.1842  -3.1237  -2.8561  -2.8224  -2.6795  -2.5862  -2.5643  -2.5218
    -2.3797  -2.2595  -2.1745  -2.0662  -1.9539  -1.9166  -1.9105  -1.6557
    -1.5750  -1.4571  -1.3829  -1.3430  -1.3011  -1.1924  -1.1176  -1.0616
    -0.9080  -0.7534  -0.7377  -0.5018  -0.3495  -0.2008  -0.1216  -0.0892
     0.1514   0.1552   0.4075   0.5419   0.9129   0.9786   1.2525   1.3527
     1.8557   1.9577   1.9794   2.0700   2.2678   2.3474   2.5616   2.6773
     3.0107   3.1296   3.6456   3.9111   4.3307   4.3844   5.5602   5.8753
     6.4645

          k = 0.0298-0.0503 0.0000 ( 31972 PWs)   bands (ev):

   -85.2040 -85.1866 -84.8619 -84.8446 -84.5168 -84.4991 -45.1580 -45.1211
   -44.4762 -44.4315 -44.3977 -44.1952 -44.1391 -44.0636 -44.0312 -44.0296
   -43.9153 -43.8870 -43.8683 -43.7557 -43.7224 -43.7198 -43.6953 -43.6876
    -6.5675  -5.0556  -4.8182  -4.8026  -4.5792  -4.5457  -4.4198  -4.3109
    -4.2156  -4.2151  -4.0991  -3.9764  -3.6688  -3.6230  -3.4145  -3.2691
    -3.2274  -3.1498  -2.8454  -2.7577  -2.7438  -2.5320  -2.5018  -2.4403
    -2.4084  -2.2337  -2.1305  -1.9992  -1.9488  -1.8486  -1.8078  -1.6255
    -1.4703  -1.3250  -1.3200  -1.2100  -1.1711  -1.0244  -0.9987  -0.9027
    -0.8715  -0.7127  -0.5014  -0.2300  -0.1970  -0.0086   0.0274   0.2113
     0.4037   0.4464   0.6029   0.7343   1.0647   1.0830   1.3793   1.4586
     1.8764   2.0272   2.1108   2.2000   2.3274   2.4514   2.5889   2.8509
     2.9796   3.1651   3.5848   3.7216   4.3622   4.5363   4.8418   5.7263
     6.0935

          k = 0.0298-0.0335 0.0000 ( 31993 PWs)   bands (ev):

   -85.2040 -85.1866 -84.8619 -84.8446 -84.5168 -84.4991 -45.1580 -45.1211
   -44.4760 -44.4311 -44.3975 -44.1951 -44.1390 -44.0633 -44.0312 -44.0294
   -43.9153 -43.8870 -43.8683 -43.7553 -43.7222 -43.7198 -43.6953 -43.6876
    -6.8278  -5.2566  -4.9399  -4.8218  -4.7130  -4.6687  -4.5341  -4.4987
    -4.3181  -4.2753  -4.2290  -4.1037  -3.7331  -3.7302  -3.4223  -3.3314
    -3.2911  -3.1648  -2.9974  -2.7297  -2.6561  -2.4911  -2.4843  -2.3947
    -2.3657  -2.2301  -2.0642  -1.9599  -1.9591  -1.7756  -1.7266  -1.5932
    -1.4320  -1.3232  -1.2729  -1.1309  -1.0759  -0.9854  -0.8021  -0.7931
    -0.6649  -0.6301  -0.2207  -0.0975   0.0436   0.1089   0.2802   0.5025
     0.6806   0.7489   0.9404   0.9495   1.2080   1.2847   1.5664   1.5842
     1.8963   2.1198   2.1424   2.2770   2.4342   2.6052   2.6448   2.9484
     3.0533   3.1927   3.4664   3.6407   3.9839   4.4830   5.0659   5.1015
     6.0979

          k = 0.0298-0.0168 0.0000 ( 31987 PWs)   bands (ev):

   -85.2040 -85.1866 -84.8619 -84.8446 -84.5168 -84.4991 -45.1580 -45.1211
   -44.4759 -44.4307 -44.3974 -44.1950 -44.1390 -44.0631 -44.0311 -44.0293
   -43.9152 -43.8870 -43.8682 -43.7550 -43.7220 -43.7198 -43.6952 -43.6876
    -6.9902  -5.3987  -5.0109  -4.8735  -4.7747  -4.7526  -4.6342  -4.6049
    -4.3855  -4.3205  -4.3150  -4.1755  -3.8076  -3.7725  -3.4201  -3.3592
    -3.3370  -3.1726  -3.1343  -2.7373  -2.5919  -2.5028  -2.4472  -2.3780
    -2.3439  -2.2022  -2.0522  -1.9498  -1.9147  -1.7035  -1.6865  -1.5408
    -1.4152  -1.3696  -1.2823  -1.0892  -0.9901  -0.9588  -0.7243  -0.7097
    -0.6178  -0.4429  -0.0495   0.0184   0.1701   0.2596   0.4555   0.7597
     0.8741   0.9307   1.1167   1.1661   1.4277   1.6004   1.6994   1.8353
     1.9935   2.1101   2.2236   2.3013   2.4615   2.5749   2.8353   2.8870
     3.0645   3.0814   3.2795   3.6073   4.1547   4.1884   4.7684   5.5724
     5.8944

          k = 0.0298-0.0000 0.0000 ( 31995 PWs)   bands (ev):

   -85.2040 -85.1866 -84.8619 -84.8446 -84.5168 -84.4991 -45.1580 -45.1211
   -44.4758 -44.4306 -44.3974 -44.1949 -44.1390 -44.0630 -44.0311 -44.0292
   -43.9152 -43.8870 -43.8682 -43.7549 -43.7220 -43.7198 -43.6952 -43.6876
    -7.0452  -5.4484  -5.0326  -4.9037  -4.7865  -4.7838  -4.6822  -4.6288
    -4.4134  -4.3487  -4.3288  -4.1990  -3.8342  -3.7872  -3.4185  -3.3602
    -3.3530  -3.1920  -3.1749  -2.7441  -2.5711  -2.5115  -2.4336  -2.3714
    -2.3434  -2.1851  -2.0558  -1.9501  -1.8884  -1.6977  -1.6338  -1.5169
    -1.4113  -1.4061  -1.2914  -1.0716  -0.9616  -0.9510  -0.6987  -0.6820
    -0.5976  -0.3809  -0.0397   0.1140   0.2021   0.3202   0.5078   0.8744
     0.9399   0.9638   1.1823   1.2756   1.4949   1.7274   1.8736   2.0332
     2.1126   2.1576   2.2535   2.3009   2.3866   2.4756   2.6454   2.7953
     3.0054   3.0735   3.5524   3.5535   3.8299   4.4911   4.8866   5.4341
     5.6272

          k = 0.0447 0.0251 0.0000 ( 31972 PWs)   bands (ev):

   -85.2024 -85.1882 -84.8603 -84.8462 -84.5152 -84.5007 -45.1546 -45.1245
   -44.4456 -44.4278 -44.4006 -44.1706 -44.1656 -44.0603 -44.0341 -43.9993
   -43.9130 -43.8985 -43.8896 -43.7522 -43.7266 -43.7252 -43.7168 -43.6905
    -6.7089  -5.1270  -4.9654  -4.6476  -4.6397  -4.5767  -4.4786  -4.4166
    -4.2892  -4.2033  -4.1835  -4.1048  -3.6700  -3.5628  -3.3592  -3.2943
    -3.2477  -3.1393  -3.0426  -2.7992  -2.6334  -2.6276  -2.4805  -2.4516
    -2.3637  -2.3500  -2.1202  -1.9830  -1.8755  -1.8252  -1.7820  -1.5928
    -1.4268  -1.3933  -1.2337  -1.2076  -1.0471  -1.0350  -0.8659  -0.8197
    -0.7252  -0.6177  -0.4079  -0.2844  -0.2386   0.1280   0.3182   0.4570
     0.6148   0.7322   0.9138   1.0148   1.2201   1.2419   1.3980   1.5362
     1.7080   2.0238   2.0705   2.2181   2.3938   2.4466   2.5680   2.9274
     2.9474   3.2390   3.3607   3.5294   4.1063   4.3161   4.3397   5.8121
     5.9493

          k = 0.0447 0.0419 0.0000 ( 31968 PWs)   bands (ev):

   -85.2024 -85.1882 -84.8603 -84.8462 -84.5152 -84.5007 -45.1546 -45.1245
   -44.4457 -44.4282 -44.4007 -44.1706 -44.1657 -44.0605 -44.0342 -43.9994
   -43.9130 -43.8985 -43.8896 -43.7525 -43.7266 -43.7254 -43.7168 -43.6905
    -6.5039  -4.9542  -4.9320  -4.6101  -4.5452  -4.4940  -4.3182  -4.3048
    -4.2176  -4.1548  -4.0850  -4.0030  -3.5853  -3.5271  -3.3679  -3.2596
    -3.1901  -3.1346  -2.9047  -2.8310  -2.7003  -2.6249  -2.5033  -2.4983
    -2.3915  -2.3585  -2.1564  -2.0142  -1.9053  -1.8789  -1.8426  -1.6429
    -1.4997  -1.3867  -1.3038  -1.2347  -1.1077  -1.0809  -0.9708  -0.9514
    -0.7972  -0.6680  -0.6400  -0.3826  -0.3174  -0.0453   0.0114   0.2620
     0.4515   0.4873   0.7461   0.7964   1.0658   1.0719   1.3375   1.4431
     1.5491   1.9531   2.1320   2.1693   2.4526   2.4584   2.5652   2.7443
     3.0147   3.0480   3.4826   3.8623   3.9586   4.2248   5.0890   5.1286
     6.4451

          k = 0.0447 0.0586 0.0000 ( 31970 PWs)   bands (ev):

   -85.2024 -85.1882 -84.8603 -84.8462 -84.5152 -84.5007 -45.1546 -45.1245
   -44.4459 -44.4286 -44.4009 -44.1706 -44.1658 -44.0608 -44.0343 -43.9996
   -43.9131 -43.8985 -43.8896 -43.7528 -43.7266 -43.7255 -43.7168 -43.6905
    -6.2107  -4.8557  -4.7676  -4.5982  -4.4156  -4.3643  -4.2022  -4.1279
    -4.0977  -4.0664  -3.9787  -3.8553  -3.5121  -3.4722  -3.3587  -3.2168
    -3.1388  -3.1194  -2.8977  -2.8256  -2.7287  -2.6567  -2.5450  -2.5341
    -2.4356  -2.3676  -2.2301  -2.0810  -1.9455  -1.9073  -1.8845  -1.7284
    -1.6033  -1.5401  -1.3446  -1.2928  -1.1772  -1.1755  -1.1228  -1.1131
    -0.8706  -0.8319  -0.7029  -0.5276  -0.4546  -0.3204  -0.0617  -0.0000
     0.2384   0.3009   0.5178   0.6830   0.9502   0.9910   1.3044   1.3375
     1.5365   1.8907   2.0743   2.1306   2.3244   2.4815   2.5078   2.5622
     2.8913   3.0658   3.1617   3.9249   4.2255   4.6018   4.9214   5.9089
     6.2243

          k = 0.0447 0.0754 0.0000 ( 31948 PWs)   bands (ev):

   -85.2024 -85.1882 -84.8603 -84.8462 -84.5152 -84.5007 -45.1547 -45.1245
   -44.4461 -44.4290 -44.4010 -44.1706 -44.1659 -44.0610 -44.0343 -43.9997
   -43.9131 -43.8985 -43.8896 -43.7531 -43.7266 -43.7257 -43.7168 -43.6905
    -5.8511  -4.8351  -4.7615  -4.4129  -4.2799  -4.2339  -4.1168  -4.0087
    -3.9322  -3.9246  -3.8662  -3.7259  -3.5481  -3.3670  -3.3546  -3.2608
    -3.0952  -3.0814  -2.9221  -2.8137  -2.7226  -2.6984  -2.5961  -2.5640
    -2.4504  -2.4352  -2.2784  -2.1624  -1.9934  -1.9512  -1.9281  -1.8302
    -1.7218  -1.6877  -1.4883  -1.3913  -1.2960  -1.2775  -1.2099  -1.1990
    -1.0248  -0.8049  -0.7409  -0.6909  -0.6764  -0.2703  -0.2491  -0.1061
     0.0453   0.2020   0.3911   0.6333   0.9121   0.9330   1.2227   1.2652
     1.5432   1.8468   1.8886   2.0146   2.2160   2.3482   2.4643   2.5862
     2.7663   3.0778   3.1069   3.8939   4.0618   4.8451   5.5500   6.1231
     6.4943

          k = 0.0447 0.0921 0.0000 ( 31962 PWs)   bands (ev):

   -85.2024 -85.1882 -84.8603 -84.8462 -84.5152 -84.5007 -45.1547 -45.1245
   -44.4461 -44.4292 -44.4010 -44.1706 -44.1659 -44.0611 -44.0343 -43.9998
   -43.9131 -43.8985 -43.8896 -43.7533 -43.7266 -43.7258 -43.7168 -43.6905
    -5.4673  -5.0850  -4.6943  -4.2582  -4.1836  -4.1424  -4.0413  -3.9256
    -3.8377  -3.8201  -3.7134  -3.6673  -3.6123  -3.4480  -3.4337  -3.1915
    -3.0732  -3.0517  -2.8321  -2.8187  -2.7070  -2.6985  -2.6670  -2.5600
    -2.5548  -2.4557  -2.2762  -2.2372  -2.1134  -2.0065  -1.9538  -1.9015
    -1.8243  -1.7272  -1.5738  -1.4539  -1.4070  -1.3357  -1.2563  -1.2097
    -1.1075  -0.8514  -0.7832  -0.7656  -0.6579  -0.3971  -0.2155  -0.1281
    -0.0678   0.1543   0.3349   0.6422   0.8974   0.9320   1.1082   1.2289
     1.5468   1.7545   1.8254   1.9488   2.0529   2.2879   2.4496   2.6029
     2.7716   3.0531   3.1292   3.8757   3.8832   5.3476   5.6439   6.0042
     6.3945

          k = 0.0447 0.1089 0.0000 ( 31962 PWs)   bands (ev):

   -85.2024 -85.1882 -84.8603 -84.8462 -84.5152 -84.5007 -45.1547 -45.1245
   -44.4461 -44.4292 -44.4010 -44.1706 -44.1659 -44.0611 -44.0343 -43.9998
   -43.9131 -43.8985 -43.8896 -43.7533 -43.7266 -43.7258 -43.7168 -43.6905
    -5.4673  -5.0850  -4.6943  -4.2582  -4.1836  -4.1424  -4.0413  -3.9256
    -3.8377  -3.8201  -3.7134  -3.6673  -3.6123  -3.4480  -3.4337  -3.1915
    -3.0732  -3.0517  -2.8321  -2.8187  -2.7070  -2.6985  -2.6670  -2.5600
    -2.5549  -2.4557  -2.2762  -2.2372  -2.1134  -2.0065  -1.9538  -1.9015
    -1.8243  -1.7272  -1.5738  -1.4539  -1.4070  -1.3357  -1.2563  -1.2097
    -1.1075  -0.8514  -0.7832  -0.7656  -0.6579  -0.3971  -0.2155  -0.1281
    -0.0678   0.1543   0.3349   0.6422   0.8974   0.9320   1.1082   1.2289
     1.5468   1.7545   1.8254   1.9488   2.0529   2.2879   2.4496   2.6029
     2.7716   3.0531   3.1292   3.8757   3.8832   5.3476   5.6439   6.0042
     6.3943

          k = 0.0447-0.0754 0.0000 ( 31948 PWs)   bands (ev):

   -85.2024 -85.1882 -84.8603 -84.8462 -84.5152 -84.5007 -45.1547 -45.1245
   -44.4461 -44.4290 -44.4010 -44.1706 -44.1659 -44.0610 -44.0343 -43.9997
   -43.9131 -43.8985 -43.8896 -43.7531 -43.7266 -43.7257 -43.7168 -43.6905
    -5.8511  -4.8351  -4.7615  -4.4129  -4.2799  -4.2339  -4.1168  -4.0087
    -3.9322  -3.9246  -3.8662  -3.7259  -3.5481  -3.3670  -3.3546  -3.2608
    -3.0952  -3.0814  -2.9221  -2.8137  -2.7226  -2.6984  -2.5961  -2.5640
    -2.4504  -2.4352  -2.2784  -2.1624  -1.9934  -1.9512  -1.9281  -1.8302
    -1.7218  -1.6877  -1.4883  -1.3913  -1.2960  -1.2775  -1.2099  -1.1990
    -1.0248  -0.8049  -0.7409  -0.6909  -0.6764  -0.2703  -0.2491  -0.1061
     0.0453   0.2020   0.3911   0.6333   0.9121   0.9330   1.2227   1.2652
     1.5432   1.8468   1.8886   2.0146   2.2160   2.3482   2.4643   2.5862
     2.7663   3.0778   3.1069   3.8939   4.0618   4.8451   5.5500   6.1231
     6.4943

          k = 0.0447-0.0586 0.0000 ( 31970 PWs)   bands (ev):

   -85.2024 -85.1882 -84.8603 -84.8462 -84.5152 -84.5007 -45.1546 -45.1245
   -44.4459 -44.4286 -44.4009 -44.1706 -44.1658 -44.0608 -44.0343 -43.9996
   -43.9131 -43.8985 -43.8896 -43.7528 -43.7266 -43.7255 -43.7168 -43.6905
    -6.2107  -4.8557  -4.7676  -4.5982  -4.4156  -4.3643  -4.2022  -4.1279
    -4.0977  -4.0664  -3.9787  -3.8553  -3.5121  -3.4722  -3.3587  -3.2168
    -3.1388  -3.1194  -2.8977  -2.8256  -2.7287  -2.6567  -2.5450  -2.5341
    -2.4356  -2.3676  -2.2301  -2.0810  -1.9455  -1.9073  -1.8845  -1.7284
    -1.6033  -1.5401  -1.3446  -1.2928  -1.1772  -1.1755  -1.1228  -1.1131
    -0.8706  -0.8319  -0.7029  -0.5276  -0.4546  -0.3204  -0.0617  -0.0000
     0.2384   0.3009   0.5178   0.6830   0.9502   0.9910   1.3044   1.3375
     1.5365   1.8907   2.0743   2.1306   2.3244   2.4815   2.5078   2.5622
     2.8913   3.0658   3.1616   3.9249   4.2255   4.6018   4.9214   5.9089
     6.2243

          k = 0.0447-0.0419 0.0000 ( 31966 PWs)   bands (ev):

   -85.2024 -85.1882 -84.8603 -84.8462 -84.5152 -84.5007 -45.1546 -45.1245
   -44.4457 -44.4282 -44.4007 -44.1706 -44.1657 -44.0605 -44.0342 -43.9994
   -43.9130 -43.8985 -43.8896 -43.7525 -43.7266 -43.7254 -43.7168 -43.6905
    -6.5039  -4.9542  -4.9320  -4.6101  -4.5452  -4.4940  -4.3182  -4.3048
    -4.2176  -4.1548  -4.0850  -4.0030  -3.5853  -3.5271  -3.3679  -3.2596
    -3.1901  -3.1346  -2.9047  -2.8310  -2.7003  -2.6249  -2.5033  -2.4983
    -2.3915  -2.3585  -2.1564  -2.0142  -1.9053  -1.8789  -1.8426  -1.6429
    -1.4997  -1.3867  -1.3038  -1.2347  -1.1077  -1.0809  -0.9708  -0.9514
    -0.7972  -0.6680  -0.6400  -0.3826  -0.3174  -0.0453   0.0114   0.2620
     0.4515   0.4873   0.7461   0.7964   1.0658   1.0719   1.3375   1.4431
     1.5491   1.9531   2.1320   2.1693   2.4526   2.4584   2.5652   2.7443
     3.0147   3.0480   3.4826   3.8623   3.9586   4.2248   5.0890   5.1286
     6.4447

          k = 0.0447-0.0251 0.0000 ( 31972 PWs)   bands (ev):

   -85.2024 -85.1882 -84.8603 -84.8462 -84.5152 -84.5007 -45.1546 -45.1245
   -44.4456 -44.4278 -44.4006 -44.1706 -44.1656 -44.0603 -44.0341 -43.9993
   -43.9130 -43.8985 -43.8896 -43.7522 -43.7266 -43.7252 -43.7168 -43.6905
    -6.7089  -5.1270  -4.9654  -4.6476  -4.6397  -4.5767  -4.4786  -4.4166
    -4.2892  -4.2033  -4.1835  -4.1048  -3.6700  -3.5628  -3.3592  -3.2943
    -3.2477  -3.1393  -3.0426  -2.7992  -2.6334  -2.6276  -2.4805  -2.4516
    -2.3637  -2.3500  -2.1202  -1.9830  -1.8755  -1.8252  -1.7820  -1.5928
    -1.4268  -1.3933  -1.2337  -1.2076  -1.0471  -1.0350  -0.8659  -0.8197
    -0.7252  -0.6177  -0.4079  -0.2844  -0.2386   0.1280   0.3182   0.4570
     0.6148   0.7323   0.9138   1.0148   1.2201   1.2419   1.3980   1.5362
     1.7080   2.0238   2.0705   2.2181   2.3938   2.4466   2.5680   2.9274
     2.9474   3.2390   3.3607   3.5294   4.1063   4.3161   4.3397   5.8120
     5.9493

          k = 0.0447-0.0084 0.0000 ( 31969 PWs)   bands (ev):

   -85.2024 -85.1882 -84.8603 -84.8462 -84.5152 -84.5007 -45.1546 -45.1245
   -44.4455 -44.4276 -44.4006 -44.1706 -44.1655 -44.0602 -44.0341 -43.9992
   -43.9130 -43.8985 -43.8896 -43.7520 -43.7266 -43.7252 -43.7168 -43.6905
    -6.8140  -5.2195  -4.9605  -4.7215  -4.6926  -4.5924  -4.5734  -4.4683
    -4.3329  -4.2419  -4.2269  -4.1503  -3.7163  -3.5859  -3.3502  -3.2931
    -3.2789  -3.1493  -3.1401  -2.7946  -2.6374  -2.5983  -2.4834  -2.4126
    -2.3512  -2.3372  -2.1108  -1.9842  -1.8653  -1.7739  -1.7102  -1.5642
    -1.4379  -1.4011  -1.2419  -1.1586  -1.0351  -0.9899  -0.8079  -0.7559
    -0.6835  -0.5861  -0.3039  -0.2646  -0.1143   0.2253   0.4425   0.6819
     0.7210   0.8090   0.9795   1.1849   1.2925   1.4366   1.5043   1.7899
     2.0027   2.0207   2.0989   2.2282   2.2915   2.4370   2.4517   2.5539
     2.9414   3.1068   3.2906   3.4981   4.0218   4.4067   4.8915   5.4107
     5.7351

          k = 0.0447 0.0084 0.0000 ( 31969 PWs)   bands (ev):

   -85.2024 -85.1882 -84.8603 -84.8462 -84.5152 -84.5007 -45.1546 -45.1245
   -44.4455 -44.4276 -44.4006 -44.1706 -44.1655 -44.0602 -44.0341 -43.9992
   -43.9130 -43.8985 -43.8896 -43.7520 -43.7266 -43.7252 -43.7168 -43.6905
    -6.8140  -5.2195  -4.9605  -4.7215  -4.6926  -4.5924  -4.5734  -4.4683
    -4.3329  -4.2419  -4.2269  -4.1503  -3.7163  -3.5859  -3.3502  -3.2931
    -3.2789  -3.1493  -3.1401  -2.7946  -2.6374  -2.5983  -2.4834  -2.4126
    -2.3512  -2.3372  -2.1108  -1.9842  -1.8653  -1.7739  -1.7102  -1.5642
    -1.4379  -1.4011  -1.2419  -1.1586  -1.0351  -0.9899  -0.8079  -0.7559
    -0.6835  -0.5861  -0.3039  -0.2646  -0.1143   0.2253   0.4425   0.6819
     0.7210   0.8090   0.9795   1.1849   1.2925   1.4366   1.5043   1.7899
     2.0027   2.0207   2.0989   2.2282   2.2915   2.4370   2.4517   2.5539
     2.9414   3.1068   3.2906   3.4981   4.0218   4.4067   4.8914   5.4107
     5.7350

          k = 0.0596 0.0335 0.0000 ( 31955 PWs)   bands (ev):

   -85.2003 -85.1903 -84.8582 -84.8482 -84.5131 -84.5028 -45.1502 -45.1289
   -44.4241 -44.4060 -44.4047 -44.2115 -44.1271 -44.0566 -44.0381 -43.9600
   -43.9388 -43.9090 -43.8929 -43.7671 -43.7484 -43.7294 -43.7130 -43.6944
    -6.3425  -5.0116  -4.7955  -4.5048  -4.4264  -4.2962  -4.2853  -4.2079
    -4.1692  -4.0531  -4.0245  -3.9706  -3.5101  -3.3316  -3.2576  -3.2199
    -3.1513  -3.1211  -2.9464  -2.9236  -2.7540  -2.6661  -2.5861  -2.5279
    -2.4702  -2.3368  -2.2484  -2.0643  -2.0469  -1.8793  -1.7942  -1.7403
    -1.7052  -1.4839  -1.3955  -1.3126  -1.2628  -1.1339  -1.0054  -0.8165
    -0.7778  -0.6559  -0.6524  -0.5597  -0.3372  -0.0133   0.0311   0.2940
     0.4057   0.4401   0.7504   0.8150   1.0118   1.0168   1.2172   1.2190
     1.4825   1.6805   2.0392   2.1338   2.1780   2.3712   2.4483   2.5791
     2.9385   3.2629   3.5065   3.8693   3.9759   4.2738   4.4666   5.8920
     5.9301

          k = 0.0596 0.0503 0.0000 ( 31949 PWs)   bands (ev):

   -85.2003 -85.1903 -84.8582 -84.8482 -84.5131 -84.5028 -45.1502 -45.1289
   -44.4244 -44.4062 -44.4048 -44.2115 -44.1272 -44.0568 -44.0381 -43.9601
   -43.9388 -43.9090 -43.8929 -43.7671 -43.7487 -43.7294 -43.7130 -43.6944
    -6.1089  -5.0419  -4.6172  -4.4235  -4.4053  -4.2164  -4.1366  -4.1112
    -4.0940  -3.9573  -3.9558  -3.8500  -3.4337  -3.3558  -3.2482  -3.1944
    -3.1175  -3.0914  -3.0085  -2.8207  -2.7688  -2.7107  -2.5945  -2.5830
    -2.4630  -2.3954  -2.2884  -2.1214  -2.1011  -1.9200  -1.8664  -1.7791
    -1.7572  -1.5092  -1.5058  -1.3574  -1.3182  -1.1614  -1.0323  -0.9438
    -0.8854  -0.8018  -0.7833  -0.6737  -0.3513  -0.3051   0.0255   0.0855
     0.2672   0.3722   0.6204   0.7036   0.9264   0.9603   1.1246   1.2126
     1.3653   1.6665   2.0558   2.1563   2.1681   2.4097   2.4271   2.5694
     2.8086   3.0842   3.5987   3.6236   4.1875   4.4864   5.0797   5.1664
     6.3244

          k = 0.0596 0.0670 0.0000 ( 31947 PWs)   bands (ev):

   -85.2003 -85.1903 -84.8582 -84.8482 -84.5131 -84.5028 -45.1503 -45.1289
   -44.4247 -44.4063 -44.4048 -44.2114 -44.1273 -44.0570 -44.0381 -43.9603
   -43.9388 -43.9091 -43.8929 -43.7671 -43.7489 -43.7295 -43.7130 -43.6944
    -5.7996  -5.0371  -4.5386  -4.3592  -4.2816  -4.1308  -4.0285  -4.0220
    -3.9691  -3.8514  -3.8398  -3.7422  -3.3868  -3.3448  -3.3034  -3.2101
    -3.1125  -3.0397  -3.0197  -2.8222  -2.7677  -2.7340  -2.6303  -2.6149
    -2.4866  -2.4678  -2.3334  -2.1981  -2.1587  -1.9644  -1.9384  -1.8421
    -1.7843  -1.6615  -1.5608  -1.3793  -1.3774  -1.2358  -1.2168  -1.0797
    -1.0085  -0.8986  -0.8510  -0.6157  -0.6091  -0.2371  -0.1350   0.0534
     0.1318   0.3500   0.4743   0.7266   0.9288   0.9321   1.0983   1.1933
     1.3102   1.6557   1.9878   2.0861   2.1644   2.3094   2.4154   2.5199
     2.5712   2.9668   3.1817   3.6144   4.5158   4.8680   4.9557   5.7886
     6.1926

          k = 0.0596 0.0838 0.0000 ( 31928 PWs)   bands (ev):

   -85.2003 -85.1903 -84.8582 -84.8482 -84.5130 -84.5028 -45.1503 -45.1289
   -44.4250 -44.4064 -44.4049 -44.2114 -44.1274 -44.0571 -44.0381 -43.9604
   -43.9388 -43.9091 -43.8929 -43.7671 -43.7491 -43.7296 -43.7130 -43.6944
    -5.4388  -5.0178  -4.7343  -4.1710  -4.1623  -4.0250  -3.9471  -3.9356
    -3.8343  -3.7794  -3.7728  -3.6635  -3.4738  -3.3799  -3.3611  -3.1883
    -3.1354  -2.9836  -2.9310  -2.8346  -2.8007  -2.7496  -2.7101  -2.6306
    -2.5552  -2.4843  -2.3659  -2.2662  -2.1872  -2.0369  -2.0177  -1.8516
    -1.8513  -1.7242  -1.6526  -1.4380  -1.4259  -1.3632  -1.3217  -1.1230
    -1.1109  -0.9638  -0.8423  -0.7496  -0.5115  -0.2714  -0.1640   0.0332
     0.0737   0.3664   0.3888   0.8456   0.9034   0.9837   1.0901   1.1571
     1.2801   1.6475   1.8114   1.8980   2.1678   2.1820   2.3429   2.4110
     2.5767   2.8148   3.1268   3.5884   4.1657   5.3734   5.4176   5.9678
     6.2972

          k = 0.0596 0.1005 0.0000 ( 31930 PWs)   bands (ev):

   -85.2003 -85.1903 -84.8582 -84.8482 -84.5130 -84.5028 -45.1503 -45.1289
   -44.4251 -44.4064 -44.4049 -44.2114 -44.1274 -44.0572 -44.0381 -43.9604
   -43.9388 -43.9091 -43.8929 -43.7671 -43.7492 -43.7296 -43.7130 -43.6944
    -5.1152  -5.0077  -5.0051  -4.1105  -4.1100  -3.9614  -3.8686  -3.8621
    -3.8192  -3.7705  -3.7393  -3.5971  -3.5677  -3.4861  -3.3635  -3.1472
    -3.1389  -2.9482  -2.8733  -2.8166  -2.8164  -2.7878  -2.7360  -2.6522
    -2.6223  -2.4555  -2.3924  -2.2885  -2.1652  -2.1241  -2.0505  -1.8831
    -1.8481  -1.7333  -1.6941  -1.4964  -1.4510  -1.3763  -1.3554  -1.1444
    -1.1240  -0.9913  -0.8366  -0.7822  -0.4672  -0.3166  -0.1337  -0.0044
     0.0634   0.3606   0.4233   0.8930   0.9287   0.9555   1.0881   1.1804
     1.2692   1.6446   1.6891   1.8437   2.0422   2.1689   2.3135   2.4085
     2.5790   2.7865   3.1287   3.5784   4.0407   5.5186   5.8229   5.9438
     6.1434

          k = 0.0596 0.1173 0.0000 ( 31928 PWs)   bands (ev):

   -85.2003 -85.1903 -84.8582 -84.8482 -84.5130 -84.5028 -45.1503 -45.1289
   -44.4250 -44.4064 -44.4049 -44.2114 -44.1274 -44.0571 -44.0381 -43.9604
   -43.9388 -43.9091 -43.8929 -43.7671 -43.7491 -43.7296 -43.7130 -43.6944
    -5.4388  -5.0178  -4.7343  -4.1710  -4.1623  -4.0250  -3.9471  -3.9356
    -3.8343  -3.7794  -3.7728  -3.6635  -3.4738  -3.3799  -3.3611  -3.1883
    -3.1354  -2.9836  -2.9310  -2.8346  -2.8007  -2.7496  -2.7101  -2.6306
    -2.5552  -2.4843  -2.3659  -2.2662  -2.1872  -2.0369  -2.0177  -1.8516
    -1.8513  -1.7242  -1.6526  -1.4380  -1.4259  -1.3632  -1.3217  -1.1230
    -1.1109  -0.9638  -0.8423  -0.7496  -0.5115  -0.2714  -0.1640   0.0332
     0.0737   0.3664   0.3888   0.8456   0.9034   0.9837   1.0901   1.1571
     1.2801   1.6475   1.8114   1.8980   2.1678   2.1820   2.3429   2.4110
     2.5767   2.8148   3.1268   3.5884   4.1657   5.3734   5.4176   5.9677
     6.2972

          k = 0.0596-0.0670 0.0000 ( 31947 PWs)   bands (ev):

   -85.2003 -85.1903 -84.8582 -84.8482 -84.5131 -84.5028 -45.1503 -45.1289
   -44.4247 -44.4063 -44.4048 -44.2114 -44.1273 -44.0570 -44.0381 -43.9603
   -43.9388 -43.9091 -43.8929 -43.7671 -43.7489 -43.7295 -43.7130 -43.6944
    -5.7996  -5.0371  -4.5386  -4.3592  -4.2816  -4.1308  -4.0285  -4.0220
    -3.9691  -3.8514  -3.8398  -3.7422  -3.3868  -3.3448  -3.3034  -3.2101
    -3.1125  -3.0397  -3.0197  -2.8222  -2.7677  -2.7340  -2.6303  -2.6149
    -2.4866  -2.4678  -2.3334  -2.1981  -2.1587  -1.9644  -1.9384  -1.8421
    -1.7843  -1.6615  -1.5608  -1.3793  -1.3774  -1.2358  -1.2168  -1.0797
    -1.0085  -0.8986  -0.8510  -0.6157  -0.6091  -0.2371  -0.1350   0.0534
     0.1318   0.3500   0.4743   0.7266   0.9288   0.9321   1.0983   1.1933
     1.3102   1.6557   1.9878   2.0861   2.1644   2.3094   2.4154   2.5199
     2.5712   2.9668   3.1817   3.6144   4.5158   4.8680   4.9556   5.7886
     6.1927

          k = 0.0596-0.0503 0.0000 ( 31949 PWs)   bands (ev):

   -85.2003 -85.1903 -84.8582 -84.8482 -84.5131 -84.5028 -45.1502 -45.1289
   -44.4244 -44.4062 -44.4048 -44.2115 -44.1272 -44.0568 -44.0381 -43.9601
   -43.9388 -43.9090 -43.8929 -43.7671 -43.7487 -43.7294 -43.7130 -43.6944
    -6.1089  -5.0419  -4.6172  -4.4235  -4.4053  -4.2164  -4.1366  -4.1112
    -4.0940  -3.9573  -3.9558  -3.8500  -3.4337  -3.3558  -3.2482  -3.1944
    -3.1175  -3.0914  -3.0085  -2.8207  -2.7688  -2.7107  -2.5945  -2.5830
    -2.4630  -2.3954  -2.2884  -2.1214  -2.1011  -1.9200  -1.8664  -1.7791
    -1.7572  -1.5092  -1.5058  -1.3573  -1.3182  -1.1614  -1.0323  -0.9438
    -0.8854  -0.8018  -0.7833  -0.6737  -0.3513  -0.3051   0.0255   0.0855
     0.2672   0.3722   0.6204   0.7036   0.9264   0.9603   1.1246   1.2126
     1.3653   1.6665   2.0558   2.1563   2.1681   2.4097   2.4271   2.5694
     2.8086   3.0842   3.5987   3.6236   4.1875   4.4864   5.0797   5.1664
     6.3243

          k = 0.0596-0.0335 0.0000 ( 31955 PWs)   bands (ev):

   -85.2003 -85.1903 -84.8582 -84.8482 -84.5131 -84.5028 -45.1502 -45.1289
   -44.4241 -44.4060 -44.4047 -44.2115 -44.1271 -44.0566 -44.0381 -43.9600
   -43.9388 -43.9090 -43.8929 -43.7671 -43.7484 -43.7294 -43.7130 -43.6944
    -6.3425  -5.0116  -4.7955  -4.5048  -4.4264  -4.2962  -4.2853  -4.2079
    -4.1692  -4.0531  -4.0245  -3.9706  -3.5101  -3.3316  -3.2576  -3.2199
    -3.1513  -3.1211  -2.9464  -2.9236  -2.7540  -2.6661  -2.5861  -2.5279
    -2.4702  -2.3368  -2.2484  -2.0643  -2.0469  -1.8793  -1.7942  -1.7403
    -1.7052  -1.4839  -1.3955  -1.3126  -1.2628  -1.1339  -1.0054  -0.8165
    -0.7778  -0.6559  -0.6524  -0.5597  -0.3372  -0.0133   0.0311   0.2940
     0.4057   0.4401   0.7504   0.8150   1.0118   1.0168   1.2172   1.2190
     1.4825   1.6805   2.0392   2.1338   2.1780   2.3712   2.4483   2.5791
     2.9385   3.2629   3.5065   3.8693   3.9759   4.2738   4.4666   5.8920
     5.9301

          k = 0.0596-0.0168 0.0000 ( 31922 PWs)   bands (ev):

   -85.2003 -85.1903 -84.8582 -84.8482 -84.5131 -84.5028 -45.1502 -45.1289
   -44.4238 -44.4059 -44.4048 -44.2115 -44.1271 -44.0564 -44.0381 -43.9599
   -43.9388 -43.9089 -43.8929 -43.7671 -43.7482 -43.7293 -43.7130 -43.6944
    -6.4870  -4.9401  -4.9120  -4.6063  -4.4574  -4.4210  -4.3276  -4.2703
    -4.2183  -4.1145  -4.0582  -4.0578  -3.5600  -3.3334  -3.2577  -3.2209
    -3.1992  -3.1130  -3.0440  -2.9105  -2.7682  -2.6309  -2.5951  -2.4781
    -2.4700  -2.3031  -2.2292  -2.0456  -2.0100  -1.8360  -1.7553  -1.7018
    -1.6544  -1.4739  -1.3854  -1.2456  -1.2385  -1.1210  -1.0261  -0.7851
    -0.6989  -0.5254  -0.4714  -0.4473  -0.3419   0.0650   0.2643   0.4087
     0.4619   0.5801   0.8018   0.9183   1.1205   1.1815   1.2561   1.4590
     1.7075   1.7358   1.9766   2.0775   2.1902   2.2651   2.4383   2.5167
     2.7152   2.9386   3.5072   3.7812   3.9882   4.2348   5.1295   5.2969
     6.1935

          k = 0.0596-0.0000 0.0000 ( 31925 PWs)   bands (ev):

   -85.2003 -85.1903 -84.8582 -84.8482 -84.5131 -84.5028 -45.1502 -45.1289
   -44.4237 -44.4058 -44.4048 -44.2115 -44.1270 -44.0564 -44.0381 -43.9598
   -43.9388 -43.9089 -43.8929 -43.7671 -43.7481 -43.7293 -43.7130 -43.6944
    -6.5359  -4.9521  -4.8758  -4.6901  -4.4743  -4.4529  -4.3414  -4.2899
    -4.2401  -4.1367  -4.0864  -4.0687  -3.5780  -3.3401  -3.2515  -3.2191
    -3.1892  -3.1199  -3.1091  -2.8999  -2.7782  -2.6190  -2.6030  -2.4792
    -2.4464  -2.2900  -2.2240  -2.0480  -1.9963  -1.8120  -1.7514  -1.6732
    -1.6373  -1.4720  -1.3914  -1.2361  -1.2240  -1.1145  -1.0346  -0.7727
    -0.6738  -0.4832  -0.4036  -0.3949  -0.3425   0.0864   0.3566   0.4615
     0.4904   0.6197   0.8237   0.9222   1.1466   1.3040   1.3473   1.6354
     1.8294   1.9355   1.9403   1.9937   2.1307   2.1946   2.2420   2.4306
     2.6719   2.9351   3.1421   3.7256   4.0726   4.7774   5.0053   5.3423
     5.8519

          k = 0.0596 0.0168 0.0000 ( 31922 PWs)   bands (ev):

   -85.2003 -85.1903 -84.8582 -84.8482 -84.5131 -84.5028 -45.1502 -45.1289
   -44.4238 -44.4059 -44.4048 -44.2115 -44.1271 -44.0564 -44.0381 -43.9599
   -43.9388 -43.9089 -43.8929 -43.7671 -43.7482 -43.7293 -43.7130 -43.6944
    -6.4870  -4.9402  -4.9120  -4.6063  -4.4574  -4.4210  -4.3276  -4.2703
    -4.2183  -4.1145  -4.0582  -4.0578  -3.5600  -3.3334  -3.2577  -3.2209
    -3.1992  -3.1130  -3.0440  -2.9105  -2.7682  -2.6309  -2.5951  -2.4780
    -2.4700  -2.3031  -2.2292  -2.0456  -2.0100  -1.8360  -1.7553  -1.7018
    -1.6544  -1.4739  -1.3854  -1.2456  -1.2385  -1.1210  -1.0261  -0.7851
    -0.6989  -0.5254  -0.4714  -0.4473  -0.3419   0.0650   0.2643   0.4087
     0.4619   0.5801   0.8018   0.9183   1.1205   1.1815   1.2561   1.4590
     1.7075   1.7358   1.9766   2.0775   2.1902   2.2651   2.4383   2.5167
     2.7152   2.9386   3.5072   3.7812   3.9882   4.2348   5.1295   5.2969
     6.1935

          k = 0.0745 0.0419 0.0000 ( 31929 PWs)   bands (ev):

   -85.1979 -85.1927 -84.8558 -84.8506 -84.5106 -84.5053 -45.1451 -45.1341
   -44.4196 -44.4096 -44.3595 -44.2588 -44.0821 -44.0522 -44.0426 -43.9846
   -43.9139 -43.9052 -43.8968 -43.8141 -43.7439 -43.7341 -43.7085 -43.6989
    -5.9268  -5.1963  -4.4899  -4.3762  -4.2727  -4.1791  -4.0528  -4.0424
    -3.9668  -3.9299  -3.7936  -3.7843  -3.3783  -3.2995  -3.1831  -3.1556
    -3.1011  -3.0566  -2.9839  -2.7762  -2.7735  -2.7233  -2.6750  -2.6357
    -2.5244  -2.4454  -2.3879  -2.2634  -2.2459  -2.0385  -1.8982  -1.8791
    -1.7665  -1.7222  -1.5985  -1.5356  -1.3073  -1.2378  -0.9676  -0.9561
    -0.9399  -0.8681  -0.6177  -0.4240  -0.3168  -0.1438   0.0226   0.1201
     0.2389   0.4236   0.6317   0.6479   0.8035   0.8646   0.9795   1.1521
     1.1907   1.2562   2.0173   2.0353   2.1581   2.1650   2.4249   2.4751
     3.0331   3.2667   3.5543   3.6694   4.2543   4.2970   4.8238   5.8499
     5.9182

          k = 0.0745 0.0586 0.0000 ( 31966 PWs)   bands (ev):

   -85.1979 -85.1927 -84.8558 -84.8507 -84.5106 -84.5053 -45.1452 -45.1341
   -44.4198 -44.4096 -44.3596 -44.2588 -44.0822 -44.0524 -44.0426 -43.9845
   -43.9141 -43.9052 -43.8968 -43.8140 -43.7441 -43.7341 -43.7085 -43.6989
    -5.6884  -5.2989  -4.3718  -4.3078  -4.2959  -4.0910  -4.0040  -3.9913
    -3.9363  -3.8195  -3.7372  -3.6864  -3.3588  -3.3469  -3.2379  -3.1496
    -3.0572  -3.0500  -2.9773  -2.8025  -2.7611  -2.7168  -2.6776  -2.6674
    -2.5176  -2.4866  -2.3840  -2.3511  -2.3159  -2.0503  -1.9398  -1.9218
    -1.7855  -1.7748  -1.5922  -1.5622  -1.4225  -1.2300  -1.0598  -1.0545
    -0.9266  -0.9257  -0.6482  -0.5098  -0.5005  -0.1105  -0.1039   0.1435
     0.2005   0.4735   0.5321   0.7054   0.7463   0.8712   0.8918   1.1463
     1.1503   1.2698   1.9934   2.0426   2.1472   2.1830   2.3636   2.4863
     2.8347   3.2066   3.3862   3.6282   4.1909   5.0398   5.0479   5.2541
     5.7868

          k = 0.0745 0.0754 0.0000 ( 31922 PWs)   bands (ev):

   -85.1979 -85.1927 -84.8558 -84.8506 -84.5106 -84.5053 -45.1452 -45.1341
   -44.4200 -44.4095 -44.3597 -44.2587 -44.0823 -44.0525 -44.0425 -43.9845
   -43.9142 -43.9053 -43.8968 -43.8140 -43.7443 -43.7341 -43.7085 -43.6989
    -5.3896  -5.3609  -4.4602  -4.2171  -4.1881  -4.0290  -3.9795  -3.9378
    -3.8960  -3.7340  -3.6946  -3.6081  -3.4529  -3.3525  -3.2550  -3.1681
    -3.0346  -3.0235  -2.9554  -2.8265  -2.7982  -2.7371  -2.7249  -2.6518
    -2.5487  -2.5010  -2.4504  -2.3798  -2.3475  -2.0495  -2.0079  -1.9737
    -1.8762  -1.7800  -1.6000  -1.5788  -1.4993  -1.2478  -1.1478  -1.0859
    -0.9688  -0.9183  -0.8036  -0.6189  -0.3627  -0.1729  -0.0258   0.0847
     0.2688   0.4449   0.4882   0.7216   0.8244   0.9000   0.9871   1.1318
     1.1879   1.2954   1.9030   2.0454   2.0491   2.1062   2.2646   2.4846
     2.4860   3.0467   3.2715   3.3583   4.5997   4.8406   5.4347   5.5504
     5.9509

          k = 0.0745 0.0921 0.0000 ( 31897 PWs)   bands (ev):

   -85.1979 -85.1927 -84.8558 -84.8506 -84.5106 -84.5053 -45.1452 -45.1340
   -44.4202 -44.4095 -44.3598 -44.2587 -44.0823 -44.0526 -44.0425 -43.9845
   -43.9142 -43.9053 -43.8968 -43.8140 -43.7444 -43.7341 -43.7085 -43.6988
    -5.3892  -5.0578  -4.7110  -4.1383  -4.0863  -3.9975  -3.9216  -3.9008
    -3.8742  -3.7294  -3.6861  -3.5485  -3.5067  -3.4244  -3.2582  -3.1822
    -2.9761  -2.9650  -2.9310  -2.8307  -2.8255  -2.7895  -2.7629  -2.6948
    -2.6663  -2.4736  -2.4617  -2.3767  -2.3149  -2.0946  -2.0454  -2.0176
    -1.9461  -1.7641  -1.6346  -1.5814  -1.5303  -1.2636  -1.1962  -1.0661
    -1.0038  -0.9431  -0.8482  -0.6590  -0.2663  -0.1852   0.0415   0.0553
     0.2367   0.3976   0.6622   0.7113   0.8086   0.9279   1.1251   1.1521
     1.3105   1.3546   1.7391   1.7930   2.0491   2.0742   2.1267   2.3263
     2.4821   2.8263   3.2940   3.3365   4.2852   5.2648   5.4767   6.0177
     6.2080

          k = 0.0745 0.1089 0.0000 ( 31897 PWs)   bands (ev):

   -85.1979 -85.1927 -84.8558 -84.8506 -84.5106 -84.5053 -45.1452 -45.1340
   -44.4202 -44.4095 -44.3598 -44.2587 -44.0823 -44.0526 -44.0425 -43.9845
   -43.9142 -43.9053 -43.8968 -43.8140 -43.7444 -43.7341 -43.7085 -43.6988
    -5.3892  -5.0578  -4.7110  -4.1383  -4.0863  -3.9975  -3.9216  -3.9008
    -3.8742  -3.7294  -3.6861  -3.5485  -3.5067  -3.4244  -3.2582  -3.1822
    -2.9761  -2.9650  -2.9310  -2.8306  -2.8255  -2.7895  -2.7629  -2.6948
    -2.6663  -2.4736  -2.4617  -2.3767  -2.3149  -2.0946  -2.0454  -2.0176
    -1.9461  -1.7641  -1.6346  -1.5814  -1.5303  -1.2636  -1.1962  -1.0661
    -1.0038  -0.9431  -0.8482  -0.6590  -0.2663  -0.1852   0.0415   0.0553
     0.2367   0.3976   0.6622   0.7113   0.8086   0.9279   1.1251   1.1521
     1.3105   1.3546   1.7391   1.7930   2.0491   2.0742   2.1267   2.3263
     2.4821   2.8263   3.2940   3.3365   4.2852   5.2648   5.4767   6.0177
     6.2080

          k = 0.0745 0.1256 0.0000 ( 31922 PWs)   bands (ev):

   -85.1979 -85.1927 -84.8558 -84.8506 -84.5106 -84.5053 -45.1452 -45.1341
   -44.4200 -44.4095 -44.3597 -44.2587 -44.0823 -44.0525 -44.0425 -43.9845
   -43.9142 -43.9053 -43.8968 -43.8140 -43.7443 -43.7341 -43.7085 -43.6989
    -5.3896  -5.3609  -4.4602  -4.2171  -4.1881  -4.0290  -3.9795  -3.9378
    -3.8960  -3.7340  -3.6946  -3.6081  -3.4529  -3.3525  -3.2550  -3.1681
    -3.0346  -3.0235  -2.9554  -2.8265  -2.7982  -2.7371  -2.7249  -2.6518
    -2.5487  -2.5010  -2.4504  -2.3798  -2.3475  -2.0495  -2.0079  -1.9737
    -1.8762  -1.7800  -1.6000  -1.5788  -1.4993  -1.2478  -1.1478  -1.0859
    -0.9688  -0.9183  -0.8036  -0.6189  -0.3627  -0.1729  -0.0258   0.0847
     0.2688   0.4449   0.4882   0.7216   0.8244   0.9000   0.9871   1.1318
     1.1879   1.2954   1.9030   2.0455   2.0491   2.1062   2.2646   2.4846
     2.4860   3.0467   3.2715   3.3583   4.5997   4.8406   5.4347   5.5504
     5.9509

          k = 0.0745-0.0586 0.0000 ( 31966 PWs)   bands (ev):

   -85.1979 -85.1927 -84.8558 -84.8507 -84.5106 -84.5053 -45.1452 -45.1341
   -44.4198 -44.4096 -44.3596 -44.2588 -44.0822 -44.0524 -44.0426 -43.9845
   -43.9141 -43.9052 -43.8968 -43.8140 -43.7441 -43.7341 -43.7085 -43.6989
    -5.6884  -5.2989  -4.3718  -4.3078  -4.2959  -4.0910  -4.0040  -3.9913
    -3.9363  -3.8195  -3.7372  -3.6864  -3.3588  -3.3469  -3.2379  -3.1496
    -3.0572  -3.0500  -2.9773  -2.8025  -2.7611  -2.7168  -2.6776  -2.6674
    -2.5176  -2.4866  -2.3840  -2.3511  -2.3159  -2.0503  -1.9398  -1.9218
    -1.7855  -1.7748  -1.5922  -1.5622  -1.4225  -1.2300  -1.0598  -1.0545
    -0.9266  -0.9257  -0.6482  -0.5098  -0.5005  -0.1105  -0.1039   0.1435
     0.2005   0.4735   0.5321   0.7054   0.7463   0.8712   0.8918   1.1463
     1.1503   1.2698   1.9934   2.0426   2.1472   2.1830   2.3636   2.4863
     2.8347   3.2066   3.3862   3.6282   4.1909   5.0398   5.0479   5.2541
     5.7867

          k = 0.0745-0.0419 0.0000 ( 31929 PWs)   bands (ev):

   -85.1979 -85.1927 -84.8558 -84.8506 -84.5106 -84.5053 -45.1451 -45.1341
   -44.4196 -44.4096 -44.3595 -44.2588 -44.0821 -44.0522 -44.0426 -43.9846
   -43.9139 -43.9052 -43.8968 -43.8141 -43.7439 -43.7341 -43.7085 -43.6989
    -5.9268  -5.1963  -4.4899  -4.3762  -4.2727  -4.1791  -4.0528  -4.0424
    -3.9668  -3.9299  -3.7936  -3.7843  -3.3783  -3.2995  -3.1831  -3.1556
    -3.1011  -3.0566  -2.9839  -2.7762  -2.7735  -2.7233  -2.6750  -2.6357
    -2.5244  -2.4454  -2.3879  -2.2634  -2.2459  -2.0385  -1.8982  -1.8791
    -1.7665  -1.7222  -1.5985  -1.5356  -1.3073  -1.2378  -0.9676  -0.9561
    -0.9399  -0.8681  -0.6177  -0.4240  -0.3168  -0.1438   0.0226   0.1201
     0.2389   0.4236   0.6317   0.6479   0.8035   0.8646   0.9795   1.1521
     1.1907   1.2562   2.0173   2.0353   2.1581   2.1650   2.4249   2.4751
     3.0331   3.2667   3.5543   3.6694   4.2543   4.2970   4.8238   5.8499
     5.9182

          k = 0.0745-0.0251 0.0000 ( 31944 PWs)   bands (ev):

   -85.1979 -85.1927 -84.8558 -84.8507 -84.5106 -84.5053 -45.1451 -45.1341
   -44.4193 -44.4097 -44.3594 -44.2589 -44.0821 -44.0521 -44.0427 -43.9846
   -43.9138 -43.9052 -43.8969 -43.8141 -43.7438 -43.7341 -43.7085 -43.6989
    -6.0913  -5.0505  -4.5852  -4.4547  -4.2758  -4.2665  -4.1196  -4.0872
    -4.0130  -3.9786  -3.8834  -3.8342  -3.4039  -3.2566  -3.1749  -3.1571
    -3.1323  -3.0806  -2.9451  -2.8787  -2.7926  -2.7066  -2.6909  -2.5565
    -2.5451  -2.4212  -2.3894  -2.1986  -2.1901  -2.0170  -1.8800  -1.8716
    -1.7260  -1.7236  -1.5581  -1.5281  -1.2834  -1.2073  -0.9785  -0.8853
    -0.8676  -0.7826  -0.5945  -0.2273  -0.1644  -0.1185   0.0602   0.2059
     0.3332   0.3444   0.6531   0.7070   0.9137   0.9192   1.1376   1.1636
     1.2942   1.3840   1.9826   1.9957   2.1297   2.1368   2.4157   2.4407
     2.7476   3.0168   3.5430   3.6815   4.1652   4.4455   5.2171   5.2359
     6.4026

          k = 0.0745-0.0084 0.0000 ( 31937 PWs)   bands (ev):

   -85.1979 -85.1927 -84.8558 -84.8507 -84.5106 -84.5053 -45.1451 -45.1341
   -44.4192 -44.4097 -44.3593 -44.2589 -44.0820 -44.0520 -44.0427 -43.9846
   -43.9138 -43.9051 -43.8969 -43.8142 -43.7437 -43.7341 -43.7085 -43.6989
    -6.1751  -4.8751  -4.6345  -4.6185  -4.2975  -4.2658  -4.1607  -4.1192
    -4.0523  -3.9862  -3.9472  -3.8538  -3.4198  -3.2359  -3.1872  -3.1502
    -3.1058  -3.0920  -2.9936  -2.9062  -2.8260  -2.7083  -2.6980  -2.5639
    -2.5031  -2.4074  -2.3877  -2.1798  -2.1441  -2.0028  -1.8931  -1.8703
    -1.7206  -1.6920  -1.5326  -1.5149  -1.3366  -1.1524  -1.0141  -0.8575
    -0.8244  -0.7011  -0.5304  -0.1205  -0.0942  -0.0445   0.0052   0.2982
     0.3368   0.3856   0.6686   0.7166   0.9687   1.0540   1.1835   1.2541
     1.5410   1.6952   1.8700   1.9333   1.9715   2.1337   2.2049   2.4392
     2.4598   2.9981   3.0656   3.7493   4.2450   4.7893   5.0181   5.8348
     6.0037

          k = 0.0745 0.0084 0.0000 ( 31937 PWs)   bands (ev):

   -85.1979 -85.1927 -84.8558 -84.8507 -84.5106 -84.5053 -45.1451 -45.1341
   -44.4192 -44.4097 -44.3593 -44.2589 -44.0820 -44.0520 -44.0427 -43.9846
   -43.9138 -43.9051 -43.8969 -43.8142 -43.7437 -43.7341 -43.7085 -43.6989
    -6.1751  -4.8751  -4.6345  -4.6185  -4.2975  -4.2658  -4.1607  -4.1192
    -4.0523  -3.9862  -3.9472  -3.8538  -3.4198  -3.2359  -3.1872  -3.1502
    -3.1058  -3.0920  -2.9936  -2.9062  -2.8260  -2.7083  -2.6980  -2.5639
    -2.5031  -2.4074  -2.3877  -2.1798  -2.1441  -2.0028  -1.8931  -1.8703
    -1.7206  -1.6920  -1.5326  -1.5149  -1.3366  -1.1524  -1.0141  -0.8575
    -0.8244  -0.7011  -0.5304  -0.1205  -0.0942  -0.0445   0.0052   0.2982
     0.3368   0.3856   0.6686   0.7166   0.9687   1.0540   1.1835   1.2541
     1.5410   1.6952   1.8700   1.9333   1.9715   2.1337   2.2049   2.4392
     2.4598   2.9981   3.0656   3.7493   4.2450   4.7893   5.0181   5.8349
     6.0037

          k = 0.0745 0.0251 0.0000 ( 31944 PWs)   bands (ev):

   -85.1979 -85.1927 -84.8558 -84.8507 -84.5106 -84.5053 -45.1451 -45.1341
   -44.4193 -44.4097 -44.3594 -44.2589 -44.0821 -44.0521 -44.0427 -43.9846
   -43.9138 -43.9052 -43.8969 -43.8141 -43.7438 -43.7341 -43.7085 -43.6989
    -6.0913  -5.0505  -4.5852  -4.4547  -4.2758  -4.2665  -4.1196  -4.0872
    -4.0130  -3.9786  -3.8834  -3.8342  -3.4039  -3.2566  -3.1749  -3.1571
    -3.1323  -3.0806  -2.9451  -2.8787  -2.7926  -2.7066  -2.6909  -2.5565
    -2.5451  -2.4212  -2.3894  -2.1986  -2.1901  -2.0170  -1.8800  -1.8716
    -1.7260  -1.7236  -1.5581  -1.5281  -1.2834  -1.2073  -0.9785  -0.8853
    -0.8676  -0.7826  -0.5945  -0.2273  -0.1644  -0.1185   0.0602   0.2059
     0.3332   0.3444   0.6531   0.7070   0.9137   0.9192   1.1376   1.1636
     1.2942   1.3840   1.9826   1.9957   2.1297   2.1368   2.4157   2.4407
     2.7476   3.0168   3.5430   3.6815   4.1652   4.4455   5.2171   5.2359
     6.4026

          k =-0.0894-0.0503 0.0000 ( 31928 PWs)   bands (ev):

   -85.1954 -85.1952 -84.8534 -84.8531 -84.5080 -84.5079 -45.1402 -45.1390
   -44.4148 -44.4145 -44.3094 -44.3092 -44.0476 -44.0473 -44.0337 -44.0333
   -43.9011 -43.9010 -43.8642 -43.8641 -43.7391 -43.7390 -43.7037 -43.7036
    -5.5200  -5.5198  -4.3418  -4.3417  -4.1814  -4.1814  -3.9860  -3.9859
    -3.8447  -3.8446  -3.6322  -3.6321  -3.3734  -3.3734  -3.1986  -3.1984
    -3.0619  -3.0618  -2.8603  -2.8603  -2.6834  -2.6832  -2.6136  -2.6134
    -2.5436  -2.5432  -2.4237  -2.4236  -2.3251  -2.3248  -1.9617  -1.9615
    -1.7604  -1.7603  -1.6554  -1.6552  -1.2863  -1.2860  -1.0365  -1.0361
    -0.9215  -0.9210  -0.4729  -0.4728  -0.2930  -0.2924   0.0705   0.0706
     0.4081   0.4082   0.6401   0.6401   0.6917   0.6920   0.8949   0.8950
     1.1267   1.1268   2.0152   2.0154   2.1313   2.1318   2.4286   2.4289
     3.1713   3.1715   3.5840   3.5841   4.3057   4.3059   5.3899   5.3900
     5.9477

          k =-0.0894-0.0335 0.0000 ( 31907 PWs)   bands (ev):

   -85.1954 -85.1952 -84.8534 -84.8531 -84.5080 -84.5079 -45.1402 -45.1390
   -44.4148 -44.4144 -44.3095 -44.3092 -44.0476 -44.0473 -44.0337 -44.0333
   -43.9011 -43.9010 -43.8642 -43.8641 -43.7392 -43.7390 -43.7037 -43.7036
    -5.6727  -5.3112  -4.3508  -4.3500  -4.2194  -4.1425  -3.9980  -3.9911
    -3.9087  -3.7850  -3.6893  -3.6193  -3.3605  -3.3583  -3.2452  -3.1570
    -3.0880  -3.0633  -2.8584  -2.8467  -2.6931  -2.6888  -2.6491  -2.6330
    -2.5399  -2.5293  -2.4668  -2.3792  -2.3335  -2.3068  -1.9753  -1.9724
    -1.7810  -1.7472  -1.6882  -1.6163  -1.3424  -1.2343  -1.0232  -1.0178
    -0.9445  -0.8999  -0.5515  -0.4864  -0.2081  -0.1740   0.0118   0.1567
     0.3822   0.4627   0.5337   0.6096   0.6490   0.8952   0.9124   0.9823
     1.1254   1.1756   1.9736   2.0149   2.0869   2.1433   2.3615   2.4520
     2.8083   3.1773   3.3981   3.6175   4.2007   4.8841   5.1909   5.3436
     5.7691

          k =-0.0894-0.0168 0.0000 ( 31908 PWs)   bands (ev):

   -85.1954 -85.1952 -84.8534 -84.8531 -84.5080 -84.5079 -45.1402 -45.1391
   -44.4149 -44.4143 -44.3095 -44.3092 -44.0477 -44.0472 -44.0337 -44.0333
   -43.9011 -43.9010 -43.8643 -43.8640 -43.7392 -43.7389 -43.7037 -43.7036
    -5.7651  -5.0583  -4.5060  -4.3458  -4.1803  -4.1162  -4.0107  -4.0107
    -3.9495  -3.7683  -3.7444  -3.6283  -3.3526  -3.3293  -3.2688  -3.1441
    -3.1179  -3.0369  -2.8631  -2.8170  -2.7866  -2.7036  -2.6793  -2.6716
    -2.5509  -2.4857  -2.4771  -2.3675  -2.3342  -2.2677  -2.0046  -2.0031
    -1.8054  -1.7445  -1.6872  -1.5907  -1.3979  -1.1942  -1.0078  -0.9858
    -0.9600  -0.8816  -0.5591  -0.5316  -0.1095  -0.0142   0.0045   0.2449
     0.3562   0.4602   0.4641   0.5756   0.7405   0.9547   1.0108   1.1296
     1.2223   1.3872   1.8603   1.9786   1.9875   2.0654   2.2226   2.4506
     2.4557   3.0590   3.1472   3.4755   4.6752   4.7450   5.0142   5.9393
     6.1789

          k =-0.0894 0.0000 0.0000 ( 31902 PWs)   bands (ev):

   -85.1954 -85.1952 -84.8534 -84.8531 -84.5080 -84.5079 -45.1402 -45.1391
   -44.4150 -44.4143 -44.3095 -44.3091 -44.0477 -44.0472 -44.0337 -44.0333
   -43.9011 -43.9010 -43.8643 -43.8640 -43.7393 -43.7389 -43.7037 -43.7036
    -5.7960  -4.8306  -4.7138  -4.3411  -4.1415  -4.1056  -4.0164  -4.0160
    -3.9702  -3.8084  -3.7285  -3.6347  -3.3559  -3.3180  -3.2745  -3.1585
    -3.1102  -2.9727  -2.9040  -2.8437  -2.7982  -2.7258  -2.6927  -2.6851
    -2.5606  -2.4808  -2.4485  -2.3733  -2.3344  -2.2398  -2.0249  -2.0209
    -1.8174  -1.7460  -1.6755  -1.5820  -1.4248  -1.1784  -1.0117  -0.9669
    -0.9612  -0.8736  -0.5476  -0.5458  -0.0796   0.0257   0.0430   0.2939
     0.3289   0.4274   0.4460   0.5686   0.8483   0.9725   1.0463   1.1320
     1.4213   1.6263   1.7370   1.7579   1.9540   2.0637   2.1038   2.3238
     2.4543   2.8822   3.1347   3.5141   4.4698   4.7692   5.4782   5.8748
     6.6211

          k =-0.0894 0.0168 0.0000 ( 31908 PWs)   bands (ev):

   -85.1954 -85.1952 -84.8534 -84.8531 -84.5080 -84.5079 -45.1402 -45.1391
   -44.4149 -44.4143 -44.3095 -44.3092 -44.0477 -44.0472 -44.0337 -44.0333
   -43.9011 -43.9010 -43.8643 -43.8640 -43.7392 -43.7389 -43.7037 -43.7036
    -5.7651  -5.0583  -4.5060  -4.3458  -4.1803  -4.1162  -4.0107  -4.0107
    -3.9495  -3.7683  -3.7444  -3.6284  -3.3526  -3.3293  -3.2688  -3.1441
    -3.1179  -3.0369  -2.8631  -2.8170  -2.7866  -2.7036  -2.6793  -2.6716
    -2.5509  -2.4857  -2.4771  -2.3675  -2.3342  -2.2677  -2.0046  -2.0031
    -1.8054  -1.7445  -1.6872  -1.5907  -1.3979  -1.1942  -1.0078  -0.9858
    -0.9600  -0.8816  -0.5591  -0.5316  -0.1095  -0.0142   0.0045   0.2449
     0.3562   0.4602   0.4641   0.5756   0.7405   0.9547   1.0108   1.1296
     1.2223   1.3872   1.8603   1.9786   1.9875   2.0654   2.2226   2.4506
     2.4557   3.0590   3.1472   3.4756   4.6752   4.7450   5.0142   5.9393
     6.1789

          k =-0.0894 0.0335 0.0000 ( 31907 PWs)   bands (ev):

   -85.1954 -85.1952 -84.8534 -84.8531 -84.5080 -84.5079 -45.1402 -45.1390
   -44.4148 -44.4144 -44.3095 -44.3092 -44.0476 -44.0473 -44.0337 -44.0333
   -43.9011 -43.9010 -43.8642 -43.8641 -43.7392 -43.7390 -43.7037 -43.7036
    -5.6727  -5.3112  -4.3508  -4.3500  -4.2194  -4.1425  -3.9980  -3.9911
    -3.9087  -3.7850  -3.6893  -3.6193  -3.3605  -3.3583  -3.2452  -3.1570
    -3.0880  -3.0633  -2.8584  -2.8467  -2.6931  -2.6888  -2.6491  -2.6330
    -2.5399  -2.5293  -2.4668  -2.3792  -2.3335  -2.3068  -1.9753  -1.9724
    -1.7810  -1.7472  -1.6882  -1.6163  -1.3424  -1.2343  -1.0232  -1.0178
    -0.9445  -0.8999  -0.5515  -0.4864  -0.2081  -0.1740   0.0118   0.1567
     0.3822   0.4627   0.5337   0.6096   0.6490   0.8952   0.9124   0.9823
     1.1254   1.1756   1.9736   2.0149   2.0869   2.1433   2.3615   2.4520
     2.8083   3.1773   3.3981   3.6175   4.2007   4.8841   5.1909   5.3436
     5.7690

          k =-0.0894-0.1508 0.0000 ( 31928 PWs)   bands (ev):

   -85.1954 -85.1952 -84.8534 -84.8531 -84.5080 -84.5079 -45.1402 -45.1390
   -44.4148 -44.4145 -44.3094 -44.3092 -44.0476 -44.0473 -44.0337 -44.0333
   -43.9011 -43.9010 -43.8642 -43.8641 -43.7391 -43.7390 -43.7037 -43.7036
    -5.5200  -5.5199  -4.3418  -4.3417  -4.1814  -4.1814  -3.9860  -3.9859
    -3.8447  -3.8446  -3.6322  -3.6321  -3.3734  -3.3733  -3.1986  -3.1984
    -3.0619  -3.0619  -2.8603  -2.8603  -2.6833  -2.6832  -2.6136  -2.6134
    -2.5435  -2.5433  -2.4237  -2.4236  -2.3250  -2.3248  -1.9617  -1.9615
    -1.7605  -1.7602  -1.6554  -1.6552  -1.2862  -1.2861  -1.0365  -1.0362
    -0.9214  -0.9211  -0.4729  -0.4728  -0.2929  -0.2925   0.0706   0.0706
     0.4081   0.4082   0.6400   0.6403   0.6918   0.6919   0.8949   0.8949
     1.1267   1.1267   2.0152   2.0154   2.1312   2.1318   2.4286   2.4289
     3.1713   3.1715   3.5840   3.5841   4.3057   4.3059   5.3898   5.3901
     5.9477

     the Fermi energy is     1.7572 ev

!    total energy              =   -1722.06534725 Ry
     estimated scf accuracy    <       0.00000860 Ry
     smearing contrib. (-TS)   =      -0.04932409 Ry
     internal energy E=F+TS    =   -1722.01602316 Ry

     The total energy is F=E-TS. E is the sum of the following terms:
     one-electron contribution =  -13498.00053227 Ry
     hartree contribution      =    6781.93281381 Ry
     xc contribution           =    -434.70158367 Ry
     ewald contribution        =    5428.75325961 Ry
     electric field correction =       0.00001936 Ry

     convergence has been achieved in  15 iterations

     negative rho (up, down):  8.072E-04 0.000E+00

     Forces acting on atoms (cartesian axes, Ry/au):

     atom    1 type  1   force =    -0.00000492    0.03776790    0.04445021
     atom    2 type  1   force =     0.00000693    0.03778019    0.04447286
     atom    3 type  2   force =     0.00000084   -0.00919726   -0.05661500
     atom    4 type  2   force =    -0.00000359   -0.00919584   -0.05659277
     atom    5 type  1   force =     0.00000901   -0.03196659   -0.00216218
     atom    6 type  1   force =    -0.00000321   -0.03193841   -0.00232465
     atom    7 type  2   force =     0.00001436    0.00387654    0.01308999
     atom    8 type  2   force =    -0.00000616    0.00387973    0.01308481
     atom    9 type  1   force =     0.00000495   -0.00013204   -0.00065814
     atom   10 type  1   force =    -0.00000127   -0.00009525   -0.00087084
     atom   11 type  2   force =    -0.00000818   -0.00038474    0.00205916
     atom   12 type  2   force =    -0.00000876   -0.00039424    0.00206655

     Total force =     0.125775     Total SCF correction =     0.005388

     Writing output data file ./Os2Au2/Os2Au2_beef.save/

     init_run     :     94.56s CPU     95.26s WALL (       1 calls)
     electrons    :   3378.55s CPU   3401.57s WALL (       1 calls)
     forces       :     67.35s CPU     67.74s WALL (       1 calls)

     Called by init_run:
     wfcinit      :     82.23s CPU     82.65s WALL (       1 calls)
     potinit      :      8.44s CPU      8.54s WALL (       1 calls)
     hinit0       :      2.07s CPU      2.08s WALL (       1 calls)

     Called by electrons:
     c_bands      :   2972.92s CPU   2988.16s WALL (      15 calls)
     sum_band     :    370.50s CPU    374.75s WALL (      15 calls)
     v_of_rho     :     25.78s CPU     27.02s WALL (      16 calls)
     newd         :     16.07s CPU     17.83s WALL (      16 calls)
     mix_rho      :      0.60s CPU      0.64s WALL (      15 calls)
     vdW_kernel   :      5.93s CPU      5.94s WALL (       1 calls)

     Called by c_bands:
     init_us_2    :     10.48s CPU     10.61s WALL (    2368 calls)
     cegterg      :   2936.64s CPU   2949.62s WALL (    1110 calls)

     Called by *egterg:
     cdiaghg      :    127.15s CPU    127.31s WALL (    4598 calls)
     h_psi        :   1508.18s CPU   1517.28s WALL (    4672 calls)
     s_psi        :    456.51s CPU    457.38s WALL (    4672 calls)
     g_psi        :      1.07s CPU      1.09s WALL (    3488 calls)

     Called by h_psi:
     h_psi:calbec :    530.70s CPU    532.70s WALL (    4672 calls)
     vloc_psi     :    513.65s CPU    519.82s WALL (    4672 calls)
     add_vuspsi   :    458.48s CPU    459.32s WALL (    4672 calls)

     General routines
     calbec       :    815.47s CPU    818.55s WALL (    6078 calls)
     fft          :     15.06s CPU     15.69s WALL (    1067 calls)
     ffts         :      0.08s CPU      0.08s WALL (      31 calls)
     fftw         :    587.57s CPU    594.53s WALL (  612534 calls)
     interpolate  :      0.22s CPU      0.23s WALL (      16 calls)

     Parallel routines
     fft_scatt_xy :     47.36s CPU     47.87s WALL (  613632 calls)
     fft_scatt_yz :    175.94s CPU    179.05s WALL (  613632 calls)

     PWSCF        :  59m14.25s CPU  59m59.95s WALL


   This run was terminated on:   6:22:55  11Jul2022            

=------------------------------------------------------------------------------=
   JOB DONE.
=------------------------------------------------------------------------------=
