
     Program PWSCF v.6.6 starts on 10Jul2022 at 16:27: 7 

     This program is part of the open-source Quantum ESPRESSO suite
     for quantum simulation of materials; please cite
         "P. Giannozzi et al., J. Phys.:Condens. Matter 21 395502 (2009);
         "P. Giannozzi et al., J. Phys.:Condens. Matter 29 465901 (2017);
          URL http://www.quantum-espresso.org", 
     in publications or presentations arising from this work. More details at
     http://www.quantum-espresso.org/quote

     Parallel version (MPI), running on    37 processors

     MPI processes distributed on     1 nodes
     R & G space division:  proc/nbgrp/npool/nimage =      37
     Fft bands division:     nmany     =       1
     Reading input from Os2Hg2.in
Warning: card &CELL ignored
Warning: card / ignored

     Current dimensions of program PWSCF are:
     Max number of different atomic species (ntypx) = 10
     Max number of k-points (npk) =  40000
     Max angular momentum in pseudopotentials (lmaxx) =  3
     Presently stress not available with electric field and gates

     Message from routine cell_base_init:
     DEPRECATED: use true lattice parameter, not A to a.u. conversion factor
     file Hg.pbe-n-rrkjus_psl.1.0.0.UPF: wavefunction(s)  6S renormalized

     **************************************************************************
     Initializing libbeef V0.1.2 with the BEEF-vdW functional.
     Citation: Wellendorff et al., PRB 85, 235149 (2012).
     **************************************************************************


     IMPORTANT: XC functional enforced from input :
     Exchange-correlation= BEEF-VDW
                           (   1   4  43  14   2   0   0)
     Any further DFT definition will be discarded
     Please, verify this is what you really want


     Subspace diagonalization in iterative solution of the eigenvalue problem:
     a serial algorithm will be used


     Parallelization info
     --------------------
     sticks:   dense  smooth     PW     G-vecs:    dense   smooth      PW
     Min         126      50     14                29472     7454    1150
     Max         127      51     15                29485     7477    1169
     Sum        4683    1871    541              1090671   276187   42871



     bravais-lattice index     =            0
     lattice parameter (alat)  =       1.8897  a.u.
     unit-cell volume          =    4991.1829 (a.u.)^3
     number of atoms/cell      =           12
     number of atomic types    =            2
     number of electrons       =       168.00
     number of Kohn-Sham states=          101
     kinetic-energy cutoff     =      55.1240  Ry
     charge density cutoff     =     551.2396  Ry
     convergence threshold     =      1.0E-05
     mixing beta               =       0.1000
     number of iterations used =           10  plain     mixing
     Exchange-correlation= BEEF-VDW
                           (   1   4  43  14   2   0   0)

     celldm(1)=   1.889726  celldm(2)=   0.000000  celldm(3)=   0.000000
     celldm(4)=   0.000000  celldm(5)=   0.000000  celldm(6)=   0.000000

     crystal axes: (cart. coord. in units of alat)
               a(1) = (   5.681364   0.000000   0.000000 )  
               a(2) = (  -2.840682   5.253711   0.000000 )  
               a(3) = (   0.000000   0.000000  24.779251 )  

     reciprocal axes: (cart. coord. in units 2 pi/alat)
               b(1) = (  0.176014  0.095171 -0.000000 )  
               b(2) = (  0.000000  0.190342  0.000000 )  
               b(3) = (  0.000000 -0.000000  0.040356 )  


     PseudoPot. # 1 for Os read from file:
     ../pseudo/Os.pbe-spn-rrkjus_psl.1.0.0.UPF
     MD5 check sum: 3e7416ed594f6513d36e5cb31ba709d9
     Pseudo is Ultrasoft + core correction, Zval = 16.0
     Generated using "atomic" code by A. Dal Corso v.6.2.2
     Using radial grid of 1275 points,  6 beta functions with: 
                l(1) =   0
                l(2) =   0
                l(3) =   1
                l(4) =   1
                l(5) =   2
                l(6) =   2
     Q(r) pseudized with 0 coefficients 


     PseudoPot. # 2 for Hg read from file:
     ../pseudo/Hg.pbe-n-rrkjus_psl.1.0.0.UPF
     MD5 check sum: 7519ac2e5b9cac440d3cfd4127d6ea3c
     Pseudo is Ultrasoft + core correction, Zval = 12.0
     Generated using "atomic" code by A. Dal Corso v.6.3
     Using radial grid of 1279 points,  6 beta functions with: 
                l(1) =   0
                l(2) =   0
                l(3) =   1
                l(4) =   1
                l(5) =   2
                l(6) =   2
     Q(r) pseudized with 0 coefficients 


     atomic species   valence    mass     pseudopotential
        Os            16.00   190.23000     Os( 1.00)
        Hg            12.00   200.59200     Hg( 1.00)

     No symmetry found



   Cartesian axes

     site n.     atom                  positions (alat units)
         1           Os  tau(   1) = (   0.0000000   0.0000000  10.0000000  )
         2           Os  tau(   2) = (   2.8406820   0.0000000  10.0000000  )
         3           Hg  tau(   3) = (   1.4203410   2.6268556  10.0000000  )
         4           Hg  tau(   4) = (  -1.4203410   2.6268556  10.0000000  )
         5           Os  tau(   5) = (   2.8406820   1.5359570  12.3896256  )
         6           Os  tau(   6) = (   0.0000000   1.5359570  12.3896256  )
         7           Hg  tau(   7) = (  -1.4203410   4.1628126  12.3896256  )
         8           Hg  tau(   8) = (   1.4203410   4.1628126  12.3896256  )
         9           Os  tau(   9) = (  -0.0000366   2.3075118  14.5375448  )
        10           Os  tau(  10) = (   2.8407526   2.3076599  14.5376998  )
        11           Hg  tau(  11) = (   1.4204620   5.0157413  15.4009052  )
        12           Hg  tau(  12) = (  -1.4204460   5.0158377  15.4008992  )

     number of k points=    74  Fermi-Dirac smearing, width (Ry)=  0.0100
                       cart. coord. in units 2pi/alat
        k(    1) = (   0.0000000   0.0000000   0.0000000), wk =   0.0138889
        k(    2) = (   0.0000000   0.0158618   0.0000000), wk =   0.0277778
        k(    3) = (   0.0000000   0.0317236   0.0000000), wk =   0.0277778
        k(    4) = (   0.0000000   0.0475854   0.0000000), wk =   0.0277778
        k(    5) = (   0.0000000   0.0634472   0.0000000), wk =   0.0277778
        k(    6) = (   0.0000000   0.0793090   0.0000000), wk =   0.0277778
        k(    7) = (   0.0000000  -0.0951708   0.0000000), wk =   0.0138889
        k(    8) = (   0.0146678   0.0079309   0.0000000), wk =   0.0277778
        k(    9) = (   0.0146678   0.0237927   0.0000000), wk =   0.0277778
        k(   10) = (   0.0146678   0.0396545   0.0000000), wk =   0.0277778
        k(   11) = (   0.0146678   0.0555163   0.0000000), wk =   0.0277778
        k(   12) = (   0.0146678   0.0713781   0.0000000), wk =   0.0277778
        k(   13) = (   0.0146678   0.0872399   0.0000000), wk =   0.0277778
        k(   14) = (   0.0146678  -0.0872399   0.0000000), wk =   0.0277778
        k(   15) = (   0.0146678  -0.0713781   0.0000000), wk =   0.0277778
        k(   16) = (   0.0146678  -0.0555163   0.0000000), wk =   0.0277778
        k(   17) = (   0.0146678  -0.0396545   0.0000000), wk =   0.0277778
        k(   18) = (   0.0146678  -0.0237927   0.0000000), wk =   0.0277778
        k(   19) = (   0.0146678  -0.0079309   0.0000000), wk =   0.0277778
        k(   20) = (   0.0293357   0.0158618   0.0000000), wk =   0.0277778
        k(   21) = (   0.0293357   0.0317236   0.0000000), wk =   0.0277778
        k(   22) = (   0.0293357   0.0475854   0.0000000), wk =   0.0277778
        k(   23) = (   0.0293357   0.0634472   0.0000000), wk =   0.0277778
        k(   24) = (   0.0293357   0.0793090   0.0000000), wk =   0.0277778
        k(   25) = (   0.0293357   0.0951708   0.0000000), wk =   0.0277778
        k(   26) = (   0.0293357  -0.0793090   0.0000000), wk =   0.0277778
        k(   27) = (   0.0293357  -0.0634472   0.0000000), wk =   0.0277778
        k(   28) = (   0.0293357  -0.0475854   0.0000000), wk =   0.0277778
        k(   29) = (   0.0293357  -0.0317236   0.0000000), wk =   0.0277778
        k(   30) = (   0.0293357  -0.0158618   0.0000000), wk =   0.0277778
        k(   31) = (   0.0293357  -0.0000000   0.0000000), wk =   0.0277778
        k(   32) = (   0.0440035   0.0237927   0.0000000), wk =   0.0277778
        k(   33) = (   0.0440035   0.0396545   0.0000000), wk =   0.0277778
        k(   34) = (   0.0440035   0.0555163   0.0000000), wk =   0.0277778
        k(   35) = (   0.0440035   0.0713781   0.0000000), wk =   0.0277778
        k(   36) = (   0.0440035   0.0872399   0.0000000), wk =   0.0277778
        k(   37) = (   0.0440035   0.1031017   0.0000000), wk =   0.0277778
        k(   38) = (   0.0440035  -0.0713781   0.0000000), wk =   0.0277778
        k(   39) = (   0.0440035  -0.0555163   0.0000000), wk =   0.0277778
        k(   40) = (   0.0440035  -0.0396545   0.0000000), wk =   0.0277778
        k(   41) = (   0.0440035  -0.0237927   0.0000000), wk =   0.0277778
        k(   42) = (   0.0440035  -0.0079309   0.0000000), wk =   0.0277778
        k(   43) = (   0.0440035   0.0079309   0.0000000), wk =   0.0277778
        k(   44) = (   0.0586714   0.0317236   0.0000000), wk =   0.0277778
        k(   45) = (   0.0586714   0.0475854   0.0000000), wk =   0.0277778
        k(   46) = (   0.0586714   0.0634472   0.0000000), wk =   0.0277778
        k(   47) = (   0.0586714   0.0793090   0.0000000), wk =   0.0277778
        k(   48) = (   0.0586714   0.0951708   0.0000000), wk =   0.0277778
        k(   49) = (   0.0586714   0.1110326   0.0000000), wk =   0.0277778
        k(   50) = (   0.0586714  -0.0634472   0.0000000), wk =   0.0277778
        k(   51) = (   0.0586714  -0.0475854   0.0000000), wk =   0.0277778
        k(   52) = (   0.0586714  -0.0317236   0.0000000), wk =   0.0277778
        k(   53) = (   0.0586714  -0.0158618   0.0000000), wk =   0.0277778
        k(   54) = (   0.0586714   0.0000000   0.0000000), wk =   0.0277778
        k(   55) = (   0.0586714   0.0158618   0.0000000), wk =   0.0277778
        k(   56) = (   0.0733392   0.0396545   0.0000000), wk =   0.0277778
        k(   57) = (   0.0733392   0.0555163   0.0000000), wk =   0.0277778
        k(   58) = (   0.0733392   0.0713781   0.0000000), wk =   0.0277778
        k(   59) = (   0.0733392   0.0872399   0.0000000), wk =   0.0277778
        k(   60) = (   0.0733392   0.1031017   0.0000000), wk =   0.0277778
        k(   61) = (   0.0733392   0.1189635   0.0000000), wk =   0.0277778
        k(   62) = (   0.0733392  -0.0555163   0.0000000), wk =   0.0277778
        k(   63) = (   0.0733392  -0.0396545   0.0000000), wk =   0.0277778
        k(   64) = (   0.0733392  -0.0237927   0.0000000), wk =   0.0277778
        k(   65) = (   0.0733392  -0.0079309   0.0000000), wk =   0.0277778
        k(   66) = (   0.0733392   0.0079309   0.0000000), wk =   0.0277778
        k(   67) = (   0.0733392   0.0237927   0.0000000), wk =   0.0277778
        k(   68) = (  -0.0880070  -0.0475854   0.0000000), wk =   0.0138889
        k(   69) = (  -0.0880070  -0.0317236   0.0000000), wk =   0.0277778
        k(   70) = (  -0.0880070  -0.0158618   0.0000000), wk =   0.0277778
        k(   71) = (  -0.0880070   0.0000000   0.0000000), wk =   0.0277778
        k(   72) = (  -0.0880070   0.0158618   0.0000000), wk =   0.0277778
        k(   73) = (  -0.0880070   0.0317236   0.0000000), wk =   0.0277778
        k(   74) = (  -0.0880070  -0.1427562   0.0000000), wk =   0.0138889

     Dense  grid:  1090671 G-vectors     FFT dimensions: (  81,  90, 360)

     Smooth grid:   276187 G-vectors     FFT dimensions: (  54,  54, 225)

     Estimated max dynamical RAM per process >     225.49 MB

     Estimated total dynamical RAM >       8.15 GB

     Initial potential from superposition of free atoms

     starting charge  167.99805, renormalised to  168.00000

     negative rho (up, down):  1.239E-03 0.000E+00


     %%%%%%%%%%%%%%%%%%%%%%%%%%%%%%%%%%%%%%%%%%%%%%%%%%%%%%%%%%%%%%%%%%%%%%%%
     %                                                                      %
     % You are using vdW-DF, which was implemented by the Thonhauser group. %
     % Please cite the following two papers that made this development      %
     % possible and the two reviews that describe the various versions:     %
     %                                                                      %
     %   T. Thonhauser et al., PRL 115, 136402 (2015).                      %
     %   T. Thonhauser et al., PRB 76, 125112 (2007).                       %
     %   K. Berland et al., Rep. Prog. Phys. 78, 066501 (2015).             %
     %   D.C. Langreth et al., J. Phys.: Condens. Matter 21, 084203 (2009). %
     %                                                                      %
     %                                                                      %
     % If you are calculating the stress with vdW-DF, please also cite:     %
     %                                                                      %
     %   R. Sabatini et al., J. Phys.: Condens. Matter 24, 424209 (2012).   %
     %                                                                      %
     %%%%%%%%%%%%%%%%%%%%%%%%%%%%%%%%%%%%%%%%%%%%%%%%%%%%%%%%%%%%%%%%%%%%%%%%



     Adding external electric field

     Computed dipole along edir(3) : 
        Dipole               -0.0002 Ry au,         -0.0005 Debye
        Dipole field         -0.0000 Ry au, 

        Potential amp.        0.0000 Ry
        Total length         45.6553 bohr

     Starting wfcs are  114 randomized atomic wfcs

     total cpu time spent up to now is      781.5 secs

     Self-consistent Calculation

     iteration #  1     ecut=    55.12 Ry     beta= 0.10
     Davidson diagonalization with overlap
     ethr =  1.00E-02,  avg # of iterations =  4.2

     negative rho (up, down):  1.111E-03 0.000E+00

     Adding external electric field

     Computed dipole along edir(3) : 
        Dipole                0.8280 Ry au,          2.1046 Debye
        Dipole field          0.0021 Ry au, 

        Potential amp.       -0.1904 Ry
        Total length         45.6553 bohr


     total cpu time spent up to now is     2599.5 secs

     total energy              =   -1809.34470923 Ry
     estimated scf accuracy    <       3.20078692 Ry

     iteration #  2     ecut=    55.12 Ry     beta= 0.10
     Davidson diagonalization with overlap
     ethr =  1.91E-03,  avg # of iterations =  2.2

     negative rho (up, down):  1.093E-03 0.000E+00

     Adding external electric field

     Computed dipole along edir(3) : 
        Dipole                0.0348 Ry au,          0.0884 Debye
        Dipole field          0.0001 Ry au, 

        Potential amp.       -0.0080 Ry
        Total length         45.6553 bohr


     total cpu time spent up to now is     4339.0 secs

     total energy              =   -1809.20992077 Ry
     estimated scf accuracy    <      17.85214251 Ry

     iteration #  3     ecut=    55.12 Ry     beta= 0.10
     Davidson diagonalization with overlap
     ethr =  1.91E-03,  avg # of iterations =  1.1

     negative rho (up, down):  1.052E-03 0.000E+00

     Adding external electric field

     Computed dipole along edir(3) : 
        Dipole                0.1973 Ry au,          0.5015 Debye
        Dipole field          0.0005 Ry au, 

        Potential amp.       -0.0454 Ry
        Total length         45.6553 bohr


     total cpu time spent up to now is     5811.1 secs

     total energy              =   -1809.50583064 Ry
     estimated scf accuracy    <       2.33139897 Ry

     iteration #  4     ecut=    55.12 Ry     beta= 0.10
     Davidson diagonalization with overlap
     ethr =  1.39E-03,  avg # of iterations =  1.0

     negative rho (up, down):  1.032E-03 0.000E+00

     Adding external electric field

     Computed dipole along edir(3) : 
        Dipole                0.1998 Ry au,          0.5079 Debye
        Dipole field          0.0005 Ry au, 

        Potential amp.       -0.0459 Ry
        Total length         45.6553 bohr


     total cpu time spent up to now is     7285.2 secs

     total energy              =   -1809.58119456 Ry
     estimated scf accuracy    <       0.12579118 Ry

     iteration #  5     ecut=    55.12 Ry     beta= 0.10
     Davidson diagonalization with overlap
     c_bands:  1 eigenvalues not converged
     c_bands:  1 eigenvalues not converged
     c_bands:  1 eigenvalues not converged
     c_bands:  1 eigenvalues not converged
     ethr =  7.49E-05,  avg # of iterations =  8.6

     negative rho (up, down):  1.026E-03 0.000E+00

     Adding external electric field

     Computed dipole along edir(3) : 
        Dipole                0.1644 Ry au,          0.4180 Debye
        Dipole field          0.0004 Ry au, 

        Potential amp.       -0.0378 Ry
        Total length         45.6553 bohr


     total cpu time spent up to now is     9854.7 secs

     total energy              =   -1809.61171007 Ry
     estimated scf accuracy    <       0.08068760 Ry

     iteration #  6     ecut=    55.12 Ry     beta= 0.10
     Davidson diagonalization with overlap
     ethr =  4.80E-05,  avg # of iterations =  1.8

     negative rho (up, down):  1.042E-03 0.000E+00

     Adding external electric field

     Computed dipole along edir(3) : 
        Dipole                0.1733 Ry au,          0.4406 Debye
        Dipole field          0.0004 Ry au, 

        Potential amp.       -0.0398 Ry
        Total length         45.6553 bohr


     total cpu time spent up to now is    11417.8 secs

     total energy              =   -1809.61058652 Ry
     estimated scf accuracy    <       0.04861180 Ry

     iteration #  7     ecut=    55.12 Ry     beta= 0.10
     Davidson diagonalization with overlap
     ethr =  2.89E-05,  avg # of iterations =  2.2

     negative rho (up, down):  1.067E-03 0.000E+00

     Adding external electric field

     Computed dipole along edir(3) : 
        Dipole                0.1681 Ry au,          0.4272 Debye
        Dipole field          0.0004 Ry au, 

        Potential amp.       -0.0386 Ry
        Total length         45.6553 bohr


     total cpu time spent up to now is    13003.2 secs

     total energy              =   -1809.61283836 Ry
     estimated scf accuracy    <       0.02260238 Ry

     iteration #  8     ecut=    55.12 Ry     beta= 0.10
     Davidson diagonalization with overlap
     c_bands:  1 eigenvalues not converged
     c_bands:  1 eigenvalues not converged
     c_bands:  1 eigenvalues not converged
     c_bands:  1 eigenvalues not converged
     ethr =  1.35E-05,  avg # of iterations =  6.2

     negative rho (up, down):  1.069E-03 0.000E+00

     Adding external electric field

     Computed dipole along edir(3) : 
        Dipole                0.1684 Ry au,          0.4279 Debye
        Dipole field          0.0004 Ry au, 

        Potential amp.       -0.0387 Ry
        Total length         45.6553 bohr


     total cpu time spent up to now is    14833.9 secs

     total energy              =   -1809.61436723 Ry
     estimated scf accuracy    <       0.00529390 Ry

     iteration #  9     ecut=    55.12 Ry     beta= 0.10
     Davidson diagonalization with overlap
     c_bands:  1 eigenvalues not converged
     c_bands:  1 eigenvalues not converged
     ethr =  3.15E-06,  avg # of iterations =  8.7

     negative rho (up, down):  1.090E-03 0.000E+00

     Adding external electric field

     Computed dipole along edir(3) : 
        Dipole                0.1619 Ry au,          0.4115 Debye
        Dipole field          0.0004 Ry au, 

        Potential amp.       -0.0372 Ry
        Total length         45.6553 bohr


     total cpu time spent up to now is    17086.7 secs

     total energy              =   -1809.61570023 Ry
     estimated scf accuracy    <       0.00228701 Ry

     iteration # 10     ecut=    55.12 Ry     beta= 0.10
     Davidson diagonalization with overlap
     ethr =  1.36E-06,  avg # of iterations =  3.8

     negative rho (up, down):  1.082E-03 0.000E+00

     Adding external electric field

     Computed dipole along edir(3) : 
        Dipole                0.1625 Ry au,          0.4130 Debye
        Dipole field          0.0004 Ry au, 

        Potential amp.       -0.0374 Ry
        Total length         45.6553 bohr


     total cpu time spent up to now is    18943.3 secs

     total energy              =   -1809.61582701 Ry
     estimated scf accuracy    <       0.00063804 Ry

     iteration # 11     ecut=    55.12 Ry     beta= 0.10
     Davidson diagonalization with overlap
     ethr =  3.80E-07,  avg # of iterations =  4.6

     negative rho (up, down):  1.078E-03 0.000E+00

     Adding external electric field

     Computed dipole along edir(3) : 
        Dipole                0.1632 Ry au,          0.4148 Debye
        Dipole field          0.0004 Ry au, 

        Potential amp.       -0.0375 Ry
        Total length         45.6553 bohr


     total cpu time spent up to now is    20961.1 secs

     total energy              =   -1809.61596271 Ry
     estimated scf accuracy    <       0.00016298 Ry

     iteration # 12     ecut=    55.12 Ry     beta= 0.10
     Davidson diagonalization with overlap
     ethr =  9.70E-08,  avg # of iterations =  5.1

     negative rho (up, down):  1.076E-03 0.000E+00

     Adding external electric field

     Computed dipole along edir(3) : 
        Dipole                0.1635 Ry au,          0.4156 Debye
        Dipole field          0.0004 Ry au, 

        Potential amp.       -0.0376 Ry
        Total length         45.6553 bohr


     total cpu time spent up to now is    23275.0 secs

     total energy              =   -1809.61602148 Ry
     estimated scf accuracy    <       0.00011925 Ry

     iteration # 13     ecut=    55.12 Ry     beta= 0.10
     Davidson diagonalization with overlap
     ethr =  7.10E-08,  avg # of iterations =  2.0

     negative rho (up, down):  1.073E-03 0.000E+00

     Adding external electric field

     Computed dipole along edir(3) : 
        Dipole                0.1624 Ry au,          0.4129 Debye
        Dipole field          0.0004 Ry au, 

        Potential amp.       -0.0373 Ry
        Total length         45.6553 bohr


     total cpu time spent up to now is    25007.0 secs

     total energy              =   -1809.61602277 Ry
     estimated scf accuracy    <       0.00007655 Ry

     iteration # 14     ecut=    55.12 Ry     beta= 0.10
     Davidson diagonalization with overlap
     ethr =  4.56E-08,  avg # of iterations =  2.0

     negative rho (up, down):  1.069E-03 0.000E+00

     Adding external electric field

     Computed dipole along edir(3) : 
        Dipole                0.1615 Ry au,          0.4105 Debye
        Dipole field          0.0004 Ry au, 

        Potential amp.       -0.0371 Ry
        Total length         45.6553 bohr


     total cpu time spent up to now is    26772.7 secs

     total energy              =   -1809.61602287 Ry
     estimated scf accuracy    <       0.00002831 Ry

     iteration # 15     ecut=    55.12 Ry     beta= 0.10
     Davidson diagonalization with overlap
     ethr =  1.69E-08,  avg # of iterations =  2.3

     negative rho (up, down):  1.048E-03 0.000E+00

     Adding external electric field

     Computed dipole along edir(3) : 
        Dipole                0.1654 Ry au,          0.4203 Debye
        Dipole field          0.0004 Ry au, 

        Potential amp.       -0.0380 Ry
        Total length         45.6553 bohr


     total cpu time spent up to now is    28574.3 secs

     End of self-consistent calculation

          k = 0.0000 0.0000 0.0000 ( 34565 PWs)   bands (ev):

   -84.9134 -84.8971 -84.6612 -84.6452 -84.1957 -84.1792 -45.0125 -44.9764
   -44.2164 -44.0638 -44.0309 -43.9816 -43.8830 -43.8477 -43.8168 -43.7388
   -43.7060 -43.6793 -43.6619 -43.5058 -43.4736 -43.4096 -43.3399 -43.3082
    -7.6473  -7.0215  -6.8639  -6.8633  -6.7314  -6.6337  -6.5194  -6.3938
    -6.3769  -6.1821  -6.1107  -5.9255  -5.8328  -5.7365  -5.7258  -5.5350
    -5.4328  -5.4115  -5.3488  -5.1868  -5.1602  -5.0646  -5.0402  -5.0290
    -4.8515  -4.8349  -4.7882  -4.6283  -4.5581  -4.4954  -4.4153  -4.0132
    -3.0472  -2.7239  -2.5933  -2.4286  -2.3921  -1.9404  -1.7592  -1.6004
    -1.2529  -1.1572  -1.0815  -1.0171  -0.3501  -0.2267   0.0932   0.1632
     0.2337   0.6435   0.7247   0.9446   1.0289   1.1868   1.4110   1.5465
     1.7183   1.9287   1.9568   2.0255   2.0570   2.2014   2.2102   2.2405
     2.3438   2.4032   2.9796   3.3071   3.3108   3.3819   3.5750   4.1434
     4.2852   4.5275   4.6577   4.8790   5.0373

          k = 0.0000 0.0159 0.0000 ( 34527 PWs)   bands (ev):

   -84.9134 -84.8971 -84.6612 -84.6452 -84.1957 -84.1792 -45.0125 -44.9764
   -44.2164 -44.0639 -44.0309 -43.9816 -43.8830 -43.8477 -43.8168 -43.7388
   -43.7060 -43.6792 -43.6619 -43.5059 -43.4736 -43.4096 -43.3399 -43.3082
    -7.6145  -7.0138  -6.8477  -6.8473  -6.7174  -6.6297  -6.5049  -6.3815
    -6.3656  -6.1777  -6.0946  -5.9224  -5.8306  -5.7227  -5.7165  -5.5355
    -5.4298  -5.3924  -5.3342  -5.1831  -5.1672  -5.0610  -5.0406  -5.0228
    -4.8477  -4.8360  -4.7766  -4.6286  -4.5552  -4.4936  -4.4155  -4.0132
    -3.0539  -2.7477  -2.6004  -2.4617  -2.4432  -1.9406  -1.7810  -1.6402
    -1.2551  -1.1974  -1.1183  -1.0200  -0.4080  -0.3942   0.0894   0.1165
     0.2914   0.6675   0.6952   0.7644   0.9680   1.1743   1.1858   1.5952
     1.6668   1.6989   1.7956   1.9274   1.9351   2.2010   2.3231   2.3947
     2.3995   2.4514   2.8978   3.3123   3.4856   3.5252   3.8375   4.2185
     4.2288   4.6324   4.6325   4.9981   5.1384

          k = 0.0000 0.0317 0.0000 ( 34495 PWs)   bands (ev):

   -84.9134 -84.8971 -84.6612 -84.6452 -84.1957 -84.1792 -45.0125 -44.9764
   -44.2165 -44.0640 -44.0309 -43.9816 -43.8830 -43.8477 -43.8168 -43.7389
   -43.7060 -43.6793 -43.6619 -43.5060 -43.4736 -43.4096 -43.3399 -43.3082
    -7.5259  -6.9932  -6.8053  -6.7981  -6.6763  -6.6187  -6.4622  -6.3440
    -6.3331  -6.1659  -6.0513  -5.9145  -5.8240  -5.6891  -5.6810  -5.5369
    -5.4242  -5.3402  -5.2969  -5.1811  -5.1734  -5.0508  -5.0412  -5.0112
    -4.8390  -4.8371  -4.7311  -4.6292  -4.5466  -4.4889  -4.4159  -4.0131
    -3.1053  -2.8129  -2.6814  -2.5840  -2.4899  -1.9397  -1.8479  -1.7511
    -1.3155  -1.2628  -1.2023  -1.0285  -0.7139  -0.5363  -0.0258   0.0787
     0.2793   0.5154   0.5644   0.6126   0.7831   0.8359   1.0295   1.3163
     1.3608   1.5838   1.6466   1.8527   2.1310   2.1972   2.2686   2.3900
     2.6489   2.6540   2.8607   3.3162   3.7457   3.7719   3.9097   4.1922
     4.3605   4.8147   4.9767   5.2953   5.5337

          k = 0.0000 0.0476 0.0000 ( 34485 PWs)   bands (ev):

   -84.9134 -84.8971 -84.6612 -84.6452 -84.1957 -84.1792 -45.0125 -44.9765
   -44.2165 -44.0642 -44.0310 -43.9817 -43.8830 -43.8478 -43.8168 -43.7389
   -43.7060 -43.6792 -43.6620 -43.5062 -43.4737 -43.4096 -43.3399 -43.3082
    -7.4115  -6.9662  -6.7531  -6.7170  -6.6113  -6.6016  -6.3910  -6.2846
    -6.2804  -6.1504  -5.9936  -5.9050  -5.8133  -5.6472  -5.6138  -5.5389
    -5.4154  -5.2706  -5.2614  -5.1907  -5.1608  -5.0423  -5.0361  -5.0024
    -4.8444  -4.8223  -4.6299  -4.6258  -4.5334  -4.4824  -4.4167  -4.0126
    -3.3518  -2.9039  -2.8130  -2.6132  -2.5733  -1.9840  -1.9320  -1.8864
    -1.4924  -1.2970  -1.2761  -1.0468  -0.9919  -0.6858  -0.2514  -0.0018
     0.0638   0.1157   0.2647   0.5043   0.5862   0.7591   0.9653   0.9745
     1.2060   1.5432   1.5773   1.9189   2.1768   2.2071   2.3061   2.3795
     2.4595   2.8532   3.3181   3.3211   3.4686   3.8588   4.0470   4.3507
     4.9126   4.9894   5.0670   6.0426   6.0918

          k = 0.0000 0.0634 0.0000 ( 34486 PWs)   bands (ev):

   -84.9134 -84.8971 -84.6612 -84.6452 -84.1957 -84.1792 -45.0126 -44.9765
   -44.2166 -44.0644 -44.0310 -43.9817 -43.8830 -43.8478 -43.8169 -43.7390
   -43.7061 -43.6792 -43.6620 -43.5063 -43.4738 -43.4096 -43.3399 -43.3082
    -7.3121  -6.9407  -6.7079  -6.6391  -6.5694  -6.5342  -6.2915  -6.2322
    -6.1775  -6.1356  -5.9371  -5.8959  -5.8010  -5.6082  -5.5409  -5.5340
    -5.3887  -5.2461  -5.2189  -5.1771  -5.1490  -5.0481  -5.0205  -4.9971
    -4.8521  -4.8073  -4.6304  -4.5184  -4.4756  -4.4641  -4.4176  -4.0115
    -3.7748  -2.9994  -2.8576  -2.6864  -2.6333  -2.1905  -1.9946  -1.9092
    -1.6674  -1.3909  -1.2920  -1.1797  -1.0897  -0.8249  -0.4933  -0.2973
    -0.2174  -0.1453   0.0483   0.4062   0.5253   0.6803   0.7319   0.9133
     1.2776   1.5098   1.5231   2.0225   2.1145   2.1848   2.3659   2.3725
     2.3899   2.8744   3.3256   3.4690   3.6287   3.7120   4.2673   4.6664
     5.0009   5.1437   5.5540   6.0884   6.5712

          k = 0.0000 0.0793 0.0000 ( 34458 PWs)   bands (ev):

   -84.9134 -84.8971 -84.6612 -84.6452 -84.1957 -84.1792 -45.0126 -44.9765
   -44.2167 -44.0645 -44.0311 -43.9817 -43.8831 -43.8478 -43.8169 -43.7391
   -43.7061 -43.6792 -43.6620 -43.5065 -43.4739 -43.4096 -43.3399 -43.3081
    -7.2522  -6.9231  -6.6785  -6.6106  -6.5249  -6.4693  -6.2209  -6.1927
    -6.1253  -5.9896  -5.8962  -5.8882  -5.7912  -5.6123  -5.5425  -5.4686
    -5.3189  -5.2404  -5.2056  -5.1410  -5.1376  -5.0610  -5.0085  -4.9946
    -4.8603  -4.7963  -4.6304  -4.5055  -4.4705  -4.4631  -4.4185  -4.0101
    -3.9883  -3.0736  -2.9944  -2.7911  -2.6157  -2.3296  -2.0903  -1.8704
    -1.7817  -1.4733  -1.3123  -1.2898  -1.1615  -0.9234  -0.6528  -0.5310
    -0.4282  -0.3488   0.0366   0.3351   0.4731   0.4989   0.6999   0.8831
     1.3695   1.4613   1.5197   2.0634   2.1097   2.1727   2.3349   2.3693
     2.4219   2.8350   3.3287   3.5618   3.6025   3.7319   4.5364   4.8495
     4.9416   5.2861   6.0484   6.1054   6.6789

          k = 0.0000-0.0952 0.0000 ( 34524 PWs)   bands (ev):

   -84.9134 -84.8971 -84.6612 -84.6452 -84.1957 -84.1792 -45.0126 -44.9765
   -44.2167 -44.0646 -44.0311 -43.9817 -43.8831 -43.8479 -43.8169 -43.7391
   -43.7061 -43.6792 -43.6620 -43.5065 -43.4739 -43.4096 -43.3399 -43.3082
    -7.2330  -6.9170  -6.6684  -6.6047  -6.5077  -6.4437  -6.1995  -6.1785
    -6.1216  -5.8847  -5.8812  -5.8518  -5.7874  -5.6512  -5.5431  -5.4440
    -5.2724  -5.2143  -5.2007  -5.1381  -5.1204  -5.0738  -5.0040  -4.9948
    -4.8641  -4.7923  -4.6304  -4.6243  -4.5002  -4.4685  -4.4189  -4.0094
    -3.9106  -3.1215  -3.1019  -2.8341  -2.5949  -2.3540  -2.1411  -1.8462
    -1.8198  -1.5095  -1.3303  -1.3269  -1.1989  -0.9588  -0.7005  -0.6171
    -0.4998  -0.4055   0.0323   0.3052   0.4412   0.4541   0.6857   0.8738
     1.4067   1.4438   1.5203   2.0446   2.1385   2.1681   2.3295   2.3684
     2.4297   2.8361   3.3298   3.5628   3.5818   3.7521   4.6587   4.8872
     4.9394   5.3524   6.0049   6.3526   6.6937

          k = 0.0147 0.0079 0.0000 ( 34546 PWs)   bands (ev):

   -84.9131 -84.8974 -84.6609 -84.6455 -84.1954 -84.1794 -45.0119 -44.9771
   -44.2109 -44.0633 -44.0315 -43.9763 -43.8888 -43.8472 -43.8173 -43.7333
   -43.7056 -43.6797 -43.6675 -43.5053 -43.4741 -43.4153 -43.3393 -43.3087
    -7.5905  -6.9768  -6.8409  -6.8334  -6.7090  -6.5904  -6.5039  -6.3801
    -6.3555  -6.1859  -6.1046  -5.9074  -5.8151  -5.7314  -5.7119  -5.5191
    -5.4282  -5.4056  -5.3392  -5.2185  -5.1671  -5.0955  -5.0369  -5.0295
    -4.8810  -4.8402  -4.7661  -4.6405  -4.5754  -4.5216  -4.4384  -4.0501
    -3.0368  -2.7202  -2.5840  -2.4581  -2.3668  -2.1137  -1.7286  -1.5598
    -1.4268  -1.1356  -1.0601  -1.0281  -0.3963  -0.2268   0.0323   0.1410
     0.2811   0.6045   0.7437   0.8727   0.9884   1.1897   1.2585   1.5075
     1.5267   1.7558   1.8019   1.9069   2.0429   2.0942   2.1941   2.3658
     2.4472   2.6663   2.8442   3.1627   3.2713   3.6687   3.7095   3.8544
     4.5957   4.7254   4.8872   4.9159   5.0056

          k = 0.0147 0.0238 0.0000 ( 34545 PWs)   bands (ev):

   -84.9131 -84.8974 -84.6609 -84.6455 -84.1954 -84.1794 -45.0119 -44.9771
   -44.2109 -44.0634 -44.0315 -43.9763 -43.8888 -43.8472 -43.8173 -43.7334
   -43.7056 -43.6797 -43.6675 -43.5054 -43.4742 -43.4153 -43.3393 -43.3087
    -7.5272  -6.9620  -6.8109  -6.8020  -6.6815  -6.5833  -6.4763  -6.3553
    -6.3337  -6.1779  -6.0749  -5.9014  -5.8105  -5.7051  -5.6947  -5.5200
    -5.4241  -5.3696  -5.3116  -5.2126  -5.1783  -5.0895  -5.0374  -5.0200
    -4.8740  -4.8422  -4.7419  -4.6385  -4.5700  -4.5173  -4.4385  -4.0503
    -3.0552  -2.7655  -2.6081  -2.4982  -2.4928  -2.1098  -1.7725  -1.6388
    -1.4325  -1.2458  -1.1231  -1.0154  -0.4917  -0.4699  -0.0081   0.0494
     0.3628   0.5404   0.6388   0.7086   0.8366   1.0096   1.0200   1.3299
     1.5015   1.6195   1.6998   1.9414   1.9768   2.1889   2.2654   2.3696
     2.5229   2.7087   2.7785   3.2728   3.3502   3.8029   3.9578   3.9624
     4.6760   4.7533   4.9938   5.1496   5.1578

          k = 0.0147 0.0397 0.0000 ( 34512 PWs)   bands (ev):

   -84.9131 -84.8974 -84.6609 -84.6455 -84.1954 -84.1794 -45.0119 -44.9771
   -44.2109 -44.0635 -44.0315 -43.9763 -43.8888 -43.8472 -43.8174 -43.7334
   -43.7056 -43.6797 -43.6675 -43.5055 -43.4742 -43.4153 -43.3393 -43.3087
    -7.4205  -6.9368  -6.7619  -6.7378  -6.6283  -6.5715  -6.4210  -6.3051
    -6.2928  -6.1644  -6.0247  -5.8922  -5.8013  -5.6614  -5.6529  -5.5217
    -5.4182  -5.3080  -5.2741  -5.2011  -5.1907  -5.0780  -5.0381  -5.0101
    -4.8617  -4.8464  -4.6882  -4.6230  -4.5598  -4.5085  -4.4385  -4.0507
    -3.1746  -2.8447  -2.7391  -2.5830  -2.5767  -2.0989  -1.8643  -1.7748
    -1.4464  -1.4211  -1.2118  -1.0219  -0.7717  -0.5937  -0.1221  -0.0365
     0.1611   0.1781   0.5094   0.6348   0.6488   0.7195   0.9438   1.1652
     1.2258   1.5471   1.6815   1.8618   2.1858   2.1883   2.2293   2.3124
     2.5044   2.8732   3.1472   3.2725   3.4972   3.6548   3.8915   4.3266
     4.8004   5.0919   5.1030   5.5298   5.7190

          k = 0.0147 0.0555 0.0000 ( 34472 PWs)   bands (ev):

   -84.9131 -84.8974 -84.6609 -84.6455 -84.1954 -84.1794 -45.0119 -44.9771
   -44.2110 -44.0637 -44.0316 -43.9763 -43.8888 -43.8473 -43.8174 -43.7335
   -43.7056 -43.6797 -43.6675 -43.5057 -43.4743 -43.4153 -43.3393 -43.3087
    -7.3090  -6.9088  -6.7118  -6.6490  -6.5565  -6.5554  -6.3345  -6.2409
    -6.2262  -6.1497  -5.9686  -5.8826  -5.7891  -5.6196  -5.5816  -5.5236
    -5.4043  -5.2546  -5.2432  -5.1929  -5.1852  -5.0636  -5.0404  -5.0037
    -4.8528  -4.8480  -4.6593  -4.5466  -4.5416  -4.4800  -4.4353  -4.0507
    -3.5270  -2.9389  -2.8106  -2.7093  -2.6030  -2.0751  -2.0407  -1.8991
    -1.6105  -1.4716  -1.3058  -1.0621  -0.9506  -0.7306  -0.3790  -0.1902
    -0.1503  -0.0483   0.0900   0.5077   0.5811   0.6816   0.8719   0.9994
     1.1916   1.5190   1.5930   1.9211   2.1315   2.1927   2.3077   2.3125
     2.4259   2.9769   3.2847   3.3425   3.4954   3.6893   4.1231   4.7126
     5.0141   5.0879   5.2392   6.0027   6.1296

          k = 0.0147 0.0714 0.0000 ( 34475 PWs)   bands (ev):

   -84.9131 -84.8974 -84.6609 -84.6454 -84.1954 -84.1794 -45.0119 -44.9771
   -44.2111 -44.0639 -44.0316 -43.9764 -43.8888 -43.8473 -43.8174 -43.7335
   -43.7056 -43.6797 -43.6675 -43.5059 -43.4744 -43.4153 -43.3393 -43.3087
    -7.2289  -6.8861  -6.6739  -6.5816  -6.5324  -6.4806  -6.2436  -6.1933
    -6.1375  -6.0809  -5.9216  -5.8735  -5.7773  -5.5990  -5.5266  -5.5092
    -5.3593  -5.2528  -5.2145  -5.1728  -5.1633  -5.0531  -5.0454  -5.0002
    -4.8606  -4.8378  -4.6559  -4.5335  -4.5103  -4.4457  -4.3742  -4.0504
    -3.8960  -3.0246  -2.8831  -2.8451  -2.6051  -2.2335  -2.0349  -1.9986
    -1.7566  -1.5103  -1.3977  -1.1335  -1.0259  -0.8462  -0.6528  -0.4053
    -0.4030  -0.2440  -0.0277   0.3821   0.5219   0.6020   0.7956   0.9139
     1.2824   1.5098   1.5333   1.9869   2.0709   2.1842   2.3110   2.3225
     2.4294   2.9303   3.2921   3.3019   3.5820   3.8217   4.4611   4.9367
     5.0093   5.3462   5.4522   6.1064   6.4543

          k = 0.0147 0.0872 0.0000 ( 34509 PWs)   bands (ev):

   -84.9131 -84.8974 -84.6609 -84.6455 -84.1954 -84.1794 -45.0120 -44.9771
   -44.2111 -44.0640 -44.0317 -43.9764 -43.8889 -43.8473 -43.8174 -43.7336
   -43.7056 -43.6797 -43.6675 -43.5059 -43.4745 -43.4153 -43.3393 -43.3087
    -7.1905  -6.8738  -6.6538  -6.5625  -6.5058  -6.4320  -6.2002  -6.1655
    -6.1309  -5.8955  -5.8858  -5.8661  -5.7702  -5.6324  -5.5269  -5.4661
    -5.2849  -5.2468  -5.2067  -5.1647  -5.1335  -5.0566  -5.0487  -4.9998
    -4.8667  -4.8364  -4.6621  -4.5354  -4.5248  -4.4899  -4.4399  -4.0499
    -3.8951  -3.0766  -3.0471  -2.9343  -2.5755  -2.3119  -2.0773  -1.9905
    -1.8388  -1.5484  -1.4630  -1.1661  -1.0722  -0.9123  -0.8121  -0.5616
    -0.5061  -0.3567  -0.0413   0.3050   0.4867   0.5416   0.7592   0.8879
     1.3274   1.5095   1.5208   1.9972   2.0599   2.1863   2.3017   2.3192
     2.4437   2.9189   3.2452   3.3050   3.6458   3.8554   4.6525   4.9799
     5.0033   5.4813   5.8737   6.0531   6.5936

          k = 0.0147-0.0872 0.0000 ( 34509 PWs)   bands (ev):

   -84.9131 -84.8974 -84.6609 -84.6455 -84.1954 -84.1794 -45.0120 -44.9771
   -44.2111 -44.0640 -44.0317 -43.9764 -43.8889 -43.8473 -43.8174 -43.7336
   -43.7056 -43.6797 -43.6675 -43.5059 -43.4745 -43.4153 -43.3393 -43.3087
    -7.1905  -6.8738  -6.6538  -6.5625  -6.5058  -6.4320  -6.2002  -6.1655
    -6.1309  -5.8955  -5.8858  -5.8661  -5.7702  -5.6324  -5.5269  -5.4661
    -5.2850  -5.2468  -5.2067  -5.1647  -5.1335  -5.0567  -5.0487  -4.9998
    -4.8667  -4.8364  -4.6621  -4.5354  -4.5248  -4.4899  -4.4399  -4.0499
    -3.8951  -3.0766  -3.0471  -2.9343  -2.5755  -2.3119  -2.0773  -1.9905
    -1.8388  -1.5484  -1.4630  -1.1661  -1.0722  -0.9123  -0.8121  -0.5616
    -0.5061  -0.3567  -0.0413   0.3050   0.4867   0.5416   0.7592   0.8879
     1.3274   1.5095   1.5208   1.9972   2.0599   2.1863   2.3017   2.3192
     2.4437   2.9189   3.2452   3.3050   3.6458   3.8554   4.6525   4.9799
     5.0033   5.4813   5.8738   6.0530   6.5935

          k = 0.0147-0.0714 0.0000 ( 34475 PWs)   bands (ev):

   -84.9131 -84.8974 -84.6609 -84.6454 -84.1954 -84.1794 -45.0119 -44.9771
   -44.2111 -44.0639 -44.0316 -43.9764 -43.8888 -43.8473 -43.8174 -43.7335
   -43.7056 -43.6797 -43.6675 -43.5059 -43.4744 -43.4153 -43.3393 -43.3087
    -7.2289  -6.8861  -6.6739  -6.5816  -6.5324  -6.4806  -6.2436  -6.1933
    -6.1375  -6.0809  -5.9216  -5.8735  -5.7773  -5.5990  -5.5266  -5.5092
    -5.3593  -5.2528  -5.2145  -5.1728  -5.1633  -5.0531  -5.0454  -5.0002
    -4.8606  -4.8378  -4.6559  -4.5335  -4.5103  -4.4457  -4.3742  -4.0504
    -3.8960  -3.0246  -2.8831  -2.8451  -2.6051  -2.2335  -2.0349  -1.9986
    -1.7566  -1.5103  -1.3977  -1.1335  -1.0259  -0.8462  -0.6528  -0.4053
    -0.4030  -0.2440  -0.0277   0.3821   0.5219   0.6020   0.7956   0.9139
     1.2824   1.5098   1.5333   1.9869   2.0709   2.1842   2.3110   2.3225
     2.4294   2.9303   3.2921   3.3019   3.5820   3.8217   4.4611   4.9367
     5.0093   5.3462   5.4522   6.1063   6.4539

          k = 0.0147-0.0555 0.0000 ( 34472 PWs)   bands (ev):

   -84.9131 -84.8974 -84.6609 -84.6455 -84.1954 -84.1794 -45.0119 -44.9771
   -44.2110 -44.0637 -44.0316 -43.9763 -43.8888 -43.8473 -43.8174 -43.7335
   -43.7056 -43.6797 -43.6675 -43.5057 -43.4743 -43.4153 -43.3393 -43.3087
    -7.3090  -6.9088  -6.7118  -6.6490  -6.5565  -6.5554  -6.3345  -6.2409
    -6.2262  -6.1497  -5.9686  -5.8826  -5.7891  -5.6196  -5.5816  -5.5236
    -5.4043  -5.2546  -5.2432  -5.1929  -5.1852  -5.0636  -5.0404  -5.0037
    -4.8528  -4.8480  -4.6593  -4.5466  -4.5416  -4.4800  -4.4353  -4.0507
    -3.5270  -2.9389  -2.8106  -2.7093  -2.6030  -2.0751  -2.0407  -1.8991
    -1.6105  -1.4716  -1.3058  -1.0621  -0.9506  -0.7306  -0.3790  -0.1902
    -0.1503  -0.0483   0.0900   0.5077   0.5811   0.6816   0.8719   0.9994
     1.1916   1.5190   1.5930   1.9211   2.1315   2.1927   2.3077   2.3125
     2.4259   2.9769   3.2847   3.3425   3.4954   3.6893   4.1231   4.7126
     5.0141   5.0879   5.2392   6.0026   6.1296

          k = 0.0147-0.0397 0.0000 ( 34512 PWs)   bands (ev):

   -84.9131 -84.8974 -84.6609 -84.6455 -84.1954 -84.1794 -45.0119 -44.9771
   -44.2109 -44.0635 -44.0315 -43.9763 -43.8888 -43.8472 -43.8174 -43.7334
   -43.7056 -43.6797 -43.6675 -43.5055 -43.4742 -43.4153 -43.3393 -43.3087
    -7.4205  -6.9368  -6.7619  -6.7378  -6.6283  -6.5715  -6.4210  -6.3051
    -6.2928  -6.1644  -6.0247  -5.8922  -5.8013  -5.6614  -5.6529  -5.5217
    -5.4182  -5.3080  -5.2741  -5.2011  -5.1907  -5.0780  -5.0381  -5.0101
    -4.8617  -4.8464  -4.6882  -4.6230  -4.5598  -4.5085  -4.4385  -4.0507
    -3.1746  -2.8447  -2.7391  -2.5830  -2.5767  -2.0989  -1.8643  -1.7748
    -1.4464  -1.4211  -1.2118  -1.0219  -0.7717  -0.5937  -0.1221  -0.0365
     0.1611   0.1781   0.5094   0.6348   0.6488   0.7195   0.9438   1.1652
     1.2258   1.5471   1.6815   1.8618   2.1858   2.1883   2.2293   2.3124
     2.5044   2.8732   3.1472   3.2725   3.4972   3.6548   3.8915   4.3266
     4.8004   5.0919   5.1030   5.5298   5.7188

          k = 0.0147-0.0238 0.0000 ( 34545 PWs)   bands (ev):

   -84.9131 -84.8974 -84.6609 -84.6455 -84.1954 -84.1794 -45.0119 -44.9771
   -44.2109 -44.0634 -44.0315 -43.9763 -43.8888 -43.8472 -43.8173 -43.7334
   -43.7056 -43.6797 -43.6675 -43.5054 -43.4742 -43.4153 -43.3393 -43.3087
    -7.5272  -6.9620  -6.8109  -6.8020  -6.6815  -6.5833  -6.4763  -6.3553
    -6.3337  -6.1779  -6.0749  -5.9014  -5.8105  -5.7051  -5.6947  -5.5200
    -5.4241  -5.3696  -5.3116  -5.2126  -5.1783  -5.0895  -5.0374  -5.0200
    -4.8740  -4.8422  -4.7419  -4.6385  -4.5700  -4.5173  -4.4385  -4.0503
    -3.0552  -2.7655  -2.6081  -2.4982  -2.4928  -2.1098  -1.7725  -1.6388
    -1.4325  -1.2458  -1.1231  -1.0154  -0.4917  -0.4699  -0.0081   0.0494
     0.3628   0.5404   0.6388   0.7086   0.8366   1.0096   1.0200   1.3299
     1.5015   1.6195   1.6998   1.9414   1.9768   2.1889   2.2654   2.3696
     2.5229   2.7087   2.7785   3.2728   3.3502   3.8029   3.9578   3.9624
     4.6760   4.7533   4.9938   5.1495   5.1578

          k = 0.0147-0.0079 0.0000 ( 34546 PWs)   bands (ev):

   -84.9131 -84.8974 -84.6609 -84.6455 -84.1954 -84.1794 -45.0119 -44.9771
   -44.2109 -44.0633 -44.0315 -43.9763 -43.8888 -43.8472 -43.8173 -43.7333
   -43.7056 -43.6797 -43.6675 -43.5053 -43.4741 -43.4153 -43.3393 -43.3087
    -7.5905  -6.9768  -6.8409  -6.8334  -6.7090  -6.5904  -6.5039  -6.3801
    -6.3555  -6.1859  -6.1046  -5.9074  -5.8151  -5.7314  -5.7119  -5.5191
    -5.4282  -5.4056  -5.3392  -5.2185  -5.1671  -5.0955  -5.0369  -5.0295
    -4.8810  -4.8402  -4.7661  -4.6405  -4.5754  -4.5216  -4.4384  -4.0501
    -3.0368  -2.7202  -2.5840  -2.4581  -2.3668  -2.1137  -1.7286  -1.5598
    -1.4268  -1.1356  -1.0601  -1.0281  -0.3963  -0.2268   0.0324   0.1410
     0.2810   0.6045   0.7437   0.8727   0.9884   1.1897   1.2585   1.5075
     1.5267   1.7558   1.8019   1.9069   2.0429   2.0942   2.1941   2.3659
     2.4472   2.6663   2.8442   3.1627   3.2713   3.6687   3.7095   3.8544
     4.5957   4.7254   4.8871   4.9159   5.0055

          k = 0.0293 0.0159 0.0000 ( 34543 PWs)   bands (ev):

   -84.9123 -84.8982 -84.6601 -84.6463 -84.1946 -84.1803 -45.0101 -44.9789
   -44.1945 -44.0617 -44.0331 -43.9606 -43.9058 -43.8457 -43.8189 -43.7172
   -43.7044 -43.6837 -43.6810 -43.5037 -43.4758 -43.4321 -43.3377 -43.3103
    -7.4222  -6.8510  -6.7757  -6.7428  -6.6431  -6.4650  -6.4572  -6.3379
    -6.2937  -6.1960  -6.0885  -5.8553  -5.7651  -5.7160  -5.6749  -5.4724
    -5.4230  -5.3903  -5.3128  -5.2985  -5.1860  -5.1770  -5.0332  -5.0287
    -4.9573  -4.8557  -4.7655  -4.6401  -4.6297  -4.5824  -4.5022  -4.1651
    -3.0063  -2.7542  -2.6296  -2.5642  -2.4281  -2.2904  -1.7659  -1.6482
    -1.4421  -1.2427  -1.0310  -0.9848  -0.5074  -0.2838  -0.1027   0.0667
     0.3807   0.5755   0.6503   0.7069   0.8871   0.9708   1.0487   1.2285
     1.4039   1.5374   1.6130   1.7629   1.9181   2.1384   2.1485   2.4584
     2.5423   2.6436   2.9702   2.9879   3.1754   3.3819   4.0010   4.0852
     4.7399   4.7920   5.1150   5.1628   5.3871

          k = 0.0293 0.0317 0.0000 ( 34548 PWs)   bands (ev):

   -84.9123 -84.8982 -84.6601 -84.6463 -84.1946 -84.1803 -45.0101 -44.9789
   -44.1946 -44.0618 -44.0332 -43.9607 -43.9058 -43.8457 -43.8189 -43.7172
   -43.7044 -43.6837 -43.6810 -43.5039 -43.4758 -43.4321 -43.3377 -43.3103
    -7.3328  -6.8289  -6.7363  -6.7030  -6.6040  -6.4543  -6.4224  -6.3014
    -6.2640  -6.1858  -6.0515  -5.8468  -5.7561  -5.6847  -5.6550  -5.4736
    -5.4189  -5.3439  -5.3040  -5.2686  -5.1968  -5.1714  -5.0294  -5.0252
    -4.9503  -4.8588  -4.7508  -4.6324  -4.6236  -4.5509  -4.4974  -4.1667
    -3.0484  -2.8390  -2.7195  -2.6198  -2.4442  -2.3902  -1.7678  -1.7121
    -1.5576  -1.4084  -1.0544  -1.0056  -0.5795  -0.5281  -0.2016  -0.0279
     0.1959   0.3388   0.5936   0.6003   0.7413   0.7684   0.9573   1.0876
     1.3182   1.5136   1.6650   1.9386   1.9753   2.1259   2.2263   2.4273
     2.4443   2.7228   2.9828   3.0778   3.1867   3.5390   4.0121   4.1661
     4.7659   5.1198   5.3227   5.3768   5.5604

          k = 0.0293 0.0476 0.0000 ( 34487 PWs)   bands (ev):

   -84.9123 -84.8982 -84.6601 -84.6463 -84.1946 -84.1803 -45.0101 -44.9789
   -44.1946 -44.0620 -44.0332 -43.9607 -43.9058 -43.8457 -43.8189 -43.7173
   -43.7044 -43.6837 -43.6810 -43.5040 -43.4759 -43.4321 -43.3377 -43.3103
    -7.2178  -6.7975  -6.6861  -6.6378  -6.5414  -6.4453  -6.3555  -6.2389
    -6.2200  -6.1716  -6.0035  -5.8374  -5.7433  -5.6334  -5.6235  -5.4753
    -5.4115  -5.3066  -5.2838  -5.2286  -5.2041  -5.1621  -5.0303  -5.0190
    -4.9419  -4.8637  -4.7348  -4.6188  -4.6147  -4.5171  -4.4478  -4.1691
    -3.2575  -2.9743  -2.8300  -2.7215  -2.5204  -2.3439  -1.8261  -1.7809
    -1.7062  -1.5737  -1.1419  -1.0342  -0.8170  -0.6065  -0.2657  -0.2580
    -0.1421   0.0754   0.3034   0.4774   0.6506   0.7636   0.9164   1.0684
     1.1596   1.4948   1.6972   1.8185   2.1099   2.1612   2.1756   2.3098
     2.3926   2.9439   3.0662   3.2713   3.4466   3.6798   3.6834   4.4822
     4.8686   5.2375   5.3883   5.8325   6.0137

          k = 0.0293 0.0634 0.0000 ( 34486 PWs)   bands (ev):

   -84.9123 -84.8982 -84.6601 -84.6463 -84.1946 -84.1803 -45.0101 -44.9789
   -44.1947 -44.0621 -44.0332 -43.9607 -43.9058 -43.8457 -43.8190 -43.7174
   -43.7044 -43.6837 -43.6810 -43.5042 -43.4760 -43.4321 -43.3377 -43.3103
    -7.1206  -6.7672  -6.6412  -6.5606  -6.4650  -6.4369  -6.2659  -6.1776
    -6.1518  -6.1331  -5.9585  -5.8286  -5.7296  -5.5940  -5.5745  -5.4770
    -5.3906  -5.3128  -5.2372  -5.2069  -5.1954  -5.1496  -5.0317  -5.0156
    -4.9366  -4.8698  -4.7259  -4.6064  -4.6052  -4.5120  -4.3277  -4.1718
    -3.6240  -3.1361  -2.9302  -2.7671  -2.5399  -2.2900  -2.0193  -1.8351
    -1.8161  -1.6719  -1.2396  -1.1337  -0.9500  -0.7057  -0.5848  -0.3247
    -0.3042  -0.1335  -0.0194   0.3646   0.6012   0.7545   0.8563   1.0417
     1.1507   1.4835   1.6522   1.7956   2.0255   2.1295   2.2603   2.2997
     2.3970   2.9140   3.0440   3.3232   3.6332   3.6588   4.2413   4.6016
     5.1348   5.1837   5.6539   5.9251   6.1563

          k = 0.0293 0.0793 0.0000 ( 34466 PWs)   bands (ev):

   -84.9123 -84.8982 -84.6601 -84.6463 -84.1946 -84.1803 -45.0102 -44.9789
   -44.1947 -44.0623 -44.0333 -43.9607 -43.9058 -43.8458 -43.8190 -43.7174
   -43.7044 -43.6837 -43.6810 -43.5043 -43.4760 -43.4321 -43.3377 -43.3103
    -7.0645  -6.7472  -6.6117  -6.5060  -6.4309  -6.3982  -6.2027  -6.1596
    -6.1235  -5.9524  -5.9273  -5.8204  -5.7193  -5.6030  -5.5281  -5.4782
    -5.3504  -5.3032  -5.2231  -5.2049  -5.1671  -5.1397  -5.0320  -5.0147
    -4.9392  -4.8754  -4.7264  -4.6011  -4.5973  -4.5118  -4.3349  -4.1740
    -3.7997  -3.2677  -3.0011  -2.8791  -2.5177  -2.2336  -2.1729  -1.9222
    -1.8979  -1.6920  -1.3268  -1.2391  -1.0381  -0.7829  -0.7572  -0.4434
    -0.4209  -0.2277  -0.1722   0.2827   0.5583   0.7327   0.8072   0.9857
     1.2047   1.4802   1.6277   1.8142   1.9540   2.1096   2.2770   2.2977
     2.4280   2.8630   3.0261   3.2949   3.6640   3.7913   4.6054   4.8933
     5.1133   5.2581   5.9341   6.0561   6.1773

          k = 0.0293 0.0952 0.0000 ( 34494 PWs)   bands (ev):

   -84.9123 -84.8982 -84.6601 -84.6463 -84.1946 -84.1803 -45.0102 -44.9789
   -44.1948 -44.0623 -44.0333 -43.9607 -43.9058 -43.8458 -43.8190 -43.7174
   -43.7044 -43.6837 -43.6810 -43.5043 -43.4761 -43.4321 -43.3377 -43.3103
    -7.0471  -6.7404  -6.6014  -6.4881  -6.4287  -6.3710  -6.1828  -6.1552
    -6.1115  -5.9161  -5.8216  -5.8165  -5.7155  -5.6453  -5.5107  -5.4788
    -5.3420  -5.2637  -5.2199  -5.2095  -5.1537  -5.1372  -5.0294  -5.0152
    -4.9475  -4.8778  -4.7334  -4.6038  -4.5942  -4.5138  -4.4336  -4.1749
    -3.7481  -3.3181  -3.0272  -2.9804  -2.4986  -2.2115  -2.2033  -1.9660
    -1.9375  -1.6917  -1.3638  -1.2817  -1.0800  -0.8123  -0.8030  -0.4986
    -0.4634  -0.2667  -0.1967   0.2527   0.5432   0.7168   0.7942   0.9697
     1.2157   1.4801   1.6316   1.8214   1.9278   2.1031   2.2804   2.2910
     2.4409   2.8402   3.0319   3.2867   3.6727   3.8363   4.6118   5.0968
     5.0994   5.3782   5.9752   6.1436   6.2800

          k = 0.0293-0.0793 0.0000 ( 34466 PWs)   bands (ev):

   -84.9123 -84.8982 -84.6601 -84.6463 -84.1946 -84.1803 -45.0102 -44.9789
   -44.1947 -44.0623 -44.0333 -43.9607 -43.9058 -43.8458 -43.8190 -43.7174
   -43.7044 -43.6837 -43.6810 -43.5043 -43.4760 -43.4321 -43.3377 -43.3103
    -7.0645  -6.7472  -6.6117  -6.5060  -6.4309  -6.3982  -6.2027  -6.1596
    -6.1235  -5.9524  -5.9273  -5.8204  -5.7193  -5.6030  -5.5281  -5.4782
    -5.3504  -5.3032  -5.2231  -5.2049  -5.1671  -5.1397  -5.0320  -5.0147
    -4.9392  -4.8754  -4.7264  -4.6011  -4.5973  -4.5118  -4.3349  -4.1740
    -3.7997  -3.2677  -3.0011  -2.8791  -2.5177  -2.2336  -2.1728  -1.9222
    -1.8979  -1.6920  -1.3268  -1.2391  -1.0381  -0.7829  -0.7572  -0.4434
    -0.4209  -0.2277  -0.1722   0.2827   0.5584   0.7327   0.8072   0.9857
     1.2047   1.4802   1.6277   1.8142   1.9540   2.1096   2.2770   2.2977
     2.4280   2.8630   3.0261   3.2949   3.6640   3.7913   4.6054   4.8933
     5.1133   5.2581   5.9341   6.0561   6.1773

          k = 0.0293-0.0634 0.0000 ( 34486 PWs)   bands (ev):

   -84.9123 -84.8982 -84.6601 -84.6463 -84.1946 -84.1803 -45.0101 -44.9789
   -44.1947 -44.0621 -44.0332 -43.9607 -43.9058 -43.8457 -43.8190 -43.7174
   -43.7044 -43.6837 -43.6810 -43.5042 -43.4760 -43.4321 -43.3377 -43.3103
    -7.1206  -6.7672  -6.6412  -6.5606  -6.4650  -6.4369  -6.2659  -6.1776
    -6.1518  -6.1331  -5.9585  -5.8286  -5.7296  -5.5940  -5.5745  -5.4770
    -5.3906  -5.3128  -5.2372  -5.2069  -5.1954  -5.1496  -5.0317  -5.0156
    -4.9366  -4.8698  -4.7259  -4.6064  -4.6052  -4.5120  -4.3277  -4.1718
    -3.6240  -3.1361  -2.9302  -2.7671  -2.5399  -2.2900  -2.0193  -1.8351
    -1.8161  -1.6719  -1.2396  -1.1337  -0.9500  -0.7057  -0.5848  -0.3247
    -0.3042  -0.1335  -0.0195   0.3646   0.6012   0.7545   0.8563   1.0417
     1.1507   1.4835   1.6522   1.7956   2.0255   2.1295   2.2603   2.2997
     2.3970   2.9140   3.0440   3.3232   3.6332   3.6588   4.2413   4.6016
     5.1348   5.1837   5.6539   5.9251   6.1563

          k = 0.0293-0.0476 0.0000 ( 34487 PWs)   bands (ev):

   -84.9123 -84.8982 -84.6601 -84.6463 -84.1946 -84.1803 -45.0101 -44.9789
   -44.1946 -44.0620 -44.0332 -43.9607 -43.9058 -43.8457 -43.8189 -43.7173
   -43.7044 -43.6837 -43.6810 -43.5040 -43.4759 -43.4321 -43.3377 -43.3103
    -7.2178  -6.7975  -6.6861  -6.6378  -6.5414  -6.4453  -6.3555  -6.2389
    -6.2200  -6.1716  -6.0035  -5.8374  -5.7433  -5.6334  -5.6235  -5.4753
    -5.4115  -5.3066  -5.2838  -5.2286  -5.2041  -5.1621  -5.0303  -5.0190
    -4.9419  -4.8637  -4.7348  -4.6188  -4.6147  -4.5171  -4.4478  -4.1691
    -3.2575  -2.9743  -2.8300  -2.7215  -2.5204  -2.3439  -1.8261  -1.7808
    -1.7062  -1.5737  -1.1419  -1.0342  -0.8170  -0.6065  -0.2657  -0.2580
    -0.1421   0.0754   0.3034   0.4774   0.6506   0.7636   0.9164   1.0684
     1.1596   1.4948   1.6972   1.8185   2.1099   2.1612   2.1756   2.3098
     2.3926   2.9439   3.0662   3.2712   3.4466   3.6798   3.6834   4.4822
     4.8686   5.2375   5.3883   5.8326   6.0139

          k = 0.0293-0.0317 0.0000 ( 34548 PWs)   bands (ev):

   -84.9123 -84.8982 -84.6601 -84.6463 -84.1946 -84.1803 -45.0101 -44.9789
   -44.1946 -44.0618 -44.0332 -43.9607 -43.9058 -43.8457 -43.8189 -43.7172
   -43.7044 -43.6837 -43.6810 -43.5039 -43.4758 -43.4321 -43.3377 -43.3103
    -7.3328  -6.8289  -6.7363  -6.7030  -6.6040  -6.4543  -6.4224  -6.3014
    -6.2640  -6.1858  -6.0515  -5.8468  -5.7561  -5.6847  -5.6550  -5.4736
    -5.4189  -5.3439  -5.3040  -5.2686  -5.1968  -5.1714  -5.0294  -5.0252
    -4.9503  -4.8588  -4.7508  -4.6324  -4.6236  -4.5509  -4.4974  -4.1667
    -3.0484  -2.8390  -2.7195  -2.6198  -2.4442  -2.3902  -1.7678  -1.7121
    -1.5576  -1.4084  -1.0544  -1.0056  -0.5795  -0.5281  -0.2015  -0.0279
     0.1959   0.3388   0.5936   0.6003   0.7413   0.7684   0.9573   1.0876
     1.3182   1.5136   1.6650   1.9386   1.9753   2.1259   2.2263   2.4273
     2.4443   2.7228   2.9828   3.0778   3.1867   3.5390   4.0121   4.1661
     4.7659   5.1198   5.3227   5.3768   5.5604

          k = 0.0293-0.0159 0.0000 ( 34543 PWs)   bands (ev):

   -84.9123 -84.8982 -84.6601 -84.6463 -84.1946 -84.1803 -45.0101 -44.9789
   -44.1945 -44.0617 -44.0331 -43.9606 -43.9058 -43.8457 -43.8189 -43.7172
   -43.7044 -43.6837 -43.6810 -43.5037 -43.4758 -43.4321 -43.3377 -43.3103
    -7.4222  -6.8510  -6.7757  -6.7428  -6.6431  -6.4650  -6.4572  -6.3379
    -6.2937  -6.1960  -6.0885  -5.8553  -5.7651  -5.7160  -5.6749  -5.4724
    -5.4230  -5.3903  -5.3128  -5.2985  -5.1860  -5.1770  -5.0332  -5.0287
    -4.9573  -4.8557  -4.7655  -4.6401  -4.6297  -4.5824  -4.5022  -4.1651
    -3.0063  -2.7542  -2.6296  -2.5642  -2.4281  -2.2904  -1.7659  -1.6482
    -1.4421  -1.2427  -1.0310  -0.9848  -0.5075  -0.2838  -0.1027   0.0667
     0.3807   0.5755   0.6503   0.7069   0.8871   0.9708   1.0487   1.2285
     1.4039   1.5375   1.6130   1.7629   1.9181   2.1384   2.1485   2.4584
     2.5423   2.6436   2.9702   2.9879   3.1754   3.3819   4.0010   4.0852
     4.7399   4.7920   5.1150   5.1628   5.3872

          k = 0.0293-0.0000 0.0000 ( 34555 PWs)   bands (ev):

   -84.9123 -84.8982 -84.6601 -84.6463 -84.1946 -84.1803 -45.0101 -44.9789
   -44.1945 -44.0616 -44.0331 -43.9606 -43.9058 -43.8457 -43.8189 -43.7172
   -43.7044 -43.6837 -43.6810 -43.5037 -43.4758 -43.4321 -43.3378 -43.3103
    -7.4553  -6.8588  -6.7905  -6.7563  -6.6564  -6.4760  -6.4614  -6.3501
    -6.3039  -6.1998  -6.1024  -5.8589  -5.7685  -5.7259  -5.6815  -5.4720
    -5.4248  -5.4075  -5.3255  -5.3016  -5.1809  -5.1788  -5.0373  -5.0284
    -4.9601  -4.8547  -4.7708  -4.6417  -4.6319  -4.5919  -4.5029  -4.1645
    -3.0016  -2.7244  -2.5934  -2.5538  -2.4462  -2.2217  -1.7661  -1.6251
    -1.3999  -1.1376  -1.0846  -0.9544  -0.5123  -0.1178  -0.0318   0.1142
     0.3081   0.5375   0.7528   0.8179   0.9229   1.1656   1.2153   1.2937
     1.3996   1.4537   1.6040   1.7350   1.8361   1.8599   2.1486   2.5677
     2.5984   2.7955   2.9364   3.0869   3.1725   3.3173   3.7139   3.9713
     4.7329   4.8581   4.9897   5.0537   5.2293

          k = 0.0440 0.0238 0.0000 ( 34522 PWs)   bands (ev):

   -84.9110 -84.8995 -84.6589 -84.6475 -84.1933 -84.1816 -45.0072 -44.9818
   -44.1685 -44.0591 -44.0358 -43.9356 -43.9327 -43.8432 -43.8214 -43.7103
   -43.7014 -43.6915 -43.6831 -43.5012 -43.4784 -43.4587 -43.3352 -43.3128
    -7.1507  -6.6942  -6.6755  -6.5691  -6.5385  -6.3929  -6.2838  -6.2381
    -6.2245  -6.1844  -6.0651  -5.7792  -5.7136  -5.6649  -5.6327  -5.4694
    -5.4018  -5.3746  -5.3693  -5.2978  -5.2536  -5.2126  -5.0738  -5.0453
    -5.0145  -4.8819  -4.8437  -4.7320  -4.7278  -4.6138  -4.4810  -4.3657
    -3.2917  -2.9590  -2.6558  -2.5976  -2.5439  -2.1755  -2.1408  -1.5512
    -1.4553  -1.2635  -1.0681  -0.8351  -0.6253  -0.4314  -0.2232   0.0023
     0.3043   0.3781   0.5636   0.5808   0.7069   0.7995   0.9411   1.0345
     1.1676   1.3570   1.4773   1.6815   1.8823   2.0833   2.1581   2.1986
     2.5082   2.8181   2.8379   2.9669   2.9742   3.2787   3.7051   4.4655
     4.9071   4.9192   5.3336   5.3923   5.8470

          k = 0.0440 0.0397 0.0000 ( 34477 PWs)   bands (ev):

   -84.9110 -84.8995 -84.6589 -84.6475 -84.1933 -84.1816 -45.0073 -44.9818
   -44.1685 -44.0593 -44.0358 -43.9357 -43.9327 -43.8432 -43.8214 -43.7103
   -43.7014 -43.6915 -43.6831 -43.5014 -43.4785 -43.4587 -43.3352 -43.3128
    -7.0422  -6.6623  -6.6329  -6.5382  -6.4906  -6.3503  -6.2566  -6.2136
    -6.2107  -6.1516  -6.0287  -5.7677  -5.6888  -5.6527  -5.6199  -5.4660
    -5.4000  -5.3730  -5.3256  -5.2883  -5.2263  -5.2189  -5.0708  -5.0418
    -5.0137  -4.8851  -4.8364  -4.7351  -4.7239  -4.6125  -4.3928  -4.3706
    -3.4326  -3.0456  -2.7414  -2.6062  -2.5573  -2.3391  -2.1301  -1.6250
    -1.6244  -1.4014  -1.0695  -0.8996  -0.6865  -0.6061  -0.3358  -0.1704
    -0.0075   0.2194   0.4151   0.4365   0.7047   0.7348   0.9495   0.9720
     1.1237   1.4160   1.5010   1.9148   1.9407   2.0453   2.1573   2.2393
     2.5401   2.5696   2.9346   2.9665   3.1484   3.3960   3.9932   4.0533
     5.0285   5.2867   5.4137   5.8793   6.0339

          k = 0.0440 0.0555 0.0000 ( 34512 PWs)   bands (ev):

   -84.9110 -84.8995 -84.6589 -84.6475 -84.1933 -84.1816 -45.0073 -44.9818
   -44.1686 -44.0594 -44.0359 -43.9357 -43.9327 -43.8433 -43.8214 -43.7103
   -43.7014 -43.6916 -43.6831 -43.5015 -43.4785 -43.4587 -43.3352 -43.3128
    -6.9317  -6.6109  -6.5858  -6.5071  -6.4222  -6.2812  -6.2378  -6.2019
    -6.1417  -6.1075  -5.9918  -5.7596  -5.6597  -5.6314  -5.6013  -5.4664
    -5.4010  -5.3703  -5.2823  -5.2796  -5.2185  -5.1982  -5.0695  -5.0401
    -5.0129  -4.8889  -4.8281  -4.7348  -4.7197  -4.6118  -4.3776  -4.2675
    -3.6035  -3.3068  -2.8405  -2.6537  -2.4993  -2.4140  -2.1366  -1.7657
    -1.7529  -1.5404  -1.1719  -1.0000  -0.8278  -0.6105  -0.4633  -0.4183
    -0.1481   0.0266   0.1746   0.3134   0.6761   0.7446   0.9249   1.0165
     1.0704   1.4307   1.5142   1.8402   1.9848   2.0674   2.1134   2.1924
     2.4051   2.6206   2.9637   3.2016   3.4396   3.5678   3.7897   4.5032
     4.9036   5.4236   5.4596   5.9064   6.4121

          k = 0.0440 0.0714 0.0000 ( 34490 PWs)   bands (ev):

   -84.9110 -84.8995 -84.6589 -84.6475 -84.1933 -84.1816 -45.0073 -44.9818
   -44.1686 -44.0595 -44.0359 -43.9357 -43.9327 -43.8433 -43.8214 -43.7103
   -43.7014 -43.6917 -43.6831 -43.5016 -43.4786 -43.4587 -43.3352 -43.3128
    -6.8604  -6.5591  -6.5481  -6.4806  -6.3463  -6.2300  -6.2061  -6.1923
    -6.0660  -6.0094  -5.9642  -5.7528  -5.6411  -5.6051  -5.5956  -5.4720
    -5.4026  -5.3558  -5.2760  -5.2535  -5.2048  -5.1818  -5.0687  -5.0400
    -5.0114  -4.8924  -4.8229  -4.7334  -4.7164  -4.6111  -4.3856  -4.1874
    -3.7571  -3.5680  -2.9255  -2.7068  -2.4314  -2.4169  -2.1785  -1.9321
    -1.8510  -1.6257  -1.3047  -1.1094  -0.8991  -0.6481  -0.6292  -0.4796
    -0.2655  -0.1148  -0.0139   0.2492   0.6414   0.7515   0.8832   1.0373
     1.0648   1.4312   1.5214   1.7737   1.9074   1.9580   2.1286   2.2966
     2.3760   2.5817   2.9731   3.2352   3.4679   3.9491   3.9572   4.7286
     5.1474   5.3499   5.6327   5.8172   6.3522

          k = 0.0440 0.0872 0.0000 ( 34486 PWs)   bands (ev):

   -84.9110 -84.8995 -84.6589 -84.6475 -84.1933 -84.1816 -45.0073 -44.9818
   -44.1687 -44.0596 -44.0359 -43.9357 -43.9327 -43.8433 -43.8214 -43.7103
   -43.7015 -43.6917 -43.6831 -43.5017 -43.4786 -43.4587 -43.3352 -43.3128
    -6.8303  -6.5327  -6.5277  -6.4634  -6.2920  -6.2227  -6.1868  -6.1698
    -6.0448  -5.9485  -5.8455  -5.7473  -5.6364  -5.6319  -5.5896  -5.4755
    -5.4038  -5.3385  -5.2547  -5.2464  -5.1895  -5.1801  -5.0687  -5.0407
    -5.0051  -4.8946  -4.8244  -4.7345  -4.7144  -4.6105  -4.3914  -4.2704
    -3.8473  -3.5829  -2.9748  -2.8098  -2.3916  -2.3615  -2.2484  -2.0399
    -1.8788  -1.6743  -1.3871  -1.1809  -0.9421  -0.7231  -0.6444  -0.5221
    -0.3350  -0.1877  -0.0944   0.2159   0.6240   0.7573   0.8497   1.0241
     1.0730   1.4307   1.5317   1.7482   1.8419   1.9268   2.1309   2.3519
     2.3572   2.5453   2.9928   3.2460   3.4048   4.0883   4.2234   4.7890
     5.2841   5.4573   5.6623   6.0784   6.3159

          k = 0.0440 0.1031 0.0000 ( 34486 PWs)   bands (ev):

   -84.9110 -84.8995 -84.6589 -84.6475 -84.1933 -84.1816 -45.0073 -44.9818
   -44.1687 -44.0596 -44.0359 -43.9357 -43.9327 -43.8433 -43.8214 -43.7103
   -43.7015 -43.6917 -43.6831 -43.5017 -43.4786 -43.4587 -43.3352 -43.3128
    -6.8303  -6.5327  -6.5277  -6.4634  -6.2920  -6.2227  -6.1868  -6.1698
    -6.0448  -5.9485  -5.8455  -5.7473  -5.6364  -5.6319  -5.5896  -5.4755
    -5.4038  -5.3385  -5.2547  -5.2464  -5.1895  -5.1801  -5.0687  -5.0407
    -5.0051  -4.8946  -4.8244  -4.7345  -4.7144  -4.6105  -4.3914  -4.2704
    -3.8473  -3.5829  -2.9748  -2.8098  -2.3916  -2.3615  -2.2484  -2.0399
    -1.8788  -1.6743  -1.3871  -1.1809  -0.9421  -0.7231  -0.6444  -0.5221
    -0.3350  -0.1877  -0.0944   0.2159   0.6240   0.7573   0.8497   1.0241
     1.0730   1.4307   1.5317   1.7482   1.8419   1.9268   2.1309   2.3519
     2.3572   2.5453   2.9928   3.2460   3.4048   4.0883   4.2234   4.7890
     5.2841   5.4573   5.6623   6.0784   6.3157

          k = 0.0440-0.0714 0.0000 ( 34490 PWs)   bands (ev):

   -84.9110 -84.8995 -84.6589 -84.6475 -84.1933 -84.1816 -45.0073 -44.9818
   -44.1686 -44.0595 -44.0359 -43.9357 -43.9327 -43.8433 -43.8214 -43.7103
   -43.7014 -43.6917 -43.6831 -43.5016 -43.4786 -43.4587 -43.3352 -43.3128
    -6.8604  -6.5591  -6.5481  -6.4806  -6.3463  -6.2300  -6.2061  -6.1923
    -6.0660  -6.0094  -5.9642  -5.7528  -5.6411  -5.6051  -5.5956  -5.4720
    -5.4026  -5.3558  -5.2760  -5.2535  -5.2048  -5.1818  -5.0687  -5.0400
    -5.0114  -4.8924  -4.8229  -4.7334  -4.7164  -4.6111  -4.3856  -4.1874
    -3.7571  -3.5680  -2.9255  -2.7068  -2.4314  -2.4169  -2.1785  -1.9321
    -1.8510  -1.6257  -1.3047  -1.1094  -0.8991  -0.6481  -0.6292  -0.4796
    -0.2655  -0.1148  -0.0139   0.2492   0.6414   0.7515   0.8832   1.0373
     1.0648   1.4312   1.5214   1.7737   1.9074   1.9580   2.1286   2.2966
     2.3760   2.5817   2.9731   3.2352   3.4679   3.9491   3.9572   4.7286
     5.1474   5.3499   5.6327   5.8172   6.3522

          k = 0.0440-0.0555 0.0000 ( 34512 PWs)   bands (ev):

   -84.9110 -84.8995 -84.6589 -84.6475 -84.1933 -84.1816 -45.0073 -44.9818
   -44.1686 -44.0594 -44.0359 -43.9357 -43.9327 -43.8433 -43.8214 -43.7103
   -43.7014 -43.6916 -43.6831 -43.5015 -43.4785 -43.4587 -43.3352 -43.3128
    -6.9317  -6.6109  -6.5858  -6.5071  -6.4222  -6.2812  -6.2378  -6.2019
    -6.1417  -6.1075  -5.9918  -5.7596  -5.6597  -5.6314  -5.6013  -5.4664
    -5.4010  -5.3703  -5.2823  -5.2796  -5.2185  -5.1982  -5.0695  -5.0401
    -5.0129  -4.8889  -4.8281  -4.7348  -4.7197  -4.6118  -4.3776  -4.2675
    -3.6035  -3.3068  -2.8405  -2.6537  -2.4993  -2.4140  -2.1366  -1.7657
    -1.7529  -1.5404  -1.1720  -1.0000  -0.8278  -0.6105  -0.4633  -0.4183
    -0.1481   0.0266   0.1746   0.3134   0.6761   0.7446   0.9249   1.0165
     1.0704   1.4307   1.5142   1.8402   1.9848   2.0674   2.1134   2.1924
     2.4051   2.6206   2.9636   3.2016   3.4396   3.5678   3.7897   4.5031
     4.9036   5.4236   5.4596   5.9063   6.4123

          k = 0.0440-0.0397 0.0000 ( 34477 PWs)   bands (ev):

   -84.9110 -84.8995 -84.6589 -84.6475 -84.1933 -84.1816 -45.0073 -44.9818
   -44.1685 -44.0593 -44.0358 -43.9357 -43.9327 -43.8432 -43.8214 -43.7103
   -43.7014 -43.6915 -43.6831 -43.5014 -43.4785 -43.4587 -43.3352 -43.3128
    -7.0422  -6.6623  -6.6329  -6.5382  -6.4906  -6.3503  -6.2566  -6.2136
    -6.2107  -6.1516  -6.0287  -5.7677  -5.6888  -5.6527  -5.6199  -5.4660
    -5.4000  -5.3730  -5.3256  -5.2883  -5.2263  -5.2189  -5.0708  -5.0418
    -5.0137  -4.8851  -4.8364  -4.7351  -4.7239  -4.6125  -4.3928  -4.3706
    -3.4326  -3.0456  -2.7414  -2.6062  -2.5573  -2.3391  -2.1301  -1.6250
    -1.6244  -1.4014  -1.0695  -0.8996  -0.6865  -0.6061  -0.3358  -0.1704
    -0.0075   0.2194   0.4151   0.4365   0.7047   0.7348   0.9495   0.9720
     1.1237   1.4160   1.5010   1.9148   1.9407   2.0453   2.1573   2.2393
     2.5401   2.5696   2.9346   2.9665   3.1484   3.3960   3.9932   4.0533
     5.0285   5.2867   5.4137   5.8794   6.0336

          k = 0.0440-0.0238 0.0000 ( 34522 PWs)   bands (ev):

   -84.9110 -84.8995 -84.6589 -84.6475 -84.1933 -84.1816 -45.0072 -44.9818
   -44.1685 -44.0591 -44.0358 -43.9356 -43.9327 -43.8432 -43.8214 -43.7103
   -43.7014 -43.6915 -43.6831 -43.5012 -43.4784 -43.4587 -43.3352 -43.3128
    -7.1507  -6.6942  -6.6755  -6.5691  -6.5385  -6.3929  -6.2838  -6.2381
    -6.2245  -6.1844  -6.0651  -5.7792  -5.7136  -5.6649  -5.6327  -5.4694
    -5.4018  -5.3746  -5.3693  -5.2978  -5.2536  -5.2126  -5.0738  -5.0453
    -5.0145  -4.8819  -4.8437  -4.7320  -4.7278  -4.6138  -4.4810  -4.3657
    -3.2917  -2.9590  -2.6558  -2.5976  -2.5439  -2.1755  -2.1408  -1.5512
    -1.4553  -1.2635  -1.0681  -0.8351  -0.6254  -0.4314  -0.2232   0.0023
     0.3043   0.3781   0.5636   0.5808   0.7069   0.7995   0.9411   1.0345
     1.1676   1.3570   1.4773   1.6815   1.8822   2.0833   2.1581   2.1986
     2.5082   2.8181   2.8379   2.9669   2.9742   3.2787   3.7051   4.4655
     4.9071   4.9192   5.3336   5.3924   5.8470

          k = 0.0440-0.0079 0.0000 ( 34498 PWs)   bands (ev):

   -84.9110 -84.8995 -84.6589 -84.6475 -84.1933 -84.1816 -45.0072 -44.9817
   -44.1684 -44.0591 -44.0358 -43.9356 -43.9327 -43.8432 -43.8213 -43.7103
   -43.7014 -43.6915 -43.6831 -43.5012 -43.4784 -43.4587 -43.3352 -43.3128
    -7.2147  -6.7086  -6.7003  -6.5893  -6.5629  -6.4120  -6.3021  -6.2470
    -6.2311  -6.2010  -6.0878  -5.7890  -5.7249  -5.6706  -5.6382  -5.4726
    -5.4125  -5.3866  -5.3767  -5.3085  -5.2660  -5.2067  -5.0765  -5.0487
    -5.0148  -4.8800  -4.8475  -4.7302  -4.7281  -4.6155  -4.5233  -4.3632
    -3.2133  -2.9476  -2.6385  -2.5851  -2.5183  -2.1526  -2.0462  -1.5055
    -1.2897  -1.1823  -1.1461  -0.8057  -0.6502  -0.1626  -0.1162   0.0520
     0.3595   0.5357   0.6398   0.6468   0.8221   0.9088   0.9651   1.1341
     1.1523   1.3042   1.4556   1.5197   1.7808   1.7907   2.0967   2.1529
     2.7881   2.7900   2.8392   2.9749   3.0938   3.5215   3.6343   3.9731
     4.7212   4.9392   5.1485   5.4130   5.5187

          k = 0.0440 0.0079 0.0000 ( 34498 PWs)   bands (ev):

   -84.9110 -84.8995 -84.6589 -84.6475 -84.1933 -84.1816 -45.0072 -44.9817
   -44.1684 -44.0591 -44.0358 -43.9356 -43.9327 -43.8432 -43.8213 -43.7103
   -43.7014 -43.6915 -43.6831 -43.5012 -43.4784 -43.4587 -43.3352 -43.3128
    -7.2147  -6.7086  -6.7003  -6.5893  -6.5629  -6.4120  -6.3021  -6.2470
    -6.2311  -6.2010  -6.0878  -5.7890  -5.7249  -5.6706  -5.6382  -5.4726
    -5.4125  -5.3866  -5.3767  -5.3085  -5.2660  -5.2067  -5.0765  -5.0487
    -5.0148  -4.8800  -4.8475  -4.7302  -4.7281  -4.6155  -4.5233  -4.3632
    -3.2133  -2.9476  -2.6385  -2.5851  -2.5183  -2.1526  -2.0462  -1.5055
    -1.2897  -1.1823  -1.1461  -0.8057  -0.6501  -0.1626  -0.1162   0.0520
     0.3595   0.5357   0.6398   0.6468   0.8221   0.9088   0.9651   1.1340
     1.1523   1.3042   1.4556   1.5197   1.7808   1.7907   2.0967   2.1529
     2.7881   2.7900   2.8392   2.9749   3.0938   3.5215   3.6343   3.9731
     4.7212   4.9392   5.1485   5.4129   5.5187

          k = 0.0587 0.0317 0.0000 ( 34463 PWs)   bands (ev):

   -84.9093 -84.9012 -84.6572 -84.6492 -84.1916 -84.1833 -45.0035 -44.9855
   -44.1344 -44.0558 -44.0393 -43.9677 -43.9030 -43.8400 -43.8246 -43.7433
   -43.6991 -43.6859 -43.6578 -43.4980 -43.4932 -43.4818 -43.3319 -43.3161
    -6.8005  -6.5627  -6.5567  -6.4066  -6.3247  -6.2805  -6.2327  -6.1812
    -6.0971  -6.0106  -5.9714  -5.7395  -5.6568  -5.6513  -5.5581  -5.5557
    -5.4515  -5.3755  -5.3361  -5.2946  -5.2391  -5.2209  -5.1968  -5.0722
    -5.0055  -4.9467  -4.9316  -4.8786  -4.8661  -4.7354  -4.6478  -4.2884
    -3.9520  -2.9045  -2.8891  -2.6611  -2.5165  -2.3562  -2.0634  -1.7022
    -1.4750  -1.1736  -1.0817  -0.7128  -0.5634  -0.5304  -0.2724  -0.1629
     0.1491   0.2326   0.3839   0.4564   0.6967   0.7291   0.7451   0.9344
     0.9920   1.2396   1.2891   1.6260   1.7193   1.8280   2.1176   2.2420
     2.5041   2.5467   2.7269   2.7958   3.0026   3.4189   3.5854   4.5556
     4.7828   5.4793   5.6721   5.7406   5.9463

          k = 0.0587 0.0476 0.0000 ( 34460 PWs)   bands (ev):

   -84.9093 -84.9012 -84.6572 -84.6492 -84.1916 -84.1833 -45.0035 -44.9855
   -44.1344 -44.0559 -44.0393 -43.9677 -43.9030 -43.8401 -43.8246 -43.7433
   -43.6991 -43.6859 -43.6579 -43.4981 -43.4932 -43.4819 -43.3319 -43.3161
    -6.6809  -6.5447  -6.5188  -6.3553  -6.2744  -6.2687  -6.2257  -6.1294
    -6.0682  -5.9758  -5.9629  -5.7232  -5.6646  -5.6486  -5.5575  -5.5429
    -5.4379  -5.3394  -5.3381  -5.2968  -5.2379  -5.2133  -5.1763  -5.0750
    -5.0021  -4.9438  -4.9322  -4.8791  -4.8680  -4.7349  -4.6591  -4.1704
    -4.1117  -3.0404  -2.9370  -2.6620  -2.5494  -2.3349  -2.2010  -1.8580
    -1.5521  -1.1996  -1.1923  -0.7591  -0.6910  -0.5963  -0.3900  -0.3183
     0.0067   0.1428   0.2861   0.3207   0.6881   0.7239   0.7651   0.9310
     0.9891   1.2893   1.3112   1.7275   1.7834   1.9097   2.0624   2.2320
     2.4503   2.6159   2.6992   2.8324   2.8945   3.7904   3.8050   4.1249
     4.9773   5.5359   5.6839   5.8496   6.4795

          k = 0.0587 0.0634 0.0000 ( 34494 PWs)   bands (ev):

   -84.9093 -84.9012 -84.6572 -84.6492 -84.1916 -84.1833 -45.0036 -44.9855
   -44.1345 -44.0560 -44.0393 -43.9677 -43.9030 -43.8401 -43.8246 -43.7433
   -43.6991 -43.6859 -43.6579 -43.4982 -43.4932 -43.4819 -43.3320 -43.3161
    -6.5942  -6.4967  -6.4801  -6.2861  -6.2671  -6.2171  -6.2089  -6.0442
    -6.0393  -5.9527  -5.9447  -5.7165  -5.6708  -5.6429  -5.5670  -5.5272
    -5.4224  -5.3390  -5.3126  -5.2970  -5.2315  -5.2202  -5.1457  -5.0787
    -5.0011  -4.9351  -4.9322  -4.8781  -4.8714  -4.7337  -4.6759  -4.2666
    -4.0600  -3.2645  -3.0312  -2.6028  -2.5694  -2.3444  -2.2536  -1.9786
    -1.6756  -1.2816  -1.2654  -0.8775  -0.7497  -0.6103  -0.5719  -0.3609
    -0.0961   0.0628   0.1967   0.2257   0.6934   0.7080   0.7856   0.9493
     0.9758   1.2728   1.3334   1.7273   1.7416   1.9245   2.0244   2.1170
     2.4457   2.4862   2.7498   2.8440   3.3250   3.7811   4.1051   4.2936
     4.9742   5.4364   5.6603   5.9279   6.5869

          k = 0.0587 0.0793 0.0000 ( 34493 PWs)   bands (ev):

   -84.9093 -84.9012 -84.6572 -84.6492 -84.1916 -84.1833 -45.0036 -44.9855
   -44.1345 -44.0561 -44.0393 -43.9677 -43.9030 -43.8401 -43.8246 -43.7433
   -43.6992 -43.6859 -43.6579 -43.4983 -43.4932 -43.4819 -43.3319 -43.3161
    -6.5688  -6.4524  -6.4339  -6.2645  -6.2210  -6.2017  -6.1632  -6.0272
    -5.9554  -5.9220  -5.9136  -5.7180  -5.6846  -5.6373  -5.5898  -5.5147
    -5.4118  -5.3255  -5.3085  -5.2913  -5.2340  -5.2227  -5.1129  -5.0817
    -5.0037  -4.9322  -4.9172  -4.8797  -4.8747  -4.7315  -4.6950  -4.3734
    -4.0654  -3.3652  -3.1095  -2.6250  -2.5307  -2.3886  -2.2443  -2.0463
    -1.8070  -1.3303  -1.3145  -0.9719  -0.7790  -0.6713  -0.6120  -0.4035
    -0.1671   0.0100   0.1304   0.1934   0.7062   0.7118   0.7857   0.9363
     0.9712   1.2575   1.3385   1.6850   1.7422   1.7636   1.9389   2.2448
     2.4044   2.4398   2.7578   2.8752   3.6290   3.7433   4.3374   4.5487
     4.9948   5.5253   5.5615   5.9930   6.5355

          k = 0.0587 0.0952 0.0000 ( 34489 PWs)   bands (ev):

   -84.9093 -84.9012 -84.6572 -84.6492 -84.1916 -84.1833 -45.0036 -44.9855
   -44.1345 -44.0562 -44.0393 -43.9677 -43.9030 -43.8401 -43.8246 -43.7433
   -43.6992 -43.6859 -43.6579 -43.4983 -43.4932 -43.4819 -43.3320 -43.3161
    -6.5633  -6.4425  -6.4103  -6.2642  -6.2119  -6.1704  -6.1473  -6.0310
    -5.9481  -5.9126  -5.8386  -5.7197  -5.7100  -5.6354  -5.6040  -5.5102
    -5.4094  -5.3115  -5.3092  -5.2893  -5.2436  -5.2188  -5.0957  -5.0828
    -5.0058  -4.9324  -4.8991  -4.8872  -4.8761  -4.7300  -4.7043  -4.4099
    -4.1192  -3.3470  -3.1392  -2.6716  -2.4720  -2.4418  -2.2318  -2.0655
    -1.8592  -1.3492  -1.3306  -1.0016  -0.7896  -0.7009  -0.6144  -0.4231
    -0.1929  -0.0074   0.1121   0.1830   0.7130   0.7198   0.7815   0.9195
     0.9713   1.2536   1.3395   1.6491   1.7198   1.7409   1.9188   2.3009
     2.3716   2.4240   2.7583   2.8907   3.5833   3.9190   4.4371   4.5716
     5.0703   5.4862   5.5029   6.3283   6.5297

          k = 0.0587 0.1110 0.0000 ( 34493 PWs)   bands (ev):

   -84.9093 -84.9012 -84.6572 -84.6492 -84.1916 -84.1833 -45.0036 -44.9855
   -44.1345 -44.0561 -44.0393 -43.9677 -43.9030 -43.8401 -43.8246 -43.7433
   -43.6992 -43.6859 -43.6579 -43.4983 -43.4932 -43.4819 -43.3319 -43.3161
    -6.5688  -6.4524  -6.4339  -6.2645  -6.2210  -6.2017  -6.1632  -6.0272
    -5.9554  -5.9220  -5.9136  -5.7180  -5.6846  -5.6373  -5.5898  -5.5147
    -5.4118  -5.3255  -5.3085  -5.2913  -5.2340  -5.2227  -5.1129  -5.0817
    -5.0037  -4.9322  -4.9172  -4.8797  -4.8747  -4.7315  -4.6950  -4.3734
    -4.0654  -3.3652  -3.1095  -2.6250  -2.5307  -2.3886  -2.2443  -2.0463
    -1.8070  -1.3303  -1.3145  -0.9719  -0.7790  -0.6713  -0.6120  -0.4035
    -0.1671   0.0100   0.1304   0.1934   0.7062   0.7118   0.7857   0.9363
     0.9712   1.2575   1.3385   1.6850   1.7422   1.7636   1.9389   2.2448
     2.4044   2.4398   2.7578   2.8752   3.6290   3.7433   4.3374   4.5487
     4.9948   5.5253   5.5615   5.9930   6.5355

          k = 0.0587-0.0634 0.0000 ( 34494 PWs)   bands (ev):

   -84.9093 -84.9012 -84.6572 -84.6492 -84.1916 -84.1833 -45.0036 -44.9855
   -44.1345 -44.0560 -44.0393 -43.9677 -43.9030 -43.8401 -43.8246 -43.7433
   -43.6991 -43.6859 -43.6579 -43.4982 -43.4932 -43.4819 -43.3320 -43.3161
    -6.5942  -6.4967  -6.4801  -6.2861  -6.2671  -6.2171  -6.2089  -6.0442
    -6.0393  -5.9527  -5.9447  -5.7165  -5.6708  -5.6429  -5.5670  -5.5272
    -5.4224  -5.3390  -5.3126  -5.2970  -5.2315  -5.2202  -5.1457  -5.0787
    -5.0011  -4.9351  -4.9322  -4.8781  -4.8714  -4.7337  -4.6759  -4.2666
    -4.0600  -3.2645  -3.0312  -2.6028  -2.5694  -2.3444  -2.2536  -1.9786
    -1.6756  -1.2816  -1.2654  -0.8775  -0.7497  -0.6103  -0.5719  -0.3609
    -0.0961   0.0628   0.1967   0.2257   0.6934   0.7080   0.7856   0.9493
     0.9758   1.2728   1.3334   1.7273   1.7416   1.9245   2.0244   2.1170
     2.4457   2.4862   2.7498   2.8440   3.3250   3.7811   4.1051   4.2936
     4.9742   5.4364   5.6603   5.9279   6.5880

          k = 0.0587-0.0476 0.0000 ( 34460 PWs)   bands (ev):

   -84.9093 -84.9012 -84.6572 -84.6492 -84.1916 -84.1833 -45.0035 -44.9855
   -44.1344 -44.0559 -44.0393 -43.9677 -43.9030 -43.8401 -43.8246 -43.7433
   -43.6991 -43.6859 -43.6579 -43.4981 -43.4932 -43.4819 -43.3319 -43.3161
    -6.6809  -6.5447  -6.5188  -6.3553  -6.2744  -6.2687  -6.2257  -6.1294
    -6.0682  -5.9758  -5.9629  -5.7232  -5.6646  -5.6486  -5.5575  -5.5429
    -5.4379  -5.3394  -5.3381  -5.2968  -5.2379  -5.2133  -5.1763  -5.0750
    -5.0021  -4.9438  -4.9322  -4.8791  -4.8680  -4.7349  -4.6591  -4.1704
    -4.1117  -3.0404  -2.9370  -2.6620  -2.5494  -2.3349  -2.2010  -1.8580
    -1.5521  -1.1996  -1.1923  -0.7591  -0.6910  -0.5963  -0.3900  -0.3183
     0.0067   0.1428   0.2861   0.3207   0.6881   0.7239   0.7651   0.9310
     0.9891   1.2893   1.3112   1.7275   1.7834   1.9097   2.0624   2.2320
     2.4503   2.6159   2.6992   2.8324   2.8945   3.7904   3.8050   4.1249
     4.9773   5.5359   5.6839   5.8495   6.4794

          k = 0.0587-0.0317 0.0000 ( 34463 PWs)   bands (ev):

   -84.9093 -84.9012 -84.6572 -84.6492 -84.1916 -84.1833 -45.0035 -44.9855
   -44.1344 -44.0558 -44.0393 -43.9677 -43.9030 -43.8400 -43.8246 -43.7433
   -43.6991 -43.6859 -43.6578 -43.4980 -43.4932 -43.4818 -43.3319 -43.3161
    -6.8005  -6.5627  -6.5567  -6.4066  -6.3247  -6.2805  -6.2327  -6.1812
    -6.0971  -6.0106  -5.9714  -5.7395  -5.6568  -5.6513  -5.5581  -5.5557
    -5.4515  -5.3755  -5.3361  -5.2946  -5.2391  -5.2209  -5.1968  -5.0722
    -5.0055  -4.9467  -4.9316  -4.8786  -4.8661  -4.7354  -4.6478  -4.2884
    -3.9520  -2.9045  -2.8891  -2.6611  -2.5165  -2.3562  -2.0634  -1.7022
    -1.4750  -1.1736  -1.0817  -0.7128  -0.5634  -0.5304  -0.2724  -0.1629
     0.1491   0.2326   0.3839   0.4564   0.6967   0.7291   0.7451   0.9344
     0.9920   1.2396   1.2891   1.6260   1.7193   1.8280   2.1176   2.2420
     2.5041   2.5467   2.7269   2.7958   3.0026   3.4189   3.5854   4.5556
     4.7829   5.4793   5.6721   5.7406   5.9463

          k = 0.0587-0.0159 0.0000 ( 34473 PWs)   bands (ev):

   -84.9093 -84.9012 -84.6572 -84.6492 -84.1916 -84.1833 -45.0035 -44.9855
   -44.1343 -44.0557 -44.0393 -43.9677 -43.9029 -43.8400 -43.8246 -43.7433
   -43.6991 -43.6859 -43.6578 -43.4979 -43.4932 -43.4818 -43.3320 -43.3161
    -6.8893  -6.5829  -6.5715  -6.4373  -6.3606  -6.2874  -6.2370  -6.2091
    -6.1164  -6.0389  -5.9772  -5.7554  -5.6523  -5.6487  -5.5626  -5.5623
    -5.4602  -5.4079  -5.3333  -5.2930  -5.2392  -5.2372  -5.2047  -5.0708
    -5.0080  -4.9477  -4.9308  -4.8764  -4.8656  -4.7356  -4.6416  -4.3663
    -3.8328  -2.9033  -2.8754  -2.5923  -2.4828  -2.3988  -1.9137  -1.5319
    -1.4144  -1.2315  -1.0129  -0.7027  -0.4723  -0.3665  -0.2192  -0.0141
     0.2892   0.3481   0.5166   0.5238   0.6477   0.7345   0.7840   0.9639
     0.9941   1.1665   1.2777   1.4239   1.6680   1.8278   1.8291   2.1078
     2.4191   2.7102   2.7694   2.9309   3.2580   3.2835   3.7397   4.4895
     4.5493   5.1674   5.4565   5.7139   5.9258

          k = 0.0587 0.0000 0.0000 ( 34473 PWs)   bands (ev):

   -84.9093 -84.9012 -84.6572 -84.6492 -84.1916 -84.1833 -45.0035 -44.9855
   -44.1343 -44.0557 -44.0393 -43.9677 -43.9029 -43.8400 -43.8246 -43.7433
   -43.6991 -43.6859 -43.6577 -43.4979 -43.4932 -43.4818 -43.3320 -43.3161
    -6.9212  -6.5920  -6.5744  -6.4475  -6.3733  -6.2902  -6.2383  -6.2178
    -6.1229  -6.0501  -5.9793  -5.7617  -5.6528  -5.6451  -5.5646  -5.5644
    -5.4630  -5.4208  -5.3322  -5.2924  -5.2478  -5.2360  -5.2072  -5.0705
    -5.0087  -4.9481  -4.9304  -4.8752  -4.8656  -4.7356  -4.6396  -4.3928
    -3.7886  -2.9158  -2.8739  -2.5430  -2.4713  -2.4329  -1.8554  -1.3942
    -1.3833  -1.3329  -0.9985  -0.6944  -0.4543  -0.2479  -0.1907   0.0452
     0.2977   0.3835   0.5366   0.5439   0.6716   0.7461   0.8137   1.0350
     1.0483   1.1844   1.2470   1.2702   1.5715   1.6609   1.8129   2.1007
     2.3675   2.7144   2.7952   3.0662   3.2227   3.5919   3.8566   4.1640
     4.4569   4.9129   5.4738   5.6290   6.0332

          k = 0.0587 0.0159 0.0000 ( 34473 PWs)   bands (ev):

   -84.9093 -84.9012 -84.6572 -84.6492 -84.1916 -84.1833 -45.0035 -44.9855
   -44.1343 -44.0557 -44.0393 -43.9677 -43.9029 -43.8400 -43.8246 -43.7433
   -43.6991 -43.6859 -43.6578 -43.4979 -43.4932 -43.4818 -43.3320 -43.3161
    -6.8893  -6.5829  -6.5715  -6.4373  -6.3606  -6.2874  -6.2370  -6.2091
    -6.1164  -6.0389  -5.9772  -5.7554  -5.6523  -5.6487  -5.5626  -5.5623
    -5.4602  -5.4079  -5.3333  -5.2930  -5.2392  -5.2372  -5.2047  -5.0708
    -5.0080  -4.9477  -4.9308  -4.8764  -4.8656  -4.7356  -4.6416  -4.3663
    -3.8328  -2.9033  -2.8754  -2.5923  -2.4828  -2.3988  -1.9137  -1.5319
    -1.4143  -1.2315  -1.0129  -0.7027  -0.4723  -0.3665  -0.2193  -0.0141
     0.2892   0.3481   0.5166   0.5238   0.6477   0.7345   0.7840   0.9639
     0.9941   1.1665   1.2777   1.4239   1.6680   1.8278   1.8291   2.1078
     2.4191   2.7102   2.7694   2.9308   3.2580   3.2835   3.7397   4.4895
     4.5493   5.1674   5.4565   5.7139   5.9258

          k = 0.0733 0.0397 0.0000 ( 34475 PWs)   bands (ev):

   -84.9074 -84.9031 -84.6553 -84.6511 -84.1896 -84.1853 -44.9992 -44.9899
   -44.0945 -44.0519 -44.0433 -44.0082 -43.8648 -43.8363 -43.8283 -43.7821
   -43.6960 -43.6891 -43.6184 -43.5332 -43.4941 -43.4858 -43.3281 -43.3199
    -6.5237  -6.4608  -6.3736  -6.2911  -6.2273  -6.2033  -6.0861  -6.0685
    -5.9648  -5.8799  -5.7890  -5.7666  -5.6495  -5.6265  -5.5630  -5.5166
    -5.4408  -5.3850  -5.3288  -5.3065  -5.2750  -5.1795  -5.1717  -5.1538
    -5.0808  -5.0638  -5.0377  -4.9721  -4.9628  -4.9352  -4.8639  -4.5457
[...]
    -5.9097  -5.8986  -5.8031  -5.7376  -5.6427  -5.6248  -5.5932  -5.5074
    -5.3757  -5.3731  -5.3603  -5.2805  -5.2517  -5.2111  -5.1688  -5.1192
    -5.0971  -5.0859  -5.0508  -4.9953  -4.9381  -4.9133  -4.8144  -4.8125
    -3.8915  -3.5253  -3.1146  -2.5615  -2.5255  -2.3979  -2.1535  -2.0259
    -1.6796  -1.2365  -1.0700  -0.8085  -0.6933  -0.6136  -0.3861  -0.1855
    -0.0734   0.1344   0.2097   0.3746   0.6101   0.6892   0.7465   0.7758
     0.8432   1.0089   1.1518   1.3478   1.4803   1.5992   2.0250   2.1952
     2.3342   2.4053   2.4947   2.8081   3.6572   3.8042   4.3343   4.7019
     4.7779   5.1738   5.7932   6.0781   6.4399

          k = 0.0733 0.1031 0.0000 ( 34510 PWs)   bands (ev):

   -84.9074 -84.9031 -84.6553 -84.6511 -84.1896 -84.1853 -44.9992 -44.9899
   -44.0946 -44.0521 -44.0433 -44.0082 -43.8648 -43.8364 -43.8283 -43.7821
   -43.6960 -43.6891 -43.6185 -43.5332 -43.4943 -43.4858 -43.3281 -43.3199
    -6.4419  -6.4151  -6.2360  -6.1902  -6.1634  -6.1279  -6.0056  -5.9997
    -5.9097  -5.8986  -5.8031  -5.7376  -5.6427  -5.6248  -5.5932  -5.5074
    -5.3757  -5.3731  -5.3603  -5.2805  -5.2517  -5.2111  -5.1688  -5.1192
    -5.0971  -5.0859  -5.0508  -4.9953  -4.9381  -4.9133  -4.8144  -4.8125
    -3.8915  -3.5253  -3.1146  -2.5615  -2.5255  -2.3979  -2.1535  -2.0259
    -1.6796  -1.2365  -1.0700  -0.8085  -0.6933  -0.6136  -0.3860  -0.1855
    -0.0734   0.1344   0.2097   0.3746   0.6101   0.6892   0.7465   0.7758
     0.8432   1.0089   1.1518   1.3478   1.4803   1.5992   2.0250   2.1952
     2.3342   2.4053   2.4947   2.8081   3.6572   3.8042   4.3343   4.7019
     4.7779   5.1738   5.7932   6.0781   6.4398

          k = 0.0733 0.1190 0.0000 ( 34498 PWs)   bands (ev):

   -84.9074 -84.9031 -84.6553 -84.6511 -84.1896 -84.1853 -44.9992 -44.9899
   -44.0946 -44.0520 -44.0433 -44.0082 -43.8648 -43.8364 -43.8283 -43.7821
   -43.6960 -43.6891 -43.6185 -43.5332 -43.4943 -43.4858 -43.3281 -43.3199
    -6.4517  -6.4255  -6.2673  -6.2166  -6.1811  -6.1537  -6.0329  -6.0159
    -5.9349  -5.8616  -5.8009  -5.7528  -5.6411  -5.6202  -5.5863  -5.5104
    -5.3942  -5.3608  -5.3559  -5.2774  -5.2660  -5.2013  -5.1675  -5.1354
    -5.0885  -5.0744  -5.0291  -5.0049  -4.9377  -4.9306  -4.8419  -4.7733
    -3.8533  -3.4664  -3.1105  -2.6030  -2.4874  -2.3841  -2.1121  -2.0477
    -1.6204  -1.2565  -1.0109  -0.7975  -0.6733  -0.5955  -0.3541  -0.2095
    -0.0523   0.1508   0.2264   0.3579   0.5843   0.6990   0.7377   0.7377
     0.8692   1.0518   1.1432   1.3523   1.5389   1.8032   2.0832   2.0865
     2.3488   2.4405   2.5204   2.7927   3.2932   3.9242   4.1662   4.5683
     4.6432   5.2239   5.9243   6.2125   6.4788

          k = 0.0733-0.0555 0.0000 ( 34472 PWs)   bands (ev):

   -84.9074 -84.9031 -84.6553 -84.6511 -84.1896 -84.1853 -44.9992 -44.9899
   -44.0946 -44.0520 -44.0433 -44.0082 -43.8648 -43.8363 -43.8283 -43.7821
   -43.6960 -43.6891 -43.6185 -43.5332 -43.4942 -43.4858 -43.3281 -43.3199
    -6.4762  -6.4430  -6.3233  -6.2563  -6.2054  -6.1828  -6.0518  -6.0510
    -5.9528  -5.8561  -5.7965  -5.7635  -5.6430  -5.6193  -5.5747  -5.5168
    -5.4178  -5.3642  -5.3419  -5.2872  -5.2756  -5.1886  -5.1621  -5.1539
    -5.0834  -5.0652  -5.0234  -4.9955  -4.9516  -4.9368  -4.8581  -4.6817
    -3.9034  -3.3720  -2.9967  -2.6731  -2.4682  -2.3711  -2.0505  -2.0269
    -1.5329  -1.2815  -0.9782  -0.6775  -0.6389  -0.5431  -0.3636  -0.1879
    -0.0018   0.1741   0.2257   0.3602   0.5545   0.7013   0.7145   0.7376
     0.8852   1.1209   1.1273   1.3392   1.6353   1.8988   2.0557   2.2341
     2.3462   2.4654   2.5806   2.8236   2.8704   3.7014   4.1312   4.3426
     4.6820   5.2531   5.9922   6.2023   6.6632

          k = 0.0733-0.0397 0.0000 ( 34475 PWs)   bands (ev):

   -84.9074 -84.9031 -84.6553 -84.6511 -84.1896 -84.1853 -44.9992 -44.9899
   -44.0945 -44.0519 -44.0433 -44.0082 -43.8648 -43.8363 -43.8283 -43.7821
   -43.6960 -43.6891 -43.6184 -43.5332 -43.4941 -43.4858 -43.3281 -43.3199
    -6.5237  -6.4608  -6.3736  -6.2911  -6.2273  -6.2033  -6.0861  -6.0685
    -5.9648  -5.8799  -5.7890  -5.7666  -5.6495  -5.6265  -5.5630  -5.5166
    -5.4408  -5.3850  -5.3288  -5.3065  -5.2750  -5.1795  -5.1717  -5.1538
    -5.0809  -5.0638  -5.0377  -4.9721  -4.9628  -4.9352  -4.8639  -4.5457
    -4.0187  -3.2895  -2.8547  -2.7308  -2.4644  -2.3772  -2.0038  -1.9027
    -1.4414  -1.3102  -0.9482  -0.6160  -0.5271  -0.4177  -0.3761  -0.1419
     0.0901   0.1933   0.2104   0.3933   0.5425   0.6983   0.7150   0.7580
     0.8936   1.0891   1.1577   1.2820   1.6555   1.7565   2.1791   2.2486
     2.3838   2.4660   2.6233   2.6507   3.0956   3.2623   3.9878   4.6236
     4.6327   5.2051   5.9538   6.1537   6.4609

          k = 0.0733-0.0238 0.0000 ( 34494 PWs)   bands (ev):

   -84.9074 -84.9031 -84.6553 -84.6511 -84.1896 -84.1853 -44.9992 -44.9899
   -44.0945 -44.0518 -44.0434 -44.0083 -43.8647 -43.8363 -43.8283 -43.7821
   -43.6960 -43.6891 -43.6184 -43.5333 -43.4941 -43.4858 -43.3281 -43.3199
    -6.5814  -6.4728  -6.3998  -6.3133  -6.2432  -6.2153  -6.1111  -6.0834
    -5.9742  -5.9062  -5.7816  -5.7712  -5.6627  -5.6337  -5.5555  -5.5030
    -5.4560  -5.4105  -5.3376  -5.3129  -5.2742  -5.1863  -5.1747  -5.1460
    -5.0794  -5.0695  -5.0396  -4.9680  -4.9604  -4.9338  -4.8658  -4.4076
    -4.1238  -3.2678  -2.7916  -2.7287  -2.4450  -2.4053  -1.9339  -1.7547
    -1.3643  -1.3440  -0.9058  -0.5949  -0.5009  -0.2800  -0.2430  -0.1149
     0.1881   0.1963   0.2501   0.4346   0.5374   0.7009   0.7222   0.8061
     0.9173   0.9929   1.1534   1.2176   1.4260   1.8552   1.9136   2.1821
     2.2406   2.5850   2.6107   2.9209   3.0340   3.5230   3.9159   4.4031
     4.8990   5.3859   5.4721   5.8890   6.2416

          k = 0.0733-0.0079 0.0000 ( 34502 PWs)   bands (ev):

   -84.9074 -84.9031 -84.6553 -84.6511 -84.1896 -84.1853 -44.9992 -44.9899
   -44.0944 -44.0517 -44.0434 -44.0083 -43.8647 -43.8363 -43.8283 -43.7821
   -43.6960 -43.6891 -43.6184 -43.5333 -43.4940 -43.4858 -43.3281 -43.3199
    -6.6184  -6.4779  -6.4099  -6.3237  -6.2513  -6.2207  -6.1240  -6.0929
    -5.9795  -5.9218  -5.7773  -5.7753  -5.6742  -5.6363  -5.5533  -5.4861
    -5.4591  -5.4306  -5.3546  -5.3136  -5.2733  -5.1943  -5.1727  -5.1414
    -5.0788  -5.0733  -5.0383  -4.9704  -4.9555  -4.9334  -4.8663  -4.3188
    -4.1825  -3.2862  -2.7826  -2.6898  -2.4386  -2.4260  -1.8902  -1.6013
    -1.4631  -1.2693  -0.8722  -0.5765  -0.5166  -0.1801  -0.1202  -0.0991
     0.1873   0.2387   0.3663   0.4581   0.4775   0.6625   0.7290   0.8745
     0.9452   1.0265   1.1388   1.2026   1.2250   1.5492   1.9048   2.1566
     2.1615   2.6028   2.6278   2.9623   3.2744   3.7411   4.2501   4.2744
     4.4438   5.3308   5.5965   5.6831   5.9705

          k = 0.0733 0.0079 0.0000 ( 34502 PWs)   bands (ev):

   -84.9074 -84.9031 -84.6553 -84.6511 -84.1896 -84.1853 -44.9992 -44.9899
   -44.0944 -44.0517 -44.0434 -44.0083 -43.8647 -43.8363 -43.8283 -43.7821
   -43.6960 -43.6891 -43.6184 -43.5333 -43.4940 -43.4858 -43.3281 -43.3199
    -6.6184  -6.4779  -6.4099  -6.3237  -6.2513  -6.2207  -6.1240  -6.0929
    -5.9795  -5.9218  -5.7773  -5.7753  -5.6742  -5.6363  -5.5533  -5.4861
    -5.4591  -5.4306  -5.3546  -5.3136  -5.2733  -5.1943  -5.1727  -5.1414
    -5.0788  -5.0733  -5.0383  -4.9704  -4.9555  -4.9334  -4.8663  -4.3188
    -4.1825  -3.2862  -2.7826  -2.6898  -2.4386  -2.4260  -1.8902  -1.6013
    -1.4631  -1.2693  -0.8722  -0.5765  -0.5166  -0.1801  -0.1202  -0.0991
     0.1873   0.2387   0.3663   0.4581   0.4775   0.6625   0.7291   0.8745
     0.9452   1.0265   1.1388   1.2026   1.2250   1.5492   1.9048   2.1566
     2.1615   2.6028   2.6278   2.9623   3.2744   3.7411   4.2501   4.2744
     4.4438   5.3308   5.5965   5.6831   5.9705

          k = 0.0733 0.0238 0.0000 ( 34494 PWs)   bands (ev):

   -84.9074 -84.9031 -84.6553 -84.6511 -84.1896 -84.1853 -44.9992 -44.9899
   -44.0945 -44.0518 -44.0434 -44.0083 -43.8647 -43.8363 -43.8283 -43.7821
   -43.6960 -43.6891 -43.6184 -43.5333 -43.4941 -43.4858 -43.3281 -43.3199
    -6.5814  -6.4728  -6.3998  -6.3133  -6.2432  -6.2153  -6.1111  -6.0834
    -5.9742  -5.9062  -5.7816  -5.7712  -5.6627  -5.6337  -5.5555  -5.5030
    -5.4560  -5.4105  -5.3376  -5.3129  -5.2742  -5.1863  -5.1747  -5.1460
    -5.0794  -5.0695  -5.0396  -4.9680  -4.9604  -4.9338  -4.8658  -4.4076
    -4.1238  -3.2678  -2.7916  -2.7287  -2.4450  -2.4053  -1.9339  -1.7547
    -1.3643  -1.3440  -0.9058  -0.5949  -0.5009  -0.2800  -0.2430  -0.1149
     0.1881   0.1963   0.2501   0.4346   0.5374   0.7008   0.7222   0.8061
     0.9173   0.9929   1.1534   1.2176   1.4260   1.8552   1.9136   2.1821
     2.2406   2.5850   2.6107   2.9209   3.0340   3.5230   3.9159   4.4031
     4.8990   5.3859   5.4721   5.8890   6.2416

          k =-0.0880-0.0476 0.0000 ( 34504 PWs)   bands (ev):

   -84.9054 -84.9051 -84.6533 -84.6531 -84.1875 -84.1873 -44.9950 -44.9941
   -44.0516 -44.0514 -44.0477 -44.0475 -43.8324 -43.8322 -43.8236 -43.8235
   -43.6926 -43.6925 -43.5760 -43.5759 -43.4901 -43.4899 -43.3241 -43.3239
    -6.4513  -6.4513  -6.2559  -6.2559  -6.1356  -6.1356  -6.0369  -6.0369
    -5.8589  -5.8589  -5.7223  -5.7223  -5.6244  -5.6244  -5.5176  -5.5175
    -5.3477  -5.3472  -5.3225  -5.3224  -5.2895  -5.2890  -5.2306  -5.2301
    -5.1280  -5.1279  -5.0473  -5.0471  -4.9945  -4.9943  -4.8757  -4.8755
    -3.6807  -3.6803  -2.8033  -2.8030  -2.3979  -2.3977  -1.9874  -1.9873
    -1.4062  -1.4060  -0.7645  -0.7642  -0.4708  -0.4708  -0.2006  -0.2002
     0.1003   0.1004   0.3893   0.3893   0.5311   0.5314   0.6706   0.6707
     0.8725   0.8726   1.1562   1.1563   1.6963   1.6964   2.2196   2.2197
     2.4093   2.4096   2.5868   2.5869   3.1706   3.1707   4.3937   4.3938
     4.7918   4.7919   6.3209   6.3210   6.5930

          k =-0.0880-0.0317 0.0000 ( 34516 PWs)   bands (ev):

   -84.9054 -84.9051 -84.6533 -84.6531 -84.1875 -84.1873 -44.9950 -44.9941
   -44.0516 -44.0514 -44.0477 -44.0475 -43.8324 -43.8322 -43.8236 -43.8235
   -43.6926 -43.6925 -43.5761 -43.5759 -43.4901 -43.4899 -43.3241 -43.3239
    -6.4623  -6.4382  -6.2521  -6.2502  -6.1373  -6.1321  -6.0432  -6.0313
    -5.8610  -5.8566  -5.7371  -5.7242  -5.6497  -5.6040  -5.5220  -5.5060
    -5.3619  -5.3421  -5.3255  -5.3179  -5.2983  -5.2849  -5.2303  -5.2267
    -5.1501  -5.1113  -5.0698  -5.0343  -5.0017  -4.9851  -4.9109  -4.7979
    -3.7890  -3.6056  -2.8865  -2.7162  -2.4059  -2.3988  -2.0324  -1.9117
    -1.4926  -1.3094  -0.7829  -0.7578  -0.4933  -0.4687  -0.1898  -0.1260
     0.0548   0.1443   0.3320   0.4625   0.5163   0.5440   0.6591   0.6944
     0.8825   0.8829   1.0521   1.1877   1.5063   1.8799   1.9979   2.2312
     2.2699   2.4490   2.5467   2.8874   2.9068   3.6366   4.2691   4.2719
     4.8339   5.0595   6.0194   6.2647   6.3203

          k =-0.0880-0.0159 0.0000 ( 34496 PWs)   bands (ev):

   -84.9054 -84.9051 -84.6533 -84.6531 -84.1875 -84.1873 -44.9950 -44.9941
   -44.0516 -44.0514 -44.0478 -44.0474 -43.8324 -43.8322 -43.8236 -43.8234
   -43.6926 -43.6925 -43.5761 -43.5759 -43.4901 -43.4899 -43.3241 -43.3239
    -6.4688  -6.4275  -6.2424  -6.2390  -6.1385  -6.1292  -6.0496  -6.0241
    -5.8618  -5.8546  -5.7658  -5.7476  -5.6456  -5.5995  -5.5171  -5.4963
    -5.3764  -5.3480  -5.3311  -5.3112  -5.3061  -5.2851  -5.2299  -5.2163
    -5.1711  -5.1017  -5.0870  -5.0301  -5.0041  -4.9804  -4.9221  -4.7055
    -3.8743  -3.6085  -2.8985  -2.6797  -2.4331  -2.3876  -2.0538  -1.8211
    -1.5647  -1.2261  -0.8539  -0.7127  -0.5337  -0.4455  -0.1261  -0.0240
     0.0299   0.1738   0.2914   0.4437   0.5120   0.5925   0.6956   0.7123
     0.9000   0.9059   0.9484   1.1815   1.3570   1.6633   2.0013   2.1180
     2.2534   2.4410   2.5529   2.8335   3.3103   3.9715   4.0761   4.4128
     4.8726   5.0809   5.9279   6.0344   6.1749

          k =-0.0880 0.0000 0.0000 ( 34469 PWs)   bands (ev):

   -84.9054 -84.9051 -84.6533 -84.6531 -84.1875 -84.1873 -44.9950 -44.9941
   -44.0516 -44.0514 -44.0478 -44.0474 -43.8324 -43.8322 -43.8236 -43.8234
   -43.6926 -43.6925 -43.5761 -43.5759 -43.4901 -43.4899 -43.3241 -43.3239
    -6.4709  -6.4235  -6.2369  -6.2330  -6.1394  -6.1286  -6.0524  -6.0193
    -5.8617  -5.8531  -5.7909  -5.7512  -5.6399  -5.5998  -5.5122  -5.4929
    -5.3822  -5.3556  -5.3328  -5.3087  -5.3076  -5.2863  -5.2299  -5.2073
    -5.1827  -5.0986  -5.0927  -5.0291  -5.0046  -4.9792  -4.9246  -4.6626
    -3.9058  -3.6297  -2.8828  -2.6745  -2.4512  -2.3789  -2.0602  -1.7697
    -1.6030  -1.1935  -0.8945  -0.6405  -0.6135  -0.4089  -0.0936  -0.0114
     0.0796   0.1838   0.2737   0.3777   0.5125   0.6213   0.7193   0.7306
     0.8948   0.9079   0.9767   1.1749   1.2823   1.4839   2.0444   2.0829
     2.2380   2.4376   2.5568   2.8223   3.5440   4.0068   4.1324   4.3484
     4.9348   5.2160   5.5189   6.0474   6.0599

          k =-0.0880 0.0159 0.0000 ( 34496 PWs)   bands (ev):

   -84.9054 -84.9051 -84.6533 -84.6531 -84.1875 -84.1873 -44.9950 -44.9941
   -44.0516 -44.0514 -44.0478 -44.0474 -43.8324 -43.8322 -43.8236 -43.8234
   -43.6926 -43.6925 -43.5761 -43.5759 -43.4901 -43.4899 -43.3241 -43.3239
    -6.4688  -6.4275  -6.2424  -6.2390  -6.1385  -6.1292  -6.0496  -6.0241
    -5.8618  -5.8546  -5.7658  -5.7476  -5.6456  -5.5995  -5.5171  -5.4963
    -5.3764  -5.3480  -5.3311  -5.3112  -5.3061  -5.2851  -5.2299  -5.2163
    -5.1711  -5.1017  -5.0870  -5.0301  -5.0041  -4.9804  -4.9221  -4.7055
    -3.8743  -3.6085  -2.8985  -2.6797  -2.4331  -2.3876  -2.0538  -1.8211
    -1.5647  -1.2261  -0.8539  -0.7127  -0.5337  -0.4455  -0.1261  -0.0240
     0.0299   0.1738   0.2914   0.4437   0.5119   0.5925   0.6956   0.7123
     0.9000   0.9059   0.9484   1.1815   1.3570   1.6633   2.0013   2.1180
     2.2534   2.4410   2.5529   2.8335   3.3103   3.9715   4.0761   4.4128
     4.8726   5.0809   5.9279   6.0343   6.1750

          k =-0.0880 0.0317 0.0000 ( 34516 PWs)   bands (ev):

   -84.9054 -84.9051 -84.6533 -84.6531 -84.1875 -84.1873 -44.9950 -44.9941
   -44.0516 -44.0514 -44.0477 -44.0475 -43.8324 -43.8322 -43.8236 -43.8235
   -43.6926 -43.6925 -43.5761 -43.5759 -43.4901 -43.4899 -43.3241 -43.3239
    -6.4623  -6.4382  -6.2521  -6.2502  -6.1373  -6.1321  -6.0432  -6.0313
    -5.8610  -5.8566  -5.7371  -5.7242  -5.6497  -5.6040  -5.5220  -5.5060
    -5.3619  -5.3421  -5.3255  -5.3179  -5.2983  -5.2849  -5.2303  -5.2267
    -5.1501  -5.1113  -5.0698  -5.0343  -5.0017  -4.9851  -4.9109  -4.7979
    -3.7890  -3.6056  -2.8865  -2.7162  -2.4059  -2.3988  -2.0324  -1.9117
    -1.4926  -1.3094  -0.7829  -0.7578  -0.4933  -0.4687  -0.1898  -0.1260
     0.0548   0.1443   0.3320   0.4625   0.5163   0.5440   0.6591   0.6944
     0.8825   0.8829   1.0521   1.1877   1.5063   1.8799   1.9979   2.2312
     2.2699   2.4490   2.5467   2.8874   2.9067   3.6366   4.2691   4.2719
     4.8339   5.0595   6.0194   6.2647   6.3203

          k =-0.0880-0.1428 0.0000 ( 34504 PWs)   bands (ev):

   -84.9054 -84.9051 -84.6533 -84.6531 -84.1875 -84.1873 -44.9950 -44.9941
   -44.0516 -44.0514 -44.0477 -44.0475 -43.8324 -43.8322 -43.8236 -43.8235
   -43.6926 -43.6925 -43.5760 -43.5759 -43.4901 -43.4899 -43.3241 -43.3239
    -6.4513  -6.4513  -6.2560  -6.2559  -6.1356  -6.1356  -6.0369  -6.0369
    -5.8589  -5.8589  -5.7223  -5.7223  -5.6244  -5.6244  -5.5176  -5.5175
    -5.3476  -5.3472  -5.3225  -5.3224  -5.2895  -5.2890  -5.2306  -5.2302
    -5.1280  -5.1279  -5.0473  -5.0471  -4.9945  -4.9943  -4.8757  -4.8756
    -3.6807  -3.6803  -2.8033  -2.8029  -2.3979  -2.3977  -1.9875  -1.9872
    -1.4061  -1.4061  -0.7645  -0.7642  -0.4708  -0.4708  -0.2004  -0.2004
     0.1003   0.1004   0.3893   0.3893   0.5312   0.5313   0.6706   0.6707
     0.8725   0.8725   1.1562   1.1564   1.6963   1.6965   2.2196   2.2197
     2.4093   2.4095   2.5868   2.5870   3.1705   3.1707   4.3936   4.3939
     4.7918   4.7919   6.3209   6.3211   6.5930

     the Fermi energy is     1.7482 ev

!    total energy              =   -1809.61602825 Ry
     estimated scf accuracy    <       0.00000324 Ry
     smearing contrib. (-TS)   =      -0.05114779 Ry
     internal energy E=F+TS    =   -1809.56488046 Ry

     The total energy is F=E-TS. E is the sum of the following terms:
     one-electron contribution =  -13472.94665723 Ry
     hartree contribution      =    6769.93147175 Ry
     xc contribution           =    -436.36502013 Ry
     ewald contribution        =    5329.81525629 Ry
     electric field correction =       0.00006886 Ry

     convergence has been achieved in  15 iterations

     negative rho (up, down):  1.048E-03 0.000E+00

     Forces acting on atoms (cartesian axes, Ry/au):

     atom    1 type  1   force =    -0.00000228    0.02603126    0.03782558
     atom    2 type  1   force =    -0.00000109    0.02603226    0.03782310
     atom    3 type  2   force =     0.00000586   -0.00816493   -0.05545948
     atom    4 type  2   force =    -0.00000212   -0.00816658   -0.05545754
     atom    5 type  1   force =    -0.00000339   -0.03726083   -0.01052752
     atom    6 type  1   force =     0.00000278   -0.03728896   -0.01060865
     atom    7 type  2   force =    -0.00002299    0.01937407    0.02741205
     atom    8 type  2   force =     0.00002570    0.01936177    0.02740281
     atom    9 type  1   force =    -0.00000941   -0.00049329    0.00030043
     atom   10 type  1   force =     0.00000311   -0.00058187    0.00016259
     atom   11 type  2   force =    -0.00006449    0.00057535    0.00055725
     atom   12 type  2   force =     0.00006832    0.00058175    0.00056939

     Total force =     0.125531     Total SCF correction =     0.010959

     Writing output data file ./Os2Hg2/Os2Hg2_beef.save/

     init_run     :    560.91s CPU    727.46s WALL (       1 calls)
     electrons    :  21156.88s CPU  27796.34s WALL (       1 calls)
     forces       :    212.36s CPU    276.50s WALL (       1 calls)

     Called by init_run:
     wfcinit      :    499.69s CPU    636.38s WALL (       1 calls)
     potinit      :     40.32s CPU     58.41s WALL (       1 calls)
     hinit0       :     13.05s CPU     20.24s WALL (       1 calls)

     Called by electrons:
     c_bands      :  17913.55s CPU  23633.98s WALL (      15 calls)
     sum_band     :   2946.16s CPU   3768.29s WALL (      15 calls)
     v_of_rho     :    269.25s CPU    359.10s WALL (      16 calls)
     newd         :     27.55s CPU     39.34s WALL (      16 calls)
     mix_rho      :     28.62s CPU     36.25s WALL (      15 calls)
     vdW_kernel   :     20.82s CPU     31.45s WALL (       1 calls)

     Called by c_bands:
     init_us_2    :      5.94s CPU      7.61s WALL (    2368 calls)
     cegterg      :  17704.68s CPU  23326.43s WALL (    1110 calls)

     Called by *egterg:
     cdiaghg      :    237.68s CPU    331.25s WALL (    5242 calls)
     h_psi        :  12730.37s CPU  16772.53s WALL (    5316 calls)
     s_psi        :    387.02s CPU    516.24s WALL (    5316 calls)
     g_psi        :      1.42s CPU      1.93s WALL (    4132 calls)

     Called by h_psi:
     h_psi:calbec :   2066.37s CPU   2704.21s WALL (    5316 calls)
     vloc_psi     :  10237.07s CPU  13490.56s WALL (    5316 calls)
     add_vuspsi   :    424.72s CPU    574.60s WALL (    5316 calls)

     General routines
     calbec       :   2995.69s CPU   3900.33s WALL (    6722 calls)
     fft          :    279.79s CPU    366.29s WALL (    1067 calls)
     ffts         :      7.90s CPU     10.43s WALL (      31 calls)
     fftw         :  12329.55s CPU  16178.38s WALL (  663368 calls)
     interpolate  :      7.86s CPU     10.44s WALL (      16 calls)

     Parallel routines
     fft_scatt_xy :     72.74s CPU     79.90s WALL (  664466 calls)
     fft_scatt_yz :  12138.35s CPU  16043.46s WALL (  664466 calls)

     PWSCF        :      7h35m CPU     10h 2m WALL


   This run was terminated on:   2:30: 1  11Jul2022            

=------------------------------------------------------------------------------=
   JOB DONE.
=------------------------------------------------------------------------------=
