
     Program PWSCF v.6.6 starts on 24Jun2022 at 12: 4: 9 

     This program is part of the open-source Quantum ESPRESSO suite
     for quantum simulation of materials; please cite
         "P. Giannozzi et al., J. Phys.:Condens. Matter 21 395502 (2009);
         "P. Giannozzi et al., J. Phys.:Condens. Matter 29 465901 (2017);
          URL http://www.quantum-espresso.org", 
     in publications or presentations arising from this work. More details at
     http://www.quantum-espresso.org/quote

     Parallel version (MPI), running on    37 processors

     MPI processes distributed on     1 nodes
     R & G space division:  proc/nbgrp/npool/nimage =      37
     Fft bands division:     nmany     =       1
     Reading input from Os2Pt2.in
Warning: card &CELL ignored
Warning: card / ignored

     Current dimensions of program PWSCF are:
     Max number of different atomic species (ntypx) = 10
     Max number of k-points (npk) =  40000
     Max angular momentum in pseudopotentials (lmaxx) =  3
     Presently stress not available with electric field and gates

     Message from routine cell_base_init:
     DEPRECATED: use true lattice parameter, not A to a.u. conversion factor
     file Pt.pbe-n-rrkjus_psl.1.0.0.UPF: wavefunction(s)  6S renormalized

     **************************************************************************
     Initializing libbeef V0.1.2 with the BEEF-vdW functional.
     Citation: Wellendorff et al., PRB 85, 235149 (2012).
     **************************************************************************


     IMPORTANT: XC functional enforced from input :
     Exchange-correlation= BEEF-VDW
                           (   1   4  43  14   2   0   0)
     Any further DFT definition will be discarded
     Please, verify this is what you really want


     Subspace diagonalization in iterative solution of the eigenvalue problem:
     a serial algorithm will be used

     Found symmetry operation: I + (  0.5000  0.0000  0.0000)
     This is a supercell, fractional translations are disabled

     Parallelization info
     --------------------
     sticks:   dense  smooth     PW     G-vecs:    dense   smooth      PW
     Min         112      44     13                25944     6550    1033
     Max         113      45     14                25955     6577    1044
     Sum        4163    1663    491               960157   242977   38345



     bravais-lattice index     =            0
     lattice parameter (alat)  =       1.8897  a.u.
     unit-cell volume          =    4392.8144 (a.u.)^3
     number of atoms/cell      =           12
     number of atomic types    =            2
     number of electrons       =       156.00
     number of Kohn-Sham states=           94
     kinetic-energy cutoff     =      55.1240  Ry
     charge density cutoff     =     551.2396  Ry
     convergence threshold     =      1.0E-05
     mixing beta               =       0.1000
     number of iterations used =           10  plain     mixing
     Exchange-correlation= BEEF-VDW
                           (   1   4  43  14   2   0   0)

     celldm(1)=   1.889726  celldm(2)=   0.000000  celldm(3)=   0.000000
     celldm(4)=   0.000000  celldm(5)=   0.000000  celldm(6)=   0.000000

     crystal axes: (cart. coord. in units of alat)
               a(1) = (   5.501872   0.000000   0.000000 )  
               a(2) = (  -2.750936   4.825177   0.000000 )  
               a(3) = (   0.000000   0.000000  24.520121 )  

     reciprocal axes: (cart. coord. in units 2 pi/alat)
               b(1) = (  0.181756  0.103623 -0.000000 )  
               b(2) = (  0.000000  0.207246  0.000000 )  
               b(3) = (  0.000000 -0.000000  0.040783 )  


     PseudoPot. # 1 for Os read from file:
     ../pseudo/Os.pbe-spn-rrkjus_psl.1.0.0.UPF
     MD5 check sum: 3e7416ed594f6513d36e5cb31ba709d9
     Pseudo is Ultrasoft + core correction, Zval = 16.0
     Generated using "atomic" code by A. Dal Corso v.6.2.2
     Using radial grid of 1275 points,  6 beta functions with: 
                l(1) =   0
                l(2) =   0
                l(3) =   1
                l(4) =   1
                l(5) =   2
                l(6) =   2
     Q(r) pseudized with 0 coefficients 


     PseudoPot. # 2 for Pt read from file:
     ../pseudo/Pt.pbe-n-rrkjus_psl.1.0.0.UPF
     MD5 check sum: 6bc887cfe28d63a5fc1f72d35a7d3ef7
     Pseudo is Ultrasoft + core correction, Zval = 10.0
     Generated using "atomic" code by A. Dal Corso v.6.3
     Using radial grid of 1277 points,  6 beta functions with: 
                l(1) =   0
                l(2) =   0
                l(3) =   1
                l(4) =   1
                l(5) =   2
                l(6) =   2
     Q(r) pseudized with 0 coefficients 


     atomic species   valence    mass     pseudopotential
        Os            16.00   190.23000     Os( 1.00)
        Pt            10.00   195.08400     Pt( 1.00)

     No symmetry found



   Cartesian axes

     site n.     atom                  positions (alat units)
         1           Os  tau(   1) = (   0.0000000   0.0000000  10.0000000  )
         2           Os  tau(   2) = (   2.7509358   0.0000000  10.0000000  )
         3           Pt  tau(   3) = (   1.3754679   2.4125883  10.0000000  )
         4           Pt  tau(   4) = (  -1.3754679   2.4125883  10.0000000  )
         5           Os  tau(   5) = (   2.7509358   1.5683670  12.2600603  )
         6           Os  tau(   6) = (   0.0000000   1.5683670  12.2600603  )
         7           Pt  tau(   7) = (  -1.3754679   3.9809553  12.2600603  )
         8           Pt  tau(   8) = (   1.3754679   3.9809553  12.2600603  )
         9           Os  tau(   9) = (   0.0000067   3.0873722  14.4194277  )
        10           Os  tau(  10) = (   2.7509511   3.0873796  14.4194372  )
        11           Pt  tau(  11) = (   4.1263961   0.7627775  14.5230516  )
        12           Pt  tau(  12) = (   1.3754590   0.7627802  14.5230513  )

     number of k points=    74  Fermi-Dirac smearing, width (Ry)=  0.0100
                       cart. coord. in units 2pi/alat
        k(    1) = (   0.0000000   0.0000000   0.0000000), wk =   0.0138889
        k(    2) = (   0.0000000   0.0172705   0.0000000), wk =   0.0277778
        k(    3) = (   0.0000000   0.0345410   0.0000000), wk =   0.0277778
        k(    4) = (   0.0000000   0.0518116   0.0000000), wk =   0.0277778
        k(    5) = (   0.0000000   0.0690821   0.0000000), wk =   0.0277778
        k(    6) = (   0.0000000   0.0863526   0.0000000), wk =   0.0277778
        k(    7) = (   0.0000000  -0.1036231   0.0000000), wk =   0.0138889
        k(    8) = (   0.0151464   0.0086353   0.0000000), wk =   0.0277778
        k(    9) = (   0.0151464   0.0259058   0.0000000), wk =   0.0277778
        k(   10) = (   0.0151464   0.0431763   0.0000000), wk =   0.0277778
        k(   11) = (   0.0151464   0.0604468   0.0000000), wk =   0.0277778
        k(   12) = (   0.0151464   0.0777174   0.0000000), wk =   0.0277778
        k(   13) = (   0.0151464   0.0949879   0.0000000), wk =   0.0277778
        k(   14) = (   0.0151464  -0.0949879   0.0000000), wk =   0.0277778
        k(   15) = (   0.0151464  -0.0777174   0.0000000), wk =   0.0277778
        k(   16) = (   0.0151464  -0.0604468   0.0000000), wk =   0.0277778
        k(   17) = (   0.0151464  -0.0431763   0.0000000), wk =   0.0277778
        k(   18) = (   0.0151464  -0.0259058   0.0000000), wk =   0.0277778
        k(   19) = (   0.0151464  -0.0086353   0.0000000), wk =   0.0277778
        k(   20) = (   0.0302927   0.0172705   0.0000000), wk =   0.0277778
        k(   21) = (   0.0302927   0.0345410   0.0000000), wk =   0.0277778
        k(   22) = (   0.0302927   0.0518116   0.0000000), wk =   0.0277778
        k(   23) = (   0.0302927   0.0690821   0.0000000), wk =   0.0277778
        k(   24) = (   0.0302927   0.0863526   0.0000000), wk =   0.0277778
        k(   25) = (   0.0302927   0.1036231   0.0000000), wk =   0.0277778
        k(   26) = (   0.0302927  -0.0863526   0.0000000), wk =   0.0277778
        k(   27) = (   0.0302927  -0.0690821   0.0000000), wk =   0.0277778
        k(   28) = (   0.0302927  -0.0518116   0.0000000), wk =   0.0277778
        k(   29) = (   0.0302927  -0.0345410   0.0000000), wk =   0.0277778
        k(   30) = (   0.0302927  -0.0172705   0.0000000), wk =   0.0277778
        k(   31) = (   0.0302927  -0.0000000   0.0000000), wk =   0.0277778
        k(   32) = (   0.0454391   0.0259058   0.0000000), wk =   0.0277778
        k(   33) = (   0.0454391   0.0431763   0.0000000), wk =   0.0277778
        k(   34) = (   0.0454391   0.0604468   0.0000000), wk =   0.0277778
        k(   35) = (   0.0454391   0.0777174   0.0000000), wk =   0.0277778
        k(   36) = (   0.0454391   0.0949879   0.0000000), wk =   0.0277778
        k(   37) = (   0.0454391   0.1122584   0.0000000), wk =   0.0277778
        k(   38) = (   0.0454391  -0.0777174   0.0000000), wk =   0.0277778
        k(   39) = (   0.0454391  -0.0604468   0.0000000), wk =   0.0277778
        k(   40) = (   0.0454391  -0.0431763   0.0000000), wk =   0.0277778
        k(   41) = (   0.0454391  -0.0259058   0.0000000), wk =   0.0277778
        k(   42) = (   0.0454391  -0.0086353   0.0000000), wk =   0.0277778
        k(   43) = (   0.0454391   0.0086353   0.0000000), wk =   0.0277778
        k(   44) = (   0.0605854   0.0345410   0.0000000), wk =   0.0277778
        k(   45) = (   0.0605854   0.0518116   0.0000000), wk =   0.0277778
        k(   46) = (   0.0605854   0.0690821   0.0000000), wk =   0.0277778
        k(   47) = (   0.0605854   0.0863526   0.0000000), wk =   0.0277778
        k(   48) = (   0.0605854   0.1036231   0.0000000), wk =   0.0277778
        k(   49) = (   0.0605854   0.1208937   0.0000000), wk =   0.0277778
        k(   50) = (   0.0605854  -0.0690821   0.0000000), wk =   0.0277778
        k(   51) = (   0.0605854  -0.0518116   0.0000000), wk =   0.0277778
        k(   52) = (   0.0605854  -0.0345410   0.0000000), wk =   0.0277778
        k(   53) = (   0.0605854  -0.0172705   0.0000000), wk =   0.0277778
        k(   54) = (   0.0605854   0.0000000   0.0000000), wk =   0.0277778
        k(   55) = (   0.0605854   0.0172705   0.0000000), wk =   0.0277778
        k(   56) = (   0.0757318   0.0431763   0.0000000), wk =   0.0277778
        k(   57) = (   0.0757318   0.0604468   0.0000000), wk =   0.0277778
        k(   58) = (   0.0757318   0.0777174   0.0000000), wk =   0.0277778
        k(   59) = (   0.0757318   0.0949879   0.0000000), wk =   0.0277778
        k(   60) = (   0.0757318   0.1122584   0.0000000), wk =   0.0277778
        k(   61) = (   0.0757318   0.1295289   0.0000000), wk =   0.0277778
        k(   62) = (   0.0757318  -0.0604468   0.0000000), wk =   0.0277778
        k(   63) = (   0.0757318  -0.0431763   0.0000000), wk =   0.0277778
        k(   64) = (   0.0757318  -0.0259058   0.0000000), wk =   0.0277778
        k(   65) = (   0.0757318  -0.0086353   0.0000000), wk =   0.0277778
        k(   66) = (   0.0757318   0.0086353   0.0000000), wk =   0.0277778
        k(   67) = (   0.0757318   0.0259058   0.0000000), wk =   0.0277778
        k(   68) = (  -0.0908782  -0.0518116   0.0000000), wk =   0.0138889
        k(   69) = (  -0.0908782  -0.0345410   0.0000000), wk =   0.0277778
        k(   70) = (  -0.0908782  -0.0172705   0.0000000), wk =   0.0277778
        k(   71) = (  -0.0908782   0.0000000   0.0000000), wk =   0.0277778
        k(   72) = (  -0.0908782   0.0172705   0.0000000), wk =   0.0277778
        k(   73) = (  -0.0908782   0.0345410   0.0000000), wk =   0.0277778
        k(   74) = (  -0.0908782  -0.1554347   0.0000000), wk =   0.0138889

     Dense  grid:   960157 G-vectors     FFT dimensions: (  80,  80, 360)

     Smooth grid:   242977 G-vectors     FFT dimensions: (  50,  50, 225)

     Estimated max dynamical RAM per process >     192.32 MB

     Estimated total dynamical RAM >       6.95 GB

     Initial potential from superposition of free atoms

     starting charge  155.99752, renormalised to  156.00000

     negative rho (up, down):  7.518E-04 0.000E+00


     %%%%%%%%%%%%%%%%%%%%%%%%%%%%%%%%%%%%%%%%%%%%%%%%%%%%%%%%%%%%%%%%%%%%%%%%
     %                                                                      %
     % You are using vdW-DF, which was implemented by the Thonhauser group. %
     % Please cite the following two papers that made this development      %
     % possible and the two reviews that describe the various versions:     %
     %                                                                      %
     %   T. Thonhauser et al., PRL 115, 136402 (2015).                      %
     %   T. Thonhauser et al., PRB 76, 125112 (2007).                       %
     %   K. Berland et al., Rep. Prog. Phys. 78, 066501 (2015).             %
     %   D.C. Langreth et al., J. Phys.: Condens. Matter 21, 084203 (2009). %
     %                                                                      %
     %                                                                      %
     % If you are calculating the stress with vdW-DF, please also cite:     %
     %                                                                      %
     %   R. Sabatini et al., J. Phys.: Condens. Matter 24, 424209 (2012).   %
     %                                                                      %
     %%%%%%%%%%%%%%%%%%%%%%%%%%%%%%%%%%%%%%%%%%%%%%%%%%%%%%%%%%%%%%%%%%%%%%%%



     Adding external electric field

     Computed dipole along edir(3) : 
        Dipole                0.0000 Ry au,          0.0000 Debye
        Dipole field          0.0000 Ry au, 

        Potential amp.       -0.0000 Ry
        Total length         45.1779 bohr

     Starting wfcs are  114 randomized atomic wfcs

     total cpu time spent up to now is       97.2 secs

     Self-consistent Calculation

     iteration #  1     ecut=    55.12 Ry     beta= 0.10
     Davidson diagonalization with overlap
     ethr =  1.00E-02,  avg # of iterations =  2.8

     negative rho (up, down):  5.859E-04 0.000E+00

     Adding external electric field

     Computed dipole along edir(3) : 
        Dipole                0.1647 Ry au,          0.4187 Debye
        Dipole field          0.0005 Ry au, 

        Potential amp.       -0.0426 Ry
        Total length         45.1779 bohr


     total cpu time spent up to now is      289.8 secs

     total energy              =   -1599.96877380 Ry
     estimated scf accuracy    <       3.76117426 Ry

     iteration #  2     ecut=    55.12 Ry     beta= 0.10
     Davidson diagonalization with overlap
     ethr =  2.41E-03,  avg # of iterations =  1.9

     negative rho (up, down):  5.489E-04 0.000E+00

     Adding external electric field

     Computed dipole along edir(3) : 
        Dipole               -0.5877 Ry au,         -1.4938 Debye
        Dipole field         -0.0017 Ry au, 

        Potential amp.        0.1519 Ry
        Total length         45.1779 bohr


     total cpu time spent up to now is      463.9 secs

     total energy              =   -1600.16522123 Ry
     estimated scf accuracy    <       1.81368127 Ry

     iteration #  3     ecut=    55.12 Ry     beta= 0.10
     Davidson diagonalization with overlap
     ethr =  1.16E-03,  avg # of iterations =  2.1

     negative rho (up, down):  5.337E-04 0.000E+00

     Adding external electric field

     Computed dipole along edir(3) : 
        Dipole                0.0253 Ry au,          0.0643 Debye
        Dipole field          0.0001 Ry au, 

        Potential amp.       -0.0065 Ry
        Total length         45.1779 bohr


     total cpu time spent up to now is      626.3 secs

     total energy              =   -1600.04508937 Ry
     estimated scf accuracy    <      25.69063585 Ry

     iteration #  4     ecut=    55.12 Ry     beta= 0.10
     Davidson diagonalization with overlap
     ethr =  1.16E-03,  avg # of iterations =  1.0

     negative rho (up, down):  5.374E-04 0.000E+00

     Adding external electric field

     Computed dipole along edir(3) : 
        Dipole                0.0297 Ry au,          0.0756 Debye
        Dipole field          0.0001 Ry au, 

        Potential amp.       -0.0077 Ry
        Total length         45.1779 bohr


     total cpu time spent up to now is      766.1 secs

     total energy              =   -1600.37812494 Ry
     estimated scf accuracy    <       0.19819870 Ry

     iteration #  5     ecut=    55.12 Ry     beta= 0.10
     Davidson diagonalization with overlap
     ethr =  1.27E-04,  avg # of iterations =  3.9

     negative rho (up, down):  7.216E-04 0.000E+00

     Adding external electric field

     Computed dipole along edir(3) : 
        Dipole                0.0299 Ry au,          0.0761 Debye
        Dipole field          0.0001 Ry au, 

        Potential amp.       -0.0077 Ry
        Total length         45.1779 bohr


     total cpu time spent up to now is      950.0 secs

     total energy              =   -1600.33729621 Ry
     estimated scf accuracy    <       0.14417708 Ry

     iteration #  6     ecut=    55.12 Ry     beta= 0.10
     Davidson diagonalization with overlap
     ethr =  9.24E-05,  avg # of iterations =  3.1

     negative rho (up, down):  6.725E-04 0.000E+00

     Adding external electric field

     Computed dipole along edir(3) : 
        Dipole                0.0124 Ry au,          0.0315 Debye
        Dipole field          0.0000 Ry au, 

        Potential amp.       -0.0032 Ry
        Total length         45.1779 bohr


     total cpu time spent up to now is     1148.9 secs

     total energy              =   -1600.35340345 Ry
     estimated scf accuracy    <       0.07636843 Ry

     iteration #  7     ecut=    55.12 Ry     beta= 0.10
     Davidson diagonalization with overlap
     ethr =  4.90E-05,  avg # of iterations =  3.5

     negative rho (up, down):  6.886E-04 0.000E+00

     Adding external electric field

     Computed dipole along edir(3) : 
        Dipole                0.0134 Ry au,          0.0339 Debye
        Dipole field          0.0000 Ry au, 

        Potential amp.       -0.0035 Ry
        Total length         45.1779 bohr


     total cpu time spent up to now is     1322.8 secs

     total energy              =   -1600.35950145 Ry
     estimated scf accuracy    <       0.01883482 Ry

     iteration #  8     ecut=    55.12 Ry     beta= 0.10
     Davidson diagonalization with overlap
     c_bands:  1 eigenvalues not converged
     c_bands:  1 eigenvalues not converged
     c_bands:  1 eigenvalues not converged
     ethr =  1.21E-05,  avg # of iterations =  7.0

     negative rho (up, down):  7.872E-04 0.000E+00

     Adding external electric field

     Computed dipole along edir(3) : 
        Dipole                0.0100 Ry au,          0.0253 Debye
        Dipole field          0.0000 Ry au, 

        Potential amp.       -0.0026 Ry
        Total length         45.1779 bohr


     total cpu time spent up to now is     1507.7 secs

     total energy              =   -1600.36062364 Ry
     estimated scf accuracy    <       0.00685678 Ry

     iteration #  9     ecut=    55.12 Ry     beta= 0.10
     Davidson diagonalization with overlap
     c_bands:  1 eigenvalues not converged
     ethr =  4.40E-06,  avg # of iterations =  5.4

     negative rho (up, down):  9.176E-04 0.000E+00

     Adding external electric field

     Computed dipole along edir(3) : 
        Dipole                0.0111 Ry au,          0.0282 Debye
        Dipole field          0.0000 Ry au, 

        Potential amp.       -0.0029 Ry
        Total length         45.1779 bohr


     total cpu time spent up to now is     1701.4 secs

     total energy              =   -1600.36186692 Ry
     estimated scf accuracy    <       0.00250004 Ry

     iteration # 10     ecut=    55.12 Ry     beta= 0.10
     Davidson diagonalization with overlap
     ethr =  1.60E-06,  avg # of iterations =  5.7

     negative rho (up, down):  8.804E-04 0.000E+00

     Adding external electric field

     Computed dipole along edir(3) : 
        Dipole                0.0116 Ry au,          0.0295 Debye
        Dipole field          0.0000 Ry au, 

        Potential amp.       -0.0030 Ry
        Total length         45.1779 bohr


     total cpu time spent up to now is     1924.4 secs

     total energy              =   -1600.36086600 Ry
     estimated scf accuracy    <       0.00405218 Ry

     iteration # 11     ecut=    55.12 Ry     beta= 0.10
     Davidson diagonalization with overlap
     ethr =  1.60E-06,  avg # of iterations =  2.0

     negative rho (up, down):  8.342E-04 0.000E+00

     Adding external electric field

     Computed dipole along edir(3) : 
        Dipole                0.0112 Ry au,          0.0286 Debye
        Dipole field          0.0000 Ry au, 

        Potential amp.       -0.0029 Ry
        Total length         45.1779 bohr


     total cpu time spent up to now is     2120.3 secs

     total energy              =   -1600.36125963 Ry
     estimated scf accuracy    <       0.00022681 Ry

     iteration # 12     ecut=    55.12 Ry     beta= 0.10
     Davidson diagonalization with overlap
     ethr =  1.45E-07,  avg # of iterations =  4.2

     negative rho (up, down):  7.958E-04 0.000E+00

     Adding external electric field

     Computed dipole along edir(3) : 
        Dipole                0.0107 Ry au,          0.0273 Debye
        Dipole field          0.0000 Ry au, 

        Potential amp.       -0.0028 Ry
        Total length         45.1779 bohr


     total cpu time spent up to now is     2341.4 secs

     total energy              =   -1600.36130534 Ry
     estimated scf accuracy    <       0.00005030 Ry

     iteration # 13     ecut=    55.12 Ry     beta= 0.10
     Davidson diagonalization with overlap
     ethr =  3.22E-08,  avg # of iterations =  3.5

     negative rho (up, down):  7.701E-04 0.000E+00

     Adding external electric field

     Computed dipole along edir(3) : 
        Dipole                0.0116 Ry au,          0.0294 Debye
        Dipole field          0.0000 Ry au, 

        Potential amp.       -0.0030 Ry
        Total length         45.1779 bohr


     total cpu time spent up to now is     2543.8 secs

     total energy              =   -1600.36130818 Ry
     estimated scf accuracy    <       0.00009389 Ry

     iteration # 14     ecut=    55.12 Ry     beta= 0.10
     Davidson diagonalization with overlap
     ethr =  3.22E-08,  avg # of iterations =  2.0

     negative rho (up, down):  6.020E-04 0.000E+00

     Adding external electric field

     Computed dipole along edir(3) : 
        Dipole                0.0049 Ry au,          0.0126 Debye
        Dipole field          0.0000 Ry au, 

        Potential amp.       -0.0013 Ry
        Total length         45.1779 bohr


     total cpu time spent up to now is     2710.7 secs

     End of self-consistent calculation

          k = 0.0000 0.0000 0.0000 ( 30457 PWs)   bands (ev):

   -85.3121 -85.2868 -84.8577 -84.8322 -84.7433 -84.7178 -44.7121 -44.7034
   -44.6552 -44.5976 -44.5517 -44.3638 -44.2701 -44.2533 -44.1325 -44.0865
   -44.0521 -44.0080 -44.0076 -43.9622 -43.9199 -43.9068 -43.8759 -43.8139
    -7.7730  -5.8409  -5.4742  -5.2344  -5.1626  -5.0978  -4.9279  -4.8971
    -4.7969  -4.4314  -4.3589  -4.3401  -4.1522  -4.1136  -3.9618  -2.8253
    -2.6303  -2.5077  -2.4496  -2.1825  -2.1208  -1.8849  -1.8329  -1.7229
    -1.6373  -1.5576  -1.5491  -1.2489  -1.2431  -1.1019  -1.0863  -1.0446
    -1.0323  -0.5874  -0.2632   0.0638   0.1719   0.2788   0.3734   0.4667
     0.5150   0.9066   0.9093   1.0617   1.3667   1.4208   1.5337   1.9913
     2.0056   2.0393   2.2090   2.2416   2.3663   2.3700   2.5446   2.6224
     2.7528   2.7680   2.8766   2.8831   2.8900   2.9042   3.2110   3.2565
     3.3821   3.5608   3.8763   4.7319   4.8834   5.0590

          k = 0.0000 0.0173 0.0000 ( 30477 PWs)   bands (ev):

   -85.3121 -85.2868 -84.8577 -84.8322 -84.7433 -84.7178 -44.7122 -44.7035
   -44.6552 -44.5978 -44.5518 -44.3640 -44.2702 -44.2533 -44.1327 -44.0867
   -44.0521 -44.0082 -44.0076 -43.9623 -43.9200 -43.9068 -43.8760 -43.8139
    -7.7102  -5.7780  -5.4172  -5.1842  -5.1519  -5.0464  -4.8901  -4.8757
    -4.7529  -4.4040  -4.3268  -4.3262  -4.0942  -4.0842  -3.8990  -2.8245
    -2.6226  -2.5132  -2.4354  -2.1535  -2.1067  -1.9167  -1.8328  -1.7938
    -1.6084  -1.5661  -1.5352  -1.2711  -1.2249  -1.1072  -1.0979  -1.0627
    -1.0450  -0.6527  -0.3044   0.0494   0.1058   0.2843   0.3086   0.4180
     0.4572   0.7523   0.7803   1.0807   1.3425   1.5205   1.5950   1.7219
     1.7644   1.9241   2.1320   2.1938   2.2309   2.2650   2.3973   2.4587
     2.5654   2.7119   2.7155   2.8622   3.0118   3.1352   3.1730   3.2049
     3.2998   3.6346   3.9466   4.1232   4.5166   5.3978

          k = 0.0000 0.0345 0.0000 ( 30401 PWs)   bands (ev):

   -85.3121 -85.2868 -84.8577 -84.8322 -84.7433 -84.7177 -44.7125 -44.7038
   -44.6553 -44.5985 -44.5521 -44.3642 -44.2705 -44.2534 -44.1332 -44.0870
   -44.0522 -44.0087 -44.0077 -43.9626 -43.9201 -43.9069 -43.8760 -43.8140
    -7.5254  -5.5956  -5.2695  -5.1140  -5.0374  -4.8976  -4.8132  -4.7840
    -4.6264  -4.3206  -4.2842  -4.2298  -3.9991  -3.9266  -3.7138  -2.8273
    -2.6058  -2.5380  -2.4018  -2.1006  -2.0793  -2.0664  -1.8861  -1.7450
    -1.6831  -1.5401  -1.4716  -1.3587  -1.2782  -1.1532  -1.1365  -1.1084
    -0.9247  -0.8171  -0.4402  -0.0496   0.0086   0.1034   0.2317   0.2515
     0.3014   0.5155   0.6036   1.0295   1.1701   1.1718   1.2869   1.5423
     1.5897   1.6798   1.7569   1.7608   1.9940   2.1668   2.2444   2.3024
     2.3373   2.5059   2.5860   2.7227   2.7434   2.9788   3.0751   3.0948
     3.4069   3.6343   3.7289   4.4554   4.6501   5.6525

          k = 0.0000 0.0518 0.0000 ( 30356 PWs)   bands (ev):

   -85.3121 -85.2867 -84.8576 -84.8321 -84.7432 -84.7177 -44.7130 -44.7042
   -44.6555 -44.5995 -44.5525 -44.3646 -44.2709 -44.2534 -44.1339 -44.0874
   -44.0524 -44.0094 -44.0078 -43.9630 -43.9203 -43.9069 -43.8761 -43.8140
    -7.2297  -5.3187  -5.2072  -4.9252  -4.8066  -4.7154  -4.6703  -4.6315
    -4.4346  -4.2126  -4.1833  -4.0649  -3.8666  -3.6677  -3.4187  -2.8443
    -2.6128  -2.6047  -2.3821  -2.3058  -2.0516  -2.0124  -1.9566  -1.8392
    -1.5910  -1.5309  -1.5207  -1.5022  -1.3648  -1.2063  -1.1439  -1.0410
    -1.0075  -0.7379  -0.6672  -0.2410  -0.1601  -0.0867  -0.0719  -0.0489
     0.1740   0.3311   0.4068   0.5478   0.7244   0.8273   0.9783   1.0197
     1.0715   1.3289   1.5299   1.6141   1.8879   1.9017   2.0117   2.1192
     2.2973   2.3203   2.4142   2.5305   2.5431   2.5649   2.8271   2.9925
     3.5580   3.7540   4.1833   4.5893   5.1629   5.3074

          k = 0.0000 0.0691 0.0000 ( 30328 PWs)   bands (ev):

   -85.3120 -85.2867 -84.8576 -84.8321 -84.7432 -84.7177 -44.7134 -44.7045
   -44.6557 -44.6005 -44.5529 -44.3650 -44.2713 -44.2535 -44.1345 -44.0878
   -44.0525 -44.0101 -44.0078 -43.9634 -43.9204 -43.9070 -43.8762 -43.8141
    -6.8439  -5.3233  -4.9762  -4.6161  -4.5923  -4.5253  -4.4620  -4.4083
    -4.2083  -4.1071  -4.0142  -3.8252  -3.7039  -3.3577  -3.0739  -2.8707
    -2.7289  -2.6900  -2.4896  -2.3385  -2.2398  -2.0753  -2.0310  -1.7602
    -1.7455  -1.7317  -1.5477  -1.4073  -1.3167  -1.1887  -1.1742  -1.1304
    -0.9215  -0.9145  -0.5126  -0.5091  -0.5028  -0.3805  -0.3005  -0.2098
    -0.1125  -0.1052  -0.0567   0.2224   0.2304   0.3724   0.6733   0.8416
     0.8988   0.9700   1.2532   1.3804   1.6432   1.7023   1.7807   1.8873
     2.1158   2.1238   2.2297   2.3069   2.4832   2.7383   2.9284   2.9286
     3.6610   3.7836   4.3847   4.7260   5.3628   5.5318

          k = 0.0000 0.0864 0.0000 ( 30276 PWs)   bands (ev):

   -85.3120 -85.2867 -84.8576 -84.8321 -84.7432 -84.7177 -44.7137 -44.7048
   -44.6558 -44.6012 -44.5532 -44.3653 -44.2716 -44.2536 -44.1350 -44.0881
   -44.0526 -44.0106 -44.0079 -43.9637 -43.9206 -43.9071 -43.8763 -43.8142
    -6.4037  -5.5711  -4.6932  -4.4902  -4.3495  -4.3343  -4.2235  -4.1892
    -4.0042  -3.9490  -3.8739  -3.5561  -3.5058  -3.1141  -2.9980  -2.9087
    -2.8431  -2.7030  -2.6200  -2.3859  -2.2911  -2.2404  -2.1232  -1.8197
    -1.7615  -1.6366  -1.6147  -1.5421  -1.3370  -1.2426  -1.1369  -1.0957
    -0.9879  -0.8745  -0.8233  -0.7726  -0.7144  -0.5623  -0.5472  -0.4596
    -0.3661  -0.3076  -0.2613  -0.1374  -0.0038   0.2689   0.4167   0.7200
     0.7822   0.8130   0.9943   1.1490   1.4645   1.6566   1.7546   1.7644
     1.8658   1.9954   2.0216   2.2002   2.4707   2.7613   2.8802   3.3013
     3.7209   3.8099   4.1743   4.8116   5.7330   6.1252

          k = 0.0000-0.1036 0.0000 ( 30338 PWs)   bands (ev):

   -85.3120 -85.2867 -84.8576 -84.8321 -84.7432 -84.7177 -44.7139 -44.7049
   -44.6558 -44.6014 -44.5533 -44.3654 -44.2717 -44.2536 -44.1352 -44.0883
   -44.0527 -44.0108 -44.0079 -43.9638 -43.9206 -43.9071 -43.8763 -43.8142
    -6.0152  -5.8930  -4.5840  -4.4383  -4.2964  -4.2379  -4.1003  -4.0856
    -3.9174  -3.8277  -3.8141  -3.5137  -3.2195  -3.0633  -3.0318  -2.9794
    -2.9761  -2.7651  -2.7297  -2.4362  -2.3607  -1.9922  -1.9191  -1.8543
    -1.7666  -1.7363  -1.7042  -1.6637  -1.4358  -1.3129  -1.1395  -1.1194
    -1.0707  -0.8823  -0.8653  -0.8056  -0.7751  -0.7217  -0.7132  -0.5520
    -0.4522  -0.3857  -0.2241  -0.1379  -0.0436   0.0733   0.4383   0.5824
     0.7214   0.8220   0.8802   1.1421   1.3649   1.6599   1.6999   1.7547
     1.7654   1.8939   1.9890   2.1707   2.4683   2.7860   2.8533   3.5232
     3.7404   3.8202   3.9871   4.8400   5.7937   6.1646

          k = 0.0151 0.0086 0.0000 ( 30390 PWs)   bands (ev):

   -85.3117 -85.2872 -84.8573 -84.8326 -84.7428 -84.7182 -44.7045 -44.7026
   -44.6560 -44.5969 -44.5525 -44.3563 -44.2625 -44.2613 -44.1318 -44.0874
   -44.0513 -44.0084 -44.0073 -43.9631 -43.9192 -43.9148 -43.8767 -43.8219
    -7.7088  -5.7759  -5.4119  -5.2067  -5.1111  -5.0658  -4.8942  -4.8535
    -4.7657  -4.4079  -4.3369  -4.3124  -4.1041  -4.0514  -3.9180  -2.8121
    -2.6310  -2.5057  -2.4248  -2.1724  -2.0905  -1.9305  -1.8749  -1.7576
    -1.6105  -1.5653  -1.5631  -1.2668  -1.2114  -1.1628  -1.1098  -1.0269
    -0.9938  -0.5941  -0.3500  -0.0348   0.1480   0.2458   0.3328   0.4219
     0.5048   0.7788   0.8681   1.0294   1.3292   1.4724   1.4869   1.6503
     1.8187   1.9820   2.0760   2.2288   2.2510   2.3424   2.3932   2.5311
     2.5736   2.6539   2.7361   2.8370   2.9099   3.0445   3.1884   3.2834
     3.5042   3.6733   3.8761   4.1812   4.6653   4.8131

          k = 0.0151 0.0259 0.0000 ( 30412 PWs)   bands (ev):

   -85.3117 -85.2872 -84.8572 -84.8326 -84.7428 -84.7182 -44.7047 -44.7028
   -44.6561 -44.5974 -44.5527 -44.3565 -44.2628 -44.2614 -44.1321 -44.0876
   -44.0514 -44.0084 -44.0077 -43.9633 -43.9193 -43.9149 -43.8768 -43.8219
    -7.5849  -5.6528  -5.3022  -5.1308  -5.0909  -4.9462  -4.8251  -4.8110
    -4.6786  -4.3542  -4.2838  -4.2688  -4.0006  -3.9954  -3.7855  -2.8135
    -2.6183  -2.5204  -2.4042  -2.1209  -2.0610  -2.0481  -1.8694  -1.7586
    -1.6806  -1.6036  -1.4933  -1.2720  -1.2136  -1.1798  -1.1204  -1.1180
    -0.9567  -0.7039  -0.4318  -0.0748   0.0247   0.1866   0.2777   0.3129
     0.3885   0.5894   0.6846   1.0148   1.2488   1.2979   1.4340   1.4876
     1.6843   1.7679   1.8660   1.9186   2.0062   2.0948   2.2414   2.4025
     2.4300   2.5939   2.6505   2.7848   2.8651   2.9726   3.0428   3.2813
     3.5435   3.6510   3.8724   3.9838   4.4784   5.6270

          k = 0.0151 0.0432 0.0000 ( 30365 PWs)   bands (ev):

   -85.3116 -85.2872 -84.8572 -84.8326 -84.7428 -84.7182 -44.7051 -44.7031
   -44.6562 -44.5982 -44.5531 -44.3568 -44.2631 -44.2615 -44.1327 -44.0880
   -44.0515 -44.0085 -44.0082 -43.9636 -43.9194 -43.9149 -43.8768 -43.8220
    -7.3441  -5.4193  -5.1625  -5.0061  -4.9738  -4.7326  -4.7289  -4.6951
    -4.5203  -4.2440  -4.2262  -4.1324  -3.8886  -3.7983  -3.5356  -2.8265
    -2.6090  -2.5653  -2.3818  -2.2454  -2.0583  -2.0051  -1.9161  -1.8202
    -1.6786  -1.6180  -1.4212  -1.3839  -1.3582  -1.2088  -1.1429  -1.1079
    -0.8761  -0.8166  -0.6065  -0.1679  -0.1505  -0.0033   0.0469   0.1528
     0.2697   0.2981   0.5400   0.8280   0.9044   0.9048   1.0589   1.1546
     1.2245   1.4764   1.5993   1.6917   1.9144   2.0086   2.1066   2.1597
     2.2281   2.3983   2.5599   2.5770   2.6915   2.7573   3.0271   3.2082
     3.2253   3.6699   4.0652   4.0669   5.1599   5.5174

          k = 0.0151 0.0604 0.0000 ( 30367 PWs)   bands (ev):

   -85.3116 -85.2872 -84.8572 -84.8326 -84.7428 -84.7182 -44.7056 -44.7035
   -44.6564 -44.5992 -44.5535 -44.3572 -44.2635 -44.2615 -44.1334 -44.0884
   -44.0517 -44.0090 -44.0085 -43.9640 -43.9196 -43.9150 -43.8769 -43.8221
    -7.0017  -5.2075  -5.0944  -4.7493  -4.7323  -4.6163  -4.5337  -4.4596
    -4.3119  -4.1378  -4.0832  -3.9285  -3.7424  -3.5142  -3.2085  -2.8566
    -2.6677  -2.6502  -2.4373  -2.3614  -2.1354  -2.0190  -1.9909  -1.8056
    -1.7641  -1.6255  -1.5840  -1.4308  -1.3082  -1.2464  -1.1790  -1.0652
    -0.9539  -0.8463  -0.6978  -0.3675  -0.2869  -0.2687  -0.2481  -0.0643
    -0.0247   0.1358   0.1577   0.2959   0.4231   0.4894   0.8520   0.9084
     0.9096   1.0901   1.3679   1.5875   1.6072   1.7228   1.9363   1.9498
     2.2235   2.2880   2.3906   2.4632   2.4644   2.7266   2.8875   2.9383
     3.3765   3.6911   4.1978   4.4739   5.3151   5.6447

          k = 0.0151 0.0777 0.0000 ( 30323 PWs)   bands (ev):

   -85.3116 -85.2872 -84.8572 -84.8326 -84.7428 -84.7182 -44.7060 -44.7039
   -44.6565 -44.6000 -44.5538 -44.3576 -44.2639 -44.2616 -44.1340 -44.0888
   -44.0518 -44.0096 -44.0086 -43.9643 -43.9198 -43.9151 -43.8770 -43.8222
    -6.5843  -5.3814  -4.7758  -4.5027  -4.4970  -4.4144  -4.3793  -4.1898
    -4.0827  -4.0081  -3.9086  -3.6552  -3.5842  -3.2124  -3.0256  -2.8429
    -2.8409  -2.6480  -2.5448  -2.3977  -2.3525  -2.1478  -2.1176  -1.8645
    -1.7496  -1.6747  -1.5877  -1.4666  -1.3972  -1.2354  -1.1631  -1.0505
    -1.0494  -0.9390  -0.7567  -0.6744  -0.6028  -0.4608  -0.4471  -0.3039
    -0.2824  -0.2419  -0.0985  -0.0886   0.1184   0.3901   0.4691   0.8080
     0.8407   0.8557   1.0141   1.3017   1.5525   1.6617   1.7364   1.8272
     2.0779   2.0853   2.1598   2.2585   2.4413   2.6403   2.8404   3.2237
     3.4757   3.7203   4.2989   4.3906   5.6276   5.8679

          k = 0.0151 0.0950 0.0000 ( 30340 PWs)   bands (ev):

   -85.3116 -85.2872 -84.8572 -84.8326 -84.7428 -84.7181 -44.7062 -44.7041
   -44.6566 -44.6005 -44.5540 -44.3577 -44.2641 -44.2617 -44.1344 -44.0890
   -44.0519 -44.0099 -44.0087 -43.9645 -43.9199 -43.9151 -43.8771 -43.8222
    -6.1382  -5.6987  -4.5673  -4.4037  -4.3273  -4.2831  -4.2170  -3.9851
    -3.9135  -3.8227  -3.8119  -3.4911  -3.3236  -3.1309  -3.0278  -2.9943
    -2.8315  -2.7645  -2.6703  -2.4913  -2.3042  -2.0974  -2.0859  -1.8469
    -1.7651  -1.7447  -1.6628  -1.6412  -1.4218  -1.3806  -1.1655  -1.1640
    -1.0341  -1.0141  -0.9789  -0.7642  -0.7635  -0.6901  -0.6360  -0.4548
    -0.4407  -0.3694  -0.1567  -0.0761   0.0568   0.1531   0.3847   0.7035
     0.7142   0.8245   0.8641   1.1980   1.4186   1.6491   1.7105   1.7422
     1.8419   1.9578   2.0160   2.1794   2.4354   2.6842   2.7955   3.5238
     3.5282   3.7404   4.1273   4.3512   5.9469   6.3081

          k = 0.0151-0.0950 0.0000 ( 30340 PWs)   bands (ev):

   -85.3116 -85.2872 -84.8572 -84.8326 -84.7428 -84.7181 -44.7062 -44.7041
   -44.6566 -44.6005 -44.5540 -44.3577 -44.2641 -44.2617 -44.1344 -44.0890
   -44.0519 -44.0099 -44.0087 -43.9645 -43.9199 -43.9151 -43.8771 -43.8222
    -6.1382  -5.6987  -4.5673  -4.4037  -4.3273  -4.2831  -4.2170  -3.9851
    -3.9135  -3.8227  -3.8119  -3.4911  -3.3236  -3.1309  -3.0278  -2.9943
    -2.8315  -2.7645  -2.6703  -2.4913  -2.3042  -2.0974  -2.0859  -1.8469
    -1.7651  -1.7447  -1.6628  -1.6412  -1.4218  -1.3806  -1.1655  -1.1640
    -1.0341  -1.0141  -0.9789  -0.7642  -0.7635  -0.6901  -0.6360  -0.4548
    -0.4407  -0.3694  -0.1567  -0.0761   0.0568   0.1531   0.3847   0.7035
     0.7142   0.8245   0.8640   1.1980   1.4186   1.6491   1.7105   1.7422
     1.8419   1.9578   2.0160   2.1794   2.4354   2.6842   2.7955   3.5238
     3.5282   3.7404   4.1273   4.3512   5.9469   6.1360

          k = 0.0151-0.0777 0.0000 ( 30323 PWs)   bands (ev):

   -85.3116 -85.2872 -84.8572 -84.8326 -84.7428 -84.7182 -44.7060 -44.7039
   -44.6565 -44.6000 -44.5538 -44.3576 -44.2639 -44.2616 -44.1340 -44.0888
   -44.0518 -44.0096 -44.0086 -43.9643 -43.9198 -43.9151 -43.8770 -43.8222
    -6.5843  -5.3814  -4.7758  -4.5027  -4.4970  -4.4144  -4.3793  -4.1898
    -4.0827  -4.0081  -3.9086  -3.6552  -3.5842  -3.2124  -3.0256  -2.8429
    -2.8409  -2.6480  -2.5448  -2.3976  -2.3525  -2.1478  -2.1176  -1.8645
    -1.7496  -1.6747  -1.5877  -1.4666  -1.3972  -1.2354  -1.1632  -1.0505
    -1.0494  -0.9390  -0.7567  -0.6744  -0.6028  -0.4608  -0.4471  -0.3039
    -0.2825  -0.2419  -0.0985  -0.0886   0.1184   0.3901   0.4691   0.8080
     0.8407   0.8557   1.0141   1.3017   1.5525   1.6617   1.7364   1.8272
     2.0779   2.0853   2.1598   2.2585   2.4413   2.6403   2.8404   3.2237
     3.4757   3.7203   4.2989   4.3906   5.6276   5.8681

          k = 0.0151-0.0604 0.0000 ( 30367 PWs)   bands (ev):

   -85.3116 -85.2872 -84.8572 -84.8326 -84.7428 -84.7182 -44.7056 -44.7035
   -44.6564 -44.5992 -44.5535 -44.3572 -44.2635 -44.2615 -44.1334 -44.0884
   -44.0517 -44.0090 -44.0085 -43.9640 -43.9196 -43.9150 -43.8769 -43.8221
    -7.0017  -5.2075  -5.0944  -4.7493  -4.7323  -4.6163  -4.5337  -4.4596
    -4.3119  -4.1378  -4.0832  -3.9285  -3.7424  -3.5142  -3.2085  -2.8566
    -2.6677  -2.6502  -2.4373  -2.3614  -2.1354  -2.0190  -1.9909  -1.8056
    -1.7641  -1.6255  -1.5840  -1.4308  -1.3082  -1.2464  -1.1790  -1.0652
    -0.9539  -0.8463  -0.6978  -0.3675  -0.2869  -0.2687  -0.2481  -0.0643
    -0.0247   0.1358   0.1577   0.2959   0.4231   0.4894   0.8520   0.9083
     0.9096   1.0901   1.3679   1.5875   1.6072   1.7228   1.9363   1.9498
     2.2235   2.2880   2.3906   2.4632   2.4644   2.7266   2.8875   2.9383
     3.3765   3.6911   4.1978   4.4739   5.3151   5.6448

          k = 0.0151-0.0432 0.0000 ( 30365 PWs)   bands (ev):

   -85.3116 -85.2872 -84.8572 -84.8326 -84.7428 -84.7182 -44.7051 -44.7031
   -44.6562 -44.5982 -44.5531 -44.3568 -44.2631 -44.2615 -44.1327 -44.0880
   -44.0515 -44.0085 -44.0082 -43.9636 -43.9194 -43.9149 -43.8768 -43.8220
    -7.3441  -5.4193  -5.1625  -5.0061  -4.9738  -4.7326  -4.7289  -4.6951
    -4.5203  -4.2440  -4.2262  -4.1324  -3.8886  -3.7983  -3.5356  -2.8265
    -2.6090  -2.5653  -2.3818  -2.2454  -2.0583  -2.0051  -1.9161  -1.8202
    -1.6786  -1.6180  -1.4212  -1.3839  -1.3582  -1.2088  -1.1429  -1.1079
    -0.8761  -0.8166  -0.6065  -0.1679  -0.1505  -0.0033   0.0469   0.1528
     0.2697   0.2981   0.5400   0.8280   0.9044   0.9048   1.0589   1.1546
     1.2245   1.4764   1.5993   1.6917   1.9144   2.0086   2.1066   2.1597
     2.2281   2.3983   2.5599   2.5770   2.6915   2.7573   3.0271   3.2082
     3.2253   3.6699   4.0652   4.0669   5.1600   5.5174

          k = 0.0151-0.0259 0.0000 ( 30412 PWs)   bands (ev):

   -85.3117 -85.2872 -84.8572 -84.8326 -84.7428 -84.7182 -44.7047 -44.7028
   -44.6561 -44.5974 -44.5527 -44.3565 -44.2628 -44.2614 -44.1321 -44.0876
   -44.0514 -44.0084 -44.0077 -43.9633 -43.9193 -43.9149 -43.8768 -43.8219
    -7.5849  -5.6528  -5.3022  -5.1308  -5.0909  -4.9462  -4.8251  -4.8110
    -4.6786  -4.3542  -4.2838  -4.2688  -4.0006  -3.9954  -3.7855  -2.8135
    -2.6183  -2.5204  -2.4042  -2.1209  -2.0610  -2.0481  -1.8694  -1.7586
    -1.6806  -1.6036  -1.4933  -1.2720  -1.2136  -1.1798  -1.1204  -1.1180
    -0.9567  -0.7039  -0.4318  -0.0748   0.0247   0.1866   0.2777   0.3129
     0.3885   0.5894   0.6846   1.0148   1.2488   1.2979   1.4340   1.4876
     1.6843   1.7679   1.8660   1.9186   2.0062   2.0948   2.2414   2.4025
     2.4300   2.5939   2.6505   2.7848   2.8651   2.9726   3.0428   3.2813
     3.5435   3.6510   3.8724   3.9838   4.4784   5.6272

          k = 0.0151-0.0086 0.0000 ( 30390 PWs)   bands (ev):

   -85.3117 -85.2872 -84.8573 -84.8326 -84.7428 -84.7182 -44.7045 -44.7026
   -44.6560 -44.5969 -44.5525 -44.3563 -44.2625 -44.2613 -44.1318 -44.0874
   -44.0513 -44.0084 -44.0073 -43.9631 -43.9192 -43.9148 -43.8767 -43.8219
    -7.7088  -5.7759  -5.4119  -5.2067  -5.1111  -5.0658  -4.8942  -4.8535
    -4.7657  -4.4079  -4.3369  -4.3124  -4.1041  -4.0514  -3.9180  -2.8121
    -2.6310  -2.5057  -2.4248  -2.1724  -2.0905  -1.9305  -1.8749  -1.7576
    -1.6105  -1.5653  -1.5631  -1.2668  -1.2114  -1.1628  -1.1098  -1.0269
    -0.9938  -0.5941  -0.3500  -0.0348   0.1480   0.2458   0.3328   0.4219
     0.5048   0.7788   0.8681   1.0294   1.3292   1.4724   1.4869   1.6503
     1.8187   1.9820   2.0760   2.2288   2.2511   2.3424   2.3932   2.5311
     2.5736   2.6539   2.7361   2.8370   2.9099   3.0445   3.1884   3.2834
     3.5042   3.6733   3.8761   4.1812   4.6653   4.8131

          k = 0.0303 0.0173 0.0000 ( 30384 PWs)   bands (ev):

   -85.3104 -85.2885 -84.8560 -84.8339 -84.7416 -84.7195 -44.7003 -44.6822
   -44.6585 -44.5948 -44.5551 -44.3341 -44.2850 -44.2404 -44.1297 -44.0899
   -44.0492 -44.0106 -44.0052 -43.9656 -43.9383 -43.9170 -43.8790 -43.8454
    -7.5198  -5.5865  -5.2301  -5.1641  -4.9616  -4.9464  -4.8037  -4.7290
    -4.6707  -4.3412  -4.2634  -4.2276  -3.9812  -3.8710  -3.7749  -2.7797
    -2.6406  -2.5033  -2.3623  -2.1453  -2.1351  -2.0027  -1.8917  -1.8297
    -1.7113  -1.6335  -1.4684  -1.3033  -1.2430  -1.1820  -1.1206  -1.0508
    -0.8759  -0.6205  -0.5953  -0.2590   0.0658   0.1177   0.2472   0.2879
     0.4482   0.4769   0.7572   0.8815   1.0650   1.1749   1.3618   1.4814
     1.5035   1.5309   1.8809   1.9570   1.9634   2.2169   2.2528   2.2893
     2.3749   2.5540   2.5694   2.6637   2.7097   2.9839   3.0046   3.2444
     3.3929   3.6744   4.0639   4.1037   4.8045   4.8364

          k = 0.0303 0.0345 0.0000 ( 30391 PWs)   bands (ev):

   -85.3104 -85.2885 -84.8560 -84.8339 -84.7416 -84.7195 -44.7006 -44.6825
   -44.6586 -44.5955 -44.5553 -44.3344 -44.2850 -44.2407 -44.1302 -44.0902
   -44.0493 -44.0107 -44.0057 -43.9658 -43.9384 -43.9172 -43.8790 -43.8454
    -7.3399  -5.4110  -5.1085  -5.0788  -4.9350  -4.7413  -4.7164  -4.6655
    -4.5493  -4.2635  -4.1841  -4.1491  -3.8587  -3.7945  -3.5624  -2.7953
    -2.6304  -2.5331  -2.3720  -2.2600  -2.0909  -1.9606  -1.8988  -1.8218
    -1.7827  -1.7418  -1.3917  -1.2928  -1.2495  -1.2437  -1.1906  -1.1128
    -0.8354  -0.7195  -0.6911  -0.3155  -0.1011   0.0007   0.0959   0.1953
     0.2609   0.3212   0.6199   0.7342   0.9150   0.9399   1.0612   1.0761
     1.2851   1.4994   1.6461   1.6928   1.8702   1.9547   1.9675   2.2079
     2.3670   2.4080   2.5627   2.6093   2.6982   2.7229   2.8766   3.2931
     3.4230   3.5400   4.0245   4.1842   4.9269   5.4500

          k = 0.0303 0.0518 0.0000 ( 30373 PWs)   bands (ev):

   -85.3104 -85.2884 -84.8559 -84.8339 -84.7415 -84.7194 -44.7009 -44.6830
   -44.6588 -44.5964 -44.5556 -44.3347 -44.2851 -44.2411 -44.1308 -44.0905
   -44.0494 -44.0108 -44.0063 -43.9661 -43.9384 -43.9173 -43.8791 -43.8455
    -7.0510  -5.1416  -5.0080  -4.9804  -4.7680  -4.5739  -4.5639  -4.4732
    -4.3777  -4.1249  -4.1114  -3.9676  -3.6753  -3.6406  -3.2703  -2.8333
    -2.6546  -2.5966  -2.4371  -2.3868  -2.0957  -1.9770  -1.9489  -1.8943
    -1.8292  -1.6883  -1.4861  -1.3816  -1.3382  -1.2623  -1.2049  -1.0757
    -0.8585  -0.8461  -0.7737  -0.3907  -0.2779  -0.2267  -0.1274  -0.0166
     0.0599   0.1615   0.3302   0.3536   0.4019   0.6404   0.8337   0.8480
     1.0750   1.1875   1.4425   1.4797   1.6719   1.6964   1.9288   2.1321
     2.2020   2.3406   2.4158   2.5585   2.6350   2.8152   2.9669   3.0966
     3.3547   3.3553   3.4898   4.6219   5.4051   5.5673

          k = 0.0303 0.0691 0.0000 ( 30338 PWs)   bands (ev):

   -85.3104 -85.2884 -84.8559 -84.8338 -84.7415 -84.7194 -44.7013 -44.6834
   -44.6589 -44.5972 -44.5559 -44.3351 -44.2851 -44.2415 -44.1314 -44.0909
   -44.0495 -44.0108 -44.0069 -43.9665 -43.9385 -43.9175 -43.8792 -43.8455
    -6.6722  -5.1324  -4.8062  -4.8059  -4.4576  -4.4365  -4.4063  -4.2109
    -4.1531  -4.0047  -3.9322  -3.7347  -3.5313  -3.3457  -3.0885  -2.7995
    -2.7976  -2.6547  -2.5257  -2.4634  -2.2683  -2.1238  -2.0305  -1.9942
    -1.7449  -1.6389  -1.6303  -1.4688  -1.4267  -1.2687  -1.2517  -1.0707
    -1.0495  -0.9068  -0.8248  -0.5526  -0.5483  -0.4803  -0.4124  -0.1933
    -0.1882  -0.1113  -0.0253   0.0717   0.1863   0.4496   0.6429   0.8031
     0.8471   0.9149   1.0837   1.4842   1.4970   1.5922   1.8775   1.9203
     2.2077   2.2474   2.3591   2.3718   2.4450   2.7341   2.8021   2.9466
     3.2578   3.4187   3.5454   4.7490   5.4309   5.5555

          k = 0.0303 0.0864 0.0000 ( 30343 PWs)   bands (ev):

   -85.3103 -85.2884 -84.8559 -84.8338 -84.7415 -84.7194 -44.7015 -44.6837
   -44.6590 -44.5979 -44.5562 -44.3353 -44.2851 -44.2417 -44.1318 -44.0911
   -44.0496 -44.0109 -44.0074 -43.9667 -43.9385 -43.9176 -43.8793 -43.8455
    -6.2358  -5.3926  -4.6429  -4.5251  -4.3140  -4.2723  -4.1723  -3.9863
    -3.9145  -3.8389  -3.7687  -3.4565  -3.4108  -3.2090  -3.0353  -3.0000
    -2.8067  -2.6310  -2.6211  -2.5467  -2.3119  -2.2145  -2.1893  -1.9805
    -1.7549  -1.7195  -1.6497  -1.6218  -1.5216  -1.4282  -1.3408  -1.1491
    -1.1435  -0.9652  -0.9557  -0.7930  -0.7048  -0.6663  -0.6580  -0.4575
    -0.3362  -0.3078  -0.0241   0.1075   0.1990   0.3149   0.3814   0.6726
     0.8083   0.8408   0.9365   1.3537   1.4745   1.5748   1.6866   1.8489
     2.0952   2.1017   2.1582   2.2391   2.3473   2.4785   2.6757   3.0288
     3.4796   3.5656   3.5677   4.4531   5.4561   6.0417

          k = 0.0303 0.1036 0.0000 ( 30328 PWs)   bands (ev):

   -85.3103 -85.2884 -84.8559 -84.8338 -84.7415 -84.7194 -44.7016 -44.6838
   -44.6590 -44.5981 -44.5562 -44.3354 -44.2851 -44.2418 -44.1320 -44.0912
   -44.0497 -44.0109 -44.0076 -43.9668 -43.9385 -43.9176 -43.8793 -43.8455
    -5.8424  -5.7266  -4.5735  -4.4191  -4.2498  -4.2207  -4.0701  -3.8446
    -3.8145  -3.7295  -3.6709  -3.4026  -3.2883  -3.2353  -3.1117  -3.0283
    -2.8107  -2.7109  -2.6938  -2.5901  -2.2821  -2.1052  -2.0455  -1.9603
    -1.9229  -1.8886  -1.8080  -1.6087  -1.5686  -1.5234  -1.4195  -1.2222
    -1.0890  -1.0305  -1.0157  -0.8407  -0.7485  -0.7191  -0.6867  -0.5734
    -0.4084  -0.3748   0.0114   0.1587   0.1737   0.2810   0.3200   0.6140
     0.7579   0.8468   0.9289   1.3292   1.4399   1.5786   1.6282   1.8111
     1.9220   2.0288   2.0555   2.1773   2.3445   2.4868   2.6398   3.0561
     3.5109   3.5663   3.7607   4.2495   5.4663   6.4856

          k = 0.0303-0.0864 0.0000 ( 30343 PWs)   bands (ev):

   -85.3103 -85.2884 -84.8559 -84.8338 -84.7415 -84.7194 -44.7015 -44.6837
   -44.6590 -44.5979 -44.5562 -44.3353 -44.2851 -44.2417 -44.1318 -44.0911
   -44.0496 -44.0109 -44.0074 -43.9667 -43.9385 -43.9176 -43.8793 -43.8455
    -6.2358  -5.3926  -4.6429  -4.5251  -4.3140  -4.2723  -4.1723  -3.9863
    -3.9145  -3.8389  -3.7687  -3.4565  -3.4108  -3.2090  -3.0353  -3.0000
    -2.8067  -2.6310  -2.6211  -2.5467  -2.3119  -2.2145  -2.1893  -1.9805
    -1.7549  -1.7195  -1.6497  -1.6218  -1.5216  -1.4282  -1.3408  -1.1491
    -1.1435  -0.9652  -0.9557  -0.7930  -0.7048  -0.6663  -0.6581  -0.4575
    -0.3362  -0.3078  -0.0241   0.1075   0.1990   0.3149   0.3814   0.6726
     0.8083   0.8408   0.9365   1.3537   1.4745   1.5748   1.6866   1.8489
     2.0952   2.1017   2.1582   2.2390   2.3473   2.4785   2.6757   3.0288
     3.4796   3.5656   3.5677   4.4531   5.4561   6.0417

          k = 0.0303-0.0691 0.0000 ( 30338 PWs)   bands (ev):

   -85.3104 -85.2884 -84.8559 -84.8338 -84.7415 -84.7194 -44.7013 -44.6834
   -44.6589 -44.5972 -44.5559 -44.3351 -44.2851 -44.2415 -44.1314 -44.0909
   -44.0495 -44.0108 -44.0069 -43.9665 -43.9385 -43.9175 -43.8792 -43.8455
    -6.6722  -5.1324  -4.8062  -4.8059  -4.4576  -4.4365  -4.4063  -4.2109
    -4.1531  -4.0047  -3.9322  -3.7347  -3.5313  -3.3457  -3.0885  -2.7995
    -2.7976  -2.6547  -2.5257  -2.4634  -2.2683  -2.1238  -2.0305  -1.9942
    -1.7449  -1.6389  -1.6303  -1.4687  -1.4267  -1.2687  -1.2517  -1.0707
    -1.0495  -0.9068  -0.8248  -0.5526  -0.5483  -0.4803  -0.4124  -0.1933
    -0.1882  -0.1113  -0.0253   0.0717   0.1863   0.4496   0.6429   0.8031
     0.8471   0.9149   1.0837   1.4842   1.4970   1.5922   1.8775   1.9203
     2.2077   2.2474   2.3591   2.3718   2.4450   2.7341   2.8021   2.9466
     3.2578   3.4188   3.5454   4.7490   5.4309   5.5555

          k = 0.0303-0.0518 0.0000 ( 30373 PWs)   bands (ev):

   -85.3104 -85.2884 -84.8559 -84.8339 -84.7415 -84.7194 -44.7009 -44.6830
   -44.6588 -44.5964 -44.5556 -44.3347 -44.2851 -44.2411 -44.1308 -44.0905
   -44.0494 -44.0108 -44.0063 -43.9661 -43.9384 -43.9173 -43.8791 -43.8455
    -7.0510  -5.1416  -5.0080  -4.9804  -4.7680  -4.5739  -4.5639  -4.4732
    -4.3777  -4.1249  -4.1114  -3.9676  -3.6753  -3.6406  -3.2703  -2.8333
    -2.6546  -2.5966  -2.4371  -2.3868  -2.0957  -1.9770  -1.9489  -1.8943
    -1.8292  -1.6883  -1.4861  -1.3816  -1.3382  -1.2623  -1.2049  -1.0757
    -0.8585  -0.8461  -0.7737  -0.3907  -0.2778  -0.2267  -0.1274  -0.0166
     0.0599   0.1615   0.3302   0.3536   0.4019   0.6404   0.8337   0.8480
     1.0750   1.1875   1.4425   1.4797   1.6719   1.6964   1.9288   2.1321
     2.2019   2.3406   2.4158   2.5585   2.6350   2.8152   2.9669   3.0966
     3.3547   3.3553   3.4898   4.6219   5.4050   5.5674

          k = 0.0303-0.0345 0.0000 ( 30391 PWs)   bands (ev):

   -85.3104 -85.2885 -84.8560 -84.8339 -84.7416 -84.7195 -44.7006 -44.6825
   -44.6586 -44.5955 -44.5553 -44.3344 -44.2850 -44.2407 -44.1302 -44.0902
   -44.0493 -44.0107 -44.0057 -43.9658 -43.9384 -43.9172 -43.8790 -43.8454
    -7.3399  -5.4110  -5.1085  -5.0788  -4.9350  -4.7413  -4.7164  -4.6655
    -4.5493  -4.2635  -4.1841  -4.1491  -3.8587  -3.7945  -3.5624  -2.7953
    -2.6304  -2.5331  -2.3720  -2.2600  -2.0909  -1.9606  -1.8988  -1.8218
    -1.7827  -1.7418  -1.3917  -1.2928  -1.2495  -1.2437  -1.1906  -1.1128
    -0.8354  -0.7195  -0.6910  -0.3155  -0.1011   0.0007   0.0959   0.1953
     0.2609   0.3212   0.6199   0.7342   0.9150   0.9399   1.0612   1.0761
     1.2851   1.4994   1.6461   1.6928   1.8702   1.9547   1.9675   2.2079
     2.3670   2.4080   2.5627   2.6093   2.6982   2.7229   2.8766   3.2931
     3.4230   3.5400   4.0245   4.1842   4.9268   5.4496

          k = 0.0303-0.0173 0.0000 ( 30384 PWs)   bands (ev):

   -85.3104 -85.2885 -84.8560 -84.8339 -84.7416 -84.7195 -44.7003 -44.6822
   -44.6585 -44.5948 -44.5551 -44.3341 -44.2850 -44.2404 -44.1297 -44.0899
   -44.0492 -44.0106 -44.0052 -43.9656 -43.9383 -43.9170 -43.8790 -43.8454
    -7.5198  -5.5865  -5.2301  -5.1641  -4.9616  -4.9464  -4.8037  -4.7290
    -4.6707  -4.3412  -4.2634  -4.2276  -3.9812  -3.8710  -3.7749  -2.7797
    -2.6406  -2.5033  -2.3623  -2.1453  -2.1351  -2.0027  -1.8917  -1.8297
    -1.7113  -1.6335  -1.4684  -1.3033  -1.2430  -1.1820  -1.1206  -1.0508
    -0.8759  -0.6205  -0.5953  -0.2590   0.0658   0.1177   0.2472   0.2879
     0.4482   0.4769   0.7572   0.8815   1.0650   1.1749   1.3618   1.4814
     1.5035   1.5309   1.8809   1.9570   1.9634   2.2169   2.2528   2.2893
     2.3749   2.5540   2.5694   2.6637   2.7097   2.9839   3.0046   3.2444
     3.3929   3.6744   4.0639   4.1037   4.8045   4.8364

          k = 0.0303-0.0000 0.0000 ( 30345 PWs)   bands (ev):

   -85.3104 -85.2885 -84.8560 -84.8339 -84.7416 -84.7194 -44.7002 -44.6821
   -44.6585 -44.5946 -44.5550 -44.3340 -44.2849 -44.2403 -44.1296 -44.0898
   -44.0491 -44.0106 -44.0051 -43.9655 -43.9383 -43.9170 -43.8789 -43.8453
    -7.5809  -5.6467  -5.2858  -5.1633  -5.0380  -4.9712  -4.8291  -4.7503
    -4.7182  -4.3648  -4.3025  -4.2422  -4.0166  -3.8972  -3.8552  -2.7767
    -2.6458  -2.4954  -2.3635  -2.1707  -2.0946  -2.0172  -1.8927  -1.8337
    -1.6881  -1.5452  -1.5043  -1.3145  -1.2923  -1.1847  -1.1039  -0.9763
    -0.8848  -0.5769  -0.5667  -0.2399   0.1431   0.1669   0.2548   0.3322
     0.5186   0.5259   0.8873   0.8984   1.1118   1.1860   1.4163   1.4917
     1.6297   1.6902   1.9206   2.0171   2.1876   2.2531   2.3234   2.3392
     2.4075   2.4975   2.6385   2.7114   2.9910   3.0679   3.0846   3.3177
     3.4778   3.5128   3.8209   3.9899   4.3696   5.5113

          k = 0.0454 0.0259 0.0000 ( 30379 PWs)   bands (ev):

   -85.3084 -85.2905 -84.8539 -84.8359 -84.7395 -84.7215 -44.6967 -44.6626
   -44.6467 -44.5915 -44.5591 -44.3224 -44.2987 -44.2051 -44.1264 -44.0938
   -44.0457 -44.0142 -44.0019 -43.9755 -43.9695 -43.9136 -43.8825 -43.8825
    -7.2174  -5.2922  -5.1714  -4.9464  -4.7307  -4.7291  -4.6804  -4.5440
    -4.5171  -4.2390  -4.1276  -4.0840  -3.8172  -3.5892  -3.5213  -2.7535
    -2.6777  -2.5019  -2.4029  -2.3085  -2.1285  -1.9837  -1.9006  -1.8703
    -1.8600  -1.7560  -1.3840  -1.3489  -1.3053  -1.2273  -1.1596  -1.0082
    -0.8846  -0.7690  -0.6196  -0.4614  -0.1907  -0.1060   0.0370   0.1353
     0.1524   0.3085   0.3725   0.6106   0.7694   0.8312   0.9837   0.9908
     1.2476   1.4428   1.4713   1.6537   1.8007   1.8905   2.0117   2.1782
     2.2686   2.3133   2.3935   2.4602   2.5155   2.7451   2.7675   2.9484
     3.0842   4.2709   4.3170   4.4763   4.9991   5.0283

          k = 0.0454 0.0432 0.0000 ( 30373 PWs)   bands (ev):

   -85.3084 -85.2905 -84.8539 -84.8359 -84.7395 -84.7215 -44.6969 -44.6626
   -44.6470 -44.5922 -44.5593 -44.3224 -44.2990 -44.2054 -44.1268 -44.0941
   -44.0458 -44.0143 -44.0024 -43.9756 -43.9697 -43.9138 -43.8826 -43.8825
    -6.9905  -5.1606  -5.0815  -4.7785  -4.7019  -4.5869  -4.4650  -4.4626
    -4.3841  -4.1362  -4.0295  -3.9666  -3.6822  -3.4994  -3.2627  -2.7977
    -2.6824  -2.5430  -2.5137  -2.4012  -2.1323  -2.0575  -1.9430  -1.8863
    -1.8005  -1.7883  -1.4064  -1.3821  -1.3643  -1.2576  -1.2164  -1.0328
    -0.9375  -0.7640  -0.7317  -0.4942  -0.3911  -0.1792  -0.1651  -0.0756
    -0.0042   0.0700   0.2249   0.4131   0.4432   0.6803   0.7632   0.7817
     1.1438   1.2522   1.3609   1.4221   1.6233   1.6975   1.8006   2.0966
     2.2144   2.3047   2.3174   2.4238   2.4808   2.6720   2.8050   3.0344
     3.1478   3.7438   4.2255   4.8101   4.9547   5.1989

          k = 0.0454 0.0604 0.0000 ( 30342 PWs)   bands (ev):

   -85.3084 -85.2905 -84.8539 -84.8359 -84.7395 -84.7215 -44.6972 -44.6627
   -44.6474 -44.5930 -44.5595 -44.3224 -44.2993 -44.2057 -44.1274 -44.0943
   -44.0459 -44.0143 -44.0029 -43.9756 -43.9700 -43.9139 -43.8827 -43.8825
    -6.6651  -5.0938  -4.8446  -4.7756  -4.4513  -4.4340  -4.3458  -4.2347
    -4.1786  -3.9592  -3.9448  -3.7563  -3.4543  -3.3807  -3.1004  -2.7791
    -2.7615  -2.6218  -2.5991  -2.5195  -2.2242  -2.1837  -2.0336  -1.9838
    -1.7315  -1.6925  -1.5375  -1.5130  -1.4393  -1.2923  -1.2529  -1.0827
    -1.0692  -0.8736  -0.7744  -0.6148  -0.5849  -0.4364  -0.3881  -0.2659
    -0.2219  -0.1735  -0.0325   0.2246   0.3052   0.5457   0.6724   0.7782
     0.8160   1.0130   1.1317   1.3413   1.5561   1.6039   1.8327   1.9371
     2.2381   2.2512   2.3487   2.3852   2.3852   2.6256   2.6922   3.1748
     3.1800   3.3031   3.4739   4.8778   5.1664   5.6991

          k = 0.0454 0.0777 0.0000 ( 30328 PWs)   bands (ev):

   -85.3083 -85.2905 -84.8539 -84.8359 -84.7395 -84.7215 -44.6975 -44.6628
   -44.6478 -44.5937 -44.5597 -44.3224 -44.2996 -44.2060 -44.1278 -44.0946
   -44.0460 -44.0144 -44.0034 -43.9756 -43.9702 -43.9140 -43.8827 -43.8825
    -6.2630  -5.0373  -5.0035  -4.4815  -4.2705  -4.2116  -4.1396  -4.0288
    -3.9410  -3.8209  -3.7496  -3.5218  -3.2639  -3.2499  -3.1202  -2.9631
    -2.7794  -2.7535  -2.5763  -2.5424  -2.3513  -2.2030  -2.1485  -2.1034
    -1.7412  -1.7331  -1.6487  -1.5888  -1.5877  -1.4581  -1.4249  -1.2148
    -1.1292  -0.9305  -0.9008  -0.8381  -0.6915  -0.6848  -0.6075  -0.5490
    -0.3274  -0.2774  -0.0110   0.2358   0.4006   0.4523   0.4746   0.6283
     0.7797   0.8941   1.0606   1.3647   1.5040   1.5070   1.7602   1.9138
     2.1954   2.2227   2.2328   2.3085   2.4055   2.4502   2.7221   2.7415
     2.7836   3.1785   3.6216   4.8493   4.9005   6.0116

          k = 0.0454 0.0950 0.0000 ( 30368 PWs)   bands (ev):

   -85.3083 -85.2905 -84.8539 -84.8359 -84.7395 -84.7215 -44.6976 -44.6628
   -44.6480 -44.5941 -44.5598 -44.3224 -44.2998 -44.2062 -44.1281 -44.0947
   -44.0461 -44.0144 -44.0037 -43.9756 -43.9703 -43.9141 -43.8828 -43.8826
    -5.8225  -5.3782  -4.9379  -4.2862  -4.1658  -4.0930  -3.9207  -3.8172
    -3.7374  -3.6376  -3.6145  -3.4127  -3.3350  -3.2262  -3.1761  -2.9446
    -2.9242  -2.7743  -2.6545  -2.4725  -2.2626  -2.2514  -2.1973  -2.0859
    -1.9768  -1.9597  -1.8984  -1.7511  -1.6390  -1.5510  -1.4629  -1.1808
    -1.0904  -1.0654  -0.9353  -0.9113  -0.8705  -0.7467  -0.6893  -0.6465
    -0.4027  -0.3929   0.1321   0.2573   0.2833   0.4702   0.5403   0.5424
     0.7175   0.8803   1.1778   1.3854   1.4797   1.5207   1.6288   1.9084
     2.1059   2.1369   2.1814   2.2211   2.2435   2.3418   2.4989   2.5074
     2.7771   3.1743   3.9120   4.5422   4.8427   7.0181

          k = 0.0454 0.1123 0.0000 ( 30368 PWs)   bands (ev):

   -85.3083 -85.2905 -84.8539 -84.8359 -84.7395 -84.7215 -44.6976 -44.6628
   -44.6480 -44.5941 -44.5598 -44.3224 -44.2998 -44.2062 -44.1281 -44.0947
   -44.0461 -44.0144 -44.0037 -43.9756 -43.9703 -43.9141 -43.8828 -43.8826
    -5.8225  -5.3782  -4.9379  -4.2862  -4.1658  -4.0930  -3.9207  -3.8172
    -3.7374  -3.6376  -3.6145  -3.4127  -3.3350  -3.2262  -3.1761  -2.9446
    -2.9242  -2.7743  -2.6545  -2.4725  -2.2626  -2.2514  -2.1973  -2.0859
    -1.9768  -1.9597  -1.8984  -1.7511  -1.6390  -1.5510  -1.4629  -1.1808
    -1.0904  -1.0654  -0.9353  -0.9113  -0.8705  -0.7467  -0.6893  -0.6465
    -0.4027  -0.3929   0.1321   0.2573   0.2833   0.4702   0.5403   0.5424
     0.7175   0.8803   1.1778   1.3854   1.4797   1.5207   1.6288   1.9084
     2.1059   2.1369   2.1814   2.2211   2.2435   2.3418   2.4989   2.5074
     2.7771   3.1743   3.9120   4.5422   4.8427   6.5432

          k = 0.0454-0.0777 0.0000 ( 30328 PWs)   bands (ev):

   -85.3083 -85.2905 -84.8539 -84.8359 -84.7395 -84.7215 -44.6975 -44.6628
   -44.6478 -44.5937 -44.5597 -44.3224 -44.2996 -44.2060 -44.1278 -44.0946
   -44.0460 -44.0144 -44.0034 -43.9756 -43.9702 -43.9140 -43.8827 -43.8825
    -6.2630  -5.0373  -5.0035  -4.4815  -4.2705  -4.2116  -4.1396  -4.0288
    -3.9410  -3.8209  -3.7496  -3.5218  -3.2639  -3.2499  -3.1202  -2.9631
    -2.7795  -2.7535  -2.5763  -2.5424  -2.3513  -2.2030  -2.1485  -2.1034
    -1.7412  -1.7331  -1.6487  -1.5889  -1.5877  -1.4581  -1.4249  -1.2148
    -1.1292  -0.9305  -0.9008  -0.8381  -0.6915  -0.6848  -0.6075  -0.5490
    -0.3274  -0.2774  -0.0110   0.2358   0.4006   0.4523   0.4746   0.6283
     0.7797   0.8941   1.0606   1.3647   1.5040   1.5070   1.7602   1.9138
     2.1954   2.2228   2.2328   2.3085   2.4055   2.4502   2.7221   2.7415
     2.7836   3.1785   3.6216   4.8493   4.9005   6.0116

          k = 0.0454-0.0604 0.0000 ( 30342 PWs)   bands (ev):

   -85.3084 -85.2905 -84.8539 -84.8359 -84.7395 -84.7215 -44.6972 -44.6627
   -44.6474 -44.5930 -44.5595 -44.3224 -44.2993 -44.2057 -44.1274 -44.0943
   -44.0459 -44.0143 -44.0029 -43.9756 -43.9700 -43.9139 -43.8827 -43.8825
    -6.6651  -5.0938  -4.8446  -4.7756  -4.4513  -4.4340  -4.3458  -4.2347
    -4.1786  -3.9592  -3.9448  -3.7563  -3.4543  -3.3807  -3.1004  -2.7791
    -2.7615  -2.6218  -2.5991  -2.5195  -2.2242  -2.1837  -2.0336  -1.9838
    -1.7315  -1.6925  -1.5375  -1.5130  -1.4393  -1.2923  -1.2529  -1.0827
    -1.0691  -0.8736  -0.7744  -0.6147  -0.5849  -0.4364  -0.3881  -0.2659
    -0.2219  -0.1735  -0.0325   0.2246   0.3052   0.5457   0.6724   0.7782
     0.8160   1.0130   1.1317   1.3413   1.5561   1.6039   1.8327   1.9371
     2.2381   2.2512   2.3487   2.3852   2.3852   2.6256   2.6922   3.1748
     3.1800   3.3031   3.4739   4.8778   5.1664   5.6991

          k = 0.0454-0.0432 0.0000 ( 30373 PWs)   bands (ev):

   -85.3084 -85.2905 -84.8539 -84.8359 -84.7395 -84.7215 -44.6969 -44.6626
   -44.6470 -44.5922 -44.5593 -44.3224 -44.2990 -44.2054 -44.1268 -44.0941
   -44.0458 -44.0143 -44.0024 -43.9756 -43.9697 -43.9138 -43.8826 -43.8825
    -6.9905  -5.1606  -5.0815  -4.7785  -4.7019  -4.5869  -4.4650  -4.4626
    -4.3841  -4.1362  -4.0295  -3.9666  -3.6822  -3.4994  -3.2627  -2.7977
    -2.6824  -2.5430  -2.5137  -2.4012  -2.1323  -2.0575  -1.9430  -1.8863
    -1.8005  -1.7883  -1.4063  -1.3821  -1.3642  -1.2576  -1.2164  -1.0328
    -0.9375  -0.7640  -0.7317  -0.4942  -0.3911  -0.1793  -0.1651  -0.0756
    -0.0042   0.0700   0.2249   0.4131   0.4431   0.6803   0.7632   0.7817
     1.1438   1.2522   1.3609   1.4221   1.6233   1.6975   1.8006   2.0966
     2.2144   2.3047   2.3174   2.4238   2.4808   2.6720   2.8050   3.0344
     3.1478   3.7438   4.2255   4.8101   4.9547   5.1989

          k = 0.0454-0.0259 0.0000 ( 30379 PWs)   bands (ev):

   -85.3084 -85.2905 -84.8539 -84.8359 -84.7395 -84.7215 -44.6967 -44.6626
   -44.6467 -44.5915 -44.5591 -44.3224 -44.2987 -44.2051 -44.1264 -44.0938
   -44.0457 -44.0142 -44.0019 -43.9755 -43.9695 -43.9136 -43.8825 -43.8825
    -7.2174  -5.2922  -5.1714  -4.9464  -4.7307  -4.7291  -4.6804  -4.5440
    -4.5171  -4.2390  -4.1276  -4.0840  -3.8172  -3.5892  -3.5213  -2.7535
    -2.6777  -2.5019  -2.4029  -2.3085  -2.1285  -1.9837  -1.9006  -1.8703
    -1.8600  -1.7560  -1.3840  -1.3489  -1.3053  -1.2273  -1.1596  -1.0082
    -0.8846  -0.7690  -0.6196  -0.4614  -0.1907  -0.1060   0.0370   0.1353
     0.1524   0.3085   0.3725   0.6106   0.7694   0.8312   0.9837   0.9908
     1.2476   1.4428   1.4713   1.6537   1.8007   1.8905   2.0117   2.1782
     2.2686   2.3133   2.3935   2.4602   2.5155   2.7451   2.7675   2.9484
     3.0842   4.2709   4.3170   4.4763   4.9991   5.0283

          k = 0.0454-0.0086 0.0000 ( 30371 PWs)   bands (ev):

   -85.3084 -85.2905 -84.8540 -84.8359 -84.7395 -84.7215 -44.6965 -44.6625
   -44.6465 -44.5911 -44.5590 -44.3223 -44.2985 -44.2049 -44.1261 -44.0937
   -44.0456 -44.0142 -44.0016 -43.9755 -43.9694 -43.9136 -43.8825 -43.8825
    -7.3336  -5.4022  -5.1160  -5.0496  -4.9351  -4.7445  -4.7093  -4.6067
    -4.5838  -4.2805  -4.2159  -4.1110  -3.8592  -3.6970  -3.6368  -2.7322
    -2.6850  -2.4874  -2.3304  -2.2628  -2.1577  -2.0024  -1.9107  -1.8937
    -1.8332  -1.6015  -1.4127  -1.3999  -1.3642  -1.2372  -0.9997  -0.9748
    -0.8842  -0.7836  -0.5606  -0.4436  -0.0665   0.0115   0.1401   0.1494
     0.2396   0.4157   0.5130   0.7154   0.8641   0.8732   1.1218   1.2350
     1.3397   1.5172   1.5212   1.8191   1.9075   2.0951   2.1147   2.2018
     2.3546   2.4389   2.4807   2.6154   2.6533   2.7401   2.9641   2.9886
     3.1467   3.4986   4.0318   4.1260   4.9497   5.4687

          k = 0.0454 0.0086 0.0000 ( 30371 PWs)   bands (ev):

   -85.3084 -85.2905 -84.8540 -84.8359 -84.7395 -84.7215 -44.6965 -44.6625
   -44.6465 -44.5911 -44.5590 -44.3223 -44.2985 -44.2049 -44.1261 -44.0937
   -44.0456 -44.0142 -44.0016 -43.9755 -43.9694 -43.9136 -43.8825 -43.8825
    -7.3336  -5.4022  -5.1160  -5.0496  -4.9351  -4.7445  -4.7093  -4.6067
    -4.5838  -4.2805  -4.2159  -4.1110  -3.8592  -3.6970  -3.6368  -2.7322
    -2.6850  -2.4874  -2.3303  -2.2628  -2.1577  -2.0024  -1.9107  -1.8937
    -1.8333  -1.6016  -1.4127  -1.3999  -1.3642  -1.2372  -0.9997  -0.9748
    -0.8842  -0.7836  -0.5606  -0.4436  -0.0665   0.0115   0.1401   0.1494
     0.2396   0.4157   0.5129   0.7154   0.8641   0.8732   1.1218   1.2350
     1.3397   1.5172   1.5212   1.8191   1.9075   2.0951   2.1147   2.2018
     2.3546   2.4389   2.4807   2.6154   2.6533   2.7401   2.9641   2.9886
     3.1467   3.4986   4.0318   4.1260   4.9496   5.4687

          k = 0.0606 0.0345 0.0000 ( 30349 PWs)   bands (ev):

   -85.3058 -85.2931 -84.8513 -84.8385 -84.7369 -84.7241 -44.6918 -44.6677
   -44.6001 -44.5871 -44.5642 -44.3708 -44.2523 -44.1587 -44.1219 -44.0989
   -44.0412 -44.0238 -44.0189 -43.9974 -43.9745 -43.9307 -43.9091 -43.8872
    -6.8227  -5.2809  -4.9382  -4.5995  -4.5503  -4.4556  -4.4529  -4.3353
    -4.3330  -4.1138  -3.9318  -3.8853  -3.6208  -3.2521  -3.2020  -2.7729
    -2.7487  -2.6148  -2.5116  -2.4488  -2.2306  -2.1798  -1.9392  -1.8604
    -1.8425  -1.7025  -1.4995  -1.4357  -1.3952  -1.3543  -1.1239  -1.0334
    -0.9743  -0.7135  -0.6962  -0.6303  -0.4962  -0.4620  -0.2982  -0.1879
    -0.0753  -0.0044   0.1776   0.3228   0.4135   0.6023   0.6526   0.8465
     1.0889   1.1937   1.2998   1.3522   1.4688   1.6801   1.8055   1.8171
     1.9104   2.0144   2.1543   2.2182   2.4896   2.5993   2.9100   2.9447
     3.1097   4.4769   4.5152   4.7077   5.0680   5.1855

          k = 0.0606 0.0518 0.0000 ( 30344 PWs)   bands (ev):

   -85.3057 -85.2931 -84.8513 -84.8385 -84.7369 -84.7241 -44.6921 -44.6677
   -44.6005 -44.5878 -44.5642 -44.3708 -44.2525 -44.1590 -44.1223 -44.0990
   -44.0413 -44.0237 -44.0189 -43.9979 -43.9746 -43.9307 -43.9093 -43.8872
    -6.5637  -5.3401  -4.7283  -4.5022  -4.4598  -4.3888  -4.2517  -4.2231
    -4.1788  -3.9858  -3.8227  -3.7453  -3.4744  -3.1765  -3.0637  -2.8314
    -2.7070  -2.6517  -2.5963  -2.5860  -2.3247  -2.2933  -1.9665  -1.9258
    -1.7225  -1.6713  -1.5841  -1.5026  -1.4790  -1.3207  -1.1702  -1.0605
    -1.0456  -0.8452  -0.8174  -0.6944  -0.6876  -0.5796  -0.4250  -0.3990
    -0.3050  -0.1833  -0.0480   0.3014   0.3969   0.5818   0.6203   0.7605
     0.8445   1.0571   1.1426   1.2441   1.4884   1.5307   1.7206   1.7478
     1.8462   2.0141   2.1664   2.1952   2.4127   2.5289   2.8199   2.9792
     3.3668   3.8685   4.3456   4.5067   5.2990   5.4620

          k = 0.0606 0.0691 0.0000 ( 30351 PWs)   bands (ev):

   -85.3057 -85.2931 -84.8513 -84.8385 -84.7369 -84.7241 -44.6923 -44.6677
   -44.6008 -44.5884 -44.5643 -44.3707 -44.2528 -44.1593 -44.1227 -44.0992
   -44.0414 -44.0237 -44.0189 -43.9983 -43.9748 -43.9306 -43.9094 -43.8872
    -6.2186  -5.3552  -4.6691  -4.4611  -4.3174  -4.1463  -4.1198  -4.0657
    -3.9738  -3.7934  -3.7283  -3.5338  -3.2662  -3.1483  -3.1374  -2.9252
    -2.7607  -2.7545  -2.6836  -2.5453  -2.3654  -2.3251  -2.0296  -2.0117
    -1.7623  -1.7075  -1.6832  -1.6278  -1.5602  -1.3804  -1.3646  -1.1688
    -1.1306  -1.0186  -0.9962  -0.8253  -0.7784  -0.6569  -0.6434  -0.5343
    -0.3263  -0.3000  -0.1047   0.3882   0.5156   0.5183   0.5680   0.5932
     0.7959   0.9634   1.0834   1.2562   1.3936   1.5677   1.6590   1.7888
     1.8765   2.0518   2.1251   2.1943   2.3124   2.4190   2.6255   2.9454
     3.2500   3.4910   3.7035   4.4052   5.4735   6.0593

          k = 0.0606 0.0864 0.0000 ( 30356 PWs)   bands (ev):

   -85.3057 -85.2931 -84.8513 -84.8385 -84.7369 -84.7241 -44.6925 -44.6678
   -44.6010 -44.5889 -44.5644 -44.3707 -44.2530 -44.1596 -44.1230 -44.0993
   -44.0414 -44.0236 -44.0190 -43.9986 -43.9749 -43.9306 -43.9094 -43.8873
    -5.8105  -5.3487  -4.9658  -4.2313  -4.1781  -4.0334  -3.8739  -3.8399
    -3.7824  -3.6420  -3.6103  -3.4192  -3.3292  -3.2220  -3.0390  -2.9340
    -2.9146  -2.8724  -2.6648  -2.6156  -2.2867  -2.2321  -2.0963  -2.0767
    -2.0237  -1.9514  -1.8718  -1.7923  -1.6653  -1.5695  -1.4021  -1.1982
    -1.1292  -1.0820  -0.9924  -0.9183  -0.8234  -0.8207  -0.6946  -0.6211
    -0.4421  -0.3528   0.1788   0.3099   0.3729   0.4908   0.5489   0.7375
     0.8790   0.9320   1.2707   1.2723   1.3524   1.5917   1.6486   1.8836
     1.9152   2.0661   2.1155   2.1729   2.2289   2.3056   2.3862   2.7099
     2.7889   2.8951   4.0020   4.3583   4.9809   6.7460

          k = 0.0606 0.1036 0.0000 ( 30342 PWs)   bands (ev):

   -85.3057 -85.2931 -84.8513 -84.8385 -84.7368 -84.7241 -44.6925 -44.6678
   -44.6011 -44.5890 -44.5644 -44.3706 -44.2531 -44.1596 -44.1231 -44.0993
   -44.0414 -44.0236 -44.0190 -43.9987 -43.9749 -43.9306 -43.9095 -43.8873
    -5.4201  -5.3433  -5.3236  -4.1460  -4.1199  -3.9678  -3.6981  -3.6942
    -3.6777  -3.5686  -3.5119  -3.4607  -3.4285  -3.4125  -3.0936  -2.8998
    -2.8900  -2.8072  -2.5932  -2.5465  -2.3555  -2.3322  -2.1729  -2.1278
    -2.1089  -2.0779  -1.9616  -1.9044  -1.7286  -1.5180  -1.3557  -1.2619
    -1.1074  -1.1026  -0.9990  -0.9348  -0.8361  -0.8130  -0.7884  -0.6278
    -0.5122  -0.3370   0.2252   0.3490   0.3701   0.4271   0.5731   0.7603
     0.8852   0.9543   1.2642   1.3441   1.5195   1.5587   1.7803   1.9272
     1.9452   2.0583   2.1014   2.1287   2.2084   2.2557   2.2914   2.3776
     2.4406   2.8730   4.2192   4.3454   4.6987   7.1134

          k = 0.0606 0.1209 0.0000 ( 30356 PWs)   bands (ev):

   -85.3057 -85.2931 -84.8513 -84.8385 -84.7369 -84.7241 -44.6925 -44.6678
   -44.6010 -44.5889 -44.5644 -44.3707 -44.2530 -44.1596 -44.1230 -44.0993
   -44.0414 -44.0236 -44.0190 -43.9986 -43.9749 -43.9306 -43.9094 -43.8873
    -5.8105  -5.3487  -4.9658  -4.2313  -4.1781  -4.0334  -3.8739  -3.8399
    -3.7824  -3.6420  -3.6103  -3.4192  -3.3292  -3.2220  -3.0390  -2.9340
    -2.9146  -2.8724  -2.6648  -2.6156  -2.2867  -2.2321  -2.0963  -2.0767
    -2.0237  -1.9514  -1.8718  -1.7923  -1.6653  -1.5695  -1.4021  -1.1982
    -1.1292  -1.0820  -0.9924  -0.9183  -0.8234  -0.8207  -0.6946  -0.6211
    -0.4421  -0.3528   0.1788   0.3099   0.3729   0.4908   0.5489   0.7375
     0.8790   0.9320   1.2707   1.2723   1.3524   1.5917   1.6486   1.8836
     1.9152   2.0661   2.1155   2.1729   2.2289   2.3056   2.3862   2.7099
     2.7889   2.8951   4.0020   4.3583   4.9810   6.7463

          k = 0.0606-0.0691 0.0000 ( 30351 PWs)   bands (ev):

   -85.3057 -85.2931 -84.8513 -84.8385 -84.7369 -84.7241 -44.6923 -44.6677
   -44.6008 -44.5884 -44.5643 -44.3707 -44.2528 -44.1593 -44.1227 -44.0992
   -44.0414 -44.0237 -44.0189 -43.9983 -43.9748 -43.9306 -43.9094 -43.8872
    -6.2186  -5.3552  -4.6691  -4.4611  -4.3174  -4.1463  -4.1198  -4.0657
    -3.9738  -3.7934  -3.7283  -3.5338  -3.2662  -3.1483  -3.1374  -2.9252
    -2.7607  -2.7545  -2.6836  -2.5453  -2.3653  -2.3251  -2.0295  -2.0117
    -1.7623  -1.7075  -1.6832  -1.6278  -1.5602  -1.3804  -1.3646  -1.1687
    -1.1306  -1.0186  -0.9963  -0.8253  -0.7784  -0.6569  -0.6434  -0.5343
    -0.3263  -0.3000  -0.1047   0.3882   0.5156   0.5183   0.5680   0.5932
     0.7959   0.9634   1.0834   1.2562   1.3936   1.5677   1.6590   1.7888
     1.8765   2.0518   2.1251   2.1943   2.3124   2.4190   2.6254   2.9454
     3.2500   3.4910   3.7035   4.4052   5.4735   6.0593

          k = 0.0606-0.0518 0.0000 ( 30344 PWs)   bands (ev):

   -85.3057 -85.2931 -84.8513 -84.8385 -84.7369 -84.7241 -44.6921 -44.6677
   -44.6005 -44.5878 -44.5642 -44.3708 -44.2525 -44.1590 -44.1223 -44.0990
   -44.0413 -44.0237 -44.0189 -43.9979 -43.9746 -43.9307 -43.9093 -43.8872
    -6.5637  -5.3401  -4.7283  -4.5022  -4.4598  -4.3888  -4.2517  -4.2231
    -4.1788  -3.9859  -3.8227  -3.7453  -3.4744  -3.1765  -3.0637  -2.8314
    -2.7069  -2.6517  -2.5963  -2.5860  -2.3247  -2.2933  -1.9665  -1.9258
    -1.7226  -1.6713  -1.5841  -1.5026  -1.4790  -1.3207  -1.1702  -1.0605
    -1.0456  -0.8453  -0.8174  -0.6944  -0.6876  -0.5796  -0.4250  -0.3990
    -0.3050  -0.1832  -0.0480   0.3014   0.3969   0.5818   0.6203   0.7605
     0.8445   1.0571   1.1426   1.2441   1.4884   1.5307   1.7206   1.7478
     1.8462   2.0141   2.1664   2.1952   2.4127   2.5288   2.8199   2.9792
     3.3668   3.8685   4.3456   4.5067   5.2990   5.4620

          k = 0.0606-0.0345 0.0000 ( 30349 PWs)   bands (ev):

   -85.3058 -85.2931 -84.8513 -84.8385 -84.7369 -84.7241 -44.6918 -44.6677
   -44.6001 -44.5871 -44.5642 -44.3708 -44.2523 -44.1587 -44.1219 -44.0989
   -44.0412 -44.0238 -44.0189 -43.9974 -43.9745 -43.9307 -43.9091 -43.8872
    -6.8227  -5.2809  -4.9382  -4.5995  -4.5503  -4.4556  -4.4529  -4.3353
    -4.3330  -4.1138  -3.9318  -3.8853  -3.6208  -3.2521  -3.2020  -2.7729
    -2.7487  -2.6148  -2.5116  -2.4488  -2.2306  -2.1798  -1.9392  -1.8604
    -1.8425  -1.7025  -1.4995  -1.4357  -1.3952  -1.3543  -1.1239  -1.0334
    -0.9743  -0.7135  -0.6962  -0.6303  -0.4962  -0.4620  -0.2982  -0.1879
    -0.0753  -0.0044   0.1776   0.3228   0.4135   0.6023   0.6526   0.8465
     1.0889   1.1937   1.2998   1.3522   1.4688   1.6801   1.8055   1.8171
     1.9104   2.0144   2.1543   2.2182   2.4896   2.5993   2.9100   2.9447
     3.1097   4.4769   4.5152   4.7077   5.0680   5.1855

          k = 0.0606-0.0173 0.0000 ( 30361 PWs)   bands (ev):

   -85.3058 -85.2931 -84.8513 -84.8385 -84.7369 -84.7241 -44.6916 -44.6677
   -44.5999 -44.5867 -44.5642 -44.3708 -44.2521 -44.1585 -44.1216 -44.0988
   -44.0411 -44.0238 -44.0189 -43.9971 -43.9745 -43.9307 -43.9091 -43.8872
    -6.9827  -5.1637  -5.0723  -4.7322  -4.7304  -4.5709  -4.4607  -4.4321
    -4.3780  -4.1669  -4.0683  -3.9199  -3.6740  -3.4249  -3.3101  -2.7723
    -2.7100  -2.5617  -2.4855  -2.3146  -2.1979  -2.0859  -1.9712  -1.9418
    -1.7932  -1.7055  -1.4824  -1.4523  -1.4205  -1.3056  -1.1242  -0.9970
    -0.9638  -0.8022  -0.5944  -0.5055  -0.3352  -0.3344  -0.2412  -0.0294
     0.0689   0.1069   0.3146   0.5099   0.5788   0.6209   0.7117   0.8486
     1.0896   1.3610   1.4180   1.4259   1.6833   1.8537   1.8806   1.9481
     2.0634   2.1198   2.2835   2.4099   2.5095   2.6670   2.8427   2.8979
     2.9327   3.6859   4.1824   4.7780   5.0061   5.2449

          k = 0.0606 0.0000 0.0000 ( 30402 PWs)   bands (ev):

   -85.3058 -85.2931 -84.8513 -84.8385 -84.7369 -84.7241 -44.6916 -44.6677
   -44.5998 -44.5865 -44.5642 -44.3709 -44.2520 -44.1584 -44.1215 -44.0987
   -44.0411 -44.0238 -44.0189 -43.9970 -43.9744 -43.9307 -43.9090 -43.8871
    -7.0367  -5.1181  -5.0177  -4.9357  -4.7747  -4.5516  -4.4907  -4.4714
    -4.3888  -4.1749  -4.1234  -3.9309  -3.6536  -3.5482  -3.3311  -2.7771
    -2.6917  -2.5399  -2.4838  -2.2127  -2.1952  -2.1279  -1.9928  -1.9537
    -1.7685  -1.6251  -1.5663  -1.4818  -1.4271  -1.2740  -1.1284  -0.9533
    -0.9440  -0.8747  -0.5512  -0.4374  -0.3496  -0.2919  -0.1096  -0.0191
     0.0171   0.1871   0.4362   0.5679   0.6448   0.7110   0.7235   0.7351
     1.0932   1.3952   1.4691   1.5620   1.6597   1.9108   1.9128   1.9899
     2.1346   2.2352   2.4859   2.4924   2.5876   2.8344   2.9050   2.9384
     2.9949   3.1943   3.3767   4.6930   5.3326   5.6615

          k = 0.0606 0.0173 0.0000 ( 30361 PWs)   bands (ev):

   -85.3058 -85.2931 -84.8513 -84.8385 -84.7369 -84.7241 -44.6916 -44.6677
   -44.5999 -44.5867 -44.5642 -44.3708 -44.2521 -44.1585 -44.1216 -44.0988
   -44.0411 -44.0238 -44.0189 -43.9971 -43.9745 -43.9307 -43.9091 -43.8872
    -6.9827  -5.1637  -5.0723  -4.7322  -4.7304  -4.5709  -4.4607  -4.4321
    -4.3780  -4.1669  -4.0683  -3.9199  -3.6740  -3.4249  -3.3101  -2.7723
    -2.7100  -2.5617  -2.4855  -2.3146  -2.1979  -2.0858  -1.9712  -1.9419
    -1.7932  -1.7055  -1.4824  -1.4523  -1.4205  -1.3056  -1.1242  -0.9970
    -0.9638  -0.8022  -0.5944  -0.5055  -0.3352  -0.3344  -0.2412  -0.0294
     0.0689   0.1069   0.3146   0.5099   0.5788   0.6209   0.7117   0.8486
     1.0896   1.3610   1.4180   1.4259   1.6833   1.8537   1.8806   1.9481
     2.0634   2.1197   2.2835   2.4099   2.5095   2.6670   2.8427   2.8979
     2.9327   3.6859   4.1823   4.7780   5.0061   5.2449

          k = 0.0757 0.0432 0.0000 ( 30339 PWs)   bands (ev):

   -85.3027 -85.2961 -84.8482 -84.8416 -84.7338 -84.7272 -44.6861 -44.6736
   -44.5819 -44.5700 -44.5455 -44.4268 -44.1978 -44.1166 -44.1049 -44.1041
   -44.0796 -44.0358 -44.0243 -43.9924 -43.9861 -43.9803 -43.9039 -43.8925
    -6.3714  -5.5336  -4.6172  -4.4487  -4.2828  -4.2217  -4.1840  -4.1603
    -4.1502  -4.0030  -3.6956  -3.6532  -3.3961  -3.0600  -3.0220  -2.9640
    -2.7073  -2.6746  -2.6155  -2.5407  -2.3957  -2.3802  -1.9185  -1.8909
    -1.6964  -1.6669  -1.5787  -1.5611  -1.5443  -1.2919  -1.2615  -1.2001
    -1.1557  -0.9633  -0.9299  -0.7826  -0.6589  -0.6018  -0.5279  -0.4488
    -0.3766  -0.0697  -0.0551   0.4042   0.4498   0.4797   0.5938   0.7376
     0.8731   0.9478   1.1649   1.1827   1.2568   1.3839   1.4061   1.5806
     1.7634   1.7660   2.0406   2.0838   2.5238   2.5675   2.9094   2.9122
     3.4813   4.2679   4.5974   4.6057   5.2969   5.3079

          k = 0.0757 0.0604 0.0000 ( 30346 PWs)   bands (ev):

   -85.3027 -85.2961 -84.8482 -84.8416 -84.7338 -84.7272 -44.6863 -44.6736
   -44.5824 -44.5699 -44.5457 -44.4267 -44.1981 -44.1169 -44.1050 -44.1043
   -44.0795 -44.0359 -44.0243 -43.9927 -43.9860 -43.9802 -43.9040 -43.8925
    -6.1032  -5.6657  -4.4671  -4.3930  -4.3386  -4.1101  -4.0834  -4.0814
    -4.0326  -3.8799  -3.5948  -3.5198  -3.2554  -3.1459  -3.0667  -3.0093
    -2.8262  -2.7555  -2.5210  -2.5118  -2.4747  -2.3267  -1.9342  -1.9003
    -1.7784  -1.7239  -1.6478  -1.6087  -1.5468  -1.3597  -1.3036  -1.3033
    -1.0929  -1.0764  -0.9347  -0.9295  -0.8387  -0.7005  -0.6482  -0.5353
    -0.2984  -0.2580  -0.0722   0.4089   0.5031   0.5633   0.6159   0.7062
     0.8733   0.8990   1.0860   1.1162   1.1992   1.3035   1.4825   1.5025
     1.7420   1.7488   2.0507   2.0697   2.4615   2.5335   2.8176   2.9105
     3.7332   3.9287   4.0888   4.4007   5.3384   6.0699

          k = 0.0757 0.0777 0.0000 ( 30356 PWs)   bands (ev):

   -85.3027 -85.2961 -84.8482 -84.8416 -84.7338 -84.7272 -44.6864 -44.6735
   -44.5828 -44.5698 -44.5460 -44.4266 -44.1983 -44.1171 -44.1051 -44.1044
   -44.0794 -44.0359 -44.0243 -43.9929 -43.9860 -43.9802 -43.9041 -43.8925
    -5.7627  -5.7469  -4.5961  -4.3003  -4.2842  -4.0617  -3.9704  -3.9160
    -3.9014  -3.7564  -3.5328  -3.3718  -3.2764  -3.2328  -3.0560  -3.0360
    -2.9365  -2.8166  -2.5481  -2.5017  -2.4302  -2.1819  -2.0790  -1.9386
    -1.9287  -1.8741  -1.8690  -1.6551  -1.6327  -1.4122  -1.3979  -1.3841
    -1.2304  -1.0290  -0.9393  -0.9195  -0.9090  -0.7661  -0.6057  -0.5993
    -0.4391  -0.1602   0.1189   0.3160   0.4389   0.5497   0.5825   0.8602
     0.9099   1.0262   1.0503   1.2485   1.2622   1.2941   1.4716   1.6200
     1.7811   1.8473   2.0008   2.0583   2.3748   2.4502   2.6102   2.8296
     3.2567   3.5137   3.9803   4.0779   5.5567   6.0518

          k = 0.0757 0.0950 0.0000 ( 30363 PWs)   bands (ev):

   -85.3027 -85.2961 -84.8482 -84.8416 -84.7338 -84.7272 -44.6865 -44.6735
   -44.5830 -44.5697 -44.5461 -44.4265 -44.1984 -44.1173 -44.1052 -44.1044
   -44.0793 -44.0360 -44.0243 -43.9930 -43.9860 -43.9802 -43.9041 -43.8925
    -5.7847  -5.3728  -4.9566  -4.2238  -4.1497  -4.0236  -3.8789  -3.8241
    -3.7386  -3.6658  -3.5728  -3.4204  -3.3340  -3.2578  -3.1248  -2.9576
    -2.8588  -2.7666  -2.6404  -2.5409  -2.3384  -2.2592  -2.2242  -2.0756
    -2.0389  -1.9501  -1.9199  -1.7230  -1.6992  -1.4942  -1.4418  -1.3393
    -1.2804  -1.0902  -0.9741  -0.8634  -0.8375  -0.7573  -0.6207  -0.6062
    -0.4889  -0.1305   0.3071   0.3118   0.4067   0.4554   0.5731   0.8818
     0.9201   1.0306   1.1816   1.2622   1.3314   1.4596   1.6637   1.8084
     1.8896   1.9548   1.9732   2.1446   2.2875   2.3649   2.3931   2.6767
     2.7495   2.7930   3.9339   4.3955   5.0418   6.5028

          k = 0.0757 0.1123 0.0000 ( 30363 PWs)   bands (ev):

   -85.3027 -85.2961 -84.8482 -84.8416 -84.7338 -84.7272 -44.6865 -44.6735
   -44.5830 -44.5697 -44.5461 -44.4265 -44.1984 -44.1173 -44.1052 -44.1044
   -44.0793 -44.0360 -44.0243 -43.9930 -43.9860 -43.9802 -43.9041 -43.8925
    -5.7847  -5.3728  -4.9566  -4.2238  -4.1497  -4.0236  -3.8789  -3.8241
    -3.7386  -3.6658  -3.5728  -3.4204  -3.3340  -3.2578  -3.1248  -2.9576
    -2.8588  -2.7666  -2.6404  -2.5409  -2.3384  -2.2592  -2.2242  -2.0756
    -2.0389  -1.9501  -1.9199  -1.7230  -1.6992  -1.4942  -1.4418  -1.3393
    -1.2804  -1.0902  -0.9741  -0.8634  -0.8375  -0.7572  -0.6207  -0.6062
    -0.4889  -0.1305   0.3071   0.3118   0.4067   0.4554   0.5731   0.8818
     0.9201   1.0306   1.1816   1.2622   1.3314   1.4596   1.6637   1.8084
     1.8896   1.9548   1.9732   2.1446   2.2875   2.3649   2.3931   2.6767
     2.7495   2.7930   3.9339   4.3954   5.0418   6.5028

          k = 0.0757 0.1295 0.0000 ( 30356 PWs)   bands (ev):

   -85.3027 -85.2961 -84.8482 -84.8416 -84.7338 -84.7272 -44.6864 -44.6735
   -44.5828 -44.5698 -44.5460 -44.4266 -44.1983 -44.1171 -44.1051 -44.1044
   -44.0794 -44.0359 -44.0243 -43.9929 -43.9860 -43.9802 -43.9041 -43.8925
    -5.7627  -5.7469  -4.5961  -4.3003  -4.2842  -4.0617  -3.9704  -3.9160
    -3.9014  -3.7564  -3.5328  -3.3718  -3.2764  -3.2328  -3.0560  -3.0360
    -2.9365  -2.8166  -2.5481  -2.5017  -2.4302  -2.1819  -2.0790  -1.9386
    -1.9287  -1.8741  -1.8690  -1.6551  -1.6327  -1.4122  -1.3979  -1.3841
    -1.2304  -1.0290  -0.9393  -0.9195  -0.9090  -0.7661  -0.6057  -0.5993
    -0.4391  -0.1602   0.1189   0.3160   0.4389   0.5497   0.5825   0.8602
     0.9099   1.0262   1.0502   1.2485   1.2622   1.2941   1.4716   1.6200
     1.7811   1.8473   2.0008   2.0583   2.3748   2.4502   2.6102   2.8296
     3.2567   3.5137   3.9803   4.0779   5.5567   6.0518

          k = 0.0757-0.0604 0.0000 ( 30346 PWs)   bands (ev):

   -85.3027 -85.2961 -84.8482 -84.8416 -84.7338 -84.7272 -44.6863 -44.6736
   -44.5824 -44.5699 -44.5457 -44.4267 -44.1981 -44.1169 -44.1050 -44.1043
   -44.0795 -44.0359 -44.0243 -43.9927 -43.9860 -43.9802 -43.9040 -43.8925
    -6.1032  -5.6657  -4.4671  -4.3930  -4.3386  -4.1101  -4.0834  -4.0814
    -4.0326  -3.8799  -3.5948  -3.5198  -3.2554  -3.1459  -3.0667  -3.0093
    -2.8262  -2.7555  -2.5210  -2.5118  -2.4747  -2.3267  -1.9342  -1.9003
    -1.7784  -1.7239  -1.6478  -1.6088  -1.5468  -1.3597  -1.3036  -1.3033
    -1.0929  -1.0764  -0.9347  -0.9295  -0.8387  -0.7005  -0.6482  -0.5353
    -0.2984  -0.2580  -0.0722   0.4089   0.5031   0.5633   0.6159   0.7062
     0.8733   0.8990   1.0860   1.1162   1.1991   1.3035   1.4825   1.5025
     1.7420   1.7488   2.0507   2.0697   2.4615   2.5335   2.8176   2.9105
     3.7332   3.9287   4.0888   4.4007   5.3384   6.0699

          k = 0.0757-0.0432 0.0000 ( 30339 PWs)   bands (ev):

   -85.3027 -85.2961 -84.8482 -84.8416 -84.7338 -84.7272 -44.6861 -44.6736
   -44.5819 -44.5700 -44.5455 -44.4268 -44.1978 -44.1166 -44.1049 -44.1041
   -44.0796 -44.0358 -44.0243 -43.9924 -43.9861 -43.9803 -43.9039 -43.8925
    -6.3714  -5.5336  -4.6172  -4.4487  -4.2828  -4.2217  -4.1840  -4.1603
    -4.1502  -4.0030  -3.6956  -3.6532  -3.3961  -3.0600  -3.0220  -2.9640
    -2.7073  -2.6746  -2.6155  -2.5407  -2.3957  -2.3802  -1.9184  -1.8909
    -1.6964  -1.6669  -1.5787  -1.5611  -1.5443  -1.2918  -1.2616  -1.2001
    -1.1557  -0.9632  -0.9299  -0.7826  -0.6589  -0.6018  -0.5279  -0.4488
    -0.3766  -0.0697  -0.0551   0.4042   0.4498   0.4797   0.5937   0.7376
     0.8731   0.9478   1.1649   1.1827   1.2568   1.3839   1.4061   1.5806
     1.7634   1.7661   2.0406   2.0838   2.5238   2.5675   2.9094   2.9122
     3.4813   4.2679   4.5974   4.6057   5.2969   5.3079

          k = 0.0757-0.0259 0.0000 ( 30378 PWs)   bands (ev):

   -85.3027 -85.2961 -84.8483 -84.8416 -84.7338 -84.7272 -44.6859 -44.6736
   -44.5815 -44.5701 -44.5453 -44.4269 -44.1976 -44.1163 -44.1049 -44.1039
   -44.0797 -44.0358 -44.0243 -43.9921 -43.9862 -43.9803 -43.9039 -43.8925
    -6.5552  -5.3452  -4.7224  -4.5026  -4.4409  -4.3843  -4.2412  -4.2090
    -4.1284  -4.0464  -3.8547  -3.6877  -3.4658  -3.1130  -3.0833  -2.9218
    -2.7153  -2.6312  -2.5536  -2.5444  -2.3551  -2.2552  -1.9837  -1.8903
    -1.7980  -1.6250  -1.5838  -1.5257  -1.5204  -1.3949  -1.2389  -1.2016
    -1.0746  -0.9510  -0.8742  -0.7982  -0.5736  -0.4046  -0.3333  -0.2494
    -0.2255  -0.0128   0.1649   0.2420   0.4089   0.5423   0.5597   0.8237
     0.8939   0.9073   1.2051   1.3114   1.4150   1.4817   1.7349   1.7598
     1.8298   1.9131   1.9599   2.1311   2.5284   2.5567   2.7925   2.8901
     3.2921   3.8224   4.2928   4.5793   5.2791   5.5078

          k = 0.0757-0.0086 0.0000 ( 30388 PWs)   bands (ev):

   -85.3027 -85.2961 -84.8483 -84.8416 -84.7338 -84.7272 -44.6859 -44.6737
   -44.5812 -44.5702 -44.5451 -44.4270 -44.1975 -44.1162 -44.1049 -44.1038
   -44.0797 -44.0358 -44.0243 -43.9919 -43.9863 -43.9803 -43.9038 -43.8925
    -6.6485  -5.1031  -4.8065  -4.7752  -4.4409  -4.3932  -4.3121  -4.2327
    -4.1135  -4.0421  -3.9697  -3.7016  -3.4380  -3.2830  -3.1212  -2.9033
    -2.7249  -2.6314  -2.5094  -2.4408  -2.3227  -2.1655  -2.0803  -1.8829
    -1.8824  -1.6084  -1.5766  -1.5407  -1.5167  -1.4945  -1.2268  -1.1490
    -1.0189  -1.0163  -0.8786  -0.8237  -0.4628  -0.2694  -0.2108  -0.1625
    -0.0838   0.0306   0.1748   0.3215   0.4190   0.5581   0.5805   0.8279
     0.8302   0.8518   1.2241   1.4378   1.5532   1.6829   1.8183   1.8982
     1.9409   2.0097   2.2811   2.4252   2.4873   2.5367   2.7306   2.8094
     3.1044   3.2072   3.4078   4.9203   5.3104   5.5774

          k = 0.0757 0.0086 0.0000 ( 30388 PWs)   bands (ev):

   -85.3027 -85.2961 -84.8483 -84.8416 -84.7338 -84.7272 -44.6859 -44.6737
   -44.5812 -44.5702 -44.5451 -44.4270 -44.1975 -44.1162 -44.1049 -44.1038
   -44.0797 -44.0358 -44.0243 -43.9919 -43.9863 -43.9803 -43.9038 -43.8925
    -6.6485  -5.1031  -4.8065  -4.7752  -4.4409  -4.3932  -4.3121  -4.2327
    -4.1135  -4.0421  -3.9697  -3.7016  -3.4380  -3.2830  -3.1212  -2.9033
    -2.7249  -2.6314  -2.5093  -2.4408  -2.3227  -2.1655  -2.0803  -1.8829
    -1.8824  -1.6084  -1.5766  -1.5407  -1.5167  -1.4945  -1.2267  -1.1490
    -1.0189  -1.0163  -0.8786  -0.8237  -0.4628  -0.2694  -0.2108  -0.1625
    -0.0838   0.0306   0.1748   0.3215   0.4190   0.5581   0.5805   0.8279
     0.8302   0.8518   1.2241   1.4378   1.5532   1.6829   1.8183   1.8982
     1.9409   2.0097   2.2811   2.4252   2.4873   2.5367   2.7307   2.8094
     3.1044   3.2072   3.4078   4.9203   5.3104   5.5774

          k = 0.0757 0.0259 0.0000 ( 30378 PWs)   bands (ev):

   -85.3027 -85.2961 -84.8483 -84.8416 -84.7338 -84.7272 -44.6859 -44.6736
   -44.5815 -44.5701 -44.5453 -44.4269 -44.1976 -44.1163 -44.1049 -44.1039
   -44.0797 -44.0358 -44.0243 -43.9921 -43.9862 -43.9803 -43.9039 -43.8925
    -6.5552  -5.3452  -4.7224  -4.5026  -4.4409  -4.3843  -4.2412  -4.2090
    -4.1284  -4.0464  -3.8548  -3.6877  -3.4658  -3.1130  -3.0833  -2.9218
    -2.7153  -2.6312  -2.5536  -2.5444  -2.3551  -2.2552  -1.9837  -1.8903
    -1.7980  -1.6250  -1.5838  -1.5257  -1.5204  -1.3949  -1.2389  -1.2016
    -1.0746  -0.9510  -0.8742  -0.7982  -0.5736  -0.4046  -0.3333  -0.2494
    -0.2256  -0.0128   0.1650   0.2420   0.4089   0.5423   0.5597   0.8237
     0.8939   0.9073   1.2052   1.3114   1.4150   1.4817   1.7349   1.7598
     1.8298   1.9131   1.9599   2.1311   2.5284   2.5567   2.7925   2.8901
     3.2921   3.8224   4.2928   4.5793   5.2791   5.5078

          k =-0.0909-0.0518 0.0000 ( 30364 PWs)   bands (ev):

   -85.2996 -85.2993 -84.8454 -84.8444 -84.7308 -84.7302 -44.6801 -44.6797
   -44.5762 -44.5759 -44.4866 -44.4862 -44.1395 -44.1385 -44.1111 -44.1101
   -44.0459 -44.0455 -44.0305 -44.0296 -43.9865 -43.9860 -43.8985 -43.8981
    -5.9179  -5.9178  -4.4468  -4.4467  -4.1443  -4.1443  -4.0838  -4.0837
    -3.9934  -3.9933  -3.5121  -3.5120  -3.1732  -3.1732  -3.0862  -3.0862
    -2.8208  -2.8207  -2.5058  -2.5057  -2.3437  -2.3437  -1.8459  -1.8459
    -1.7276  -1.7275  -1.6439  -1.6438  -1.5170  -1.5170  -1.3821  -1.3820
    -1.0314  -1.0313  -0.9100  -0.9099  -0.7503  -0.7502  -0.6436  -0.6435
    -0.2781  -0.2780   0.2124   0.2124   0.5897   0.5898   0.6670   0.6671
     0.8472   0.8474   1.0334   1.0335   1.1249   1.1250   1.4012   1.4013
     1.7277   1.7279   2.0261   2.0263   2.5477   2.5479   2.9083   2.9084
     3.8733   3.8733   4.6277   4.6277   5.3396   5.3397

          k =-0.0909-0.0345 0.0000 ( 30324 PWs)   bands (ev):

   -85.2996 -85.2993 -84.8454 -84.8444 -84.7308 -84.7302 -44.6801 -44.6797
   -44.5764 -44.5757 -44.4866 -44.4862 -44.1395 -44.1385 -44.1111 -44.1101
   -44.0460 -44.0454 -44.0305 -44.0296 -43.9865 -43.9860 -43.8985 -43.8980
    -6.0950  -5.6728  -4.4678  -4.3904  -4.3303  -4.1152  -4.1079  -4.0596
    -3.9772  -3.9216  -3.6049  -3.4686  -3.2418  -3.1230  -3.1137  -3.0645
    -2.8398  -2.7382  -2.5287  -2.4841  -2.4267  -2.2869  -1.8982  -1.8882
    -1.7821  -1.7247  -1.6859  -1.6347  -1.5350  -1.5319  -1.4004  -1.3942
    -1.1867  -0.9274  -0.9203  -0.8343  -0.7646  -0.7551  -0.5786  -0.5342
    -0.4044  -0.0334   0.1786   0.2508   0.5550   0.5643   0.5858   0.6894
     0.7216   1.0345   1.0375   1.1552   1.2093   1.2487   1.3162   1.5451
     1.7589   1.8123   1.9714   2.0260   2.5075   2.5358   2.8025   2.8898
     3.6855   3.8909   4.1388   4.4015   5.3416   6.1214

          k =-0.0909-0.0173 0.0000 ( 30393 PWs)   bands (ev):

   -85.2996 -85.2993 -84.8454 -84.8444 -84.7308 -84.7302 -44.6801 -44.6797
   -44.5766 -44.5755 -44.4868 -44.4860 -44.1395 -44.1384 -44.1112 -44.1101
   -44.0461 -44.0453 -44.0305 -44.0296 -43.9866 -43.9859 -43.8985 -43.8980
    -6.2015  -5.3681  -4.6559  -4.4620  -4.2851  -4.1343  -4.1200  -4.0382
    -3.9214  -3.8569  -3.7303  -3.4550  -3.2294  -3.1995  -3.1050  -3.0552
    -2.8098  -2.7109  -2.5728  -2.4657  -2.4104  -2.2337  -2.0841  -1.9763
    -1.7731  -1.7520  -1.7021  -1.6900  -1.6011  -1.5904  -1.4355  -1.3264
    -1.2628  -1.0002  -0.9223  -0.7936  -0.7360  -0.7015  -0.4309  -0.4187
    -0.3682   0.1638   0.1748   0.3357   0.5025   0.5039   0.5409   0.6238
     0.6824   1.0582   1.0648   1.2889   1.3589   1.3629   1.7040   1.8000
     1.8186   1.8926   1.9758   2.0897   2.4411   2.4739   2.5994   2.7937
     3.2056   3.4814   3.5817   4.4830   5.5757   5.9171

          k =-0.0909 0.0000 0.0000 ( 30398 PWs)   bands (ev):

   -85.2996 -85.2993 -84.8454 -84.8444 -84.7308 -84.7302 -44.6802 -44.6796
   -44.5766 -44.5754 -44.4868 -44.4860 -44.1395 -44.1384 -44.1112 -44.1101
   -44.0461 -44.0452 -44.0305 -44.0296 -43.9867 -43.9859 -43.8985 -43.8980
    -6.2370  -5.0529  -4.9821  -4.4553  -4.2104  -4.1681  -4.1210  -4.0312
    -3.8662  -3.8301  -3.8260  -3.4518  -3.2435  -3.1691  -3.0970  -3.0635
    -2.9219  -2.6061  -2.5952  -2.4552  -2.3583  -2.2539  -2.1665  -2.0259
    -1.7769  -1.7396  -1.7271  -1.7069  -1.6457  -1.6244  -1.4458  -1.2873
    -1.2338  -1.1037  -0.9235  -0.7847  -0.7230  -0.6537  -0.3769  -0.3732
    -0.3324   0.2069   0.2265   0.4091   0.4600   0.4742   0.5214   0.6077
     0.6395   1.0563   1.0678   1.3352   1.4153   1.4779   1.8238   1.8714
     1.8788   1.9528   2.2239   2.3138   2.4312   2.4710   2.5352   2.7338
     2.7349   2.8503   3.5513   4.7543   5.1717   5.8958

          k =-0.0909 0.0173 0.0000 ( 30393 PWs)   bands (ev):

   -85.2996 -85.2993 -84.8454 -84.8444 -84.7308 -84.7302 -44.6801 -44.6797
   -44.5766 -44.5755 -44.4868 -44.4860 -44.1395 -44.1384 -44.1112 -44.1101
   -44.0461 -44.0453 -44.0305 -44.0296 -43.9866 -43.9859 -43.8985 -43.8980
    -6.2015  -5.3681  -4.6559  -4.4620  -4.2851  -4.1343  -4.1200  -4.0382
    -3.9214  -3.8569  -3.7303  -3.4550  -3.2294  -3.1995  -3.1050  -3.0552
    -2.8098  -2.7109  -2.5728  -2.4657  -2.4104  -2.2337  -2.0841  -1.9763
    -1.7731  -1.7520  -1.7021  -1.6900  -1.6011  -1.5904  -1.4355  -1.3264
    -1.2628  -1.0002  -0.9223  -0.7936  -0.7360  -0.7015  -0.4309  -0.4187
    -0.3682   0.1638   0.1748   0.3357   0.5025   0.5038   0.5409   0.6238
     0.6824   1.0582   1.0647   1.2889   1.3589   1.3629   1.7040   1.8000
     1.8186   1.8926   1.9758   2.0897   2.4411   2.4739   2.5994   2.7937
     3.2056   3.4814   3.5817   4.4830   5.5756   5.9171

          k =-0.0909 0.0345 0.0000 ( 30324 PWs)   bands (ev):

   -85.2996 -85.2993 -84.8454 -84.8444 -84.7308 -84.7302 -44.6801 -44.6797
   -44.5764 -44.5757 -44.4866 -44.4862 -44.1395 -44.1385 -44.1111 -44.1101
   -44.0460 -44.0454 -44.0305 -44.0296 -43.9865 -43.9860 -43.8985 -43.8980
    -6.0950  -5.6728  -4.4678  -4.3904  -4.3303  -4.1152  -4.1079  -4.0596
    -3.9772  -3.9216  -3.6049  -3.4686  -3.2418  -3.1230  -3.1137  -3.0645
    -2.8398  -2.7382  -2.5287  -2.4841  -2.4267  -2.2869  -1.8982  -1.8882
    -1.7820  -1.7247  -1.6859  -1.6347  -1.5350  -1.5319  -1.4004  -1.3942
    -1.1867  -0.9274  -0.9202  -0.8343  -0.7646  -0.7551  -0.5786  -0.5342
    -0.4044  -0.0334   0.1786   0.2508   0.5550   0.5643   0.5857   0.6894
     0.7216   1.0345   1.0375   1.1552   1.2093   1.2487   1.3162   1.5451
     1.7589   1.8124   1.9714   2.0260   2.5075   2.5358   2.8025   2.8898
     3.6855   3.8909   4.1388   4.4015   5.3416   6.1214

          k =-0.0909-0.1554 0.0000 ( 30364 PWs)   bands (ev):

   -85.2996 -85.2993 -84.8454 -84.8444 -84.7308 -84.7302 -44.6801 -44.6797
   -44.5762 -44.5759 -44.4866 -44.4862 -44.1395 -44.1385 -44.1111 -44.1101
   -44.0459 -44.0455 -44.0305 -44.0296 -43.9865 -43.9860 -43.8985 -43.8981
    -5.9179  -5.9178  -4.4468  -4.4467  -4.1443  -4.1443  -4.0838  -4.0837
    -3.9934  -3.9933  -3.5121  -3.5120  -3.1732  -3.1732  -3.0862  -3.0862
    -2.8208  -2.8207  -2.5058  -2.5057  -2.3437  -2.3437  -1.8459  -1.8459
    -1.7276  -1.7275  -1.6439  -1.6438  -1.5170  -1.5170  -1.3821  -1.3820
    -1.0314  -1.0313  -0.9100  -0.9099  -0.7503  -0.7502  -0.6436  -0.6435
    -0.2781  -0.2780   0.2124   0.2124   0.5897   0.5899   0.6670   0.6671
     0.8472   0.8474   1.0334   1.0335   1.1249   1.1250   1.4012   1.4013
     1.7277   1.7279   2.0261   2.0263   2.5477   2.5479   2.9083   2.9084
     3.8733   3.8733   4.6276   4.6277   5.3396   5.3397

     the Fermi energy is     1.7727 ev

!    total energy              =   -1600.36131451 Ry
     estimated scf accuracy    <       0.00000443 Ry
     smearing contrib. (-TS)   =      -0.07247492 Ry
     internal energy E=F+TS    =   -1600.28883959 Ry

     The total energy is F=E-TS. E is the sum of the following terms:
     one-electron contribution =  -13626.51492828 Ry
     hartree contribution      =    6839.51186439 Ry
     xc contribution           =    -383.90073242 Ry
     ewald contribution        =    5570.61495664 Ry
     electric field correction =       0.00000007 Ry

     convergence has been achieved in  14 iterations

     negative rho (up, down):  6.020E-04 0.000E+00

     Forces acting on atoms (cartesian axes, Ry/au):

     atom    1 type  1   force =     0.00001341    0.02081616    0.02570753
     atom    2 type  1   force =    -0.00000945    0.02078169    0.02565354
     atom    3 type  2   force =     0.00003825   -0.02313327   -0.00890532
     atom    4 type  2   force =    -0.00002802   -0.02313522   -0.00889233
     atom    5 type  1   force =    -0.00000667   -0.00603710   -0.00948271
     atom    6 type  1   force =     0.00000626   -0.00588411   -0.00933316
     atom    7 type  2   force =    -0.00014568    0.01001768   -0.01297713
     atom    8 type  2   force =     0.00014501    0.01003513   -0.01300122
     atom    9 type  1   force =     0.00000937   -0.00108567    0.00195834
     atom   10 type  1   force =    -0.00001403   -0.00107362    0.00184381
     atom   11 type  2   force =    -0.00005124   -0.00064668    0.00371237
     atom   12 type  2   force =     0.00004279   -0.00065500    0.00371628

     Total force =     0.065097     Total SCF correction =     0.012924
     SCF correction compared to forces is large: reduce conv_thr to get better values

     Writing output data file ./Os2Pt2/Os2Pt2_beef.save/

     init_run     :     91.73s CPU     92.33s WALL (       1 calls)
     electrons    :   2576.47s CPU   2613.86s WALL (       1 calls)
     forces       :     52.39s CPU     52.66s WALL (       1 calls)

     Called by init_run:
     wfcinit      :     75.19s CPU     75.61s WALL (       1 calls)
     potinit      :      9.56s CPU      9.63s WALL (       1 calls)
     hinit0       :      4.72s CPU      4.73s WALL (       1 calls)

     Called by electrons:
     c_bands      :   2267.13s CPU   2297.54s WALL (      14 calls)
     sum_band     :    281.36s CPU    286.11s WALL (      14 calls)
     v_of_rho     :     23.50s CPU     24.40s WALL (      15 calls)
     newd         :     12.10s CPU     13.43s WALL (      15 calls)
     mix_rho      :      0.48s CPU      0.49s WALL (      14 calls)
     vdW_kernel   :      5.81s CPU      5.82s WALL (       1 calls)

     Called by c_bands:
     init_us_2    :      7.30s CPU      7.37s WALL (    2220 calls)
     cegterg      :   2223.39s CPU   2251.79s WALL (    1036 calls)

     Called by *egterg:
     cdiaghg      :    116.69s CPU    117.07s WALL (    4600 calls)
     h_psi        :   1119.22s CPU   1143.58s WALL (    4674 calls)
     s_psi        :    201.96s CPU    202.50s WALL (    4674 calls)
     g_psi        :      0.91s CPU      0.93s WALL (    3564 calls)

     Called by h_psi:
     h_psi:calbec :    407.14s CPU    408.98s WALL (    4674 calls)
     vloc_psi     :    495.83s CPU    517.59s WALL (    4674 calls)
     add_vuspsi   :    213.65s CPU    214.39s WALL (    4674 calls)

     General routines
     calbec       :    614.85s CPU    617.38s WALL (    6006 calls)
     fft          :     15.41s CPU     15.95s WALL (    1004 calls)
     ffts         :      0.08s CPU      0.09s WALL (      29 calls)
     fftw         :    565.92s CPU    590.42s WALL (  564462 calls)
     interpolate  :      0.20s CPU      0.22s WALL (      15 calls)

     Parallel routines
     fft_scatt_xy :     38.61s CPU     39.07s WALL (  565495 calls)
     fft_scatt_yz :    212.61s CPU    232.94s WALL (  565495 calls)

     PWSCF        :  46m15.87s CPU  47m20.89s WALL


   This run was terminated on:  12:51:30  24Jun2022            

=------------------------------------------------------------------------------=
   JOB DONE.
=------------------------------------------------------------------------------=
