
     Program PWSCF v.6.6 starts on 24Jun2022 at  0: 0: 5 

     This program is part of the open-source Quantum ESPRESSO suite
     for quantum simulation of materials; please cite
         "P. Giannozzi et al., J. Phys.:Condens. Matter 21 395502 (2009);
         "P. Giannozzi et al., J. Phys.:Condens. Matter 29 465901 (2017);
          URL http://www.quantum-espresso.org", 
     in publications or presentations arising from this work. More details at
     http://www.quantum-espresso.org/quote

     Parallel version (MPI), running on    37 processors

     MPI processes distributed on     2 nodes
     R & G space division:  proc/nbgrp/npool/nimage =      37
     Fft bands division:     nmany     =       1
     Reading input from Pd2Ir2.in
Warning: card &CELL ignored
Warning: card / ignored

     Current dimensions of program PWSCF are:
     Max number of different atomic species (ntypx) = 10
     Max number of k-points (npk) =  40000
     Max angular momentum in pseudopotentials (lmaxx) =  3
     Presently stress not available with electric field and gates

     Message from routine cell_base_init:
     DEPRECATED: use true lattice parameter, not A to a.u. conversion factor
     file Pd.pbe-n-rrkjus_psl.1.0.0.UPF: wavefunction(s)  4D renormalized
     file Ir.pbe-n-rrkjus_psl.0.2.3.UPF: wavefunction(s)  5D renormalized

     **************************************************************************
     Initializing libbeef V0.1.2 with the BEEF-vdW functional.
     Citation: Wellendorff et al., PRB 85, 235149 (2012).
     **************************************************************************


     IMPORTANT: XC functional enforced from input :
     Exchange-correlation= BEEF-VDW
                           (   1   4  43  14   2   0   0)
     Any further DFT definition will be discarded
     Please, verify this is what you really want


     Subspace diagonalization in iterative solution of the eigenvalue problem:
     a serial algorithm will be used

     Found symmetry operation: I + (  0.5000  0.0000  0.0000)
     This is a supercell, fractional translations are disabled

     Parallelization info
     --------------------
     sticks:   dense  smooth     PW     G-vecs:    dense   smooth      PW
     Min         112      45     13                26024     6573    1037
     Max         113      46     14                26047     6603    1046
     Sum        4171    1667    499               963377   243841   38517



     bravais-lattice index     =            0
     lattice parameter (alat)  =       1.8897  a.u.
     unit-cell volume          =    4408.4058 (a.u.)^3
     number of atoms/cell      =           12
     number of atomic types    =            2
     number of electrons       =       114.00
     number of Kohn-Sham states=           68
     kinetic-energy cutoff     =      55.1240  Ry
     charge density cutoff     =     551.2396  Ry
     convergence threshold     =      1.0E-05
     mixing beta               =       0.1000
     number of iterations used =           10  plain     mixing
     Exchange-correlation= BEEF-VDW
                           (   1   4  43  14   2   0   0)

     celldm(1)=   1.889726  celldm(2)=   0.000000  celldm(3)=   0.000000
     celldm(4)=   0.000000  celldm(5)=   0.000000  celldm(6)=   0.000000

     crystal axes: (cart. coord. in units of alat)
               a(1) = (   5.526097   0.000000   0.000000 )  
               a(2) = (  -2.763048   4.819568   0.000000 )  
               a(3) = (   0.000000   0.000000  24.527791 )  

     reciprocal axes: (cart. coord. in units 2 pi/alat)
               b(1) = (  0.180960  0.103744 -0.000000 )  
               b(2) = (  0.000000  0.207487  0.000000 )  
               b(3) = (  0.000000 -0.000000  0.040770 )  


     PseudoPot. # 1 for Pd read from file:
     ../pseudo/Pd.pbe-n-rrkjus_psl.1.0.0.UPF
     MD5 check sum: d9f693bf1c5b493397a6bd6f2231cfc3
     Pseudo is Ultrasoft + core correction, Zval = 10.0
     Generated using "atomic" code by A. Dal Corso v.6.3
     Using radial grid of 1235 points,  6 beta functions with: 
                l(1) =   0
                l(2) =   0
                l(3) =   1
                l(4) =   1
                l(5) =   2
                l(6) =   2
     Q(r) pseudized with 0 coefficients 


     PseudoPot. # 2 for Ir read from file:
     ../pseudo/Ir.pbe-n-rrkjus_psl.0.2.3.UPF
     MD5 check sum: a93e608e8ddc29ee62145620b5f41564
     Pseudo is Ultrasoft + core correction, Zval =  9.0
     Generated using "atomic" code by A. Dal Corso v.5.0.2 svn rev. 9415
     Using radial grid of 1277 points,  6 beta functions with: 
                l(1) =   0
                l(2) =   0
                l(3) =   1
                l(4) =   1
                l(5) =   2
                l(6) =   2
     Q(r) pseudized with 0 coefficients 


     atomic species   valence    mass     pseudopotential
        Pd            10.00   106.42000     Pd( 1.00)
        Ir             9.00   192.21700     Ir( 1.00)

     No symmetry found



   Cartesian axes

     site n.     atom                  positions (alat units)
         1           Pd  tau(   1) = (   0.0000000   0.0000000  10.0000000  )
         2           Pd  tau(   2) = (   2.7630483   0.0000000  10.0000000  )
         3           Ir  tau(   3) = (   1.3815241   2.4097842  10.0000000  )
         4           Ir  tau(   4) = (  -1.3815241   2.4097842  10.0000000  )
         5           Pd  tau(   5) = (   2.7630483   1.5840496  12.2638954  )
         6           Pd  tau(   6) = (  -0.0000000   1.5840496  12.2638954  )
         7           Ir  tau(   7) = (  -1.3815241   3.9938339  12.2638954  )
         8           Ir  tau(   8) = (   1.3815241   3.9938339  12.2638954  )
         9           Pd  tau(   9) = (   0.0000436   3.0544681  14.6119289  )
        10           Pd  tau(  10) = (   2.7631336   3.0544652  14.6119267  )
        11           Ir  tau(  11) = (   4.1446127   0.6092506  14.4271179  )
        12           Ir  tau(  12) = (   1.3815630   0.6092418  14.4271116  )

     number of k points=    74  Fermi-Dirac smearing, width (Ry)=  0.0100
                       cart. coord. in units 2pi/alat
        k(    1) = (   0.0000000   0.0000000   0.0000000), wk =   0.0138889
        k(    2) = (   0.0000000   0.0172906   0.0000000), wk =   0.0277778
        k(    3) = (   0.0000000   0.0345812   0.0000000), wk =   0.0277778
        k(    4) = (   0.0000000   0.0518719   0.0000000), wk =   0.0277778
        k(    5) = (   0.0000000   0.0691625   0.0000000), wk =   0.0277778
        k(    6) = (   0.0000000   0.0864531   0.0000000), wk =   0.0277778
        k(    7) = (   0.0000000  -0.1037437   0.0000000), wk =   0.0138889
        k(    8) = (   0.0150800   0.0086453   0.0000000), wk =   0.0277778
        k(    9) = (   0.0150800   0.0259359   0.0000000), wk =   0.0277778
        k(   10) = (   0.0150800   0.0432266   0.0000000), wk =   0.0277778
        k(   11) = (   0.0150800   0.0605172   0.0000000), wk =   0.0277778
        k(   12) = (   0.0150800   0.0778078   0.0000000), wk =   0.0277778
        k(   13) = (   0.0150800   0.0950984   0.0000000), wk =   0.0277778
        k(   14) = (   0.0150800  -0.0950984   0.0000000), wk =   0.0277778
        k(   15) = (   0.0150800  -0.0778078   0.0000000), wk =   0.0277778
        k(   16) = (   0.0150800  -0.0605172   0.0000000), wk =   0.0277778
        k(   17) = (   0.0150800  -0.0432266   0.0000000), wk =   0.0277778
        k(   18) = (   0.0150800  -0.0259359   0.0000000), wk =   0.0277778
        k(   19) = (   0.0150800  -0.0086453   0.0000000), wk =   0.0277778
        k(   20) = (   0.0301599   0.0172906   0.0000000), wk =   0.0277778
        k(   21) = (   0.0301599   0.0345812   0.0000000), wk =   0.0277778
        k(   22) = (   0.0301599   0.0518719   0.0000000), wk =   0.0277778
        k(   23) = (   0.0301599   0.0691625   0.0000000), wk =   0.0277778
        k(   24) = (   0.0301599   0.0864531   0.0000000), wk =   0.0277778
        k(   25) = (   0.0301599   0.1037437   0.0000000), wk =   0.0277778
        k(   26) = (   0.0301599  -0.0864531   0.0000000), wk =   0.0277778
        k(   27) = (   0.0301599  -0.0691625   0.0000000), wk =   0.0277778
        k(   28) = (   0.0301599  -0.0518719   0.0000000), wk =   0.0277778
        k(   29) = (   0.0301599  -0.0345812   0.0000000), wk =   0.0277778
        k(   30) = (   0.0301599  -0.0172906   0.0000000), wk =   0.0277778
        k(   31) = (   0.0301599  -0.0000000   0.0000000), wk =   0.0277778
        k(   32) = (   0.0452399   0.0259359   0.0000000), wk =   0.0277778
        k(   33) = (   0.0452399   0.0432266   0.0000000), wk =   0.0277778
        k(   34) = (   0.0452399   0.0605172   0.0000000), wk =   0.0277778
        k(   35) = (   0.0452399   0.0778078   0.0000000), wk =   0.0277778
        k(   36) = (   0.0452399   0.0950984   0.0000000), wk =   0.0277778
        k(   37) = (   0.0452399   0.1123890   0.0000000), wk =   0.0277778
        k(   38) = (   0.0452399  -0.0778078   0.0000000), wk =   0.0277778
        k(   39) = (   0.0452399  -0.0605172   0.0000000), wk =   0.0277778
        k(   40) = (   0.0452399  -0.0432266   0.0000000), wk =   0.0277778
        k(   41) = (   0.0452399  -0.0259359   0.0000000), wk =   0.0277778
        k(   42) = (   0.0452399  -0.0086453   0.0000000), wk =   0.0277778
        k(   43) = (   0.0452399   0.0086453   0.0000000), wk =   0.0277778
        k(   44) = (   0.0603198   0.0345812   0.0000000), wk =   0.0277778
        k(   45) = (   0.0603198   0.0518719   0.0000000), wk =   0.0277778
        k(   46) = (   0.0603198   0.0691625   0.0000000), wk =   0.0277778
        k(   47) = (   0.0603198   0.0864531   0.0000000), wk =   0.0277778
        k(   48) = (   0.0603198   0.1037437   0.0000000), wk =   0.0277778
        k(   49) = (   0.0603198   0.1210344   0.0000000), wk =   0.0277778
        k(   50) = (   0.0603198  -0.0691625   0.0000000), wk =   0.0277778
        k(   51) = (   0.0603198  -0.0518719   0.0000000), wk =   0.0277778
        k(   52) = (   0.0603198  -0.0345813   0.0000000), wk =   0.0277778
        k(   53) = (   0.0603198  -0.0172906   0.0000000), wk =   0.0277778
        k(   54) = (   0.0603198  -0.0000000   0.0000000), wk =   0.0277778
        k(   55) = (   0.0603198   0.0172906   0.0000000), wk =   0.0277778
        k(   56) = (   0.0753998   0.0432265   0.0000000), wk =   0.0277778
        k(   57) = (   0.0753998   0.0605172   0.0000000), wk =   0.0277778
        k(   58) = (   0.0753998   0.0778078   0.0000000), wk =   0.0277778
        k(   59) = (   0.0753998   0.0950984   0.0000000), wk =   0.0277778
        k(   60) = (   0.0753998   0.1123890   0.0000000), wk =   0.0277778
        k(   61) = (   0.0753998   0.1296797   0.0000000), wk =   0.0277778
        k(   62) = (   0.0753998  -0.0605172   0.0000000), wk =   0.0277778
        k(   63) = (   0.0753998  -0.0432266   0.0000000), wk =   0.0277778
        k(   64) = (   0.0753998  -0.0259359   0.0000000), wk =   0.0277778
        k(   65) = (   0.0753998  -0.0086453   0.0000000), wk =   0.0277778
        k(   66) = (   0.0753998   0.0086453   0.0000000), wk =   0.0277778
        k(   67) = (   0.0753998   0.0259359   0.0000000), wk =   0.0277778
        k(   68) = (  -0.0904798  -0.0518719   0.0000000), wk =   0.0138889
        k(   69) = (  -0.0904798  -0.0345812   0.0000000), wk =   0.0277778
        k(   70) = (  -0.0904798  -0.0172906   0.0000000), wk =   0.0277778
        k(   71) = (  -0.0904798   0.0000000   0.0000000), wk =   0.0277778
        k(   72) = (  -0.0904798   0.0172906   0.0000000), wk =   0.0277778
        k(   73) = (  -0.0904798   0.0345813   0.0000000), wk =   0.0277778
        k(   74) = (  -0.0904798  -0.1556156   0.0000000), wk =   0.0138889

     Dense  grid:   963377 G-vectors     FFT dimensions: (  80,  80, 360)

     Smooth grid:   243841 G-vectors     FFT dimensions: (  50,  50, 225)

     Estimated max dynamical RAM per process >     168.49 MB

     Estimated total dynamical RAM >       6.09 GB

     Initial potential from superposition of free atoms

     starting charge  113.99568, renormalised to  114.00000

     negative rho (up, down):  9.539E-04 0.000E+00


     %%%%%%%%%%%%%%%%%%%%%%%%%%%%%%%%%%%%%%%%%%%%%%%%%%%%%%%%%%%%%%%%%%%%%%%%
     %                                                                      %
     % You are using vdW-DF, which was implemented by the Thonhauser group. %
     % Please cite the following two papers that made this development      %
     % possible and the two reviews that describe the various versions:     %
     %                                                                      %
     %   T. Thonhauser et al., PRL 115, 136402 (2015).                      %
     %   T. Thonhauser et al., PRB 76, 125112 (2007).                       %
     %   K. Berland et al., Rep. Prog. Phys. 78, 066501 (2015).             %
     %   D.C. Langreth et al., J. Phys.: Condens. Matter 21, 084203 (2009). %
     %                                                                      %
     %                                                                      %
     % If you are calculating the stress with vdW-DF, please also cite:     %
     %                                                                      %
     %   R. Sabatini et al., J. Phys.: Condens. Matter 24, 424209 (2012).   %
     %                                                                      %
     %%%%%%%%%%%%%%%%%%%%%%%%%%%%%%%%%%%%%%%%%%%%%%%%%%%%%%%%%%%%%%%%%%%%%%%%



     Adding external electric field

     Computed dipole along edir(3) : 
        Dipole                0.0001 Ry au,          0.0003 Debye
        Dipole field          0.0000 Ry au, 

        Potential amp.       -0.0000 Ry
        Total length         45.1920 bohr

     Starting wfcs are  108 randomized atomic wfcs

     total cpu time spent up to now is       58.1 secs

     Self-consistent Calculation

     iteration #  1     ecut=    55.12 Ry     beta= 0.10
     Davidson diagonalization with overlap
     ethr =  1.00E-02,  avg # of iterations =  2.0

     negative rho (up, down):  8.521E-04 0.000E+00

     Adding external electric field

     Computed dipole along edir(3) : 
        Dipole                0.0975 Ry au,          0.2478 Debye
        Dipole field          0.0003 Ry au, 

        Potential amp.       -0.0251 Ry
        Total length         45.1920 bohr


     total cpu time spent up to now is      126.9 secs

     total energy              =    -788.90687422 Ry
     estimated scf accuracy    <       2.65747316 Ry

     iteration #  2     ecut=    55.12 Ry     beta= 0.10
     Davidson diagonalization with overlap
     ethr =  2.33E-03,  avg # of iterations =  1.4

     negative rho (up, down):  8.434E-04 0.000E+00

     Adding external electric field

     Computed dipole along edir(3) : 
        Dipole               -0.3815 Ry au,         -0.9696 Debye
        Dipole field         -0.0011 Ry au, 

        Potential amp.        0.0983 Ry
        Total length         45.1920 bohr


     total cpu time spent up to now is      191.9 secs

     total energy              =    -789.13222130 Ry
     estimated scf accuracy    <       0.62158879 Ry

     iteration #  3     ecut=    55.12 Ry     beta= 0.10
     Davidson diagonalization with overlap
     ethr =  5.45E-04,  avg # of iterations =  2.1

     negative rho (up, down):  9.316E-04 0.000E+00

     Adding external electric field

     Computed dipole along edir(3) : 
        Dipole                0.0342 Ry au,          0.0869 Debye
        Dipole field          0.0001 Ry au, 

        Potential amp.       -0.0088 Ry
        Total length         45.1920 bohr


     total cpu time spent up to now is      263.1 secs

     total energy              =    -789.05346021 Ry
     estimated scf accuracy    <      14.09722249 Ry

     iteration #  4     ecut=    55.12 Ry     beta= 0.10
     Davidson diagonalization with overlap
     ethr =  5.45E-04,  avg # of iterations =  1.0

     negative rho (up, down):  8.859E-04 0.000E+00

     Adding external electric field

     Computed dipole along edir(3) : 
        Dipole                0.0304 Ry au,          0.0772 Debye
        Dipole field          0.0001 Ry au, 

        Potential amp.       -0.0078 Ry
        Total length         45.1920 bohr


     total cpu time spent up to now is      325.9 secs

     total energy              =    -789.21401845 Ry
     estimated scf accuracy    <       0.10060260 Ry

     iteration #  5     ecut=    55.12 Ry     beta= 0.10
     Davidson diagonalization with overlap
     ethr =  8.82E-05,  avg # of iterations =  2.3

     negative rho (up, down):  1.060E-03 0.000E+00

     Adding external electric field

     Computed dipole along edir(3) : 
        Dipole                0.0260 Ry au,          0.0662 Debye
        Dipole field          0.0001 Ry au, 

        Potential amp.       -0.0067 Ry
        Total length         45.1920 bohr


     total cpu time spent up to now is      396.2 secs

     total energy              =    -789.21953696 Ry
     estimated scf accuracy    <       0.04094978 Ry

     iteration #  6     ecut=    55.12 Ry     beta= 0.10
     Davidson diagonalization with overlap
     ethr =  3.59E-05,  avg # of iterations =  2.7

     negative rho (up, down):  1.262E-03 0.000E+00

     Adding external electric field

     Computed dipole along edir(3) : 
        Dipole                0.0150 Ry au,          0.0380 Debye
        Dipole field          0.0000 Ry au, 

        Potential amp.       -0.0039 Ry
        Total length         45.1920 bohr


     total cpu time spent up to now is      466.1 secs

     total energy              =    -789.22204030 Ry
     estimated scf accuracy    <       0.02079112 Ry

     iteration #  7     ecut=    55.12 Ry     beta= 0.10
     Davidson diagonalization with overlap
     ethr =  1.82E-05,  avg # of iterations =  3.6

     negative rho (up, down):  1.676E-03 0.000E+00

     Adding external electric field

     Computed dipole along edir(3) : 
        Dipole                0.0194 Ry au,          0.0492 Debye
        Dipole field          0.0001 Ry au, 

        Potential amp.       -0.0050 Ry
        Total length         45.1920 bohr


     total cpu time spent up to now is      536.4 secs

     total energy              =    -789.22211460 Ry
     estimated scf accuracy    <       0.02488210 Ry

     iteration #  8     ecut=    55.12 Ry     beta= 0.10
     Davidson diagonalization with overlap
     ethr =  1.82E-05,  avg # of iterations =  1.1

     negative rho (up, down):  2.248E-03 0.000E+00

     Adding external electric field

     Computed dipole along edir(3) : 
        Dipole                0.0122 Ry au,          0.0311 Debye
        Dipole field          0.0000 Ry au, 

        Potential amp.       -0.0032 Ry
        Total length         45.1920 bohr


     total cpu time spent up to now is      599.0 secs

     total energy              =    -789.22359703 Ry
     estimated scf accuracy    <       0.00590965 Ry

     iteration #  9     ecut=    55.12 Ry     beta= 0.10
     Davidson diagonalization with overlap
     ethr =  5.18E-06,  avg # of iterations =  3.9

     negative rho (up, down):  2.464E-03 0.000E+00

     Adding external electric field

     Computed dipole along edir(3) : 
        Dipole                0.0196 Ry au,          0.0498 Debye
        Dipole field          0.0001 Ry au, 

        Potential amp.       -0.0050 Ry
        Total length         45.1920 bohr


     total cpu time spent up to now is      671.3 secs

     total energy              =    -789.22434805 Ry
     estimated scf accuracy    <       0.00328466 Ry

     iteration # 10     ecut=    55.12 Ry     beta= 0.10
     Davidson diagonalization with overlap
     ethr =  2.88E-06,  avg # of iterations =  3.6

     negative rho (up, down):  2.339E-03 0.000E+00

     Adding external electric field

     Computed dipole along edir(3) : 
        Dipole                0.0208 Ry au,          0.0529 Debye
        Dipole field          0.0001 Ry au, 

        Potential amp.       -0.0054 Ry
        Total length         45.1920 bohr


     total cpu time spent up to now is      742.5 secs

     total energy              =    -789.22402631 Ry
     estimated scf accuracy    <       0.00247062 Ry

     iteration # 11     ecut=    55.12 Ry     beta= 0.10
     Davidson diagonalization with overlap
     ethr =  2.17E-06,  avg # of iterations =  1.3

     negative rho (up, down):  2.155E-03 0.000E+00

     Adding external electric field

     Computed dipole along edir(3) : 
        Dipole                0.0208 Ry au,          0.0528 Debye
        Dipole field          0.0001 Ry au, 

        Potential amp.       -0.0054 Ry
        Total length         45.1920 bohr


     total cpu time spent up to now is      805.8 secs

     total energy              =    -789.22421988 Ry
     estimated scf accuracy    <       0.00026266 Ry

     iteration # 12     ecut=    55.12 Ry     beta= 0.10
     Davidson diagonalization with overlap
     ethr =  2.30E-07,  avg # of iterations =  4.0

     negative rho (up, down):  1.974E-03 0.000E+00

     Adding external electric field

     Computed dipole along edir(3) : 
        Dipole                0.0197 Ry au,          0.0500 Debye
        Dipole field          0.0001 Ry au, 

        Potential amp.       -0.0051 Ry
        Total length         45.1920 bohr


     total cpu time spent up to now is      909.3 secs

     total energy              =    -789.22427883 Ry
     estimated scf accuracy    <       0.00004778 Ry

     iteration # 13     ecut=    55.12 Ry     beta= 0.10
     Davidson diagonalization with overlap
     ethr =  4.19E-08,  avg # of iterations =  3.5

     negative rho (up, down):  1.851E-03 0.000E+00

     Adding external electric field

     Computed dipole along edir(3) : 
        Dipole                0.0177 Ry au,          0.0451 Debye
        Dipole field          0.0001 Ry au, 

        Potential amp.       -0.0046 Ry
        Total length         45.1920 bohr


     total cpu time spent up to now is      982.8 secs

     total energy              =    -789.22427401 Ry
     estimated scf accuracy    <       0.00006350 Ry

     iteration # 14     ecut=    55.12 Ry     beta= 0.10
     Davidson diagonalization with overlap
     ethr =  4.19E-08,  avg # of iterations =  2.2

     negative rho (up, down):  1.719E-03 0.000E+00

     Adding external electric field

     Computed dipole along edir(3) : 
        Dipole                0.0185 Ry au,          0.0469 Debye
        Dipole field          0.0001 Ry au, 

        Potential amp.       -0.0048 Ry
        Total length         45.1920 bohr


     total cpu time spent up to now is     1072.4 secs

     total energy              =    -789.22427601 Ry
     estimated scf accuracy    <       0.00002234 Ry

     iteration # 15     ecut=    55.12 Ry     beta= 0.10
     Davidson diagonalization with overlap
     ethr =  1.96E-08,  avg # of iterations =  2.5

     negative rho (up, down):  9.317E-04 0.000E+00

     Adding external electric field

     Computed dipole along edir(3) : 
        Dipole                0.0247 Ry au,          0.0628 Debye
        Dipole field          0.0001 Ry au, 

        Potential amp.       -0.0064 Ry
        Total length         45.1920 bohr


     total cpu time spent up to now is     1160.7 secs

     End of self-consistent calculation

          k = 0.0000 0.0000 0.0000 ( 30561 PWs)   bands (ev):

    -7.5429  -5.9122  -5.6698  -5.5242  -5.4941  -5.2796  -5.1169  -5.0656
    -4.9899  -4.8039  -4.7913  -4.7844  -4.5305  -4.5032  -4.4240  -3.4275
    -3.3215  -3.2774  -3.0872  -2.9707  -2.9055  -2.8383  -2.7304  -2.7134
    -2.4234  -2.4065  -2.3353  -2.3297  -2.2991  -2.2070  -2.1943  -2.1296
    -1.6989  -1.6608  -1.4643  -1.1202  -1.0784  -1.0642  -0.8972  -0.8814
    -0.7044  -0.6405  -0.4566  -0.2723  -0.2447  -0.1245  -0.1224   0.0419
     0.2105   0.2627   0.3024   0.4254   0.4672   0.6397   0.6422   0.7265
     0.7990   0.8402   1.1040   1.1494   1.2084   1.3529   1.3811   1.6967
     1.8245   2.1874   2.2367   3.4800

          k = 0.0000 0.0173 0.0000 ( 30557 PWs)   bands (ev):

    -7.4890  -5.8693  -5.6270  -5.4818  -5.4545  -5.2545  -5.0756  -5.0368
    -4.9517  -4.7825  -4.7671  -4.7609  -4.4742  -4.4528  -4.3971  -3.4282
    -3.3103  -3.2721  -3.0708  -2.9530  -2.8859  -2.8547  -2.7493  -2.6951
    -2.5140  -2.3836  -2.3811  -2.3639  -2.2490  -2.2032  -2.1888  -2.0930
    -1.7543  -1.6868  -1.4934  -1.1589  -1.0854  -1.0720  -0.9180  -0.8993
    -0.7620  -0.7295  -0.5449  -0.4550  -0.2818  -0.1159  -0.0166   0.0809
     0.0955   0.2430   0.3045   0.3908   0.3920   0.4892   0.5033   0.6960
     0.7214   0.8046   0.8777   1.0663   1.1471   1.2163   1.5827   1.6248
     1.9137   1.9238   2.5944   2.7423

          k = 0.0000 0.0346 0.0000 ( 30531 PWs)   bands (ev):

    -7.3314  -5.7571  -5.5037  -5.3578  -5.3406  -5.1787  -4.9569  -4.9492
    -4.8405  -4.7186  -4.7087  -4.6708  -4.3178  -4.3151  -4.3051  -3.4362
    -3.2801  -3.2613  -3.0480  -2.9315  -2.9098  -2.8291  -2.8153  -2.6376
    -2.5936  -2.5239  -2.4379  -2.3105  -2.2655  -2.1880  -2.1325  -1.9853
    -1.9090  -1.7728  -1.5974  -1.2671  -1.1348  -1.1079  -1.0320  -0.9255
    -0.9218  -0.9017  -0.8087  -0.5153  -0.4075  -0.2256  -0.1706  -0.1426
    -0.0856   0.0706   0.1384   0.1831   0.3203   0.3687   0.4504   0.5839
     0.5996   0.6183   0.6995   0.8704   0.9798   0.9827   1.1204   1.6438
     1.8337   2.0833   2.2839   3.0841

          k = 0.0000 0.0519 0.0000 ( 30464 PWs)   bands (ev):

    -7.0839  -5.6344  -5.3097  -5.1678  -5.1620  -5.0520  -4.8007  -4.7824
    -4.6657  -4.6133  -4.5988  -4.5291  -4.1905  -4.0753  -4.0724  -3.4582
    -3.2762  -3.2624  -3.1308  -2.9832  -2.8999  -2.8892  -2.7495  -2.7009
    -2.6688  -2.5342  -2.4433  -2.3180  -2.2063  -2.2013  -2.1261  -2.0373
    -1.9270  -1.8150  -1.7934  -1.4320  -1.3227  -1.1864  -1.1560  -1.1490
    -1.1448  -1.0137  -0.8977  -0.7953  -0.6604  -0.5157  -0.4384  -0.4222
    -0.3121  -0.2234  -0.2044  -0.0691   0.1218   0.2252   0.3754   0.3757
     0.4043   0.4596   0.5227   0.6813   0.7749   0.9092   1.0738   1.1302
     1.6621   2.2146   2.8223   3.4423

          k = 0.0000 0.0692 0.0000 ( 30454 PWs)   bands (ev):

    -6.7755  -5.5835  -5.0711  -4.9654  -4.9170  -4.8898  -4.6091  -4.6009
    -4.4687  -4.4537  -4.4189  -4.3538  -4.0279  -3.8254  -3.7783  -3.4444
    -3.4326  -3.2973  -3.2053  -3.0712  -3.0520  -2.9039  -2.7769  -2.7215
    -2.6469  -2.5609  -2.4064  -2.2984  -2.2918  -2.2162  -2.1043  -2.0610
    -2.0471  -1.9201  -1.6053  -1.6011  -1.5758  -1.4195  -1.4100  -1.3849
    -1.2793  -1.2475  -1.1836  -1.0427  -0.8882  -0.8320  -0.8035  -0.8002
    -0.5218  -0.4474  -0.4464  -0.0841  -0.0683  -0.0185   0.0610   0.2175
     0.2350   0.2802   0.3459   0.6075   0.6180   0.6868   0.8584   1.5339
     1.6815   2.3138   3.1299   3.6432

          k = 0.0000 0.0865 0.0000 ( 30398 PWs)   bands (ev):

    -6.4662  -5.6359  -4.8616  -4.7802  -4.7373  -4.6731  -4.4955  -4.4423
    -4.3257  -4.2559  -4.1927  -4.1195  -3.8824  -3.7308  -3.6066  -3.5422
    -3.3904  -3.3459  -3.2312  -3.2269  -3.1377  -2.9873  -2.8867  -2.7274
    -2.5602  -2.5024  -2.4769  -2.2880  -2.2618  -2.2137  -2.1963  -2.1758
    -1.9476  -1.8756  -1.8346  -1.8252  -1.7003  -1.6723  -1.6713  -1.5707
    -1.5125  -1.3869  -1.3716  -1.2126  -1.1504  -1.1084  -0.8945  -0.8664
    -0.7143  -0.6774  -0.5786  -0.2404  -0.2218  -0.0671   0.0034   0.0526
     0.0563   0.1632   0.2597   0.3685   0.5978   0.7024   0.8195   1.6975
     1.9567   2.3762   2.8738   3.6250

          k = 0.0000-0.1037 0.0000 ( 30434 PWs)   bands (ev):

    -6.3066  -5.7023  -4.7756  -4.6941  -4.6680  -4.5446  -4.4689  -4.4005
    -4.3098  -4.0604  -4.0511  -3.9441  -3.9327  -3.7557  -3.6204  -3.5294
    -3.4935  -3.3996  -3.2760  -3.1620  -3.1399  -3.0098  -2.8411  -2.7243
    -2.5484  -2.4615  -2.3994  -2.3044  -2.2838  -2.2797  -2.1887  -2.1649
    -2.1294  -2.0226  -1.8566  -1.8065  -1.7963  -1.7729  -1.7652  -1.7602
    -1.6676  -1.3835  -1.2806  -1.2565  -1.2285  -1.1776  -0.9370  -0.8704
    -0.8473  -0.7684  -0.6197  -0.3082  -0.2141  -0.0979  -0.0658  -0.0501
     0.0575   0.1418   0.2327   0.2809   0.5931   0.7202   0.7998   1.7037
     2.2667   2.3975   2.5794   3.6546

          k = 0.0151 0.0086 0.0000 ( 30517 PWs)   bands (ev):

    -7.4839  -5.8528  -5.6146  -5.5059  -5.4565  -5.2329  -5.0875  -5.0323
    -4.9571  -4.7761  -4.7740  -4.7615  -4.4961  -4.4585  -4.3745  -3.4203
    -3.3189  -3.2673  -3.0648  -2.9535  -2.8911  -2.8347  -2.7809  -2.6807
    -2.5132  -2.3711  -2.3606  -2.3206  -2.2669  -2.2195  -2.1760  -2.1222
    -1.7283  -1.6941  -1.5068  -1.1494  -1.1392  -1.0484  -0.9232  -0.9180
    -0.7374  -0.6785  -0.4996  -0.4322  -0.2635  -0.1744  -0.1659   0.0133
     0.1282   0.2576   0.3567   0.3941   0.4360   0.5490   0.5605   0.6359
     0.7290   0.7605   0.9845   1.0171   1.0546   1.2831   1.5125   1.6189
     1.6592   2.3330   2.3857   2.9680

          k = 0.0151 0.0259 0.0000 ( 30534 PWs)   bands (ev):

    -7.3776  -5.7712  -5.5312  -5.4393  -5.3673  -5.1826  -5.0075  -4.9751
    -4.8819  -4.7359  -4.7342  -4.7002  -4.4115  -4.3358  -4.3215  -3.4256
    -3.2985  -3.2578  -3.0403  -2.9212  -2.8967  -2.8534  -2.7985  -2.6463
    -2.5987  -2.4683  -2.3650  -2.3444  -2.2347  -2.2073  -2.1788  -2.0314
    -1.8315  -1.7488  -1.5698  -1.2199  -1.1691  -1.0817  -0.9939  -0.9379
    -0.8440  -0.8226  -0.6851  -0.5194  -0.3429  -0.2255  -0.1605  -0.0976
     0.0183   0.1672   0.1861   0.2780   0.3118   0.4102   0.5401   0.5854
     0.5996   0.6859   0.7446   0.8790   0.9552   0.9958   1.5032   1.6357
     1.7154   2.1440   2.5326   2.7160

          k = 0.0151 0.0432 0.0000 ( 30484 PWs)   bands (ev):

    -7.1737  -5.6437  -5.3723  -5.3010  -5.2097  -5.0810  -4.8586  -4.8586
    -4.7390  -4.6533  -4.6507  -4.5779  -4.2347  -4.2181  -4.1228  -3.4453
    -3.2691  -3.2498  -3.0950  -2.9528  -2.8845  -2.8568  -2.7836  -2.7109
    -2.6066  -2.5139  -2.4712  -2.3176  -2.2401  -2.2076  -2.1195  -1.9938
    -1.8816  -1.8652  -1.7170  -1.3629  -1.2662  -1.1717  -1.1429  -1.0387
    -1.0288  -0.9311  -0.8680  -0.6243  -0.5869  -0.4311  -0.4161  -0.2514
    -0.2204  -0.1032  -0.0483  -0.0166   0.1419   0.2469   0.3483   0.3765
     0.4718   0.6166   0.7174   0.7241   0.7717   0.9624   1.2034   1.5504
     1.7073   1.7639   2.6615   2.7177

          k = 0.0151 0.0605 0.0000 ( 30480 PWs)   bands (ev):

    -6.8918  -5.5486  -5.1505  -5.1026  -5.0078  -4.9323  -4.6816  -4.6788
    -4.5438  -4.5278  -4.5083  -4.4108  -4.0719  -3.9828  -3.8598  -3.4671
    -3.3488  -3.2653  -3.1748  -3.0300  -2.9605  -2.9005  -2.7362  -2.7164
    -2.6683  -2.5821  -2.4184  -2.3753  -2.2633  -2.1896  -2.1294  -2.0371
    -1.9623  -1.9390  -1.6989  -1.5412  -1.4608  -1.3224  -1.3151  -1.2567
    -1.2007  -1.0944  -1.0786  -0.9378  -0.8485  -0.7398  -0.6480  -0.6195
    -0.5139  -0.3727  -0.3228  -0.0848  -0.0385   0.0077   0.1619   0.2882
     0.3103   0.4451   0.5416   0.6146   0.6256   0.8685   1.0522   1.4035
     1.5870   1.8874   2.8085   3.1359

          k = 0.0151 0.0778 0.0000 ( 30427 PWs)   bands (ev):

    -6.5724  -5.5525  -4.9133  -4.8803  -4.7939  -4.7659  -4.5339  -4.4779
    -4.3607  -4.3460  -4.3028  -4.2049  -3.9060  -3.7738  -3.6325  -3.5368
    -3.3642  -3.3037  -3.2891  -3.1599  -3.0943  -2.9090  -2.8736  -2.7739
    -2.6047  -2.5367  -2.4803  -2.3732  -2.3058  -2.1978  -2.1701  -2.1493
    -1.9712  -1.8970  -1.7572  -1.7183  -1.6596  -1.5883  -1.5386  -1.4132
    -1.3687  -1.3609  -1.3163  -1.2881  -1.0346  -0.9570  -0.8409  -0.8406
    -0.6457  -0.5573  -0.5337  -0.2944  -0.1290  -0.0633   0.0289   0.1570
     0.2101   0.2481   0.3173   0.5732   0.5798   0.6472   0.8066   1.6128
     1.8072   1.9801   2.8958   3.1161

          k = 0.0151 0.0951 0.0000 ( 30447 PWs)   bands (ev):

    -6.3086  -5.6374  -4.7528  -4.7111  -4.6421  -4.6277  -4.4613  -4.3768
    -4.2740  -4.1183  -4.0949  -3.9678  -3.8622  -3.7760  -3.6105  -3.5237
    -3.4436  -3.4173  -3.2680  -3.2147  -3.0847  -3.0209  -2.8659  -2.7280
    -2.5830  -2.5037  -2.4884  -2.3336  -2.2968  -2.2918  -2.2381  -2.1646
    -2.1347  -2.0706  -1.9099  -1.8189  -1.7557  -1.7514  -1.7051  -1.6541
    -1.6452  -1.3826  -1.2876  -1.2472  -1.1920  -1.0973  -0.8600  -0.8597
    -0.8199  -0.6962  -0.6437  -0.3046  -0.2557  -0.0779  -0.0066   0.0211
     0.0689   0.1633   0.2484   0.3585   0.5696   0.6609   0.7703   1.6270
     2.0287   2.2080   2.7491   2.9445

          k = 0.0151-0.0951 0.0000 ( 30447 PWs)   bands (ev):

    -6.3086  -5.6374  -4.7528  -4.7111  -4.6421  -4.6277  -4.4613  -4.3768
    -4.2740  -4.1183  -4.0949  -3.9678  -3.8622  -3.7760  -3.6105  -3.5237
    -3.4436  -3.4173  -3.2680  -3.2147  -3.0847  -3.0209  -2.8659  -2.7280
    -2.5830  -2.5037  -2.4884  -2.3336  -2.2968  -2.2917  -2.2381  -2.1646
    -2.1347  -2.0706  -1.9099  -1.8189  -1.7557  -1.7514  -1.7051  -1.6541
    -1.6452  -1.3826  -1.2876  -1.2472  -1.1920  -1.0973  -0.8600  -0.8597
    -0.8199  -0.6962  -0.6437  -0.3046  -0.2557  -0.0779  -0.0066   0.0211
     0.0689   0.1633   0.2484   0.3585   0.5696   0.6609   0.7703   1.6270
     2.0287   2.2080   2.7492   2.9446

          k = 0.0151-0.0778 0.0000 ( 30427 PWs)   bands (ev):

    -6.5724  -5.5525  -4.9133  -4.8803  -4.7940  -4.7659  -4.5339  -4.4779
    -4.3607  -4.3460  -4.3028  -4.2049  -3.9060  -3.7738  -3.6324  -3.5368
    -3.3642  -3.3037  -3.2891  -3.1599  -3.0943  -2.9091  -2.8736  -2.7739
    -2.6047  -2.5367  -2.4803  -2.3731  -2.3058  -2.1978  -2.1701  -2.1493
    -1.9712  -1.8970  -1.7572  -1.7183  -1.6596  -1.5883  -1.5386  -1.4132
    -1.3687  -1.3609  -1.3163  -1.2881  -1.0346  -0.9570  -0.8410  -0.8406
    -0.6457  -0.5573  -0.5337  -0.2944  -0.1291  -0.0633   0.0289   0.1570
     0.2101   0.2481   0.3173   0.5732   0.5798   0.6472   0.8066   1.6128
     1.8071   1.9801   2.8958   3.1161

          k = 0.0151-0.0605 0.0000 ( 30480 PWs)   bands (ev):

    -6.8918  -5.5486  -5.1505  -5.1026  -5.0078  -4.9323  -4.6816  -4.6788
    -4.5438  -4.5278  -4.5083  -4.4108  -4.0719  -3.9828  -3.8598  -3.4671
    -3.3488  -3.2653  -3.1748  -3.0300  -2.9605  -2.9005  -2.7362  -2.7164
    -2.6683  -2.5821  -2.4183  -2.3753  -2.2633  -2.1896  -2.1294  -2.0371
    -1.9623  -1.9390  -1.6989  -1.5412  -1.4608  -1.3224  -1.3151  -1.2567
    -1.2007  -1.0944  -1.0786  -0.9378  -0.8484  -0.7398  -0.6480  -0.6195
    -0.5139  -0.3727  -0.3227  -0.0848  -0.0385   0.0077   0.1620   0.2882
     0.3103   0.4452   0.5416   0.6146   0.6256   0.8685   1.0523   1.4034
     1.5870   1.8874   2.8085   3.1359

          k = 0.0151-0.0432 0.0000 ( 30484 PWs)   bands (ev):

    -7.1737  -5.6437  -5.3723  -5.3010  -5.2097  -5.0810  -4.8586  -4.8586
    -4.7390  -4.6533  -4.6507  -4.5779  -4.2347  -4.2181  -4.1228  -3.4453
    -3.2691  -3.2498  -3.0950  -2.9528  -2.8845  -2.8568  -2.7836  -2.7108
    -2.6066  -2.5139  -2.4712  -2.3176  -2.2401  -2.2076  -2.1195  -1.9938
    -1.8816  -1.8652  -1.7171  -1.3629  -1.2662  -1.1717  -1.1429  -1.0387
    -1.0288  -0.9311  -0.8680  -0.6243  -0.5869  -0.4311  -0.4161  -0.2514
    -0.2204  -0.1032  -0.0483  -0.0166   0.1419   0.2469   0.3483   0.3765
     0.4718   0.6166   0.7174   0.7242   0.7717   0.9623   1.2034   1.5504
     1.7073   1.7639   2.6615   2.7178

          k = 0.0151-0.0259 0.0000 ( 30534 PWs)   bands (ev):

    -7.3776  -5.7712  -5.5312  -5.4393  -5.3673  -5.1826  -5.0075  -4.9751
    -4.8819  -4.7359  -4.7342  -4.7002  -4.4115  -4.3358  -4.3215  -3.4256
    -3.2985  -3.2578  -3.0403  -2.9213  -2.8967  -2.8534  -2.7985  -2.6463
    -2.5987  -2.4683  -2.3651  -2.3444  -2.2347  -2.2073  -2.1789  -2.0314
    -1.8315  -1.7488  -1.5698  -1.2199  -1.1691  -1.0817  -0.9939  -0.9379
    -0.8440  -0.8226  -0.6851  -0.5194  -0.3429  -0.2255  -0.1605  -0.0976
     0.0184   0.1672   0.1861   0.2780   0.3118   0.4102   0.5401   0.5854
     0.5996   0.6859   0.7446   0.8790   0.9552   0.9958   1.5032   1.6357
     1.7154   2.1440   2.5326   2.7160

          k = 0.0151-0.0086 0.0000 ( 30517 PWs)   bands (ev):

    -7.4839  -5.8528  -5.6146  -5.5059  -5.4565  -5.2329  -5.0875  -5.0323
    -4.9571  -4.7761  -4.7740  -4.7615  -4.4961  -4.4585  -4.3745  -3.4203
    -3.3189  -3.2673  -3.0648  -2.9535  -2.8911  -2.8347  -2.7808  -2.6807
    -2.5132  -2.3711  -2.3606  -2.3206  -2.2669  -2.2195  -2.1760  -2.1222
    -1.7283  -1.6941  -1.5068  -1.1494  -1.1392  -1.0484  -0.9232  -0.9180
    -0.7374  -0.6785  -0.4996  -0.4323  -0.2635  -0.1744  -0.1659   0.0133
     0.1282   0.2576   0.3567   0.3941   0.4360   0.5490   0.5605   0.6359
     0.7290   0.7605   0.9845   1.0171   1.0546   1.2831   1.5125   1.6188
     1.6592   2.3330   2.3857   2.9681

          k = 0.0302 0.0173 0.0000 ( 30498 PWs)   bands (ev):

    -7.3102  -5.6801  -5.4664  -5.4550  -5.3434  -5.0960  -5.0023  -4.9379
    -4.8617  -4.7256  -4.6928  -4.6864  -4.4134  -4.3105  -4.2294  -3.4066
    -3.3184  -3.2380  -3.0083  -2.9316  -2.9043  -2.8514  -2.8036  -2.6729
    -2.5691  -2.4341  -2.3522  -2.2893  -2.2738  -2.2094  -2.1876  -2.0184
    -1.8190  -1.7959  -1.6318  -1.2902  -1.2040  -1.0782  -1.0274  -1.0027
    -0.8390  -0.7884  -0.6657  -0.6209  -0.3425  -0.3190  -0.3076  -0.2067
    -0.0925   0.0791   0.2280   0.2478   0.3082   0.4274   0.4578   0.6137
     0.6347   0.6408   0.7634   0.7880   0.8308   0.9766   1.0603   1.2938
     1.9985   2.2007   2.5578   2.6754

          k = 0.0302 0.0346 0.0000 ( 30497 PWs)   bands (ev):

    -7.1565  -5.5700  -5.3949  -5.3369  -5.2146  -5.0205  -4.8905  -4.8558
    -4.7580  -4.6645  -4.6332  -4.5836  -4.3096  -4.1527  -4.1235  -3.4287
    -3.2937  -3.2244  -3.0828  -2.9365  -2.8703  -2.8174  -2.8008  -2.7553
    -2.5621  -2.5384  -2.3597  -2.3261  -2.2822  -2.2234  -2.1340  -1.9443
    -1.8945  -1.8734  -1.7299  -1.3420  -1.3304  -1.1751  -1.1464  -1.0628
    -0.9495  -0.9269  -0.7857  -0.6676  -0.5453  -0.5148  -0.3748  -0.3063
    -0.2597  -0.0766  -0.0248   0.0889   0.1503   0.1788   0.2089   0.4721
     0.5315   0.6143   0.6478   0.7409   0.7936   0.9711   1.0423   1.3604
     1.8312   1.8972   2.5419   2.7563

          k = 0.0302 0.0519 0.0000 ( 30468 PWs)   bands (ev):

    -6.9141  -5.4489  -5.2590  -5.1494  -5.0400  -4.8937  -4.7273  -4.7151
    -4.6104  -4.5336  -4.5313  -4.4261  -4.1163  -4.0301  -3.8822  -3.4634
    -3.3019  -3.2240  -3.2088  -2.9802  -2.8906  -2.8895  -2.7688  -2.7254
    -2.6312  -2.5284  -2.5175  -2.3922  -2.2930  -2.1783  -2.1164  -1.9993
    -1.9857  -1.8961  -1.7421  -1.5005  -1.4450  -1.3476  -1.3119  -1.1598
    -1.1423  -1.0087  -0.9620  -0.9427  -0.8147  -0.7080  -0.6909  -0.5427
    -0.4849  -0.3256  -0.1916  -0.1117  -0.1057  -0.0352   0.1708   0.3030
     0.4091   0.5559   0.5805   0.5996   0.6731   1.1215   1.1978   1.4076
     1.4629   1.8235   1.8801   3.1805

          k = 0.0302 0.0692 0.0000 ( 30443 PWs)   bands (ev):

    -6.6098  -5.4025  -5.0757  -4.9126  -4.8443  -4.7279  -4.5649  -4.5152
    -4.4313  -4.3983  -4.3245  -4.2328  -3.8737  -3.8700  -3.7178  -3.4788
    -3.4011  -3.2562  -3.2434  -3.0931  -3.0312  -2.9331  -2.8445  -2.7611
    -2.6436  -2.5820  -2.5005  -2.4791  -2.3837  -2.1683  -2.1560  -2.0899
    -2.0065  -1.9535  -1.7010  -1.6844  -1.6039  -1.5776  -1.4464  -1.4101
    -1.3163  -1.2752  -1.2322  -1.2097  -1.0249  -0.8290  -0.7944  -0.7893
    -0.6330  -0.5395  -0.4573  -0.2735  -0.1449  -0.1022   0.1024   0.2083
     0.3053   0.4421   0.5011   0.5195   0.5690   0.8493   1.1606   1.2474
     1.4406   1.7688   1.9652   3.4453

          k = 0.0302 0.0865 0.0000 ( 30455 PWs)   bands (ev):

    -6.3007  -5.4645  -4.8934  -4.6982  -4.6674  -4.5681  -4.4481  -4.3215
    -4.2331  -4.2136  -4.1671  -3.9897  -3.8258  -3.7495  -3.6263  -3.5551
    -3.3894  -3.3425  -3.2922  -3.2494  -3.0432  -2.9579  -2.9238  -2.8405
    -2.6285  -2.5969  -2.5281  -2.4946  -2.3829  -2.2737  -2.2288  -2.2146
    -2.1202  -2.0762  -1.9407  -1.8119  -1.7576  -1.6749  -1.6686  -1.6188
    -1.5975  -1.3710  -1.2636  -1.1588  -1.0681  -0.9907  -0.8686  -0.8399
    -0.7029  -0.6727  -0.5508  -0.3431  -0.1819  -0.1148  -0.0339   0.1166
     0.2278   0.3167   0.3584   0.5020   0.5106   0.6288   0.7367   1.3224
     1.4659   2.0267   2.1633   3.1118

          k = 0.0302 0.1037 0.0000 ( 30440 PWs)   bands (ev):

    -6.1379  -5.5385  -4.8087  -4.6078  -4.5854  -4.4932  -4.4037  -4.2702
    -4.2005  -4.0154  -4.0116  -3.8984  -3.8610  -3.7983  -3.6127  -3.5500
    -3.4527  -3.4366  -3.4139  -3.1745  -3.0440  -2.9002  -2.8681  -2.7354
    -2.6726  -2.6063  -2.5459  -2.5247  -2.4918  -2.4293  -2.3205  -2.2765
    -2.1531  -2.1307  -2.0087  -1.9235  -1.7872  -1.7496  -1.7243  -1.6961
    -1.6190  -1.3896  -1.2634  -1.1694  -1.0826  -0.9737  -0.9145  -0.8312
    -0.7221  -0.7153  -0.5311  -0.3519  -0.2286  -0.1139  -0.0634   0.0217
     0.2009   0.2414   0.2794   0.4483   0.4982   0.5396   0.6800   1.3463
     1.4763   2.0484   2.4682   2.7921

          k = 0.0302-0.0865 0.0000 ( 30455 PWs)   bands (ev):

    -6.3007  -5.4645  -4.8934  -4.6982  -4.6674  -4.5681  -4.4481  -4.3215
    -4.2331  -4.2136  -4.1671  -3.9896  -3.8258  -3.7495  -3.6263  -3.5551
    -3.3894  -3.3425  -3.2922  -3.2493  -3.0432  -2.9579  -2.9238  -2.8405
    -2.6285  -2.5969  -2.5281  -2.4946  -2.3829  -2.2737  -2.2288  -2.2146
    -2.1202  -2.0762  -1.9407  -1.8120  -1.7576  -1.6749  -1.6686  -1.6188
    -1.5975  -1.3710  -1.2636  -1.1588  -1.0681  -0.9907  -0.8687  -0.8399
    -0.7030  -0.6727  -0.5508  -0.3431  -0.1819  -0.1148  -0.0339   0.1166
     0.2278   0.3167   0.3584   0.5020   0.5106   0.6288   0.7367   1.3224
     1.4659   2.0267   2.1633   3.1118

          k = 0.0302-0.0692 0.0000 ( 30443 PWs)   bands (ev):

    -6.6098  -5.4025  -5.0757  -4.9126  -4.8443  -4.7279  -4.5649  -4.5152
    -4.4313  -4.3983  -4.3245  -4.2328  -3.8737  -3.8700  -3.7178  -3.4788
    -3.4011  -3.2563  -3.2433  -3.0931  -3.0312  -2.9331  -2.8445  -2.7611
    -2.6436  -2.5820  -2.5005  -2.4790  -2.3837  -2.1683  -2.1560  -2.0899
    -2.0065  -1.9535  -1.7009  -1.6844  -1.6039  -1.5776  -1.4464  -1.4101
    -1.3163  -1.2752  -1.2322  -1.2097  -1.0249  -0.8290  -0.7945  -0.7893
    -0.6330  -0.5395  -0.4573  -0.2735  -0.1449  -0.1022   0.1024   0.2083
     0.3053   0.4421   0.5011   0.5195   0.5690   0.8493   1.1606   1.2473
     1.4406   1.7688   1.9653   3.4453

          k = 0.0302-0.0519 0.0000 ( 30468 PWs)   bands (ev):

    -6.9141  -5.4489  -5.2590  -5.1494  -5.0400  -4.8937  -4.7273  -4.7151
    -4.6104  -4.5337  -4.5313  -4.4261  -4.1163  -4.0301  -3.8822  -3.4634
    -3.3019  -3.2240  -3.2088  -2.9802  -2.8905  -2.8895  -2.7688  -2.7253
    -2.6312  -2.5284  -2.5175  -2.3922  -2.2930  -2.1782  -2.1164  -1.9992
    -1.9857  -1.8962  -1.7421  -1.5005  -1.4450  -1.3475  -1.3119  -1.1598
    -1.1424  -1.0087  -0.9621  -0.9427  -0.8146  -0.7080  -0.6909  -0.5428
    -0.4849  -0.3256  -0.1916  -0.1117  -0.1057  -0.0352   0.1708   0.3030
     0.4091   0.5559   0.5805   0.5996   0.6731   1.1215   1.1978   1.4076
     1.4629   1.8235   1.8801   3.1805

          k = 0.0302-0.0346 0.0000 ( 30497 PWs)   bands (ev):

    -7.1565  -5.5700  -5.3950  -5.3370  -5.2146  -5.0205  -4.8905  -4.8558
    -4.7580  -4.6645  -4.6332  -4.5836  -4.3096  -4.1527  -4.1235  -3.4287
    -3.2937  -3.2244  -3.0828  -2.9364  -2.8704  -2.8174  -2.8008  -2.7553
    -2.5621  -2.5385  -2.3597  -2.3261  -2.2821  -2.2235  -2.1340  -1.9443
    -1.8945  -1.8734  -1.7299  -1.3420  -1.3304  -1.1751  -1.1464  -1.0628
    -0.9495  -0.9269  -0.7857  -0.6676  -0.5453  -0.5148  -0.3748  -0.3063
    -0.2597  -0.0766  -0.0248   0.0889   0.1503   0.1787   0.2089   0.4721
     0.5315   0.6143   0.6478   0.7409   0.7936   0.9711   1.0423   1.3604
     1.8313   1.8972   2.5419   2.7563

          k = 0.0302-0.0173 0.0000 ( 30498 PWs)   bands (ev):

    -7.3102  -5.6801  -5.4664  -5.4550  -5.3434  -5.0960  -5.0023  -4.9379
    -4.8617  -4.7256  -4.6928  -4.6864  -4.4134  -4.3105  -4.2294  -3.4066
    -3.3184  -3.2380  -3.0083  -2.9316  -2.9043  -2.8514  -2.8036  -2.6728
    -2.5691  -2.4340  -2.3522  -2.2894  -2.2738  -2.2094  -2.1876  -2.0184
    -1.8190  -1.7959  -1.6319  -1.2902  -1.2040  -1.0782  -1.0274  -1.0027
    -0.8390  -0.7884  -0.6657  -0.6209  -0.3426  -0.3190  -0.3075  -0.2067
    -0.0925   0.0791   0.2280   0.2478   0.3082   0.4274   0.4577   0.6137
     0.6347   0.6408   0.7634   0.7880   0.8307   0.9766   1.0603   1.2938
     1.9985   2.2007   2.5578   2.6754

          k = 0.0302-0.0000 0.0000 ( 30515 PWs)   bands (ev):

    -7.3628  -5.7220  -5.4959  -5.4827  -5.3963  -5.1210  -5.0406  -4.9649
    -4.8989  -4.7418  -4.7225  -4.7126  -4.4299  -4.3959  -4.2554  -3.4002
    -3.3268  -3.2450  -3.0159  -2.9209  -2.9050  -2.8687  -2.8058  -2.6402
    -2.5672  -2.3477  -2.3378  -2.3147  -2.3111  -2.2013  -2.1882  -2.0653
    -1.7702  -1.7648  -1.6028  -1.2798  -1.1530  -1.0573  -0.9933  -0.9797
    -0.7944  -0.7121  -0.6306  -0.5290  -0.3976  -0.3168  -0.2830  -0.1377
     0.0511   0.1454   0.2981   0.3585   0.3823   0.4875   0.5007   0.5808
     0.5948   0.6399   0.7069   0.8008   1.0136   1.1089   1.1707   1.5358
     1.8286   2.0727   2.5701   2.6823

          k = 0.0452 0.0259 0.0000 ( 30504 PWs)   bands (ev):

    -7.0337  -5.4360  -5.4135  -5.2111  -5.1734  -4.8813  -4.8690  -4.7979
    -4.7258  -4.6305  -4.5607  -4.5558  -4.2870  -4.0749  -4.0017  -3.4060
    -3.3360  -3.1891  -3.1389  -2.9356  -2.8481  -2.8071  -2.7974  -2.7754
    -2.5396  -2.5247  -2.3369  -2.3016  -2.2535  -2.2242  -2.1209  -1.9624
    -1.9577  -1.8405  -1.8222  -1.4675  -1.3256  -1.2081  -1.2078  -1.1347
    -0.9920  -0.9672  -0.8630  -0.7949  -0.6928  -0.6069  -0.4791  -0.3538
    -0.3311  -0.2290  -0.1178   0.0596   0.1201   0.1699   0.1970   0.3214
     0.4472   0.4560   0.5408   0.6095   0.7372   0.8840   0.9636   1.1569
     1.2143   2.6695   2.6747   3.0108

          k = 0.0452 0.0432 0.0000 ( 30485 PWs)   bands (ev):

    -6.8413  -5.3842  -5.2940  -5.0725  -5.0321  -4.7814  -4.7381  -4.7014
    -4.6289  -4.5097  -4.4821  -4.4202  -4.1668  -3.9075  -3.8603  -3.4442
    -3.3087  -3.2625  -3.1745  -3.0132  -2.8670  -2.8340  -2.7456  -2.7363
    -2.6125  -2.6095  -2.3965  -2.3893  -2.2946  -2.1879  -2.0860  -2.0181
    -1.9935  -1.9259  -1.7517  -1.5173  -1.4812  -1.3726  -1.3580  -1.2022
    -1.1502  -1.0549  -1.0137  -0.9224  -0.8343  -0.8109  -0.7385  -0.5116
    -0.4762  -0.2926  -0.2222  -0.1966  -0.1313   0.0159   0.0364   0.2728
     0.4017   0.4683   0.4920   0.5826   0.6150   0.7935   1.0332   1.1266
     1.3983   2.0619   2.7217   3.3913

          k = 0.0452 0.0605 0.0000 ( 30461 PWs)   bands (ev):

    -6.5729  -5.2847  -5.2076  -4.8734  -4.8592  -4.6328  -4.5844  -4.5501
    -4.4908  -4.3670  -4.3187  -4.2357  -3.9665  -3.7767  -3.7327  -3.4414
    -3.3927  -3.2747  -3.1987  -3.1169  -2.9598  -2.9244  -2.8482  -2.6998
    -2.6380  -2.5769  -2.5522  -2.5017  -2.3881  -2.2019  -2.1255  -2.0608
    -1.9955  -1.9739  -1.7250  -1.6635  -1.6561  -1.5322  -1.4659  -1.4079
    -1.3270  -1.2920  -1.2497  -1.1373  -1.0334  -0.8273  -0.7948  -0.7007
    -0.6357  -0.5230  -0.4373  -0.2514  -0.2059  -0.1136   0.0859   0.1334
     0.3797   0.4691   0.4950   0.5144   0.6067   0.6432   1.1125   1.1398
     1.3444   1.8242   1.9489   3.4743

          k = 0.0452 0.0778 0.0000 ( 30424 PWs)   bands (ev):

    -6.2634  -5.2279  -5.1643  -4.6707  -4.6475  -4.4603  -4.4421  -4.3420
    -4.2999  -4.2222  -4.1543  -3.9981  -3.8604  -3.6460  -3.6364  -3.6240
    -3.3721  -3.3617  -3.2098  -3.2026  -3.0059  -2.9937  -2.9672  -2.8557
    -2.6351  -2.6324  -2.5509  -2.5504  -2.4489  -2.2936  -2.2323  -2.2005
    -2.1680  -1.9880  -1.9202  -1.8155  -1.8037  -1.7070  -1.6404  -1.6079
    -1.5990  -1.3813  -1.2120  -1.1271  -0.9673  -0.9275  -0.8411  -0.8113
    -0.6778  -0.6581  -0.4789  -0.2789  -0.2401  -0.1799  -0.0026   0.1553
     0.3305   0.4004   0.4216   0.4626   0.4996   0.6986   0.8805   1.1397
     1.1871   1.2496   2.1773   3.4293

          k = 0.0452 0.0951 0.0000 ( 30440 PWs)   bands (ev):

    -5.9995  -5.3329  -5.0758  -4.5205  -4.4859  -4.3372  -4.3264  -4.1389
    -4.1358  -4.0710  -4.0420  -3.9488  -3.7949  -3.7854  -3.6075  -3.6046
    -3.5100  -3.3612  -3.2620  -3.2560  -2.9511  -2.9491  -2.8834  -2.8691
    -2.7513  -2.6933  -2.6767  -2.6223  -2.5865  -2.4764  -2.3997  -2.2646
    -2.1680  -2.1041  -1.9979  -1.9872  -1.8310  -1.8037  -1.7764  -1.7645
    -1.5326  -1.4216  -1.2091  -1.0837  -1.0257  -0.9007  -0.8292  -0.7709
    -0.7461  -0.6581  -0.3745  -0.2344  -0.2259  -0.2119  -0.0976   0.1112
     0.2721   0.3193   0.3835   0.3891   0.5216   0.5700   0.7485   0.7572
     1.1486   1.2181   2.5680   3.1353

          k = 0.0452 0.1124 0.0000 ( 30440 PWs)   bands (ev):

    -5.9995  -5.3329  -5.0758  -4.5205  -4.4859  -4.3372  -4.3264  -4.1389
    -4.1358  -4.0710  -4.0420  -3.9488  -3.7949  -3.7854  -3.6075  -3.6046
    -3.5100  -3.3612  -3.2620  -3.2560  -2.9511  -2.9492  -2.8834  -2.8691
    -2.7513  -2.6933  -2.6767  -2.6223  -2.5865  -2.4764  -2.3997  -2.2646
    -2.1680  -2.1041  -1.9980  -1.9872  -1.8310  -1.8037  -1.7764  -1.7645
    -1.5326  -1.4216  -1.2091  -1.0837  -1.0257  -0.9007  -0.8292  -0.7709
    -0.7461  -0.6581  -0.3745  -0.2345  -0.2259  -0.2119  -0.0976   0.1112
     0.2721   0.3193   0.3835   0.3891   0.5216   0.5700   0.7485   0.7572
     1.1486   1.2181   2.5680   3.1353

          k = 0.0452-0.0778 0.0000 ( 30424 PWs)   bands (ev):

    -6.2634  -5.2279  -5.1643  -4.6707  -4.6475  -4.4603  -4.4421  -4.3420
    -4.2999  -4.2222  -4.1543  -3.9981  -3.8604  -3.6460  -3.6364  -3.6240
    -3.3721  -3.3617  -3.2098  -3.2026  -3.0059  -2.9937  -2.9672  -2.8557
    -2.6351  -2.6324  -2.5509  -2.5504  -2.4489  -2.2936  -2.2323  -2.2005
    -2.1680  -1.9880  -1.9203  -1.8155  -1.8037  -1.7070  -1.6405  -1.6079
    -1.5989  -1.3813  -1.2120  -1.1271  -0.9673  -0.9275  -0.8411  -0.8113
    -0.6779  -0.6581  -0.4789  -0.2789  -0.2401  -0.1800  -0.0026   0.1553
     0.3305   0.4004   0.4216   0.4626   0.4996   0.6986   0.8805   1.1397
     1.1871   1.2496   2.1772   3.4293

          k = 0.0452-0.0605 0.0000 ( 30461 PWs)   bands (ev):

    -6.5729  -5.2848  -5.2076  -4.8734  -4.8592  -4.6328  -4.5844  -4.5501
    -4.4908  -4.3670  -4.3187  -4.2357  -3.9665  -3.7768  -3.7327  -3.4414
    -3.3927  -3.2747  -3.1987  -3.1169  -2.9598  -2.9244  -2.8483  -2.6998
    -2.6380  -2.5768  -2.5522  -2.5017  -2.3880  -2.2019  -2.1255  -2.0608
    -1.9956  -1.9739  -1.7249  -1.6635  -1.6561  -1.5322  -1.4659  -1.4078
    -1.3270  -1.2920  -1.2497  -1.1373  -1.0334  -0.8273  -0.7948  -0.7007
    -0.6357  -0.5230  -0.4373  -0.2514  -0.2059  -0.1136   0.0859   0.1335
     0.3797   0.4691   0.4950   0.5144   0.6066   0.6431   1.1125   1.1398
     1.3444   1.8242   1.9489   3.4742

          k = 0.0452-0.0432 0.0000 ( 30485 PWs)   bands (ev):

    -6.8413  -5.3842  -5.2940  -5.0725  -5.0321  -4.7814  -4.7381  -4.7014
    -4.6289  -4.5097  -4.4821  -4.4202  -4.1668  -3.9075  -3.8603  -3.4442
    -3.3087  -3.2625  -3.1745  -3.0132  -2.8670  -2.8340  -2.7456  -2.7362
    -2.6125  -2.6095  -2.3965  -2.3893  -2.2946  -2.1879  -2.0860  -2.0181
    -1.9936  -1.9259  -1.7517  -1.5173  -1.4812  -1.3726  -1.3580  -1.2022
    -1.1502  -1.0549  -1.0138  -0.9224  -0.8342  -0.8109  -0.7385  -0.5116
    -0.4762  -0.2926  -0.2222  -0.1966  -0.1313   0.0159   0.0364   0.2728
     0.4017   0.4683   0.4920   0.5827   0.6150   0.7935   1.0332   1.1267
     1.3983   2.0619   2.7217   3.3912

          k = 0.0452-0.0259 0.0000 ( 30504 PWs)   bands (ev):

    -7.0337  -5.4360  -5.4135  -5.2111  -5.1734  -4.8813  -4.8690  -4.7979
    -4.7258  -4.6305  -4.5607  -4.5558  -4.2871  -4.0749  -4.0017  -3.4060
    -3.3360  -3.1891  -3.1389  -2.9356  -2.8482  -2.8071  -2.7973  -2.7754
    -2.5396  -2.5247  -2.3369  -2.3016  -2.2536  -2.2242  -2.1209  -1.9624
    -1.9577  -1.8405  -1.8223  -1.4675  -1.3256  -1.2081  -1.2077  -1.1347
    -0.9920  -0.9672  -0.8630  -0.7949  -0.6928  -0.6069  -0.4791  -0.3538
    -0.3311  -0.2290  -0.1178   0.0596   0.1201   0.1699   0.1970   0.3214
     0.4472   0.4560   0.5408   0.6095   0.7372   0.8840   0.9636   1.1569
     1.2143   2.6694   2.6747   3.0107

          k = 0.0452-0.0086 0.0000 ( 30492 PWs)   bands (ev):

    -7.1334  -5.4884  -5.4417  -5.2839  -5.2689  -4.9388  -4.9314  -4.8445
    -4.7850  -4.6755  -4.6387  -4.5915  -4.3163  -4.2332  -4.0505  -3.3790
    -3.3508  -3.2091  -3.0767  -2.9334  -2.8658  -2.8278  -2.7917  -2.7662
    -2.4847  -2.4084  -2.3933  -2.2758  -2.2711  -2.2276  -2.1677  -1.9360
    -1.8996  -1.8567  -1.7646  -1.4397  -1.2235  -1.1315  -1.1202  -1.0799
    -0.9294  -0.9045  -0.7598  -0.7528  -0.6079  -0.5975  -0.3733  -0.2611
    -0.1999  -0.1428  -0.0323   0.1218   0.2036   0.2738   0.2997   0.4372
     0.4444   0.5465   0.5849   0.7679   0.8604   0.9152   1.0087   1.0477
     1.6284   1.9651   2.6122   2.6340

          k = 0.0452 0.0086 0.0000 ( 30492 PWs)   bands (ev):

    -7.1334  -5.4884  -5.4417  -5.2839  -5.2689  -4.9388  -4.9314  -4.8445
    -4.7850  -4.6755  -4.6387  -4.5915  -4.3163  -4.2332  -4.0505  -3.3790
    -3.3508  -3.2091  -3.0767  -2.9334  -2.8657  -2.8279  -2.7917  -2.7662
    -2.4847  -2.4084  -2.3933  -2.2757  -2.2711  -2.2276  -2.1677  -1.9360
    -1.8996  -1.8567  -1.7646  -1.4397  -1.2235  -1.1315  -1.1203  -1.0798
    -0.9294  -0.9045  -0.7598  -0.7528  -0.6079  -0.5975  -0.3733  -0.2611
    -0.1999  -0.1427  -0.0323   0.1218   0.2036   0.2738   0.2997   0.4372
     0.4444   0.5465   0.5849   0.7679   0.8604   0.9152   1.0087   1.0477
     1.6284   1.9650   2.6122   2.6340

          k = 0.0603 0.0346 0.0000 ( 30447 PWs)   bands (ev):

    -6.6770  -5.4664  -5.0994  -4.9845  -4.9246  -4.7042  -4.6590  -4.6037
    -4.5955  -4.4574  -4.3920  -4.3746  -4.1219  -3.7964  -3.7352  -3.4078
    -3.3723  -3.3241  -3.1317  -3.0986  -2.9101  -2.7916  -2.7534  -2.7216
    -2.6525  -2.5354  -2.3990  -2.2881  -2.2776  -2.1740  -2.1068  -2.0867
    -1.9955  -1.9474  -1.7352  -1.5827  -1.5171  -1.4602  -1.4027  -1.3036
    -1.2976  -1.2121  -1.1495  -1.0127  -0.9812  -0.8957  -0.8294  -0.5146
    -0.4552  -0.3555  -0.3358  -0.2918  -0.2069  -0.0741   0.0182   0.0583
     0.1361   0.3188   0.3205   0.4958   0.6055   0.6646   0.8813   0.9415
     1.5427   2.7101   2.8638   3.4530

          k = 0.0603 0.0519 0.0000 ( 30417 PWs)   bands (ev):

    -6.4617  -5.4683  -5.0039  -4.8546  -4.7980  -4.5793  -4.5573  -4.5101
    -4.4940  -4.3088  -4.2879  -4.2213  -3.9919  -3.6941  -3.6499  -3.4432
    -3.3527  -3.3203  -3.2063  -3.1459  -2.9978  -2.9174  -2.7810  -2.7309
    -2.5684  -2.5463  -2.4852  -2.4240  -2.3602  -2.2155  -2.1629  -2.0263
    -1.9920  -1.9366  -1.7650  -1.7054  -1.6735  -1.6050  -1.5364  -1.5034
    -1.4202  -1.3810  -1.2925  -1.1504  -1.0309  -0.8783  -0.8337  -0.6614
    -0.5711  -0.5432  -0.4216  -0.3413  -0.2285  -0.1989  -0.0195  -0.0189
     0.0654   0.2833   0.3645   0.4825   0.5768   0.5770   0.7979   0.9557
     1.7499   2.2212   2.8380   3.0222

          k = 0.0603 0.0692 0.0000 ( 30445 PWs)   bands (ev):

    -6.1869  -5.4398  -4.9828  -4.6903  -4.6261  -4.4505  -4.4245  -4.3615
    -4.3455  -4.1750  -4.1575  -4.0023  -3.8277  -3.7343  -3.6064  -3.5525
    -3.3473  -3.3212  -3.2709  -3.1822  -3.0549  -3.0010  -2.8423  -2.7739
    -2.6503  -2.5713  -2.4946  -2.4883  -2.4604  -2.3005  -2.2357  -2.2023
    -2.1398  -1.9313  -1.8880  -1.8751  -1.8087  -1.7538  -1.7210  -1.6274
    -1.5875  -1.4415  -1.3081  -1.0920  -0.9263  -0.8699  -0.8558  -0.7732
    -0.6348  -0.6340  -0.4592  -0.3648  -0.2553  -0.2339  -0.0836   0.0476
     0.1204   0.2498   0.3858   0.4700   0.5072   0.5347   0.6496   0.9378
     1.4226   2.0070   2.2600   2.9454

          k = 0.0603 0.0865 0.0000 ( 30435 PWs)   bands (ev):

    -5.8998  -5.4031  -5.0730  -4.5134  -4.4504  -4.3156  -4.2620  -4.1972
    -4.1822  -4.0826  -4.0122  -3.9792  -3.7722  -3.7376  -3.6695  -3.5297
    -3.4871  -3.3656  -3.2842  -3.2382  -3.0164  -2.9244  -2.8380  -2.8127
    -2.7976  -2.6788  -2.6654  -2.6109  -2.5726  -2.5157  -2.3184  -2.2603
    -2.1927  -2.0665  -1.9817  -1.9230  -1.9024  -1.8920  -1.8656  -1.7332
    -1.4890  -1.4855  -1.1623  -1.0963  -1.0226  -0.8632  -0.7772  -0.7094
    -0.7009  -0.5425  -0.3866  -0.3431  -0.2710  -0.1286  -0.1192   0.1031
     0.1672   0.2216   0.3765   0.3946   0.4197   0.5315   0.5651   0.9072
     0.9168   1.3013   2.6226   2.8802

          k = 0.0603 0.1037 0.0000 ( 30468 PWs)   bands (ev):

    -5.7427  -5.3863  -5.1626  -4.4221  -4.3712  -4.1964  -4.1802  -4.1289
    -4.0872  -4.0735  -3.9664  -3.9212  -3.8971  -3.8400  -3.7658  -3.5083
    -3.4268  -3.2985  -3.1786  -3.1486  -3.0382  -3.0308  -2.9466  -2.9122
    -2.8265  -2.8220  -2.7564  -2.6417  -2.5988  -2.5256  -2.4057  -2.1801
    -2.1731  -2.0638  -2.0428  -2.0210  -1.9567  -1.9207  -1.8869  -1.7839
    -1.5041  -1.4169  -1.2017  -1.0322  -0.9949  -0.8932  -0.7751  -0.6941
    -0.6901  -0.5495  -0.4044  -0.2711  -0.1496  -0.0952  -0.0327   0.1498
     0.1857   0.2085   0.3255   0.3554   0.3620   0.5076   0.5793   0.7779
     0.8489   0.8930   2.8584   2.9533

          k = 0.0603 0.1210 0.0000 ( 30437 PWs)   bands (ev):

    -5.8999  -5.4031  -5.0730  -4.5134  -4.4504  -4.3156  -4.2620  -4.1972
    -4.1822  -4.0826  -4.0122  -3.9792  -3.7722  -3.7376  -3.6695  -3.5297
    -3.4871  -3.3656  -3.2842  -3.2382  -3.0164  -2.9244  -2.8380  -2.8127
    -2.7976  -2.6788  -2.6654  -2.6108  -2.5726  -2.5156  -2.3184  -2.2603
    -2.1927  -2.0665  -1.9817  -1.9231  -1.9024  -1.8920  -1.8656  -1.7332
    -1.4890  -1.4855  -1.1623  -1.0963  -1.0226  -0.8632  -0.7772  -0.7094
    -0.7009  -0.5426  -0.3866  -0.3431  -0.2710  -0.1286  -0.1192   0.1031
     0.1672   0.2216   0.3765   0.3946   0.4197   0.5315   0.5651   0.9072
     0.9168   1.3013   2.6226   2.8802

          k = 0.0603-0.0692 0.0000 ( 30445 PWs)   bands (ev):

    -6.1869  -5.4398  -4.9828  -4.6903  -4.6261  -4.4505  -4.4245  -4.3616
    -4.3455  -4.1750  -4.1575  -4.0023  -3.8277  -3.7343  -3.6064  -3.5525
    -3.3473  -3.3212  -3.2709  -3.1822  -3.0549  -3.0009  -2.8422  -2.7739
    -2.6503  -2.5713  -2.4946  -2.4883  -2.4604  -2.3005  -2.2357  -2.2023
    -2.1398  -1.9313  -1.8880  -1.8751  -1.8087  -1.7538  -1.7210  -1.6274
    -1.5875  -1.4415  -1.3081  -1.0920  -0.9263  -0.8699  -0.8558  -0.7732
    -0.6349  -0.6341  -0.4592  -0.3648  -0.2553  -0.2339  -0.0836   0.0476
     0.1204   0.2497   0.3858   0.4700   0.5071   0.5347   0.6496   0.9378
     1.4226   2.0070   2.2599   2.9454

          k = 0.0603-0.0519 0.0000 ( 30417 PWs)   bands (ev):

    -6.4617  -5.4683  -5.0039  -4.8546  -4.7980  -4.5793  -4.5573  -4.5101
    -4.4940  -4.3088  -4.2879  -4.2213  -3.9919  -3.6941  -3.6499  -3.4431
    -3.3527  -3.3203  -3.2063  -3.1460  -2.9977  -2.9174  -2.7810  -2.7309
    -2.5683  -2.5463  -2.4852  -2.4239  -2.3602  -2.2155  -2.1629  -2.0263
    -1.9921  -1.9366  -1.7650  -1.7054  -1.6735  -1.6051  -1.5364  -1.5034
    -1.4202  -1.3810  -1.2924  -1.1504  -1.0309  -0.8783  -0.8337  -0.6614
    -0.5712  -0.5432  -0.4216  -0.3413  -0.2285  -0.1989  -0.0195  -0.0189
     0.0654   0.2833   0.3645   0.4825   0.5768   0.5770   0.7979   0.9557
     1.7499   2.2212   2.8381   3.0222

          k = 0.0603-0.0346 0.0000 ( 30447 PWs)   bands (ev):

    -6.6771  -5.4664  -5.0994  -4.9845  -4.9246  -4.7042  -4.6590  -4.6037
    -4.5955  -4.4574  -4.3920  -4.3746  -4.1219  -3.7964  -3.7352  -3.4078
    -3.3723  -3.3241  -3.1318  -3.0986  -2.9101  -2.7916  -2.7534  -2.7216
    -2.6525  -2.5354  -2.3990  -2.2881  -2.2776  -2.1740  -2.1068  -2.0867
    -1.9955  -1.9474  -1.7352  -1.5826  -1.5171  -1.4602  -1.4027  -1.3036
    -1.2976  -1.2121  -1.1495  -1.0127  -0.9812  -0.8957  -0.8294  -0.5146
    -0.4553  -0.3555  -0.3358  -0.2918  -0.2069  -0.0741   0.0182   0.0583
     0.1361   0.3188   0.3205   0.4958   0.6055   0.6646   0.8813   0.9415
     1.5427   2.7101   2.8638   3.4530

          k = 0.0603-0.0173 0.0000 ( 30444 PWs)   bands (ev):

    -6.8125  -5.4309  -5.1829  -5.0908  -5.0072  -4.7939  -4.7263  -4.6504
    -4.6481  -4.5595  -4.5055  -4.4214  -4.1688  -3.9799  -3.7955  -3.4011
    -3.3728  -3.2572  -3.1606  -2.9985  -2.8612  -2.8334  -2.7879  -2.7200
    -2.6079  -2.4657  -2.3469  -2.2859  -2.2326  -2.2058  -2.1014  -2.0948
    -2.0191  -1.9454  -1.6792  -1.5590  -1.3920  -1.3506  -1.3129  -1.1888
    -1.1442  -1.1045  -1.0940  -0.9549  -0.8609  -0.8005  -0.7844  -0.5455
    -0.4506  -0.3161  -0.2373  -0.1888  -0.0119   0.0796   0.0841   0.2129
     0.2577   0.2819   0.4856   0.5862   0.6216   0.7442   0.8984   1.0932
     1.3614   1.9773   2.7135   3.2285

          k = 0.0603-0.0000 0.0000 ( 30501 PWs)   bands (ev):

    -6.8586  -5.4006  -5.2137  -5.1463  -5.0364  -4.8212  -4.7497  -4.6666
    -4.6648  -4.5945  -4.5459  -4.4360  -4.1405  -4.0948  -3.8167  -3.4120
    -3.3502  -3.2362  -3.1811  -2.9278  -2.8868  -2.8527  -2.8010  -2.7378
    -2.5764  -2.3577  -2.3304  -2.3251  -2.3124  -2.2195  -2.0941  -2.0615
    -2.0429  -1.9179  -1.6656  -1.5506  -1.3441  -1.3101  -1.2468  -1.1964
    -1.0755  -1.0754  -1.0573  -0.8824  -0.8595  -0.7702  -0.7676  -0.6151
    -0.4417  -0.3078  -0.1616  -0.1266  -0.0105   0.1274   0.1521   0.2455
     0.2907   0.3200   0.5594   0.5725   0.6756   0.8908   1.0599   1.2242
     1.2942   1.8506   1.8953   3.1680

          k = 0.0603 0.0173 0.0000 ( 30444 PWs)   bands (ev):

    -6.8125  -5.4309  -5.1829  -5.0908  -5.0072  -4.7939  -4.7263  -4.6504
    -4.6481  -4.5595  -4.5055  -4.4214  -4.1688  -3.9799  -3.7955  -3.4011
    -3.3728  -3.2572  -3.1606  -2.9985  -2.8612  -2.8334  -2.7879  -2.7200
    -2.6078  -2.4657  -2.3469  -2.2859  -2.2326  -2.2058  -2.1014  -2.0948
    -2.0190  -1.9454  -1.6792  -1.5590  -1.3920  -1.3506  -1.3129  -1.1888
    -1.1442  -1.1045  -1.0940  -0.9549  -0.8609  -0.8006  -0.7844  -0.5455
    -0.4506  -0.3161  -0.2373  -0.1888  -0.0119   0.0796   0.0841   0.2129
     0.2577   0.2819   0.4856   0.5862   0.6216   0.7442   0.8984   1.0932
     1.3614   1.9773   2.7136   3.2285

          k = 0.0754 0.0432 0.0000 ( 30433 PWs)   bands (ev):

    -6.2794  -5.6154  -4.8405  -4.8255  -4.6612  -4.5530  -4.5191  -4.5060
    -4.3592  -4.3015  -4.1710  -4.1595  -3.9265  -3.6334  -3.6126  -3.5093
    -3.3252  -3.2911  -3.2086  -3.1491  -3.0906  -2.9987  -2.7688  -2.7052
    -2.5199  -2.4293  -2.4292  -2.3564  -2.3424  -2.1962  -2.1742  -2.0237
    -1.9989  -1.9016  -1.8183  -1.7777  -1.7577  -1.7420  -1.7253  -1.6090
    -1.6016  -1.3903  -1.3286  -1.1279  -1.0202  -0.9804  -0.8560  -0.7587
    -0.6186  -0.5408  -0.4845  -0.4034  -0.3547  -0.3135  -0.2787  -0.1636
     0.0080   0.2280   0.2396   0.2570   0.6062   0.6154   0.8778   0.8868
     1.9412   2.6103   2.9642   3.1911

          k = 0.0754 0.0605 0.0000 ( 30445 PWs)   bands (ev):

    -6.0670  -5.6904  -4.8076  -4.7246  -4.6016  -4.4611  -4.4604  -4.4208
    -4.2858  -4.2229  -4.0739  -4.0061  -3.7949  -3.6831  -3.6334  -3.5753
    -3.3661  -3.2910  -3.2050  -3.1717  -3.1308  -3.0262  -2.7375  -2.7250
    -2.5319  -2.4754  -2.4112  -2.3874  -2.3839  -2.2397  -2.2218  -2.1346
    -2.0729  -1.9604  -1.9587  -1.9060  -1.8956  -1.8170  -1.8033  -1.7093
    -1.4962  -1.4947  -1.4020  -1.0460  -1.0200  -0.8514  -0.8176  -0.7613
    -0.7127  -0.5853  -0.5513  -0.4339  -0.3998  -0.3490  -0.2676  -0.2151
     0.0204   0.1377   0.2536   0.2871   0.5723   0.5829   0.7988   0.8925
     1.9846   2.4638   2.5941   2.9000

          k = 0.0754 0.0778 0.0000 ( 30475 PWs)   bands (ev):

    -5.8168  -5.7338  -4.8585  -4.5906  -4.5045  -4.3844  -4.3706  -4.3051
    -4.2206  -4.1699  -3.9870  -3.8946  -3.7937  -3.7260  -3.6090  -3.6020
    -3.4520  -3.4429  -3.2243  -3.1474  -3.1268  -2.8647  -2.8026  -2.7326
    -2.6265  -2.6096  -2.5726  -2.5023  -2.4262  -2.3528  -2.2966  -2.2326
    -2.1685  -2.0607  -2.0008  -1.9640  -1.9295  -1.9067  -1.7961  -1.7016
    -1.5753  -1.4220  -1.2307  -1.0672  -1.0494  -0.8318  -0.7730  -0.7629
    -0.6309  -0.5974  -0.4388  -0.4033  -0.3556  -0.3095  -0.2282  -0.1249
     0.0709   0.0823   0.2652   0.3303   0.5073   0.5176   0.6684   0.8441
     1.4501   2.0347   2.4786   2.7091

          k = 0.0754 0.0951 0.0000 ( 30476 PWs)   bands (ev):

    -5.7523  -5.5975  -4.9782  -4.4669  -4.4001  -4.2960  -4.2914  -4.2189
    -4.2172  -4.1212  -4.0247  -3.9869  -3.7833  -3.7241  -3.6369  -3.5722
    -3.4637  -3.3454  -3.2461  -3.1984  -3.0866  -2.9538  -2.8642  -2.7603
    -2.7206  -2.6866  -2.6843  -2.6045  -2.4676  -2.4568  -2.3459  -2.2315
    -2.1295  -2.1228  -2.0563  -1.9736  -1.9314  -1.8808  -1.8314  -1.7280
    -1.5900  -1.3427  -1.1528  -1.0491  -1.0282  -0.9050  -0.7495  -0.7246
    -0.6396  -0.6075  -0.3880  -0.3661  -0.2762  -0.2390  -0.0435   0.0318
     0.1063   0.2162   0.2781   0.3663   0.4008   0.4522   0.6424   0.7925
     0.9863   1.3178   2.4163   3.1062

          k = 0.0754 0.1124 0.0000 ( 30476 PWs)   bands (ev):

    -5.7523  -5.5975  -4.9782  -4.4669  -4.4001  -4.2960  -4.2914  -4.2189
    -4.2172  -4.1212  -4.0247  -3.9869  -3.7833  -3.7241  -3.6369  -3.5722
    -3.4638  -3.3454  -3.2461  -3.1984  -3.0866  -2.9538  -2.8642  -2.7603
    -2.7206  -2.6866  -2.6844  -2.6045  -2.4676  -2.4568  -2.3459  -2.2315
    -2.1295  -2.1229  -2.0563  -1.9736  -1.9313  -1.8808  -1.8314  -1.7280
    -1.5900  -1.3427  -1.1528  -1.0491  -1.0282  -0.9050  -0.7495  -0.7246
    -0.6396  -0.6075  -0.3880  -0.3661  -0.2762  -0.2390  -0.0435   0.0318
     0.1063   0.2162   0.2781   0.3663   0.4008   0.4522   0.6424   0.7925
     0.9863   1.3178   2.4163   3.1062

          k = 0.0754 0.1297 0.0000 ( 30475 PWs)   bands (ev):

    -5.8168  -5.7338  -4.8585  -4.5906  -4.5045  -4.3844  -4.3706  -4.3051
    -4.2206  -4.1699  -3.9870  -3.8946  -3.7937  -3.7260  -3.6090  -3.6020
    -3.4520  -3.4429  -3.2242  -3.1474  -3.1268  -2.8647  -2.8026  -2.7326
    -2.6265  -2.6096  -2.5726  -2.5023  -2.4262  -2.3528  -2.2966  -2.2326
    -2.1686  -2.0607  -2.0007  -1.9640  -1.9295  -1.9067  -1.7962  -1.7017
    -1.5753  -1.4220  -1.2307  -1.0672  -1.0494  -0.8318  -0.7730  -0.7629
    -0.6309  -0.5974  -0.4389  -0.4033  -0.3556  -0.3095  -0.2282  -0.1249
     0.0709   0.0823   0.2652   0.3303   0.5072   0.5176   0.6684   0.8441
     1.4501   2.0347   2.4786   2.7090

          k = 0.0754-0.0605 0.0000 ( 30445 PWs)   bands (ev):

    -6.0670  -5.6904  -4.8076  -4.7246  -4.6016  -4.4611  -4.4604  -4.4208
    -4.2858  -4.2229  -4.0739  -4.0061  -3.7949  -3.6830  -3.6333  -3.5753
    -3.3660  -3.2910  -3.2050  -3.1717  -3.1308  -3.0262  -2.7375  -2.7249
    -2.5319  -2.4754  -2.4112  -2.3874  -2.3839  -2.2397  -2.2217  -2.1346
    -2.0729  -1.9604  -1.9587  -1.9060  -1.8956  -1.8170  -1.8033  -1.7093
    -1.4962  -1.4947  -1.4020  -1.0460  -1.0200  -0.8514  -0.8176  -0.7613
    -0.7127  -0.5853  -0.5513  -0.4339  -0.3997  -0.3490  -0.2676  -0.2151
     0.0204   0.1377   0.2536   0.2871   0.5723   0.5829   0.7988   0.8925
     1.9845   2.4638   2.5941   2.9000

          k = 0.0754-0.0432 0.0000 ( 30433 PWs)   bands (ev):

    -6.2794  -5.6154  -4.8405  -4.8255  -4.6612  -4.5530  -4.5191  -4.5060
    -4.3592  -4.3015  -4.1710  -4.1595  -3.9265  -3.6334  -3.6126  -3.5093
    -3.3252  -3.2911  -3.2086  -3.1491  -3.0906  -2.9987  -2.7688  -2.7052
    -2.5199  -2.4293  -2.4292  -2.3563  -2.3424  -2.1961  -2.1742  -2.0238
    -1.9989  -1.9016  -1.8183  -1.7777  -1.7577  -1.7421  -1.7254  -1.6091
    -1.6016  -1.3903  -1.3286  -1.1279  -1.0202  -0.9804  -0.8560  -0.7587
    -0.6186  -0.5408  -0.4845  -0.4034  -0.3547  -0.3135  -0.2787  -0.1636
     0.0080   0.2280   0.2396   0.2570   0.6062   0.6154   0.8778   0.8868
     1.9412   2.6103   2.9642   3.1910

          k = 0.0754-0.0259 0.0000 ( 30458 PWs)   bands (ev):

    -6.4295  -5.5111  -4.9090  -4.8809  -4.7129  -4.6385  -4.5639  -4.5385
    -4.3987  -4.3985  -4.3108  -4.2143  -3.9893  -3.7026  -3.6587  -3.4530
    -3.3560  -3.3274  -3.1792  -3.1337  -3.0235  -2.8499  -2.8054  -2.7673
    -2.5748  -2.4349  -2.4175  -2.3111  -2.3075  -2.2152  -2.2048  -2.1023
    -2.0422  -1.8706  -1.7237  -1.7011  -1.6441  -1.5970  -1.5422  -1.4802
    -1.4642  -1.3540  -1.2157  -1.1788  -1.0758  -0.9528  -0.9029  -0.7208
    -0.5908  -0.5404  -0.4499  -0.3493  -0.2311  -0.2180  -0.0263   0.0572
     0.0610   0.1632   0.2752   0.4037   0.5863   0.6282   0.8431   0.8795
     1.7594   2.0410   2.8041   3.3506

          k = 0.0754-0.0086 0.0000 ( 30486 PWs)   bands (ev):

    -6.5067  -5.4094  -4.9970  -4.9002  -4.7461  -4.6672  -4.5911  -4.5435
    -4.4772  -4.4122  -4.3913  -4.2385  -3.9642  -3.8449  -3.6974  -3.4501
    -3.3401  -3.3217  -3.1666  -3.0961  -2.9611  -2.9013  -2.8339  -2.7324
    -2.6277  -2.3989  -2.3771  -2.3300  -2.2916  -2.2657  -2.2606  -2.1246
    -2.0586  -1.9323  -1.6440  -1.5922  -1.5628  -1.5153  -1.4602  -1.4353
    -1.3765  -1.2879  -1.2736  -1.0989  -1.0735  -0.9429  -0.8538  -0.7274
    -0.6817  -0.6052  -0.4414  -0.2256  -0.1185  -0.0417   0.0554   0.1334
     0.1496   0.2048   0.4878   0.5458   0.5577   0.6586   0.8425   1.0441
     1.4530   1.6568   1.9487   3.7301

          k = 0.0754 0.0086 0.0000 ( 30486 PWs)   bands (ev):

    -6.5067  -5.4094  -4.9970  -4.9002  -4.7461  -4.6672  -4.5911  -4.5435
    -4.4772  -4.4122  -4.3913  -4.2385  -3.9642  -3.8449  -3.6974  -3.4501
    -3.3401  -3.3217  -3.1666  -3.0961  -2.9611  -2.9013  -2.8339  -2.7325
    -2.6277  -2.3990  -2.3771  -2.3300  -2.2916  -2.2657  -2.2606  -2.1246
    -2.0586  -1.9323  -1.6440  -1.5922  -1.5628  -1.5153  -1.4603  -1.4353
    -1.3765  -1.2879  -1.2736  -1.0989  -1.0735  -0.9429  -0.8538  -0.7275
    -0.6817  -0.6052  -0.4414  -0.2256  -0.1185  -0.0417   0.0554   0.1334
     0.1496   0.2048   0.4878   0.5458   0.5577   0.6586   0.8425   1.0441
     1.4530   1.6568   1.9487   3.7301

          k = 0.0754 0.0259 0.0000 ( 30458 PWs)   bands (ev):

    -6.4295  -5.5110  -4.9090  -4.8809  -4.7129  -4.6385  -4.5639  -4.5385
    -4.3987  -4.3986  -4.3108  -4.2143  -3.9893  -3.7026  -3.6587  -3.4530
    -3.3560  -3.3274  -3.1792  -3.1337  -3.0235  -2.8500  -2.8054  -2.7673
    -2.5748  -2.4349  -2.4175  -2.3111  -2.3074  -2.2152  -2.2048  -2.1023
    -2.0422  -1.8706  -1.7237  -1.7011  -1.6441  -1.5970  -1.5422  -1.4802
    -1.4642  -1.3540  -1.2157  -1.1788  -1.0758  -0.9528  -0.9029  -0.7208
    -0.5908  -0.5404  -0.4499  -0.3493  -0.2311  -0.2180  -0.0263   0.0572
     0.0610   0.1632   0.2752   0.4037   0.5863   0.6283   0.8431   0.8795
     1.7594   2.0410   2.8042   3.3506

          k =-0.0905-0.0519 0.0000 ( 30460 PWs)   bands (ev):

    -5.9014  -5.9014  -4.7527  -4.7527  -4.5123  -4.5123  -4.4654  -4.4654
    -4.2580  -4.2579  -4.0179  -4.0179  -3.7158  -3.7158  -3.6236  -3.6236
    -3.3227  -3.3227  -3.2023  -3.2023  -3.0639  -3.0639  -2.7221  -2.7221
    -2.4506  -2.4506  -2.3489  -2.3489  -2.2193  -2.2193  -2.1255  -2.1255
    -2.0227  -2.0227  -1.9782  -1.9781  -1.9232  -1.9231  -1.8121  -1.8121
    -1.4951  -1.4951  -1.2321  -1.2321  -0.9296  -0.9296  -0.8113  -0.8113
    -0.7211  -0.7211  -0.5550  -0.5550  -0.4099  -0.4099  -0.2985  -0.2985
     0.0866   0.0866   0.2151   0.2151   0.6079   0.6080   0.8765   0.8765
     2.3212   2.3213   3.0467   3.0467

          k =-0.0905-0.0346 0.0000 ( 30436 PWs)   bands (ev):

    -6.0328  -5.7279  -4.7889  -4.7117  -4.5498  -4.4817  -4.4597  -4.4465
    -4.2736  -4.2530  -4.0809  -4.0012  -3.7889  -3.6941  -3.6265  -3.5923
    -3.3724  -3.2730  -3.2185  -3.1594  -3.1419  -2.9907  -2.7893  -2.6954
    -2.5378  -2.4696  -2.3931  -2.3233  -2.3112  -2.2470  -2.1547  -2.1199
    -2.1036  -2.0766  -1.9699  -1.9114  -1.8964  -1.8118  -1.7848  -1.7036
    -1.6255  -1.3089  -1.2231  -1.2157  -1.0119  -0.9222  -0.8812  -0.8078
    -0.7518  -0.5665  -0.5480  -0.4115  -0.3969  -0.3523  -0.3160  -0.1771
     0.0779   0.1410   0.1627   0.2703   0.5810   0.5968   0.8020   0.8754
     2.0571   2.1714   2.7828   2.9650

          k =-0.0905-0.0173 0.0000 ( 30467 PWs)   bands (ev):

    -6.1132  -5.5405  -4.8763  -4.6537  -4.5368  -4.4700  -4.4365  -4.4298
    -4.3237  -4.2321  -4.1772  -4.0045  -3.7829  -3.7789  -3.6307  -3.5553
    -3.3405  -3.3362  -3.2464  -3.1262  -3.1083  -2.9074  -2.8597  -2.8332
    -2.6033  -2.5022  -2.4817  -2.3545  -2.2983  -2.2586  -2.2312  -2.1796
    -2.1619  -2.1214  -2.0040  -1.8380  -1.8120  -1.7211  -1.7066  -1.6471
    -1.5841  -1.2142  -1.1807  -1.1137  -1.0634  -0.9864  -0.9428  -0.8354
    -0.7041  -0.5421  -0.5354  -0.3908  -0.2684  -0.2607  -0.0415   0.0591
     0.0993   0.1460   0.2487   0.3853   0.5229   0.5293   0.7595   0.8219
     1.4396   2.0115   2.0527   3.1982

          k =-0.0905 0.0000 0.0000 ( 30460 PWs)   bands (ev):

    -6.1402  -5.4367  -4.9510  -4.6199  -4.5020  -4.4695  -4.4288  -4.4102
    -4.3770  -4.2280  -4.2138  -4.0072  -3.8307  -3.7091  -3.6767  -3.5720
    -3.3842  -3.2703  -3.2640  -3.0915  -3.0522  -2.9976  -2.8959  -2.8619
    -2.6241  -2.5085  -2.5015  -2.3641  -2.3123  -2.2727  -2.2550  -2.1958
    -2.1684  -2.1344  -2.0334  -1.8361  -1.7540  -1.6957  -1.6944  -1.6077
    -1.5547  -1.1738  -1.1348  -1.0748  -1.0591  -1.0273  -0.9697  -0.8534
    -0.7052  -0.5598  -0.5430  -0.3490  -0.2230  -0.1730   0.0297   0.0877
     0.1607   0.1825   0.3937   0.4429   0.4992   0.6278   0.7625   0.7874
     1.2794   1.3509   2.0117   3.5680

          k =-0.0905 0.0173 0.0000 ( 30467 PWs)   bands (ev):

    -6.1132  -5.5405  -4.8763  -4.6537  -4.5368  -4.4701  -4.4365  -4.4298
    -4.3237  -4.2321  -4.1772  -4.0045  -3.7829  -3.7789  -3.6307  -3.5553
    -3.3405  -3.3362  -3.2464  -3.1262  -3.1083  -2.9074  -2.8597  -2.8331
    -2.6033  -2.5022  -2.4817  -2.3545  -2.2983  -2.2587  -2.2312  -2.1796
    -2.1619  -2.1214  -2.0040  -1.8380  -1.8120  -1.7211  -1.7066  -1.6471
    -1.5841  -1.2142  -1.1807  -1.1137  -1.0634  -0.9864  -0.9428  -0.8354
    -0.7041  -0.5421  -0.5354  -0.3908  -0.2684  -0.2607  -0.0415   0.0591
     0.0993   0.1460   0.2487   0.3853   0.5229   0.5293   0.7595   0.8219
     1.4396   2.0115   2.0527   3.1983

          k =-0.0905 0.0346 0.0000 ( 30436 PWs)   bands (ev):

    -6.0328  -5.7279  -4.7889  -4.7117  -4.5498  -4.4817  -4.4597  -4.4465
    -4.2736  -4.2530  -4.0809  -4.0012  -3.7889  -3.6941  -3.6265  -3.5923
    -3.3724  -3.2730  -3.2185  -3.1594  -3.1419  -2.9907  -2.7892  -2.6953
    -2.5378  -2.4696  -2.3930  -2.3233  -2.3112  -2.2470  -2.1547  -2.1199
    -2.1036  -2.0766  -1.9699  -1.9114  -1.8964  -1.8118  -1.7848  -1.7036
    -1.6255  -1.3089  -1.2232  -1.2157  -1.0119  -0.9221  -0.8812  -0.8078
    -0.7518  -0.5665  -0.5480  -0.4115  -0.3970  -0.3523  -0.3160  -0.1771
     0.0779   0.1410   0.1627   0.2703   0.5810   0.5968   0.8020   0.8754
     2.0571   2.1714   2.7828   2.9650

          k =-0.0905-0.1556 0.0000 ( 30460 PWs)   bands (ev):

    -5.9014  -5.9014  -4.7527  -4.7527  -4.5123  -4.5123  -4.4654  -4.4654
    -4.2580  -4.2579  -4.0179  -4.0179  -3.7158  -3.7158  -3.6236  -3.6236
    -3.3227  -3.3227  -3.2023  -3.2022  -3.0639  -3.0639  -2.7221  -2.7220
    -2.4506  -2.4506  -2.3489  -2.3489  -2.2193  -2.2193  -2.1255  -2.1255
    -2.0227  -2.0227  -1.9782  -1.9781  -1.9232  -1.9231  -1.8122  -1.8121
    -1.4951  -1.4951  -1.2321  -1.2321  -0.9296  -0.9296  -0.8113  -0.8113
    -0.7211  -0.7211  -0.5550  -0.5550  -0.4099  -0.4099  -0.2985  -0.2985
     0.0866   0.0866   0.2151   0.2151   0.6079   0.6080   0.8765   0.8765
     2.3212   2.3212   3.0467   3.0467

     the Fermi energy is     0.3433 ev

!    total energy              =    -789.22426183 Ry
     estimated scf accuracy    <       0.00000809 Ry
     smearing contrib. (-TS)   =      -0.09200127 Ry
     internal energy E=F+TS    =    -789.13226056 Ry

     The total energy is F=E-TS. E is the sum of the following terms:
     one-electron contribution =   -6963.12901162 Ry
     hartree contribution      =    3556.49315327 Ry
     xc contribution           =    -329.36652527 Ry
     ewald contribution        =    2946.87012132 Ry
     electric field correction =       0.00000174 Ry

     convergence has been achieved in  15 iterations

     negative rho (up, down):  9.317E-04 0.000E+00

     Forces acting on atoms (cartesian axes, Ry/au):

     atom    1 type  1   force =    -0.00000104   -0.00396487   -0.01838361
     atom    2 type  1   force =     0.00000023   -0.00396321   -0.01838213
     atom    3 type  2   force =     0.00000510    0.01370462    0.02243801
     atom    4 type  2   force =    -0.00000403    0.01371181    0.02243018
     atom    5 type  1   force =     0.00000250    0.00643242   -0.00843318
     atom    6 type  1   force =     0.00000152    0.00643075   -0.00843202
     atom    7 type  2   force =     0.00000018   -0.01582891   -0.00106914
     atom    8 type  2   force =     0.00000088   -0.01582720   -0.00106509
     atom    9 type  1   force =     0.00001055   -0.00078944    0.00216197
     atom   10 type  1   force =    -0.00001453   -0.00078911    0.00216244
     atom   11 type  2   force =     0.00000175    0.00043686    0.00327824
     atom   12 type  2   force =    -0.00000309    0.00044628    0.00329435

     Total force =     0.053391     Total SCF correction =     0.015932
     SCF correction compared to forces is large: reduce conv_thr to get better values

     Writing output data file ./Pd2Ir2/Pd2Ir2_beef.save/

     init_run     :     27.43s CPU     49.32s WALL (       1 calls)
     electrons    :    597.20s CPU   1102.77s WALL (       1 calls)
     forces       :      9.28s CPU     18.76s WALL (       1 calls)

     Called by init_run:
     wfcinit      :     20.74s CPU     38.83s WALL (       1 calls)
     potinit      :      4.66s CPU      7.56s WALL (       1 calls)
     hinit0       :      1.45s CPU      2.07s WALL (       1 calls)

     Called by electrons:
     c_bands      :    515.80s CPU    935.32s WALL (      15 calls)
     sum_band     :     70.47s CPU    144.67s WALL (      15 calls)
     v_of_rho     :      9.78s CPU     19.11s WALL (      16 calls)
     newd         :      5.10s CPU      9.81s WALL (      16 calls)
     mix_rho      :      0.20s CPU      0.55s WALL (      15 calls)
     vdW_kernel   :      3.55s CPU      5.74s WALL (       1 calls)

     Called by c_bands:
     init_us_2    :      2.32s CPU      2.45s WALL (    2368 calls)
     cegterg      :    505.61s CPU    913.98s WALL (    1110 calls)

     Called by *egterg:
     cdiaghg      :     32.99s CPU     39.95s WALL (    3862 calls)
     h_psi        :    289.99s CPU    550.04s WALL (    3936 calls)
     s_psi        :     61.74s CPU     61.89s WALL (    3936 calls)
     g_psi        :      0.47s CPU      0.53s WALL (    2752 calls)

     Called by h_psi:
     h_psi:calbec :     57.35s CPU    120.05s WALL (    3936 calls)
     vloc_psi     :    170.05s CPU    366.91s WALL (    3936 calls)
     add_vuspsi   :     62.27s CPU     62.61s WALL (    3936 calls)

     General routines
     calbec       :     87.73s CPU    184.94s WALL (    5342 calls)
     fft          :      4.87s CPU     17.85s WALL (    1067 calls)
     ffts         :      0.03s CPU      0.10s WALL (      31 calls)
     fftw         :    203.99s CPU    437.65s WALL (  428026 calls)
     interpolate  :      0.08s CPU      0.19s WALL (      16 calls)

     Parallel routines
     fft_scatt_xy :      9.32s CPU     16.63s WALL (  429124 calls)
     fft_scatt_yz :    117.62s CPU    303.33s WALL (  429124 calls)

     PWSCF        :  10m42.33s CPU  20m24.49s WALL


   This run was terminated on:   0:20:30  24Jun2022            

=------------------------------------------------------------------------------=
   JOB DONE.
=------------------------------------------------------------------------------=
