
     Program PWSCF v.6.6 starts on 24Jun2022 at 12:51:32 

     This program is part of the open-source Quantum ESPRESSO suite
     for quantum simulation of materials; please cite
         "P. Giannozzi et al., J. Phys.:Condens. Matter 21 395502 (2009);
         "P. Giannozzi et al., J. Phys.:Condens. Matter 29 465901 (2017);
          URL http://www.quantum-espresso.org", 
     in publications or presentations arising from this work. More details at
     http://www.quantum-espresso.org/quote

     Parallel version (MPI), running on    37 processors

     MPI processes distributed on     1 nodes
     R & G space division:  proc/nbgrp/npool/nimage =      37
     Fft bands division:     nmany     =       1
     Reading input from Pt2Au2.in
Warning: card &CELL ignored
Warning: card / ignored

     Current dimensions of program PWSCF are:
     Max number of different atomic species (ntypx) = 10
     Max number of k-points (npk) =  40000
     Max angular momentum in pseudopotentials (lmaxx) =  3
     Presently stress not available with electric field and gates

     Message from routine cell_base_init:
     DEPRECATED: use true lattice parameter, not A to a.u. conversion factor
     file Pt.pbe-n-rrkjus_psl.1.0.0.UPF: wavefunction(s)  6S renormalized

     **************************************************************************
     Initializing libbeef V0.1.2 with the BEEF-vdW functional.
     Citation: Wellendorff et al., PRB 85, 235149 (2012).
     **************************************************************************


     IMPORTANT: XC functional enforced from input :
     Exchange-correlation= BEEF-VDW
                           (   1   4  43  14   2   0   0)
     Any further DFT definition will be discarded
     Please, verify this is what you really want


     Subspace diagonalization in iterative solution of the eigenvalue problem:
     a serial algorithm will be used


     Parallelization info
     --------------------
     sticks:   dense  smooth     PW     G-vecs:    dense   smooth      PW
     Min         122      48     13                28510     7198    1099
     Max         123      49     14                28525     7225    1134
     Sum        4527    1809    517              1055163   266969   41547



     bravais-lattice index     =            0
     lattice parameter (alat)  =       1.8897  a.u.
     unit-cell volume          =    4828.4472 (a.u.)^3
     number of atoms/cell      =           12
     number of atomic types    =            2
     number of electrons       =       126.00
     number of Kohn-Sham states=           76
     kinetic-energy cutoff     =      55.1240  Ry
     charge density cutoff     =     551.2396  Ry
     convergence threshold     =      1.0E-05
     mixing beta               =       0.1000
     number of iterations used =           10  plain     mixing
     Exchange-correlation= BEEF-VDW
                           (   1   4  43  14   2   0   0)

     celldm(1)=   1.889726  celldm(2)=   0.000000  celldm(3)=   0.000000
     celldm(4)=   0.000000  celldm(5)=   0.000000  celldm(6)=   0.000000

     crystal axes: (cart. coord. in units of alat)
               a(1) = (   5.736007   0.000000   0.000000 )  
               a(2) = (  -2.868003   5.046167   0.000000 )  
               a(3) = (   0.000000   0.000000  24.719500 )  

     reciprocal axes: (cart. coord. in units 2 pi/alat)
               b(1) = (  0.174337  0.099085 -0.000000 )  
               b(2) = (  0.000000  0.198170  0.000000 )  
               b(3) = (  0.000000 -0.000000  0.040454 )  


     PseudoPot. # 1 for Pt read from file:
     ../pseudo/Pt.pbe-n-rrkjus_psl.1.0.0.UPF
     MD5 check sum: 6bc887cfe28d63a5fc1f72d35a7d3ef7
     Pseudo is Ultrasoft + core correction, Zval = 10.0
     Generated using "atomic" code by A. Dal Corso v.6.3
     Using radial grid of 1277 points,  6 beta functions with: 
                l(1) =   0
                l(2) =   0
                l(3) =   1
                l(4) =   1
                l(5) =   2
                l(6) =   2
     Q(r) pseudized with 0 coefficients 


     PseudoPot. # 2 for Au read from file:
     ../pseudo/Au.pbe-n-rrkjus_psl.1.0.0.UPF
     MD5 check sum: d7e77ba19504afed2c9b41c931dde4f0
     Pseudo is Ultrasoft + core correction, Zval = 11.0
     Generated using "atomic" code by A. Dal Corso v.6.3
     Using radial grid of 1279 points,  6 beta functions with: 
                l(1) =   0
                l(2) =   0
                l(3) =   1
                l(4) =   1
                l(5) =   2
                l(6) =   2
     Q(r) pseudized with 0 coefficients 


     atomic species   valence    mass     pseudopotential
        Pt            10.00   195.08400     Pt( 1.00)
        Au            11.00   196.96657     Au( 1.00)

     No symmetry found



   Cartesian axes

     site n.     atom                  positions (alat units)
         1           Pt  tau(   1) = (   0.0000000   0.0000000  10.0000000  )
         2           Pt  tau(   2) = (   2.8680034   0.0000000  10.0000000  )
         3           Au  tau(   3) = (   1.4340017   2.5230834  10.0000000  )
         4           Au  tau(   4) = (  -1.4340017   2.5230834  10.0000000  )
         5           Pt  tau(   5) = (   2.8680034   1.6300380  12.3597499  )
         6           Pt  tau(   6) = (   0.0000000   1.6300380  12.3597499  )
         7           Au  tau(   7) = (  -1.4340017   4.1531214  12.3597499  )
         8           Au  tau(   8) = (   1.4340017   4.1531214  12.3597499  )
         9           Pt  tau(   9) = (   0.0000287   3.0806268  14.6811163  )
        10           Pt  tau(  10) = (   2.8679828   3.0806305  14.6811190  )
        11           Au  tau(  11) = (   4.3019792   0.5862795  14.8805694  )
        12           Au  tau(  12) = (   1.4339777   0.5862078  14.8805043  )

     number of k points=    74  Fermi-Dirac smearing, width (Ry)=  0.0100
                       cart. coord. in units 2pi/alat
        k(    1) = (   0.0000000   0.0000000   0.0000000), wk =   0.0138889
        k(    2) = (   0.0000000   0.0165142   0.0000000), wk =   0.0277778
        k(    3) = (   0.0000000   0.0330284   0.0000000), wk =   0.0277778
        k(    4) = (   0.0000000   0.0495426   0.0000000), wk =   0.0277778
        k(    5) = (   0.0000000   0.0660567   0.0000000), wk =   0.0277778
        k(    6) = (   0.0000000   0.0825709   0.0000000), wk =   0.0277778
        k(    7) = (   0.0000000  -0.0990851   0.0000000), wk =   0.0138889
        k(    8) = (   0.0145281   0.0082571   0.0000000), wk =   0.0277778
        k(    9) = (   0.0145281   0.0247713   0.0000000), wk =   0.0277778
        k(   10) = (   0.0145281   0.0412855   0.0000000), wk =   0.0277778
        k(   11) = (   0.0145281   0.0577996   0.0000000), wk =   0.0277778
        k(   12) = (   0.0145281   0.0743138   0.0000000), wk =   0.0277778
        k(   13) = (   0.0145281   0.0908280   0.0000000), wk =   0.0277778
        k(   14) = (   0.0145281  -0.0908280   0.0000000), wk =   0.0277778
        k(   15) = (   0.0145281  -0.0743138   0.0000000), wk =   0.0277778
        k(   16) = (   0.0145281  -0.0577996   0.0000000), wk =   0.0277778
        k(   17) = (   0.0145281  -0.0412855   0.0000000), wk =   0.0277778
        k(   18) = (   0.0145281  -0.0247713   0.0000000), wk =   0.0277778
        k(   19) = (   0.0145281  -0.0082571   0.0000000), wk =   0.0277778
        k(   20) = (   0.0290562   0.0165142   0.0000000), wk =   0.0277778
        k(   21) = (   0.0290562   0.0330284   0.0000000), wk =   0.0277778
        k(   22) = (   0.0290562   0.0495426   0.0000000), wk =   0.0277778
        k(   23) = (   0.0290562   0.0660567   0.0000000), wk =   0.0277778
        k(   24) = (   0.0290562   0.0825709   0.0000000), wk =   0.0277778
        k(   25) = (   0.0290562   0.0990851   0.0000000), wk =   0.0277778
        k(   26) = (   0.0290562  -0.0825709   0.0000000), wk =   0.0277778
        k(   27) = (   0.0290562  -0.0660567   0.0000000), wk =   0.0277778
        k(   28) = (   0.0290562  -0.0495426   0.0000000), wk =   0.0277778
        k(   29) = (   0.0290562  -0.0330284   0.0000000), wk =   0.0277778
        k(   30) = (   0.0290562  -0.0165142   0.0000000), wk =   0.0277778
        k(   31) = (   0.0290562  -0.0000000   0.0000000), wk =   0.0277778
        k(   32) = (   0.0435843   0.0247713   0.0000000), wk =   0.0277778
        k(   33) = (   0.0435843   0.0412855   0.0000000), wk =   0.0277778
        k(   34) = (   0.0435843   0.0577996   0.0000000), wk =   0.0277778
        k(   35) = (   0.0435843   0.0743138   0.0000000), wk =   0.0277778
        k(   36) = (   0.0435843   0.0908280   0.0000000), wk =   0.0277778
        k(   37) = (   0.0435843   0.1073422   0.0000000), wk =   0.0277778
        k(   38) = (   0.0435843  -0.0743138   0.0000000), wk =   0.0277778
        k(   39) = (   0.0435843  -0.0577997   0.0000000), wk =   0.0277778
        k(   40) = (   0.0435843  -0.0412855   0.0000000), wk =   0.0277778
        k(   41) = (   0.0435843  -0.0247713   0.0000000), wk =   0.0277778
        k(   42) = (   0.0435843  -0.0082571   0.0000000), wk =   0.0277778
        k(   43) = (   0.0435843   0.0082571   0.0000000), wk =   0.0277778
        k(   44) = (   0.0581124   0.0330284   0.0000000), wk =   0.0277778
        k(   45) = (   0.0581124   0.0495425   0.0000000), wk =   0.0277778
        k(   46) = (   0.0581124   0.0660567   0.0000000), wk =   0.0277778
        k(   47) = (   0.0581124   0.0825709   0.0000000), wk =   0.0277778
        k(   48) = (   0.0581124   0.0990851   0.0000000), wk =   0.0277778
        k(   49) = (   0.0581124   0.1155993   0.0000000), wk =   0.0277778
        k(   50) = (   0.0581124  -0.0660567   0.0000000), wk =   0.0277778
        k(   51) = (   0.0581124  -0.0495426   0.0000000), wk =   0.0277778
        k(   52) = (   0.0581124  -0.0330284   0.0000000), wk =   0.0277778
        k(   53) = (   0.0581124  -0.0165142   0.0000000), wk =   0.0277778
        k(   54) = (   0.0581124  -0.0000000   0.0000000), wk =   0.0277778
        k(   55) = (   0.0581124   0.0165142   0.0000000), wk =   0.0277778
        k(   56) = (   0.0726405   0.0412855   0.0000000), wk =   0.0277778
        k(   57) = (   0.0726405   0.0577996   0.0000000), wk =   0.0277778
        k(   58) = (   0.0726405   0.0743138   0.0000000), wk =   0.0277778
        k(   59) = (   0.0726405   0.0908280   0.0000000), wk =   0.0277778
        k(   60) = (   0.0726405   0.1073422   0.0000000), wk =   0.0277778
        k(   61) = (   0.0726405   0.1238564   0.0000000), wk =   0.0277778
        k(   62) = (   0.0726405  -0.0577997   0.0000000), wk =   0.0277778
        k(   63) = (   0.0726405  -0.0412855   0.0000000), wk =   0.0277778
        k(   64) = (   0.0726405  -0.0247713   0.0000000), wk =   0.0277778
        k(   65) = (   0.0726405  -0.0082571   0.0000000), wk =   0.0277778
        k(   66) = (   0.0726405   0.0082571   0.0000000), wk =   0.0277778
        k(   67) = (   0.0726405   0.0247713   0.0000000), wk =   0.0277778
        k(   68) = (  -0.0871687  -0.0495425   0.0000000), wk =   0.0138889
        k(   69) = (  -0.0871687  -0.0330284   0.0000000), wk =   0.0277778
        k(   70) = (  -0.0871687  -0.0165142   0.0000000), wk =   0.0277778
        k(   71) = (  -0.0871687   0.0000000   0.0000000), wk =   0.0277778
        k(   72) = (  -0.0871687   0.0165142   0.0000000), wk =   0.0277778
        k(   73) = (  -0.0871687   0.0330284   0.0000000), wk =   0.0277778
        k(   74) = (  -0.0871687  -0.1486277   0.0000000), wk =   0.0138889

     Dense  grid:  1055163 G-vectors     FFT dimensions: (  81,  81, 360)

     Smooth grid:   266969 G-vectors     FFT dimensions: (  54,  54, 225)

     Estimated max dynamical RAM per process >     192.05 MB

     Estimated total dynamical RAM >       6.94 GB

     Initial potential from superposition of free atoms

     starting charge  125.99832, renormalised to  126.00000

     negative rho (up, down):  1.156E-03 0.000E+00


     %%%%%%%%%%%%%%%%%%%%%%%%%%%%%%%%%%%%%%%%%%%%%%%%%%%%%%%%%%%%%%%%%%%%%%%%
     %                                                                      %
     % You are using vdW-DF, which was implemented by the Thonhauser group. %
     % Please cite the following two papers that made this development      %
     % possible and the two reviews that describe the various versions:     %
     %                                                                      %
     %   T. Thonhauser et al., PRL 115, 136402 (2015).                      %
     %   T. Thonhauser et al., PRB 76, 125112 (2007).                       %
     %   K. Berland et al., Rep. Prog. Phys. 78, 066501 (2015).             %
     %   D.C. Langreth et al., J. Phys.: Condens. Matter 21, 084203 (2009). %
     %                                                                      %
     %                                                                      %
     % If you are calculating the stress with vdW-DF, please also cite:     %
     %                                                                      %
     %   R. Sabatini et al., J. Phys.: Condens. Matter 24, 424209 (2012).   %
     %                                                                      %
     %%%%%%%%%%%%%%%%%%%%%%%%%%%%%%%%%%%%%%%%%%%%%%%%%%%%%%%%%%%%%%%%%%%%%%%%



     Adding external electric field

     Computed dipole along edir(3) : 
        Dipole               -0.0000 Ry au,         -0.0001 Debye
        Dipole field         -0.0000 Ry au, 

        Potential amp.        0.0000 Ry
        Total length         45.5453 bohr

     Starting wfcs are  108 randomized atomic wfcs

     total cpu time spent up to now is       85.3 secs

     Self-consistent Calculation

     iteration #  1     ecut=    55.12 Ry     beta= 0.10
     Davidson diagonalization with overlap
     ethr =  1.00E-02,  avg # of iterations =  3.5

     Threshold (ethr) on eigenvalues was too large:
     Diagonalizing with lowered threshold

     Davidson diagonalization with overlap
     ethr =  2.75E-04,  avg # of iterations =  4.7

     negative rho (up, down):  1.136E-03 0.000E+00

     Adding external electric field

     Computed dipole along edir(3) : 
        Dipole                0.0376 Ry au,          0.0956 Debye
        Dipole field          0.0001 Ry au, 

        Potential amp.       -0.0089 Ry
        Total length         45.5453 bohr


     total cpu time spent up to now is      459.2 secs

     total energy              =    -915.70588328 Ry
     estimated scf accuracy    <       0.38101049 Ry

     iteration #  2     ecut=    55.12 Ry     beta= 0.10
     Davidson diagonalization with overlap
     ethr =  3.02E-04,  avg # of iterations =  1.3

     negative rho (up, down):  1.124E-03 0.000E+00

     Adding external electric field

     Computed dipole along edir(3) : 
        Dipole               -0.1425 Ry au,         -0.3622 Debye
        Dipole field         -0.0004 Ry au, 

        Potential amp.        0.0338 Ry
        Total length         45.5453 bohr


     total cpu time spent up to now is      583.9 secs

     total energy              =    -915.68772514 Ry
     estimated scf accuracy    <       0.20708303 Ry

     iteration #  3     ecut=    55.12 Ry     beta= 0.10
     Davidson diagonalization with overlap
     ethr =  1.64E-04,  avg # of iterations =  4.1

     negative rho (up, down):  1.116E-03 0.000E+00

     Adding external electric field

     Computed dipole along edir(3) : 
        Dipole                0.0253 Ry au,          0.0644 Debye
        Dipole field          0.0001 Ry au, 

        Potential amp.       -0.0060 Ry
        Total length         45.5453 bohr


     total cpu time spent up to now is      728.7 secs

     total energy              =    -915.68112955 Ry
     estimated scf accuracy    <       0.68308736 Ry

     iteration #  4     ecut=    55.12 Ry     beta= 0.10
     Davidson diagonalization with overlap
     ethr =  1.64E-04,  avg # of iterations =  1.3

     negative rho (up, down):  1.152E-03 0.000E+00

     Adding external electric field

     Computed dipole along edir(3) : 
        Dipole                0.0126 Ry au,          0.0321 Debye
        Dipole field          0.0000 Ry au, 

        Potential amp.       -0.0030 Ry
        Total length         45.5453 bohr


     total cpu time spent up to now is      856.1 secs

     total energy              =    -915.68961781 Ry
     estimated scf accuracy    <       0.06813146 Ry

     iteration #  5     ecut=    55.12 Ry     beta= 0.10
     Davidson diagonalization with overlap
     ethr =  5.41E-05,  avg # of iterations =  4.2

     negative rho (up, down):  1.270E-03 0.000E+00

     Adding external electric field

     Computed dipole along edir(3) : 
        Dipole                0.0096 Ry au,          0.0243 Debye
        Dipole field          0.0000 Ry au, 

        Potential amp.       -0.0023 Ry
        Total length         45.5453 bohr


     total cpu time spent up to now is     1025.6 secs

     total energy              =    -915.69293350 Ry
     estimated scf accuracy    <       0.02638493 Ry

     iteration #  6     ecut=    55.12 Ry     beta= 0.10
     Davidson diagonalization with overlap
     c_bands:  1 eigenvalues not converged
     ethr =  2.09E-05,  avg # of iterations =  6.6

     negative rho (up, down):  1.254E-03 0.000E+00

     Adding external electric field

     Computed dipole along edir(3) : 
        Dipole                0.0103 Ry au,          0.0263 Debye
        Dipole field          0.0000 Ry au, 

        Potential amp.       -0.0025 Ry
        Total length         45.5453 bohr


     total cpu time spent up to now is     1236.6 secs

     total energy              =    -915.70044997 Ry
     estimated scf accuracy    <       0.00623846 Ry

     iteration #  7     ecut=    55.12 Ry     beta= 0.10
     Davidson diagonalization with overlap
     c_bands:  1 eigenvalues not converged
     c_bands:  1 eigenvalues not converged
     ethr =  4.95E-06,  avg # of iterations =  8.4

     negative rho (up, down):  1.376E-03 0.000E+00

     Adding external electric field

     Computed dipole along edir(3) : 
        Dipole                0.0092 Ry au,          0.0234 Debye
        Dipole field          0.0000 Ry au, 

        Potential amp.       -0.0022 Ry
        Total length         45.5453 bohr


     total cpu time spent up to now is     1428.9 secs

     total energy              =    -915.70025772 Ry
     estimated scf accuracy    <       0.00523864 Ry

     iteration #  8     ecut=    55.12 Ry     beta= 0.10
     Davidson diagonalization with overlap
     c_bands:  2 eigenvalues not converged
     c_bands:  2 eigenvalues not converged
     ethr =  4.16E-06,  avg # of iterations =  4.4

     negative rho (up, down):  1.467E-03 0.000E+00

     Adding external electric field

     Computed dipole along edir(3) : 
        Dipole                0.0115 Ry au,          0.0291 Debye
        Dipole field          0.0000 Ry au, 

        Potential amp.       -0.0027 Ry
        Total length         45.5453 bohr


     total cpu time spent up to now is     1591.1 secs

     total energy              =    -915.70092709 Ry
     estimated scf accuracy    <       0.00203407 Ry

     iteration #  9     ecut=    55.12 Ry     beta= 0.10
     Davidson diagonalization with overlap
     ethr =  1.61E-06,  avg # of iterations =  3.1

     negative rho (up, down):  1.403E-03 0.000E+00

     Adding external electric field

     Computed dipole along edir(3) : 
        Dipole                0.0106 Ry au,          0.0268 Debye
        Dipole field          0.0000 Ry au, 

        Potential amp.       -0.0025 Ry
        Total length         45.5453 bohr


     total cpu time spent up to now is     1730.6 secs

     total energy              =    -915.70119593 Ry
     estimated scf accuracy    <       0.00028673 Ry

     iteration # 10     ecut=    55.12 Ry     beta= 0.10
     Davidson diagonalization with overlap
     ethr =  2.28E-07,  avg # of iterations =  4.2

     negative rho (up, down):  1.370E-03 0.000E+00

     Adding external electric field

     Computed dipole along edir(3) : 
        Dipole                0.0107 Ry au,          0.0272 Debye
        Dipole field          0.0000 Ry au, 

        Potential amp.       -0.0025 Ry
        Total length         45.5453 bohr


     total cpu time spent up to now is     1926.9 secs

     total energy              =    -915.70117415 Ry
     estimated scf accuracy    <       0.00047493 Ry

     iteration # 11     ecut=    55.12 Ry     beta= 0.10
     Davidson diagonalization with overlap
     ethr =  2.28E-07,  avg # of iterations =  2.0

     negative rho (up, down):  1.325E-03 0.000E+00

     Adding external electric field

     Computed dipole along edir(3) : 
        Dipole                0.0106 Ry au,          0.0268 Debye
        Dipole field          0.0000 Ry au, 

        Potential amp.       -0.0025 Ry
        Total length         45.5453 bohr


     total cpu time spent up to now is     2070.8 secs

     total energy              =    -915.70121247 Ry
     estimated scf accuracy    <       0.00009962 Ry

     iteration # 12     ecut=    55.12 Ry     beta= 0.10
     Davidson diagonalization with overlap
     ethr =  7.91E-08,  avg # of iterations =  1.8

     negative rho (up, down):  1.298E-03 0.000E+00

     Adding external electric field

     Computed dipole along edir(3) : 
        Dipole                0.0104 Ry au,          0.0265 Debye
        Dipole field          0.0000 Ry au, 

        Potential amp.       -0.0025 Ry
        Total length         45.5453 bohr


     total cpu time spent up to now is     2202.0 secs

     total energy              =    -915.70121033 Ry
     estimated scf accuracy    <       0.00003910 Ry

     iteration # 13     ecut=    55.12 Ry     beta= 0.10
     Davidson diagonalization with overlap
     ethr =  3.10E-08,  avg # of iterations =  5.0

     negative rho (up, down):  1.268E-03 0.000E+00

     Adding external electric field

     Computed dipole along edir(3) : 
        Dipole                0.0106 Ry au,          0.0269 Debye
        Dipole field          0.0000 Ry au, 

        Potential amp.       -0.0025 Ry
        Total length         45.5453 bohr


     total cpu time spent up to now is     2429.2 secs

     total energy              =    -915.70123493 Ry
     estimated scf accuracy    <       0.00001519 Ry

     iteration # 14     ecut=    55.12 Ry     beta= 0.10
     Davidson diagonalization with overlap
     ethr =  1.21E-08,  avg # of iterations =  3.9

     negative rho (up, down):  1.240E-03 0.000E+00

     Adding external electric field

     Computed dipole along edir(3) : 
        Dipole                0.0105 Ry au,          0.0267 Debye
        Dipole field          0.0000 Ry au, 

        Potential amp.       -0.0025 Ry
        Total length         45.5453 bohr


     total cpu time spent up to now is     2604.7 secs

     total energy              =    -915.70123059 Ry
     estimated scf accuracy    <       0.00001558 Ry

     iteration # 15     ecut=    55.12 Ry     beta= 0.10
     Davidson diagonalization with overlap
     ethr =  1.21E-08,  avg # of iterations =  2.0

     negative rho (up, down):  1.127E-03 0.000E+00

     Adding external electric field

     Computed dipole along edir(3) : 
        Dipole                0.0117 Ry au,          0.0297 Debye
        Dipole field          0.0000 Ry au, 

        Potential amp.       -0.0028 Ry
        Total length         45.5453 bohr


     total cpu time spent up to now is     2740.4 secs

     End of self-consistent calculation

          k = 0.0000 0.0000 0.0000 ( 33273 PWs)   bands (ev):

    -7.8250  -6.3423  -5.9333  -5.7019  -5.5910  -5.5337  -5.4286  -5.4096
    -5.2371  -5.1057  -5.0990  -5.0387  -5.0020  -4.9175  -4.7442  -4.0729
    -3.9267  -3.8123  -3.8072  -3.6051  -3.5839  -3.4598  -3.3102  -3.2659
    -3.1776  -3.0544  -2.9937  -2.9593  -2.8812  -2.8640  -2.8030  -2.7818
    -2.6504  -2.2238  -2.0936  -2.0195  -1.9364  -1.8030  -1.7148  -1.6187
    -1.6044  -1.3026  -1.2838  -1.1933  -1.0940  -1.0788  -0.7621  -0.7351
    -0.7328  -0.6434  -0.5297  -0.5168  -0.4489  -0.4350  -0.1723  -0.1721
    -0.1069  -0.0907   0.0017   0.0966   0.1570   0.2369   0.5707   1.1181
     1.3771   1.4358   1.5156   2.3203   2.5328   2.5487   2.7651   2.9140
     2.9748   4.6185   4.7903   4.8720

          k = 0.0000 0.0165 0.0000 ( 33317 PWs)   bands (ev):

    -7.7724  -6.2910  -5.8895  -5.6647  -5.5841  -5.5045  -5.4141  -5.3740
    -5.1992  -5.0962  -5.0740  -5.0035  -4.9812  -4.8964  -4.6986  -4.0718
    -3.9259  -3.8042  -3.7867  -3.5947  -3.5659  -3.4582  -3.3210  -3.2834
    -3.1608  -3.0374  -3.0311  -2.9367  -2.8870  -2.8624  -2.8189  -2.7885
    -2.6843  -2.2289  -2.1760  -2.0187  -1.9700  -1.7950  -1.7621  -1.6472
    -1.6307  -1.3332  -1.3137  -1.2321  -1.1971  -1.0913  -0.8855  -0.7747
    -0.6747  -0.6650  -0.5808  -0.5234  -0.4927  -0.4884  -0.2050  -0.1990
    -0.1650  -0.1236  -0.0617  -0.0160   0.0519   0.1464   0.5500   0.9693
     1.3198   1.3331   1.5811   1.6254   2.3611   2.6597   3.2615   3.2715
     3.2834   4.7821   4.8277   4.9296

          k = 0.0000 0.0330 0.0000 ( 33365 PWs)   bands (ev):

    -7.6172  -6.1418  -5.7695  -5.5649  -5.5556  -5.4227  -5.3721  -5.2719
    -5.0876  -5.0658  -5.0057  -4.9223  -4.8950  -4.8336  -4.5636  -4.0718
    -3.9183  -3.7867  -3.7353  -3.5644  -3.5138  -3.4730  -3.4287  -3.2063
    -3.1238  -3.1158  -3.0229  -2.9536  -2.8756  -2.8628  -2.8191  -2.8013
    -2.7818  -2.3645  -2.2440  -2.0609  -2.0156  -1.9104  -1.8618  -1.7524
    -1.6875  -1.4581  -1.4316  -1.3841  -1.1913  -1.1597  -1.1151  -0.9036
    -0.8678  -0.8574  -0.7030  -0.6974  -0.6533  -0.4549  -0.3691  -0.3098
    -0.2829  -0.2210  -0.1007  -0.0706  -0.0687  -0.0452   0.1565   0.5615
     0.7966   1.1511   1.7627   1.8964   2.2248   2.6537   3.2543   3.7635
     3.8901   4.7620   4.9731   5.2089

          k = 0.0000 0.0495 0.0000 ( 33373 PWs)   bands (ev):

    -7.3678  -5.9144  -5.6621  -5.4876  -5.3830  -5.3079  -5.3062  -5.1201
    -5.0100  -4.9086  -4.9016  -4.8324  -4.7299  -4.7208  -4.3462  -4.0797
    -3.9020  -3.7848  -3.6820  -3.5932  -3.5178  -3.4567  -3.4326  -3.2385
    -3.0899  -3.0815  -3.0569  -3.0132  -2.9342  -2.9258  -2.8779  -2.7898
    -2.6937  -2.5906  -2.2678  -2.1966  -2.1466  -2.0441  -2.0080  -1.9573
    -1.8011  -1.6598  -1.5886  -1.5808  -1.4124  -1.2832  -1.2103  -1.1407
    -1.1223  -1.1150  -0.9938  -0.9848  -0.9027  -0.5362  -0.4753  -0.4694
    -0.4472  -0.4182  -0.3484  -0.1976  -0.1932  -0.1070  -0.0718   0.3691
     0.5768   1.0329   2.1126   2.1581   2.2850   2.7380   2.7399   4.2266
     4.2940   4.9009   5.1406   5.3262

          k = 0.0000 0.0661 0.0000 ( 33408 PWs)   bands (ev):

    -7.0415  -5.7470  -5.6160  -5.2976  -5.2320  -5.1923  -5.1570  -4.9533
    -4.9144  -4.7787  -4.7209  -4.6805  -4.5780  -4.5074  -4.0976  -4.0788
    -3.9041  -3.8195  -3.7580  -3.5836  -3.4861  -3.4665  -3.3971  -3.3003
    -3.2344  -3.1265  -3.0376  -3.0045  -3.0004  -2.9522  -2.9301  -2.7843
    -2.6925  -2.5571  -2.4081  -2.3891  -2.2947  -2.2826  -2.2098  -1.9957
    -1.9819  -1.9486  -1.9249  -1.8184  -1.6251  -1.6105  -1.5253  -1.4310
    -1.3402  -1.2329  -1.1414  -1.1166  -1.0078  -0.8802  -0.7126  -0.6125
    -0.5725  -0.5465  -0.4554  -0.3700  -0.2399  -0.2341  -0.0942   0.5911
     0.6028   0.9840   2.1256   2.1355   2.2296   2.8349   2.9826   4.2598
     4.4539   5.3396   5.5763   5.6672

          k = 0.0000 0.0826 0.0000 ( 33418 PWs)   bands (ev):

    -6.6728  -5.9210  -5.3963  -5.1784  -5.1439  -5.0977  -4.9297  -4.8232
    -4.7647  -4.6952  -4.5939  -4.4712  -4.3415  -4.3098  -4.1110  -4.0324
    -4.0189  -3.7722  -3.6976  -3.5577  -3.5428  -3.4826  -3.4453  -3.3499
    -3.2988  -3.1731  -3.1486  -3.0767  -2.9658  -2.9386  -2.8781  -2.8354
    -2.6654  -2.6127  -2.6092  -2.4827  -2.4418  -2.4284  -2.3200  -2.3175
    -2.1893  -2.1608  -2.0390  -1.9821  -1.9680  -1.8006  -1.7981  -1.5591
    -1.3715  -1.3705  -1.2758  -1.1077  -1.0971  -1.0344  -0.8518  -0.7592
    -0.7214  -0.5730  -0.5207  -0.4743  -0.2565  -0.2196  -0.1136   0.6017
     0.8976   0.9687   1.7338   2.1107   2.2871   2.8958   3.6110   4.2000
     4.5076   4.9550   5.7076   6.3289

          k = 0.0000-0.0991 0.0000 ( 33430 PWs)   bands (ev):

    -6.4020  -6.1271  -5.3022  -5.1506  -5.1057  -5.0631  -4.7774  -4.7743
    -4.7158  -4.6836  -4.4908  -4.3540  -4.2233  -4.1572  -4.1229  -4.1094
    -4.1075  -3.8206  -3.7663  -3.5647  -3.4728  -3.4187  -3.3540  -3.3469
    -3.2877  -3.2648  -3.2112  -3.1642  -2.9517  -2.9440  -2.8835  -2.8448
    -2.7867  -2.6822  -2.5833  -2.5586  -2.5407  -2.4560  -2.3530  -2.3440
    -2.3341  -2.2646  -2.1152  -2.0941  -1.9758  -1.8774  -1.8519  -1.5951
    -1.4557  -1.3743  -1.3333  -1.1274  -1.1049  -1.0385  -0.9065  -0.8196
    -0.7826  -0.5801  -0.5424  -0.5045  -0.2606  -0.2093  -0.1228   0.6056
     0.9657   1.0885   1.5103   2.1063   2.3047   2.9158   4.1589   4.1788
     4.4070   4.5156   6.0288   6.1100

          k = 0.0145 0.0083 0.0000 ( 33301 PWs)   bands (ev):

    -7.7705  -6.2871  -5.8832  -5.6786  -5.5523  -5.5076  -5.3939  -5.3916
    -5.2126  -5.0853  -5.0738  -5.0137  -4.9609  -4.8961  -4.7142  -4.0601
    -3.9138  -3.8069  -3.8003  -3.6060  -3.5561  -3.4547  -3.3413  -3.3014
    -3.1809  -3.0309  -3.0055  -2.9774  -2.9010  -2.8383  -2.8024  -2.7723
    -2.6588  -2.2678  -2.1451  -2.0156  -1.9433  -1.8073  -1.7972  -1.6231
    -1.6184  -1.3458  -1.3153  -1.2199  -1.1482  -1.1429  -0.8498  -0.8327
    -0.7273  -0.6499  -0.6288  -0.4901  -0.4665  -0.4230  -0.2548  -0.2075
    -0.1487  -0.1373  -0.0291  -0.0073   0.0520   0.1791   0.4866   0.9312
     1.3001   1.4313   1.5267   1.9161   2.1552   2.4283   2.9726   3.3310
     3.5556   4.8313   4.8540   4.9390

          k = 0.0145 0.0248 0.0000 ( 33322 PWs)   bands (ev):

    -7.6664  -6.1861  -5.7980  -5.6132  -5.5400  -5.4529  -5.3626  -5.3200
    -5.1389  -5.0653  -5.0256  -4.9454  -4.9219  -4.8526  -4.6216  -4.0587
    -3.9149  -3.7946  -3.7616  -3.5808  -3.5243  -3.4573  -3.3986  -3.2772
    -3.1665  -3.0790  -3.0093  -2.9499  -2.8823  -2.8665  -2.8156  -2.7786
    -2.7227  -2.2914  -2.2516  -2.0367  -2.0121  -1.8986  -1.8213  -1.6876
    -1.6531  -1.4184  -1.3697  -1.3335  -1.2338  -1.1687  -1.0252  -0.9055
    -0.7863  -0.7557  -0.6295  -0.6089  -0.5674  -0.5222  -0.3358  -0.2655
    -0.2465  -0.2343  -0.1371  -0.0935  -0.0115  -0.0041   0.4900   0.7339
     0.7385   1.3826   1.6109   1.6295   2.0648   2.9500   3.3047   3.4936
     3.6665   4.8608   4.9010   4.9981

          k = 0.0145 0.0413 0.0000 ( 33344 PWs)   bands (ev):

    -7.4636  -5.9947  -5.6590  -5.5108  -5.4855  -5.3530  -5.3079  -5.1860
    -5.0232  -5.0004  -4.9309  -4.8488  -4.8135  -4.7630  -4.4427  -4.0618
    -3.9086  -3.7849  -3.7048  -3.5443  -3.5361  -3.4609  -3.4451  -3.2019
    -3.1890  -3.1438  -3.0006  -2.9742  -2.8889  -2.8738  -2.8471  -2.8320
    -2.7356  -2.4611  -2.2970  -2.1466  -2.0677  -2.0457  -1.9483  -1.8458
    -1.7199  -1.5971  -1.5025  -1.4792  -1.3321  -1.2371  -1.1955  -1.0777
    -1.0735  -0.9563  -0.9064  -0.8310  -0.8240  -0.5458  -0.4861  -0.4507
    -0.4065  -0.3137  -0.2479  -0.1734  -0.1397   0.0917   0.1309   0.5065
     0.6415   0.6871   1.5284   2.1112   2.4796   3.0621   3.2196   3.5638
     3.8203   5.0774   5.0928   5.3085

          k = 0.0145 0.0578 0.0000 ( 33394 PWs)   bands (ev):

    -7.1739  -5.7483  -5.6215  -5.3649  -5.3063  -5.2354  -5.2288  -5.0216
    -4.9522  -4.8327  -4.7737  -4.7495  -4.6568  -4.5992  -4.1970  -4.0740
    -3.9006  -3.8068  -3.7150  -3.6162  -3.4812  -3.4679  -3.3772  -3.3050
    -3.2100  -3.1092  -3.0409  -3.0234  -2.9903  -2.9178  -2.9142  -2.7922
    -2.6600  -2.6147  -2.3765  -2.3283  -2.2453  -2.1596  -2.0839  -2.0257
    -1.8492  -1.8411  -1.7894  -1.6825  -1.5865  -1.4227  -1.3674  -1.3405
    -1.3081  -1.1865  -1.1073  -1.0379  -1.0071  -0.8307  -0.6076  -0.5346
    -0.5134  -0.3931  -0.3721  -0.3118  -0.2459  -0.1026  -0.0479   0.5208
     0.5260   0.6842   1.5301   2.4072   2.5957   2.7679   3.4136   3.5605
     4.4226   5.2702   5.3162   5.6856

          k = 0.0145 0.0743 0.0000 ( 33399 PWs)   bands (ev):

    -6.8210  -5.7736  -5.4591  -5.1812  -5.1566  -5.1316  -5.0831  -4.8675
    -4.8295  -4.7009  -4.6339  -4.5613  -4.4680  -4.3853  -4.1010  -4.0026
    -3.9582  -3.7832  -3.7822  -3.5723  -3.5079  -3.4968  -3.4346  -3.3372
    -3.2351  -3.2091  -3.1162  -3.0678  -3.0003  -2.9534  -2.9265  -2.7762
    -2.7056  -2.6188  -2.5785  -2.4700  -2.3738  -2.3297  -2.2879  -2.1893
    -2.0952  -2.0429  -1.9863  -1.8994  -1.8887  -1.6831  -1.6774  -1.5190
    -1.3586  -1.2838  -1.2020  -1.1153  -1.0774  -1.0602  -0.7707  -0.6524
    -0.6043  -0.5555  -0.4840  -0.3791  -0.2726  -0.2524  -0.1319   0.5420
     0.6954   0.7949   1.5504   1.9698   2.6176   3.3450   3.4637   3.5430
     5.1964   5.2544   5.2940   5.6089

          k = 0.0145 0.0908 0.0000 ( 33401 PWs)   bands (ev):

    -6.4600  -6.0089  -5.2851  -5.1156  -5.0809  -5.0579  -4.9228  -4.7555
    -4.6893  -4.6540  -4.5026  -4.3822  -4.2723  -4.1850  -4.1243  -4.1033
    -4.0762  -3.7611  -3.7573  -3.5938  -3.4687  -3.4656  -3.4170  -3.3764
    -3.3256  -3.2544  -3.1670  -3.1602  -2.9904  -2.9524  -2.9039  -2.8165
    -2.8044  -2.7370  -2.6916  -2.5723  -2.5110  -2.4478  -2.4003  -2.2997
    -2.2737  -2.1230  -2.1164  -2.0393  -1.9355  -1.8319  -1.8082  -1.5882
    -1.3879  -1.3700  -1.3106  -1.1416  -1.1119  -1.0705  -0.8729  -0.7644
    -0.7520  -0.5732  -0.5364  -0.4620  -0.2812  -0.2489  -0.1490   0.5509
     0.7045   1.0690   1.5642   1.6160   2.6223   3.4641   3.5377   3.9775
     4.6824   5.1988   5.9021   6.0133

          k = 0.0145-0.0908 0.0000 ( 33401 PWs)   bands (ev):

    -6.4600  -6.0089  -5.2851  -5.1156  -5.0809  -5.0579  -4.9228  -4.7555
    -4.6893  -4.6540  -4.5026  -4.3822  -4.2723  -4.1850  -4.1243  -4.1033
    -4.0762  -3.7611  -3.7573  -3.5938  -3.4687  -3.4656  -3.4170  -3.3763
    -3.3256  -3.2544  -3.1670  -3.1602  -2.9904  -2.9524  -2.9039  -2.8165
    -2.8044  -2.7370  -2.6916  -2.5723  -2.5110  -2.4477  -2.4003  -2.2997
    -2.2737  -2.1230  -2.1164  -2.0393  -1.9355  -1.8319  -1.8082  -1.5882
    -1.3879  -1.3700  -1.3106  -1.1416  -1.1119  -1.0705  -0.8729  -0.7644
    -0.7520  -0.5732  -0.5364  -0.4620  -0.2812  -0.2489  -0.1490   0.5509
     0.7045   1.0690   1.5642   1.6160   2.6223   3.4641   3.5377   3.9775
     4.6824   5.1988   5.9022   6.0133

          k = 0.0145-0.0743 0.0000 ( 33399 PWs)   bands (ev):

    -6.8210  -5.7736  -5.4591  -5.1812  -5.1566  -5.1316  -5.0831  -4.8675
    -4.8295  -4.7009  -4.6339  -4.5613  -4.4680  -4.3853  -4.1010  -4.0026
    -3.9582  -3.7832  -3.7822  -3.5723  -3.5080  -3.4968  -3.4346  -3.3372
    -3.2351  -3.2091  -3.1162  -3.0678  -3.0003  -2.9534  -2.9265  -2.7762
    -2.7056  -2.6188  -2.5785  -2.4700  -2.3738  -2.3297  -2.2879  -2.1893
    -2.0952  -2.0429  -1.9863  -1.8994  -1.8887  -1.6831  -1.6774  -1.5190
    -1.3586  -1.2838  -1.2020  -1.1153  -1.0774  -1.0602  -0.7707  -0.6524
    -0.6043  -0.5555  -0.4840  -0.3791  -0.2726  -0.2524  -0.1319   0.5420
     0.6954   0.7949   1.5504   1.9698   2.6176   3.3450   3.4637   3.5430
     5.1964   5.2546   5.2940   5.6090

          k = 0.0145-0.0578 0.0000 ( 33394 PWs)   bands (ev):

    -7.1739  -5.7483  -5.6215  -5.3649  -5.3063  -5.2354  -5.2288  -5.0216
    -4.9522  -4.8327  -4.7737  -4.7495  -4.6568  -4.5992  -4.1970  -4.0740
    -3.9006  -3.8068  -3.7150  -3.6162  -3.4812  -3.4679  -3.3772  -3.3050
    -3.2100  -3.1092  -3.0409  -3.0234  -2.9903  -2.9178  -2.9142  -2.7922
    -2.6600  -2.6147  -2.3765  -2.3283  -2.2453  -2.1596  -2.0839  -2.0257
    -1.8492  -1.8411  -1.7894  -1.6825  -1.5865  -1.4227  -1.3674  -1.3405
    -1.3081  -1.1865  -1.1073  -1.0379  -1.0071  -0.8307  -0.6076  -0.5346
    -0.5134  -0.3931  -0.3721  -0.3118  -0.2459  -0.1026  -0.0479   0.5208
     0.5260   0.6842   1.5301   2.4072   2.5957   2.7679   3.4136   3.5605
     4.4226   5.2702   5.3162   5.6855

          k = 0.0145-0.0413 0.0000 ( 33344 PWs)   bands (ev):

    -7.4636  -5.9947  -5.6590  -5.5108  -5.4855  -5.3530  -5.3079  -5.1860
    -5.0232  -5.0004  -4.9309  -4.8488  -4.8135  -4.7630  -4.4427  -4.0618
    -3.9086  -3.7849  -3.7048  -3.5443  -3.5361  -3.4609  -3.4451  -3.2019
    -3.1890  -3.1438  -3.0006  -2.9742  -2.8889  -2.8738  -2.8471  -2.8321
    -2.7356  -2.4611  -2.2970  -2.1466  -2.0677  -2.0457  -1.9483  -1.8458
    -1.7199  -1.5971  -1.5025  -1.4792  -1.3321  -1.2371  -1.1955  -1.0777
    -1.0735  -0.9563  -0.9064  -0.8310  -0.8240  -0.5458  -0.4861  -0.4507
    -0.4065  -0.3137  -0.2479  -0.1734  -0.1397   0.0917   0.1309   0.5065
     0.6415   0.6871   1.5284   2.1112   2.4796   3.0621   3.2196   3.5638
     3.8203   5.0775   5.0928   5.3085

          k = 0.0145-0.0248 0.0000 ( 33322 PWs)   bands (ev):

    -7.6664  -6.1861  -5.7980  -5.6132  -5.5400  -5.4529  -5.3626  -5.3200
    -5.1389  -5.0653  -5.0256  -4.9454  -4.9219  -4.8526  -4.6216  -4.0587
    -3.9149  -3.7946  -3.7616  -3.5808  -3.5243  -3.4573  -3.3986  -3.2772
    -3.1665  -3.0790  -3.0093  -2.9499  -2.8823  -2.8665  -2.8156  -2.7786
    -2.7227  -2.2914  -2.2516  -2.0366  -2.0121  -1.8986  -1.8213  -1.6876
    -1.6531  -1.4184  -1.3697  -1.3335  -1.2338  -1.1687  -1.0252  -0.9055
    -0.7863  -0.7557  -0.6295  -0.6089  -0.5674  -0.5222  -0.3358  -0.2655
    -0.2465  -0.2343  -0.1371  -0.0935  -0.0115  -0.0041   0.4900   0.7339
     0.7385   1.3826   1.6109   1.6295   2.0648   2.9500   3.3047   3.4936
     3.6665   4.8608   4.9058   5.0091

          k = 0.0145-0.0083 0.0000 ( 33301 PWs)   bands (ev):

    -7.7705  -6.2871  -5.8832  -5.6786  -5.5523  -5.5076  -5.3939  -5.3916
    -5.2126  -5.0853  -5.0738  -5.0137  -4.9609  -4.8961  -4.7142  -4.0601
    -3.9138  -3.8069  -3.8003  -3.6060  -3.5561  -3.4547  -3.3413  -3.3014
    -3.1809  -3.0309  -3.0055  -2.9774  -2.9010  -2.8383  -2.8024  -2.7723
    -2.6588  -2.2678  -2.1451  -2.0156  -1.9433  -1.8073  -1.7972  -1.6231
    -1.6184  -1.3458  -1.3153  -1.2199  -1.1482  -1.1429  -0.8498  -0.8327
    -0.7273  -0.6499  -0.6288  -0.4901  -0.4665  -0.4230  -0.2548  -0.2075
    -0.1487  -0.1373  -0.0291  -0.0073   0.0520   0.1791   0.4866   0.9311
     1.3001   1.4313   1.5267   1.9161   2.1552   2.4283   2.9726   3.3310
     3.5556   4.8312   4.8540   4.9388

          k = 0.0291 0.0165 0.0000 ( 33319 PWs)   bands (ev):

    -7.6094  -6.1250  -5.7376  -5.6269  -5.4395  -5.4357  -5.3398  -5.2844
    -5.1403  -5.0291  -5.0029  -4.9456  -4.8357  -4.8284  -4.6215  -4.0253
    -3.8857  -3.7918  -3.7799  -3.5955  -3.4875  -3.4653  -3.4356  -3.3628
    -3.2095  -3.0502  -3.0337  -2.9801  -2.9350  -2.8538  -2.7589  -2.6817
    -2.6787  -2.3840  -2.2460  -2.0672  -2.0465  -1.9670  -1.8177  -1.6610
    -1.6432  -1.5396  -1.4771  -1.3088  -1.2667  -1.2240  -1.0054  -1.0043
    -0.8772  -0.7352  -0.7330  -0.5940  -0.5700  -0.5173  -0.4296  -0.3353
    -0.2336  -0.2310  -0.1658  -0.0888  -0.0428   0.0583   0.1477   0.2936
     0.9999   1.4543   1.4802   1.7615   2.1752   2.3029   3.3286   3.6015
     3.9268   4.8994   4.9438   5.0132

          k = 0.0291 0.0330 0.0000 ( 33333 PWs)   bands (ev):

    -7.4575  -5.9797  -5.6159  -5.5674  -5.4273  -5.3630  -5.2403  -5.2202
    -5.0397  -4.9987  -4.9270  -4.8591  -4.7839  -4.7589  -4.4787  -4.0255
    -3.8995  -3.7871  -3.7329  -3.5514  -3.5409  -3.4444  -3.4375  -3.3229
    -3.2249  -3.1555  -3.0226  -2.9646  -2.8991  -2.8799  -2.7918  -2.7626
    -2.6756  -2.4204  -2.3297  -2.1935  -2.1075  -2.0664  -1.9091  -1.7741
    -1.6777  -1.6663  -1.5342  -1.4160  -1.3662  -1.2534  -1.1788  -1.1526
    -0.9932  -0.9663  -0.8191  -0.7620  -0.7406  -0.6745  -0.6008  -0.4131
    -0.3723  -0.3541  -0.2337  -0.1970  -0.1476   0.0868   0.2058   0.3354
     0.7404   0.7799   1.3845   2.1144   2.2734   2.9704   3.2030   3.5628
     3.8895   5.0792   5.1369   5.3753

          k = 0.0291 0.0495 0.0000 ( 33340 PWs)   bands (ev):

    -7.2129  -5.7552  -5.4925  -5.4588  -5.3732  -5.2524  -5.1724  -5.0630
    -4.9462  -4.8898  -4.7968  -4.7228  -4.7040  -4.6369  -4.2657  -4.0325
    -3.9083  -3.8005  -3.7047  -3.6437  -3.4898  -3.4510  -3.3781  -3.3014
    -3.2727  -3.2235  -3.0478  -2.9778  -2.9631  -2.8812  -2.8691  -2.8136
    -2.6709  -2.5080  -2.4032  -2.3971  -2.1885  -2.1600  -2.0276  -1.9746
    -1.8964  -1.7375  -1.7108  -1.5863  -1.5716  -1.3809  -1.3646  -1.3001
    -1.2543  -1.1779  -1.0709  -0.9784  -0.9595  -0.8840  -0.5856  -0.5115
    -0.4642  -0.4107  -0.2864  -0.2684  -0.2361   0.1274   0.1821   0.3677
     0.3717   0.7277   0.7575   2.5873   2.8659   2.9546   3.1189   3.5389
     4.1243   5.0007   5.2488   5.8229

          k = 0.0291 0.0661 0.0000 ( 33377 PWs)   bands (ev):

    -6.8913  -5.5792  -5.4660  -5.3132  -5.1741  -5.1278  -5.0915  -4.9036
    -4.8595  -4.7171  -4.6330  -4.6065  -4.5506  -4.4529  -4.0951  -3.9966
    -3.9359  -3.8287  -3.7940  -3.6367  -3.4915  -3.4510  -3.4125  -3.3861
    -3.2702  -3.1878  -3.1012  -3.0975  -3.0065  -2.9805  -2.9252  -2.8212
    -2.6866  -2.6391  -2.5955  -2.4516  -2.3545  -2.2184  -2.2140  -2.1511
    -2.0724  -2.0349  -1.9444  -1.8371  -1.7425  -1.5698  -1.5429  -1.4801
    -1.3311  -1.2487  -1.1626  -1.1278  -1.0718  -1.0653  -0.6698  -0.5921
    -0.5117  -0.4319  -0.3869  -0.3255  -0.3206  -0.1439   0.0433   0.1784
     0.3881   0.7748   0.7884   2.3398   2.8000   3.1996   3.3509   4.0862
     4.3794   5.3323   5.4566   5.8317

          k = 0.0291 0.0826 0.0000 ( 33394 PWs)   bands (ev):

    -6.5245  -5.7682  -5.2382  -5.1713  -5.0300  -5.0288  -5.0090  -4.7580
    -4.7103  -4.6014  -4.5033  -4.4557  -4.3711  -4.2326  -4.1289  -4.0607
    -4.0020  -3.7938  -3.6912  -3.6631  -3.5800  -3.5320  -3.4291  -3.3963
    -3.2675  -3.2406  -3.1935  -3.1806  -3.0692  -2.9989  -2.9714  -2.9009
    -2.8081  -2.7141  -2.6542  -2.6096  -2.5223  -2.4331  -2.3740  -2.2788
    -2.2449  -2.1809  -2.0446  -1.8758  -1.7872  -1.7264  -1.6793  -1.5698
    -1.3541  -1.2791  -1.2533  -1.1770  -1.1435  -1.0877  -0.8016  -0.6926
    -0.5536  -0.5470  -0.4991  -0.3920  -0.3391  -0.2688  -0.2076   0.2143
     0.4008   0.8179   1.0527   1.8883   2.7613   3.2973   3.8084   4.3441
     4.8876   5.1269   5.7310   5.8174

          k = 0.0291 0.0991 0.0000 ( 33398 PWs)   bands (ev):

    -6.2475  -5.9867  -5.1425  -5.1077  -4.9914  -4.9912  -4.9718  -4.6714
    -4.6148  -4.5936  -4.4057  -4.3111  -4.2848  -4.2313  -4.1900  -4.0744
    -4.0299  -3.7804  -3.7471  -3.7021  -3.4962  -3.4683  -3.4169  -3.3757
    -3.3643  -3.3335  -3.2571  -3.2411  -3.1221  -3.0236  -2.9498  -2.8711
    -2.8269  -2.8100  -2.7660  -2.6348  -2.5569  -2.5329  -2.4254  -2.3733
    -2.2855  -2.2584  -1.9990  -1.8767  -1.7976  -1.7924  -1.6969  -1.5960
    -1.3565  -1.3187  -1.2754  -1.1789  -1.1514  -1.0855  -0.8577  -0.7626
    -0.6703  -0.5596  -0.5390  -0.4091  -0.3421  -0.3200  -0.2259   0.2268
     0.4052   0.8291   1.2527   1.6357   2.7498   3.2751   4.3198   4.3483
     4.5800   5.3191   5.8843   6.1412

          k = 0.0291-0.0826 0.0000 ( 33394 PWs)   bands (ev):

    -6.5245  -5.7682  -5.2382  -5.1713  -5.0300  -5.0288  -5.0090  -4.7580
    -4.7103  -4.6014  -4.5033  -4.4557  -4.3711  -4.2326  -4.1289  -4.0607
    -4.0020  -3.7938  -3.6912  -3.6631  -3.5800  -3.5320  -3.4291  -3.3963
    -3.2675  -3.2406  -3.1936  -3.1806  -3.0692  -2.9989  -2.9714  -2.9009
    -2.8080  -2.7141  -2.6542  -2.6096  -2.5223  -2.4331  -2.3740  -2.2788
    -2.2449  -2.1809  -2.0446  -1.8758  -1.7872  -1.7264  -1.6793  -1.5698
    -1.3541  -1.2791  -1.2533  -1.1770  -1.1435  -1.0877  -0.8016  -0.6926
    -0.5536  -0.5470  -0.4991  -0.3920  -0.3391  -0.2688  -0.2076   0.2143
     0.4008   0.8179   1.0527   1.8883   2.7613   3.2973   3.8084   4.3441
     4.8877   5.1268   5.7308   5.8174

          k = 0.0291-0.0661 0.0000 ( 33377 PWs)   bands (ev):

    -6.8913  -5.5792  -5.4660  -5.3132  -5.1741  -5.1278  -5.0915  -4.9036
    -4.8595  -4.7171  -4.6330  -4.6065  -4.5506  -4.4529  -4.0951  -3.9966
    -3.9359  -3.8287  -3.7940  -3.6367  -3.4915  -3.4510  -3.4125  -3.3860
    -3.2702  -3.1878  -3.1012  -3.0975  -3.0065  -2.9805  -2.9252  -2.8212
    -2.6866  -2.6391  -2.5956  -2.4516  -2.3545  -2.2184  -2.2140  -2.1511
    -2.0724  -2.0349  -1.9444  -1.8371  -1.7425  -1.5698  -1.5429  -1.4802
    -1.3311  -1.2487  -1.1626  -1.1278  -1.0718  -1.0653  -0.6698  -0.5921
    -0.5117  -0.4319  -0.3869  -0.3255  -0.3206  -0.1439   0.0433   0.1784
     0.3881   0.7748   0.7884   2.3398   2.8000   3.1996   3.3509   4.0862
     4.3794   5.3324   5.4567   5.8319

          k = 0.0291-0.0495 0.0000 ( 33340 PWs)   bands (ev):

    -7.2129  -5.7552  -5.4925  -5.4588  -5.3732  -5.2524  -5.1724  -5.0630
    -4.9462  -4.8898  -4.7968  -4.7228  -4.7040  -4.6369  -4.2657  -4.0325
    -3.9083  -3.8005  -3.7047  -3.6437  -3.4898  -3.4510  -3.3781  -3.3014
    -3.2727  -3.2235  -3.0478  -2.9778  -2.9631  -2.8812  -2.8691  -2.8136
    -2.6709  -2.5080  -2.4032  -2.3971  -2.1885  -2.1600  -2.0276  -1.9746
    -1.8964  -1.7375  -1.7108  -1.5863  -1.5716  -1.3809  -1.3646  -1.3001
    -1.2543  -1.1779  -1.0710  -0.9784  -0.9595  -0.8840  -0.5856  -0.5115
    -0.4642  -0.4107  -0.2864  -0.2684  -0.2361   0.1274   0.1821   0.3677
     0.3717   0.7277   0.7575   2.5873   2.8659   2.9546   3.1189   3.5389
     4.1244   5.0008   5.2488   5.8226

          k = 0.0291-0.0330 0.0000 ( 33333 PWs)   bands (ev):

    -7.4575  -5.9797  -5.6159  -5.5674  -5.4273  -5.3630  -5.2403  -5.2202
    -5.0397  -4.9987  -4.9270  -4.8591  -4.7839  -4.7589  -4.4787  -4.0255
    -3.8995  -3.7871  -3.7329  -3.5514  -3.5409  -3.4444  -3.4375  -3.3229
    -3.2249  -3.1556  -3.0226  -2.9646  -2.8991  -2.8799  -2.7918  -2.7626
    -2.6756  -2.4204  -2.3297  -2.1935  -2.1075  -2.0664  -1.9091  -1.7741
    -1.6777  -1.6664  -1.5342  -1.4160  -1.3663  -1.2534  -1.1788  -1.1526
    -0.9932  -0.9663  -0.8191  -0.7620  -0.7406  -0.6745  -0.6008  -0.4131
    -0.3723  -0.3541  -0.2337  -0.1970  -0.1476   0.0868   0.2058   0.3354
     0.7404   0.7799   1.3845   2.1144   2.2734   2.9704   3.2030   3.5628
     3.8895   5.0794   5.1369   5.3755

          k = 0.0291-0.0165 0.0000 ( 33319 PWs)   bands (ev):

    -7.6094  -6.1250  -5.7376  -5.6269  -5.4395  -5.4357  -5.3398  -5.2844
    -5.1403  -5.0291  -5.0029  -4.9456  -4.8357  -4.8284  -4.6215  -4.0253
    -3.8857  -3.7918  -3.7799  -3.5955  -3.4875  -3.4653  -3.4356  -3.3628
    -3.2095  -3.0502  -3.0337  -2.9801  -2.9350  -2.8538  -2.7589  -2.6817
    -2.6787  -2.3840  -2.2460  -2.0672  -2.0465  -1.9670  -1.8177  -1.6610
    -1.6432  -1.5397  -1.4771  -1.3088  -1.2667  -1.2240  -1.0054  -1.0043
    -0.8772  -0.7352  -0.7330  -0.5940  -0.5700  -0.5173  -0.4296  -0.3353
    -0.2336  -0.2310  -0.1658  -0.0888  -0.0428   0.0583   0.1477   0.2936
     0.9999   1.4543   1.4802   1.7615   2.1752   2.3029   3.3286   3.6015
     3.9268   4.8996   4.9438   5.0134

          k = 0.0291-0.0000 0.0000 ( 33345 PWs)   bands (ev):

    -7.6608  -6.1749  -5.7806  -5.6439  -5.4612  -5.4453  -5.3846  -5.2996
    -5.1766  -5.0392  -5.0260  -4.9756  -4.8536  -4.8513  -4.6717  -4.0262
    -3.8741  -3.8046  -3.7954  -3.6113  -3.5020  -3.4488  -3.4358  -3.3707
    -3.1987  -3.0426  -3.0002  -2.9923  -2.9488  -2.8588  -2.7449  -2.6782
    -2.6530  -2.3747  -2.2201  -2.0272  -2.0037  -1.9254  -1.7991  -1.6366
    -1.6300  -1.4996  -1.4602  -1.2911  -1.2228  -1.1442  -1.0257  -0.8907
    -0.8710  -0.7254  -0.6734  -0.5358  -0.4897  -0.4851  -0.3713  -0.3446
    -0.2036  -0.1842  -0.0990  -0.0719   0.0188   0.0848   0.2363   0.6588
     0.7278   1.4849   1.6037   1.6207   2.1106   2.7083   2.9147   3.6044
     3.7382   4.8228   5.0194   5.0798

          k = 0.0436 0.0248 0.0000 ( 33343 PWs)   bands (ev):

    -7.3501  -5.8702  -5.6064  -5.5132  -5.3291  -5.2619  -5.2309  -5.1224
    -5.0255  -4.9369  -4.8966  -4.8505  -4.7117  -4.6323  -4.4607  -3.9812
    -3.8739  -3.7700  -3.7568  -3.6170  -3.5712  -3.4765  -3.4085  -3.3861
    -3.2734  -3.1361  -3.1022  -3.0440  -2.9260  -2.8512  -2.7231  -2.6652
    -2.5502  -2.4943  -2.4333  -2.3476  -2.1361  -2.0642  -1.9292  -1.9017
    -1.8448  -1.6801  -1.6685  -1.4219  -1.4095  -1.2744  -1.2438  -1.1533
    -1.0616  -0.9548  -0.9314  -0.7984  -0.7034  -0.6765  -0.6636  -0.5369
    -0.4155  -0.3884  -0.3817  -0.3545  -0.2004  -0.0869  -0.0069   0.2683
     0.3078   1.4553   1.4796   2.2319   2.2682   2.3393   2.7359   4.1469
     4.3036   4.9644   5.0931   5.1721

          k = 0.0436 0.0413 0.0000 ( 33331 PWs)   bands (ev):

    -7.1571  -5.6916  -5.5897  -5.3629  -5.2638  -5.2481  -5.0790  -5.0628
    -4.9091  -4.9004  -4.7990  -4.7474  -4.6212  -4.5736  -4.2766  -3.9853
    -3.9025  -3.7832  -3.7514  -3.6863  -3.5108  -3.4624  -3.3890  -3.3425
    -3.3023  -3.2453  -3.1032  -3.0373  -2.9724  -2.8358  -2.8351  -2.7156
    -2.5892  -2.5267  -2.5265  -2.3619  -2.2400  -2.1919  -2.0799  -2.0090
    -1.9836  -1.8269  -1.7104  -1.5352  -1.4885  -1.4363  -1.3900  -1.2809
    -1.2093  -1.2068  -1.0430  -1.0020  -0.8968  -0.8898  -0.7304  -0.5301
    -0.4582  -0.4367  -0.3976  -0.3539  -0.2788  -0.1486   0.0494   0.1716
     0.4887   0.7957   1.4555   2.2423   2.4233   2.6861   3.2711   3.5506
     4.5574   5.2043   5.2924   5.7792

          k = 0.0436 0.0578 0.0000 ( 33350 PWs)   bands (ev):

    -6.8799  -5.5314  -5.4496  -5.3191  -5.1543  -5.1352  -4.9816  -4.9264
    -4.8409  -4.7526  -4.6636  -4.5978  -4.4972  -4.4822  -4.0969  -3.9635
    -3.9373  -3.8225  -3.8196  -3.7217  -3.4986  -3.4615  -3.4380  -3.3712
    -3.2701  -3.2605  -3.1445  -3.0504  -3.0426  -2.9854  -2.8982  -2.7598
    -2.6900  -2.6819  -2.5717  -2.4089  -2.3317  -2.2979  -2.2768  -2.1654
    -2.0728  -2.0695  -1.9228  -1.7630  -1.6265  -1.5133  -1.5036  -1.4279
    -1.2899  -1.2755  -1.2222  -1.1360  -1.0244  -1.0083  -0.6675  -0.6415
    -0.4695  -0.4380  -0.3947  -0.3612  -0.3195  -0.2578   0.1024   0.1660
     0.2513   0.5820   0.8956   2.2610   2.8575   3.0893   3.1873   4.1966
     4.2887   5.3934   5.4881   5.7216

          k = 0.0436 0.0743 0.0000 ( 33398 PWs)   bands (ev):

    -6.5379  -5.4786  -5.4522  -5.1795  -5.0174  -4.9560  -4.8919  -4.7757
    -4.7338  -4.5891  -4.5337  -4.4413  -4.4238  -4.2893  -4.1047  -4.0219
    -3.9184  -3.8836  -3.7826  -3.7515  -3.5490  -3.5464  -3.4710  -3.3888
    -3.2792  -3.2234  -3.2043  -3.1881  -3.1173  -3.0473  -3.0178  -2.8961
    -2.8210  -2.7245  -2.6023  -2.5450  -2.5258  -2.4786  -2.3665  -2.3141
    -2.3113  -2.2069  -1.9996  -1.7367  -1.6579  -1.6160  -1.5515  -1.5493
    -1.3296  -1.2885  -1.2548  -1.1883  -1.0831  -1.0704  -0.7576  -0.6374
    -0.4989  -0.4933  -0.4248  -0.3992  -0.3699  -0.2747  -0.1459   0.1161
     0.1405   0.1744   1.0713   2.1866   2.2964   3.7412   3.8714   4.0752
     5.0578   5.2335   5.6028   5.6304

          k = 0.0436 0.0908 0.0000 ( 33413 PWs)   bands (ev):

    -6.1774  -5.7386  -5.3921  -5.0022  -4.9421  -4.8579  -4.8189  -4.6295
    -4.5524  -4.5330  -4.4016  -4.3722  -4.3392  -4.2053  -4.1943  -4.0709
    -3.9504  -3.9098  -3.7562  -3.7260  -3.5525  -3.5425  -3.4824  -3.4225
    -3.4025  -3.3677  -3.3348  -3.2198  -3.2008  -3.1494  -3.0116  -2.8633
    -2.8387  -2.7347  -2.7104  -2.6738  -2.6130  -2.6071  -2.4912  -2.4288
    -2.3590  -2.3216  -1.8754  -1.7493  -1.7186  -1.6424  -1.5855  -1.4876
    -1.3307  -1.3272  -1.2661  -1.1444  -1.0709  -1.0648  -0.8479  -0.7060
    -0.5427  -0.5321  -0.4839  -0.4620  -0.4328  -0.3153  -0.2451  -0.1974
     0.1613   0.1803   1.3525   1.8679   2.1541   3.9654   4.3406   4.5146
     4.9747   5.0154   5.5465   5.8497

          k = 0.0436 0.1073 0.0000 ( 33413 PWs)   bands (ev):

    -6.1774  -5.7386  -5.3921  -5.0022  -4.9421  -4.8579  -4.8189  -4.6295
    -4.5524  -4.5330  -4.4016  -4.3722  -4.3392  -4.2053  -4.1943  -4.0709
    -3.9504  -3.9098  -3.7562  -3.7260  -3.5525  -3.5425  -3.4824  -3.4225
    -3.4025  -3.3677  -3.3348  -3.2198  -3.2008  -3.1494  -3.0116  -2.8633
    -2.8387  -2.7347  -2.7104  -2.6738  -2.6130  -2.6071  -2.4912  -2.4288
    -2.3590  -2.3216  -1.8754  -1.7493  -1.7186  -1.6424  -1.5855  -1.4876
    -1.3307  -1.3272  -1.2661  -1.1444  -1.0709  -1.0648  -0.8479  -0.7060
    -0.5427  -0.5321  -0.4839  -0.4620  -0.4328  -0.3153  -0.2451  -0.1974
     0.1613   0.1803   1.3525   1.8679   2.1541   3.9654   4.3406   4.5146
     4.9747   5.0154   5.5465   5.8497

          k = 0.0436-0.0743 0.0000 ( 33398 PWs)   bands (ev):

    -6.5379  -5.4786  -5.4522  -5.1795  -5.0174  -4.9560  -4.8919  -4.7757
    -4.7338  -4.5891  -4.5337  -4.4413  -4.4238  -4.2893  -4.1047  -4.0219
    -3.9184  -3.8836  -3.7826  -3.7515  -3.5490  -3.5464  -3.4710  -3.3888
    -3.2792  -3.2234  -3.2043  -3.1881  -3.1173  -3.0473  -3.0178  -2.8961
    -2.8210  -2.7245  -2.6023  -2.5450  -2.5257  -2.4786  -2.3665  -2.3141
    -2.3113  -2.2069  -1.9996  -1.7367  -1.6579  -1.6160  -1.5515  -1.5493
    -1.3295  -1.2885  -1.2548  -1.1883  -1.0831  -1.0704  -0.7576  -0.6374
    -0.4989  -0.4933  -0.4248  -0.3992  -0.3699  -0.2747  -0.1459   0.1161
     0.1405   0.1744   1.0713   2.1866   2.2964   3.7412   3.8714   4.0752
     5.0578   5.2335   5.6028   5.6304

          k = 0.0436-0.0578 0.0000 ( 33350 PWs)   bands (ev):

    -6.8799  -5.5314  -5.4496  -5.3191  -5.1543  -5.1352  -4.9816  -4.9264
    -4.8409  -4.7526  -4.6636  -4.5978  -4.4972  -4.4822  -4.0969  -3.9635
    -3.9373  -3.8225  -3.8196  -3.7216  -3.4986  -3.4615  -3.4380  -3.3712
    -3.2701  -3.2605  -3.1445  -3.0504  -3.0426  -2.9854  -2.8982  -2.7598
    -2.6900  -2.6819  -2.5717  -2.4089  -2.3317  -2.2979  -2.2768  -2.1655
    -2.0728  -2.0695  -1.9228  -1.7630  -1.6265  -1.5133  -1.5036  -1.4280
    -1.2899  -1.2755  -1.2222  -1.1360  -1.0243  -1.0083  -0.6675  -0.6415
    -0.4695  -0.4380  -0.3947  -0.3612  -0.3195  -0.2578   0.1024   0.1660
     0.2513   0.5820   0.8956   2.2610   2.8575   3.0893   3.1873   4.1966
     4.2887   5.3933   5.4881   5.7215

          k = 0.0436-0.0413 0.0000 ( 33331 PWs)   bands (ev):

    -7.1571  -5.6916  -5.5897  -5.3629  -5.2638  -5.2481  -5.0790  -5.0628
    -4.9091  -4.9004  -4.7991  -4.7474  -4.6212  -4.5736  -4.2766  -3.9853
    -3.9025  -3.7832  -3.7514  -3.6863  -3.5108  -3.4624  -3.3890  -3.3425
    -3.3023  -3.2453  -3.1032  -3.0373  -2.9724  -2.8358  -2.8351  -2.7156
    -2.5892  -2.5267  -2.5265  -2.3619  -2.2400  -2.1919  -2.0799  -2.0090
    -1.9836  -1.8269  -1.7104  -1.5352  -1.4885  -1.4363  -1.3900  -1.2809
    -1.2093  -1.2068  -1.0430  -1.0020  -0.8968  -0.8898  -0.7304  -0.5301
    -0.4582  -0.4367  -0.3976  -0.3539  -0.2788  -0.1486   0.0494   0.1716
     0.4887   0.7957   1.4555   2.2423   2.4233   2.6861   3.2711   3.5506
     4.5574   5.2045   5.2924   5.7801

          k = 0.0436-0.0248 0.0000 ( 33343 PWs)   bands (ev):

    -7.3501  -5.8702  -5.6064  -5.5132  -5.3291  -5.2619  -5.2309  -5.1224
    -5.0255  -4.9369  -4.8966  -4.8505  -4.7117  -4.6323  -4.4607  -3.9812
    -3.8739  -3.7700  -3.7568  -3.6170  -3.5712  -3.4765  -3.4085  -3.3861
    -3.2734  -3.1361  -3.1022  -3.0440  -2.9260  -2.8512  -2.7231  -2.6652
    -2.5502  -2.4943  -2.4333  -2.3476  -2.1361  -2.0642  -1.9292  -1.9017
    -1.8448  -1.6801  -1.6685  -1.4219  -1.4095  -1.2744  -1.2438  -1.1533
    -1.0616  -0.9548  -0.9314  -0.7984  -0.7034  -0.6765  -0.6636  -0.5369
    -0.4155  -0.3884  -0.3817  -0.3545  -0.2004  -0.0869  -0.0069   0.2683
     0.3078   1.4553   1.4796   2.2319   2.2682   2.3393   2.7359   4.1470
     4.3036   4.9645   5.0931   5.1721

          k = 0.0436-0.0083 0.0000 ( 33347 PWs)   bands (ev):

    -7.4488  -5.9632  -5.5927  -5.5871  -5.3904  -5.3217  -5.2693  -5.1535
    -5.0923  -4.9551  -4.9400  -4.9013  -4.7556  -4.6637  -4.5688  -3.9804
    -3.8463  -3.7804  -3.7679  -3.6071  -3.5812  -3.4945  -3.4279  -3.4125
    -3.2435  -3.1145  -3.0580  -3.0381  -2.9332  -2.8680  -2.6720  -2.6487
    -2.5361  -2.4727  -2.3855  -2.3385  -2.0497  -1.9821  -1.8366  -1.8282
    -1.7949  -1.6682  -1.6299  -1.3779  -1.3309  -1.2644  -1.1404  -1.0221
    -1.0220  -0.9060  -0.7645  -0.7583  -0.6442  -0.5568  -0.5480  -0.4683
    -0.3720  -0.3629  -0.2834  -0.1507  -0.1040  -0.0690   0.0316   0.1942
     0.6446   0.7434   1.4518   2.0699   2.3214   2.9965   3.0838   3.5176
     3.6436   5.0131   5.1044   5.3204

          k = 0.0436 0.0083 0.0000 ( 33347 PWs)   bands (ev):

    -7.4488  -5.9632  -5.5927  -5.5871  -5.3904  -5.3217  -5.2693  -5.1535
    -5.0923  -4.9551  -4.9400  -4.9013  -4.7556  -4.6637  -4.5688  -3.9804
    -3.8463  -3.7804  -3.7679  -3.6071  -3.5812  -3.4945  -3.4279  -3.4125
    -3.2435  -3.1145  -3.0580  -3.0381  -2.9332  -2.8680  -2.6720  -2.6487
    -2.5361  -2.4727  -2.3855  -2.3385  -2.0497  -1.9821  -1.8366  -1.8282
    -1.7949  -1.6682  -1.6299  -1.3779  -1.3309  -1.2644  -1.1404  -1.0221
    -1.0220  -0.9060  -0.7645  -0.7583  -0.6442  -0.5568  -0.5480  -0.4683
    -0.3720  -0.3629  -0.2834  -0.1507  -0.1040  -0.0690   0.0317   0.1942
     0.6446   0.7434   1.4518   2.0699   2.3214   2.9965   3.0838   3.5176
     3.6437   5.0130   5.1043   5.3203

          k = 0.0581 0.0330 0.0000 ( 33329 PWs)   bands (ev):

    -7.0091  -5.6831  -5.5564  -5.2539  -5.2068  -5.0798  -5.0331  -4.9521
    -4.8853  -4.7973  -4.7849  -4.7078  -4.5585  -4.3728  -4.2397  -3.9437
    -3.9077  -3.8098  -3.7739  -3.7483  -3.5494  -3.5179  -3.4320  -3.3411
    -3.3018  -3.2094  -3.1652  -3.1422  -3.0188  -2.9360  -2.8079  -2.7137
    -2.6398  -2.5396  -2.4615  -2.4171  -2.3515  -2.3129  -2.2415  -2.0921
    -1.9707  -1.8041  -1.7561  -1.5577  -1.5411  -1.4681  -1.4276  -1.2806
    -1.2264  -1.1905  -1.1067  -1.0780  -0.9724  -0.8421  -0.7780  -0.7593
    -0.6974  -0.6011  -0.5135  -0.4321  -0.3544  -0.2893  -0.0892   0.0112
     0.6059   1.4667   1.4918   2.0461   2.3202   2.4242   2.9266   4.3037
     4.3229   5.3943   5.5129   5.5323

          k = 0.0581 0.0495 0.0000 ( 33337 PWs)   bands (ev):

    -6.7869  -5.7286  -5.3701  -5.1351  -5.1283  -5.0355  -4.9359  -4.8925
    -4.7743  -4.7373  -4.6977  -4.5811  -4.4590  -4.3181  -4.0751  -3.9367
    -3.9221  -3.8891  -3.8158  -3.7822  -3.5447  -3.5156  -3.4466  -3.3489
    -3.3136  -3.2170  -3.2027  -3.1408  -3.0714  -3.0199  -2.8521  -2.7493
    -2.7332  -2.5898  -2.5248  -2.5031  -2.4537  -2.3937  -2.3064  -2.2723
    -2.0625  -1.9989  -1.8596  -1.7628  -1.5771  -1.5293  -1.4833  -1.3731
    -1.2989  -1.2666  -1.2332  -1.1797  -0.9977  -0.9945  -0.8036  -0.7676
    -0.7569  -0.5876  -0.4989  -0.4199  -0.3772  -0.3272  -0.1450   0.0021
     0.7690   0.8620   1.5240   1.8763   2.2402   3.2780   3.3036   3.5279
     5.0391   5.2921   5.3725   5.5717

          k = 0.0581 0.0661 0.0000 ( 33398 PWs)   bands (ev):

    -6.4917  -5.7398  -5.1923  -5.1365  -5.0313  -4.8948  -4.8203  -4.8084
    -4.6644  -4.6513  -4.5691  -4.4499  -4.3213  -4.2635  -4.0553  -4.0003
    -3.9531  -3.9007  -3.8589  -3.7713  -3.6037  -3.5432  -3.4816  -3.3963
    -3.3194  -3.2793  -3.2206  -3.1674  -3.1515  -3.0488  -2.9409  -2.8475
    -2.8284  -2.7277  -2.6761  -2.5816  -2.5692  -2.4621  -2.4309  -2.3423
    -2.2076  -2.1566  -1.9923  -1.6723  -1.5601  -1.5528  -1.5204  -1.4843
    -1.3271  -1.3075  -1.2557  -1.1976  -1.0622  -1.0282  -0.8520  -0.7310
    -0.7279  -0.5856  -0.4968  -0.4230  -0.4230  -0.3486  -0.2506  -0.0121
     0.2897   0.7024   1.1510   1.7598   2.8408   3.0022   3.7859   4.1552
     4.9346   5.0859   5.7163   5.7929

          k = 0.0581 0.0826 0.0000 ( 33419 PWs)   bands (ev):

    -6.1468  -5.7333  -5.4123  -4.9284  -4.9263  -4.7466  -4.7210  -4.6830
    -4.5611  -4.5369  -4.4692  -4.3742  -4.2368  -4.1830  -4.1209  -4.0751
    -4.0262  -3.9264  -3.9231  -3.6804  -3.6291  -3.6059  -3.5313  -3.4593
    -3.4480  -3.3373  -3.3229  -3.2072  -3.1570  -3.0862  -3.0767  -2.8984
    -2.8648  -2.7883  -2.7671  -2.7040  -2.6135  -2.5592  -2.5130  -2.3474
    -2.3456  -2.3104  -1.8200  -1.6636  -1.6343  -1.5677  -1.5339  -1.3550
    -1.3351  -1.2998  -1.2676  -1.1112  -1.0733  -0.9649  -0.9200  -0.7097
    -0.6982  -0.5882  -0.5319  -0.4778  -0.4540  -0.3520  -0.3394  -0.1386
    -0.0276   0.1657   1.4044   1.6937   2.2816   3.7489   4.3364   4.5700
     4.8339   5.0369   5.5872   5.7745

          k = 0.0581 0.0991 0.0000 ( 33439 PWs)   bands (ev):

    -5.8654  -5.7282  -5.6559  -4.8840  -4.8484  -4.6905  -4.6554  -4.6082
    -4.4936  -4.4510  -4.4405  -4.3181  -4.2921  -4.2410  -4.1924  -4.0653
    -3.9777  -3.9256  -3.8232  -3.7258  -3.7078  -3.6804  -3.5972  -3.4933
    -3.4733  -3.3882  -3.3386  -3.2547  -3.1276  -3.1207  -3.0756  -2.9505
    -2.8722  -2.8158  -2.7725  -2.6998  -2.6297  -2.6078  -2.5580  -2.3894
    -2.3694  -2.3371  -1.7262  -1.6644  -1.6629  -1.5862  -1.5288  -1.3884
    -1.3290  -1.2686  -1.2273  -1.0575  -0.9672  -0.9514  -0.9072  -0.7059
    -0.6698  -0.5892  -0.5806  -0.5315  -0.4678  -0.3865  -0.3441  -0.3332
    -0.0899  -0.0339   1.6490   1.6730   1.9443   4.3251   4.4770   4.6387
     4.8530   4.9477   5.0447   6.4733

          k = 0.0581 0.1156 0.0000 ( 33419 PWs)   bands (ev):

    -6.1468  -5.7333  -5.4123  -4.9284  -4.9263  -4.7466  -4.7210  -4.6830
    -4.5611  -4.5369  -4.4692  -4.3742  -4.2368  -4.1830  -4.1209  -4.0751
    -4.0262  -3.9264  -3.9231  -3.6804  -3.6291  -3.6059  -3.5313  -3.4593
    -3.4480  -3.3373  -3.3229  -3.2072  -3.1570  -3.0862  -3.0767  -2.8984
    -2.8648  -2.7883  -2.7671  -2.7040  -2.6135  -2.5592  -2.5130  -2.3474
    -2.3456  -2.3104  -1.8200  -1.6636  -1.6343  -1.5677  -1.5339  -1.3550
    -1.3351  -1.2998  -1.2676  -1.1112  -1.0733  -0.9649  -0.9200  -0.7097
    -0.6982  -0.5882  -0.5319  -0.4778  -0.4540  -0.3520  -0.3394  -0.1386
    -0.0276   0.1657   1.4044   1.6937   2.2816   3.7489   4.3364   4.5700
     4.8339   5.0369   5.5871   5.7745

          k = 0.0581-0.0661 0.0000 ( 33398 PWs)   bands (ev):

    -6.4917  -5.7398  -5.1923  -5.1365  -5.0313  -4.8948  -4.8203  -4.8084
    -4.6644  -4.6513  -4.5691  -4.4499  -4.3213  -4.2635  -4.0553  -4.0003
    -3.9531  -3.9007  -3.8589  -3.7713  -3.6037  -3.5432  -3.4816  -3.3963
    -3.3194  -3.2793  -3.2206  -3.1674  -3.1515  -3.0488  -2.9409  -2.8475
    -2.8284  -2.7277  -2.6761  -2.5816  -2.5692  -2.4621  -2.4309  -2.3423
    -2.2076  -2.1566  -1.9923  -1.6723  -1.5601  -1.5528  -1.5204  -1.4843
    -1.3271  -1.3075  -1.2557  -1.1976  -1.0622  -1.0282  -0.8520  -0.7310
    -0.7279  -0.5856  -0.4968  -0.4230  -0.4230  -0.3486  -0.2506  -0.0121
     0.2897   0.7024   1.1510   1.7598   2.8408   3.0022   3.7859   4.1552
     4.9346   5.0859   5.7163   5.7932

          k = 0.0581-0.0495 0.0000 ( 33337 PWs)   bands (ev):

    -6.7869  -5.7286  -5.3701  -5.1351  -5.1283  -5.0355  -4.9358  -4.8925
    -4.7743  -4.7373  -4.6977  -4.5811  -4.4590  -4.3181  -4.0751  -3.9367
    -3.9221  -3.8891  -3.8158  -3.7822  -3.5447  -3.5156  -3.4466  -3.3489
    -3.3136  -3.2170  -3.2027  -3.1408  -3.0714  -3.0199  -2.8521  -2.7493
    -2.7332  -2.5898  -2.5248  -2.5031  -2.4537  -2.3937  -2.3064  -2.2723
    -2.0625  -1.9989  -1.8596  -1.7628  -1.5771  -1.5293  -1.4833  -1.3731
    -1.2989  -1.2666  -1.2332  -1.1797  -0.9977  -0.9945  -0.8036  -0.7676
    -0.7569  -0.5876  -0.4989  -0.4199  -0.3772  -0.3272  -0.1450   0.0021
     0.7690   0.8620   1.5240   1.8763   2.2402   3.2780   3.3036   3.5279
     5.0391   5.2921   5.3725   5.5717

          k = 0.0581-0.0330 0.0000 ( 33329 PWs)   bands (ev):

    -7.0091  -5.6831  -5.5564  -5.2539  -5.2068  -5.0798  -5.0331  -4.9521
    -4.8853  -4.7973  -4.7849  -4.7078  -4.5585  -4.3728  -4.2397  -3.9437
    -3.9077  -3.8098  -3.7739  -3.7483  -3.5494  -3.5179  -3.4320  -3.3411
    -3.3018  -3.2094  -3.1652  -3.1422  -3.0188  -2.9360  -2.8079  -2.7137
    -2.6398  -2.5396  -2.4615  -2.4171  -2.3515  -2.3129  -2.2415  -2.0921
    -1.9707  -1.8041  -1.7561  -1.5577  -1.5411  -1.4681  -1.4276  -1.2806
    -1.2264  -1.1905  -1.1067  -1.0780  -0.9724  -0.8421  -0.7780  -0.7593
    -0.6974  -0.6011  -0.5135  -0.4321  -0.3544  -0.2893  -0.0892   0.0112
     0.6059   1.4667   1.4918   2.0461   2.3202   2.4242   2.9267   4.3037
     4.3229   5.3949   5.5133   5.5323

          k = 0.0581-0.0165 0.0000 ( 33341 PWs)   bands (ev):

    -7.1462  -5.6745  -5.5974  -5.3479  -5.2836  -5.1984  -5.0361  -4.9926
    -4.9665  -4.8436  -4.8108  -4.7920  -4.6133  -4.4112  -4.3974  -3.9385
    -3.8947  -3.7553  -3.7370  -3.7312  -3.5953  -3.5600  -3.4635  -3.3139
    -3.3053  -3.1649  -3.1541  -3.1370  -2.9995  -2.8641  -2.7743  -2.7289
    -2.6273  -2.5294  -2.4088  -2.3626  -2.2860  -2.2794  -2.1580  -1.9195
    -1.8918  -1.7032  -1.6954  -1.5130  -1.4715  -1.3699  -1.3297  -1.2305
    -1.1727  -1.1046  -1.0957  -0.9282  -0.8740  -0.7179  -0.6936  -0.6271
    -0.6016  -0.5226  -0.4883  -0.3562  -0.3531  -0.2598  -0.0833   0.1268
     0.4697   0.7572   1.4512   2.2568   2.4774   2.6692   3.2053   3.5744
     4.2812   5.1848   5.3155   5.6022

          k = 0.0581-0.0000 0.0000 ( 33361 PWs)   bands (ev):

    -7.1925  -5.7148  -5.5127  -5.3898  -5.3803  -5.2116  -5.0391  -5.0073
    -5.0011  -4.8540  -4.8196  -4.8190  -4.6261  -4.4643  -4.4249  -3.9356
    -3.8907  -3.7395  -3.7345  -3.6969  -3.6147  -3.6000  -3.4776  -3.3138
    -3.2983  -3.1699  -3.1610  -3.0787  -3.0141  -2.8394  -2.7608  -2.7412
    -2.6316  -2.5290  -2.3861  -2.3327  -2.2957  -2.2541  -2.1099  -1.8661
    -1.8529  -1.6839  -1.6657  -1.4952  -1.4480  -1.3227  -1.3039  -1.2261
    -1.2050  -1.0965  -1.0387  -0.8529  -0.8336  -0.6853  -0.6831  -0.6235
    -0.5415  -0.5163  -0.3750  -0.3661  -0.2722  -0.0918   0.0670   0.1173
     0.4192   0.5798   0.7933   2.5561   2.8739   3.0162   3.0611   3.3297
     3.8898   4.8778   5.2720   5.7185

          k = 0.0581 0.0165 0.0000 ( 33341 PWs)   bands (ev):

    -7.1462  -5.6745  -5.5974  -5.3479  -5.2836  -5.1984  -5.0361  -4.9926
    -4.9665  -4.8436  -4.8108  -4.7920  -4.6133  -4.4112  -4.3974  -3.9385
    -3.8947  -3.7553  -3.7370  -3.7312  -3.5953  -3.5600  -3.4635  -3.3139
    -3.3053  -3.1649  -3.1541  -3.1370  -2.9995  -2.8641  -2.7743  -2.7289
    -2.6273  -2.5294  -2.4088  -2.3626  -2.2860  -2.2794  -2.1580  -1.9194
    -1.8918  -1.7032  -1.6954  -1.5130  -1.4715  -1.3699  -1.3297  -1.2305
    -1.1726  -1.1046  -1.0957  -0.9282  -0.8740  -0.7179  -0.6936  -0.6271
    -0.6016  -0.5226  -0.4883  -0.3562  -0.3531  -0.2598  -0.0833   0.1268
     0.4697   0.7572   1.4512   2.2568   2.4774   2.6692   3.2053   3.5744
     4.2812   5.1848   5.3154   5.6021

          k = 0.0726 0.0413 0.0000 ( 33342 PWs)   bands (ev):

    -6.6159  -5.8903  -5.2616  -5.1124  -5.0381  -4.9448  -4.8494  -4.7888
    -4.7584  -4.7001  -4.5688  -4.5232  -4.3866  -4.1539  -4.0491  -4.0292
    -3.8762  -3.8746  -3.8489  -3.7993  -3.5816  -3.5592  -3.4798  -3.3598
    -3.3249  -3.2649  -3.2154  -3.2058  -3.1487  -3.0142  -2.9510  -2.9356
    -2.8391  -2.6836  -2.6011  -2.5954  -2.4880  -2.2940  -2.2895  -2.1233
    -1.9897  -1.9522  -1.8937  -1.7515  -1.5782  -1.5730  -1.4841  -1.3698
    -1.3196  -1.2913  -1.2430  -1.2411  -1.1367  -1.0703  -1.0674  -0.9744
    -0.7369  -0.7354  -0.6340  -0.5820  -0.3450  -0.3240  -0.0903  -0.0627
     0.9209   1.4660   1.5040   1.6555   2.3614   2.3927   3.5637   4.2830
     4.2957   4.8979   5.7218   6.2298

          k = 0.0726 0.0578 0.0000 ( 33381 PWs)   bands (ev):

    -6.3851  -6.0018  -5.1229  -5.0716  -5.0062  -4.8527  -4.8294  -4.7358
    -4.7296  -4.5976  -4.5142  -4.4075  -4.2962  -4.1833  -4.0840  -4.0275
    -3.9098  -3.8803  -3.8510  -3.7380  -3.6178  -3.5806  -3.5094  -3.3944
    -3.3645  -3.2883  -3.2401  -3.2020  -3.1726  -3.0969  -2.9694  -2.9675
    -2.8686  -2.7478  -2.6547  -2.5937  -2.5315  -2.4763  -2.3548  -2.1792
    -2.1485  -2.0945  -1.9366  -1.6357  -1.6013  -1.4935  -1.4603  -1.4490
    -1.3350  -1.3057  -1.2594  -1.2401  -1.2270  -1.1232  -1.0431  -1.0179
    -0.7680  -0.7482  -0.6114  -0.5672  -0.3648  -0.3447  -0.1412  -0.0696
     0.8455   1.1114   1.4611   1.5816   2.2170   3.2615   3.5120   3.9493
     4.5862   5.0482   5.9217   6.0783

          k = 0.0726 0.0743 0.0000 ( 33392 PWs)   bands (ev):

    -6.0956  -6.0725  -5.1461  -5.0025  -4.9543  -4.7817  -4.7778  -4.6680
    -4.6576  -4.4930  -4.4519  -4.3255  -4.2726  -4.2121  -4.1195  -4.0409
    -3.9772  -3.9456  -3.8381  -3.6755  -3.6479  -3.5978  -3.5747  -3.4777
    -3.4349  -3.3324  -3.3169  -3.2256  -3.1868  -3.1227  -3.0512  -2.9888
    -2.8372  -2.8242  -2.7345  -2.6816  -2.5938  -2.5413  -2.3411  -2.2559
    -2.1969  -2.1756  -1.8093  -1.6213  -1.5937  -1.5081  -1.4864  -1.3493
    -1.3202  -1.2754  -1.2335  -1.2293  -1.1377  -1.1260  -1.0271  -0.9381
    -0.7923  -0.7432  -0.5904  -0.5550  -0.4182  -0.3796  -0.2307  -0.1049
     0.2956   0.7514   1.3528   1.4751   2.8344   2.9667   4.0971   4.4216
     4.4347   5.1297   6.0505   6.1164

          k = 0.0726 0.0908 0.0000 ( 33432 PWs)   bands (ev):

    -6.1062  -5.7767  -5.4057  -4.9415  -4.8302  -4.7356  -4.7294  -4.6277
    -4.5822  -4.4044  -4.3884  -4.3713  -4.3006  -4.2315  -4.0842  -4.0695
    -3.9833  -3.9234  -3.8626  -3.7668  -3.7119  -3.6787  -3.6082  -3.5315
    -3.4409  -3.3744  -3.3300  -3.2824  -3.1828  -3.1195  -3.0365  -3.0068
    -2.8911  -2.8821  -2.7904  -2.6930  -2.6005  -2.5666  -2.3486  -2.2853
    -2.2309  -2.1576  -1.6589  -1.6145  -1.6066  -1.5633  -1.4705  -1.3896
    -1.3472  -1.2730  -1.2082  -1.1191  -1.0492  -1.0440  -0.9035  -0.8053
    -0.7828  -0.6596  -0.5563  -0.5496  -0.5169  -0.4090  -0.2990  -0.1368
    -0.1186   0.1988   1.2996   1.7855   2.2926   3.7282   4.2693   4.5366
     4.8154   4.9614   5.5848   5.8632

          k = 0.0726 0.1073 0.0000 ( 33432 PWs)   bands (ev):

    -6.1062  -5.7767  -5.4057  -4.9415  -4.8302  -4.7356  -4.7294  -4.6277
    -4.5822  -4.4044  -4.3884  -4.3713  -4.3006  -4.2315  -4.0842  -4.0695
    -3.9833  -3.9234  -3.8626  -3.7669  -3.7119  -3.6787  -3.6082  -3.5315
    -3.4409  -3.3744  -3.3300  -3.2824  -3.1828  -3.1195  -3.0365  -3.0068
    -2.8911  -2.8821  -2.7904  -2.6930  -2.6005  -2.5666  -2.3486  -2.2853
    -2.2309  -2.1576  -1.6589  -1.6145  -1.6066  -1.5633  -1.4705  -1.3896
    -1.3472  -1.2730  -1.2082  -1.1191  -1.0492  -1.0440  -0.9035  -0.8053
    -0.7828  -0.6596  -0.5563  -0.5496  -0.5169  -0.4090  -0.2990  -0.1368
    -0.1186   0.1988   1.2996   1.7856   2.2926   3.7281   4.2693   4.5367
     4.8154   4.9614   5.5848   5.8636

          k = 0.0726 0.1239 0.0000 ( 33392 PWs)   bands (ev):

    -6.0956  -6.0725  -5.1461  -5.0025  -4.9543  -4.7816  -4.7778  -4.6680
    -4.6576  -4.4930  -4.4519  -4.3255  -4.2726  -4.2121  -4.1195  -4.0409
    -3.9772  -3.9456  -3.8381  -3.6755  -3.6479  -3.5978  -3.5747  -3.4777
    -3.4349  -3.3324  -3.3169  -3.2256  -3.1868  -3.1227  -3.0512  -2.9888
    -2.8371  -2.8242  -2.7345  -2.6816  -2.5938  -2.5413  -2.3411  -2.2559
    -2.1969  -2.1756  -1.8093  -1.6213  -1.5937  -1.5081  -1.4864  -1.3493
    -1.3202  -1.2754  -1.2334  -1.2293  -1.1377  -1.1260  -1.0271  -0.9381
    -0.7923  -0.7432  -0.5904  -0.5551  -0.4182  -0.3796  -0.2307  -0.1049
     0.2956   0.7514   1.3528   1.4751   2.8344   2.9667   4.0971   4.4216
     4.4347   5.1297   6.0505   6.1166

          k = 0.0726-0.0578 0.0000 ( 33381 PWs)   bands (ev):

    -6.3851  -6.0018  -5.1229  -5.0716  -5.0062  -4.8527  -4.8294  -4.7358
    -4.7296  -4.5976  -4.5142  -4.4075  -4.2962  -4.1833  -4.0840  -4.0275
    -3.9098  -3.8803  -3.8510  -3.7380  -3.6178  -3.5806  -3.5094  -3.3944
    -3.3645  -3.2883  -3.2401  -3.2020  -3.1726  -3.0969  -2.9695  -2.9675
    -2.8686  -2.7478  -2.6547  -2.5937  -2.5315  -2.4763  -2.3548  -2.1792
    -2.1485  -2.0945  -1.9366  -1.6357  -1.6013  -1.4935  -1.4603  -1.4490
    -1.3350  -1.3057  -1.2594  -1.2401  -1.2270  -1.1232  -1.0431  -1.0179
    -0.7680  -0.7482  -0.6114  -0.5672  -0.3648  -0.3447  -0.1412  -0.0696
     0.8455   1.1114   1.4611   1.5816   2.2170   3.2615   3.5119   3.9493
     4.5862   5.0482   5.9217   6.0783

          k = 0.0726-0.0413 0.0000 ( 33342 PWs)   bands (ev):

    -6.6159  -5.8903  -5.2616  -5.1124  -5.0381  -4.9448  -4.8494  -4.7888
    -4.7584  -4.7001  -4.5688  -4.5232  -4.3866  -4.1539  -4.0491  -4.0292
    -3.8762  -3.8746  -3.8489  -3.7993  -3.5816  -3.5592  -3.4798  -3.3598
    -3.3249  -3.2649  -3.2153  -3.2058  -3.1487  -3.0142  -2.9510  -2.9356
    -2.8391  -2.6836  -2.6011  -2.5954  -2.4880  -2.2940  -2.2895  -2.1233
    -1.9897  -1.9522  -1.8937  -1.7515  -1.5782  -1.5730  -1.4841  -1.3698
    -1.3196  -1.2913  -1.2430  -1.2411  -1.1367  -1.0703  -1.0674  -0.9744
    -0.7369  -0.7354  -0.6340  -0.5820  -0.3450  -0.3240  -0.0903  -0.0627
     0.9209   1.4660   1.5040   1.6555   2.3614   2.3927   3.5637   4.2830
     4.2957   4.8979   5.7218   6.2298

          k = 0.0726-0.0248 0.0000 ( 33354 PWs)   bands (ev):

    -6.7751  -5.7371  -5.3615  -5.1443  -5.1007  -5.0672  -4.8661  -4.8362
    -4.7614  -4.7599  -4.6311  -4.6029  -4.4465  -4.1712  -4.1666  -4.0010
    -3.9121  -3.8548  -3.8091  -3.7685  -3.6049  -3.5329  -3.4960  -3.3643
    -3.3200  -3.2597  -3.1958  -3.1914  -3.1122  -3.0368  -2.9203  -2.8843
    -2.7923  -2.6657  -2.6305  -2.6213  -2.4495  -2.1611  -2.0899  -2.0229
    -1.8941  -1.8553  -1.8143  -1.7184  -1.5852  -1.5467  -1.5078  -1.3341
    -1.3046  -1.2722  -1.2569  -1.2192  -1.0178  -0.9679  -0.8832  -0.7694
    -0.7229  -0.7031  -0.6533  -0.5589  -0.3492  -0.3353  -0.0936  -0.0725
     0.7754   0.8100   1.4564   1.9953   2.2305   3.1866   3.3521   3.5306
     5.0379   5.1684   5.2607   5.5920

          k = 0.0726-0.0083 0.0000 ( 33384 PWs)   bands (ev):

    -6.8561  -5.5502  -5.4129  -5.3230  -5.1357  -5.0655  -4.8784  -4.8775
    -4.7751  -4.7657  -4.6920  -4.6170  -4.4558  -4.2968  -4.1815  -3.9949
    -3.9077  -3.8641  -3.7612  -3.7232  -3.6314  -3.5710  -3.5373  -3.3713
    -3.2907  -3.2644  -3.1891  -3.1689  -3.1062  -3.0368  -2.8889  -2.8699
    -2.7839  -2.6818  -2.6502  -2.6359  -2.4008  -2.0767  -1.9688  -1.9656
    -1.8949  -1.7833  -1.7676  -1.6491  -1.5902  -1.5204  -1.4587  -1.3568
    -1.3566  -1.3100  -1.2547  -1.1637  -0.9330  -0.7942  -0.7440  -0.7241
    -0.7096  -0.6385  -0.4609  -0.4134  -0.3662  -0.3244  -0.1206   0.0446
     0.2503   0.6955   0.7391   2.3384   2.8814   3.0115   3.1854   4.0259
     4.1883   5.2386   5.5190   5.7039

          k = 0.0726 0.0083 0.0000 ( 33384 PWs)   bands (ev):

    -6.8561  -5.5502  -5.4129  -5.3230  -5.1357  -5.0655  -4.8784  -4.8775
    -4.7751  -4.7657  -4.6920  -4.6170  -4.4558  -4.2968  -4.1815  -3.9949
    -3.9077  -3.8641  -3.7612  -3.7232  -3.6314  -3.5710  -3.5373  -3.3713
    -3.2907  -3.2644  -3.1891  -3.1689  -3.1062  -3.0368  -2.8889  -2.8699
    -2.7839  -2.6818  -2.6502  -2.6359  -2.4008  -2.0767  -1.9688  -1.9656
    -1.8949  -1.7833  -1.7676  -1.6491  -1.5902  -1.5204  -1.4587  -1.3568
    -1.3566  -1.3100  -1.2547  -1.1637  -0.9330  -0.7942  -0.7440  -0.7241
    -0.7096  -0.6385  -0.4609  -0.4134  -0.3662  -0.3244  -0.1206   0.0446
     0.2503   0.6955   0.7391   2.3384   2.8814   3.0115   3.1854   4.0259
     4.1883   5.2386   5.5188   5.7039

          k = 0.0726 0.0248 0.0000 ( 33354 PWs)   bands (ev):

    -6.7751  -5.7371  -5.3615  -5.1443  -5.1007  -5.0672  -4.8661  -4.8362
    -4.7615  -4.7599  -4.6311  -4.6029  -4.4465  -4.1712  -4.1666  -4.0010
    -3.9121  -3.8548  -3.8091  -3.7685  -3.6049  -3.5329  -3.4960  -3.3643
    -3.3200  -3.2597  -3.1958  -3.1915  -3.1122  -3.0368  -2.9203  -2.8843
    -2.7923  -2.6657  -2.6305  -2.6213  -2.4495  -2.1611  -2.0899  -2.0229
    -1.8941  -1.8553  -1.8143  -1.7184  -1.5852  -1.5467  -1.5078  -1.3341
    -1.3046  -1.2722  -1.2569  -1.2192  -1.0178  -0.9679  -0.8832  -0.7694
    -0.7229  -0.7031  -0.6533  -0.5589  -0.3492  -0.3353  -0.0936  -0.0725
     0.7754   0.8100   1.4564   1.9953   2.2305   3.1866   3.3521   3.5306
     5.0379   5.1684   5.2606   5.5920

          k =-0.0872-0.0495 0.0000 ( 33390 PWs)   bands (ev):

    -6.2202  -6.2202  -5.1065  -5.1065  -4.9184  -4.9184  -4.7862  -4.7861
    -4.6381  -4.6381  -4.3861  -4.3861  -4.2212  -4.2212  -4.1304  -4.1304
    -3.8725  -3.8725  -3.7443  -3.7443  -3.5748  -3.5747  -3.4529  -3.4529
    -3.3358  -3.3357  -3.2602  -3.2601  -3.1933  -3.1933  -3.0425  -3.0424
    -2.8026  -2.8026  -2.6134  -2.6134  -2.4510  -2.4510  -2.2276  -2.2276
    -2.0779  -2.0779  -1.7318  -1.7318  -1.5127  -1.5127  -1.4565  -1.4565
    -1.3984  -1.3984  -1.3077  -1.3077  -1.2656  -1.2655  -1.0865  -1.0865
    -0.7205  -0.7205  -0.6707  -0.6707  -0.3354  -0.3354  -0.0858  -0.0858
     1.2480   1.2480   1.5138   1.5138   2.3822   2.3823   4.1816   4.1816
     4.3232   4.3232   6.1122   6.1124

          k =-0.0872-0.0330 0.0000 ( 33388 PWs)   bands (ev):

    -6.3736  -6.0120  -5.1317  -5.0632  -4.9783  -4.9137  -4.7930  -4.7700
    -4.6761  -4.5791  -4.4404  -4.3805  -4.2729  -4.1715  -4.1533  -4.1039
    -3.8974  -3.8712  -3.8117  -3.7093  -3.6039  -3.5390  -3.4715  -3.4624
    -3.3799  -3.3196  -3.2742  -3.2590  -3.1976  -3.1867  -3.0584  -3.0264
    -2.8848  -2.7461  -2.6400  -2.6092  -2.5372  -2.3774  -2.2128  -2.1598
    -2.0959  -1.9820  -1.7197  -1.7052  -1.5794  -1.5103  -1.4823  -1.4663
    -1.4266  -1.3043  -1.3007  -1.2841  -1.2050  -1.1657  -1.0989  -0.9759
    -0.7518  -0.6966  -0.6725  -0.6555  -0.3511  -0.3459  -0.1271  -0.0929
     0.8420   1.1024   1.3693   1.6856   2.2154   3.2473   3.5120   3.9436
     4.6064   5.0319   5.9109   5.9515

          k =-0.0872-0.0165 0.0000 ( 33406 PWs)   bands (ev):

    -6.4671  -5.7608  -5.2049  -5.1349  -4.9526  -4.9137  -4.7872  -4.7590
    -4.6811  -4.5278  -4.5207  -4.3892  -4.2855  -4.1627  -4.1508  -4.1141
    -3.9844  -3.8632  -3.8158  -3.7098  -3.6372  -3.5897  -3.4781  -3.4713
    -3.3983  -3.3187  -3.3173  -3.2378  -3.1990  -3.1937  -3.0404  -3.0136
    -2.9487  -2.7810  -2.6600  -2.6189  -2.5477  -2.3559  -2.1622  -2.0729
    -2.0484  -1.8953  -1.6885  -1.6227  -1.6143  -1.5406  -1.5111  -1.4764
    -1.4306  -1.3431  -1.3382  -1.2446  -1.0590  -0.9954  -0.9027  -0.7829
    -0.7320  -0.6998  -0.6403  -0.5877  -0.4203  -0.3708  -0.1612  -0.1312
     0.2719   0.7571   1.0056   1.8635   2.8445   2.9852   3.7386   4.1770
     4.7491   5.0710   5.7331   5.8397

          k =-0.0872 0.0000 0.0000 ( 33387 PWs)   bands (ev):

    -6.4985  -5.5310  -5.4223  -5.1327  -4.9129  -4.9015  -4.7917  -4.7551
    -4.6871  -4.5563  -4.5053  -4.3928  -4.2600  -4.1721  -4.1583  -4.1272
    -4.0537  -3.8145  -3.8052  -3.7220  -3.6629  -3.6553  -3.4735  -3.4672
    -3.3926  -3.3447  -3.3157  -3.2188  -3.2132  -3.1902  -3.0574  -2.9726
    -2.9507  -2.8520  -2.6660  -2.5918  -2.5587  -2.3523  -2.1378  -2.0448
    -2.0209  -1.8581  -1.6651  -1.6276  -1.5653  -1.5490  -1.5157  -1.4734
    -1.4324  -1.3929  -1.3693  -1.2246  -1.0292  -0.8590  -0.7981  -0.7815
    -0.7443  -0.6328  -0.5262  -0.4962  -0.3861  -0.3296  -0.2508  -0.1535
     0.0494   0.2832   0.9727   2.1866   2.3884   3.6163   3.8320   3.9203
     4.9347   5.1951   5.5418   5.6874

          k =-0.0872 0.0165 0.0000 ( 33406 PWs)   bands (ev):

    -6.4671  -5.7608  -5.2049  -5.1349  -4.9526  -4.9137  -4.7872  -4.7590
    -4.6811  -4.5278  -4.5207  -4.3892  -4.2855  -4.1627  -4.1508  -4.1141
    -3.9844  -3.8632  -3.8158  -3.7098  -3.6372  -3.5897  -3.4781  -3.4713
    -3.3983  -3.3187  -3.3173  -3.2378  -3.1990  -3.1937  -3.0404  -3.0136
    -2.9487  -2.7810  -2.6600  -2.6188  -2.5477  -2.3559  -2.1622  -2.0729
    -2.0484  -1.8953  -1.6885  -1.6227  -1.6143  -1.5406  -1.5111  -1.4764
    -1.4306  -1.3431  -1.3382  -1.2446  -1.0590  -0.9954  -0.9027  -0.7829
    -0.7320  -0.6998  -0.6403  -0.5877  -0.4203  -0.3708  -0.1612  -0.1312
     0.2719   0.7571   1.0056   1.8635   2.8445   2.9852   3.7386   4.1770
     4.7491   5.0710   5.7332   5.8397

          k =-0.0872 0.0330 0.0000 ( 33388 PWs)   bands (ev):

    -6.3736  -6.0120  -5.1317  -5.0632  -4.9782  -4.9137  -4.7930  -4.7700
    -4.6761  -4.5791  -4.4404  -4.3805  -4.2729  -4.1715  -4.1533  -4.1039
    -3.8974  -3.8712  -3.8117  -3.7093  -3.6039  -3.5390  -3.4715  -3.4624
    -3.3799  -3.3196  -3.2742  -3.2590  -3.1976  -3.1867  -3.0584  -3.0264
    -2.8848  -2.7461  -2.6400  -2.6092  -2.5372  -2.3774  -2.2128  -2.1598
    -2.0959  -1.9819  -1.7197  -1.7052  -1.5794  -1.5103  -1.4823  -1.4663
    -1.4266  -1.3043  -1.3007  -1.2841  -1.2049  -1.1657  -1.0989  -0.9759
    -0.7518  -0.6966  -0.6725  -0.6555  -0.3511  -0.3459  -0.1271  -0.0929
     0.8420   1.1024   1.3693   1.6856   2.2154   3.2473   3.5120   3.9436
     4.6064   5.0319   5.9106   5.9515

          k =-0.0872-0.1486 0.0000 ( 33390 PWs)   bands (ev):

    -6.2202  -6.2202  -5.1065  -5.1065  -4.9184  -4.9184  -4.7862  -4.7861
    -4.6381  -4.6381  -4.3861  -4.3861  -4.2212  -4.2212  -4.1304  -4.1304
    -3.8725  -3.8725  -3.7443  -3.7443  -3.5748  -3.5748  -3.4529  -3.4529
    -3.3358  -3.3357  -3.2602  -3.2601  -3.1933  -3.1933  -3.0425  -3.0424
    -2.8026  -2.8026  -2.6134  -2.6134  -2.4510  -2.4510  -2.2276  -2.2276
    -2.0779  -2.0779  -1.7318  -1.7318  -1.5127  -1.5127  -1.4565  -1.4565
    -1.3984  -1.3984  -1.3077  -1.3077  -1.2656  -1.2656  -1.0865  -1.0865
    -0.7205  -0.7205  -0.6707  -0.6707  -0.3354  -0.3354  -0.0858  -0.0858
     1.2480   1.2480   1.5138   1.5138   2.3822   2.3823   4.1816   4.1816
     4.3232   4.3232   6.1121   6.1122

     the Fermi energy is     0.1227 ev

!    total energy              =    -915.70123045 Ry
     estimated scf accuracy    <       0.00000263 Ry
     smearing contrib. (-TS)   =      -0.04778974 Ry
     internal energy E=F+TS    =    -915.65344071 Ry

     The total energy is F=E-TS. E is the sum of the following terms:
     one-electron contribution =   -7647.29125853 Ry
     hartree contribution      =    3905.57887539 Ry
     xc contribution           =    -347.46069463 Ry
     ewald contribution        =    3173.51963670 Ry
     electric field correction =       0.00000036 Ry

     convergence has been achieved in  15 iterations

     negative rho (up, down):  1.127E-03 0.000E+00

     Forces acting on atoms (cartesian axes, Ry/au):

     atom    1 type  1   force =     0.00000176    0.00966159    0.00772867
     atom    2 type  1   force =    -0.00000016    0.00966333    0.00773677
     atom    3 type  2   force =    -0.00000650   -0.00299455   -0.02216009
     atom    4 type  2   force =     0.00001029   -0.00299852   -0.02215341
     atom    5 type  1   force =    -0.00000283   -0.01197874    0.00644192
     atom    6 type  1   force =    -0.00000810   -0.01197593    0.00644634
     atom    7 type  2   force =    -0.00000240    0.00582421    0.00813997
     atom    8 type  2   force =    -0.00000297    0.00583055    0.00814150
     atom    9 type  1   force =    -0.00000808   -0.00010953    0.00079848
     atom   10 type  1   force =     0.00000002   -0.00010502    0.00079695
     atom   11 type  2   force =     0.00001064   -0.00041056   -0.00096761
     atom   12 type  2   force =     0.00000833   -0.00040685   -0.00094949

     Total force =     0.043359     Total SCF correction =     0.001328

     Writing output data file ./Pt2Au2/Pt2Au2_beef.save/

     init_run     :     80.52s CPU     80.95s WALL (       1 calls)
     electrons    :   2636.68s CPU   2655.17s WALL (       1 calls)
     forces       :     50.74s CPU     51.15s WALL (       1 calls)

     Called by init_run:
     wfcinit      :     66.91s CPU     67.16s WALL (       1 calls)
     potinit      :      8.36s CPU      8.43s WALL (       1 calls)
     hinit0       :      2.83s CPU      2.84s WALL (       1 calls)

     Called by electrons:
     c_bands      :   2309.39s CPU   2322.50s WALL (      16 calls)
     sum_band     :    292.31s CPU    295.28s WALL (      16 calls)
     v_of_rho     :     26.48s CPU     27.42s WALL (      16 calls)
     newd         :     14.59s CPU     16.08s WALL (      16 calls)
     mix_rho      :      1.74s CPU      1.75s WALL (      16 calls)
     vdW_kernel   :      5.82s CPU      5.83s WALL (       1 calls)

     Called by c_bands:
     init_us_2    :      9.46s CPU      9.55s WALL (    2516 calls)
     cegterg      :   2273.98s CPU   2285.45s WALL (    1184 calls)

     Called by *egterg:
     cdiaghg      :     82.35s CPU     82.48s WALL (    5588 calls)
     h_psi        :   1306.27s CPU   1315.42s WALL (    5736 calls)
     s_psi        :    312.57s CPU    313.38s WALL (    5736 calls)
     g_psi        :      1.02s CPU      1.03s WALL (    4478 calls)

     Called by h_psi:
     h_psi:calbec :    450.94s CPU    452.40s WALL (    5736 calls)
     vloc_psi     :    495.30s CPU    501.99s WALL (    5736 calls)
     add_vuspsi   :    356.58s CPU    357.53s WALL (    5736 calls)

     General routines
     calbec       :    664.03s CPU    666.28s WALL (    7216 calls)
     fft          :     18.15s CPU     18.53s WALL (    1068 calls)
     ffts         :      0.10s CPU      0.11s WALL (      32 calls)
     fftw         :    569.05s CPU    576.44s WALL (  559942 calls)
     interpolate  :      0.28s CPU      0.28s WALL (      16 calls)

     Parallel routines
     fft_scatt_xy :     35.04s CPU     35.37s WALL (  561042 calls)
     fft_scatt_yz :    217.48s CPU    221.36s WALL (  561042 calls)

     PWSCF        :  46m15.77s CPU  46m48.50s WALL


   This run was terminated on:  13:38:20  24Jun2022            

=------------------------------------------------------------------------------=
   JOB DONE.
=------------------------------------------------------------------------------=
