
     Program PWSCF v.6.6 starts on 24Jun2022 at 15:28: 5 

     This program is part of the open-source Quantum ESPRESSO suite
     for quantum simulation of materials; please cite
         "P. Giannozzi et al., J. Phys.:Condens. Matter 21 395502 (2009);
         "P. Giannozzi et al., J. Phys.:Condens. Matter 29 465901 (2017);
          URL http://www.quantum-espresso.org", 
     in publications or presentations arising from this work. More details at
     http://www.quantum-espresso.org/quote

     Parallel version (MPI), running on    37 processors

     MPI processes distributed on     1 nodes
     R & G space division:  proc/nbgrp/npool/nimage =      37
     Fft bands division:     nmany     =       1
     Reading input from Re2Hg2.in
Warning: card &CELL ignored
Warning: card / ignored

     Current dimensions of program PWSCF are:
     Max number of different atomic species (ntypx) = 10
     Max number of k-points (npk) =  40000
     Max angular momentum in pseudopotentials (lmaxx) =  3
     Presently stress not available with electric field and gates

     Message from routine cell_base_init:
     DEPRECATED: use true lattice parameter, not A to a.u. conversion factor
     file Hg.pbe-n-rrkjus_psl.1.0.0.UPF: wavefunction(s)  6S renormalized

     **************************************************************************
     Initializing libbeef V0.1.2 with the BEEF-vdW functional.
     Citation: Wellendorff et al., PRB 85, 235149 (2012).
     **************************************************************************


     IMPORTANT: XC functional enforced from input :
     Exchange-correlation= BEEF-VDW
                           (   1   4  43  14   2   0   0)
     Any further DFT definition will be discarded
     Please, verify this is what you really want


     Subspace diagonalization in iterative solution of the eigenvalue problem:
     a serial algorithm will be used


     Parallelization info
     --------------------
     sticks:   dense  smooth     PW     G-vecs:    dense   smooth      PW
     Min         127      51     14                29755     7523    1152
     Max         128      52     15                29770     7532    1177
     Sum        4719    1889    545              1101211   278521   43191



     bravais-lattice index     =            0
     lattice parameter (alat)  =       1.8897  a.u.
     unit-cell volume          =    5038.7351 (a.u.)^3
     number of atoms/cell      =           12
     number of atomic types    =            2
     number of electrons       =       162.00
     number of Kohn-Sham states=           97
     kinetic-energy cutoff     =      55.1240  Ry
     charge density cutoff     =     551.2396  Ry
     convergence threshold     =      1.0E-05
     mixing beta               =       0.1000
     number of iterations used =           10  plain     mixing
     Exchange-correlation= BEEF-VDW
                           (   1   4  43  14   2   0   0)

     celldm(1)=   1.889726  celldm(2)=   0.000000  celldm(3)=   0.000000
     celldm(4)=   0.000000  celldm(5)=   0.000000  celldm(6)=   0.000000

     crystal axes: (cart. coord. in units of alat)
               a(1) = (   5.584258   0.000000   0.000000 )  
               a(2) = (  -2.792129   5.396137   0.000000 )  
               a(3) = (   0.000000   0.000000  24.778589 )  

     reciprocal axes: (cart. coord. in units 2 pi/alat)
               b(1) = (  0.179075  0.092659 -0.000000 )  
               b(2) = (  0.000000  0.185318  0.000000 )  
               b(3) = (  0.000000 -0.000000  0.040357 )  


     PseudoPot. # 1 for Re read from file:
     ../pseudo/Re.pbe-spn-rrkjus_psl.1.0.0.UPF
     MD5 check sum: 1282f1ec51ad523723a04c61ae80a9e6
     Pseudo is Ultrasoft + core correction, Zval = 15.0
     Generated using "atomic" code by A. Dal Corso v.6.2.2
     Using radial grid of 1275 points,  6 beta functions with: 
                l(1) =   0
                l(2) =   0
                l(3) =   1
                l(4) =   1
                l(5) =   2
                l(6) =   2
     Q(r) pseudized with 0 coefficients 


     PseudoPot. # 2 for Hg read from file:
     ../pseudo/Hg.pbe-n-rrkjus_psl.1.0.0.UPF
     MD5 check sum: 7519ac2e5b9cac440d3cfd4127d6ea3c
     Pseudo is Ultrasoft + core correction, Zval = 12.0
     Generated using "atomic" code by A. Dal Corso v.6.3
     Using radial grid of 1279 points,  6 beta functions with: 
                l(1) =   0
                l(2) =   0
                l(3) =   1
                l(4) =   1
                l(5) =   2
                l(6) =   2
     Q(r) pseudized with 0 coefficients 


     atomic species   valence    mass     pseudopotential
        Re            15.00   186.20700     Re( 1.00)
        Hg            12.00   200.59200     Hg( 1.00)

     No symmetry found



   Cartesian axes

     site n.     atom                  positions (alat units)
         1           Re  tau(   1) = (   0.0000000   0.0000000  10.0000000  )
         2           Re  tau(   2) = (   2.7921291   0.0000000  10.0000000  )
         3           Hg  tau(   3) = (   1.3960646   2.6980685  10.0000000  )
         4           Hg  tau(   4) = (  -1.3960646   2.6980685  10.0000000  )
         5           Re  tau(   5) = (   2.7921291   1.4447344  12.3892943  )
         6           Re  tau(   6) = (  -0.0000000   1.4447344  12.3892943  )
         7           Hg  tau(   7) = (  -1.3960646   4.1428029  12.3892943  )
         8           Hg  tau(   8) = (   1.3960646   4.1428029  12.3892943  )
         9           Re  tau(   9) = (   0.0000863   2.1966867  14.5915623  )
        10           Re  tau(  10) = (   2.7921322   2.1965711  14.5912045  )
        11           Hg  tau(  11) = (   1.3960321   5.0094472  15.3207204  )
        12           Hg  tau(  12) = (  -1.3959959   5.0093886  15.3206749  )

     number of k points=    74  Fermi-Dirac smearing, width (Ry)=  0.0100
                       cart. coord. in units 2pi/alat
        k(    1) = (   0.0000000   0.0000000   0.0000000), wk =   0.0138889
        k(    2) = (   0.0000000   0.0154431   0.0000000), wk =   0.0277778
        k(    3) = (   0.0000000   0.0308863   0.0000000), wk =   0.0277778
        k(    4) = (   0.0000000   0.0463294   0.0000000), wk =   0.0277778
        k(    5) = (   0.0000000   0.0617726   0.0000000), wk =   0.0277778
        k(    6) = (   0.0000000   0.0772157   0.0000000), wk =   0.0277778
        k(    7) = (   0.0000000  -0.0926589   0.0000000), wk =   0.0138889
        k(    8) = (   0.0149229   0.0077216   0.0000000), wk =   0.0277778
        k(    9) = (   0.0149229   0.0231647   0.0000000), wk =   0.0277778
        k(   10) = (   0.0149229   0.0386079   0.0000000), wk =   0.0277778
        k(   11) = (   0.0149229   0.0540510   0.0000000), wk =   0.0277778
        k(   12) = (   0.0149229   0.0694942   0.0000000), wk =   0.0277778
        k(   13) = (   0.0149229   0.0849373   0.0000000), wk =   0.0277778
        k(   14) = (   0.0149229  -0.0849373   0.0000000), wk =   0.0277778
        k(   15) = (   0.0149229  -0.0694942   0.0000000), wk =   0.0277778
        k(   16) = (   0.0149229  -0.0540510   0.0000000), wk =   0.0277778
        k(   17) = (   0.0149229  -0.0386079   0.0000000), wk =   0.0277778
        k(   18) = (   0.0149229  -0.0231647   0.0000000), wk =   0.0277778
        k(   19) = (   0.0149229  -0.0077216   0.0000000), wk =   0.0277778
        k(   20) = (   0.0298458   0.0154431   0.0000000), wk =   0.0277778
        k(   21) = (   0.0298458   0.0308863   0.0000000), wk =   0.0277778
        k(   22) = (   0.0298458   0.0463294   0.0000000), wk =   0.0277778
        k(   23) = (   0.0298458   0.0617726   0.0000000), wk =   0.0277778
        k(   24) = (   0.0298458   0.0772157   0.0000000), wk =   0.0277778
        k(   25) = (   0.0298458   0.0926589   0.0000000), wk =   0.0277778
        k(   26) = (   0.0298458  -0.0772157   0.0000000), wk =   0.0277778
        k(   27) = (   0.0298458  -0.0617726   0.0000000), wk =   0.0277778
        k(   28) = (   0.0298458  -0.0463294   0.0000000), wk =   0.0277778
        k(   29) = (   0.0298458  -0.0308863   0.0000000), wk =   0.0277778
        k(   30) = (   0.0298458  -0.0154431   0.0000000), wk =   0.0277778
        k(   31) = (   0.0298458  -0.0000000   0.0000000), wk =   0.0277778
        k(   32) = (   0.0447687   0.0231647   0.0000000), wk =   0.0277778
        k(   33) = (   0.0447687   0.0386079   0.0000000), wk =   0.0277778
        k(   34) = (   0.0447687   0.0540510   0.0000000), wk =   0.0277778
        k(   35) = (   0.0447687   0.0694942   0.0000000), wk =   0.0277778
        k(   36) = (   0.0447687   0.0849373   0.0000000), wk =   0.0277778
        k(   37) = (   0.0447687   0.1003805   0.0000000), wk =   0.0277778
        k(   38) = (   0.0447687  -0.0694942   0.0000000), wk =   0.0277778
        k(   39) = (   0.0447687  -0.0540510   0.0000000), wk =   0.0277778
        k(   40) = (   0.0447687  -0.0386079   0.0000000), wk =   0.0277778
        k(   41) = (   0.0447687  -0.0231647   0.0000000), wk =   0.0277778
        k(   42) = (   0.0447687  -0.0077216   0.0000000), wk =   0.0277778
        k(   43) = (   0.0447687   0.0077216   0.0000000), wk =   0.0277778
        k(   44) = (   0.0596916   0.0308863   0.0000000), wk =   0.0277778
        k(   45) = (   0.0596916   0.0463294   0.0000000), wk =   0.0277778
        k(   46) = (   0.0596916   0.0617726   0.0000000), wk =   0.0277778
        k(   47) = (   0.0596916   0.0772157   0.0000000), wk =   0.0277778
        k(   48) = (   0.0596916   0.0926589   0.0000000), wk =   0.0277778
        k(   49) = (   0.0596916   0.1081020   0.0000000), wk =   0.0277778
        k(   50) = (   0.0596916  -0.0617726   0.0000000), wk =   0.0277778
        k(   51) = (   0.0596916  -0.0463294   0.0000000), wk =   0.0277778
        k(   52) = (   0.0596916  -0.0308863   0.0000000), wk =   0.0277778
        k(   53) = (   0.0596916  -0.0154431   0.0000000), wk =   0.0277778
        k(   54) = (   0.0596916   0.0000000   0.0000000), wk =   0.0277778
        k(   55) = (   0.0596916   0.0154431   0.0000000), wk =   0.0277778
        k(   56) = (   0.0746145   0.0386079   0.0000000), wk =   0.0277778
        k(   57) = (   0.0746145   0.0540510   0.0000000), wk =   0.0277778
        k(   58) = (   0.0746145   0.0694942   0.0000000), wk =   0.0277778
        k(   59) = (   0.0746145   0.0849373   0.0000000), wk =   0.0277778
        k(   60) = (   0.0746145   0.1003805   0.0000000), wk =   0.0277778
        k(   61) = (   0.0746145   0.1158236   0.0000000), wk =   0.0277778
        k(   62) = (   0.0746145  -0.0540510   0.0000000), wk =   0.0277778
        k(   63) = (   0.0746145  -0.0386079   0.0000000), wk =   0.0277778
        k(   64) = (   0.0746145  -0.0231647   0.0000000), wk =   0.0277778
        k(   65) = (   0.0746145  -0.0077216   0.0000000), wk =   0.0277778
        k(   66) = (   0.0746145   0.0077216   0.0000000), wk =   0.0277778
        k(   67) = (   0.0746145   0.0231647   0.0000000), wk =   0.0277778
        k(   68) = (  -0.0895374  -0.0463294   0.0000000), wk =   0.0138889
        k(   69) = (  -0.0895374  -0.0308863   0.0000000), wk =   0.0277778
        k(   70) = (  -0.0895374  -0.0154431   0.0000000), wk =   0.0277778
        k(   71) = (  -0.0895374   0.0000000   0.0000000), wk =   0.0277778
        k(   72) = (  -0.0895374   0.0154431   0.0000000), wk =   0.0277778
        k(   73) = (  -0.0895374   0.0308863   0.0000000), wk =   0.0277778
        k(   74) = (  -0.0895374  -0.1389883   0.0000000), wk =   0.0138889

     Dense  grid:  1101211 G-vectors     FFT dimensions: (  80,  90, 360)

     Smooth grid:   278521 G-vectors     FFT dimensions: (  50,  60, 225)

     Estimated max dynamical RAM per process >     223.21 MB

     Estimated total dynamical RAM >       8.07 GB

     Initial potential from superposition of free atoms

     starting charge  161.99771, renormalised to  162.00000

     negative rho (up, down):  1.182E-03 0.000E+00


     %%%%%%%%%%%%%%%%%%%%%%%%%%%%%%%%%%%%%%%%%%%%%%%%%%%%%%%%%%%%%%%%%%%%%%%%
     %                                                                      %
     % You are using vdW-DF, which was implemented by the Thonhauser group. %
     % Please cite the following two papers that made this development      %
     % possible and the two reviews that describe the various versions:     %
     %                                                                      %
     %   T. Thonhauser et al., PRL 115, 136402 (2015).                      %
     %   T. Thonhauser et al., PRB 76, 125112 (2007).                       %
     %   K. Berland et al., Rep. Prog. Phys. 78, 066501 (2015).             %
     %   D.C. Langreth et al., J. Phys.: Condens. Matter 21, 084203 (2009). %
     %                                                                      %
     %                                                                      %
     % If you are calculating the stress with vdW-DF, please also cite:     %
     %                                                                      %
     %   R. Sabatini et al., J. Phys.: Condens. Matter 24, 424209 (2012).   %
     %                                                                      %
     %%%%%%%%%%%%%%%%%%%%%%%%%%%%%%%%%%%%%%%%%%%%%%%%%%%%%%%%%%%%%%%%%%%%%%%%



     Adding external electric field

     Computed dipole along edir(3) : 
        Dipole               -0.0002 Ry au,         -0.0006 Debye
        Dipole field         -0.0000 Ry au, 

        Potential amp.        0.0001 Ry
        Total length         45.6541 bohr

     Starting wfcs are  114 randomized atomic wfcs

     total cpu time spent up to now is      104.0 secs

     Self-consistent Calculation

     iteration #  1     ecut=    55.12 Ry     beta= 0.10
     Davidson diagonalization with overlap
     ethr =  1.00E-02,  avg # of iterations =  2.8

     negative rho (up, down):  1.057E-03 0.000E+00

     Adding external electric field

     Computed dipole along edir(3) : 
        Dipole                0.2776 Ry au,          0.7056 Debye
        Dipole field          0.0007 Ry au, 

        Potential amp.       -0.0632 Ry
        Total length         45.6541 bohr


     total cpu time spent up to now is      325.8 secs

     total energy              =   -1681.50758307 Ry
     estimated scf accuracy    <       2.39060793 Ry

     iteration #  2     ecut=    55.12 Ry     beta= 0.10
     Davidson diagonalization with overlap
     ethr =  1.48E-03,  avg # of iterations =  2.7

     negative rho (up, down):  1.026E-03 0.000E+00

     Adding external electric field

     Computed dipole along edir(3) : 
        Dipole               -0.3094 Ry au,         -0.7865 Debye
        Dipole field         -0.0008 Ry au, 

        Potential amp.        0.0705 Ry
        Total length         45.6541 bohr


     total cpu time spent up to now is      540.5 secs

     total energy              =   -1681.52189534 Ry
     estimated scf accuracy    <       1.48020350 Ry

     iteration #  3     ecut=    55.12 Ry     beta= 0.10
     Davidson diagonalization with overlap
     ethr =  9.14E-04,  avg # of iterations =  2.2

     negative rho (up, down):  9.923E-04 0.000E+00

     Adding external electric field

     Computed dipole along edir(3) : 
        Dipole                0.2214 Ry au,          0.5627 Debye
        Dipole field          0.0006 Ry au, 

        Potential amp.       -0.0504 Ry
        Total length         45.6541 bohr


     total cpu time spent up to now is      757.2 secs

     total energy              =   -1681.43128350 Ry
     estimated scf accuracy    <       8.89106294 Ry

     iteration #  4     ecut=    55.12 Ry     beta= 0.10
     Davidson diagonalization with overlap
     ethr =  9.14E-04,  avg # of iterations =  1.9

     negative rho (up, down):  9.757E-04 0.000E+00

     Adding external electric field

     Computed dipole along edir(3) : 
        Dipole                0.1752 Ry au,          0.4453 Debye
        Dipole field          0.0004 Ry au, 

        Potential amp.       -0.0399 Ry
        Total length         45.6541 bohr


     total cpu time spent up to now is      984.6 secs

     total energy              =   -1681.61836984 Ry
     estimated scf accuracy    <       0.19990299 Ry

     iteration #  5     ecut=    55.12 Ry     beta= 0.10
     Davidson diagonalization with overlap
     ethr =  1.23E-04,  avg # of iterations =  8.1

     negative rho (up, down):  9.890E-04 0.000E+00

     Adding external electric field

     Computed dipole along edir(3) : 
        Dipole                0.0908 Ry au,          0.2307 Debye
        Dipole field          0.0002 Ry au, 

        Potential amp.       -0.0207 Ry
        Total length         45.6541 bohr


     total cpu time spent up to now is     1276.7 secs

     total energy              =   -1681.63980916 Ry
     estimated scf accuracy    <       0.10077551 Ry

     iteration #  6     ecut=    55.12 Ry     beta= 0.10
     Davidson diagonalization with overlap
     ethr =  6.22E-05,  avg # of iterations =  2.8

     negative rho (up, down):  1.012E-03 0.000E+00

     Adding external electric field

     Computed dipole along edir(3) : 
        Dipole                0.1265 Ry au,          0.3215 Debye
        Dipole field          0.0003 Ry au, 

        Potential amp.       -0.0288 Ry
        Total length         45.6541 bohr


     total cpu time spent up to now is     1511.3 secs

     total energy              =   -1681.63852685 Ry
     estimated scf accuracy    <       0.09084075 Ry

     iteration #  7     ecut=    55.12 Ry     beta= 0.10
     Davidson diagonalization with overlap
     ethr =  5.61E-05,  avg # of iterations =  2.0

     negative rho (up, down):  1.032E-03 0.000E+00

     Adding external electric field

     Computed dipole along edir(3) : 
        Dipole                0.1529 Ry au,          0.3886 Debye
        Dipole field          0.0004 Ry au, 

        Potential amp.       -0.0348 Ry
        Total length         45.6541 bohr


     total cpu time spent up to now is     1720.7 secs

     total energy              =   -1681.65297511 Ry
     estimated scf accuracy    <       0.01375327 Ry

     iteration #  8     ecut=    55.12 Ry     beta= 0.10
     Davidson diagonalization with overlap
     c_bands:  1 eigenvalues not converged
     c_bands:  1 eigenvalues not converged
     c_bands:  1 eigenvalues not converged
     c_bands:  1 eigenvalues not converged
     ethr =  8.49E-06,  avg # of iterations =  7.9

     negative rho (up, down):  1.065E-03 0.000E+00

     Adding external electric field

     Computed dipole along edir(3) : 
        Dipole                0.1458 Ry au,          0.3706 Debye
        Dipole field          0.0004 Ry au, 

        Potential amp.       -0.0332 Ry
        Total length         45.6541 bohr


     total cpu time spent up to now is     2043.0 secs

     total energy              =   -1681.65218793 Ry
     estimated scf accuracy    <       0.02481970 Ry

     iteration #  9     ecut=    55.12 Ry     beta= 0.10
     Davidson diagonalization with overlap
     ethr =  8.49E-06,  avg # of iterations =  2.1

     negative rho (up, down):  1.090E-03 0.000E+00

     Adding external electric field

     Computed dipole along edir(3) : 
        Dipole                0.1403 Ry au,          0.3565 Debye
        Dipole field          0.0003 Ry au, 

        Potential amp.       -0.0319 Ry
        Total length         45.6541 bohr


     total cpu time spent up to now is     2260.8 secs

     total energy              =   -1681.65488280 Ry
     estimated scf accuracy    <       0.00252185 Ry

     iteration # 10     ecut=    55.12 Ry     beta= 0.10
     Davidson diagonalization with overlap
     c_bands:  1 eigenvalues not converged
     ethr =  1.56E-06,  avg # of iterations =  4.9

     negative rho (up, down):  1.078E-03 0.000E+00

     Adding external electric field

     Computed dipole along edir(3) : 
        Dipole                0.1385 Ry au,          0.3520 Debye
        Dipole field          0.0003 Ry au, 

        Potential amp.       -0.0315 Ry
        Total length         45.6541 bohr


     total cpu time spent up to now is     2485.2 secs

     total energy              =   -1681.65482955 Ry
     estimated scf accuracy    <       0.00116969 Ry

     iteration # 11     ecut=    55.12 Ry     beta= 0.10
     Davidson diagonalization with overlap
     ethr =  7.22E-07,  avg # of iterations =  2.6

     negative rho (up, down):  1.069E-03 0.000E+00

     Adding external electric field

     Computed dipole along edir(3) : 
        Dipole                0.1375 Ry au,          0.3495 Debye
        Dipole field          0.0003 Ry au, 

        Potential amp.       -0.0313 Ry
        Total length         45.6541 bohr


     total cpu time spent up to now is     2705.1 secs

     total energy              =   -1681.65489953 Ry
     estimated scf accuracy    <       0.00032943 Ry

     iteration # 12     ecut=    55.12 Ry     beta= 0.10
     Davidson diagonalization with overlap
     ethr =  2.03E-07,  avg # of iterations =  5.1

     negative rho (up, down):  1.065E-03 0.000E+00

     Adding external electric field

     Computed dipole along edir(3) : 
        Dipole                0.1390 Ry au,          0.3533 Debye
        Dipole field          0.0003 Ry au, 

        Potential amp.       -0.0317 Ry
        Total length         45.6541 bohr


     total cpu time spent up to now is     2993.4 secs

     total energy              =   -1681.65491334 Ry
     estimated scf accuracy    <       0.00036950 Ry

     iteration # 13     ecut=    55.12 Ry     beta= 0.10
     Davidson diagonalization with overlap
     ethr =  2.03E-07,  avg # of iterations =  2.0

     negative rho (up, down):  1.060E-03 0.000E+00

     Adding external electric field

     Computed dipole along edir(3) : 
        Dipole                0.1363 Ry au,          0.3463 Debye
        Dipole field          0.0003 Ry au, 

        Potential amp.       -0.0310 Ry
        Total length         45.6541 bohr


     total cpu time spent up to now is     3212.4 secs

     total energy              =   -1681.65496186 Ry
     estimated scf accuracy    <       0.00012862 Ry

     iteration # 14     ecut=    55.12 Ry     beta= 0.10
     Davidson diagonalization with overlap
     ethr =  7.94E-08,  avg # of iterations =  2.0

     negative rho (up, down):  1.054E-03 0.000E+00

     Adding external electric field

     Computed dipole along edir(3) : 
        Dipole                0.1359 Ry au,          0.3454 Debye
        Dipole field          0.0003 Ry au, 

        Potential amp.       -0.0309 Ry
        Total length         45.6541 bohr


     total cpu time spent up to now is     3424.3 secs

     total energy              =   -1681.65497034 Ry
     estimated scf accuracy    <       0.00002439 Ry

     iteration # 15     ecut=    55.12 Ry     beta= 0.10
     Davidson diagonalization with overlap
     ethr =  1.51E-08,  avg # of iterations =  4.9

     negative rho (up, down):  1.027E-03 0.000E+00

     Adding external electric field

     Computed dipole along edir(3) : 
        Dipole                0.1446 Ry au,          0.3676 Debye
        Dipole field          0.0004 Ry au, 

        Potential amp.       -0.0329 Ry
        Total length         45.6541 bohr


     total cpu time spent up to now is     3691.6 secs

     End of self-consistent calculation

          k = 0.0000 0.0000 0.0000 ( 34907 PWs)   bands (ev):

   -78.8248 -78.7944 -78.5531 -78.5232 -78.5009 -78.4705 -41.1548 -41.0931
   -40.7289 -40.6132 -40.5577 -40.5136 -40.4520 -40.3556 -40.3033 -40.2619
   -40.2077 -40.1971 -40.1178 -40.0640 -39.9927 -39.9399 -39.7603 -39.7159
    -7.8391  -7.2326  -7.0708  -7.0457  -6.9201  -6.8689  -6.6839  -6.5421
    -6.4493  -6.3773  -6.2288  -6.0976  -5.9810  -5.8271  -5.8135  -5.6633
    -5.5227  -5.4731  -5.4354  -5.2895  -5.2031  -5.1699  -5.1451  -5.1380
    -4.9041  -4.8787  -4.8000  -4.6242  -4.6024  -4.5337  -4.4362  -3.9917
    -2.9035  -2.3359  -2.3182  -1.8635  -1.7576  -1.7350  -1.5227  -1.4483
    -0.9988  -0.8297  -0.6890  -0.3839  -0.1831  -0.0791   0.3694   0.5281
     1.0297   1.0648   1.2113   1.3429   1.3737   1.5730   1.7135   1.7857
     2.0294   2.2445   2.4050   2.4352   2.5189   2.5683   2.7131   3.1310
     3.2220   3.2363   3.3920   3.6136   3.8944   4.0863   4.2847   4.6068
     4.6514

          k = 0.0000 0.0154 0.0000 ( 34906 PWs)   bands (ev):

   -78.8248 -78.7945 -78.5531 -78.5232 -78.5009 -78.4705 -41.1548 -41.0931
   -40.7290 -40.6133 -40.5578 -40.5137 -40.4520 -40.3556 -40.3033 -40.2620
   -40.2077 -40.1971 -40.1178 -40.0640 -39.9927 -39.9399 -39.7602 -39.7159
    -7.8155  -7.2233  -7.0593  -7.0323  -6.9085  -6.8646  -6.6696  -6.5298
    -6.4377  -6.3745  -6.2158  -6.0919  -5.9809  -5.8139  -5.7996  -5.6635
    -5.5174  -5.4599  -5.4180  -5.2875  -5.2129  -5.1675  -5.1374  -5.1315
    -4.9041  -4.8695  -4.7972  -4.6244  -4.6002  -4.5322  -4.4362  -3.9915
    -2.9133  -2.4386  -2.3451  -1.9031  -1.7360  -1.7359  -1.5524  -1.4776
    -1.0042  -0.8319  -0.7515  -0.4525  -0.2219  -0.1989   0.3255   0.5744
     0.9039   1.0502   1.1602   1.3329   1.3702   1.4461   1.5701   1.6011
     2.0094   2.0442   2.2323   2.4941   2.6949   2.7910   2.8489   3.1336
     3.1619   3.2215   3.3850   3.8054   4.0510   4.1544   4.3844   4.5823
     4.6087

          k = 0.0000 0.0309 0.0000 ( 34902 PWs)   bands (ev):

   -78.8248 -78.7944 -78.5531 -78.5232 -78.5009 -78.4705 -41.1549 -41.0932
   -40.7290 -40.6135 -40.5578 -40.5137 -40.4521 -40.3556 -40.3033 -40.2621
   -40.2078 -40.1971 -40.1179 -40.0640 -39.9927 -39.9399 -39.7602 -39.7159
    -7.7540  -7.1978  -7.0295  -6.9932  -6.8742  -6.8523  -6.6254  -6.4924
    -6.4050  -6.3669  -6.1804  -6.0767  -5.9799  -5.7758  -5.7589  -5.6642
    -5.5099  -5.4216  -5.3701  -5.2821  -5.2267  -5.1608  -5.1343  -5.1075
    -4.9043  -4.8337  -4.7895  -4.6249  -4.5929  -4.5279  -4.4365  -3.9908
    -3.0093  -2.6497  -2.4181  -1.9715  -1.7510  -1.7369  -1.6498  -1.5511
    -1.0205  -0.8912  -0.8417  -0.6576  -0.3822  -0.3185   0.1911   0.4503
     0.7775   0.8334   0.9571   1.0215   1.2776   1.3603   1.4758   1.5650
     1.6133   2.0663   2.1697   2.6466   2.7438   2.9604   3.0266   3.1347
     3.1854   3.3320   3.3663   3.9394   4.2107   4.3666   4.5052   4.6519
     4.6559

          k = 0.0000 0.0463 0.0000 ( 34856 PWs)   bands (ev):

   -78.8248 -78.7944 -78.5530 -78.5231 -78.5008 -78.4705 -41.1549 -41.0932
   -40.7291 -40.6137 -40.5579 -40.5138 -40.4521 -40.3557 -40.3033 -40.2623
   -40.2078 -40.1970 -40.1179 -40.0640 -39.9926 -39.9398 -39.7603 -39.7159
    -7.6785  -7.1643  -6.9926  -6.9366  -6.8314  -6.8207  -6.5483  -6.4244
    -6.3579  -6.3571  -6.1329  -6.0573  -5.9769  -5.7203  -5.6964  -5.6650
    -5.5017  -5.3805  -5.3058  -5.2751  -5.2329  -5.1513  -5.1285  -5.0857
    -4.9054  -4.7789  -4.7500  -4.6255  -4.5805  -4.5221  -4.4368  -3.9894
    -3.3626  -2.7214  -2.5180  -2.1006  -1.8222  -1.8188  -1.7322  -1.6360
    -1.0450  -1.0441  -0.8762  -0.8698  -0.5370  -0.4480  -0.0212   0.1349
     0.4084   0.4443   0.8485   0.8633   1.2592   1.2662   1.3465   1.5342
     1.5413   2.0236   2.2204   2.5836   2.8281   3.0684   3.1039   3.1661
     3.1929   3.3422   3.7841   3.8077   4.1246   4.6184   4.6600   4.8662
     5.0687

          k = 0.0000 0.0618 0.0000 ( 34828 PWs)   bands (ev):

   -78.8248 -78.7944 -78.5530 -78.5231 -78.5008 -78.4705 -41.1549 -41.0932
   -40.7292 -40.6139 -40.5580 -40.5139 -40.4521 -40.3558 -40.3033 -40.2625
   -40.2079 -40.1971 -40.1179 -40.0640 -39.9927 -39.9398 -39.7602 -39.7159
    -7.6149  -7.1344  -6.9599  -6.8891  -6.8000  -6.7593  -6.4624  -6.3478
    -6.3088  -6.2900  -6.0862  -6.0400  -5.9707  -5.6735  -5.6659  -5.6253
    -5.4781  -5.3566  -5.2685  -5.2566  -5.2189  -5.1413  -5.1274  -5.0666
    -4.9087  -4.7682  -4.6288  -4.6261  -4.5648  -4.5161  -4.4372  -3.9874
    -3.7957  -2.7670  -2.6199  -2.2735  -2.0284  -1.8720  -1.7376  -1.7139
    -1.1863  -1.0763  -1.0216  -0.9260  -0.6670  -0.5782  -0.2457  -0.1489
     0.0805   0.1256   0.6937   0.8359   1.0154   1.2283   1.3324   1.5080
     1.6302   1.9937   2.3772   2.5231   2.7850   3.0513   3.1665   3.2312
     3.2550   3.3200   3.8205   3.9537   4.2776   4.6640   4.7807   5.1182
     5.2928

          k = 0.0000 0.0772 0.0000 ( 34762 PWs)   bands (ev):

   -78.8248 -78.7944 -78.5530 -78.5231 -78.5008 -78.4705 -41.1550 -41.0931
   -40.7293 -40.6141 -40.5580 -40.5139 -40.4521 -40.3558 -40.3033 -40.2626
   -40.2079 -40.1971 -40.1180 -40.0640 -39.9927 -39.9398 -39.7602 -39.7159
    -7.5760  -7.1153  -6.9381  -6.8665  -6.7705  -6.7092  -6.4106  -6.3412
    -6.2724  -6.0746  -6.0525  -6.0286  -5.9635  -5.6826  -5.6666  -5.5678
    -5.4242  -5.3350  -5.2639  -5.2444  -5.1846  -5.1368  -5.1337  -5.0496
    -4.9140  -4.7604  -4.6436  -4.6264  -4.5508  -4.5117  -4.4376  -3.9959
    -3.9853  -2.9726  -2.6969  -2.2736  -2.1908  -1.9368  -1.8432  -1.6815
    -1.2957  -1.1287  -1.1039  -0.9809  -0.7523  -0.6708  -0.3991  -0.3422
    -0.0842  -0.0753   0.5800   0.8090   0.8759   1.1941   1.3219   1.4923
     1.6782   1.9841   2.4801   2.5740   2.7886   3.0111   3.1670   3.2362
     3.3053   3.3285   3.8249   3.8442   4.5096   4.6667   5.0321   5.1300
     5.6438

          k = 0.0000-0.0927 0.0000 ( 34788 PWs)   bands (ev):

   -78.8248 -78.7944 -78.5530 -78.5231 -78.5008 -78.4705 -41.1550 -41.0932
   -40.7293 -40.6142 -40.5579 -40.5139 -40.4522 -40.3558 -40.3033 -40.2627
   -40.2079 -40.1971 -40.1180 -40.0640 -39.9927 -39.9398 -39.7602 -39.7159
    -7.5633  -7.1089  -6.9305  -6.8603  -6.7593  -6.6897  -6.3938  -6.3389
    -6.2592  -6.0402  -6.0244  -5.9603  -5.9249  -5.7325  -5.6669  -5.5458
    -5.3969  -5.2985  -5.2623  -5.2415  -5.1707  -5.1497  -5.1308  -5.0417
    -4.9171  -4.7613  -4.7576  -4.6265  -4.5451  -4.5101  -4.4377  -3.9844
    -3.9517  -3.1258  -2.7257  -2.2515  -2.1738  -2.0504  -1.8682  -1.6610
    -1.3372  -1.1681  -1.1320  -0.9963  -0.7812  -0.7033  -0.4503  -0.4081
    -0.1436  -0.1322   0.5367   0.7986   0.8335   1.1797   1.3180   1.4872
     1.6923   1.9827   2.4646   2.6633   2.7959   2.9963   3.1668   3.2598
     3.3003   3.3472   3.7770   3.8035   4.5508   4.6677   5.0458   5.3990
     5.7578

          k = 0.0149 0.0077 0.0000 ( 34917 PWs)   bands (ev):

   -78.8243 -78.7950 -78.5526 -78.5237 -78.5003 -78.4710 -41.1538 -41.0942
   -40.7202 -40.6123 -40.5587 -40.5051 -40.4436 -40.3547 -40.3042 -40.2610
   -40.2087 -40.2064 -40.1169 -40.0649 -40.0018 -39.9489 -39.7595 -39.7167
    -7.7803  -7.1885  -7.0482  -7.0099  -6.8968  -6.8253  -6.6687  -6.5266
    -6.4281  -6.3822  -6.2256  -6.0763  -5.9616  -5.8114  -5.8112  -5.6458
    -5.5147  -5.4675  -5.4308  -5.3274  -5.2112  -5.2031  -5.1434  -5.1329
    -4.9090  -4.8604  -4.8195  -4.6461  -4.6215  -4.5628  -4.4619  -4.0332
    -2.8888  -2.3131  -2.3115  -1.9656  -1.8580  -1.6994  -1.5881  -1.4002
    -1.1410  -0.8294  -0.6760  -0.3890  -0.1809  -0.0426   0.3389   0.5581
     0.9769   0.9872   1.1336   1.2081   1.4280   1.4964   1.5968   1.7562
     1.9705   2.1153   2.2520   2.3671   2.5499   2.5667   2.8898   3.1237
     3.2121   3.2807   3.3606   3.7332   3.9513   3.9999   4.3338   4.5410
     4.7260

          k = 0.0149 0.0232 0.0000 ( 34866 PWs)   bands (ev):

   -78.8243 -78.7950 -78.5525 -78.5237 -78.5003 -78.4710 -41.1538 -41.0942
   -40.7202 -40.6124 -40.5587 -40.5051 -40.4436 -40.3547 -40.3042 -40.2611
   -40.2087 -40.2064 -40.1169 -40.0649 -40.0018 -39.9489 -39.7595 -39.7167
    -7.7356  -7.1696  -7.0266  -6.9847  -6.8739  -6.8184  -6.6403  -6.5020
    -6.4065  -6.3762  -6.2015  -6.0653  -5.9611  -5.7864  -5.7853  -5.6462
    -5.5098  -5.4387  -5.3981  -5.3248  -5.2244  -5.1996  -5.1312  -5.1233
    -4.9092  -4.8460  -4.8077  -4.6461  -4.6172  -4.5594  -4.4620  -4.0330
    -2.9184  -2.5035  -2.3639  -1.9958  -1.9047  -1.6893  -1.6284  -1.4576
    -1.1400  -0.8591  -0.7832  -0.5040  -0.2439  -0.2412   0.2555   0.5649
     0.8175   0.8546   1.0797   1.1540   1.2187   1.2513   1.5529   1.6103
     1.8899   2.0208   2.1774   2.5184   2.6842   2.8577   2.9710   3.1221
     3.1432   3.2222   3.3708   3.8516   4.1181   4.1774   4.4793   4.6065
     4.7674

          k = 0.0149 0.0386 0.0000 ( 34876 PWs)   bands (ev):

   -78.8243 -78.7950 -78.5525 -78.5236 -78.5003 -78.4710 -41.1538 -41.0942
   -40.7203 -40.6127 -40.5588 -40.5052 -40.4436 -40.3548 -40.3042 -40.2613
   -40.2087 -40.2064 -40.1170 -40.0649 -40.0018 -39.9489 -39.7595 -39.7167
    -7.6637  -7.1367  -6.9919  -6.9363  -6.8295  -6.8063  -6.5804  -6.4508
    -6.3754  -6.3582  -6.1604  -6.0471  -5.9591  -5.7402  -5.7355  -5.6469
    -5.5042  -5.3964  -5.3415  -5.3183  -5.2347  -5.1927  -5.1270  -5.1008
    -4.9098  -4.8255  -4.7642  -4.6455  -4.6081  -4.5528  -4.4620  -4.0326
    -3.1245  -2.6743  -2.4510  -2.0774  -1.9836  -1.7411  -1.6877  -1.5430
    -1.1406  -0.9387  -0.9302  -0.6610  -0.4420  -0.3523   0.0974   0.3133
     0.4420   0.6128   0.8517   1.0715   1.1588   1.2267   1.5000   1.5428
     1.6186   2.0109   2.2194   2.6189   2.7964   2.9530   2.9867   3.1344
     3.1973   3.3933   3.5275   3.8610   3.8897   4.5863   4.6170   4.7655
     5.0945

          k = 0.0149 0.0541 0.0000 ( 34862 PWs)   bands (ev):

   -78.8243 -78.7950 -78.5525 -78.5236 -78.5003 -78.4710 -41.1539 -41.0942
   -40.7204 -40.6129 -40.5589 -40.5052 -40.4436 -40.3548 -40.3042 -40.2615
   -40.2088 -40.2064 -40.1170 -40.0649 -40.0018 -39.9489 -39.7595 -39.7167
    -7.5921  -7.1015  -6.9561  -6.8767  -6.7900  -6.7703  -6.4948  -6.3618
    -6.3555  -6.3130  -6.1140  -6.0281  -5.9542  -5.6866  -5.6712  -5.6472
    -5.4918  -5.3717  -5.3043  -5.2812  -5.2341  -5.1840  -5.1230  -5.0813
    -4.9119  -4.8123  -4.6783  -4.6347  -4.5949  -4.5424  -4.4615  -4.0317
    -3.5423  -2.7060  -2.5519  -2.2245  -2.1422  -1.8107  -1.7214  -1.6359
    -1.1588  -1.0777  -1.0441  -0.7603  -0.6195  -0.4806  -0.1329   0.0144
     0.0929   0.2427   0.8233   0.8934   1.0978   1.2383   1.3748   1.5190
     1.6134   1.9823   2.3143   2.5330   2.8291   2.9764   3.1093   3.1481
     3.2121   3.3960   3.7387   3.8376   4.1257   4.6224   4.8427   5.1948
     5.2952

          k = 0.0149 0.0695 0.0000 ( 34811 PWs)   bands (ev):

   -78.8243 -78.7949 -78.5525 -78.5236 -78.5003 -78.4710 -41.1539 -41.0942
   -40.7204 -40.6131 -40.5589 -40.5053 -40.4437 -40.3549 -40.3042 -40.2616
   -40.2089 -40.2065 -40.1170 -40.0649 -40.0018 -39.9489 -39.7595 -39.7167
    -7.5410  -7.0754  -6.9283  -6.8332  -6.7696  -6.7117  -6.4261  -6.3534
    -6.2694  -6.1751  -6.0748  -6.0134  -5.9468  -5.6642  -5.6491  -5.6072
    -5.4532  -5.3645  -5.2883  -5.2527  -5.2080  -5.1772  -5.1253  -5.0641
    -4.9162  -4.8063  -4.6571  -4.5862  -4.5807  -4.5297  -4.4604  -4.0305
    -3.8890  -2.8201  -2.6410  -2.3865  -2.2468  -1.8552  -1.7532  -1.7113
    -1.2444  -1.2077  -1.0656  -0.8494  -0.7425  -0.5914  -0.3770  -0.2217
    -0.1176   0.0155   0.7420   0.7981   1.0115   1.2227   1.2832   1.4941
     1.7041   1.9687   2.4366   2.4925   2.8179   2.9455   3.0908   3.2190
     3.2801   3.3861   3.6403   3.9026   4.5858   4.6273   5.0329   5.1112
     5.5825

          k = 0.0149 0.0849 0.0000 ( 34797 PWs)   bands (ev):

   -78.8243 -78.7949 -78.5525 -78.5236 -78.5003 -78.4710 -41.1540 -41.0942
   -40.7205 -40.6132 -40.5589 -40.5053 -40.4437 -40.3549 -40.3042 -40.2617
   -40.2089 -40.2064 -40.1171 -40.0649 -40.0018 -39.9489 -39.7595 -39.7167
    -7.5159  -7.0623  -6.9133  -6.8159  -6.7534  -6.6746  -6.3929  -6.3490
    -6.2442  -6.0525  -6.0051  -5.9647  -5.9411  -5.7068  -5.6493  -5.5686
    -5.4079  -5.3474  -5.2661  -5.2466  -5.1830  -5.1781  -5.1346  -5.0516
    -4.9207  -4.8164  -4.6902  -4.6347  -4.5711  -4.5428  -4.4631  -4.0295
    -3.9179  -3.0376  -2.6936  -2.4888  -2.1624  -1.9588  -1.8279  -1.6793
    -1.3295  -1.2867  -1.0408  -0.9441  -0.7784  -0.6533  -0.5291  -0.3473
    -0.2181  -0.0799   0.6577   0.7814   0.9569   1.2136   1.2426   1.4842
     1.7467   1.9657   2.4211   2.5942   2.8250   2.9213   3.0741   3.2148
     3.3361   3.4379   3.5653   3.8725   4.6282   4.7176   5.0913   5.3767
     5.7732

          k = 0.0149-0.0849 0.0000 ( 34797 PWs)   bands (ev):

   -78.8243 -78.7949 -78.5525 -78.5236 -78.5003 -78.4710 -41.1540 -41.0942
   -40.7205 -40.6132 -40.5589 -40.5053 -40.4437 -40.3549 -40.3042 -40.2617
   -40.2089 -40.2064 -40.1171 -40.0649 -40.0018 -39.9489 -39.7595 -39.7167
    -7.5159  -7.0623  -6.9133  -6.8159  -6.7534  -6.6746  -6.3929  -6.3490
    -6.2442  -6.0525  -6.0051  -5.9647  -5.9411  -5.7068  -5.6493  -5.5686
    -5.4079  -5.3474  -5.2661  -5.2466  -5.1830  -5.1781  -5.1346  -5.0516
    -4.9207  -4.8164  -4.6902  -4.6347  -4.5711  -4.5428  -4.4631  -4.0295
    -3.9179  -3.0376  -2.6936  -2.4888  -2.1624  -1.9588  -1.8279  -1.6793
    -1.3295  -1.2867  -1.0408  -0.9441  -0.7784  -0.6533  -0.5291  -0.3473
    -0.2181  -0.0799   0.6577   0.7814   0.9569   1.2136   1.2426   1.4842
     1.7467   1.9657   2.4211   2.5942   2.8250   2.9213   3.0741   3.2148
     3.3361   3.4379   3.5652   3.8725   4.6282   4.7176   5.0913   5.3767
     5.7739

          k = 0.0149-0.0695 0.0000 ( 34811 PWs)   bands (ev):

   -78.8243 -78.7949 -78.5525 -78.5236 -78.5003 -78.4710 -41.1539 -41.0942
   -40.7204 -40.6131 -40.5589 -40.5053 -40.4437 -40.3549 -40.3042 -40.2616
   -40.2089 -40.2065 -40.1170 -40.0649 -40.0018 -39.9489 -39.7595 -39.7167
    -7.5410  -7.0754  -6.9283  -6.8332  -6.7696  -6.7117  -6.4261  -6.3534
    -6.2694  -6.1751  -6.0748  -6.0134  -5.9468  -5.6642  -5.6491  -5.6072
    -5.4532  -5.3645  -5.2883  -5.2527  -5.2080  -5.1772  -5.1253  -5.0641
    -4.9162  -4.8063  -4.6571  -4.5862  -4.5807  -4.5297  -4.4604  -4.0305
    -3.8890  -2.8201  -2.6410  -2.3865  -2.2468  -1.8552  -1.7532  -1.7113
    -1.2444  -1.2077  -1.0656  -0.8494  -0.7425  -0.5914  -0.3770  -0.2217
    -0.1175   0.0155   0.7420   0.7981   1.0115   1.2227   1.2832   1.4941
     1.7041   1.9687   2.4366   2.4925   2.8178   2.9455   3.0908   3.2190
     3.2801   3.3861   3.6403   3.9026   4.5858   4.6273   5.0329   5.1112
     5.5825

          k = 0.0149-0.0541 0.0000 ( 34862 PWs)   bands (ev):

   -78.8243 -78.7950 -78.5525 -78.5236 -78.5003 -78.4710 -41.1539 -41.0942
   -40.7204 -40.6129 -40.5589 -40.5052 -40.4436 -40.3548 -40.3042 -40.2615
   -40.2088 -40.2064 -40.1170 -40.0649 -40.0018 -39.9489 -39.7595 -39.7167
    -7.5921  -7.1015  -6.9561  -6.8767  -6.7900  -6.7703  -6.4948  -6.3618
    -6.3555  -6.3130  -6.1140  -6.0281  -5.9542  -5.6866  -5.6712  -5.6472
    -5.4918  -5.3717  -5.3043  -5.2812  -5.2341  -5.1840  -5.1230  -5.0813
    -4.9119  -4.8123  -4.6783  -4.6347  -4.5949  -4.5424  -4.4615  -4.0317
    -3.5423  -2.7060  -2.5519  -2.2245  -2.1422  -1.8107  -1.7214  -1.6359
    -1.1588  -1.0777  -1.0441  -0.7603  -0.6195  -0.4806  -0.1329   0.0144
     0.0929   0.2427   0.8233   0.8934   1.0978   1.2383   1.3748   1.5190
     1.6134   1.9823   2.3143   2.5330   2.8291   2.9764   3.1093   3.1481
     3.2121   3.3960   3.7386   3.8376   4.1257   4.6224   4.8427   5.1947
     5.2954

          k = 0.0149-0.0386 0.0000 ( 34876 PWs)   bands (ev):

   -78.8243 -78.7950 -78.5525 -78.5236 -78.5003 -78.4710 -41.1538 -41.0942
   -40.7203 -40.6127 -40.5588 -40.5052 -40.4436 -40.3548 -40.3042 -40.2613
   -40.2087 -40.2064 -40.1170 -40.0649 -40.0018 -39.9489 -39.7595 -39.7167
    -7.6637  -7.1367  -6.9919  -6.9363  -6.8296  -6.8063  -6.5804  -6.4508
    -6.3754  -6.3582  -6.1604  -6.0471  -5.9591  -5.7402  -5.7355  -5.6469
    -5.5043  -5.3964  -5.3415  -5.3183  -5.2347  -5.1927  -5.1270  -5.1008
    -4.9098  -4.8255  -4.7642  -4.6455  -4.6081  -4.5528  -4.4620  -4.0326
    -3.1245  -2.6743  -2.4510  -2.0774  -1.9836  -1.7411  -1.6877  -1.5430
    -1.1406  -0.9387  -0.9302  -0.6610  -0.4420  -0.3523   0.0974   0.3133
     0.4420   0.6128   0.8517   1.0714   1.1588   1.2266   1.5001   1.5429
     1.6187   2.0109   2.2194   2.6189   2.7964   2.9530   2.9867   3.1344
     3.1973   3.3933   3.5275   3.8609   3.8897   4.5863   4.6170   4.7655
     5.0945

          k = 0.0149-0.0232 0.0000 ( 34866 PWs)   bands (ev):

   -78.8243 -78.7950 -78.5525 -78.5237 -78.5003 -78.4710 -41.1538 -41.0942
   -40.7202 -40.6124 -40.5587 -40.5051 -40.4436 -40.3547 -40.3042 -40.2611
   -40.2087 -40.2064 -40.1169 -40.0649 -40.0018 -39.9489 -39.7595 -39.7167
    -7.7356  -7.1696  -7.0266  -6.9847  -6.8739  -6.8184  -6.6403  -6.5020
    -6.4065  -6.3762  -6.2015  -6.0653  -5.9611  -5.7864  -5.7853  -5.6462
    -5.5098  -5.4387  -5.3981  -5.3248  -5.2244  -5.1996  -5.1312  -5.1233
    -4.9092  -4.8460  -4.8077  -4.6461  -4.6172  -4.5594  -4.4620  -4.0330
    -2.9184  -2.5035  -2.3638  -1.9958  -1.9047  -1.6893  -1.6284  -1.4576
    -1.1400  -0.8591  -0.7832  -0.5039  -0.2439  -0.2412   0.2555   0.5649
     0.8175   0.8546   1.0797   1.1540   1.2187   1.2513   1.5529   1.6104
     1.8900   2.0208   2.1773   2.5184   2.6842   2.8577   2.9710   3.1221
     3.1433   3.2222   3.3708   3.8516   4.1181   4.1774   4.4793   4.6065
     4.7675

          k = 0.0149-0.0077 0.0000 ( 34917 PWs)   bands (ev):

   -78.8243 -78.7950 -78.5526 -78.5237 -78.5003 -78.4710 -41.1538 -41.0942
   -40.7202 -40.6123 -40.5587 -40.5051 -40.4436 -40.3547 -40.3042 -40.2610
   -40.2087 -40.2064 -40.1169 -40.0649 -40.0018 -39.9489 -39.7595 -39.7167
    -7.7803  -7.1885  -7.0482  -7.0099  -6.8968  -6.8253  -6.6687  -6.5266
    -6.4281  -6.3822  -6.2256  -6.0763  -5.9616  -5.8114  -5.8112  -5.6458
    -5.5147  -5.4675  -5.4308  -5.3274  -5.2112  -5.2031  -5.1434  -5.1329
    -4.9090  -4.8604  -4.8195  -4.6461  -4.6215  -4.5628  -4.4619  -4.0332
    -2.8888  -2.3131  -2.3115  -1.9656  -1.8580  -1.6994  -1.5881  -1.4002
    -1.1410  -0.8294  -0.6760  -0.3890  -0.1809  -0.0426   0.3389   0.5581
     0.9769   0.9872   1.1336   1.2081   1.4280   1.4964   1.5969   1.7562
     1.9705   2.1154   2.2520   2.3671   2.5499   2.5667   2.8898   3.1237
     3.2121   3.2807   3.3606   3.7332   3.9513   3.9999   4.3338   4.5409
     4.7259

          k = 0.0298 0.0154 0.0000 ( 34867 PWs)   bands (ev):

   -78.8228 -78.7965 -78.5510 -78.5252 -78.4988 -78.4726 -41.1507 -41.0973
   -40.6944 -40.6096 -40.5616 -40.4798 -40.4187 -40.3521 -40.3069 -40.2584
   -40.2338 -40.2114 -40.1142 -40.0676 -40.0286 -39.9753 -39.7573 -39.7189
    -7.6062  -7.0688  -6.9820  -6.9035  -6.8281  -6.6931  -6.6240  -6.4798
    -6.4059  -6.3566  -6.2157  -6.0146  -5.9054  -5.8073  -5.7689  -5.5944
    -5.5173  -5.4479  -5.4196  -5.4083  -5.2895  -5.2312  -5.1434  -5.1206
    -4.9239  -4.9237  -4.7952  -4.6926  -4.6810  -4.6344  -4.5349  -4.1619
    -2.8459  -2.5513  -2.2666  -2.2558  -1.8255  -1.8145  -1.5453  -1.4270
    -1.2636  -0.8455  -0.6225  -0.4612  -0.1658  -0.0477   0.2663   0.5612
     0.7990   0.9039   0.9187   1.0284   1.2609   1.2830   1.5357   1.6759
     1.8726   1.9600   2.1690   2.2706   2.5018   2.5546   2.9860   3.0707
     3.1054   3.2633   3.4969   3.6030   3.8996   4.2582   4.4313   4.6261
     4.7729

          k = 0.0298 0.0309 0.0000 ( 34851 PWs)   bands (ev):

   -78.8228 -78.7965 -78.5510 -78.5252 -78.4988 -78.4725 -41.1508 -41.0973
   -40.6945 -40.6098 -40.5616 -40.4799 -40.4188 -40.3521 -40.3068 -40.2585
   -40.2338 -40.2114 -40.1142 -40.0676 -40.0286 -39.9753 -39.7573 -39.7189
    -7.5449  -7.0365  -6.9534  -6.8767  -6.7951  -6.6869  -6.5824  -6.4427
    -6.3986  -6.3269  -6.1858  -5.9994  -5.9038  -5.7753  -5.7384  -5.5949
    -5.5153  -5.4262  -5.3893  -5.3777  -5.2880  -5.2418  -5.1244  -5.1180
    -4.9245  -4.9201  -4.7729  -4.6896  -4.6760  -4.6132  -4.5333  -4.1630
    -2.9140  -2.6297  -2.5048  -2.3412  -1.8512  -1.8465  -1.5663  -1.4043
    -1.3507  -0.9499  -0.7438  -0.5566  -0.2960  -0.2256   0.1796   0.4608
     0.4628   0.6515   0.8537   0.9966   1.1006   1.2529   1.5300   1.5580
     1.8334   1.9251   2.2095   2.5042   2.6300   2.8331   2.9622   3.0553
     3.0907   3.1632   3.5163   3.6326   4.1103   4.1558   4.5326   4.7507
     5.1279

          k = 0.0298 0.0463 0.0000 ( 34885 PWs)   bands (ev):

   -78.8228 -78.7965 -78.5511 -78.5251 -78.4988 -78.4725 -41.1508 -41.0973
   -40.6945 -40.6100 -40.5616 -40.4799 -40.4188 -40.3522 -40.3068 -40.2587
   -40.2338 -40.2115 -40.1143 -40.0676 -40.0287 -39.9753 -39.7573 -39.7189
    -7.4710  -6.9906  -6.9175  -6.8355  -6.7430  -6.6791  -6.5123  -6.3896
    -6.3723  -6.2831  -6.1462  -5.9808  -5.8997  -5.7271  -5.6938  -5.5955
    -5.5096  -5.4272  -5.3456  -5.3227  -5.2853  -5.2469  -5.1142  -5.1060
    -4.9258  -4.9159  -4.7463  -4.6803  -4.6676  -4.5700  -4.5224  -4.1645
    -3.2141  -2.7577  -2.6169  -2.4424  -1.9286  -1.8683  -1.6538  -1.4466
    -1.3723  -1.0978  -0.8851  -0.6813  -0.5069  -0.3256  -0.0295   0.1259
     0.2168   0.4224   0.7139   0.9154   1.1297   1.2520   1.4552   1.5553
     1.6905   1.9285   2.2651   2.5549   2.7911   2.8455   2.9668   3.0143
     3.1005   3.4905   3.5712   3.7434   3.9350   4.4635   4.5214   4.9801
     5.2710

          k = 0.0298 0.0618 0.0000 ( 34838 PWs)   bands (ev):

   -78.8228 -78.7965 -78.5510 -78.5251 -78.4988 -78.4725 -41.1508 -41.0973
   -40.6946 -40.6102 -40.5617 -40.4800 -40.4188 -40.3523 -40.3068 -40.2588
   -40.2338 -40.2116 -40.1143 -40.0676 -40.0287 -39.9753 -39.7572 -39.7189
    -7.4110  -6.9499  -6.8850  -6.7883  -6.6817  -6.6716  -6.4376  -6.3814
    -6.2375  -6.2365  -6.1081  -5.9647  -5.8923  -5.6741  -5.6573  -5.5961
    -5.4945  -5.4295  -5.3145  -5.2781  -5.2777  -5.2391  -5.1120  -5.0904
    -4.9286  -4.9151  -4.7329  -4.6687  -4.6571  -4.5476  -4.4631  -4.1661
    -3.6016  -2.9078  -2.6625  -2.5407  -2.0640  -1.8585  -1.7234  -1.5532
    -1.3508  -1.2281  -1.0267  -0.8322  -0.6647  -0.4326  -0.3075  -0.0317
    -0.0213   0.1917   0.6776   0.8307   1.1150   1.2049   1.3884   1.5998
     1.6713   1.9209   2.3231   2.4356   2.8216   2.8512   3.0237   3.0820
     3.0999   3.4539   3.5495   3.9912   4.3427   4.5285   4.6442   5.2018
     5.3265

          k = 0.0298 0.0772 0.0000 ( 34823 PWs)   bands (ev):

   -78.8227 -78.7965 -78.5510 -78.5251 -78.4988 -78.4725 -41.1509 -41.0974
   -40.6947 -40.6103 -40.5617 -40.4800 -40.4188 -40.3523 -40.3068 -40.2589
   -40.2338 -40.2116 -40.1144 -40.0676 -40.0287 -39.9753 -39.7572 -39.7189
    -7.3755  -6.9260  -6.8633  -6.7528  -6.6664  -6.6303  -6.3906  -6.3758
    -6.2022  -6.0805  -6.0375  -5.9539  -5.8845  -5.6707  -5.6325  -5.5966
    -5.4815  -5.4013  -5.3077  -5.2624  -5.2577  -5.2161  -5.1142  -5.0780
    -4.9321  -4.9250  -4.7331  -4.6655  -4.6480  -4.5481  -4.4749  -4.1674
    -3.7785  -3.0283  -2.8278  -2.6111  -2.0689  -1.8223  -1.7704  -1.6833
    -1.4270  -1.2180  -1.1364  -0.9851  -0.7816  -0.5111  -0.4584  -0.1788
    -0.1374   0.0659   0.6644   0.7651   1.0942   1.1500   1.3572   1.5527
     1.7698   1.9171   2.3495   2.3854   2.7756   2.8512   3.0239   3.0830
     3.2131   3.3730   3.5888   4.0385   4.5306   4.6452   5.0384   5.2329
     5.3250

          k = 0.0298 0.0927 0.0000 ( 34788 PWs)   bands (ev):

   -78.8227 -78.7965 -78.5510 -78.5251 -78.4988 -78.4725 -41.1509 -41.0974
   -40.6947 -40.6104 -40.5617 -40.4800 -40.4188 -40.3523 -40.3068 -40.2590
   -40.2338 -40.2116 -40.1144 -40.0676 -40.0286 -39.9753 -39.7572 -39.7189
    -7.3642  -6.9185  -6.8556  -6.7402  -6.6645  -6.6100  -6.3750  -6.3738
    -6.1900  -6.0703  -5.9499  -5.9019  -5.8813  -5.7193  -5.6167  -5.5969
    -5.4812  -5.3715  -5.3092  -5.2594  -5.2364  -5.2054  -5.1179  -5.0728
    -4.9409  -4.9340  -4.7406  -4.6710  -4.6443  -4.5623  -4.5215  -4.1679
    -3.7546  -3.0741  -2.9546  -2.6368  -1.9636  -1.8781  -1.7957  -1.7268
    -1.4831  -1.1769  -1.1525  -1.0885  -0.8276  -0.5397  -0.5011  -0.2313
    -0.1757   0.0286   0.6598   0.7403   1.0872   1.1281   1.3478   1.5383
     1.8035   1.9165   2.3236   2.4084   2.7573   2.8534   3.0206   3.0809
     3.2630   3.3242   3.6504   4.0092   4.5256   4.6750   5.2178   5.2396
     5.5142

          k = 0.0298-0.0772 0.0000 ( 34823 PWs)   bands (ev):

   -78.8227 -78.7965 -78.5510 -78.5251 -78.4988 -78.4725 -41.1509 -41.0974
   -40.6947 -40.6103 -40.5617 -40.4800 -40.4188 -40.3523 -40.3068 -40.2589
   -40.2338 -40.2116 -40.1144 -40.0676 -40.0287 -39.9753 -39.7572 -39.7189
    -7.3755  -6.9260  -6.8633  -6.7528  -6.6664  -6.6303  -6.3906  -6.3758
    -6.2022  -6.0805  -6.0375  -5.9539  -5.8845  -5.6707  -5.6325  -5.5966
    -5.4815  -5.4013  -5.3077  -5.2624  -5.2577  -5.2161  -5.1142  -5.0780
    -4.9321  -4.9250  -4.7331  -4.6655  -4.6480  -4.5481  -4.4749  -4.1674
    -3.7785  -3.0283  -2.8278  -2.6111  -2.0689  -1.8223  -1.7704  -1.6833
    -1.4270  -1.2180  -1.1364  -0.9851  -0.7816  -0.5111  -0.4584  -0.1788
    -0.1373   0.0659   0.6644   0.7651   1.0942   1.1500   1.3572   1.5528
     1.7698   1.9171   2.3495   2.3855   2.7756   2.8512   3.0239   3.0830
     3.2131   3.3730   3.5888   4.0385   4.5306   4.6452   5.0384   5.2329
     5.3250

          k = 0.0298-0.0618 0.0000 ( 34838 PWs)   bands (ev):

   -78.8228 -78.7965 -78.5510 -78.5251 -78.4988 -78.4725 -41.1508 -41.0973
   -40.6946 -40.6102 -40.5617 -40.4800 -40.4188 -40.3523 -40.3068 -40.2588
   -40.2338 -40.2116 -40.1143 -40.0676 -40.0287 -39.9753 -39.7572 -39.7189
    -7.4110  -6.9499  -6.8850  -6.7883  -6.6817  -6.6716  -6.4376  -6.3814
    -6.2375  -6.2365  -6.1081  -5.9647  -5.8923  -5.6741  -5.6573  -5.5961
    -5.4945  -5.4295  -5.3145  -5.2781  -5.2777  -5.2391  -5.1120  -5.0904
    -4.9286  -4.9151  -4.7329  -4.6687  -4.6571  -4.5476  -4.4631  -4.1661
    -3.6016  -2.9078  -2.6625  -2.5407  -2.0640  -1.8585  -1.7234  -1.5532
    -1.3508  -1.2281  -1.0267  -0.8323  -0.6646  -0.4326  -0.3075  -0.0317
    -0.0214   0.1917   0.6776   0.8307   1.1150   1.2049   1.3885   1.5998
     1.6713   1.9209   2.3232   2.4356   2.8216   2.8512   3.0237   3.0820
     3.0999   3.4539   3.5495   3.9911   4.3427   4.5285   4.6442   5.2017
     5.3264

          k = 0.0298-0.0463 0.0000 ( 34885 PWs)   bands (ev):

   -78.8228 -78.7965 -78.5511 -78.5251 -78.4988 -78.4725 -41.1508 -41.0973
   -40.6945 -40.6100 -40.5616 -40.4799 -40.4188 -40.3522 -40.3068 -40.2587
   -40.2338 -40.2115 -40.1143 -40.0676 -40.0287 -39.9753 -39.7573 -39.7189
    -7.4710  -6.9906  -6.9175  -6.8355  -6.7430  -6.6791  -6.5123  -6.3896
    -6.3723  -6.2831  -6.1462  -5.9808  -5.8997  -5.7271  -5.6938  -5.5955
    -5.5096  -5.4272  -5.3456  -5.3227  -5.2853  -5.2469  -5.1142  -5.1060
    -4.9258  -4.9159  -4.7463  -4.6803  -4.6676  -4.5700  -4.5224  -4.1645
    -3.2141  -2.7577  -2.6169  -2.4424  -1.9286  -1.8683  -1.6538  -1.4466
    -1.3723  -1.0979  -0.8851  -0.6813  -0.5069  -0.3256  -0.0296   0.1259
     0.2167   0.4224   0.7139   0.9154   1.1297   1.2520   1.4552   1.5553
     1.6905   1.9285   2.2651   2.5550   2.7911   2.8455   2.9668   3.0143
     3.1005   3.4904   3.5711   3.7434   3.9350   4.4635   4.5214   4.9801
     5.2710

          k = 0.0298-0.0309 0.0000 ( 34851 PWs)   bands (ev):

   -78.8228 -78.7965 -78.5510 -78.5252 -78.4988 -78.4725 -41.1508 -41.0973
   -40.6945 -40.6098 -40.5616 -40.4799 -40.4188 -40.3521 -40.3068 -40.2585
   -40.2338 -40.2114 -40.1142 -40.0676 -40.0286 -39.9753 -39.7573 -39.7189
    -7.5449  -7.0365  -6.9534  -6.8767  -6.7951  -6.6869  -6.5824  -6.4427
    -6.3986  -6.3269  -6.1858  -5.9994  -5.9038  -5.7753  -5.7384  -5.5949
    -5.5153  -5.4262  -5.3893  -5.3777  -5.2880  -5.2418  -5.1244  -5.1180
    -4.9245  -4.9201  -4.7729  -4.6896  -4.6760  -4.6132  -4.5333  -4.1630
    -2.9140  -2.6297  -2.5048  -2.3412  -1.8512  -1.8465  -1.5663  -1.4043
    -1.3507  -0.9499  -0.7438  -0.5565  -0.2960  -0.2256   0.1797   0.4608
     0.4628   0.6515   0.8537   0.9966   1.1006   1.2529   1.5300   1.5580
     1.8334   1.9251   2.2095   2.5042   2.6300   2.8331   2.9622   3.0553
     3.0907   3.1632   3.5163   3.6326   4.1103   4.1558   4.5326   4.7506
     5.1278

          k = 0.0298-0.0154 0.0000 ( 34867 PWs)   bands (ev):

   -78.8228 -78.7965 -78.5510 -78.5252 -78.4988 -78.4726 -41.1507 -41.0973
   -40.6944 -40.6096 -40.5616 -40.4798 -40.4187 -40.3521 -40.3069 -40.2584
   -40.2338 -40.2114 -40.1142 -40.0676 -40.0286 -39.9753 -39.7573 -39.7189
    -7.6062  -7.0688  -6.9820  -6.9035  -6.8281  -6.6931  -6.6240  -6.4798
    -6.4059  -6.3566  -6.2157  -6.0146  -5.9054  -5.8073  -5.7689  -5.5944
    -5.5173  -5.4479  -5.4196  -5.4083  -5.2895  -5.2312  -5.1434  -5.1206
    -4.9239  -4.9237  -4.7952  -4.6926  -4.6810  -4.6344  -4.5349  -4.1619
    -2.8459  -2.5513  -2.2666  -2.2558  -1.8255  -1.8145  -1.5453  -1.4270
    -1.2636  -0.8455  -0.6225  -0.4612  -0.1658  -0.0477   0.2663   0.5612
     0.7989   0.9039   0.9187   1.0284   1.2609   1.2830   1.5358   1.6759
     1.8726   1.9600   2.1689   2.2706   2.5018   2.5546   2.9860   3.0707
     3.1054   3.2633   3.4969   3.6030   3.8996   4.2582   4.4313   4.6260
     4.7734

          k = 0.0298-0.0000 0.0000 ( 34837 PWs)   bands (ev):

   -78.8227 -78.7965 -78.5510 -78.5252 -78.4988 -78.4725 -41.1507 -41.0973
   -40.6944 -40.6095 -40.5615 -40.4798 -40.4187 -40.3521 -40.3068 -40.2583
   -40.2338 -40.2114 -40.1142 -40.0676 -40.0286 -39.9753 -39.7572 -39.7189
    -7.6299  -7.0798  -6.9928  -6.9129  -6.8392  -6.6954  -6.6373  -6.4919
    -6.4089  -6.3668  -6.2269  -6.0204  -5.9058  -5.8183  -5.7794  -5.5942
    -5.5177  -5.4629  -5.4350  -5.4100  -5.2899  -5.2245  -5.1532  -5.1213
    -4.9251  -4.9238  -4.8027  -4.6930  -4.6826  -4.6405  -4.5351  -4.1615
    -2.8400  -2.5258  -2.2396  -2.1364  -1.8137  -1.8029  -1.5566  -1.4355
    -1.2292  -0.8102  -0.5680  -0.4226  -0.1504   0.0860   0.3162   0.5905
     0.7387   0.8840   1.0468   1.1827   1.3919   1.4283   1.5531   1.6924
     1.7463   1.9418   2.1899   2.2178   2.3871   2.3885   3.0517   3.0922
     3.2202   3.2700   3.5509   3.5562   3.8345   4.0207   4.3725   4.5757
     4.7706

          k = 0.0448 0.0232 0.0000 ( 34840 PWs)   bands (ev):

   -78.8203 -78.7989 -78.5487 -78.5275 -78.4964 -78.4750 -41.1459 -41.1023
   -40.6532 -40.6053 -40.5661 -40.4395 -40.3791 -40.3480 -40.3110 -40.2772
   -40.2541 -40.2158 -40.1100 -40.0719 -40.0711 -40.0170 -39.7537 -39.7224
    -7.3241  -6.9230  -6.8786  -6.7178  -6.7110  -6.5560  -6.4766  -6.4285
    -6.3952  -6.2697  -6.1887  -5.9205  -5.8256  -5.7986  -5.7241  -5.6110
    -5.5123  -5.4815  -5.4089  -5.4069  -5.3659  -5.2573  -5.1529  -5.1038
    -5.0538  -4.9496  -4.8594  -4.7977  -4.7875  -4.6547  -4.5590  -4.3850
    -3.2465  -2.7780  -2.3266  -2.2065  -2.1765  -1.7037  -1.6702  -1.3274
    -1.0626  -0.9793  -0.5863  -0.4874  -0.1271  -0.1207   0.2270   0.3105
     0.5697   0.6682   0.8550   0.9447   1.1275   1.1519   1.5008   1.5242
     1.6851   1.8432   2.0811   2.1885   2.4983   2.5717   2.8047   2.8763
     3.0943   3.3089   3.4086   3.6514   3.6663   4.1522   4.2903   4.6634
     4.9505

          k = 0.0448 0.0386 0.0000 ( 34845 PWs)   bands (ev):

   -78.8203 -78.7989 -78.5487 -78.5275 -78.4964 -78.4750 -41.1459 -41.1023
   -40.6533 -40.6055 -40.5661 -40.4395 -40.3791 -40.3480 -40.3110 -40.2772
   -40.2543 -40.2158 -40.1100 -40.0719 -40.0711 -40.0170 -39.7537 -39.7224
    -7.2541  -6.8792  -6.8471  -6.6956  -6.6770  -6.5092  -6.4647  -6.4231
    -6.3469  -6.2365  -6.1568  -5.9034  -5.8156  -5.7783  -5.7024  -5.6080
    -5.5128  -5.4735  -5.3989  -5.3674  -5.3425  -5.2629  -5.1390  -5.1012
    -5.0546  -4.9503  -4.8526  -4.8020  -4.7842  -4.6541  -4.4846  -4.3894
    -3.3677  -2.9018  -2.4454  -2.4087  -2.1758  -1.7337  -1.6315  -1.3739
    -1.1811  -1.1518  -0.6775  -0.6048  -0.3346  -0.1598   0.1002   0.2350
     0.2486   0.4964   0.7118   0.8225   1.1145   1.2325   1.4693   1.5111
     1.7145   1.8451   2.1006   2.4782   2.5955   2.7416   2.7762   2.9480
     3.0504   3.1404   3.5057   3.7229   3.8257   4.0488   4.4421   4.4846
     5.3831

          k = 0.0448 0.0541 0.0000 ( 34819 PWs)   bands (ev):

   -78.8203 -78.7989 -78.5487 -78.5275 -78.4964 -78.4749 -41.1460 -41.1023
   -40.6533 -40.6057 -40.5661 -40.4396 -40.3791 -40.3481 -40.3110 -40.2772
   -40.2544 -40.2158 -40.1100 -40.0719 -40.0711 -40.0170 -39.7537 -39.7224
    -7.1896  -6.8165  -6.8131  -6.6839  -6.6201  -6.4597  -6.4379  -6.4169
    -6.2537  -6.1974  -6.1201  -5.8880  -5.8053  -5.7473  -5.6800  -5.6061
    -5.5134  -5.4604  -5.3999  -5.3245  -5.3094  -5.2624  -5.1265  -5.0980
    -5.0591  -4.9516  -4.8446  -4.8053  -4.7794  -4.6539  -4.3955  -4.3846
    -3.5161  -3.2260  -2.5176  -2.5036  -2.1593  -1.8028  -1.5925  -1.4902
    -1.3159  -1.2816  -0.8394  -0.7489  -0.4919  -0.2312  -0.1424   0.1248
     0.1416   0.3557   0.5272   0.7500   1.1219   1.2625   1.4452   1.5410
     1.6939   1.8532   2.1113   2.4778   2.7300   2.7322   2.8060   2.8176
     3.1219   3.3265   3.6947   3.7283   4.0534   4.0546   4.4414   4.7578
     5.3221

          k = 0.0448 0.0695 0.0000 ( 34827 PWs)   bands (ev):

   -78.8203 -78.7989 -78.5487 -78.5275 -78.4964 -78.4749 -41.1460 -41.1023
   -40.6534 -40.6058 -40.5661 -40.4396 -40.3792 -40.3482 -40.3110 -40.2772
   -40.2546 -40.2159 -40.1101 -40.0719 -40.0711 -40.0170 -39.7537 -39.7224
    -7.1484  -6.7857  -6.7561  -6.6799  -6.5601  -6.4469  -6.4115  -6.3865
    -6.1664  -6.0987  -6.0861  -5.8776  -5.7945  -5.7180  -5.6779  -5.6115
    -5.5142  -5.4370  -5.3954  -5.2969  -5.2793  -5.2533  -5.1167  -5.0957
    -5.0694  -4.9532  -4.8386  -4.8083  -4.7745  -4.6537  -4.4020  -4.3294
    -3.6498  -3.4970  -2.5994  -2.5859  -2.1305  -1.8605  -1.5948  -1.5742
    -1.4018  -1.3917  -1.0067  -0.8861  -0.6156  -0.3019  -0.2851   0.0237
     0.0364   0.2622   0.4464   0.7173   1.1022   1.2690   1.3846   1.6546
     1.6664   1.8490   2.1130   2.3562   2.6404   2.7240   2.7718   3.0137
     3.1392   3.3096   3.7181   4.0737   4.1633   4.2439   4.4567   5.0186
     5.4760

          k = 0.0448 0.0849 0.0000 ( 34788 PWs)   bands (ev):

   -78.8203 -78.7989 -78.5487 -78.5275 -78.4964 -78.4749 -41.1460 -41.1023
   -40.6535 -40.6059 -40.5661 -40.4397 -40.3792 -40.3482 -40.3110 -40.2772
   -40.2546 -40.2159 -40.1101 -40.0719 -40.0711 -40.0170 -39.7537 -39.7224
    -7.1297  -6.7707  -6.7168  -6.6846  -6.5198  -6.4411  -6.4084  -6.3584
    -6.1521  -6.0639  -5.9311  -5.8719  -5.7874  -5.7209  -5.7009  -5.6201
    -5.5149  -5.4257  -5.3705  -5.2876  -5.2479  -5.2427  -5.1106  -5.1000
    -5.0820  -4.9546  -4.8375  -4.8123  -4.7712  -4.6534  -4.4066  -4.3860
    -3.7282  -3.5406  -2.7442  -2.6339  -2.1048  -1.7943  -1.6480  -1.6424
    -1.5029  -1.3749  -1.1329  -0.9656  -0.6841  -0.3448  -0.3440  -0.0375
    -0.0243   0.2142   0.4254   0.7025   1.0899   1.2637   1.3575   1.6492
     1.7234   1.8446   2.1113   2.2940   2.5755   2.7144   2.7612   3.1123
     3.1402   3.2697   3.7744   4.1583   4.2198   4.4405   4.5103   5.0977
     5.4373

          k = 0.0448 0.1004 0.0000 ( 34788 PWs)   bands (ev):

   -78.8203 -78.7989 -78.5487 -78.5275 -78.4964 -78.4749 -41.1460 -41.1023
   -40.6535 -40.6059 -40.5661 -40.4397 -40.3792 -40.3482 -40.3110 -40.2772
   -40.2546 -40.2159 -40.1101 -40.0719 -40.0711 -40.0170 -39.7537 -39.7224
    -7.1297  -6.7707  -6.7168  -6.6846  -6.5198  -6.4411  -6.4084  -6.3584
    -6.1521  -6.0639  -5.9311  -5.8719  -5.7874  -5.7209  -5.7009  -5.6201
    -5.5149  -5.4257  -5.3705  -5.2876  -5.2479  -5.2427  -5.1106  -5.1000
    -5.0820  -4.9546  -4.8375  -4.8123  -4.7712  -4.6534  -4.4066  -4.3860
    -3.7282  -3.5406  -2.7442  -2.6338  -2.1048  -1.7943  -1.6480  -1.6424
    -1.5029  -1.3749  -1.1329  -0.9656  -0.6841  -0.3448  -0.3440  -0.0375
    -0.0243   0.2142   0.4254   0.7025   1.0899   1.2637   1.3575   1.6492
     1.7234   1.8446   2.1113   2.2940   2.5755   2.7144   2.7612   3.1123
     3.1402   3.2697   3.7744   4.1583   4.2198   4.4405   4.5104   5.0977
     5.4375

          k = 0.0448-0.0695 0.0000 ( 34827 PWs)   bands (ev):

   -78.8203 -78.7989 -78.5487 -78.5275 -78.4964 -78.4749 -41.1460 -41.1023
   -40.6534 -40.6058 -40.5661 -40.4396 -40.3792 -40.3482 -40.3110 -40.2772
   -40.2546 -40.2159 -40.1101 -40.0719 -40.0711 -40.0170 -39.7537 -39.7224
    -7.1484  -6.7857  -6.7561  -6.6799  -6.5601  -6.4469  -6.4115  -6.3865
    -6.1664  -6.0987  -6.0861  -5.8776  -5.7945  -5.7180  -5.6779  -5.6115
    -5.5142  -5.4370  -5.3954  -5.2969  -5.2793  -5.2533  -5.1167  -5.0957
    -5.0694  -4.9532  -4.8386  -4.8083  -4.7745  -4.6537  -4.4020  -4.3294
    -3.6498  -3.4970  -2.5994  -2.5859  -2.1305  -1.8605  -1.5948  -1.5742
    -1.4018  -1.3917  -1.0068  -0.8861  -0.6156  -0.3019  -0.2851   0.0237
     0.0363   0.2622   0.4463   0.7173   1.1022   1.2690   1.3846   1.6546
     1.6664   1.8490   2.1130   2.3562   2.6404   2.7240   2.7718   3.0137
     3.1392   3.3096   3.7181   4.0737   4.1633   4.2439   4.4567   5.0186
     5.4760

          k = 0.0448-0.0541 0.0000 ( 34819 PWs)   bands (ev):

   -78.8203 -78.7989 -78.5487 -78.5275 -78.4964 -78.4749 -41.1460 -41.1023
   -40.6533 -40.6057 -40.5661 -40.4396 -40.3791 -40.3481 -40.3110 -40.2772
   -40.2544 -40.2158 -40.1100 -40.0719 -40.0711 -40.0170 -39.7537 -39.7224
    -7.1896  -6.8165  -6.8131  -6.6839  -6.6201  -6.4597  -6.4379  -6.4169
    -6.2537  -6.1974  -6.1201  -5.8880  -5.8053  -5.7473  -5.6800  -5.6061
    -5.5134  -5.4604  -5.3999  -5.3245  -5.3094  -5.2624  -5.1265  -5.0980
    -5.0591  -4.9516  -4.8446  -4.8053  -4.7794  -4.6539  -4.3955  -4.3846
    -3.5161  -3.2260  -2.5176  -2.5036  -2.1593  -1.8028  -1.5925  -1.4902
    -1.3159  -1.2815  -0.8395  -0.7489  -0.4919  -0.2312  -0.1424   0.1248
     0.1415   0.3558   0.5272   0.7500   1.1219   1.2625   1.4453   1.5410
     1.6940   1.8532   2.1113   2.4778   2.7300   2.7322   2.8060   2.8176
     3.1219   3.3265   3.6948   3.7283   4.0534   4.0546   4.4414   4.7577
     5.3222

          k = 0.0448-0.0386 0.0000 ( 34845 PWs)   bands (ev):

   -78.8203 -78.7989 -78.5487 -78.5275 -78.4964 -78.4750 -41.1459 -41.1023
   -40.6533 -40.6055 -40.5661 -40.4395 -40.3791 -40.3480 -40.3110 -40.2772
   -40.2543 -40.2158 -40.1100 -40.0719 -40.0711 -40.0170 -39.7537 -39.7224
    -7.2541  -6.8792  -6.8471  -6.6956  -6.6770  -6.5092  -6.4647  -6.4231
    -6.3469  -6.2365  -6.1568  -5.9034  -5.8156  -5.7783  -5.7024  -5.6080
    -5.5128  -5.4735  -5.3989  -5.3674  -5.3425  -5.2629  -5.1390  -5.1012
    -5.0546  -4.9503  -4.8526  -4.8020  -4.7842  -4.6541  -4.4846  -4.3894
    -3.3677  -2.9018  -2.4454  -2.4087  -2.1759  -1.7337  -1.6315  -1.3739
    -1.1811  -1.1518  -0.6775  -0.6048  -0.3346  -0.1598   0.1002   0.2350
     0.2486   0.4964   0.7118   0.8225   1.1145   1.2325   1.4694   1.5111
     1.7145   1.8450   2.1006   2.4782   2.5955   2.7416   2.7762   2.9480
     3.0504   3.1404   3.5057   3.7229   3.8257   4.0488   4.4421   4.4846
     5.3849

          k = 0.0448-0.0232 0.0000 ( 34840 PWs)   bands (ev):

   -78.8203 -78.7989 -78.5487 -78.5275 -78.4964 -78.4750 -41.1459 -41.1023
   -40.6532 -40.6053 -40.5661 -40.4395 -40.3791 -40.3480 -40.3110 -40.2772
   -40.2541 -40.2158 -40.1100 -40.0719 -40.0711 -40.0170 -39.7537 -39.7224
    -7.3241  -6.9230  -6.8786  -6.7178  -6.7110  -6.5560  -6.4766  -6.4285
    -6.3952  -6.2697  -6.1887  -5.9205  -5.8256  -5.7986  -5.7241  -5.6110
    -5.5123  -5.4815  -5.4089  -5.4069  -5.3659  -5.2573  -5.1529  -5.1038
    -5.0538  -4.9496  -4.8594  -4.7977  -4.7875  -4.6547  -4.5590  -4.3850
    -3.2465  -2.7780  -2.3266  -2.2065  -2.1765  -1.7037  -1.6702  -1.3274
    -1.0626  -0.9794  -0.5863  -0.4874  -0.1272  -0.1208   0.2270   0.3106
     0.5696   0.6682   0.8550   0.9447   1.1275   1.1519   1.5008   1.5242
     1.6851   1.8432   2.0811   2.1885   2.4983   2.5717   2.8047   2.8763
     3.0944   3.3090   3.4086   3.6514   3.6663   4.1521   4.2903   4.6634
     4.9505

          k = 0.0448-0.0077 0.0000 ( 34855 PWs)   bands (ev):

   -78.8203 -78.7989 -78.5487 -78.5276 -78.4964 -78.4750 -41.1459 -41.1023
   -40.6532 -40.6052 -40.5661 -40.4394 -40.3791 -40.3479 -40.3110 -40.2772
   -40.2541 -40.2158 -40.1100 -40.0719 -40.0711 -40.0170 -39.7537 -39.7224
    -7.3690  -6.9435  -6.8974  -6.7386  -6.7226  -6.5783  -6.4838  -6.4316
    -6.4161  -6.2882  -6.2076  -5.9320  -5.8341  -5.8055  -5.7359  -5.6131
    -5.5122  -5.4863  -5.4338  -5.4216  -5.3710  -5.2508  -5.1637  -5.1049
    -5.0543  -4.9492  -4.8629  -4.7941  -4.7892  -4.6560  -4.5952  -4.3828
    -3.1807  -2.7652  -2.2809  -2.1685  -1.9812  -1.6958  -1.6947  -1.3406
    -0.9839  -0.8507  -0.5773  -0.4104  -0.1402   0.0808   0.3000   0.4005
     0.6620   0.8344   0.9351   1.0337   1.1957   1.2406   1.3848   1.5620
     1.6253   1.8602   2.0108   2.0608   2.2639   2.3615   2.7963   2.9466
     3.2615   3.2829   3.4915   3.6465   3.8310   4.1521   4.2248   4.2274
     4.9689

          k = 0.0448 0.0077 0.0000 ( 34855 PWs)   bands (ev):

   -78.8203 -78.7989 -78.5487 -78.5276 -78.4964 -78.4750 -41.1459 -41.1023
   -40.6532 -40.6052 -40.5661 -40.4394 -40.3791 -40.3479 -40.3110 -40.2772
   -40.2541 -40.2158 -40.1100 -40.0719 -40.0711 -40.0170 -39.7537 -39.7224
    -7.3690  -6.9435  -6.8974  -6.7386  -6.7226  -6.5783  -6.4838  -6.4316
    -6.4161  -6.2882  -6.2076  -5.9320  -5.8341  -5.8055  -5.7359  -5.6131
    -5.5122  -5.4863  -5.4338  -5.4216  -5.3710  -5.2508  -5.1637  -5.1049
    -5.0543  -4.9492  -4.8629  -4.7941  -4.7892  -4.6560  -4.5952  -4.3828
    -3.1807  -2.7652  -2.2809  -2.1685  -1.9812  -1.6958  -1.6947  -1.3406
    -0.9839  -0.8507  -0.5773  -0.4104  -0.1401   0.0808   0.3000   0.4005
     0.6620   0.8345   0.9351   1.0337   1.1957   1.2406   1.3848   1.5620
     1.6253   1.8602   2.0108   2.0608   2.2639   2.3615   2.7963   2.9466
     3.2615   3.2829   3.4915   3.6465   3.8310   4.1521   4.2248   4.2274
     4.9693

          k = 0.0597 0.0309 0.0000 ( 34811 PWs)   bands (ev):

   -78.8172 -78.8020 -78.5456 -78.5306 -78.4933 -78.4781 -41.1396 -41.1087
   -40.5996 -40.5992 -40.5719 -40.3866 -40.3426 -40.3334 -40.3271 -40.3165
   -40.2486 -40.2215 -40.1262 -40.1044 -40.0775 -40.0711 -39.7491 -39.7270
    -6.9527  -6.8024  -6.7533  -6.5758  -6.4732  -6.4509  -6.4292  -6.3015
    -6.2338  -6.1608  -6.0807  -5.8582  -5.8050  -5.7807  -5.6933  -5.6865
    -5.5637  -5.4242  -5.4030  -5.3931  -5.3272  -5.2848  -5.2114  -5.1786
    -5.0868  -5.0037  -4.9782  -4.9574  -4.9340  -4.7897  -4.6972  -4.3655
    -3.9641  -2.8101  -2.6904  -2.2056  -2.1694  -1.8526  -1.5485  -1.2144
    -1.1128  -0.8205  -0.6959  -0.2518  -0.1759  -0.0815   0.0932   0.1014
     0.4086   0.5741   0.7729   0.7773   1.1409   1.1651   1.3069   1.3889
     1.5085   1.7084   1.8737   2.1445   2.3862   2.4978   2.6277   2.7615
     3.1092   3.1641   3.3598   3.4664   3.7688   3.8945   4.0525   4.7360
     5.2525

          k = 0.0597 0.0463 0.0000 ( 34797 PWs)   bands (ev):

   -78.8172 -78.8020 -78.5456 -78.5306 -78.4933 -78.4781 -41.1396 -41.1087
   -40.5998 -40.5993 -40.5719 -40.3866 -40.3427 -40.3334 -40.3271 -40.3164
   -40.2487 -40.2215 -40.1262 -40.1044 -40.0775 -40.0711 -39.7491 -39.7270
    -6.8881  -6.7659  -6.7247  -6.5311  -6.4456  -6.4372  -6.4097  -6.2425
    -6.2119  -6.1507  -6.0445  -5.8398  -5.8105  -5.7744  -5.6858  -5.6814
    -5.5408  -5.4093  -5.4093  -5.3766  -5.3022  -5.2845  -5.2126  -5.1728
    -5.0842  -5.0025  -4.9800  -4.9538  -4.9354  -4.7899  -4.7087  -4.2660
    -4.1042  -2.8595  -2.8593  -2.3395  -2.2175  -1.7985  -1.5830  -1.3899
    -1.1657  -0.9615  -0.7842  -0.3709  -0.3164  -0.0771  -0.0483   0.0451
     0.2858   0.4855   0.6516   0.6845   1.1664   1.2004   1.3112   1.3869
     1.5690   1.7415   1.8725   2.3638   2.4907   2.4917   2.5996   2.8716
     3.0187   3.2279   3.4172   3.4311   3.7676   4.1081   4.1489   4.5245
     5.3203

          k = 0.0597 0.0618 0.0000 ( 34811 PWs)   bands (ev):

   -78.8172 -78.8020 -78.5456 -78.5306 -78.4933 -78.4781 -41.1396 -41.1087
   -40.6000 -40.5994 -40.5719 -40.3867 -40.3427 -40.3334 -40.3272 -40.3164
   -40.2489 -40.2215 -40.1262 -40.1045 -40.0775 -40.0711 -39.7491 -39.7270
    -6.8549  -6.7080  -6.6967  -6.4744  -6.4381  -6.4165  -6.3735  -6.1938
    -6.1647  -6.1199  -6.0066  -5.8279  -5.8162  -5.7681  -5.6861  -5.6734
    -5.5088  -5.4107  -5.4073  -5.3541  -5.2893  -5.2803  -5.2064  -5.1685
    -5.0836  -5.0013  -4.9824  -4.9462  -4.9372  -4.7894  -4.7244  -4.2399
    -4.1787  -3.1214  -2.9315  -2.4012  -2.1879  -1.7936  -1.6137  -1.4978
    -1.2881  -1.0506  -0.9054  -0.5360  -0.4345  -0.1552  -0.0861   0.0394
     0.2029   0.4046   0.5513   0.6512   1.1630   1.2124   1.3008   1.4567
     1.5847   1.7550   1.8513   2.3719   2.3992   2.5078   2.6274   2.7913
     3.2150   3.2272   3.4657   3.6664   3.7540   4.2513   4.4420   4.5112
     5.2538

          k = 0.0597 0.0772 0.0000 ( 34790 PWs)   bands (ev):

   -78.8172 -78.8020 -78.5456 -78.5306 -78.4933 -78.4781 -41.1396 -41.1087
   -40.6001 -40.5994 -40.5719 -40.3867 -40.3427 -40.3334 -40.3272 -40.3164
   -40.2489 -40.2215 -40.1262 -40.1045 -40.0775 -40.0711 -39.7491 -39.7270
    -6.8422  -6.6769  -6.6638  -6.4419  -6.4093  -6.4077  -6.3420  -6.1869
    -6.1453  -6.0124  -5.9778  -5.8243  -5.8235  -5.7622  -5.7077  -5.6615
    -5.4823  -5.4080  -5.3900  -5.3419  -5.3035  -5.2745  -5.1832  -5.1655
    -5.0873  -5.0005  -4.9832  -4.9388  -4.9367  -4.7882  -4.7404  -4.3344
    -4.1790  -3.2486  -2.9945  -2.4974  -2.1388  -1.8587  -1.5894  -1.5012
    -1.3909  -1.1313  -1.0097  -0.6582  -0.5085  -0.2120  -0.1102   0.0472
     0.1415   0.3517   0.5008   0.6470   1.1598   1.2177   1.2914   1.5198
     1.5935   1.7471   1.8174   2.3284   2.3637   2.4226   2.4955   3.0021
     3.2024   3.2251   3.5273   3.7785   3.9590   4.3010   4.5912   4.6510
     5.2125

          k = 0.0597 0.0927 0.0000 ( 34786 PWs)   bands (ev):

   -78.8172 -78.8020 -78.5456 -78.5306 -78.4933 -78.4781 -41.1396 -41.1087
   -40.6001 -40.5994 -40.5718 -40.3867 -40.3428 -40.3334 -40.3272 -40.3164
   -40.2490 -40.2215 -40.1262 -40.1045 -40.0775 -40.0711 -39.7491 -39.7270
    -6.8386  -6.6698  -6.6488  -6.4384  -6.4049  -6.3853  -6.3305  -6.1874
    -6.1419  -5.9673  -5.9467  -5.8317  -5.8237  -5.7596  -5.7265  -5.6568
    -5.4756  -5.4086  -5.3566  -5.3389  -5.3295  -5.2720  -5.1665  -5.1643
    -5.0913  -5.0004  -4.9832  -4.9394  -4.9311  -4.7872  -4.7477  -4.3675
    -4.2145  -3.2494  -3.0192  -2.5676  -2.1092  -1.9032  -1.5219  -1.4832
    -1.4611  -1.1786  -1.0546  -0.6987  -0.5322  -0.2301  -0.1224   0.0507
     0.1184   0.3352   0.4863   0.6475   1.1602   1.2187   1.2887   1.5429
     1.5976   1.7409   1.8000   2.3058   2.3597   2.3761   2.4655   3.1029
     3.1536   3.2207   3.5439   3.7988   4.1004   4.3332   4.6061   4.6877
     5.2152

          k = 0.0597 0.1081 0.0000 ( 34790 PWs)   bands (ev):

   -78.8172 -78.8020 -78.5456 -78.5306 -78.4933 -78.4781 -41.1396 -41.1087
   -40.6001 -40.5994 -40.5719 -40.3867 -40.3427 -40.3334 -40.3272 -40.3164
   -40.2489 -40.2215 -40.1262 -40.1045 -40.0775 -40.0711 -39.7491 -39.7270
    -6.8422  -6.6769  -6.6638  -6.4419  -6.4093  -6.4077  -6.3420  -6.1869
    -6.1453  -6.0124  -5.9778  -5.8243  -5.8235  -5.7622  -5.7077  -5.6615
    -5.4823  -5.4080  -5.3900  -5.3419  -5.3035  -5.2745  -5.1832  -5.1655
    -5.0873  -5.0005  -4.9832  -4.9388  -4.9367  -4.7882  -4.7404  -4.3344
    -4.1790  -3.2486  -2.9945  -2.4974  -2.1388  -1.8587  -1.5894  -1.5012
    -1.3909  -1.1313  -1.0097  -0.6582  -0.5085  -0.2120  -0.1102   0.0472
     0.1415   0.3517   0.5008   0.6470   1.1598   1.2177   1.2914   1.5198
     1.5935   1.7471   1.8175   2.3284   2.3637   2.4226   2.4955   3.0021
     3.2024   3.2251   3.5273   3.7784   3.9590   4.3011   4.5912   4.6510
     5.2124

          k = 0.0597-0.0618 0.0000 ( 34811 PWs)   bands (ev):

   -78.8172 -78.8020 -78.5456 -78.5306 -78.4933 -78.4781 -41.1396 -41.1087
   -40.6000 -40.5994 -40.5719 -40.3867 -40.3427 -40.3334 -40.3272 -40.3164
   -40.2489 -40.2215 -40.1262 -40.1045 -40.0775 -40.0711 -39.7491 -39.7270
    -6.8549  -6.7080  -6.6967  -6.4744  -6.4381  -6.4165  -6.3735  -6.1938
    -6.1647  -6.1199  -6.0066  -5.8279  -5.8162  -5.7681  -5.6861  -5.6734
    -5.5088  -5.4107  -5.4073  -5.3541  -5.2893  -5.2803  -5.2064  -5.1685
    -5.0836  -5.0013  -4.9824  -4.9462  -4.9372  -4.7894  -4.7244  -4.2399
    -4.1787  -3.1214  -2.9315  -2.4012  -2.1879  -1.7936  -1.6137  -1.4978
    -1.2881  -1.0506  -0.9054  -0.5360  -0.4345  -0.1551  -0.0861   0.0394
     0.2029   0.4046   0.5513   0.6512   1.1630   1.2124   1.3008   1.4567
     1.5847   1.7550   1.8513   2.3719   2.3992   2.5078   2.6274   2.7913
     3.2150   3.2272   3.4657   3.6664   3.7539   4.2513   4.4420   4.5112
     5.2537

          k = 0.0597-0.0463 0.0000 ( 34797 PWs)   bands (ev):

   -78.8172 -78.8020 -78.5456 -78.5306 -78.4933 -78.4781 -41.1396 -41.1087
   -40.5998 -40.5993 -40.5719 -40.3866 -40.3427 -40.3334 -40.3271 -40.3164
   -40.2487 -40.2215 -40.1262 -40.1044 -40.0775 -40.0711 -39.7491 -39.7270
    -6.8881  -6.7659  -6.7247  -6.5311  -6.4456  -6.4372  -6.4097  -6.2425
    -6.2119  -6.1507  -6.0445  -5.8398  -5.8105  -5.7744  -5.6858  -5.6814
    -5.5408  -5.4093  -5.4093  -5.3765  -5.3022  -5.2845  -5.2126  -5.1728
    -5.0842  -5.0025  -4.9800  -4.9538  -4.9354  -4.7899  -4.7087  -4.2660
    -4.1042  -2.8595  -2.8593  -2.3395  -2.2175  -1.7985  -1.5830  -1.3899
    -1.1657  -0.9615  -0.7842  -0.3709  -0.3164  -0.0771  -0.0483   0.0451
     0.2858   0.4855   0.6516   0.6845   1.1664   1.2004   1.3112   1.3869
     1.5690   1.7415   1.8725   2.3638   2.4907   2.4917   2.5996   2.8717
     3.0187   3.2279   3.4172   3.4311   3.7675   4.1081   4.1489   4.5245
     5.3203

          k = 0.0597-0.0309 0.0000 ( 34811 PWs)   bands (ev):

   -78.8172 -78.8020 -78.5456 -78.5306 -78.4933 -78.4781 -41.1396 -41.1087
   -40.5996 -40.5992 -40.5719 -40.3866 -40.3426 -40.3334 -40.3271 -40.3165
   -40.2486 -40.2215 -40.1262 -40.1044 -40.0775 -40.0711 -39.7491 -39.7270
    -6.9527  -6.8024  -6.7533  -6.5758  -6.4732  -6.4509  -6.4292  -6.3015
    -6.2338  -6.1608  -6.0807  -5.8582  -5.8050  -5.7807  -5.6933  -5.6865
    -5.5637  -5.4242  -5.4030  -5.3931  -5.3272  -5.2848  -5.2114  -5.1786
    -5.0868  -5.0037  -4.9782  -4.9574  -4.9340  -4.7897  -4.6972  -4.3655
    -3.9641  -2.8101  -2.6904  -2.2056  -2.1694  -1.8526  -1.5485  -1.2145
    -1.1128  -0.8205  -0.6959  -0.2517  -0.1759  -0.0815   0.0932   0.1014
     0.4086   0.5742   0.7729   0.7773   1.1409   1.1651   1.3069   1.3889
     1.5085   1.7084   1.8737   2.1445   2.3862   2.4977   2.6277   2.7615
     3.1092   3.1641   3.3598   3.4664   3.7688   3.8945   4.0525   4.7359
     5.2524

          k = 0.0597-0.0154 0.0000 ( 34828 PWs)   bands (ev):

   -78.8172 -78.8020 -78.5456 -78.5306 -78.4933 -78.4781 -41.1395 -41.1087
   -40.5995 -40.5992 -40.5719 -40.3866 -40.3426 -40.3334 -40.3271 -40.3165
   -40.2485 -40.2215 -40.1262 -40.1044 -40.0775 -40.0711 -39.7491 -39.7270
    -7.0146  -6.8169  -6.7741  -6.6028  -6.5012  -6.4544  -6.4406  -6.3316
    -6.2509  -6.1670  -6.1063  -5.8742  -5.8007  -5.7862  -5.6959  -5.6927
    -5.5767  -5.4472  -5.3982  -5.3965  -5.3482  -5.2824  -5.2115  -5.1847
    -5.0888  -5.0042  -4.9789  -4.9567  -4.9331  -4.7894  -4.6906  -4.4333
    -3.8594  -2.7921  -2.6632  -2.1577  -1.9255  -1.9176  -1.5166  -1.1239
    -1.0299  -0.6993  -0.6971  -0.2332  -0.0695  -0.0305   0.1761   0.2364
     0.6056   0.6302   0.8437   0.8874   1.0881   1.1328   1.2537   1.4453
     1.4634   1.7099   1.8612   1.9021   2.2194   2.3669   2.4395   2.8733
     2.9602   3.3193   3.5181   3.6329   3.7951   3.8237   4.0939   4.6109
     5.1325

          k = 0.0597 0.0000 0.0000 ( 34809 PWs)   bands (ev):

   -78.8172 -78.8020 -78.5456 -78.5306 -78.4932 -78.4781 -41.1395 -41.1087
   -40.5994 -40.5992 -40.5719 -40.3865 -40.3425 -40.3334 -40.3271 -40.3165
   -40.2485 -40.2215 -40.1262 -40.1044 -40.0775 -40.0711 -39.7491 -39.7270
    -7.0387  -6.8208  -6.7816  -6.6117  -6.5112  -6.4556  -6.4448  -6.3407
    -6.2573  -6.1692  -6.1156  -5.8805  -5.7989  -5.7885  -5.6963  -5.6953
    -5.5809  -5.4569  -5.3970  -5.3965  -5.3562  -5.2809  -5.2119  -5.1874
    -5.0894  -5.0044  -4.9796  -4.9557  -4.9329  -4.7892  -4.6884  -4.4566
    -3.8206  -2.7894  -2.6640  -2.1233  -1.9547  -1.8197  -1.4944  -1.1433
    -0.9161  -0.7537  -0.6516  -0.2406  -0.0625   0.0322   0.2216   0.3466
     0.6319   0.6329   0.8648   0.9416   1.1026   1.1462   1.2169   1.4468
     1.5123   1.7260   1.7389   1.8502   2.0474   2.3503   2.4015   2.8903
     2.8993   3.4421   3.5446   3.7597   3.8028   3.9601   4.1053   4.3542
     4.9650

          k = 0.0597 0.0154 0.0000 ( 34828 PWs)   bands (ev):

   -78.8172 -78.8020 -78.5456 -78.5306 -78.4933 -78.4781 -41.1395 -41.1087
   -40.5995 -40.5992 -40.5719 -40.3866 -40.3426 -40.3334 -40.3271 -40.3165
   -40.2485 -40.2215 -40.1262 -40.1044 -40.0775 -40.0711 -39.7491 -39.7270
    -7.0146  -6.8169  -6.7741  -6.6028  -6.5012  -6.4544  -6.4406  -6.3316
    -6.2509  -6.1670  -6.1063  -5.8742  -5.8007  -5.7862  -5.6959  -5.6927
    -5.5767  -5.4472  -5.3982  -5.3965  -5.3482  -5.2824  -5.2115  -5.1847
    -5.0888  -5.0042  -4.9789  -4.9567  -4.9331  -4.7894  -4.6906  -4.4333
    -3.8594  -2.7921  -2.6632  -2.1577  -1.9255  -1.9176  -1.5166  -1.1239
    -1.0299  -0.6994  -0.6971  -0.2332  -0.0694  -0.0305   0.1761   0.2364
     0.6057   0.6302   0.8437   0.8874   1.0881   1.1328   1.2536   1.4453
     1.4634   1.7099   1.8612   1.9021   2.2194   2.3669   2.4396   2.8733
     2.9602   3.3193   3.5181   3.6329   3.7951   3.8237   4.0940   4.6109
     5.1325

          k = 0.0746 0.0386 0.0000 ( 34791 PWs)   bands (ev):

   -78.8135 -78.8057 -78.5420 -78.5342 -78.4896 -78.4818 -41.1322 -41.1162
   -40.5930 -40.5787 -40.5359 -40.3983 -40.3363 -40.3246 -40.3228 -40.2662
   -40.2421 -40.2281 -40.1897 -40.1337 -40.0979 -40.0840 -39.7438 -39.7323
    -6.7169  -6.6550  -6.5460  -6.4629  -6.3977  -6.3953  -6.2304  -6.2191
    -6.0967  -5.9475  -5.9354  -5.8929  -5.8095  -5.7808  -5.6809  -5.5782
    -5.5535  -5.4559  -5.3865  -5.3564  -5.3310  -5.2788  -5.2623  -5.2454
    -5.1873  -5.1413  -5.1092  -5.0513  -5.0274  -5.0032  -4.9331  -4.5887
    -4.0907  -3.3061  -2.5873  -2.3127  -2.1130  -1.9413  -1.4302  -1.3766
    -0.9707  -0.8039  -0.5987  -0.1888  -0.1444  -0.0773  -0.0382   0.2338
     0.4289   0.5687   0.5898   0.8146   1.0306   1.1655   1.2089   1.2709
     1.3005   1.5293   1.6864   1.8804   2.1907   2.4009   2.6659   2.7065
     3.0519   3.1016   3.3615   3.4300   3.6290   3.7050   4.3158   4.8258
     5.0658

          k = 0.0746 0.0541 0.0000 ( 34791 PWs)   bands (ev):

   -78.8135 -78.8057 -78.5420 -78.5342 -78.4896 -78.4817 -41.1322 -41.1162
   -40.5931 -40.5786 -40.5360 -40.3983 -40.3364 -40.3246 -40.3227 -40.2662
   -40.2422 -40.2281 -40.1897 -40.1337 -40.0979 -40.0840 -39.7438 -39.7323
    -6.6972  -6.6430  -6.5022  -6.4401  -6.3749  -6.3687  -6.2161  -6.1913
    -6.0816  -5.9458  -5.9360  -5.8636  -5.8013  -5.7534  -5.6942  -5.5791
    -5.5377  -5.4360  -5.3950  -5.3516  -5.3318  -5.2672  -5.2593  -5.2509
    -5.1851  -5.1471  -5.0965  -5.0757  -5.0125  -5.0042  -4.9278  -4.7101
    -3.9943  -3.3789  -2.7515  -2.2577  -2.2102  -1.8974  -1.5012  -1.4277
    -1.0274  -0.8387  -0.6862  -0.3019  -0.2396  -0.1304   0.0237   0.1676
     0.3465   0.5714   0.5923   0.7965   1.0623   1.1322   1.2100   1.2849
     1.3002   1.5919   1.6598   1.9049   2.2789   2.4928   2.5187   2.7988
     2.9416   3.2456   3.3395   3.3891   3.6243   3.9494   4.4921   4.6579
     4.9729

          k = 0.0746 0.0695 0.0000 ( 34771 PWs)   bands (ev):

   -78.8135 -78.8057 -78.5420 -78.5342 -78.4896 -78.4817 -41.1322 -41.1162
   -40.5933 -40.5786 -40.5360 -40.3983 -40.3364 -40.3247 -40.3227 -40.2662
   -40.2423 -40.2280 -40.1897 -40.1337 -40.0979 -40.0840 -39.7438 -39.7323
    -6.6851  -6.6323  -6.4677  -6.4188  -6.3505  -6.3287  -6.2034  -6.1726
    -6.0579  -5.9607  -5.9355  -5.8311  -5.7979  -5.7279  -5.7090  -5.5690
    -5.5186  -5.4262  -5.4089  -5.3487  -5.3336  -5.2753  -5.2527  -5.2335
    -5.1851  -5.1588  -5.1063  -5.0840  -5.0047  -4.9912  -4.9133  -4.7963
    -3.9494  -3.4588  -2.8964  -2.2761  -2.2022  -1.8820  -1.5579  -1.3961
    -1.1134  -0.8793  -0.7302  -0.3802  -0.3720  -0.1268   0.0189   0.1666
     0.2967   0.5677   0.6170   0.7777   1.0843   1.1205   1.2265   1.3120
     1.3150   1.5956   1.5998   1.9137   2.1941   2.3128   2.5598   2.7698
     3.0739   3.2366   3.3189   3.6163   3.6496   4.2895   4.4770   4.7955
     4.8486

          k = 0.0746 0.0849 0.0000 ( 34770 PWs)   bands (ev):

   -78.8135 -78.8057 -78.5420 -78.5342 -78.4896 -78.4817 -41.1322 -41.1162
   -40.5933 -40.5785 -40.5360 -40.3982 -40.3364 -40.3247 -40.3227 -40.2662
   -40.2424 -40.2280 -40.1897 -40.1337 -40.0979 -40.0840 -39.7438 -39.7323
    -6.6794  -6.6261  -6.4509  -6.4064  -6.3330  -6.2952  -6.1933  -6.1668
    -6.0369  -5.9827  -5.9347  -5.8102  -5.7960  -5.7169  -5.7157  -5.5573
    -5.5050  -5.4257  -5.4193  -5.3481  -5.3357  -5.2818  -5.2515  -5.2067
    -5.1874  -5.1757  -5.1278  -5.0770  -5.0048  -4.9767  -4.8899  -4.8369
    -3.9694  -3.5091  -2.9269  -2.3508  -2.1786  -1.8794  -1.5636  -1.3310
    -1.1915  -0.9055  -0.7691  -0.4333  -0.4025  -0.1297  -0.0370   0.2102
     0.2736   0.5684   0.6263   0.7701   1.0852   1.1304   1.2594   1.3241
     1.3359   1.5314   1.5915   1.9143   2.1471   2.1655   2.4540   2.9509
     3.0787   3.2100   3.3082   3.6740   3.8681   4.4254   4.4656   4.8081
     4.9256

          k = 0.0746 0.1004 0.0000 ( 34770 PWs)   bands (ev):

   -78.8135 -78.8057 -78.5420 -78.5342 -78.4896 -78.4817 -41.1322 -41.1162
   -40.5933 -40.5785 -40.5360 -40.3982 -40.3364 -40.3247 -40.3227 -40.2662
   -40.2424 -40.2280 -40.1897 -40.1337 -40.0979 -40.0840 -39.7438 -39.7323
    -6.6794  -6.6261  -6.4509  -6.4064  -6.3330  -6.2952  -6.1933  -6.1668
    -6.0369  -5.9827  -5.9347  -5.8102  -5.7960  -5.7169  -5.7157  -5.5573
    -5.5050  -5.4257  -5.4193  -5.3481  -5.3357  -5.2818  -5.2515  -5.2067
    -5.1874  -5.1757  -5.1278  -5.0770  -5.0048  -4.9767  -4.8899  -4.8369
    -3.9694  -3.5091  -2.9269  -2.3508  -2.1786  -1.8794  -1.5636  -1.3310
    -1.1915  -0.9055  -0.7691  -0.4333  -0.4025  -0.1297  -0.0370   0.2102
     0.2736   0.5684   0.6263   0.7701   1.0852   1.1304   1.2594   1.3241
     1.3359   1.5314   1.5915   1.9143   2.1471   2.1655   2.4540   2.9509
     3.0787   3.2100   3.3082   3.6740   3.8681   4.4254   4.4656   4.8080
     4.9256

          k = 0.0746 0.1158 0.0000 ( 34771 PWs)   bands (ev):

   -78.8135 -78.8057 -78.5420 -78.5342 -78.4896 -78.4817 -41.1322 -41.1162
   -40.5933 -40.5786 -40.5360 -40.3983 -40.3364 -40.3247 -40.3227 -40.2662
   -40.2423 -40.2280 -40.1897 -40.1337 -40.0979 -40.0840 -39.7438 -39.7323
    -6.6851  -6.6323  -6.4677  -6.4188  -6.3505  -6.3287  -6.2034  -6.1726
    -6.0579  -5.9607  -5.9355  -5.8311  -5.7979  -5.7279  -5.7090  -5.5690
    -5.5186  -5.4262  -5.4089  -5.3487  -5.3336  -5.2753  -5.2527  -5.2335
    -5.1851  -5.1588  -5.1063  -5.0840  -5.0047  -4.9912  -4.9133  -4.7963
    -3.9494  -3.4588  -2.8964  -2.2761  -2.2022  -1.8820  -1.5579  -1.3961
    -1.1133  -0.8793  -0.7302  -0.3803  -0.3720  -0.1268   0.0189   0.1666
     0.2966   0.5677   0.6170   0.7777   1.0843   1.1205   1.2266   1.3120
     1.3150   1.5956   1.5998   1.9137   2.1941   2.3128   2.5598   2.7698
     3.0739   3.2366   3.3189   3.6163   3.6496   4.2895   4.4770   4.7955
     4.8488

          k = 0.0746-0.0541 0.0000 ( 34791 PWs)   bands (ev):

   -78.8135 -78.8057 -78.5420 -78.5342 -78.4896 -78.4817 -41.1322 -41.1162
   -40.5931 -40.5786 -40.5360 -40.3983 -40.3364 -40.3246 -40.3227 -40.2662
   -40.2422 -40.2281 -40.1897 -40.1337 -40.0979 -40.0840 -39.7438 -39.7323
    -6.6972  -6.6430  -6.5022  -6.4401  -6.3749  -6.3687  -6.2161  -6.1913
    -6.0816  -5.9458  -5.9360  -5.8636  -5.8013  -5.7534  -5.6942  -5.5791
    -5.5377  -5.4360  -5.3950  -5.3516  -5.3318  -5.2672  -5.2593  -5.2509
    -5.1851  -5.1471  -5.0965  -5.0757  -5.0125  -5.0042  -4.9278  -4.7101
    -3.9943  -3.3789  -2.7515  -2.2577  -2.2102  -1.8974  -1.5012  -1.4277
    -1.0274  -0.8387  -0.6862  -0.3019  -0.2396  -0.1303   0.0237   0.1676
     0.3465   0.5714   0.5923   0.7965   1.0623   1.1322   1.2101   1.2849
     1.3002   1.5918   1.6598   1.9049   2.2789   2.4928   2.5187   2.7988
     2.9415   3.2456   3.3395   3.3892   3.6243   3.9494   4.4921   4.6579
     4.9726

          k = 0.0746-0.0386 0.0000 ( 34791 PWs)   bands (ev):

   -78.8135 -78.8057 -78.5420 -78.5342 -78.4896 -78.4818 -41.1322 -41.1162
   -40.5930 -40.5787 -40.5359 -40.3983 -40.3363 -40.3246 -40.3228 -40.2662
   -40.2421 -40.2281 -40.1897 -40.1337 -40.0979 -40.0840 -39.7438 -39.7323
    -6.7169  -6.6550  -6.5460  -6.4630  -6.3977  -6.3953  -6.2304  -6.2191
    -6.0967  -5.9475  -5.9354  -5.8929  -5.8095  -5.7808  -5.6809  -5.5782
    -5.5535  -5.4559  -5.3865  -5.3564  -5.3310  -5.2788  -5.2623  -5.2454
    -5.1873  -5.1413  -5.1092  -5.0513  -5.0274  -5.0032  -4.9331  -4.5887
    -4.0907  -3.3061  -2.5873  -2.3127  -2.1130  -1.9413  -1.4302  -1.3766
    -0.9707  -0.8039  -0.5987  -0.1888  -0.1444  -0.0773  -0.0382   0.2338
     0.4288   0.5688   0.5898   0.8146   1.0306   1.1656   1.2089   1.2709
     1.3005   1.5293   1.6864   1.8804   2.1907   2.4009   2.6659   2.7065
     3.0519   3.1016   3.3615   3.4300   3.6290   3.7050   4.3157   4.8258
     5.0658

          k = 0.0746-0.0232 0.0000 ( 34830 PWs)   bands (ev):

   -78.8135 -78.8057 -78.5420 -78.5343 -78.4896 -78.4818 -41.1321 -41.1162
   -40.5929 -40.5787 -40.5359 -40.3984 -40.3363 -40.3246 -40.3228 -40.2662
   -40.2421 -40.2281 -40.1898 -40.1337 -40.0978 -40.0840 -39.7438 -39.7323
    -6.7417  -6.6644  -6.5812  -6.4796  -6.4151  -6.4085  -6.2440  -6.2429
    -6.1056  -5.9594  -5.9341  -5.9109  -5.8277  -5.7926  -5.6748  -5.5680
    -5.5605  -5.4793  -5.3864  -5.3633  -5.3303  -5.2908  -5.2600  -5.2405
    -5.1900  -5.1399  -5.1171  -5.0367  -5.0353  -5.0025  -4.9347  -4.4667
    -4.1810  -3.2727  -2.5337  -2.3206  -2.0108  -1.9220  -1.4303  -1.2114
    -0.9433  -0.8088  -0.4884  -0.1946  -0.1475  -0.0061   0.1020   0.2859
     0.5163   0.5587   0.6430   0.8263   0.9995   1.1753   1.1805   1.3190
     1.3269   1.4348   1.6815   1.8423   1.9493   2.3008   2.4922   2.8123
     2.8556   3.3210   3.4034   3.6047   3.6111   3.7797   4.2211   4.9422
     4.9556

          k = 0.0746-0.0077 0.0000 ( 34801 PWs)   bands (ev):

   -78.8135 -78.8057 -78.5419 -78.5343 -78.4896 -78.4818 -41.1321 -41.1162
   -40.5928 -40.5787 -40.5359 -40.3984 -40.3362 -40.3245 -40.3228 -40.2661
   -40.2420 -40.2281 -40.1898 -40.1337 -40.0978 -40.0840 -39.7438 -39.7323
    -6.7603  -6.6692  -6.5984  -6.4875  -6.4234  -6.4148  -6.2559  -6.2525
    -6.1102  -5.9689  -5.9331  -5.9189  -5.8416  -5.7954  -5.6740  -5.5602
    -5.5573  -5.4962  -5.3885  -5.3718  -5.3296  -5.2950  -5.2589  -5.2381
    -5.1917  -5.1402  -5.1204  -5.0389  -5.0299  -5.0024  -4.9351  -4.3885
    -4.2323  -3.2721  -2.5341  -2.2859  -2.0798  -1.7647  -1.4380  -1.0438
    -0.9260  -0.8819  -0.4130  -0.2170  -0.2117   0.1492   0.1930   0.3076
     0.5361   0.5614   0.7279   0.8302   0.9792   1.0891   1.1506   1.3670
     1.4076   1.4909   1.6690   1.7210   1.8152   2.0064   2.5261   2.6894
     2.9097   3.4427   3.5225   3.5685   3.6673   4.0043   4.3481   4.6681
     4.8818

          k = 0.0746 0.0077 0.0000 ( 34801 PWs)   bands (ev):

   -78.8135 -78.8057 -78.5419 -78.5343 -78.4896 -78.4818 -41.1321 -41.1162
   -40.5928 -40.5787 -40.5359 -40.3984 -40.3362 -40.3245 -40.3228 -40.2661
   -40.2420 -40.2281 -40.1898 -40.1337 -40.0978 -40.0840 -39.7438 -39.7323
    -6.7603  -6.6692  -6.5984  -6.4875  -6.4234  -6.4148  -6.2559  -6.2525
    -6.1102  -5.9689  -5.9331  -5.9189  -5.8416  -5.7954  -5.6740  -5.5602
    -5.5573  -5.4962  -5.3885  -5.3718  -5.3296  -5.2950  -5.2589  -5.2381
    -5.1917  -5.1402  -5.1204  -5.0389  -5.0299  -5.0024  -4.9351  -4.3885
    -4.2323  -3.2721  -2.5341  -2.2859  -2.0798  -1.7647  -1.4380  -1.0438
    -0.9260  -0.8819  -0.4130  -0.2170  -0.2117   0.1492   0.1930   0.3076
     0.5361   0.5614   0.7279   0.8302   0.9792   1.0890   1.1506   1.3670
     1.4076   1.4909   1.6689   1.7210   1.8152   2.0064   2.5261   2.6894
     2.9097   3.4427   3.5225   3.5685   3.6673   4.0043   4.3481   4.6681
     4.8818

          k = 0.0746 0.0232 0.0000 ( 34830 PWs)   bands (ev):

   -78.8135 -78.8057 -78.5420 -78.5343 -78.4896 -78.4818 -41.1321 -41.1162
   -40.5929 -40.5787 -40.5359 -40.3984 -40.3363 -40.3246 -40.3228 -40.2662
   -40.2421 -40.2281 -40.1898 -40.1337 -40.0978 -40.0840 -39.7438 -39.7323
    -6.7417  -6.6644  -6.5812  -6.4796  -6.4151  -6.4085  -6.2440  -6.2429
    -6.1056  -5.9594  -5.9341  -5.9109  -5.8277  -5.7926  -5.6748  -5.5680
    -5.5605  -5.4793  -5.3864  -5.3633  -5.3303  -5.2908  -5.2600  -5.2405
    -5.1900  -5.1399  -5.1171  -5.0367  -5.0353  -5.0025  -4.9347  -4.4667
    -4.1810  -3.2727  -2.5337  -2.3206  -2.0108  -1.9220  -1.4303  -1.2114
    -0.9433  -0.8088  -0.4884  -0.1946  -0.1475  -0.0061   0.1020   0.2859
     0.5163   0.5588   0.6430   0.8264   0.9995   1.1753   1.1805   1.3189
     1.3270   1.4348   1.6815   1.8423   1.9493   2.3008   2.4922   2.8123
     2.8557   3.3210   3.4034   3.6047   3.6111   3.7797   4.2211   4.9422
     4.9556

          k =-0.0895-0.0463 0.0000 ( 34790 PWs)   bands (ev):

   -78.8097 -78.8096 -78.5381 -78.5381 -78.4858 -78.4856 -41.1247 -41.1237
   -40.5859 -40.5858 -40.4674 -40.4674 -40.3296 -40.3296 -40.2575 -40.2574
   -40.2352 -40.2350 -40.2003 -40.2001 -40.0910 -40.0908 -39.7384 -39.7377
    -6.6564  -6.6564  -6.4064  -6.4063  -6.3068  -6.3067  -6.1852  -6.1852
    -6.0524  -6.0524  -5.8003  -5.8003  -5.7055  -5.7055  -5.6148  -5.6148
    -5.4593  -5.4588  -5.3994  -5.3992  -5.3717  -5.3717  -5.3262  -5.3261
    -5.2208  -5.2207  -5.1166  -5.1164  -5.0724  -5.0723  -4.9365  -4.9364
    -3.7378  -3.7376  -2.4623  -2.4621  -2.0247  -2.0247  -1.4047  -1.4043
    -0.8940  -0.8935  -0.4026  -0.4024  -0.1193  -0.1187   0.2365   0.2367
     0.4462   0.4463   0.7970   0.7970   0.9899   0.9904   1.1921   1.1922
     1.3502   1.3504   1.6186   1.6188   2.2798   2.2800   2.6825   2.6826
     3.0693   3.0695   3.3923   3.3931   3.6048   3.6052   4.7279   4.7282
     4.9742

          k =-0.0895-0.0309 0.0000 ( 34762 PWs)   bands (ev):

   -78.8096 -78.8096 -78.5381 -78.5381 -78.4858 -78.4856 -41.1247 -41.1237
   -40.5860 -40.5858 -40.4675 -40.4674 -40.3296 -40.3295 -40.2575 -40.2574
   -40.2352 -40.2350 -40.2003 -40.2001 -40.0910 -40.0908 -39.7384 -39.7377
    -6.6635  -6.6486  -6.4077  -6.3969  -6.3104  -6.3054  -6.1981  -6.1656
    -6.0537  -6.0500  -5.8574  -5.7868  -5.7021  -5.6871  -5.6132  -5.6076
    -5.4642  -5.4568  -5.4045  -5.3962  -5.3763  -5.3677  -5.3354  -5.3177
    -5.2386  -5.2075  -5.1301  -5.1114  -5.0839  -5.0591  -4.9737  -4.8651
    -3.8304  -3.6706  -2.5616  -2.3855  -2.0879  -1.9255  -1.4701  -1.3149
    -0.9295  -0.8619  -0.3980  -0.3925  -0.2121  -0.0711   0.2173   0.3321
     0.3727   0.5042   0.7306   0.8927   0.9730   0.9847   1.1906   1.2117
     1.3493   1.3568   1.5457   1.6418   2.0772   2.4153   2.5036   2.7768
     2.8716   3.2910   3.3849   3.4324   3.5491   3.8690   4.5407   4.7686
     4.9999

          k =-0.0895-0.0154 0.0000 ( 34800 PWs)   bands (ev):

   -78.8097 -78.8096 -78.5381 -78.5381 -78.4858 -78.4856 -41.1247 -41.1237
   -40.5860 -40.5857 -40.4675 -40.4673 -40.3296 -40.3295 -40.2576 -40.2574
   -40.2353 -40.2350 -40.2003 -40.2001 -40.0910 -40.0908 -39.7384 -39.7377
    -6.6680  -6.6423  -6.4036  -6.3834  -6.3145  -6.3076  -6.2064  -6.1382
    -6.0544  -6.0445  -5.9337  -5.7891  -5.6897  -5.6748  -5.6050  -5.5934
    -5.4715  -5.4556  -5.4070  -5.4041  -5.3818  -5.3669  -5.3328  -5.3132
    -5.2563  -5.2001  -5.1447  -5.1100  -5.0877  -5.0523  -4.9879  -4.7844
    -3.9040  -3.6599  -2.5973  -2.3711  -2.1558  -1.7881  -1.5311  -1.1998
    -0.9817  -0.8294  -0.4452  -0.3722  -0.2174  -0.0965   0.2701   0.2968
     0.4562   0.5222   0.7051   0.9086   0.9787   0.9851   1.2248   1.2351
     1.3544   1.3657   1.4648   1.6377   1.9410   2.1167   2.5993   2.6576
     2.9591   3.3519   3.3852   3.5530   3.6332   4.1639   4.5244   4.6821
     5.0062

          k =-0.0895 0.0000 0.0000 ( 34788 PWs)   bands (ev):

   -78.8097 -78.8096 -78.5381 -78.5381 -78.4858 -78.4856 -41.1247 -41.1237
   -40.5860 -40.5857 -40.4675 -40.4673 -40.3297 -40.3295 -40.2576 -40.2574
   -40.2353 -40.2350 -40.2003 -40.2001 -40.0910 -40.0908 -39.7384 -39.7377
    -6.6696  -6.6400  -6.4008  -6.3762  -6.3165  -6.3100  -6.2094  -6.1207
    -6.0545  -6.0349  -5.9791  -5.7905  -5.6846  -5.6725  -5.6004  -5.5843
    -5.4750  -5.4548  -5.4168  -5.4022  -5.3851  -5.3677  -5.3266  -5.3117
    -5.2651  -5.1979  -5.1501  -5.1097  -5.0884  -5.0504  -4.9915  -4.7474
    -3.9314  -3.6696  -2.5909  -2.3736  -2.1939  -1.7047  -1.5775  -1.1104
    -1.0406  -0.8134  -0.4864  -0.3614  -0.1867  -0.1185   0.2587   0.3054
     0.5143   0.5286   0.7043   0.8541   0.9773   1.0144   1.2281   1.2946
     1.3578   1.3867   1.4130   1.6335   1.8870   1.9686   2.5465   2.7086
     2.9754   3.3597   3.3864   3.5570   3.8016   4.2638   4.4569   4.6590
     5.0807

          k =-0.0895 0.0154 0.0000 ( 34800 PWs)   bands (ev):

   -78.8097 -78.8096 -78.5381 -78.5381 -78.4858 -78.4856 -41.1247 -41.1237
   -40.5860 -40.5857 -40.4675 -40.4673 -40.3296 -40.3295 -40.2576 -40.2574
   -40.2353 -40.2350 -40.2003 -40.2001 -40.0910 -40.0908 -39.7384 -39.7377
    -6.6680  -6.6423  -6.4036  -6.3834  -6.3145  -6.3076  -6.2064  -6.1382
    -6.0544  -6.0445  -5.9337  -5.7891  -5.6897  -5.6748  -5.6050  -5.5934
    -5.4715  -5.4556  -5.4070  -5.4041  -5.3818  -5.3669  -5.3328  -5.3132
    -5.2563  -5.2001  -5.1447  -5.1100  -5.0877  -5.0523  -4.9879  -4.7844
    -3.9040  -3.6599  -2.5973  -2.3711  -2.1558  -1.7881  -1.5311  -1.1998
    -0.9817  -0.8294  -0.4452  -0.3722  -0.2174  -0.0965   0.2701   0.2968
     0.4562   0.5222   0.7051   0.9086   0.9787   0.9851   1.2248   1.2351
     1.3544   1.3657   1.4648   1.6378   1.9410   2.1167   2.5993   2.6576
     2.9591   3.3519   3.3852   3.5530   3.6332   4.1639   4.5244   4.6821
     5.0061

          k =-0.0895 0.0309 0.0000 ( 34762 PWs)   bands (ev):

   -78.8096 -78.8096 -78.5381 -78.5381 -78.4858 -78.4856 -41.1247 -41.1237
   -40.5860 -40.5858 -40.4675 -40.4674 -40.3296 -40.3295 -40.2575 -40.2574
   -40.2352 -40.2350 -40.2003 -40.2001 -40.0910 -40.0908 -39.7384 -39.7377
    -6.6635  -6.6486  -6.4077  -6.3969  -6.3104  -6.3054  -6.1981  -6.1656
    -6.0537  -6.0500  -5.8574  -5.7868  -5.7021  -5.6871  -5.6132  -5.6076
    -5.4642  -5.4568  -5.4045  -5.3962  -5.3763  -5.3677  -5.3354  -5.3177
    -5.2386  -5.2075  -5.1301  -5.1114  -5.0839  -5.0591  -4.9737  -4.8651
    -3.8304  -3.6706  -2.5616  -2.3855  -2.0879  -1.9255  -1.4701  -1.3149
    -0.9295  -0.8619  -0.3980  -0.3925  -0.2121  -0.0711   0.2173   0.3321
     0.3727   0.5042   0.7306   0.8927   0.9730   0.9847   1.1906   1.2117
     1.3492   1.3568   1.5457   1.6418   2.0772   2.4153   2.5036   2.7768
     2.8716   3.2910   3.3849   3.4324   3.5491   3.8689   4.5407   4.7686
     4.9999

          k =-0.0895-0.1390 0.0000 ( 34790 PWs)   bands (ev):

   -78.8097 -78.8096 -78.5381 -78.5381 -78.4858 -78.4856 -41.1247 -41.1237
   -40.5859 -40.5858 -40.4674 -40.4674 -40.3296 -40.3296 -40.2575 -40.2574
   -40.2352 -40.2350 -40.2003 -40.2001 -40.0910 -40.0908 -39.7384 -39.7377
    -6.6564  -6.6564  -6.4064  -6.4063  -6.3068  -6.3067  -6.1852  -6.1852
    -6.0524  -6.0524  -5.8003  -5.8003  -5.7055  -5.7055  -5.6148  -5.6148
    -5.4592  -5.4588  -5.3994  -5.3992  -5.3717  -5.3716  -5.3262  -5.3261
    -5.2208  -5.2207  -5.1165  -5.1164  -5.0724  -5.0723  -4.9365  -4.9365
    -3.7378  -3.7376  -2.4623  -2.4621  -2.0247  -2.0246  -1.4048  -1.4043
    -0.8939  -0.8936  -0.4026  -0.4023  -0.1193  -0.1187   0.2365   0.2367
     0.4462   0.4463   0.7970   0.7970   0.9900   0.9904   1.1921   1.1922
     1.3502   1.3503   1.6186   1.6188   2.2798   2.2800   2.6825   2.6826
     3.0693   3.0696   3.3923   3.3931   3.6047   3.6052   4.7279   4.7284
     4.9744

     the Fermi energy is     1.7013 ev

!    total energy              =   -1681.65497165 Ry
     estimated scf accuracy    <       0.00000888 Ry
     smearing contrib. (-TS)   =      -0.05267201 Ry
     internal energy E=F+TS    =   -1681.60229963 Ry

     The total energy is F=E-TS. E is the sum of the following terms:
     one-electron contribution =  -12346.51886207 Ry
     hartree contribution      =    6206.79755495 Ry
     xc contribution           =    -446.04865661 Ry
     ewald contribution        =    4904.16761193 Ry
     electric field correction =       0.00005217 Ry

     convergence has been achieved in  15 iterations

     negative rho (up, down):  1.027E-03 0.000E+00

     Forces acting on atoms (cartesian axes, Ry/au):

     atom    1 type  1   force =    -0.00000105    0.01694467    0.04561509
     atom    2 type  1   force =    -0.00000524    0.01693801    0.04558301
     atom    3 type  2   force =     0.00000741   -0.01239268   -0.06253712
     atom    4 type  2   force =     0.00000775   -0.01240644   -0.06254966
     atom    5 type  1   force =    -0.00000461   -0.01744499   -0.00795996
     atom    6 type  1   force =    -0.00001319   -0.01739481   -0.00777707
     atom    7 type  2   force =     0.00001600    0.01589874    0.02972215
     atom    8 type  2   force =    -0.00001221    0.01590530    0.02972858
     atom    9 type  1   force =     0.00000577   -0.00351631   -0.00786544
     atom   10 type  1   force =    -0.00000102   -0.00342780   -0.00763044
     atom   11 type  2   force =     0.00003783    0.00045931    0.00283526
     atom   12 type  2   force =    -0.00003743    0.00043700    0.00283560

     Total force =     0.126601     Total SCF correction =     0.018973
     SCF correction compared to forces is large: reduce conv_thr to get better values

     Writing output data file ./Re2Hg2/Re2Hg2_beef.save/

     init_run     :     96.26s CPU     96.87s WALL (       1 calls)
     electrons    :   3566.65s CPU   3587.81s WALL (       1 calls)
     forces       :     64.72s CPU     64.95s WALL (       1 calls)

     Called by init_run:
     wfcinit      :     83.06s CPU     83.46s WALL (       1 calls)
     potinit      :      8.53s CPU      8.61s WALL (       1 calls)
     hinit0       :      2.45s CPU      2.46s WALL (       1 calls)

     Called by electrons:
     c_bands      :   3163.51s CPU   3176.71s WALL (      15 calls)
     sum_band     :    367.46s CPU    372.96s WALL (      15 calls)
     v_of_rho     :     27.75s CPU     28.72s WALL (      16 calls)
     newd         :     15.15s CPU     16.66s WALL (      16 calls)
     mix_rho      :      0.68s CPU      0.70s WALL (      15 calls)
     vdW_kernel   :      6.02s CPU      6.03s WALL (       1 calls)

     Called by c_bands:
     init_us_2    :      9.83s CPU      9.88s WALL (    2368 calls)
     cegterg      :   3114.97s CPU   3126.50s WALL (    1110 calls)

     Called by *egterg:
     cdiaghg      :    143.28s CPU    143.37s WALL (    5120 calls)
     h_psi        :   1626.41s CPU   1636.31s WALL (    5194 calls)
     s_psi        :    385.64s CPU    385.88s WALL (    5194 calls)
     g_psi        :      1.22s CPU      1.23s WALL (    4010 calls)

     Called by h_psi:
     h_psi:calbec :    520.83s CPU    521.82s WALL (    5194 calls)
     vloc_psi     :    666.94s CPU    675.55s WALL (    5194 calls)
     add_vuspsi   :    433.54s CPU    433.80s WALL (    5194 calls)

     General routines
     calbec       :    781.45s CPU    783.04s WALL (    6600 calls)
     fft          :     19.24s CPU     19.61s WALL (    1067 calls)
     ffts         :      0.09s CPU      0.09s WALL (      31 calls)
     fftw         :    774.32s CPU    786.26s WALL (  642904 calls)
     interpolate  :      0.26s CPU      0.27s WALL (      16 calls)

     Parallel routines
     fft_scatt_xy :     44.14s CPU     44.53s WALL (  644002 calls)
     fft_scatt_yz :    337.70s CPU    345.86s WALL (  644002 calls)

     PWSCF        :      1h 2m CPU      1h 3m WALL


   This run was terminated on:  16:31:10  24Jun2022            

=------------------------------------------------------------------------------=
   JOB DONE.
=------------------------------------------------------------------------------=
