
     Program PWSCF v.6.6 starts on 24Jun2022 at 16:31:13 

     This program is part of the open-source Quantum ESPRESSO suite
     for quantum simulation of materials; please cite
         "P. Giannozzi et al., J. Phys.:Condens. Matter 21 395502 (2009);
         "P. Giannozzi et al., J. Phys.:Condens. Matter 29 465901 (2017);
          URL http://www.quantum-espresso.org", 
     in publications or presentations arising from this work. More details at
     http://www.quantum-espresso.org/quote

     Parallel version (MPI), running on    37 processors

     MPI processes distributed on     1 nodes
     R & G space division:  proc/nbgrp/npool/nimage =      37
     Fft bands division:     nmany     =       1
     Reading input from Re2Os2.in
Warning: card &CELL ignored
Warning: card / ignored

     Current dimensions of program PWSCF are:
     Max number of different atomic species (ntypx) = 10
     Max number of k-points (npk) =  40000
     Max angular momentum in pseudopotentials (lmaxx) =  3
     Presently stress not available with electric field and gates

     Message from routine cell_base_init:
     DEPRECATED: use true lattice parameter, not A to a.u. conversion factor

     **************************************************************************
     Initializing libbeef V0.1.2 with the BEEF-vdW functional.
     Citation: Wellendorff et al., PRB 85, 235149 (2012).
     **************************************************************************


     IMPORTANT: XC functional enforced from input :
     Exchange-correlation= BEEF-VDW
                           (   1   4  43  14   2   0   0)
     Any further DFT definition will be discarded
     Please, verify this is what you really want


     Subspace diagonalization in iterative solution of the eigenvalue problem:
     a serial algorithm will be used

     Found symmetry operation: I + (  0.5000  0.5000  0.0000)
     This is a supercell, fractional translations are disabled

     Parallelization info
     --------------------
     sticks:   dense  smooth     PW     G-vecs:    dense   smooth      PW
     Min         110      44     12                25486     6446     992
     Max         111      45     13                25509     6465    1005
     Sum        4081    1639    475               943309   238777   37007



     bravais-lattice index     =            0
     lattice parameter (alat)  =       1.8897  a.u.
     unit-cell volume          =    4315.9737 (a.u.)^3
     number of atoms/cell      =           12
     number of atomic types    =            2
     number of electrons       =       186.00
     number of Kohn-Sham states=          112
     kinetic-energy cutoff     =      55.1240  Ry
     charge density cutoff     =     551.2396  Ry
     convergence threshold     =      1.0E-05
     mixing beta               =       0.1000
     number of iterations used =           10  plain     mixing
     Exchange-correlation= BEEF-VDW
                           (   1   4  43  14   2   0   0)

     celldm(1)=   1.889726  celldm(2)=   0.000000  celldm(3)=   0.000000
     celldm(4)=   0.000000  celldm(5)=   0.000000  celldm(6)=   0.000000

     crystal axes: (cart. coord. in units of alat)
               a(1) = (   5.490834   0.000000   0.000000 )  
               a(2) = (   2.741833   4.757269   0.000000 )  
               a(3) = (   0.000000   0.000000  24.484219 )  

     reciprocal axes: (cart. coord. in units 2 pi/alat)
               b(1) = (  0.182122 -0.104965  0.000000 )  
               b(2) = (  0.000000  0.210205  0.000000 )  
               b(3) = (  0.000000  0.000000  0.040843 )  


     PseudoPot. # 1 for Re read from file:
     ../pseudo/Re.pbe-spn-rrkjus_psl.1.0.0.UPF
     MD5 check sum: 1282f1ec51ad523723a04c61ae80a9e6
     Pseudo is Ultrasoft + core correction, Zval = 15.0
     Generated using "atomic" code by A. Dal Corso v.6.2.2
     Using radial grid of 1275 points,  6 beta functions with: 
                l(1) =   0
                l(2) =   0
                l(3) =   1
                l(4) =   1
                l(5) =   2
                l(6) =   2
     Q(r) pseudized with 0 coefficients 


     PseudoPot. # 2 for Os read from file:
     ../pseudo/Os.pbe-spn-rrkjus_psl.1.0.0.UPF
     MD5 check sum: 3e7416ed594f6513d36e5cb31ba709d9
     Pseudo is Ultrasoft + core correction, Zval = 16.0
     Generated using "atomic" code by A. Dal Corso v.6.2.2
     Using radial grid of 1275 points,  6 beta functions with: 
                l(1) =   0
                l(2) =   0
                l(3) =   1
                l(4) =   1
                l(5) =   2
                l(6) =   2
     Q(r) pseudized with 0 coefficients 


     atomic species   valence    mass     pseudopotential
        Re            15.00   186.20700     Re( 1.00)
        Os            16.00   190.23000     Os( 1.00)

     No symmetry found



   Cartesian axes

     site n.     atom                  positions (alat units)
         1           Re  tau(   1) = (   0.0000000   0.0000000  10.0000000  )
         2           Re  tau(   2) = (   4.1163335   2.3786345  10.0000000  )
         3           Os  tau(   3) = (   2.7454170   0.0000000  10.0000000  )
         4           Os  tau(   4) = (   1.3709165   2.3786345  10.0000000  )
         5           Re  tau(   5) = (   5.4908339   3.1728933  12.2421095  )
         6           Re  tau(   6) = (   1.3745004   0.7942588  12.2421095  )
         7           Os  tau(   7) = (   2.7454170   3.1728933  12.2421095  )
         8           Os  tau(   8) = (   4.1199174   0.7942588  12.2421095  )
         9           Re  tau(   9) = (   2.7470012   1.5873640  14.3806736  )
        10           Re  tau(  10) = (   6.8633339   3.9659922  14.3806780  )
        11           Os  tau(  11) = (   5.5018807   1.5928351  14.3950178  )
        12           Os  tau(  12) = (   4.1273775   3.9714621  14.3950192  )

     number of k points=    74  Fermi-Dirac smearing, width (Ry)=  0.0100
                       cart. coord. in units 2pi/alat
        k(    1) = (   0.0000000   0.0000000   0.0000000), wk =   0.0138889
        k(    2) = (   0.0000000   0.0175171   0.0000000), wk =   0.0277778
        k(    3) = (   0.0000000   0.0350341   0.0000000), wk =   0.0277778
        k(    4) = (   0.0000000   0.0525512   0.0000000), wk =   0.0277778
        k(    5) = (   0.0000000   0.0700682   0.0000000), wk =   0.0277778
        k(    6) = (   0.0000000   0.0875853   0.0000000), wk =   0.0277778
        k(    7) = (   0.0000000  -0.1051023   0.0000000), wk =   0.0138889
        k(    8) = (   0.0151768  -0.0087471   0.0000000), wk =   0.0277778
        k(    9) = (   0.0151768   0.0087700   0.0000000), wk =   0.0277778
        k(   10) = (   0.0151768   0.0262870   0.0000000), wk =   0.0277778
        k(   11) = (   0.0151768   0.0438041   0.0000000), wk =   0.0277778
        k(   12) = (   0.0151768   0.0613211   0.0000000), wk =   0.0277778
        k(   13) = (   0.0151768   0.0788382   0.0000000), wk =   0.0277778
        k(   14) = (   0.0151768  -0.1138494   0.0000000), wk =   0.0277778
        k(   15) = (   0.0151768  -0.0963324   0.0000000), wk =   0.0277778
        k(   16) = (   0.0151768  -0.0788153   0.0000000), wk =   0.0277778
        k(   17) = (   0.0151768  -0.0612983   0.0000000), wk =   0.0277778
        k(   18) = (   0.0151768  -0.0437812   0.0000000), wk =   0.0277778
        k(   19) = (   0.0151768  -0.0262641   0.0000000), wk =   0.0277778
        k(   20) = (   0.0303536  -0.0174942   0.0000000), wk =   0.0277778
        k(   21) = (   0.0303536   0.0000229   0.0000000), wk =   0.0277778
        k(   22) = (   0.0303536   0.0175399   0.0000000), wk =   0.0277778
        k(   23) = (   0.0303536   0.0350570   0.0000000), wk =   0.0277778
        k(   24) = (   0.0303536   0.0525740   0.0000000), wk =   0.0277778
        k(   25) = (   0.0303536   0.0700911   0.0000000), wk =   0.0277778
        k(   26) = (   0.0303536  -0.1225965   0.0000000), wk =   0.0277778
        k(   27) = (   0.0303536  -0.1050795   0.0000000), wk =   0.0277778
        k(   28) = (   0.0303536  -0.0875624   0.0000000), wk =   0.0277778
        k(   29) = (   0.0303536  -0.0700453   0.0000000), wk =   0.0277778
        k(   30) = (   0.0303536  -0.0525283   0.0000000), wk =   0.0277778
        k(   31) = (   0.0303536  -0.0350112   0.0000000), wk =   0.0277778
        k(   32) = (   0.0455304  -0.0262413   0.0000000), wk =   0.0277778
        k(   33) = (   0.0455304  -0.0087242   0.0000000), wk =   0.0277778
        k(   34) = (   0.0455304   0.0087928   0.0000000), wk =   0.0277778
        k(   35) = (   0.0455304   0.0263099   0.0000000), wk =   0.0277778
        k(   36) = (   0.0455304   0.0438269   0.0000000), wk =   0.0277778
        k(   37) = (   0.0455304   0.0613440   0.0000000), wk =   0.0277778
        k(   38) = (   0.0455304  -0.1313436   0.0000000), wk =   0.0277778
        k(   39) = (   0.0455304  -0.1138265   0.0000000), wk =   0.0277778
        k(   40) = (   0.0455304  -0.0963095   0.0000000), wk =   0.0277778
        k(   41) = (   0.0455304  -0.0787924   0.0000000), wk =   0.0277778
        k(   42) = (   0.0455304  -0.0612754   0.0000000), wk =   0.0277778
        k(   43) = (   0.0455304  -0.0437583   0.0000000), wk =   0.0277778
        k(   44) = (   0.0607072  -0.0349884   0.0000000), wk =   0.0277778
        k(   45) = (   0.0607072  -0.0174713   0.0000000), wk =   0.0277778
        k(   46) = (   0.0607072   0.0000457   0.0000000), wk =   0.0277778
        k(   47) = (   0.0607072   0.0175628   0.0000000), wk =   0.0277778
        k(   48) = (   0.0607072   0.0350798   0.0000000), wk =   0.0277778
        k(   49) = (   0.0607072   0.0525969   0.0000000), wk =   0.0277778
        k(   50) = (   0.0607072  -0.1400907   0.0000000), wk =   0.0277778
        k(   51) = (   0.0607072  -0.1225736   0.0000000), wk =   0.0277778
        k(   52) = (   0.0607072  -0.1050566   0.0000000), wk =   0.0277778
        k(   53) = (   0.0607072  -0.0875395   0.0000000), wk =   0.0277778
        k(   54) = (   0.0607072  -0.0700225   0.0000000), wk =   0.0277778
        k(   55) = (   0.0607072  -0.0525054   0.0000000), wk =   0.0277778
        k(   56) = (   0.0758840  -0.0437355   0.0000000), wk =   0.0277778
        k(   57) = (   0.0758840  -0.0262184   0.0000000), wk =   0.0277778
        k(   58) = (   0.0758840  -0.0087014   0.0000000), wk =   0.0277778
        k(   59) = (   0.0758840   0.0088157   0.0000000), wk =   0.0277778
        k(   60) = (   0.0758840   0.0263327   0.0000000), wk =   0.0277778
        k(   61) = (   0.0758840   0.0438498   0.0000000), wk =   0.0277778
        k(   62) = (   0.0758840  -0.1488378   0.0000000), wk =   0.0277778
        k(   63) = (   0.0758840  -0.1313207   0.0000000), wk =   0.0277778
        k(   64) = (   0.0758840  -0.1138037   0.0000000), wk =   0.0277778
        k(   65) = (   0.0758840  -0.0962866   0.0000000), wk =   0.0277778
        k(   66) = (   0.0758840  -0.0787696   0.0000000), wk =   0.0277778
        k(   67) = (   0.0758840  -0.0612525   0.0000000), wk =   0.0277778
        k(   68) = (  -0.0910608   0.0524826   0.0000000), wk =   0.0138889
        k(   69) = (  -0.0910608   0.0699996   0.0000000), wk =   0.0277778
        k(   70) = (  -0.0910608   0.0875167   0.0000000), wk =   0.0277778
        k(   71) = (  -0.0910608   0.1050337   0.0000000), wk =   0.0277778
        k(   72) = (  -0.0910608   0.1225508   0.0000000), wk =   0.0277778
        k(   73) = (  -0.0910608   0.1400678   0.0000000), wk =   0.0277778
        k(   74) = (  -0.0910608  -0.0526198   0.0000000), wk =   0.0138889

     Dense  grid:   943309 G-vectors     FFT dimensions: (  80,  80, 360)

     Smooth grid:   238777 G-vectors     FFT dimensions: (  50,  50, 225)

     Estimated max dynamical RAM per process >     205.77 MB

     Estimated total dynamical RAM >       7.43 GB

     Initial potential from superposition of free atoms

     starting charge  185.99674, renormalised to  186.00000

     negative rho (up, down):  4.584E-04 0.000E+00


     %%%%%%%%%%%%%%%%%%%%%%%%%%%%%%%%%%%%%%%%%%%%%%%%%%%%%%%%%%%%%%%%%%%%%%%%
     %                                                                      %
     % You are using vdW-DF, which was implemented by the Thonhauser group. %
     % Please cite the following two papers that made this development      %
     % possible and the two reviews that describe the various versions:     %
     %                                                                      %
     %   T. Thonhauser et al., PRL 115, 136402 (2015).                      %
     %   T. Thonhauser et al., PRB 76, 125112 (2007).                       %
     %   K. Berland et al., Rep. Prog. Phys. 78, 066501 (2015).             %
     %   D.C. Langreth et al., J. Phys.: Condens. Matter 21, 084203 (2009). %
     %                                                                      %
     %                                                                      %
     % If you are calculating the stress with vdW-DF, please also cite:     %
     %                                                                      %
     %   R. Sabatini et al., J. Phys.: Condens. Matter 24, 424209 (2012).   %
     %                                                                      %
     %%%%%%%%%%%%%%%%%%%%%%%%%%%%%%%%%%%%%%%%%%%%%%%%%%%%%%%%%%%%%%%%%%%%%%%%



     Adding external electric field

     Computed dipole along edir(3) : 
        Dipole               -0.0000 Ry au,         -0.0000 Debye
        Dipole field         -0.0000 Ry au, 

        Potential amp.        0.0000 Ry
        Total length         45.1118 bohr

     Starting wfcs are  120 randomized atomic wfcs

     total cpu time spent up to now is       94.1 secs

     Self-consistent Calculation

     iteration #  1     ecut=    55.12 Ry     beta= 0.10
     Davidson diagonalization with overlap
     ethr =  1.00E-02,  avg # of iterations =  2.9

     Threshold (ethr) on eigenvalues was too large:
     Diagonalizing with lowered threshold

     Davidson diagonalization with overlap
     ethr =  7.75E-04,  avg # of iterations =  3.2

     negative rho (up, down):  4.095E-04 0.000E+00

     Adding external electric field

     Computed dipole along edir(3) : 
        Dipole               -0.0779 Ry au,         -0.1980 Debye
        Dipole field         -0.0002 Ry au, 

        Potential amp.        0.0205 Ry
        Total length         45.1118 bohr


     total cpu time spent up to now is      557.6 secs

     total energy              =   -2279.43186347 Ry
     estimated scf accuracy    <       1.58500608 Ry

     iteration #  2     ecut=    55.12 Ry     beta= 0.10
     Davidson diagonalization with overlap
     ethr =  8.52E-04,  avg # of iterations =  2.0

     negative rho (up, down):  3.826E-04 0.000E+00

     Adding external electric field

     Computed dipole along edir(3) : 
        Dipole                0.3067 Ry au,          0.7796 Debye
        Dipole field          0.0009 Ry au, 

        Potential amp.       -0.0806 Ry
        Total length         45.1118 bohr


     total cpu time spent up to now is      756.2 secs

     total energy              =   -2279.46048298 Ry
     estimated scf accuracy    <       1.03151856 Ry

     iteration #  3     ecut=    55.12 Ry     beta= 0.10
     Davidson diagonalization with overlap
     ethr =  5.55E-04,  avg # of iterations =  1.1

     negative rho (up, down):  3.652E-04 0.000E+00

     Adding external electric field

     Computed dipole along edir(3) : 
        Dipole               -0.0138 Ry au,         -0.0350 Debye
        Dipole field         -0.0000 Ry au, 

        Potential amp.        0.0036 Ry
        Total length         45.1118 bohr


     total cpu time spent up to now is      923.5 secs

     total energy              =   -2279.42251745 Ry
     estimated scf accuracy    <       4.85530646 Ry

     iteration #  4     ecut=    55.12 Ry     beta= 0.10
     Davidson diagonalization with overlap
     ethr =  5.55E-04,  avg # of iterations =  1.0

     negative rho (up, down):  3.330E-04 0.000E+00

     Adding external electric field

     Computed dipole along edir(3) : 
        Dipole                0.0450 Ry au,          0.1144 Debye
        Dipole field          0.0001 Ry au, 

        Potential amp.       -0.0118 Ry
        Total length         45.1118 bohr


     total cpu time spent up to now is     1101.1 secs

     total energy              =   -2279.46370545 Ry
     estimated scf accuracy    <       0.31356377 Ry

     iteration #  5     ecut=    55.12 Ry     beta= 0.10
     Davidson diagonalization with overlap
     ethr =  1.69E-04,  avg # of iterations =  2.0

     negative rho (up, down):  3.192E-04 0.000E+00

     Adding external electric field

     Computed dipole along edir(3) : 
        Dipole                0.0407 Ry au,          0.1035 Debye
        Dipole field          0.0001 Ry au, 

        Potential amp.       -0.0107 Ry
        Total length         45.1118 bohr


     total cpu time spent up to now is     1296.0 secs

     total energy              =   -2279.47147908 Ry
     estimated scf accuracy    <       0.07641785 Ry

     iteration #  6     ecut=    55.12 Ry     beta= 0.10
     Davidson diagonalization with overlap
     ethr =  4.11E-05,  avg # of iterations =  3.6

     negative rho (up, down):  3.794E-04 0.000E+00

     Adding external electric field

     Computed dipole along edir(3) : 
        Dipole                0.0280 Ry au,          0.0713 Debye
        Dipole field          0.0001 Ry au, 

        Potential amp.       -0.0074 Ry
        Total length         45.1118 bohr


     total cpu time spent up to now is     1516.4 secs

     total energy              =   -2279.46845806 Ry
     estimated scf accuracy    <       0.04065488 Ry

     iteration #  7     ecut=    55.12 Ry     beta= 0.10
     Davidson diagonalization with overlap
     ethr =  2.19E-05,  avg # of iterations =  2.7

     negative rho (up, down):  3.973E-04 0.000E+00

     Adding external electric field

     Computed dipole along edir(3) : 
        Dipole                0.0277 Ry au,          0.0704 Debye
        Dipole field          0.0001 Ry au, 

        Potential amp.       -0.0073 Ry
        Total length         45.1118 bohr


     total cpu time spent up to now is     1746.3 secs

     total energy              =   -2279.47297585 Ry
     estimated scf accuracy    <       0.00528851 Ry

     iteration #  8     ecut=    55.12 Ry     beta= 0.10
     Davidson diagonalization with overlap
     ethr =  2.84E-06,  avg # of iterations =  7.3

     negative rho (up, down):  4.127E-04 0.000E+00

     Adding external electric field

     Computed dipole along edir(3) : 
        Dipole                0.0430 Ry au,          0.1094 Debye
        Dipole field          0.0001 Ry au, 

        Potential amp.       -0.0113 Ry
        Total length         45.1118 bohr


     total cpu time spent up to now is     1991.6 secs

     total energy              =   -2279.47273069 Ry
     estimated scf accuracy    <       0.00269754 Ry

     iteration #  9     ecut=    55.12 Ry     beta= 0.10
     Davidson diagonalization with overlap
     ethr =  1.45E-06,  avg # of iterations =  3.5

     negative rho (up, down):  4.190E-04 0.000E+00

     Adding external electric field

     Computed dipole along edir(3) : 
        Dipole                0.0371 Ry au,          0.0942 Debye
        Dipole field          0.0001 Ry au, 

        Potential amp.       -0.0097 Ry
        Total length         45.1118 bohr


     total cpu time spent up to now is     2250.2 secs

     total energy              =   -2279.47323748 Ry
     estimated scf accuracy    <       0.00199278 Ry

     iteration # 10     ecut=    55.12 Ry     beta= 0.10
     Davidson diagonalization with overlap
     ethr =  1.07E-06,  avg # of iterations =  2.0

     negative rho (up, down):  3.908E-04 0.000E+00

     Adding external electric field

     Computed dipole along edir(3) : 
        Dipole                0.0347 Ry au,          0.0881 Debye
        Dipole field          0.0001 Ry au, 

        Potential amp.       -0.0091 Ry
        Total length         45.1118 bohr


     total cpu time spent up to now is     2458.6 secs

     total energy              =   -2279.47342251 Ry
     estimated scf accuracy    <       0.00007286 Ry

     iteration # 11     ecut=    55.12 Ry     beta= 0.10
     Davidson diagonalization with overlap
     ethr =  3.92E-08,  avg # of iterations =  3.5

     negative rho (up, down):  3.618E-04 0.000E+00

     Adding external electric field

     Computed dipole along edir(3) : 
        Dipole                0.0330 Ry au,          0.0838 Debye
        Dipole field          0.0001 Ry au, 

        Potential amp.       -0.0087 Ry
        Total length         45.1118 bohr


     total cpu time spent up to now is     2698.6 secs

     total energy              =   -2279.47342923 Ry
     estimated scf accuracy    <       0.00010095 Ry

     iteration # 12     ecut=    55.12 Ry     beta= 0.10
     Davidson diagonalization with overlap
     ethr =  3.92E-08,  avg # of iterations =  2.5

     negative rho (up, down):  3.379E-04 0.000E+00

     Adding external electric field

     Computed dipole along edir(3) : 
        Dipole                0.0337 Ry au,          0.0857 Debye
        Dipole field          0.0001 Ry au, 

        Potential amp.       -0.0089 Ry
        Total length         45.1118 bohr


     total cpu time spent up to now is     2917.3 secs

     total energy              =   -2279.47344112 Ry
     estimated scf accuracy    <       0.00001127 Ry

     iteration # 13     ecut=    55.12 Ry     beta= 0.10
     Davidson diagonalization with overlap
     ethr =  6.06E-09,  avg # of iterations =  4.2

     negative rho (up, down):  3.158E-04 0.000E+00

     Adding external electric field

     Computed dipole along edir(3) : 
        Dipole                0.0340 Ry au,          0.0863 Debye
        Dipole field          0.0001 Ry au, 

        Potential amp.       -0.0089 Ry
        Total length         45.1118 bohr


     total cpu time spent up to now is     3142.1 secs

     total energy              =   -2279.47344102 Ry
     estimated scf accuracy    <       0.00001012 Ry

     iteration # 14     ecut=    55.12 Ry     beta= 0.10
     Davidson diagonalization with overlap
     ethr =  5.44E-09,  avg # of iterations =  2.0

     negative rho (up, down):  1.745E-04 0.000E+00

     Adding external electric field

     Computed dipole along edir(3) : 
        Dipole                0.0334 Ry au,          0.0848 Debye
        Dipole field          0.0001 Ry au, 

        Potential amp.       -0.0088 Ry
        Total length         45.1118 bohr


     total cpu time spent up to now is     3371.3 secs

     End of self-consistent calculation

          k = 0.0000 0.0000 0.0000 ( 29913 PWs)   bands (ev):

   -84.0661 -84.0394 -83.5843 -83.5579 -83.5410 -83.5147 -77.9904 -77.9525
   -77.6997 -77.6863 -77.6625 -77.6490 -43.6034 -43.4635 -43.4014 -43.3993
   -43.3309 -43.1047 -43.0988 -43.0412 -42.8932 -42.8785 -42.8242 -42.8240
   -42.8197 -42.8024 -42.7588 -42.7492 -42.6090 -42.5572 -39.9723 -39.8307
   -39.7846 -39.6956 -39.6589 -39.6026 -39.5829 -39.4852 -39.4221 -39.4051
   -39.3794 -39.3672 -39.3487 -39.3116 -39.2472 -39.2020 -39.0074 -38.9956
    -6.6273  -4.5523  -4.1307  -3.8432  -3.8336  -3.8321  -3.4984  -3.4810
    -3.4739  -2.8628  -2.8612  -2.8474  -2.5157  -2.4860  -2.4724  -1.0224
    -0.9833  -0.9162  -0.0463  -0.0065  -0.0024   0.1443   0.2999   0.3929
     0.4668   0.6302   0.6627   0.8838   0.8880   0.9898   0.9930   1.1920
     1.2606   1.3064   1.3379   1.9828   2.6674   2.7601   2.8004   2.8326
     2.8606   3.1924   3.2258   3.2922   3.3902   4.0374   4.1921   4.3180
     4.3818   4.3940   4.4317   4.5981   4.8010   4.8786   5.2797   5.4071
     5.4452   5.4586   5.4596   5.8824   5.9900   6.1200   6.1373   6.3884

          k = 0.0000 0.0175 0.0000 ( 29873 PWs)   bands (ev):

   -84.0657 -84.0399 -83.5839 -83.5584 -83.5405 -83.5152 -77.9897 -77.9532
   -77.6990 -77.6856 -77.6632 -77.6496 -43.5949 -43.4619 -43.4000 -43.3995
   -43.3314 -43.1132 -43.0905 -43.0330 -42.8912 -42.8774 -42.8253 -42.8225
   -42.8200 -42.8013 -42.7594 -42.7498 -42.6173 -42.5654 -39.9632 -39.8310
   -39.7865 -39.6957 -39.6603 -39.5932 -39.5738 -39.4835 -39.4225 -39.4054
   -39.3904 -39.3689 -39.3492 -39.3134 -39.2468 -39.2031 -39.0183 -39.0065
    -6.5577  -4.4817  -4.0600  -3.8258  -3.7785  -3.7749  -3.4676  -3.4326
    -3.4324  -2.8347  -2.8257  -2.8144  -2.4708  -2.4147  -2.4128  -1.0089
    -0.9785  -0.9039  -0.0261   0.0147   0.0255   0.0335   0.2765   0.4043
     0.4984   0.5768   0.5805   0.8819   0.8872   0.9201   1.0298   1.2075
     1.2454   1.2778   1.3847   1.9029   2.5647   2.5825   2.6816   2.8434
     2.8851   3.1112   3.1675   3.1929   3.3477   4.0458   4.0517   4.1035
     4.1596   4.2534   4.3353   4.6213   4.7686   4.8275   5.2296   5.3110
     5.4180   5.4344   5.6056   5.7240   5.8654   5.9103   6.2007   6.2275

          k = 0.0000 0.0350 0.0000 ( 29825 PWs)   bands (ev):

   -84.0643 -84.0412 -83.5825 -83.5597 -83.5392 -83.5165 -77.9878 -77.9551
   -77.6972 -77.6838 -77.6650 -77.6515 -43.5700 -43.4575 -43.4019 -43.3941
   -43.3327 -43.1381 -43.0662 -43.0089 -42.8857 -42.8744 -42.8285 -42.8210
   -42.8180 -42.7980 -42.7613 -42.7516 -42.6416 -42.5895 -39.9363 -39.8318
   -39.7918 -39.6959 -39.6639 -39.5657 -39.5472 -39.4787 -39.4237 -39.4226
   -39.4061 -39.3736 -39.3506 -39.3184 -39.2456 -39.2063 -39.0501 -39.0385
    -6.3531  -4.2763  -3.8537  -3.8045  -3.6092  -3.6047  -3.3933  -3.2973
    -3.2933  -2.7670  -2.7137  -2.7047  -2.3667  -2.2101  -2.2067  -0.9825
    -0.9717  -0.8644  -0.2279   0.0132   0.0540   0.1106   0.1939   0.3439
     0.3734   0.3890   0.6333   0.8354   0.8979   0.9328   1.0219   1.1423
     1.2211   1.2508   1.5496   1.7019   2.2904   2.3032   2.3374   2.7421
     2.7624   2.8290   3.0878   3.0993   3.2411   3.3754   3.4548   3.5454
     4.0935   4.2437   4.4636   4.5911   4.6208   4.7363   4.8780   4.9720
     5.1490   5.2373   5.4237   5.4550   5.5038   5.7610   5.9675   5.9946

          k = 0.0000 0.0526 0.0000 ( 29799 PWs)   bands (ev):

   -84.0622 -84.0433 -83.5804 -83.5618 -83.5371 -83.5186 -77.9848 -77.9581
   -77.6942 -77.6808 -77.6680 -77.6545 -43.5305 -43.4507 -43.4053 -43.3858
   -43.3353 -43.1776 -43.0275 -42.9706 -42.8779 -42.8695 -42.8334 -42.8233
   -42.8111 -42.7930 -42.7645 -42.7547 -42.6803 -42.6277 -39.8930 -39.8324
   -39.7995 -39.6957 -39.6693 -39.5217 -39.5044 -39.4759 -39.4687 -39.4259
   -39.4069 -39.3804 -39.3522 -39.3256 -39.2435 -39.2112 -39.1001 -39.0886
    -6.0269  -3.9585  -3.8237  -3.5313  -3.3553  -3.3434  -3.2707  -3.0898
    -3.0844  -2.6631  -2.5282  -2.5201  -2.2061  -1.8853  -1.8823  -0.9783
    -0.9742  -0.7991  -0.5337  -0.1598  -0.0308  -0.0092   0.1716   0.2574
     0.2899   0.3037   0.6974   0.8486   0.8593   0.9248   1.0484   1.1238
     1.1477   1.2597   1.4824   1.7825   1.8262   1.9640   1.9920   2.3652
     2.5583   2.5766   2.6478   2.7107   2.8084   3.0186   3.0384   3.1535
     3.9967   4.0804   4.2083   4.3212   4.3635   4.5405   4.5904   4.6732
     4.7282   4.9051   4.9998   5.1537   5.4006   5.4398   5.7023   5.8928

          k = 0.0000 0.0701 0.0000 ( 29815 PWs)   bands (ev):

   -84.0594 -84.0461 -83.5777 -83.5645 -83.5344 -83.5213 -77.9810 -77.9621
   -77.6904 -77.6770 -77.6719 -77.6584 -43.4791 -43.4425 -43.4103 -43.3758
   -43.3396 -43.2291 -42.9772 -42.9208 -42.8698 -42.8620 -42.8394 -42.8272
   -42.8025 -42.7867 -42.7693 -42.7591 -42.7306 -42.6776 -39.8364 -39.8319
   -39.8076 -39.6946 -39.6755 -39.5383 -39.4640 -39.4621 -39.4487 -39.4288
   -39.4072 -39.3873 -39.3530 -39.3336 -39.2402 -39.2171 -39.1644 -39.1528
    -5.6036  -3.9498  -3.5778  -3.1544  -3.1323  -3.0355  -3.0231  -2.8470
    -2.8407  -2.5358  -2.2832  -2.2754  -1.9907  -1.5139  -1.5132  -0.9797
    -0.9564  -0.8372  -0.7569  -0.4771  -0.3480  -0.3449   0.1134   0.1594
     0.4554   0.4571   0.6947   0.7157   0.7970   0.8111   1.0209   1.1127
     1.1629   1.2718   1.3969   1.4584   1.5695   1.6208   1.7414   1.9440
     1.9897   2.0717   2.2717   2.4560   2.5305   2.9245   2.9989   3.1355
     3.5021   3.6759   3.7700   3.9676   4.0672   4.1913   4.2597   4.2848
     4.6333   4.7325   4.7754   4.9316   5.2697   5.4734   5.6229   5.8903

          k = 0.0000 0.0876 0.0000 ( 29836 PWs)   bands (ev):

   -84.0562 -84.0493 -83.5745 -83.5677 -83.5312 -83.5244 -77.9764 -77.9666
   -77.6860 -77.6764 -77.6725 -77.6629 -43.4337 -43.4215 -43.4147 -43.3655
   -43.3456 -43.2888 -42.9190 -42.8645 -42.8630 -42.8527 -42.8445 -42.8329
   -42.7958 -42.7867 -42.7795 -42.7754 -42.7649 -42.7352 -39.8296 -39.8182
   -39.7661 -39.6925 -39.6813 -39.6118 -39.4527 -39.4366 -39.4062 -39.4044
   -39.3902 -39.3746 -39.3522 -39.3399 -39.2419 -39.2323 -39.2251 -39.2234
    -5.1219  -4.2267  -3.2301  -3.0376  -2.7648  -2.7536  -2.7280  -2.6338
    -2.6279  -2.4308  -2.0209  -2.0125  -1.7302  -1.3292  -1.3275  -1.1674
    -0.8772  -0.8474  -0.7930  -0.7564  -0.5654  -0.5477   0.1030   0.1488
     0.4894   0.5325   0.5885   0.6631   0.6679   0.8106   0.8257   0.8701
     0.9973   1.1028   1.2050   1.2315   1.3176   1.3333   1.4315   1.4431
     1.7705   2.0553   2.3646   2.5464   2.7082   2.7613   2.9172   2.9871
     3.2351   3.2458   3.4511   3.6988   3.7859   3.9779   3.9839   4.0407
     4.1615   4.4294   4.7739   4.7941   5.5091   5.5768   5.6641   5.9102

          k = 0.0000-0.1051 0.0000 ( 29798 PWs)   bands (ev):

   -84.0528 -84.0528 -83.5711 -83.5711 -83.5278 -83.5278 -77.9715 -77.9715
   -77.6812 -77.6812 -77.6677 -77.6677 -43.4250 -43.4250 -43.3615 -43.3615
   -43.3472 -43.3472 -42.8637 -42.8637 -42.8506 -42.8505 -42.8374 -42.8373
   -42.8013 -42.8013 -42.7812 -42.7812 -42.7713 -42.7713 -39.8249 -39.8249
   -39.6974 -39.6974 -39.6801 -39.6801 -39.4437 -39.4437 -39.4037 -39.4037
   -39.3503 -39.3503 -39.3149 -39.3149 -39.3013 -39.3013 -39.2295 -39.2295
    -4.6388  -4.6388  -3.0380  -3.0380  -2.6299  -2.6299  -2.5593  -2.5593
    -2.4609  -2.4609  -1.8649  -1.8649  -1.4480  -1.4479  -1.3220  -1.3220
    -0.9981  -0.9981  -0.8480  -0.8480  -0.3618  -0.3618   0.2048   0.2049
     0.3883   0.3883   0.5240   0.5240   0.6393   0.6393   0.7232   0.7232
     1.0090   1.0090   1.1034   1.1034   1.1773   1.1773   1.3270   1.3270
     2.1445   2.1445   2.3672   2.3672   2.7033   2.7033   2.9046   2.9046
     3.3289   3.3289   3.4815   3.4816   3.5245   3.5246   3.9318   3.9318
     4.2039   4.2039   4.7783   4.7783   5.5430   5.5430   5.9162   5.9162

          k = 0.0152-0.0087 0.0000 ( 29873 PWs)   bands (ev):

   -84.0657 -84.0399 -83.5839 -83.5584 -83.5405 -83.5152 -77.9897 -77.9532
   -77.6990 -77.6856 -77.6632 -77.6496 -43.5949 -43.4619 -43.4000 -43.3995
   -43.3314 -43.1132 -43.0905 -43.0330 -42.8912 -42.8774 -42.8253 -42.8225
   -42.8200 -42.8013 -42.7594 -42.7498 -42.6173 -42.5654 -39.9632 -39.8310
   -39.7865 -39.6957 -39.6603 -39.5932 -39.5738 -39.4835 -39.4225 -39.4054
   -39.3904 -39.3689 -39.3492 -39.3134 -39.2468 -39.2031 -39.0183 -39.0065
    -6.5577  -4.4817  -4.0600  -3.8258  -3.7785  -3.7749  -3.4676  -3.4326
    -3.4324  -2.8347  -2.8257  -2.8144  -2.4708  -2.4147  -2.4128  -1.0089
    -0.9785  -0.9039  -0.0261   0.0147   0.0255   0.0335   0.2765   0.4043
     0.4984   0.5768   0.5805   0.8819   0.8872   0.9201   1.0298   1.2075
     1.2454   1.2778   1.3847   1.9029   2.5647   2.5825   2.6816   2.8434
     2.8851   3.1112   3.1675   3.1929   3.3477   4.0458   4.0517   4.1035
     4.1596   4.2534   4.3353   4.6213   4.7686   4.8275   5.2296   5.3110
     5.4180   5.4344   5.6056   5.7240   5.8653   5.9103   6.2007   6.2275

          k = 0.0152 0.0088 0.0000 ( 29857 PWs)   bands (ev):

   -84.0661 -84.0394 -83.5843 -83.5579 -83.5410 -83.5147 -77.9904 -77.9525
   -77.6997 -77.6863 -77.6625 -77.6490 -43.6023 -43.4623 -43.3996 -43.3987
   -43.3299 -43.1046 -43.0978 -43.0402 -42.8913 -42.8782 -42.8247 -42.8226
   -42.8185 -42.8016 -42.7583 -42.7489 -42.6089 -42.5570 -39.9740 -39.8338
   -39.7861 -39.6977 -39.6599 -39.6041 -39.5845 -39.4837 -39.4213 -39.4076
   -39.3796 -39.3684 -39.3519 -39.3130 -39.2484 -39.2023 -39.0076 -38.9958
    -6.5576  -4.4815  -4.0612  -3.8197  -3.7847  -3.7729  -3.4577  -3.4517
    -3.4228  -2.8405  -2.8242  -2.8104  -2.4535  -2.4453  -2.3992  -1.0179
    -0.9627  -0.9112  -0.0398   0.0128   0.0298   0.0421   0.3498   0.3558
     0.4964   0.5094   0.6858   0.8647   0.8781   0.9196   1.0277   1.1303
     1.2980   1.3195   1.3350   1.9090   2.5279   2.6504   2.7267   2.7859
     2.8252   3.1249   3.1753   3.2085   3.3289   4.0793   4.0967   4.1124
     4.1811   4.1853   4.3482   4.5448   4.8117   4.8174   5.2537   5.3361
     5.3717   5.4557   5.6077   5.7848   5.8505   5.8882   6.1097   6.2919

          k = 0.0152 0.0263 0.0000 ( 29827 PWs)   bands (ev):

   -84.0657 -84.0399 -83.5838 -83.5584 -83.5405 -83.5152 -77.9897 -77.9532
   -77.6990 -77.6857 -77.6632 -77.6496 -43.5929 -43.4597 -43.3989 -43.3961
   -43.3295 -43.1130 -43.0887 -43.0311 -42.8879 -42.8768 -42.8262 -42.8197
   -42.8180 -42.7998 -42.7584 -42.7492 -42.6171 -42.5652 -39.9665 -39.8369
   -39.7893 -39.6997 -39.6620 -39.5961 -39.5770 -39.4807 -39.4211 -39.4102
   -39.3908 -39.3711 -39.3555 -39.3161 -39.2491 -39.2036 -39.0186 -39.0069
    -6.4203  -4.3432  -3.9247  -3.7577  -3.7497  -3.6221  -3.3932  -3.3861
    -3.3168  -2.7818  -2.7739  -2.7259  -2.3627  -2.3508  -2.2394  -1.0074
    -0.9408  -0.8929  -0.1428  -0.0176   0.0523   0.0801   0.2830   0.3528
     0.4167   0.5028   0.6127   0.7712   0.9044   0.9484   0.9994   1.1277
     1.2298   1.3056   1.4550   1.7775   2.3410   2.4193   2.4740   2.7533
     2.8079   2.8655   3.1159   3.1591   3.2474   3.6364   3.6515   3.6573
     4.1698   4.3171   4.3427   4.4975   4.6906   4.7922   4.9996   5.1565
     5.2562   5.3469   5.4250   5.4556   5.6969   5.9142   5.9398   5.9722

          k = 0.0152 0.0438 0.0000 ( 29827 PWs)   bands (ev):

   -84.0643 -84.0412 -83.5825 -83.5597 -83.5392 -83.5165 -77.9879 -77.9551
   -77.6972 -77.6838 -77.6650 -77.6515 -43.5675 -43.4547 -43.4007 -43.3895
   -43.3305 -43.1379 -43.0638 -43.0064 -42.8823 -42.8728 -42.8295 -42.8188
   -42.8142 -42.7961 -42.7602 -42.7509 -42.6415 -42.5893 -39.9407 -39.8396
   -39.7952 -39.7011 -39.6660 -39.5696 -39.5515 -39.4751 -39.4232 -39.4220
   -39.4123 -39.3762 -39.3589 -39.3215 -39.2485 -39.2068 -39.0503 -39.0387
    -6.1543  -4.0798  -3.7487  -3.6650  -3.5717  -3.3805  -3.2903  -3.2263
    -3.1251  -2.6871  -2.6510  -2.5585  -2.2332  -2.1146  -1.9444  -1.0059
    -0.9270  -0.8431  -0.4108  -0.0899   0.0392   0.1339   0.1645   0.2177
     0.3005   0.3973   0.6727   0.7451   0.9027   0.9546   0.9858   1.1535
     1.1988   1.2122   1.5898   1.6787   2.0375   2.0696   2.0767   2.5039
     2.6255   2.7112   2.8907   2.9135   3.0433   3.0497   3.0620   3.1981
     4.1598   4.1695   4.3205   4.3932   4.5140   4.5893   4.6268   4.7133
     4.8764   5.0321   5.0562   5.4546   5.4549   5.6837   5.8306   5.9841

          k = 0.0152 0.0613 0.0000 ( 29813 PWs)   bands (ev):

   -84.0622 -84.0433 -83.5804 -83.5618 -83.5371 -83.5186 -77.9849 -77.9581
   -77.6943 -77.6809 -77.6680 -77.6545 -43.5277 -43.4479 -43.4043 -43.3808
   -43.3334 -43.1777 -43.0248 -42.9678 -42.8763 -42.8659 -42.8343 -42.8215
   -42.8067 -42.7908 -42.7637 -42.7542 -42.6805 -42.6279 -39.8979 -39.8407
   -39.8024 -39.7011 -39.6710 -39.5260 -39.5092 -39.4741 -39.4666 -39.4245
   -39.4140 -39.3825 -39.3611 -39.3282 -39.2465 -39.2114 -39.0999 -39.0884
    -5.7778  -3.8148  -3.7241  -3.3434  -3.2788  -3.1814  -3.0596  -3.0052
    -2.8691  -2.5655  -2.4518  -2.3230  -2.0481  -1.7682  -1.5896  -1.0106
    -0.9355  -0.7857  -0.7112  -0.3411  -0.2080  -0.1534   0.0925   0.1659
     0.3383   0.4586   0.6367   0.7943   0.8507   0.9080   0.9770   1.0750
     1.1775   1.2608   1.5241   1.5392   1.6289   1.7570   2.0749   2.1008
     2.1336   2.1912   2.3374   2.4868   2.5966   2.9524   2.9701   3.1506
     3.7033   3.7949   3.9404   4.1369   4.1530   4.3258   4.3735   4.6044
     4.7951   4.7975   5.0193   5.0372   5.3363   5.5113   5.5730   5.8140

          k = 0.0152 0.0788 0.0000 ( 29826 PWs)   bands (ev):

   -84.0594 -84.0461 -83.5777 -83.5645 -83.5344 -83.5213 -77.9810 -77.9620
   -77.6905 -77.6771 -77.6719 -77.6583 -43.4763 -43.4400 -43.4097 -43.3712
   -43.3386 -43.2297 -42.9746 -42.9181 -42.8701 -42.8570 -42.8400 -42.8267
   -42.7985 -42.7845 -42.7692 -42.7591 -42.7313 -42.6782 -39.8411 -39.8394
   -39.8089 -39.6994 -39.6762 -39.5374 -39.4680 -39.4586 -39.4530 -39.4286
   -39.4138 -39.3879 -39.3611 -39.3346 -39.2430 -39.2168 -39.1635 -39.1518
    -5.3209  -4.0175  -3.3452  -3.0616  -3.0392  -2.8787  -2.7880  -2.7757
    -2.5839  -2.4309  -2.1970  -2.0571  -1.8146  -1.4138  -1.3979  -1.0326
    -0.8746  -0.8697  -0.8036  -0.6623  -0.5160  -0.4544   0.0270   0.0815
     0.5087   0.5280   0.6118   0.6533   0.6962   0.7957   0.8454   0.8911
     1.1166   1.2702   1.3349   1.3526   1.4063   1.4529   1.5089   1.6976
     1.7345   1.9804   2.3300   2.5257   2.5826   2.8391   2.9400   3.1028
     3.1100   3.4614   3.4973   3.8405   4.0572   4.0675   4.1699   4.2655
     4.4538   4.6848   4.7792   4.8373   5.2187   5.5132   5.6578   5.8528

          k = 0.0152-0.1138 0.0000 ( 29839 PWs)   bands (ev):

   -84.0562 -84.0493 -83.5745 -83.5677 -83.5312 -83.5245 -77.9765 -77.9666
   -77.6860 -77.6764 -77.6726 -77.6629 -43.4319 -43.4202 -43.4138 -43.3619
   -43.3461 -43.2901 -42.9167 -42.8638 -42.8621 -42.8483 -42.8447 -42.8340
   -42.7939 -42.7865 -42.7776 -42.7762 -42.7656 -42.7364 -39.8350 -39.8177
   -39.7697 -39.6958 -39.6808 -39.6101 -39.4499 -39.4369 -39.4113 -39.4054
   -39.3923 -39.3773 -39.3582 -39.3389 -39.2414 -39.2333 -39.2234 -39.2226
    -4.8304  -4.3716  -3.0625  -2.9674  -2.8683  -2.6231  -2.5920  -2.5204
    -2.4177  -2.3534  -1.9457  -1.8283  -1.5552  -1.3807  -1.3525  -1.2837
    -1.0102  -0.9148  -0.8460  -0.7908  -0.5362  -0.3146   0.0962   0.1229
     0.2609   0.4232   0.5121   0.5307   0.5925   0.6124   0.7137   0.7529
     0.9874   1.0060   1.1171   1.1650   1.1954   1.2901   1.3964   1.4633
     2.0325   2.1591   2.1923   2.6167   2.6312   2.7405   2.8038   3.1133
     3.1162   3.1789   3.4835   3.5413   3.7451   3.8826   3.9543   4.0910
     4.1806   4.3469   4.7544   4.7562   5.3634   5.4655   5.8045   5.8398

          k = 0.0152-0.0963 0.0000 ( 29843 PWs)   bands (ev):

   -84.0528 -84.0527 -83.5711 -83.5711 -83.5279 -83.5278 -77.9716 -77.9715
   -77.6812 -77.6812 -77.6677 -77.6677 -43.4260 -43.4240 -43.3611 -43.3607
   -43.3478 -43.3478 -42.8647 -42.8620 -42.8506 -42.8501 -42.8397 -42.8362
   -42.8021 -42.7997 -42.7829 -42.7802 -42.7728 -42.7700 -39.8277 -39.8219
   -39.6975 -39.6959 -39.6810 -39.6809 -39.4452 -39.4422 -39.4063 -39.4005
   -39.3530 -39.3465 -39.3178 -39.3129 -39.3040 -39.2995 -39.2310 -39.2280
    -4.8307  -4.3715  -3.0597  -2.9767  -2.8598  -2.6236  -2.5986  -2.5216
    -2.3890  -2.3751  -1.9355  -1.8324  -1.5478  -1.4033  -1.3592  -1.2868
    -0.9889  -0.9321  -0.8397  -0.7882  -0.5222  -0.3187   0.1026   0.1256
     0.2620   0.3810   0.4206   0.5789   0.6114   0.6547   0.7061   0.7094
     0.9081   1.0635   1.0764   1.2198   1.2742   1.3120   1.3898   1.4298
     1.9084   2.2167   2.4023   2.4657   2.6781   2.7244   2.9054   2.9132
     3.1389   3.3540   3.4341   3.6135   3.6719   3.7927   4.0212   4.0342
     4.2188   4.3483   4.7327   4.7510   5.4025   5.4494   5.8217   5.8279

          k = 0.0152-0.0788 0.0000 ( 29822 PWs)   bands (ev):

   -84.0562 -84.0493 -83.5745 -83.5677 -83.5313 -83.5244 -77.9764 -77.9666
   -77.6860 -77.6764 -77.6725 -77.6629 -43.4353 -43.4224 -43.4156 -43.3682
   -43.3454 -43.2880 -42.9208 -42.8661 -42.8625 -42.8559 -42.8446 -42.8322
   -42.7978 -42.7871 -42.7805 -42.7748 -42.7642 -42.7345 -39.8248 -39.8184
   -39.7630 -39.6892 -39.6820 -39.6137 -39.4549 -39.4364 -39.4018 -39.4016
   -39.3882 -39.3731 -39.3468 -39.3416 -39.2419 -39.2321 -39.2268 -39.2242
    -5.3214  -4.0178  -3.3449  -3.0851  -3.0102  -2.8792  -2.7949  -2.7796
    -2.5712  -2.4396  -2.1866  -2.0631  -1.8138  -1.4150  -1.4035  -1.0527
    -0.8839  -0.8449  -0.8023  -0.6591  -0.5138  -0.4672   0.0420   0.0620
     0.5062   0.5492   0.5874   0.6302   0.7126   0.7264   0.8093   0.8554
     1.1078   1.3037   1.3115   1.3899   1.4141   1.4764   1.5764   1.6638
     1.7531   1.9866   2.4963   2.4972   2.5945   2.7653   2.8746   3.1265
     3.2317   3.3826   3.6577   3.8153   3.9311   4.0843   4.1933   4.2768
     4.4401   4.6709   4.7073   4.8394   5.2768   5.5274   5.6874   5.7964

          k = 0.0152-0.0613 0.0000 ( 29821 PWs)   bands (ev):

   -84.0595 -84.0461 -83.5777 -83.5645 -83.5344 -83.5213 -77.9809 -77.9621
   -77.6904 -77.6770 -77.6719 -77.6584 -43.4811 -43.4444 -43.4107 -43.3790
   -43.3404 -43.2287 -42.9790 -42.9227 -42.8710 -42.8642 -42.8390 -42.8277
   -42.8054 -42.7883 -42.7694 -42.7591 -42.7302 -42.6772 -39.8322 -39.8265
   -39.8072 -39.6909 -39.6750 -39.5392 -39.4645 -39.4607 -39.4455 -39.4287
   -39.4024 -39.3873 -39.3470 -39.3331 -39.2381 -39.2173 -39.1652 -39.1536
    -5.7783  -3.8155  -3.7246  -3.3381  -3.2887  -3.1651  -3.0757  -3.0096
    -2.8607  -2.5692  -2.4424  -2.3293  -2.0482  -1.7702  -1.5888  -1.0219
    -0.9255  -0.7805  -0.7252  -0.3290  -0.2154  -0.1762   0.1227   0.1445
     0.3263   0.4316   0.5985   0.7764   0.8611   0.8822   1.0222   1.0769
     1.1004   1.3353   1.4975   1.5462   1.7399   1.7507   1.9373   2.0996
     2.1651   2.2252   2.3943   2.5785   2.6153   2.8494   2.9243   3.2939
     3.6174   3.8049   4.0307   4.1645   4.2511   4.2829   4.4690   4.4703
     4.6738   4.8138   5.0437   5.0534   5.3233   5.5276   5.6319   5.7975

          k = 0.0152-0.0438 0.0000 ( 29822 PWs)   bands (ev):

   -84.0622 -84.0433 -83.5804 -83.5618 -83.5371 -83.5186 -77.9848 -77.9581
   -77.6942 -77.6808 -77.6680 -77.6545 -43.5322 -43.4525 -43.4060 -43.3886
   -43.3365 -43.1776 -43.0290 -42.9722 -42.8802 -42.8702 -42.8328 -42.8243
   -42.8134 -42.7943 -42.7650 -42.7550 -42.6802 -42.6277 -39.8901 -39.8276
   -39.7979 -39.6924 -39.6684 -39.5191 -39.5016 -39.4775 -39.4694 -39.4268
   -39.4029 -39.3793 -39.3471 -39.3242 -39.2416 -39.2111 -39.1003 -39.0888
    -6.1548  -4.0805  -3.7495  -3.6541  -3.5859  -3.3718  -3.2995  -3.2302
    -3.1202  -2.6890  -2.6409  -2.5659  -2.2344  -2.1173  -1.9418  -1.0047
    -0.9344  -0.8337  -0.4265  -0.0364   0.0327   0.0623   0.1765   0.1897
     0.2902   0.3948   0.5969   0.7916   0.8768   0.9974   1.0292   1.1420
     1.1619   1.2430   1.5801   1.7534   2.0042   2.0626   2.0844   2.4851
     2.7088   2.7521   2.7670   2.9257   3.0029   3.0651   3.0653   3.2910
     4.0399   4.1006   4.4306   4.5279   4.5548   4.6168   4.6950   4.7348
     4.7681   4.9138   5.1040   5.4556   5.4822   5.7143   5.8829   5.9685

          k = 0.0152-0.0263 0.0000 ( 29829 PWs)   bands (ev):

   -84.0643 -84.0412 -83.5825 -83.5597 -83.5392 -83.5165 -77.9878 -77.9551
   -77.6972 -77.6838 -77.6650 -77.6515 -43.5710 -43.4586 -43.4024 -43.3957
   -43.3335 -43.1381 -43.0670 -43.0098 -42.8874 -42.8747 -42.8281 -42.8219
   -42.8193 -42.7988 -42.7617 -42.7519 -42.6417 -42.5895 -39.9347 -39.8290
   -39.7906 -39.6939 -39.6632 -39.5643 -39.5456 -39.4801 -39.4243 -39.4224
   -39.4038 -39.3727 -39.3476 -39.3173 -39.2445 -39.2061 -39.0500 -39.0384
    -6.4206  -4.3437  -3.9205  -3.7611  -3.7548  -3.6193  -3.4015  -3.3810
    -3.3153  -2.7806  -2.7655  -2.7349  -2.3780  -2.3379  -2.2379  -0.9880
    -0.9737  -0.8776  -0.1565   0.0341   0.0408   0.0923   0.1777   0.3526
     0.3774   0.5834   0.6047   0.6893   0.8858   1.0018   1.1095   1.1489
     1.1701   1.2615   1.5183   1.7617   2.3475   2.4058   2.4435   2.8107
     2.8504   2.8834   3.0674   3.0984   3.3240   3.5305   3.6556   3.7440
     4.0792   4.2645   4.3749   4.6538   4.7186   4.7362   5.0335   5.1206
     5.2072   5.2755   5.4217   5.5019   5.8089   5.8603   5.9796   6.0593

          k = 0.0304-0.0175 0.0000 ( 29825 PWs)   bands (ev):

   -84.0643 -84.0412 -83.5825 -83.5597 -83.5392 -83.5165 -77.9878 -77.9551
   -77.6972 -77.6838 -77.6650 -77.6515 -43.5700 -43.4575 -43.4019 -43.3941
   -43.3327 -43.1381 -43.0662 -43.0089 -42.8857 -42.8744 -42.8285 -42.8210
   -42.8180 -42.7980 -42.7613 -42.7516 -42.6416 -42.5895 -39.9363 -39.8318
   -39.7918 -39.6959 -39.6639 -39.5657 -39.5472 -39.4787 -39.4237 -39.4226
   -39.4061 -39.3736 -39.3506 -39.3184 -39.2456 -39.2063 -39.0501 -39.0385
    -6.3531  -4.2763  -3.8537  -3.8045  -3.6092  -3.6047  -3.3933  -3.2973
    -3.2933  -2.7670  -2.7137  -2.7047  -2.3667  -2.2101  -2.2067  -0.9825
    -0.9717  -0.8644  -0.2279   0.0132   0.0540   0.1106   0.1939   0.3439
     0.3734   0.3890   0.6333   0.8354   0.8979   0.9328   1.0219   1.1423
     1.2211   1.2508   1.5496   1.7019   2.2904   2.3032   2.3374   2.7421
     2.7624   2.8290   3.0878   3.0993   3.2411   3.3754   3.4548   3.5454
     4.0935   4.2437   4.4636   4.5911   4.6208   4.7363   4.8780   4.9720
     5.1490   5.2373   5.4237   5.4550   5.5038   5.7610   5.9675   5.9946

          k = 0.0304 0.0000 0.0000 ( 29827 PWs)   bands (ev):

   -84.0657 -84.0399 -83.5838 -83.5584 -83.5405 -83.5152 -77.9897 -77.9532
   -77.6990 -77.6857 -77.6632 -77.6496 -43.5929 -43.4597 -43.3989 -43.3961
   -43.3295 -43.1130 -43.0887 -43.0311 -42.8879 -42.8768 -42.8262 -42.8197
   -42.8180 -42.7998 -42.7584 -42.7492 -42.6171 -42.5652 -39.9665 -39.8369
   -39.7893 -39.6997 -39.6620 -39.5961 -39.5770 -39.4807 -39.4211 -39.4102
   -39.3908 -39.3711 -39.3555 -39.3161 -39.2491 -39.2036 -39.0186 -39.0069
    -6.4203  -4.3432  -3.9247  -3.7577  -3.7497  -3.6221  -3.3932  -3.3861
    -3.3168  -2.7818  -2.7739  -2.7259  -2.3627  -2.3508  -2.2394  -1.0074
    -0.9408  -0.8929  -0.1428  -0.0176   0.0523   0.0801   0.2830   0.3528
     0.4167   0.5028   0.6127   0.7712   0.9044   0.9484   0.9994   1.1277
     1.2298   1.3056   1.4550   1.7775   2.3410   2.4193   2.4740   2.7533
     2.8079   2.8655   3.1159   3.1591   3.2474   3.6364   3.6515   3.6573
     4.1698   4.3171   4.3427   4.4975   4.6906   4.7922   4.9996   5.1565
     5.2562   5.3469   5.4250   5.4556   5.6969   5.9142   5.9397   5.9722

          k = 0.0304 0.0175 0.0000 ( 29839 PWs)   bands (ev):

   -84.0661 -84.0394 -83.5843 -83.5579 -83.5410 -83.5147 -77.9904 -77.9525
   -77.6997 -77.6863 -77.6625 -77.6489 -43.5995 -43.4592 -43.3971 -43.3945
   -43.3272 -43.1042 -43.0953 -43.0376 -42.8872 -42.8767 -42.8259 -42.8185
   -42.8157 -42.7995 -42.7568 -42.7478 -42.6086 -42.5567 -39.9787 -39.8425
   -39.7903 -39.7035 -39.6625 -39.6082 -39.5891 -39.4797 -39.4192 -39.4146
   -39.3804 -39.3718 -39.3611 -39.3170 -39.2516 -39.2030 -39.0081 -38.9964
    -6.3527  -4.2757  -3.8709  -3.7819  -3.6147  -3.6014  -3.3882  -3.3183
    -3.2760  -2.7751  -2.7120  -2.6988  -2.3571  -2.2406  -2.1850  -1.0105
    -0.9058  -0.9055  -0.2087  -0.0365   0.0585   0.1180   0.2546   0.2821
     0.4506   0.5199   0.6118   0.7491   0.8249   1.0163   1.0241   1.0419
     1.2127   1.3138   1.4941   1.7202   2.2366   2.3335   2.4179   2.6479
     2.7558   2.7955   3.0641   3.1770   3.2103   3.4219   3.4802   3.5091
     4.1373   4.2940   4.3836   4.4513   4.6760   4.7872   4.8426   5.1200
     5.1337   5.2256   5.4372   5.4373   5.5601   5.5658   5.9756   6.0575

          k = 0.0304 0.0351 0.0000 ( 29832 PWs)   bands (ev):

   -84.0656 -84.0399 -83.5838 -83.5584 -83.5405 -83.5152 -77.9898 -77.9532
   -77.6991 -77.6857 -77.6632 -77.6496 -43.5896 -43.4561 -43.3970 -43.3899
   -43.3262 -43.1126 -43.0857 -43.0280 -42.8848 -42.8734 -42.8276 -42.8148
   -42.8145 -42.7972 -42.7568 -42.7479 -42.6168 -42.5648 -39.9721 -39.8473
   -39.7942 -39.7065 -39.6650 -39.6010 -39.5825 -39.4760 -39.4187 -39.4186
   -39.3916 -39.3751 -39.3664 -39.3207 -39.2528 -39.2044 -39.0191 -39.0075
    -6.1540  -4.0794  -3.7599  -3.6389  -3.5851  -3.3755  -3.2942  -3.2299
    -3.1204  -2.6967  -2.6416  -2.5584  -2.2258  -2.1251  -1.9411  -1.0145
    -0.8891  -0.8768  -0.3975  -0.0988   0.0421   0.0862   0.2081   0.2160
     0.3479   0.5151   0.5734   0.7182   0.8749   0.9704   1.0033   1.1253
     1.1813   1.2301   1.6004   1.6689   2.0125   2.0509   2.1277   2.4988
     2.5599   2.7339   2.8815   2.9117   2.9888   3.0687   3.0984   3.2387
     4.1341   4.1573   4.2550   4.3592   4.5950   4.5978   4.7131   4.7416
     4.8998   5.0016   5.0168   5.4284   5.4413   5.5879   5.9604   6.0081

          k = 0.0304 0.0526 0.0000 ( 29846 PWs)   bands (ev):

   -84.0643 -84.0412 -83.5825 -83.5597 -83.5392 -83.5165 -77.9880 -77.9551
   -77.6973 -77.6839 -77.6650 -77.6515 -43.5639 -43.4511 -43.3990 -43.3829
   -43.3274 -43.1377 -43.0606 -43.0030 -42.8814 -42.8672 -42.8309 -42.8159
   -42.8086 -42.7933 -42.7589 -42.7497 -42.6414 -42.5892 -39.9467 -39.8504
   -39.7998 -39.7079 -39.6687 -39.5748 -39.5572 -39.4702 -39.4248 -39.4203
   -39.4196 -39.3800 -39.3703 -39.3258 -39.2522 -39.2074 -39.0506 -39.0391
    -5.8364  -3.7740  -3.6076  -3.6069  -3.3372  -3.1468  -3.1130  -3.0619
    -2.8744  -2.5486  -2.5352  -2.3377  -1.9725  -1.9668  -1.6156  -1.0313
    -0.8789  -0.8454  -0.6475  -0.2810  -0.1671   0.0127   0.0315   0.1401
     0.2997   0.5272   0.5336   0.8175   0.8696   0.9255   0.9348   1.0723
     1.1411   1.2463   1.5757   1.6440   1.6704   1.7969   2.0417   2.1700
     2.1739   2.2345   2.4401   2.5415   2.6343   2.9174   2.9439   3.2361
     3.7198   3.7851   3.9956   4.2190   4.3054   4.3136   4.5574   4.7090
     4.7440   4.8372   4.9500   5.3210   5.4624   5.6592   5.7429   5.9512

          k = 0.0304 0.0701 0.0000 ( 29829 PWs)   bands (ev):

   -84.0622 -84.0433 -83.5804 -83.5618 -83.5371 -83.5186 -77.9850 -77.9581
   -77.6944 -77.6810 -77.6680 -77.6545 -43.5243 -43.4448 -43.4031 -43.3747
   -43.3312 -43.1780 -43.0217 -42.9646 -42.8769 -42.8594 -42.8354 -42.8196
   -42.8016 -42.7880 -42.7630 -42.7534 -42.6808 -42.6282 -39.9034 -39.8504
   -39.8058 -39.7071 -39.6730 -39.5307 -39.5145 -39.4735 -39.4627 -39.4227
   -39.4223 -39.3852 -39.3714 -39.3312 -39.2497 -39.2117 -39.0998 -39.0883
    -5.4216  -3.7438  -3.4257  -3.3891  -2.9862  -2.9511  -2.8774  -2.8118
    -2.5625  -2.3906  -2.3345  -2.0728  -1.7722  -1.6095  -1.4584  -0.9742
    -0.9004  -0.8650  -0.8419  -0.5503  -0.3601  -0.3091  -0.1121  -0.0331
     0.4134   0.5622   0.6371   0.6538   0.6912   0.7762   0.7795   0.8691
     1.2109   1.3414   1.3746   1.3992   1.4801   1.5118   1.5299   1.8566
     1.9567   1.9660   2.3278   2.4648   2.5687   2.8228   2.8543   3.1204
     3.1693   3.4720   3.6204   4.0472   4.1183   4.2408   4.3169   4.5530
     4.7273   4.7514   4.9598   5.0556   5.3637   5.4049   5.5042   5.8233

          k = 0.0304-0.1226 0.0000 ( 29844 PWs)   bands (ev):

   -84.0594 -84.0461 -83.5777 -83.5645 -83.5344 -83.5213 -77.9811 -77.9621
   -77.6905 -77.6771 -77.6719 -77.6584 -43.4734 -43.4377 -43.4092 -43.3662
   -43.3378 -43.2305 -42.9718 -42.9153 -42.8712 -42.8512 -42.8407 -42.8263
   -42.7946 -42.7819 -42.7691 -42.7592 -42.7320 -42.6790 -39.8468 -39.8452
   -39.8108 -39.7039 -39.6771 -39.5367 -39.4717 -39.4569 -39.4548 -39.4280
   -39.4207 -39.3893 -39.3690 -39.3358 -39.2455 -39.2166 -39.1629 -39.1510
    -4.9449  -4.0359  -3.2426  -3.0482  -2.8606  -2.6668  -2.5815  -2.5446
    -2.3214  -2.2333  -2.0648  -1.8170  -1.5682  -1.4890  -1.3584  -1.1858
    -0.9964  -0.8605  -0.8228  -0.8108  -0.5771  -0.2934  -0.1009  -0.0862
     0.2227   0.3934   0.4403   0.4993   0.5331   0.5478   0.7126   0.7466
     0.9224   0.9746   1.2355   1.2994   1.3883   1.4251   1.4965   1.5823
     1.8451   2.1675   2.2165   2.5653   2.7018   2.7352   2.8495   2.8858
     3.0848   3.2288   3.5685   3.6838   4.0264   4.1288   4.2417   4.3409
     4.4341   4.6658   4.7100   4.7830   5.0650   5.3005   5.5549   5.6835

          k = 0.0304-0.1051 0.0000 ( 29818 PWs)   bands (ev):

   -84.0562 -84.0493 -83.5745 -83.5677 -83.5312 -83.5245 -77.9765 -77.9666
   -77.6860 -77.6763 -77.6726 -77.6629 -43.4304 -43.4190 -43.4128 -43.3585
   -43.3469 -43.2916 -42.9143 -42.8646 -42.8595 -42.8454 -42.8440 -42.8352
   -42.7938 -42.7854 -42.7770 -42.7756 -42.7663 -42.7379 -39.8397 -39.8167
   -39.7730 -39.6984 -39.6807 -39.6090 -39.4473 -39.4373 -39.4158 -39.4045
   -39.3940 -39.3807 -39.3630 -39.3388 -39.2409 -39.2342 -39.2225 -39.2219
    -4.4595  -4.4594  -3.1703  -2.8553  -2.8504  -2.5775  -2.4611  -2.2882
    -2.2722  -2.1986  -1.8577  -1.6895  -1.5368  -1.4753  -1.3296  -1.3187
    -1.1212  -1.0659  -0.9090  -0.6640  -0.4943  -0.0909  -0.0866  -0.0115
     0.0170   0.0834   0.2078   0.3132   0.3903   0.4101   0.7074   0.7492
     1.0154   1.0493   1.1205   1.2087   1.2179   1.2474   1.5581   1.5734
     1.9653   2.0987   2.4526   2.4732   2.5897   2.7191   2.8396   2.9556
     3.1494   3.3016   3.5912   3.7063   3.7377   4.0274   4.1591   4.2212
     4.3423   4.3579   4.6556   4.6774   5.1844   5.2333   5.5749   5.6274

          k = 0.0304-0.0876 0.0000 ( 29842 PWs)   bands (ev):

   -84.0528 -84.0527 -83.5711 -83.5711 -83.5279 -83.5278 -77.9716 -77.9715
   -77.6812 -77.6811 -77.6678 -77.6677 -43.4267 -43.4233 -43.3598 -43.3591
   -43.3494 -43.3492 -42.8652 -42.8600 -42.8503 -42.8494 -42.8425 -42.8359
   -42.8025 -42.7979 -42.7848 -42.7797 -42.7739 -42.7692 -39.8297 -39.8196
   -39.6966 -39.6933 -39.6832 -39.6826 -39.4463 -39.4410 -39.4079 -39.3977
   -39.3543 -39.3427 -39.3201 -39.3120 -39.3070 -39.2984 -39.2322 -39.2271
    -4.9454  -4.0367  -3.2418  -3.0517  -2.8524  -2.6682  -2.5985  -2.5379
    -2.2751  -2.2730  -2.0492  -1.8200  -1.5344  -1.5337  -1.3717  -1.2160
    -0.9870  -0.8684  -0.8102  -0.7804  -0.5770  -0.2977  -0.1237  -0.0870
     0.2125   0.3510   0.4155   0.4702   0.4976   0.5655   0.7319   0.7579
     0.8394   1.0057   1.2062   1.4087   1.4168   1.4573   1.5203   1.5497
     1.7612   2.1653   2.4855   2.5502   2.6435   2.7761   2.7851   2.8751
     3.0709   3.4492   3.5652   3.7351   3.7713   4.1844   4.2921   4.3427
     4.3981   4.6101   4.6420   4.7959   5.1515   5.3132   5.5558   5.6121

          k = 0.0304-0.0700 0.0000 ( 29825 PWs)   bands (ev):

   -84.0562 -84.0493 -83.5745 -83.5677 -83.5313 -83.5244 -77.9764 -77.9667
   -77.6859 -77.6764 -77.6725 -77.6629 -43.4362 -43.4228 -43.4161 -43.3697
   -43.3454 -43.2876 -42.9217 -42.8669 -42.8625 -42.8573 -42.8447 -42.8318
   -42.7989 -42.7877 -42.7807 -42.7745 -42.7639 -42.7342 -39.8220 -39.8183
   -39.7611 -39.6870 -39.6825 -39.6150 -39.4562 -39.4363 -39.3993 -39.3989
   -39.3872 -39.3724 -39.3435 -39.3431 -39.2415 -39.2329 -39.2276 -39.2247
    -5.4224  -3.7464  -3.4137  -3.4016  -2.9736  -2.9504  -2.8823  -2.8282
    -2.5441  -2.4067  -2.3227  -2.0773  -1.7713  -1.6080  -1.4643  -1.0050
    -0.9188  -0.8577  -0.8151  -0.5421  -0.3686  -0.3440  -0.0793  -0.0657
     0.4042   0.5817   0.6022   0.6215   0.6521   0.6777   0.7811   0.9039
     1.1908   1.2467   1.3665   1.3915   1.5641   1.5860   1.6290   1.8407
     1.9306   2.0075   2.4955   2.5367   2.6277   2.7348   2.7430   3.1677
     3.2030   3.4890   3.8460   3.9706   4.0201   4.2478   4.4482   4.4593
     4.5746   4.7376   5.0474   5.0477   5.3770   5.4697   5.5637   5.6211

          k = 0.0304-0.0525 0.0000 ( 29852 PWs)   bands (ev):

   -84.0595 -84.0461 -83.5777 -83.5645 -83.5344 -83.5213 -77.9809 -77.9621
   -77.6904 -77.6770 -77.6719 -77.6584 -43.4818 -43.4451 -43.4109 -43.3802
   -43.3407 -43.2286 -42.9797 -42.9234 -42.8718 -42.8646 -42.8388 -42.8279
   -42.8063 -42.7889 -42.7694 -42.7591 -42.7301 -42.6771 -39.8305 -39.8245
   -39.8072 -39.6895 -39.6749 -39.5396 -39.4654 -39.4595 -39.4443 -39.4285
   -39.4006 -39.3875 -39.3448 -39.3329 -39.2373 -39.2174 -39.1655 -39.1540
    -5.8373  -3.7745  -3.6274  -3.5874  -3.3414  -3.1254  -3.1097  -3.0958
    -2.8666  -2.5481  -2.5307  -2.3436  -1.9864  -1.9541  -1.6161  -1.0383
    -0.8903  -0.8127  -0.6822  -0.2577  -0.1685  -0.0900   0.1061   0.1101
     0.2823   0.4623   0.5019   0.8098   0.8414   0.8897   1.0463   1.0780
     1.0783   1.2873   1.5817   1.6346   1.7763   1.8144   1.9985   2.0663
     2.1875   2.3020   2.5631   2.6207   2.7296   2.7783   2.8558   3.3615
     3.6287   3.8437   4.1066   4.2608   4.3327   4.3993   4.5308   4.5707
     4.6109   4.9344   4.9381   5.4618   5.5063   5.5549   5.7524   5.9205

          k = 0.0304-0.0350 0.0000 ( 29822 PWs)   bands (ev):

   -84.0622 -84.0433 -83.5804 -83.5618 -83.5371 -83.5186 -77.9848 -77.9581
   -77.6942 -77.6808 -77.6680 -77.6545 -43.5322 -43.4525 -43.4060 -43.3886
   -43.3365 -43.1776 -43.0290 -42.9722 -42.8802 -42.8702 -42.8328 -42.8243
   -42.8134 -42.7943 -42.7650 -42.7550 -42.6802 -42.6277 -39.8901 -39.8276
   -39.7979 -39.6924 -39.6684 -39.5191 -39.5016 -39.4775 -39.4694 -39.4268
   -39.4029 -39.3793 -39.3471 -39.3242 -39.2416 -39.2111 -39.1003 -39.0888
    -6.1548  -4.0805  -3.7495  -3.6541  -3.5859  -3.3718  -3.2995  -3.2302
    -3.1202  -2.6890  -2.6409  -2.5659  -2.2344  -2.1173  -1.9418  -1.0047
    -0.9344  -0.8337  -0.4265  -0.0364   0.0327   0.0623   0.1765   0.1897
     0.2902   0.3948   0.5969   0.7916   0.8768   0.9974   1.0292   1.1420
     1.1619   1.2430   1.5801   1.7534   2.0042   2.0626   2.0844   2.4851
     2.7088   2.7521   2.7670   2.9257   3.0029   3.0651   3.0653   3.2910
     4.0399   4.1006   4.4306   4.5279   4.5548   4.6168   4.6950   4.7348
     4.7681   4.9138   5.1040   5.4556   5.4822   5.7143   5.8829   5.9685

          k = 0.0455-0.0262 0.0000 ( 29799 PWs)   bands (ev):

   -84.0622 -84.0433 -83.5804 -83.5618 -83.5371 -83.5186 -77.9848 -77.9581
   -77.6942 -77.6808 -77.6680 -77.6545 -43.5305 -43.4507 -43.4053 -43.3858
   -43.3353 -43.1776 -43.0275 -42.9706 -42.8779 -42.8695 -42.8334 -42.8233
   -42.8111 -42.7930 -42.7645 -42.7547 -42.6803 -42.6277 -39.8930 -39.8324
   -39.7995 -39.6957 -39.6693 -39.5217 -39.5044 -39.4759 -39.4687 -39.4259
   -39.4069 -39.3804 -39.3522 -39.3256 -39.2435 -39.2112 -39.1001 -39.0886
    -6.0269  -3.9585  -3.8237  -3.5313  -3.3553  -3.3434  -3.2707  -3.0898
    -3.0844  -2.6631  -2.5282  -2.5201  -2.2061  -1.8853  -1.8823  -0.9783
    -0.9742  -0.7991  -0.5337  -0.1598  -0.0308  -0.0092   0.1716   0.2574
     0.2899   0.3037   0.6974   0.8486   0.8593   0.9248   1.0484   1.1238
     1.1477   1.2597   1.4824   1.7825   1.8262   1.9640   1.9920   2.3652
     2.5583   2.5766   2.6478   2.7107   2.8084   3.0186   3.0384   3.1535
     3.9967   4.0804   4.2083   4.3212   4.3635   4.5405   4.5904   4.6732
     4.7282   4.9051   4.9998   5.1537   5.4006   5.4398   5.7023   5.8928

          k = 0.0455-0.0087 0.0000 ( 29827 PWs)   bands (ev):

   -84.0643 -84.0412 -83.5825 -83.5597 -83.5392 -83.5165 -77.9879 -77.9551
   -77.6972 -77.6838 -77.6650 -77.6515 -43.5675 -43.4547 -43.4007 -43.3895
   -43.3305 -43.1379 -43.0638 -43.0064 -42.8823 -42.8728 -42.8295 -42.8188
   -42.8142 -42.7961 -42.7602 -42.7509 -42.6415 -42.5893 -39.9407 -39.8396
   -39.7952 -39.7011 -39.6660 -39.5696 -39.5515 -39.4751 -39.4232 -39.4220
   -39.4123 -39.3762 -39.3589 -39.3215 -39.2485 -39.2068 -39.0503 -39.0387
    -6.1543  -4.0798  -3.7487  -3.6650  -3.5717  -3.3805  -3.2903  -3.2263
    -3.1251  -2.6871  -2.6510  -2.5585  -2.2332  -2.1146  -1.9444  -1.0059
    -0.9270  -0.8431  -0.4108  -0.0899   0.0392   0.1339   0.1645   0.2177
     0.3005   0.3973   0.6727   0.7451   0.9027   0.9546   0.9858   1.1535
     1.1988   1.2122   1.5898   1.6787   2.0375   2.0696   2.0767   2.5039
     2.6255   2.7112   2.8907   2.9135   3.0433   3.0497   3.0620   3.1981
     4.1598   4.1695   4.3205   4.3932   4.5140   4.5893   4.6268   4.7133
     4.8764   5.0321   5.0562   5.4546   5.4549   5.6837   5.8306   5.9841

          k = 0.0455 0.0088 0.0000 ( 29832 PWs)   bands (ev):

   -84.0656 -84.0399 -83.5838 -83.5584 -83.5405 -83.5152 -77.9898 -77.9532
   -77.6991 -77.6857 -77.6632 -77.6496 -43.5896 -43.4561 -43.3970 -43.3899
   -43.3262 -43.1126 -43.0857 -43.0280 -42.8848 -42.8734 -42.8276 -42.8148
   -42.8145 -42.7972 -42.7568 -42.7479 -42.6168 -42.5648 -39.9721 -39.8473
   -39.7942 -39.7065 -39.6650 -39.6010 -39.5825 -39.4760 -39.4187 -39.4186
   -39.3916 -39.3751 -39.3664 -39.3207 -39.2528 -39.2044 -39.0191 -39.0075
    -6.1540  -4.0794  -3.7599  -3.6389  -3.5851  -3.3755  -3.2942  -3.2299
    -3.1204  -2.6967  -2.6416  -2.5584  -2.2258  -2.1251  -1.9411  -1.0145
    -0.8891  -0.8768  -0.3975  -0.0988   0.0421   0.0862   0.2081   0.2160
     0.3479   0.5151   0.5734   0.7182   0.8749   0.9704   1.0033   1.1253
     1.1813   1.2301   1.6004   1.6689   2.0125   2.0509   2.1277   2.4988
     2.5599   2.7339   2.8815   2.9117   2.9888   3.0687   3.0984   3.2387
     4.1341   4.1573   4.2550   4.3592   4.5950   4.5978   4.7131   4.7416
     4.8998   5.0016   5.0168   5.4284   5.4413   5.5879   5.9604   6.0081

          k = 0.0455 0.0263 0.0000 ( 29799 PWs)   bands (ev):

   -84.0661 -84.0394 -83.5843 -83.5579 -83.5409 -83.5147 -77.9905 -77.9525
   -77.6998 -77.6864 -77.6625 -77.6489 -43.5957 -43.4552 -43.3950 -43.3873
   -43.3233 -43.1037 -43.0919 -43.0340 -42.8857 -42.8710 -42.8275 -42.8123
   -42.8119 -42.7966 -42.7551 -42.7461 -42.6082 -42.5563 -39.9852 -39.8545
   -39.7962 -39.7112 -39.6659 -39.6138 -39.5953 -39.4744 -39.4244 -39.4163
   -39.3813 -39.3766 -39.3737 -39.3226 -39.2556 -39.2040 -39.0088 -38.9973
    -6.0261  -3.9582  -3.8244  -3.5232  -3.3533  -3.3389  -3.2757  -3.1178
    -3.0543  -2.6716  -2.5229  -2.5169  -2.2007  -1.9234  -1.8490  -1.0098
    -0.9213  -0.8365  -0.4963  -0.1711  -0.0687   0.0331   0.1770   0.2691
     0.3552   0.4075   0.7003   0.7768   0.8437   0.9459   0.9845   1.1476
     1.1737   1.1814   1.5074   1.7780   1.8552   1.8678   2.0360   2.3599
     2.4249   2.6612   2.6662   2.7118   2.7388   2.9210   3.1676   3.1833
     4.0120   4.0262   4.0989   4.1844   4.4443   4.5577   4.6947   4.7871
     4.8131   4.8171   4.9584   5.1945   5.3543   5.4034   5.5730   5.8524

          k = 0.0455 0.0438 0.0000 ( 29821 PWs)   bands (ev):

   -84.0656 -84.0399 -83.5838 -83.5584 -83.5405 -83.5152 -77.9899 -77.9532
   -77.6992 -77.6858 -77.6632 -77.6496 -43.5857 -43.4523 -43.3950 -43.3823
   -43.3224 -43.1121 -43.0821 -43.0243 -42.8850 -42.8660 -42.8292 -42.8110
   -42.8082 -42.7941 -42.7553 -42.7461 -42.6165 -42.5645 -39.9787 -39.8595
   -39.8000 -39.7141 -39.6683 -39.6067 -39.5888 -39.4706 -39.4288 -39.4156
   -39.3926 -39.3800 -39.3792 -39.3261 -39.2567 -39.2053 -39.0198 -39.0083
    -5.7771  -3.8170  -3.7186  -3.3350  -3.2870  -3.1633  -3.0934  -2.9907
    -2.8607  -2.5765  -2.4397  -2.3228  -2.0454  -1.7796  -1.5816  -1.0188
    -0.9086  -0.8421  -0.6587  -0.3278  -0.2448  -0.0947   0.0829   0.2152
     0.3388   0.4602   0.6378   0.8150   0.9032   0.9109   0.9750   1.0300
     1.0859   1.2839   1.5111   1.5600   1.6366   1.7801   2.0248   2.0918
     2.1151   2.1804   2.3426   2.3837   2.6677   2.8301   3.0535   3.2508
     3.6582   3.7146   3.9009   4.0473   4.2141   4.2446   4.5897   4.6899
     4.7144   4.8897   4.9458   5.0921   5.2788   5.3547   5.5974   5.7414

          k = 0.0455 0.0613 0.0000 ( 29838 PWs)   bands (ev):

   -84.0643 -84.0412 -83.5825 -83.5597 -83.5391 -83.5165 -77.9880 -77.9551
   -77.6973 -77.6840 -77.6650 -77.6515 -43.5603 -43.4479 -43.3973 -43.3759
   -43.3243 -43.1376 -43.0573 -42.9996 -42.8826 -42.8596 -42.8323 -42.8130
   -42.8031 -42.7901 -42.7578 -42.7482 -42.6414 -42.5891 -39.9526 -39.8613
   -39.8045 -39.7146 -39.6715 -39.5799 -39.5630 -39.4651 -39.4315 -39.4236
   -39.4171 -39.3841 -39.3817 -39.3303 -39.2556 -39.2081 -39.0509 -39.0395
    -5.4213  -3.7414  -3.4169  -3.3975  -2.9749  -2.9462  -2.9155  -2.7879
    -2.5584  -2.4122  -2.3131  -2.0724  -1.7728  -1.6159  -1.4552  -0.9743
    -0.9068  -0.8831  -0.8076  -0.5335  -0.3922  -0.2573  -0.1164  -0.0372
     0.3999   0.5994   0.6018   0.6761   0.6974   0.7418   0.8003   0.8913
     1.2642   1.3136   1.3287   1.4276   1.4489   1.4706   1.5776   1.8280
     1.9660   1.9731   2.2953   2.4281   2.5671   2.8015   2.8967   3.1437
     3.1582   3.4374   3.6250   3.9892   4.0845   4.1899   4.4652   4.6541
     4.6629   4.7701   4.9416   5.1089   5.1693   5.4036   5.5521   5.8120

          k = 0.0455-0.1313 0.0000 ( 29840 PWs)   bands (ev):

   -84.0621 -84.0434 -83.5804 -83.5618 -83.5371 -83.5186 -77.9850 -77.9581
   -77.6944 -77.6810 -77.6680 -77.6545 -43.5212 -43.4423 -43.4020 -43.3691
   -43.3293 -43.1783 -43.0190 -42.9617 -42.8782 -42.8529 -42.8364 -42.8181
   -42.7976 -42.7851 -42.7624 -42.7527 -42.6811 -42.6285 -39.9080 -39.8589
   -39.8089 -39.7122 -39.6748 -39.5347 -39.5190 -39.4734 -39.4585 -39.4301
   -39.4211 -39.3879 -39.3802 -39.3340 -39.2524 -39.2119 -39.0997 -39.0882
    -4.9829  -3.6491  -3.6445  -3.0408  -2.7617  -2.7394  -2.5648  -2.5557
    -2.2651  -2.1803  -2.1393  -1.8143  -1.6016  -1.4255  -1.4045  -1.1910
    -0.9943  -0.9917  -0.7876  -0.7228  -0.3412  -0.3354  -0.2679  -0.2642
     0.3035   0.3331   0.3518   0.4660   0.5164   0.6003   0.6872   0.7238
     0.9302   0.9495   1.2735   1.4159   1.4594   1.4607   1.5564   1.5855
     1.7546   2.2372   2.2515   2.4695   2.7031   2.7155   2.7902   2.8723
     3.0428   3.2990   3.5601   3.8650   3.9705   4.2835   4.3636   4.5315
     4.6439   4.6560   4.9138   5.0468   5.1712   5.2632   5.3816   5.4286

          k = 0.0455-0.1138 0.0000 ( 29820 PWs)   bands (ev):

   -84.0594 -84.0461 -83.5776 -83.5645 -83.5343 -83.5213 -77.9811 -77.9620
   -77.6906 -77.6771 -77.6719 -77.6583 -43.4711 -43.4360 -43.4089 -43.3624
   -43.3373 -43.2312 -42.9697 -42.9131 -42.8722 -42.8466 -42.8413 -42.8261
   -42.7920 -42.7796 -42.7691 -42.7592 -42.7327 -42.6798 -39.8523 -39.8477
   -39.8125 -39.7070 -39.6779 -39.5363 -39.4741 -39.4596 -39.4517 -39.4274
   -39.4260 -39.3906 -39.3746 -39.3370 -39.2473 -39.2165 -39.1626 -39.1506
    -4.5005  -4.0304  -3.5754  -2.7606  -2.6765  -2.5726  -2.3590  -2.1762
    -2.1131  -2.0169  -1.8948  -1.8030  -1.5152  -1.4618  -1.3537  -1.3027
    -1.1270  -0.9477  -0.9432  -0.7993  -0.4663  -0.2899  -0.2373  -0.1007
     0.0076   0.0333   0.0577   0.0930   0.2700   0.3296   0.6952   0.7682
     0.9995   1.0824   1.1274   1.1962   1.2962   1.4534   1.5567   1.6055
     1.8598   2.0583   2.3459   2.5868   2.6114   2.7109   2.8924   2.8929
     3.0027   3.4771   3.5200   3.7259   4.2509   4.2622   4.3581   4.3743
     4.4865   4.6106   4.6120   4.7697   4.9509   5.0763   5.2457   5.3041

          k = 0.0455-0.0963 0.0000 ( 29821 PWs)   bands (ev):

   -84.0562 -84.0493 -83.5745 -83.5677 -83.5312 -83.5245 -77.9765 -77.9666
   -77.6861 -77.6763 -77.6726 -77.6628 -43.4295 -43.4182 -43.4122 -43.3563
   -43.3474 -43.2926 -42.9129 -42.8651 -42.8577 -42.8461 -42.8412 -42.8360
   -42.7946 -42.7841 -42.7776 -42.7742 -42.7668 -42.7390 -39.8423 -39.8159
   -39.7750 -39.6997 -39.6808 -39.6086 -39.4456 -39.4375 -39.4184 -39.4025
   -39.3955 -39.3832 -39.3657 -39.3391 -39.2407 -39.2348 -39.2221 -39.2215
    -4.5001  -4.0336  -3.5733  -2.7627  -2.6693  -2.5744  -2.3735  -2.1829
    -2.0601  -2.0461  -1.8685  -1.8055  -1.5325  -1.4926  -1.4054  -1.2610
    -1.1242  -0.9613  -0.8912  -0.7907  -0.4693  -0.3493  -0.2461  -0.1614
     0.0234   0.0414   0.0644   0.1666   0.2527   0.3011   0.6554   0.7809
     1.0177   1.0226   1.1453   1.2084   1.3927   1.4123   1.5692   1.5908
     1.7889   2.1815   2.3713   2.4751   2.6962   2.7175   2.7487   2.9949
     3.2405   3.3447   3.5691   3.7041   4.1796   4.3123   4.3752   4.4220
     4.4263   4.5231   4.5791   4.7931   5.0407   5.0831   5.2098   5.3364

          k = 0.0455-0.0788 0.0000 ( 29840 PWs)   bands (ev):

   -84.0528 -84.0527 -83.5711 -83.5711 -83.5279 -83.5278 -77.9716 -77.9715
   -77.6812 -77.6812 -77.6678 -77.6677 -43.4269 -43.4230 -43.3590 -43.3581
   -43.3504 -43.3501 -42.8652 -42.8589 -42.8499 -42.8491 -42.8440 -42.8359
   -42.8025 -42.7969 -42.7859 -42.7795 -42.7743 -42.7689 -39.8304 -39.8187
   -39.6959 -39.6915 -39.6848 -39.6836 -39.4467 -39.4405 -39.4085 -39.3966
   -39.3546 -39.3411 -39.3210 -39.3118 -39.3085 -39.2980 -39.2327 -39.2268
    -4.9835  -3.6915  -3.6034  -3.0437  -2.7446  -2.7416  -2.6007  -2.5406
    -2.2240  -2.1912  -2.1528  -1.8158  -1.5988  -1.4471  -1.3896  -1.2172
    -1.0720  -0.9265  -0.7765  -0.7194  -0.3993  -0.2926  -0.2810  -0.2702
     0.2425   0.3167   0.3647   0.4466   0.4839   0.5050   0.7443   0.8084
     0.8089   0.9745   1.2113   1.4770   1.5190   1.5521   1.5720   1.5827
     1.6687   2.2224   2.5205   2.5558   2.6264   2.6810   2.7853   2.8477
     3.0570   3.5377   3.7318   3.7547   3.7793   4.3066   4.4490   4.4850
     4.4900   4.6005   5.0296   5.0884   5.1343   5.3045   5.4160   5.4652

          k = 0.0455-0.0613 0.0000 ( 29825 PWs)   bands (ev):

   -84.0562 -84.0493 -83.5745 -83.5677 -83.5313 -83.5244 -77.9764 -77.9667
   -77.6859 -77.6764 -77.6725 -77.6629 -43.4362 -43.4228 -43.4161 -43.3697
   -43.3454 -43.2876 -42.9217 -42.8669 -42.8625 -42.8573 -42.8447 -42.8318
   -42.7989 -42.7877 -42.7807 -42.7745 -42.7639 -42.7342 -39.8220 -39.8183
   -39.7611 -39.6870 -39.6825 -39.6150 -39.4562 -39.4363 -39.3993 -39.3989
   -39.3872 -39.3724 -39.3435 -39.3431 -39.2415 -39.2329 -39.2276 -39.2247
    -5.4224  -3.7464  -3.4137  -3.4016  -2.9736  -2.9504  -2.8823  -2.8282
    -2.5441  -2.4067  -2.3227  -2.0773  -1.7713  -1.6080  -1.4643  -1.0050
    -0.9188  -0.8577  -0.8151  -0.5421  -0.3686  -0.3440  -0.0793  -0.0657
     0.4042   0.5817   0.6022   0.6215   0.6521   0.6777   0.7811   0.9039
     1.1908   1.2467   1.3665   1.3915   1.5642   1.5860   1.6290   1.8407
     1.9306   2.0075   2.4955   2.5367   2.6277   2.7348   2.7430   3.1677
     3.2030   3.4890   3.8460   3.9706   4.0201   4.2478   4.4482   4.4593
     4.5746   4.7376   5.0474   5.0477   5.3770   5.4697   5.5637   5.6211

          k = 0.0455-0.0438 0.0000 ( 29821 PWs)   bands (ev):

   -84.0595 -84.0461 -83.5777 -83.5645 -83.5344 -83.5213 -77.9809 -77.9621
   -77.6904 -77.6770 -77.6719 -77.6584 -43.4811 -43.4444 -43.4107 -43.3790
   -43.3404 -43.2287 -42.9790 -42.9227 -42.8710 -42.8642 -42.8390 -42.8277
   -42.8054 -42.7883 -42.7694 -42.7591 -42.7302 -42.6772 -39.8322 -39.8265
   -39.8072 -39.6909 -39.6750 -39.5392 -39.4645 -39.4607 -39.4455 -39.4287
   -39.4024 -39.3873 -39.3470 -39.3331 -39.2381 -39.2173 -39.1652 -39.1536
    -5.7783  -3.8155  -3.7246  -3.3381  -3.2887  -3.1651  -3.0757  -3.0096
    -2.8607  -2.5692  -2.4424  -2.3293  -2.0482  -1.7702  -1.5888  -1.0219
    -0.9255  -0.7805  -0.7252  -0.3290  -0.2154  -0.1762   0.1227   0.1445
     0.3263   0.4316   0.5985   0.7764   0.8611   0.8822   1.0222   1.0769
     1.1004   1.3353   1.4975   1.5462   1.7399   1.7507   1.9373   2.0996
     2.1651   2.2252   2.3943   2.5785   2.6153   2.8494   2.9243   3.2939
     3.6174   3.8049   4.0307   4.1645   4.2511   4.2829   4.4690   4.4703
     4.6738   4.8138   5.0437   5.0534   5.3233   5.5276   5.6319   5.7975

          k = 0.0607-0.0350 0.0000 ( 29815 PWs)   bands (ev):

   -84.0594 -84.0461 -83.5777 -83.5645 -83.5344 -83.5213 -77.9810 -77.9621
   -77.6904 -77.6770 -77.6719 -77.6584 -43.4791 -43.4425 -43.4103 -43.3758
   -43.3396 -43.2291 -42.9772 -42.9208 -42.8698 -42.8620 -42.8394 -42.8272
   -42.8025 -42.7867 -42.7693 -42.7591 -42.7306 -42.6776 -39.8364 -39.8319
   -39.8076 -39.6946 -39.6755 -39.5383 -39.4640 -39.4621 -39.4487 -39.4288
   -39.4072 -39.3873 -39.3530 -39.3336 -39.2402 -39.2171 -39.1644 -39.1528
    -5.6036  -3.9498  -3.5778  -3.1544  -3.1323  -3.0355  -3.0231  -2.8470
    -2.8407  -2.5358  -2.2832  -2.2754  -1.9907  -1.5139  -1.5132  -0.9797
    -0.9564  -0.8372  -0.7569  -0.4771  -0.3480  -0.3449   0.1134   0.1594
     0.4554   0.4571   0.6947   0.7157   0.7970   0.8111   1.0209   1.1127
     1.1629   1.2718   1.3969   1.4584   1.5695   1.6208   1.7414   1.9440
     1.9897   2.0717   2.2717   2.4560   2.5305   2.9245   2.9989   3.1355
     3.5021   3.6759   3.7700   3.9676   4.0672   4.1913   4.2597   4.2848
     4.6333   4.7325   4.7754   4.9316   5.2697   5.4734   5.6229   5.8903

          k = 0.0607-0.0175 0.0000 ( 29813 PWs)   bands (ev):

   -84.0622 -84.0433 -83.5804 -83.5618 -83.5371 -83.5186 -77.9849 -77.9581
   -77.6943 -77.6809 -77.6680 -77.6545 -43.5277 -43.4479 -43.4043 -43.3808
   -43.3334 -43.1777 -43.0248 -42.9678 -42.8763 -42.8659 -42.8343 -42.8215
   -42.8067 -42.7908 -42.7637 -42.7542 -42.6805 -42.6279 -39.8979 -39.8407
   -39.8024 -39.7011 -39.6710 -39.5260 -39.5092 -39.4741 -39.4666 -39.4245
   -39.4140 -39.3825 -39.3611 -39.3282 -39.2465 -39.2114 -39.0999 -39.0884
    -5.7778  -3.8148  -3.7241  -3.3434  -3.2788  -3.1814  -3.0596  -3.0052
    -2.8691  -2.5655  -2.4518  -2.3230  -2.0481  -1.7682  -1.5896  -1.0106
    -0.9355  -0.7857  -0.7112  -0.3411  -0.2080  -0.1534   0.0925   0.1659
     0.3383   0.4586   0.6367   0.7943   0.8507   0.9080   0.9770   1.0750
     1.1775   1.2608   1.5241   1.5392   1.6289   1.7570   2.0749   2.1008
     2.1336   2.1912   2.3374   2.4868   2.5966   2.9524   2.9701   3.1506
     3.7033   3.7949   3.9404   4.1369   4.1530   4.3258   4.3735   4.6044
     4.7951   4.7976   5.0193   5.0372   5.3363   5.5113   5.5730   5.8140

          k = 0.0607 0.0000 0.0000 ( 29846 PWs)   bands (ev):

   -84.0643 -84.0412 -83.5825 -83.5597 -83.5392 -83.5165 -77.9880 -77.9551
   -77.6973 -77.6839 -77.6650 -77.6515 -43.5639 -43.4511 -43.3990 -43.3829
   -43.3274 -43.1377 -43.0606 -43.0030 -42.8814 -42.8672 -42.8309 -42.8159
   -42.8086 -42.7933 -42.7589 -42.7497 -42.6414 -42.5892 -39.9467 -39.8504
   -39.7998 -39.7079 -39.6687 -39.5748 -39.5572 -39.4702 -39.4248 -39.4203
   -39.4196 -39.3800 -39.3703 -39.3258 -39.2522 -39.2074 -39.0506 -39.0391
    -5.8364  -3.7740  -3.6076  -3.6069  -3.3372  -3.1468  -3.1130  -3.0619
    -2.8744  -2.5486  -2.5352  -2.3377  -1.9725  -1.9668  -1.6156  -1.0313
    -0.8789  -0.8454  -0.6475  -0.2810  -0.1671   0.0127   0.0315   0.1401
     0.2997   0.5272   0.5336   0.8175   0.8696   0.9255   0.9348   1.0723
     1.1411   1.2463   1.5757   1.6440   1.6704   1.7969   2.0417   2.1700
     2.1739   2.2345   2.4401   2.5415   2.6343   2.9174   2.9439   3.2361
     3.7198   3.7851   3.9956   4.2190   4.3054   4.3136   4.5574   4.7090
     4.7440   4.8372   4.9500   5.3210   5.4624   5.6592   5.7429   5.9512

          k = 0.0607 0.0176 0.0000 ( 29821 PWs)   bands (ev):

   -84.0656 -84.0399 -83.5838 -83.5584 -83.5405 -83.5152 -77.9899 -77.9532
   -77.6992 -77.6858 -77.6632 -77.6496 -43.5857 -43.4523 -43.3950 -43.3823
   -43.3224 -43.1121 -43.0821 -43.0243 -42.8850 -42.8660 -42.8292 -42.8110
   -42.8082 -42.7941 -42.7553 -42.7461 -42.6165 -42.5645 -39.9787 -39.8595
   -39.8000 -39.7141 -39.6683 -39.6067 -39.5888 -39.4706 -39.4288 -39.4156
   -39.3926 -39.3800 -39.3792 -39.3261 -39.2567 -39.2053 -39.0198 -39.0083
    -5.7771  -3.8170  -3.7186  -3.3350  -3.2870  -3.1633  -3.0934  -2.9907
    -2.8607  -2.5765  -2.4397  -2.3228  -2.0454  -1.7796  -1.5816  -1.0188
    -0.9086  -0.8421  -0.6587  -0.3278  -0.2448  -0.0947   0.0829   0.2152
     0.3388   0.4602   0.6378   0.8150   0.9032   0.9109   0.9750   1.0300
     1.0859   1.2839   1.5111   1.5600   1.6366   1.7801   2.0248   2.0918
     2.1151   2.1804   2.3426   2.3837   2.6677   2.8301   3.0535   3.2508
     3.6582   3.7146   3.9009   4.0473   4.2141   4.2446   4.5897   4.6899
     4.7144   4.8897   4.9458   5.0921   5.2788   5.3547   5.5974   5.7414

          k = 0.0607 0.0351 0.0000 ( 29811 PWs)   bands (ev):

   -84.0660 -84.0394 -83.5842 -83.5579 -83.5409 -83.5147 -77.9906 -77.9525
   -77.6998 -77.6865 -77.6625 -77.6490 -43.5919 -43.4516 -43.3929 -43.3795
   -43.3193 -43.1031 -43.0884 -43.0303 -42.8868 -42.8628 -42.8292 -42.8081
   -42.8062 -42.7931 -42.7537 -42.7440 -42.6078 -42.5558 -39.9916 -39.8666
   -39.8021 -39.7186 -39.6694 -39.6194 -39.6016 -39.4690 -39.4345 -39.4131
   -39.3865 -39.3823 -39.3817 -39.3282 -39.2594 -39.2049 -39.0095 -38.9981
    -5.6025  -3.9474  -3.5728  -3.1468  -3.1241  -3.0496  -3.0315  -2.8770
    -2.7954  -2.5414  -2.2885  -2.2594  -1.9924  -1.5622  -1.4657  -0.9797
    -0.9413  -0.8859  -0.7015  -0.4569  -0.3968  -0.2451   0.0607   0.2456
     0.4344   0.4600   0.6874   0.8303   0.8525   0.9204   0.9383   1.0267
     1.1041   1.3265   1.3639   1.4448   1.5045   1.6341   1.8521   1.8608
     2.0069   2.0590   2.1560   2.2550   2.6746   2.7574   3.1762   3.1894
     3.4628   3.5515   3.8010   3.8010   3.9278   4.0584   4.4616   4.4997
     4.6943   4.7196   4.9169   4.9588   5.2086   5.3042   5.5620   5.7345

          k = 0.0607 0.0526 0.0000 ( 29832 PWs)   bands (ev):

   -84.0656 -84.0399 -83.5838 -83.5584 -83.5404 -83.5152 -77.9900 -77.9532
   -77.6992 -77.6859 -77.6632 -77.6496 -43.5823 -43.4493 -43.3932 -43.3754
   -43.3190 -43.1118 -43.0791 -43.0210 -42.8865 -42.8584 -42.8307 -42.8078
   -42.8033 -42.7907 -42.7543 -42.7442 -42.6162 -42.5642 -39.9843 -39.8703
   -39.8050 -39.7205 -39.6712 -39.6116 -39.5943 -39.4657 -39.4380 -39.4128
   -39.3938 -39.3900 -39.3845 -39.3309 -39.2599 -39.2061 -39.0203 -39.0090
    -5.3204  -4.0128  -3.3395  -3.0656  -3.0282  -2.8845  -2.8511  -2.7182
    -2.5723  -2.4383  -2.1898  -2.0482  -1.8231  -1.4438  -1.3734  -1.0220
    -0.8907  -0.8787  -0.7730  -0.6338  -0.5190  -0.3981  -0.0227   0.1389
     0.4492   0.5757   0.6090   0.6758   0.7624   0.7808   0.8540   0.9063
     1.2254   1.2260   1.2984   1.3497   1.3724   1.4483   1.4925   1.6441
     1.7313   1.9568   2.2440   2.4497   2.6094   2.7469   3.0317   3.1070
     3.1525   3.3515   3.5392   3.7283   3.8586   3.9754   4.3814   4.4010
     4.5557   4.6774   4.8635   4.8711   5.2413   5.2450   5.5941   5.7470

          k = 0.0607-0.1401 0.0000 ( 29848 PWs)   bands (ev):

   -84.0642 -84.0412 -83.5824 -83.5597 -83.5391 -83.5165 -77.9881 -77.9551
   -77.6974 -77.6840 -77.6651 -77.6515 -43.5576 -43.4456 -43.3961 -43.3706
   -43.3220 -43.1375 -43.0549 -42.9971 -42.8839 -42.8536 -42.8333 -42.8109
   -42.7997 -42.7871 -42.7571 -42.7470 -42.6413 -42.5891 -39.9568 -39.8694
   -39.8081 -39.7193 -39.6735 -39.5836 -39.5671 -39.4609 -39.4385 -39.4245
   -39.4151 -39.3900 -39.3873 -39.3336 -39.2580 -39.2085 -39.0512 -39.0398
    -4.9455  -4.0292  -3.2450  -3.0472  -2.8478  -2.7122  -2.5663  -2.5340
    -2.2854  -2.2623  -2.0540  -1.8063  -1.5614  -1.5385  -1.3419  -1.1909
    -0.9464  -0.8588  -0.8210  -0.8130  -0.5346  -0.2905  -0.1595  -0.0539
     0.2651   0.3642   0.4587   0.4683   0.5189   0.6480   0.6877   0.7090
     0.9506   1.0010   1.2197   1.3497   1.3684   1.4596   1.4769   1.5511
     1.7656   2.1035   2.2870   2.4846   2.7137   2.7400   2.8359   2.8768
     2.9969   3.2727   3.4555   3.7859   3.8184   4.0999   4.3830   4.4089
     4.5396   4.6126   4.7625   4.8509   5.0923   5.1056   5.3774   5.9709

          k = 0.0607-0.1226 0.0000 ( 29826 PWs)   bands (ev):

   -84.0621 -84.0434 -83.5804 -83.5618 -83.5370 -83.5186 -77.9850 -77.9581
   -77.6944 -77.6810 -77.6680 -77.6545 -43.5195 -43.4409 -43.4015 -43.3657
   -43.3282 -43.1784 -43.0174 -42.9600 -42.8791 -42.8490 -42.8370 -42.8172
   -42.7956 -42.7830 -42.7621 -42.7523 -42.6813 -42.6287 -39.9106 -39.8638
   -39.8108 -39.7150 -39.6758 -39.5370 -39.5215 -39.4735 -39.4555 -39.4351
   -39.4201 -39.3896 -39.3853 -39.3357 -39.2539 -39.2120 -39.0997 -39.0882
    -4.5035  -4.0201  -3.5816  -2.7621  -2.6579  -2.6012  -2.3329  -2.2222
    -2.0848  -2.0077  -1.8837  -1.8123  -1.5386  -1.4210  -1.3804  -1.2925
    -1.1693  -0.9735  -0.8297  -0.7897  -0.4512  -0.3443  -0.2349  -0.1203
    -0.0287   0.0321   0.0760   0.1988   0.2215   0.3553   0.6897   0.7546
     0.9812   1.0555   1.1657   1.2082   1.3870   1.4344   1.4648   1.6437
     1.8000   2.1601   2.2087   2.6020   2.6594   2.7454   2.8069   2.8847
     3.0427   3.2194   3.6939   3.6961   4.1556   4.2701   4.3864   4.4648
     4.5168   4.5869   4.6351   4.8485   4.9488   4.9879   5.1664   5.2872

          k = 0.0607-0.1051 0.0000 ( 29824 PWs)   bands (ev):

   -84.0594 -84.0461 -83.5776 -83.5645 -83.5343 -83.5213 -77.9811 -77.9620
   -77.6906 -77.6772 -77.6719 -77.6583 -43.4702 -43.4355 -43.4088 -43.3610
   -43.3371 -43.2315 -42.9689 -42.9122 -42.8725 -42.8449 -42.8415 -42.8261
[...]
     3.1525   3.3515   3.5392   3.7283   3.8586   3.9754   4.3814   4.4010
     4.5557   4.6774   4.8635   4.8711   5.2413   5.2450   5.5941   5.7470

          k = 0.0759 0.0438 0.0000 ( 29836 PWs)   bands (ev):

   -84.0660 -84.0394 -83.5842 -83.5579 -83.5409 -83.5147 -77.9906 -77.9526
   -77.6999 -77.6865 -77.6625 -77.6490 -43.5891 -43.4491 -43.3915 -43.3737
   -43.3163 -43.1028 -43.0859 -43.0277 -42.8883 -42.8562 -42.8305 -42.8053
   -42.8025 -42.7898 -42.7529 -42.7422 -42.6075 -42.5555 -39.9964 -39.8757
   -39.8064 -39.7240 -39.6718 -39.6235 -39.6062 -39.4647 -39.4425 -39.4106
   -39.3960 -39.3858 -39.3830 -39.3323 -39.2619 -39.2056 -39.0100 -38.9987
    -5.1220  -4.2197  -3.2235  -3.0254  -2.8002  -2.7621  -2.7535  -2.6382
    -2.5691  -2.4160  -2.0756  -1.9439  -1.7550  -1.3464  -1.3152  -1.1184
    -0.9323  -0.8396  -0.7913  -0.7119  -0.5485  -0.4880   0.0383   0.2404
     0.5005   0.5007   0.5303   0.7496   0.7728   0.7751   0.9292   0.9703
     1.0312   1.0763   1.1561   1.1940   1.2561   1.3232   1.4123   1.4758
     1.6229   1.9878   2.2571   2.5320   2.6416   2.7436   2.9137   2.9246
     3.2115   3.3076   3.5070   3.5694   3.5783   3.7726   4.0641   4.2527
     4.3058   4.6687   4.6973   4.9082   5.3141   5.5806   5.6155   5.6916

          k = 0.0759-0.1488 0.0000 ( 29845 PWs)   bands (ev):

   -84.0655 -84.0399 -83.5838 -83.5584 -83.5404 -83.5152 -77.9900 -77.9532
   -77.6993 -77.6859 -77.6632 -77.6496 -43.5803 -43.4476 -43.3923 -43.3713
   -43.3170 -43.1115 -43.0773 -43.0192 -42.8876 -42.8537 -42.8315 -42.8060
   -42.8010 -42.7881 -42.7538 -42.7429 -42.6161 -42.5640 -39.9876 -39.8765
   -39.8079 -39.7242 -39.6729 -39.6145 -39.5975 -39.4624 -39.4438 -39.4110
   -39.3976 -39.3932 -39.3873 -39.3337 -39.2616 -39.2065 -39.0206 -39.0094
    -4.8342  -4.3605  -3.0545  -2.9546  -2.8791  -2.6957  -2.5729  -2.5071
    -2.3893  -2.3273  -1.9901  -1.7644  -1.6142  -1.4064  -1.3348  -1.2001
    -1.0021  -0.9807  -0.8245  -0.7222  -0.5602  -0.2568   0.0418   0.2130
     0.2910   0.3760   0.4761   0.5388   0.6039   0.6644   0.7760   0.7789
     0.9391   1.0743   1.1003   1.1560   1.2365   1.3064   1.3602   1.4380
     1.8217   2.0531   2.3544   2.5061   2.6492   2.6575   2.7999   2.9383
     3.0806   3.2581   3.4070   3.5371   3.6276   3.8382   3.9643   4.1816
     4.2856   4.6276   4.6722   4.8690   5.2481   5.4147   5.5405   5.9768

          k = 0.0759-0.1313 0.0000 ( 29812 PWs)   bands (ev):

   -84.0642 -84.0412 -83.5824 -83.5597 -83.5391 -83.5165 -77.9881 -77.9551
   -77.6974 -77.6840 -77.6650 -77.6515 -43.5567 -43.4448 -43.3957 -43.3686
   -43.3211 -43.1374 -43.0540 -42.9962 -42.8844 -42.8513 -42.8337 -42.8101
   -42.7986 -42.7858 -42.7569 -42.7465 -42.6413 -42.5891 -39.9584 -39.8723
   -39.8093 -39.7210 -39.6742 -39.5849 -39.5686 -39.4591 -39.4415 -39.4248
   -39.4143 -39.3930 -39.3885 -39.3348 -39.2588 -39.2086 -39.0513 -39.0400
    -4.5141  -4.3973  -3.1737  -2.8681  -2.8249  -2.6255  -2.3942  -2.3834
    -2.2147  -2.1677  -1.8969  -1.6643  -1.5034  -1.4785  -1.4477  -1.2307
    -1.0806  -0.9927  -0.9876  -0.6231  -0.5113  -0.0655  -0.0447  -0.0442
     0.0255   0.1648   0.1765   0.2492   0.3944   0.5029   0.6903   0.7413
     0.9932   1.0325   1.2042   1.2136   1.2202   1.2679   1.5128   1.5542
     1.9009   2.0522   2.3741   2.5494   2.5521   2.6856   2.8588   2.9517
     3.0429   3.0881   3.5370   3.6949   3.7909   4.0480   4.1441   4.2826
     4.3445   4.6017   4.6482   4.7670   5.0715   5.1921   5.2954   6.0075

          k = 0.0759-0.1138 0.0000 ( 29826 PWs)   bands (ev):

   -84.0621 -84.0434 -83.5804 -83.5618 -83.5370 -83.5186 -77.9850 -77.9581
   -77.6944 -77.6810 -77.6680 -77.6545 -43.5195 -43.4409 -43.4015 -43.3657
   -43.3282 -43.1784 -43.0174 -42.9600 -42.8791 -42.8490 -42.8370 -42.8172
   -42.7956 -42.7830 -42.7621 -42.7523 -42.6813 -42.6287 -39.9106 -39.8638
   -39.8108 -39.7150 -39.6758 -39.5370 -39.5215 -39.4735 -39.4555 -39.4351
   -39.4201 -39.3896 -39.3853 -39.3357 -39.2539 -39.2120 -39.0997 -39.0882
    -4.5035  -4.0201  -3.5816  -2.7621  -2.6579  -2.6012  -2.3329  -2.2222
    -2.0848  -2.0077  -1.8837  -1.8123  -1.5386  -1.4210  -1.3804  -1.2925
    -1.1693  -0.9735  -0.8297  -0.7897  -0.4512  -0.3443  -0.2349  -0.1203
    -0.0287   0.0321   0.0760   0.1988   0.2215   0.3553   0.6897   0.7546
     0.9812   1.0555   1.1657   1.2082   1.3870   1.4344   1.4648   1.6437
     1.8000   2.1601   2.2087   2.6020   2.6594   2.7454   2.8069   2.8847
     3.0427   3.2194   3.6939   3.6961   4.1556   4.2701   4.3864   4.4648
     4.5168   4.5869   4.6351   4.8485   4.9488   4.9879   5.1664   5.2872

          k = 0.0759-0.0963 0.0000 ( 29820 PWs)   bands (ev):

   -84.0594 -84.0461 -83.5776 -83.5645 -83.5343 -83.5213 -77.9811 -77.9620
   -77.6906 -77.6771 -77.6719 -77.6583 -43.4711 -43.4360 -43.4089 -43.3624
   -43.3373 -43.2312 -42.9697 -42.9131 -42.8722 -42.8466 -42.8413 -42.8261
   -42.7920 -42.7796 -42.7691 -42.7592 -42.7327 -42.6798 -39.8523 -39.8477
   -39.8125 -39.7070 -39.6779 -39.5363 -39.4741 -39.4596 -39.4517 -39.4274
   -39.4260 -39.3906 -39.3746 -39.3370 -39.2473 -39.2165 -39.1626 -39.1506
    -4.5005  -4.0304  -3.5754  -2.7606  -2.6765  -2.5726  -2.3590  -2.1762
    -2.1131  -2.0169  -1.8948  -1.8030  -1.5152  -1.4618  -1.3537  -1.3027
    -1.1270  -0.9477  -0.9432  -0.7993  -0.4663  -0.2899  -0.2373  -0.1007
     0.0076   0.0333   0.0577   0.0930   0.2700   0.3296   0.6952   0.7682
     0.9995   1.0824   1.1274   1.1962   1.2962   1.4534   1.5567   1.6055
     1.8598   2.0583   2.3459   2.5868   2.6114   2.7109   2.8924   2.8929
     3.0027   3.4771   3.5200   3.7259   4.2509   4.2622   4.3581   4.3743
     4.4865   4.6106   4.6120   4.7697   4.9509   5.0763   5.2458   5.3041

          k = 0.0759-0.0788 0.0000 ( 29818 PWs)   bands (ev):

   -84.0562 -84.0493 -83.5745 -83.5677 -83.5312 -83.5245 -77.9765 -77.9666
   -77.6860 -77.6763 -77.6726 -77.6629 -43.4304 -43.4190 -43.4128 -43.3585
   -43.3469 -43.2916 -42.9143 -42.8646 -42.8595 -42.8454 -42.8440 -42.8352
   -42.7938 -42.7854 -42.7770 -42.7756 -42.7663 -42.7379 -39.8397 -39.8167
   -39.7730 -39.6984 -39.6807 -39.6090 -39.4473 -39.4373 -39.4158 -39.4045
   -39.3940 -39.3807 -39.3630 -39.3388 -39.2409 -39.2342 -39.2225 -39.2219
    -4.4595  -4.4594  -3.1703  -2.8553  -2.8504  -2.5775  -2.4611  -2.2882
    -2.2722  -2.1986  -1.8577  -1.6895  -1.5368  -1.4753  -1.3296  -1.3187
    -1.1212  -1.0659  -0.9090  -0.6640  -0.4943  -0.0909  -0.0866  -0.0115
     0.0170   0.0834   0.2078   0.3132   0.3903   0.4101   0.7074   0.7492
     1.0154   1.0493   1.1205   1.2087   1.2179   1.2474   1.5581   1.5734
     1.9653   2.0987   2.4526   2.4732   2.5897   2.7191   2.8396   2.9556
     3.1494   3.3016   3.5912   3.7063   3.7377   4.0274   4.1591   4.2212
     4.3423   4.3579   4.6556   4.6774   5.1845   5.2333   5.5749   5.6274

          k = 0.0759-0.0613 0.0000 ( 29843 PWs)   bands (ev):

   -84.0528 -84.0527 -83.5711 -83.5711 -83.5279 -83.5278 -77.9716 -77.9715
   -77.6812 -77.6812 -77.6677 -77.6677 -43.4260 -43.4240 -43.3611 -43.3607
   -43.3478 -43.3478 -42.8647 -42.8620 -42.8506 -42.8501 -42.8397 -42.8362
   -42.8021 -42.7997 -42.7829 -42.7802 -42.7728 -42.7700 -39.8277 -39.8219
   -39.6975 -39.6959 -39.6810 -39.6809 -39.4452 -39.4422 -39.4063 -39.4005
   -39.3530 -39.3465 -39.3178 -39.3129 -39.3040 -39.2995 -39.2310 -39.2280
    -4.8307  -4.3715  -3.0597  -2.9767  -2.8598  -2.6236  -2.5986  -2.5216
    -2.3890  -2.3751  -1.9355  -1.8324  -1.5478  -1.4033  -1.3592  -1.2868
    -0.9889  -0.9321  -0.8397  -0.7882  -0.5222  -0.3187   0.1026   0.1256
     0.2620   0.3810   0.4206   0.5789   0.6114   0.6547   0.7061   0.7094
     0.9081   1.0635   1.0764   1.2198   1.2742   1.3120   1.3898   1.4298
     1.9084   2.2167   2.4023   2.4657   2.6781   2.7244   2.9054   2.9132
     3.1389   3.3540   3.4341   3.6135   3.6719   3.7927   4.0212   4.0342
     4.2188   4.3483   4.7327   4.7510   5.4025   5.4494   5.8217   5.8279

          k =-0.0911 0.0525 0.0000 ( 29798 PWs)   bands (ev):

   -84.0528 -84.0528 -83.5711 -83.5711 -83.5278 -83.5278 -77.9715 -77.9715
   -77.6812 -77.6812 -77.6677 -77.6677 -43.4250 -43.4250 -43.3615 -43.3615
   -43.3472 -43.3472 -42.8637 -42.8637 -42.8506 -42.8506 -42.8374 -42.8373
   -42.8013 -42.8013 -42.7812 -42.7812 -42.7713 -42.7713 -39.8249 -39.8249
   -39.6974 -39.6974 -39.6801 -39.6801 -39.4437 -39.4437 -39.4037 -39.4037
   -39.3503 -39.3503 -39.3149 -39.3149 -39.3013 -39.3013 -39.2295 -39.2295
    -4.6388  -4.6388  -3.0380  -3.0380  -2.6299  -2.6299  -2.5593  -2.5593
    -2.4609  -2.4609  -1.8649  -1.8649  -1.4480  -1.4479  -1.3220  -1.3220
    -0.9981  -0.9981  -0.8480  -0.8480  -0.3618  -0.3618   0.2049   0.2049
     0.3883   0.3883   0.5240   0.5240   0.6393   0.6393   0.7232   0.7232
     1.0090   1.0090   1.1034   1.1034   1.1773   1.1773   1.3270   1.3270
     2.1445   2.1445   2.3672   2.3672   2.7033   2.7033   2.9046   2.9046
     3.3289   3.3289   3.4815   3.4816   3.5246   3.5246   3.9318   3.9318
     4.2039   4.2039   4.7783   4.7783   5.5430   5.5430   5.9162   5.9162

          k =-0.0911 0.0700 0.0000 ( 29839 PWs)   bands (ev):

   -84.0562 -84.0493 -83.5745 -83.5677 -83.5312 -83.5245 -77.9765 -77.9666
   -77.6860 -77.6764 -77.6726 -77.6629 -43.4319 -43.4202 -43.4138 -43.3619
   -43.3461 -43.2901 -42.9167 -42.8638 -42.8621 -42.8483 -42.8447 -42.8340
   -42.7939 -42.7865 -42.7776 -42.7762 -42.7656 -42.7364 -39.8350 -39.8177
   -39.7697 -39.6958 -39.6808 -39.6101 -39.4499 -39.4369 -39.4113 -39.4054
   -39.3923 -39.3773 -39.3582 -39.3389 -39.2414 -39.2333 -39.2234 -39.2226
    -4.8304  -4.3716  -3.0625  -2.9674  -2.8683  -2.6231  -2.5920  -2.5204
    -2.4177  -2.3534  -1.9457  -1.8283  -1.5552  -1.3807  -1.3525  -1.2837
    -1.0102  -0.9148  -0.8460  -0.7908  -0.5362  -0.3146   0.0962   0.1229
     0.2609   0.4232   0.5121   0.5307   0.5925   0.6124   0.7137   0.7529
     0.9874   1.0060   1.1171   1.1650   1.1954   1.2901   1.3964   1.4633
     2.0325   2.1591   2.1923   2.6167   2.6312   2.7405   2.8038   3.1133
     3.1162   3.1789   3.4835   3.5413   3.7451   3.8826   3.9543   4.0910
     4.1806   4.3469   4.7544   4.7562   5.3634   5.4655   5.8045   5.8398

          k =-0.0911 0.0875 0.0000 ( 29844 PWs)   bands (ev):

   -84.0594 -84.0461 -83.5777 -83.5645 -83.5344 -83.5213 -77.9811 -77.9621
   -77.6905 -77.6771 -77.6719 -77.6584 -43.4734 -43.4377 -43.4092 -43.3662
   -43.3378 -43.2305 -42.9718 -42.9153 -42.8712 -42.8512 -42.8407 -42.8263
   -42.7946 -42.7819 -42.7691 -42.7592 -42.7320 -42.6790 -39.8468 -39.8452
   -39.8108 -39.7039 -39.6771 -39.5367 -39.4717 -39.4569 -39.4548 -39.4280
   -39.4207 -39.3893 -39.3690 -39.3358 -39.2455 -39.2166 -39.1629 -39.1510
    -4.9449  -4.0359  -3.2426  -3.0482  -2.8606  -2.6668  -2.5815  -2.5446
    -2.3214  -2.2333  -2.0648  -1.8170  -1.5682  -1.4890  -1.3584  -1.1858
    -0.9964  -0.8605  -0.8228  -0.8108  -0.5771  -0.2934  -0.1009  -0.0862
     0.2227   0.3934   0.4403   0.4993   0.5331   0.5478   0.7126   0.7466
     0.9224   0.9746   1.2355   1.2994   1.3883   1.4251   1.4965   1.5823
     1.8451   2.1675   2.2165   2.5653   2.7018   2.7352   2.8495   2.8858
     3.0848   3.2288   3.5685   3.6838   4.0264   4.1288   4.2417   4.3409
     4.4341   4.6658   4.7100   4.7830   5.0650   5.3005   5.5549   5.6835

          k =-0.0911 0.1050 0.0000 ( 29840 PWs)   bands (ev):

   -84.0621 -84.0434 -83.5804 -83.5618 -83.5371 -83.5186 -77.9850 -77.9581
   -77.6944 -77.6810 -77.6680 -77.6545 -43.5212 -43.4423 -43.4020 -43.3691
   -43.3293 -43.1783 -43.0190 -42.9617 -42.8782 -42.8529 -42.8364 -42.8181
   -42.7976 -42.7851 -42.7624 -42.7527 -42.6811 -42.6285 -39.9080 -39.8589
   -39.8089 -39.7122 -39.6748 -39.5347 -39.5190 -39.4734 -39.4585 -39.4301
   -39.4211 -39.3879 -39.3802 -39.3340 -39.2524 -39.2119 -39.0997 -39.0882
    -4.9829  -3.6491  -3.6445  -3.0408  -2.7617  -2.7394  -2.5648  -2.5557
    -2.2651  -2.1803  -2.1393  -1.8143  -1.6016  -1.4255  -1.4045  -1.1910
    -0.9943  -0.9916  -0.7876  -0.7228  -0.3412  -0.3354  -0.2679  -0.2642
     0.3035   0.3331   0.3518   0.4660   0.5164   0.6003   0.6872   0.7238
     0.9302   0.9495   1.2735   1.4159   1.4594   1.4607   1.5564   1.5855
     1.7546   2.2372   2.2515   2.4695   2.7031   2.7155   2.7902   2.8723
     3.0428   3.2990   3.5601   3.8650   3.9705   4.2835   4.3636   4.5315
     4.6439   4.6560   4.9138   5.0468   5.1712   5.2632   5.3817   5.4286

          k =-0.0911 0.1226 0.0000 ( 29848 PWs)   bands (ev):

   -84.0642 -84.0412 -83.5824 -83.5597 -83.5391 -83.5165 -77.9881 -77.9551
   -77.6974 -77.6840 -77.6651 -77.6515 -43.5576 -43.4456 -43.3961 -43.3706
   -43.3220 -43.1375 -43.0549 -42.9971 -42.8839 -42.8536 -42.8333 -42.8109
   -42.7997 -42.7871 -42.7571 -42.7470 -42.6413 -42.5891 -39.9568 -39.8694
   -39.8081 -39.7193 -39.6735 -39.5836 -39.5671 -39.4609 -39.4385 -39.4245
   -39.4151 -39.3900 -39.3873 -39.3336 -39.2580 -39.2085 -39.0512 -39.0398
    -4.9455  -4.0292  -3.2450  -3.0472  -2.8478  -2.7122  -2.5663  -2.5340
    -2.2854  -2.2623  -2.0540  -1.8063  -1.5614  -1.5385  -1.3419  -1.1909
    -0.9464  -0.8588  -0.8210  -0.8130  -0.5346  -0.2905  -0.1595  -0.0539
     0.2651   0.3642   0.4587   0.4683   0.5189   0.6480   0.6877   0.7090
     0.9506   1.0010   1.2197   1.3497   1.3684   1.4596   1.4769   1.5511
     1.7656   2.1035   2.2870   2.4846   2.7137   2.7400   2.8359   2.8768
     2.9969   3.2727   3.4555   3.7859   3.8184   4.0999   4.3830   4.4089
     4.5396   4.6126   4.7625   4.8509   5.0923   5.1056   5.3774   5.9709

          k =-0.0911 0.1401 0.0000 ( 29845 PWs)   bands (ev):

   -84.0655 -84.0399 -83.5838 -83.5584 -83.5404 -83.5152 -77.9900 -77.9532
   -77.6993 -77.6859 -77.6632 -77.6496 -43.5803 -43.4476 -43.3923 -43.3713
   -43.3170 -43.1115 -43.0773 -43.0192 -42.8876 -42.8537 -42.8315 -42.8060
   -42.8010 -42.7881 -42.7538 -42.7429 -42.6161 -42.5640 -39.9876 -39.8765
   -39.8079 -39.7242 -39.6729 -39.6145 -39.5975 -39.4624 -39.4438 -39.4110
   -39.3976 -39.3932 -39.3873 -39.3337 -39.2616 -39.2065 -39.0206 -39.0094
    -4.8342  -4.3605  -3.0545  -2.9546  -2.8791  -2.6957  -2.5729  -2.5071
    -2.3893  -2.3273  -1.9901  -1.7644  -1.6142  -1.4064  -1.3348  -1.2001
    -1.0021  -0.9807  -0.8245  -0.7222  -0.5602  -0.2568   0.0418   0.2130
     0.2910   0.3760   0.4761   0.5388   0.6039   0.6644   0.7760   0.7789
     0.9391   1.0743   1.1003   1.1560   1.2365   1.3064   1.3602   1.4380
     1.8217   2.0531   2.3544   2.5061   2.6492   2.6575   2.7999   2.9383
     3.0806   3.2581   3.4070   3.5371   3.6276   3.8382   3.9643   4.1816
     4.2856   4.6276   4.6722   4.8690   5.2481   5.4147   5.5405   5.9768

          k =-0.0911-0.0526 0.0000 ( 29810 PWs)   bands (ev):

   -84.0660 -84.0394 -83.5842 -83.5579 -83.5409 -83.5147 -77.9906 -77.9526
   -77.6999 -77.6865 -77.6625 -77.6490 -43.5881 -43.4483 -43.3909 -43.3715
   -43.3152 -43.1026 -43.0849 -43.0267 -42.8889 -42.8537 -42.8310 -42.8042
   -42.8014 -42.7884 -42.7527 -42.7415 -42.6074 -42.5554 -39.9981 -39.8790
   -39.8079 -39.7259 -39.6727 -39.6250 -39.6079 -39.4629 -39.4457 -39.4096
   -39.3995 -39.3873 -39.3833 -39.3338 -39.2628 -39.2058 -39.0102 -38.9990
    -4.6938  -4.5759  -3.0449  -3.0108  -2.7010  -2.6454  -2.5734  -2.5306
    -2.4799  -2.3583  -1.9761  -1.7311  -1.6079  -1.3351  -1.3018  -1.2373
    -1.1078  -1.0054  -0.7945  -0.7883  -0.4958  -0.1875   0.1319   0.3384
     0.3812   0.4407   0.4445   0.5292   0.5799   0.6995   0.8290   0.8625
     0.9503   1.0449   1.0505   1.0712   1.1962   1.1965   1.2389   1.3696
     1.8330   2.1091   2.4536   2.4800   2.5029   2.6224   2.7976   2.8952
     3.1949   3.3088   3.4075   3.5002   3.5174   3.6071   3.7840   4.0465
     4.2390   4.5865   4.6990   4.9070   5.3229   5.5878   5.6810   5.9357

     the Fermi energy is     2.8388 ev

!    total energy              =   -2279.47344265 Ry
     estimated scf accuracy    <       0.00000154 Ry
     smearing contrib. (-TS)   =      -0.06650476 Ry
     internal energy E=F+TS    =   -2279.40693788 Ry

     The total energy is F=E-TS. E is the sum of the following terms:
     one-electron contribution =  -19936.09275077 Ry
     hartree contribution      =    9950.46290937 Ry
     xc contribution           =    -481.56693450 Ry
     ewald contribution        =    8187.78983477 Ry
     electric field correction =       0.00000324 Ry

     convergence has been achieved in  14 iterations

     negative rho (up, down):  1.745E-04 0.000E+00

     Forces acting on atoms (cartesian axes, Ry/au):

     atom    1 type  1   force =     0.00257772    0.00148955    0.02351031
     atom    2 type  1   force =     0.00257738    0.00148960    0.02351106
     atom    3 type  2   force =    -0.00308366   -0.00178149    0.02178429
     atom    4 type  2   force =    -0.00308359   -0.00178142    0.02178435
     atom    5 type  1   force =     0.00166724    0.00096401   -0.02132990
     atom    6 type  1   force =     0.00166759    0.00096351   -0.02133023
     atom    7 type  2   force =    -0.00162678   -0.00094035   -0.02198166
     atom    8 type  2   force =    -0.00162704   -0.00094044   -0.02198243
     atom    9 type  1   force =     0.00028866    0.00016498   -0.00105598
     atom   10 type  1   force =     0.00028822    0.00016865   -0.00105733
     atom   11 type  2   force =     0.00017677    0.00010003   -0.00092570
     atom   12 type  2   force =     0.00017750    0.00010337   -0.00092678

     Total force =     0.063189     Total SCF correction =     0.011583
     SCF correction compared to forces is large: reduce conv_thr to get better values

     Writing output data file ./Re2Os2/Re2Os2_beef.save/

     init_run     :     84.15s CPU     84.62s WALL (       1 calls)
     electrons    :   3237.34s CPU   3277.57s WALL (       1 calls)
     forces       :     53.26s CPU     53.53s WALL (       1 calls)

     Called by init_run:
     wfcinit      :     72.38s CPU     72.69s WALL (       1 calls)
     potinit      :      8.10s CPU      8.17s WALL (       1 calls)
     hinit0       :      2.19s CPU      2.20s WALL (       1 calls)

     Called by electrons:
     c_bands      :   2872.12s CPU   2905.51s WALL (      15 calls)
     sum_band     :    337.92s CPU    342.76s WALL (      15 calls)
     v_of_rho     :     22.02s CPU     22.82s WALL (      15 calls)
     newd         :     12.16s CPU     13.35s WALL (      15 calls)
     mix_rho      :      0.46s CPU      0.46s WALL (      15 calls)
     vdW_kernel   :      5.99s CPU      6.00s WALL (       1 calls)

     Called by c_bands:
     init_us_2    :      7.23s CPU      7.29s WALL (    2368 calls)
     cegterg      :   2809.88s CPU   2841.42s WALL (    1110 calls)

     Called by *egterg:
     cdiaghg      :    169.32s CPU    170.03s WALL (    4251 calls)
     h_psi        :   1286.30s CPU   1310.54s WALL (    4399 calls)
     s_psi        :    236.30s CPU    237.08s WALL (    4399 calls)
     g_psi        :      1.07s CPU      1.08s WALL (    3215 calls)

     Called by h_psi:
     h_psi:calbec :    472.40s CPU    474.58s WALL (    4399 calls)
     vloc_psi     :    549.69s CPU    571.02s WALL (    4399 calls)
     add_vuspsi   :    260.68s CPU    261.40s WALL (    4399 calls)

     General routines
     calbec       :    718.94s CPU    722.01s WALL (    5805 calls)
     fft          :     13.11s CPU     13.52s WALL (    1005 calls)
     ffts         :      0.08s CPU      0.08s WALL (      30 calls)
     fftw         :    633.38s CPU    657.20s WALL (  703354 calls)
     interpolate  :      0.20s CPU      0.22s WALL (      15 calls)

     Parallel routines
     fft_scatt_xy :     46.12s CPU     46.72s WALL (  704389 calls)
     fft_scatt_yz :    200.10s CPU    218.08s WALL (  704389 calls)

     PWSCF        :  56m34.08s CPU  57m37.10s WALL


   This run was terminated on:  17:28:50  24Jun2022            

=------------------------------------------------------------------------------=
   JOB DONE.
=------------------------------------------------------------------------------=
