
     Program PWSCF v.6.6 starts on 10Jul2022 at 17:48:11 

     This program is part of the open-source Quantum ESPRESSO suite
     for quantum simulation of materials; please cite
         "P. Giannozzi et al., J. Phys.:Condens. Matter 21 395502 (2009);
         "P. Giannozzi et al., J. Phys.:Condens. Matter 29 465901 (2017);
          URL http://www.quantum-espresso.org", 
     in publications or presentations arising from this work. More details at
     http://www.quantum-espresso.org/quote

     Parallel version (MPI), running on    37 processors

     MPI processes distributed on     1 nodes
     R & G space division:  proc/nbgrp/npool/nimage =      37
     Fft bands division:     nmany     =       1
     Reading input from Rh2Ag2.in
Warning: card &CELL ignored
Warning: card / ignored

     Current dimensions of program PWSCF are:
     Max number of different atomic species (ntypx) = 10
     Max number of k-points (npk) =  40000
     Max angular momentum in pseudopotentials (lmaxx) =  3
     Presently stress not available with electric field and gates

     Message from routine cell_base_init:
     DEPRECATED: use true lattice parameter, not A to a.u. conversion factor
     file Rh.pbe-spn-rrkjus_psl.1.0.0.UPF: wavefunction(s)  4S 5S renormalized

     **************************************************************************
     Initializing libbeef V0.1.2 with the BEEF-vdW functional.
     Citation: Wellendorff et al., PRB 85, 235149 (2012).
     **************************************************************************


     IMPORTANT: XC functional enforced from input :
     Exchange-correlation= BEEF-VDW
                           (   1   4  43  14   2   0   0)
     Any further DFT definition will be discarded
     Please, verify this is what you really want


     Subspace diagonalization in iterative solution of the eigenvalue problem:
     a serial algorithm will be used


     Parallelization info
     --------------------
     sticks:   dense  smooth     PW     G-vecs:    dense   smooth      PW
     Min         119      47     13                27711     7003    1081
     Max         120      48     14                27726     7024    1102
     Sum        4415    1765    509              1025559   259457   40471



     bravais-lattice index     =            0
     lattice parameter (alat)  =       1.8897  a.u.
     unit-cell volume          =    4693.4244 (a.u.)^3
     number of atoms/cell      =           12
     number of atomic types    =            2
     number of electrons       =       168.00
     number of Kohn-Sham states=          101
     kinetic-energy cutoff     =      55.1240  Ry
     charge density cutoff     =     551.2396  Ry
     convergence threshold     =      1.0E-05
     mixing beta               =       0.1000
     number of iterations used =           10  plain     mixing
     Exchange-correlation= BEEF-VDW
                           (   1   4  43  14   2   0   0)

     celldm(1)=   1.889726  celldm(2)=   0.000000  celldm(3)=   0.000000
     celldm(4)=   0.000000  celldm(5)=   0.000000  celldm(6)=   0.000000

     crystal axes: (cart. coord. in units of alat)
               a(1) = (   5.507256   0.000000   0.000000 )  
               a(2) = (  -2.753628   5.124331   0.000000 )  
               a(3) = (   0.000000   0.000000  24.644549 )  

     reciprocal axes: (cart. coord. in units 2 pi/alat)
               b(1) = (  0.181579  0.097574 -0.000000 )  
               b(2) = (  0.000000  0.195147  0.000000 )  
               b(3) = (  0.000000 -0.000000  0.040577 )  


     PseudoPot. # 1 for Rh read from file:
     ../pseudo/Rh.pbe-spn-rrkjus_psl.1.0.0.UPF
     MD5 check sum: 912a852783f0c9b7bd5e9eb06cc0cc10
     Pseudo is Ultrasoft + core correction, Zval = 17.0
     Generated using "atomic" code by A. Dal Corso v.6.3
     Using radial grid of 1233 points,  6 beta functions with: 
                l(1) =   0
                l(2) =   0
                l(3) =   1
                l(4) =   1
                l(5) =   2
                l(6) =   2
     Q(r) pseudized with 0 coefficients 


     PseudoPot. # 2 for Ag read from file:
     ../pseudo/Ag.pbe-n-rrkjus_psl.1.0.0.UPF
     MD5 check sum: d841cbfac2b0861aec33b46768a516bf
     Pseudo is Ultrasoft + core correction, Zval = 11.0
     Generated using "atomic" code by A. Dal Corso v.6.2.2
     Using radial grid of 1237 points,  6 beta functions with: 
                l(1) =   0
                l(2) =   0
                l(3) =   1
                l(4) =   1
                l(5) =   2
                l(6) =   2
     Q(r) pseudized with 0 coefficients 


     atomic species   valence    mass     pseudopotential
        Rh            17.00   102.90550     Rh( 1.00)
        Ag            11.00   107.86820     Ag( 1.00)

     No symmetry found



   Cartesian axes

     site n.     atom                  positions (alat units)
         1           Rh  tau(   1) = (   0.0000000   0.0000000  10.0000000  )
         2           Rh  tau(   2) = (   2.7536282   0.0000000  10.0000000  )
         3           Ag  tau(   3) = (   1.3768141   2.5621657  10.0000000  )
         4           Ag  tau(   4) = (  -1.3768141   2.5621657  10.0000000  )
         5           Rh  tau(   5) = (   2.7536282   1.4796991  12.3222745  )
         6           Rh  tau(   6) = (  -0.0000000   1.4796991  12.3222745  )
         7           Ag  tau(   7) = (  -1.3768141   4.0418647  12.3222745  )
         8           Ag  tau(   8) = (   1.3768141   4.0418647  12.3222745  )
         9           Rh  tau(   9) = (  -0.0001777   2.7350659  14.5303825  )
        10           Rh  tau(  10) = (   2.7534494   2.7350149  14.5303968  )
        11           Ag  tau(  11) = (   4.1300325   0.2257497  14.8166801  )
        12           Ag  tau(  12) = (   1.3766177   0.2257489  14.8166757  )

     number of k points=    74  Fermi-Dirac smearing, width (Ry)=  0.0100
                       cart. coord. in units 2pi/alat
        k(    1) = (   0.0000000   0.0000000   0.0000000), wk =   0.0138889
        k(    2) = (   0.0000000   0.0162623   0.0000000), wk =   0.0277778
        k(    3) = (   0.0000000   0.0325246   0.0000000), wk =   0.0277778
        k(    4) = (   0.0000000   0.0487869   0.0000000), wk =   0.0277778
        k(    5) = (   0.0000000   0.0650491   0.0000000), wk =   0.0277778
        k(    6) = (   0.0000000   0.0813114   0.0000000), wk =   0.0277778
        k(    7) = (   0.0000000  -0.0975737   0.0000000), wk =   0.0138889
        k(    8) = (   0.0151316   0.0081311   0.0000000), wk =   0.0277778
        k(    9) = (   0.0151316   0.0243934   0.0000000), wk =   0.0277778
        k(   10) = (   0.0151316   0.0406557   0.0000000), wk =   0.0277778
        k(   11) = (   0.0151316   0.0569180   0.0000000), wk =   0.0277778
        k(   12) = (   0.0151316   0.0731803   0.0000000), wk =   0.0277778
        k(   13) = (   0.0151316   0.0894426   0.0000000), wk =   0.0277778
        k(   14) = (   0.0151316  -0.0894426   0.0000000), wk =   0.0277778
        k(   15) = (   0.0151316  -0.0731803   0.0000000), wk =   0.0277778
        k(   16) = (   0.0151316  -0.0569180   0.0000000), wk =   0.0277778
        k(   17) = (   0.0151316  -0.0406557   0.0000000), wk =   0.0277778
        k(   18) = (   0.0151316  -0.0243934   0.0000000), wk =   0.0277778
        k(   19) = (   0.0151316  -0.0081311   0.0000000), wk =   0.0277778
        k(   20) = (   0.0302631   0.0162623   0.0000000), wk =   0.0277778
        k(   21) = (   0.0302631   0.0325246   0.0000000), wk =   0.0277778
        k(   22) = (   0.0302631   0.0487869   0.0000000), wk =   0.0277778
        k(   23) = (   0.0302631   0.0650491   0.0000000), wk =   0.0277778
        k(   24) = (   0.0302631   0.0813114   0.0000000), wk =   0.0277778
        k(   25) = (   0.0302631   0.0975737   0.0000000), wk =   0.0277778
        k(   26) = (   0.0302631  -0.0813114   0.0000000), wk =   0.0277778
        k(   27) = (   0.0302631  -0.0650491   0.0000000), wk =   0.0277778
        k(   28) = (   0.0302631  -0.0487869   0.0000000), wk =   0.0277778
        k(   29) = (   0.0302631  -0.0325246   0.0000000), wk =   0.0277778
        k(   30) = (   0.0302631  -0.0162623   0.0000000), wk =   0.0277778
        k(   31) = (   0.0302631  -0.0000000   0.0000000), wk =   0.0277778
        k(   32) = (   0.0453947   0.0243934   0.0000000), wk =   0.0277778
        k(   33) = (   0.0453947   0.0406557   0.0000000), wk =   0.0277778
        k(   34) = (   0.0453947   0.0569180   0.0000000), wk =   0.0277778
        k(   35) = (   0.0453947   0.0731803   0.0000000), wk =   0.0277778
        k(   36) = (   0.0453947   0.0894426   0.0000000), wk =   0.0277778
        k(   37) = (   0.0453947   0.1057049   0.0000000), wk =   0.0277778
        k(   38) = (   0.0453947  -0.0731803   0.0000000), wk =   0.0277778
        k(   39) = (   0.0453947  -0.0569180   0.0000000), wk =   0.0277778
        k(   40) = (   0.0453947  -0.0406557   0.0000000), wk =   0.0277778
        k(   41) = (   0.0453947  -0.0243934   0.0000000), wk =   0.0277778
        k(   42) = (   0.0453947  -0.0081311   0.0000000), wk =   0.0277778
        k(   43) = (   0.0453947   0.0081311   0.0000000), wk =   0.0277778
        k(   44) = (   0.0605262   0.0325246   0.0000000), wk =   0.0277778
        k(   45) = (   0.0605262   0.0487869   0.0000000), wk =   0.0277778
        k(   46) = (   0.0605262   0.0650491   0.0000000), wk =   0.0277778
        k(   47) = (   0.0605262   0.0813114   0.0000000), wk =   0.0277778
        k(   48) = (   0.0605262   0.0975737   0.0000000), wk =   0.0277778
        k(   49) = (   0.0605262   0.1138360   0.0000000), wk =   0.0277778
        k(   50) = (   0.0605262  -0.0650491   0.0000000), wk =   0.0277778
        k(   51) = (   0.0605262  -0.0487869   0.0000000), wk =   0.0277778
        k(   52) = (   0.0605262  -0.0325246   0.0000000), wk =   0.0277778
        k(   53) = (   0.0605262  -0.0162623   0.0000000), wk =   0.0277778
        k(   54) = (   0.0605262   0.0000000   0.0000000), wk =   0.0277778
        k(   55) = (   0.0605262   0.0162623   0.0000000), wk =   0.0277778
        k(   56) = (   0.0756578   0.0406557   0.0000000), wk =   0.0277778
        k(   57) = (   0.0756578   0.0569180   0.0000000), wk =   0.0277778
        k(   58) = (   0.0756578   0.0731803   0.0000000), wk =   0.0277778
        k(   59) = (   0.0756578   0.0894426   0.0000000), wk =   0.0277778
        k(   60) = (   0.0756578   0.1057049   0.0000000), wk =   0.0277778
        k(   61) = (   0.0756578   0.1219671   0.0000000), wk =   0.0277778
        k(   62) = (   0.0756578  -0.0569180   0.0000000), wk =   0.0277778
        k(   63) = (   0.0756578  -0.0406557   0.0000000), wk =   0.0277778
        k(   64) = (   0.0756578  -0.0243934   0.0000000), wk =   0.0277778
        k(   65) = (   0.0756578  -0.0081311   0.0000000), wk =   0.0277778
        k(   66) = (   0.0756578   0.0081311   0.0000000), wk =   0.0277778
        k(   67) = (   0.0756578   0.0243934   0.0000000), wk =   0.0277778
        k(   68) = (  -0.0907893  -0.0487869   0.0000000), wk =   0.0138889
        k(   69) = (  -0.0907893  -0.0325246   0.0000000), wk =   0.0277778
        k(   70) = (  -0.0907893  -0.0162623   0.0000000), wk =   0.0277778
        k(   71) = (  -0.0907893   0.0000000   0.0000000), wk =   0.0277778
        k(   72) = (  -0.0907893   0.0162623   0.0000000), wk =   0.0277778
        k(   73) = (  -0.0907893   0.0325246   0.0000000), wk =   0.0277778
        k(   74) = (  -0.0907893  -0.1463606   0.0000000), wk =   0.0138889

     Dense  grid:  1025559 G-vectors     FFT dimensions: (  80,  90, 360)

     Smooth grid:   259457 G-vectors     FFT dimensions: (  50,  54, 225)

     Estimated max dynamical RAM per process >     212.42 MB

     Estimated total dynamical RAM >       7.68 GB

     Initial potential from superposition of free atoms

     starting charge  167.99467, renormalised to  168.00000

     negative rho (up, down):  1.121E-03 0.000E+00


     %%%%%%%%%%%%%%%%%%%%%%%%%%%%%%%%%%%%%%%%%%%%%%%%%%%%%%%%%%%%%%%%%%%%%%%%
     %                                                                      %
     % You are using vdW-DF, which was implemented by the Thonhauser group. %
     % Please cite the following two papers that made this development      %
     % possible and the two reviews that describe the various versions:     %
     %                                                                      %
     %   T. Thonhauser et al., PRL 115, 136402 (2015).                      %
     %   T. Thonhauser et al., PRB 76, 125112 (2007).                       %
     %   K. Berland et al., Rep. Prog. Phys. 78, 066501 (2015).             %
     %   D.C. Langreth et al., J. Phys.: Condens. Matter 21, 084203 (2009). %
     %                                                                      %
     %                                                                      %
     % If you are calculating the stress with vdW-DF, please also cite:     %
     %                                                                      %
     %   R. Sabatini et al., J. Phys.: Condens. Matter 24, 424209 (2012).   %
     %                                                                      %
     %%%%%%%%%%%%%%%%%%%%%%%%%%%%%%%%%%%%%%%%%%%%%%%%%%%%%%%%%%%%%%%%%%%%%%%%



     Adding external electric field

     Computed dipole along edir(3) : 
        Dipole                0.0001 Ry au,          0.0001 Debye
        Dipole field          0.0000 Ry au, 

        Potential amp.       -0.0000 Ry
        Total length         45.4072 bohr

     Starting wfcs are  114 randomized atomic wfcs

     total cpu time spent up to now is       86.9 secs

     Self-consistent Calculation

     iteration #  1     ecut=    55.12 Ry     beta= 0.10
     Davidson diagonalization with overlap
     ethr =  1.00E-02,  avg # of iterations =  5.8

     negative rho (up, down):  1.079E-03 0.000E+00

     Adding external electric field

     Computed dipole along edir(3) : 
        Dipole                0.1248 Ry au,          0.3172 Debye
        Dipole field          0.0003 Ry au, 

        Potential amp.       -0.0303 Ry
        Total length         45.4072 bohr


     total cpu time spent up to now is      323.9 secs

     total energy              =   -1874.65225221 Ry
     estimated scf accuracy    <       5.07353967 Ry

     iteration #  2     ecut=    55.12 Ry     beta= 0.10
     Davidson diagonalization with overlap
     ethr =  3.02E-03,  avg # of iterations =  1.2

     negative rho (up, down):  1.088E-03 0.000E+00

     Adding external electric field

     Computed dipole along edir(3) : 
        Dipole               -0.2271 Ry au,         -0.5771 Debye
        Dipole field         -0.0006 Ry au, 

        Potential amp.        0.0552 Ry
        Total length         45.4072 bohr


     total cpu time spent up to now is      498.5 secs

     total energy              =   -1874.74570848 Ry
     estimated scf accuracy    <       1.18213422 Ry

     iteration #  3     ecut=    55.12 Ry     beta= 0.10
     Davidson diagonalization with overlap
     ethr =  7.04E-04,  avg # of iterations =  2.7

     negative rho (up, down):  1.100E-03 0.000E+00

     Adding external electric field

     Computed dipole along edir(3) : 
        Dipole                0.2600 Ry au,          0.6608 Debye
        Dipole field          0.0007 Ry au, 

        Potential amp.       -0.0632 Ry
        Total length         45.4072 bohr


     total cpu time spent up to now is      701.8 secs

     total energy              =   -1874.64723631 Ry
     estimated scf accuracy    <       8.51426343 Ry

     iteration #  4     ecut=    55.12 Ry     beta= 0.10
     Davidson diagonalization with overlap
     ethr =  7.04E-04,  avg # of iterations =  2.4

     negative rho (up, down):  1.111E-03 0.000E+00

     Adding external electric field

     Computed dipole along edir(3) : 
        Dipole                0.0611 Ry au,          0.1553 Debye
        Dipole field          0.0002 Ry au, 

        Potential amp.       -0.0149 Ry
        Total length         45.4072 bohr


     total cpu time spent up to now is      900.4 secs

     total energy              =   -1874.78117405 Ry
     estimated scf accuracy    <       5.06673208 Ry

     iteration #  5     ecut=    55.12 Ry     beta= 0.10
     Davidson diagonalization with overlap
     ethr =  7.04E-04,  avg # of iterations =  1.5

     negative rho (up, down):  1.127E-03 0.000E+00

     Adding external electric field

     Computed dipole along edir(3) : 
        Dipole                0.0281 Ry au,          0.0714 Debye
        Dipole field          0.0001 Ry au, 

        Potential amp.       -0.0068 Ry
        Total length         45.4072 bohr


     total cpu time spent up to now is     1081.2 secs

     total energy              =   -1874.83823376 Ry
     estimated scf accuracy    <       0.07631990 Ry

     iteration #  6     ecut=    55.12 Ry     beta= 0.10
     Davidson diagonalization with overlap
     c_bands:  1 eigenvalues not converged
     c_bands:  1 eigenvalues not converged
     c_bands:  1 eigenvalues not converged
     c_bands:  1 eigenvalues not converged
     c_bands:  1 eigenvalues not converged
     ethr =  4.54E-05,  avg # of iterations = 15.0

     negative rho (up, down):  1.175E-03 0.000E+00

     Adding external electric field

     Computed dipole along edir(3) : 
        Dipole                0.0388 Ry au,          0.0986 Debye
        Dipole field          0.0001 Ry au, 

        Potential amp.       -0.0094 Ry
        Total length         45.4072 bohr


     total cpu time spent up to now is     1329.5 secs

     total energy              =   -1874.83222802 Ry
     estimated scf accuracy    <       0.03455145 Ry

     iteration #  7     ecut=    55.12 Ry     beta= 0.10
     Davidson diagonalization with overlap
     c_bands:  1 eigenvalues not converged
     ethr =  2.06E-05,  avg # of iterations =  4.2

     negative rho (up, down):  1.189E-03 0.000E+00

     Adding external electric field

     Computed dipole along edir(3) : 
        Dipole                0.0327 Ry au,          0.0830 Debye
        Dipole field          0.0001 Ry au, 

        Potential amp.       -0.0079 Ry
        Total length         45.4072 bohr


     total cpu time spent up to now is     1549.1 secs

     total energy              =   -1874.83438402 Ry
     estimated scf accuracy    <       0.01635749 Ry

     iteration #  8     ecut=    55.12 Ry     beta= 0.10
     Davidson diagonalization with overlap
     ethr =  9.74E-06,  avg # of iterations =  1.5

     negative rho (up, down):  1.218E-03 0.000E+00

     Adding external electric field

     Computed dipole along edir(3) : 
        Dipole                0.0375 Ry au,          0.0954 Debye
        Dipole field          0.0001 Ry au, 

        Potential amp.       -0.0091 Ry
        Total length         45.4072 bohr


     total cpu time spent up to now is     1726.8 secs

     total energy              =   -1874.83480197 Ry
     estimated scf accuracy    <       0.00573740 Ry

     iteration #  9     ecut=    55.12 Ry     beta= 0.10
     Davidson diagonalization with overlap
     ethr =  3.42E-06,  avg # of iterations =  3.4

     negative rho (up, down):  1.223E-03 0.000E+00

     Adding external electric field

     Computed dipole along edir(3) : 
        Dipole                0.0372 Ry au,          0.0946 Debye
        Dipole field          0.0001 Ry au, 

        Potential amp.       -0.0091 Ry
        Total length         45.4072 bohr


     total cpu time spent up to now is     1928.9 secs

     total energy              =   -1874.83504328 Ry
     estimated scf accuracy    <       0.00137682 Ry

     iteration # 10     ecut=    55.12 Ry     beta= 0.10
     Davidson diagonalization with overlap
     c_bands:  1 eigenvalues not converged
     c_bands:  1 eigenvalues not converged
     ethr =  8.20E-07,  avg # of iterations =  3.6

     negative rho (up, down):  1.224E-03 0.000E+00

     Adding external electric field

     Computed dipole along edir(3) : 
        Dipole                0.0293 Ry au,          0.0744 Debye
        Dipole field          0.0001 Ry au, 

        Potential amp.       -0.0071 Ry
        Total length         45.4072 bohr


     total cpu time spent up to now is     2131.3 secs

     total energy              =   -1874.83505810 Ry
     estimated scf accuracy    <       0.00040361 Ry

     iteration # 11     ecut=    55.12 Ry     beta= 0.10
     Davidson diagonalization with overlap
     c_bands:  1 eigenvalues not converged
     ethr =  2.40E-07,  avg # of iterations =  5.0

     negative rho (up, down):  1.224E-03 0.000E+00

     Adding external electric field

     Computed dipole along edir(3) : 
        Dipole                0.0335 Ry au,          0.0851 Debye
        Dipole field          0.0001 Ry au, 

        Potential amp.       -0.0081 Ry
        Total length         45.4072 bohr


     total cpu time spent up to now is     2352.6 secs

     total energy              =   -1874.83511966 Ry
     estimated scf accuracy    <       0.00014532 Ry

     iteration # 12     ecut=    55.12 Ry     beta= 0.10
     Davidson diagonalization with overlap
     ethr =  8.65E-08,  avg # of iterations =  2.0

     negative rho (up, down):  1.220E-03 0.000E+00

     Adding external electric field

     Computed dipole along edir(3) : 
        Dipole                0.0338 Ry au,          0.0859 Debye
        Dipole field          0.0001 Ry au, 

        Potential amp.       -0.0082 Ry
        Total length         45.4072 bohr


     total cpu time spent up to now is     2578.8 secs

     total energy              =   -1874.83514382 Ry
     estimated scf accuracy    <       0.00010957 Ry

     iteration # 13     ecut=    55.12 Ry     beta= 0.10
     Davidson diagonalization with overlap
     ethr =  6.52E-08,  avg # of iterations =  1.1

     negative rho (up, down):  1.219E-03 0.000E+00

     Adding external electric field

     Computed dipole along edir(3) : 
        Dipole                0.0321 Ry au,          0.0816 Debye
        Dipole field          0.0001 Ry au, 

        Potential amp.       -0.0078 Ry
        Total length         45.4072 bohr


     total cpu time spent up to now is     2766.9 secs

     total energy              =   -1874.83514857 Ry
     estimated scf accuracy    <       0.00003867 Ry

     iteration # 14     ecut=    55.12 Ry     beta= 0.10
     Davidson diagonalization with overlap
     ethr =  2.30E-08,  avg # of iterations =  2.1

     negative rho (up, down):  1.216E-03 0.000E+00

     Adding external electric field

     Computed dipole along edir(3) : 
        Dipole                0.0333 Ry au,          0.0846 Debye
        Dipole field          0.0001 Ry au, 

        Potential amp.       -0.0081 Ry
        Total length         45.4072 bohr


     total cpu time spent up to now is     3002.9 secs

     total energy              =   -1874.83515274 Ry
     estimated scf accuracy    <       0.00002310 Ry

     iteration # 15     ecut=    55.12 Ry     beta= 0.10
     Davidson diagonalization with overlap
     ethr =  1.37E-08,  avg # of iterations =  2.0

     negative rho (up, down):  1.211E-03 0.000E+00

     Adding external electric field

     Computed dipole along edir(3) : 
        Dipole                0.0243 Ry au,          0.0618 Debye
        Dipole field          0.0001 Ry au, 

        Potential amp.       -0.0059 Ry
        Total length         45.4072 bohr


     total cpu time spent up to now is     3225.0 secs

     End of self-consistent calculation

          k = 0.0000 0.0000 0.0000 ( 32377 PWs)   bands (ev):

   -77.4061 -77.3791 -77.1785 -77.1514 -77.0257 -76.9983 -45.5358 -45.5048
   -45.4128 -45.2724 -45.1774 -45.1179 -45.0824 -45.0530 -45.0426 -45.0150
   -44.9785 -44.9174 -44.8879 -44.8819 -44.8741 -44.8453 -44.7781 -44.7488
    -5.5089  -4.8563  -4.7903  -4.7071  -4.6909  -4.6240  -4.5160  -4.4374
    -4.3857  -4.3064  -4.2818  -4.1411  -4.1401  -4.0981  -3.8527  -3.7224
    -3.6246  -3.5510  -3.4378  -3.3317  -3.1555  -3.0042  -2.9302  -2.8418
    -2.8380  -2.7208  -2.6298  -2.6117  -2.5675  -2.4413  -2.3745  -2.1834
    -1.9930  -1.9601  -1.8148  -1.7103  -1.5394  -1.5388  -1.2933  -1.2427
    -0.9268  -0.8759  -0.5967  -0.5672  -0.3783  -0.3629  -0.2672  -0.2187
    -0.1374  -0.0748   0.1618   0.2959   0.4076   0.6433   0.6785   0.6866
     0.7975   0.8102   0.8876   0.8998   0.9770   1.1074   1.7630   1.8109
     2.3165   2.4722   2.5625   2.7889   3.2077   3.8765   3.8993   4.5227
     4.5729   4.9526   5.2955   5.7041   6.1889

          k = 0.0000 0.0163 0.0000 ( 32381 PWs)   bands (ev):

   -77.4061 -77.3791 -77.1785 -77.1514 -77.0257 -76.9983 -45.5358 -45.5048
   -45.4128 -45.2724 -45.1775 -45.1179 -45.0825 -45.0530 -45.0426 -45.0150
   -44.9785 -44.9174 -44.8880 -44.8819 -44.8742 -44.8453 -44.7781 -44.7488
    -5.4665  -4.8395  -4.7802  -4.6870  -4.6741  -4.6056  -4.5031  -4.4262
    -4.3669  -4.2862  -4.2541  -4.1232  -4.1090  -4.0801  -3.8533  -3.6965
    -3.6100  -3.5328  -3.4277  -3.3306  -3.1397  -3.0122  -2.9235  -2.8465
    -2.8337  -2.7374  -2.6214  -2.6181  -2.5598  -2.4467  -2.3759  -2.1834
    -2.0148  -1.9605  -1.8249  -1.7175  -1.6110  -1.5724  -1.3351  -1.2053
    -0.9508  -0.8588  -0.6872  -0.6667  -0.4683  -0.3474  -0.2784  -0.2535
    -0.1392  -0.0866   0.2113   0.2492   0.3261   0.6344   0.6552   0.6730
     0.7628   0.7721   0.7963   0.8747   0.9673   1.1064   1.7527   1.9382
     1.9995   2.3579   2.4932   2.5088   3.7656   3.7960   3.9341   4.6719
     4.7427   4.9913   5.3411   5.7425   6.2975

          k = 0.0000 0.0325 0.0000 ( 32469 PWs)   bands (ev):

   -77.4061 -77.3791 -77.1785 -77.1514 -77.0257 -76.9983 -45.5359 -45.5048
   -45.4129 -45.2725 -45.1775 -45.1179 -45.0826 -45.0531 -45.0426 -45.0150
   -44.9785 -44.9174 -44.8880 -44.8819 -44.8742 -44.8453 -44.7782 -44.7488
    -5.3457  -4.7938  -4.7497  -4.6333  -4.6286  -4.5578  -4.4631  -4.3907
    -4.3137  -4.2281  -4.1771  -4.0742  -4.0244  -4.0165  -3.8559  -3.6260
    -3.5669  -3.4746  -3.3959  -3.3273  -3.0946  -3.0435  -2.9061  -2.8586
    -2.8106  -2.7814  -2.6378  -2.5983  -2.5379  -2.4645  -2.3801  -2.1830
    -2.0755  -1.9715  -1.8546  -1.7972  -1.7061  -1.6671  -1.4372  -1.1713
    -1.0191  -0.8778  -0.8691  -0.8423  -0.6201  -0.4660  -0.3359  -0.3337
    -0.1497  -0.1191   0.0578   0.1390   0.2325   0.5327   0.5942   0.6218
     0.6689   0.7617   0.8321   0.8404   0.8823   1.1040   1.1960   1.7693
     1.7903   2.3376   2.3456   2.8899   3.6922   4.0147   4.0205   4.9300
     5.1056   5.1847   5.4761   5.8579   6.5892

          k = 0.0000 0.0488 0.0000 ( 32491 PWs)   bands (ev):

   -77.4061 -77.3791 -77.1785 -77.1514 -77.0257 -76.9983 -45.5359 -45.5049
   -45.4129 -45.2725 -45.1775 -45.1179 -45.0827 -45.0531 -45.0426 -45.0151
   -44.9785 -44.9175 -44.8880 -44.8819 -44.8743 -44.8454 -44.7782 -44.7489
    -5.1702  -4.7320  -4.6976  -4.5830  -4.5382  -4.5031  -4.3953  -4.3255
    -4.2370  -4.1406  -4.0755  -4.0068  -3.9197  -3.8737  -3.8614  -3.5333
    -3.5018  -3.3715  -3.3368  -3.3215  -3.0956  -3.0316  -2.8839  -2.8556
    -2.8294  -2.7765  -2.6689  -2.5661  -2.5059  -2.4951  -2.3864  -2.1880
    -2.1824  -2.0041  -1.9956  -1.9021  -1.8001  -1.7294  -1.5628  -1.2583
    -1.1377  -1.1235  -1.0077  -0.9015  -0.7028  -0.6862  -0.5720  -0.3694
    -0.1810  -0.1718  -0.1646  -0.0841  -0.0069   0.4402   0.5305   0.5337
     0.6064   0.6520   0.7245   0.8015   0.8054   0.9235   1.1011   1.3860
     1.7911   2.2095   2.7905   3.2705   3.6250   3.7526   4.1258   5.2505
     5.2855   5.5968   5.6976   6.0402   6.4678

          k = 0.0000 0.0650 0.0000 ( 32455 PWs)   bands (ev):

   -77.4060 -77.3791 -77.1785 -77.1514 -77.0257 -76.9983 -45.5360 -45.5049
   -45.4130 -45.2725 -45.1776 -45.1179 -45.0829 -45.0531 -45.0427 -45.0151
   -44.9785 -44.9175 -44.8881 -44.8819 -44.8744 -44.8454 -44.7782 -44.7489
    -4.9958  -4.6704  -4.6311  -4.5200  -4.4600  -4.4325  -4.3001  -4.2345
    -4.1576  -4.0411  -3.9970  -3.9204  -3.8686  -3.7591  -3.7258  -3.4555
    -3.4358  -3.3137  -3.2634  -3.2440  -3.1000  -2.9922  -2.8632  -2.8398
    -2.8186  -2.7393  -2.6962  -2.5386  -2.5337  -2.4707  -2.3935  -2.3773
    -2.2204  -2.1812  -2.0731  -1.9642  -1.9401  -1.7525  -1.6656  -1.4532
    -1.3533  -1.3288  -1.0939  -0.9985  -0.8455  -0.8305  -0.7732  -0.4175
    -0.4061  -0.3713  -0.3416  -0.2116  -0.1670   0.1837   0.3865   0.4643
     0.5128   0.6082   0.6957   0.7422   0.7559   0.7819   1.0982   1.5483
     1.8046   2.1204   3.1120   3.5153   3.5650   3.5859   4.2236   5.4979
     5.5260   5.8030   5.8793   6.0137   6.3380

          k = 0.0000 0.0813 0.0000 ( 32487 PWs)   bands (ev):

   -77.4061 -77.3791 -77.1785 -77.1514 -77.0257 -76.9983 -45.5360 -45.5049
   -45.4130 -45.2726 -45.1776 -45.1179 -45.0830 -45.0531 -45.0427 -45.0151
   -44.9785 -44.9175 -44.8881 -44.8820 -44.8745 -44.8455 -44.7782 -44.7489
    -4.8887  -4.6245  -4.5865  -4.4493  -4.4301  -4.3414  -4.1654  -4.1441
    -4.1034  -3.9578  -3.9565  -3.8731  -3.8280  -3.6485  -3.5766  -3.4331
    -3.4111  -3.3060  -3.1820  -3.1736  -3.0010  -2.9612  -2.8488  -2.8237
    -2.7523  -2.7103  -2.6714  -2.6643  -2.5220  -2.5106  -2.4410  -2.4276
    -2.4007  -2.1802  -2.1662  -2.0769  -2.0273  -1.7902  -1.7042  -1.6440
    -1.5151  -1.5021  -1.2054  -1.0571  -1.0123  -0.9066  -0.8924  -0.7191
    -0.5620  -0.4277  -0.4237  -0.2473  -0.1770  -0.1295   0.3264   0.4148
     0.5550   0.5659   0.6620   0.6722   0.6842   0.7801   1.0958   1.8114
     1.8669   2.0746   2.7992   3.5658   3.7410   3.9487   4.2934   5.1870
     5.6926   5.8575   5.9073   6.4074   6.6622

          k = 0.0000-0.0976 0.0000 ( 32478 PWs)   bands (ev):

   -77.4060 -77.3791 -77.1785 -77.1514 -77.0257 -76.9983 -45.5360 -45.5049
   -45.4130 -45.2726 -45.1776 -45.1179 -45.0830 -45.0531 -45.0427 -45.0151
   -44.9785 -44.9175 -44.8881 -44.8820 -44.8745 -44.8455 -44.7782 -44.7489
    -4.8567  -4.6074  -4.5736  -4.4296  -4.4108  -4.3037  -4.1189  -4.0870
    -4.0584  -3.9456  -3.9204  -3.8751  -3.7837  -3.6427  -3.4769  -3.4375
    -3.4151  -3.3025  -3.1937  -3.0736  -2.9875  -2.9144  -2.8869  -2.8437
    -2.7193  -2.6995  -2.6993  -2.6414  -2.5392  -2.5195  -2.5024  -2.4271
    -2.4057  -2.2262  -2.1797  -2.1418  -2.0564  -1.8232  -1.7304  -1.7063
    -1.5725  -1.5666  -1.2509  -1.0766  -1.0646  -0.9765  -0.9007  -0.8563
    -0.6327  -0.4343  -0.4208  -0.2606  -0.2477  -0.1790   0.3022   0.3964
     0.5492   0.5933   0.6372   0.6442   0.6631   0.7811   1.0949   1.8135
     2.0609   2.0906   2.5500   3.5596   3.7981   4.3189   4.3679   4.7478
     5.7454   5.8660   6.2356   6.3371   6.8687

          k = 0.0151 0.0081 0.0000 ( 32376 PWs)   bands (ev):

   -77.4056 -77.3795 -77.1781 -77.1518 -77.0252 -76.9988 -45.5353 -45.5053
   -45.4079 -45.2675 -45.1725 -45.1230 -45.0819 -45.0535 -45.0421 -45.0155
   -44.9836 -44.9169 -44.8885 -44.8870 -44.8736 -44.8458 -44.7776 -44.7493
    -5.4551  -4.8321  -4.7576  -4.6827  -4.6474  -4.5843  -4.4902  -4.4233
    -4.3632  -4.2899  -4.2608  -4.1328  -4.1090  -4.0845  -3.8342  -3.7053
    -3.6114  -3.5416  -3.4344  -3.3170  -3.1535  -3.0096  -2.9750  -2.8794
    -2.8053  -2.7296  -2.6557  -2.6279  -2.5922  -2.4305  -2.3899  -2.2049
    -1.9609  -1.9163  -1.8301  -1.7401  -1.5561  -1.5347  -1.3010  -1.2330
    -1.0026  -0.8748  -0.7297  -0.5437  -0.3973  -0.3962  -0.2469  -0.2141
    -0.1536  -0.1339   0.1751   0.2491   0.3678   0.5741   0.6050   0.6605
     0.7395   0.7800   0.8261   0.8896   0.9439   1.0721   1.6885   1.9747
     2.0852   2.4378   2.4573   2.7448   3.3865   3.5363   3.7327   4.7517
     4.8690   4.9946   5.3453   5.7472   6.2708

          k = 0.0151 0.0244 0.0000 ( 32410 PWs)   bands (ev):

   -77.4056 -77.3795 -77.1781 -77.1518 -77.0252 -76.9988 -45.5353 -45.5054
   -45.4079 -45.2675 -45.1725 -45.1230 -45.0820 -45.0536 -45.0421 -45.0155
   -44.9836 -44.9169 -44.8885 -44.8871 -44.8737 -44.8458 -44.7777 -44.7493
    -5.3720  -4.8000  -4.7379  -4.6438  -4.6159  -4.5486  -4.4665  -4.4009
    -4.3269  -4.2501  -4.2087  -4.1002  -4.0488  -4.0479  -3.8350  -3.6566
    -3.5840  -3.5044  -3.4146  -3.3148  -3.1229  -3.0348  -2.9612  -2.8679
    -2.8121  -2.7613  -2.6411  -2.6401  -2.5790  -2.4390  -2.3921  -2.2052
    -2.0028  -1.9203  -1.8500  -1.7534  -1.6807  -1.5973  -1.3766  -1.1864
    -1.0488  -0.8715  -0.8476  -0.6946  -0.5358  -0.4169  -0.3511  -0.2224
    -0.1714  -0.1445   0.1344   0.2178   0.2562   0.5152   0.5623   0.5890
     0.6612   0.7133   0.7562   0.8878   0.9327   1.0747   1.6905   1.7001
     1.9589   2.2244   2.2569   2.8466   3.2120   4.0594   4.1356   4.8063
     4.9957   5.0717   5.4364   5.8238   6.3877

          k = 0.0151 0.0407 0.0000 ( 32437 PWs)   bands (ev):

   -77.4056 -77.3795 -77.1781 -77.1518 -77.0252 -76.9988 -45.5354 -45.5054
   -45.4079 -45.2675 -45.1726 -45.1230 -45.0821 -45.0536 -45.0421 -45.0155
   -44.9836 -44.9169 -44.8885 -44.8871 -44.8738 -44.8458 -44.7777 -44.7494
    -5.2192  -4.7446  -4.6979  -4.5697  -4.5691  -4.4911  -4.4179  -4.3515
    -4.2607  -4.1770  -4.1175  -4.0444  -3.9695  -3.9322  -3.8376  -3.5736
    -3.5312  -3.4249  -3.3715  -3.3101  -3.0839  -3.0675  -2.9426  -2.8488
    -2.8110  -2.8085  -2.6649  -2.6171  -2.5571  -2.4547  -2.3975  -2.2058
    -2.0896  -1.9406  -1.9043  -1.8665  -1.7562  -1.7090  -1.4867  -1.2168
    -1.1148  -1.0711  -0.8941  -0.8523  -0.6639  -0.5785  -0.4995  -0.3232
    -0.2136  -0.1673  -0.0560   0.0150   0.1405   0.4383   0.4574   0.5459
     0.5616   0.6784   0.7243   0.8121   0.9954   1.0673   1.1119   1.6797
     1.7082   1.8785   2.6403   2.9911   3.4572   3.9907   4.4655   4.8983
     5.2204   5.2968   5.6148   5.9757   6.7229

          k = 0.0151 0.0569 0.0000 ( 32498 PWs)   bands (ev):

   -77.4056 -77.3795 -77.1781 -77.1519 -77.0252 -76.9988 -45.5354 -45.5054
   -45.4080 -45.2676 -45.1726 -45.1230 -45.0823 -45.0536 -45.0422 -45.0155
   -44.9836 -44.9170 -44.8886 -44.8871 -44.8739 -44.8459 -44.7777 -44.7494
    -5.0341  -4.6810  -4.6360  -4.5195  -4.4688  -4.4407  -4.3393  -4.2716
    -4.1800  -4.0847  -4.0233  -3.9730  -3.8475  -3.8323  -3.7848  -3.4856
    -3.4656  -3.3088  -3.3022  -3.3011  -3.1293  -3.0117  -2.9266  -2.8385
    -2.8253  -2.7893  -2.6954  -2.5944  -2.5374  -2.4713  -2.4074  -2.2468
    -2.2042  -2.1052  -1.9921  -1.9393  -1.8394  -1.7812  -1.5875  -1.3676
    -1.3008  -1.2199  -1.0363  -0.9309  -0.8042  -0.7336  -0.7243  -0.3978
    -0.3195  -0.2545  -0.2537  -0.1563  -0.1351   0.2530   0.4070   0.5003
     0.5239   0.6318   0.6816   0.7376   0.7503   0.9996   1.0819   1.5021
     1.7224   1.8278   2.9754   3.0870   3.6249   3.8332   4.6750   4.9688
     5.4275   5.7876   5.8797   6.1347   6.2963

          k = 0.0151 0.0732 0.0000 ( 32483 PWs)   bands (ev):

   -77.4056 -77.3795 -77.1781 -77.1519 -77.0252 -76.9988 -45.5355 -45.5054
   -45.4080 -45.2676 -45.1727 -45.1230 -45.0824 -45.0536 -45.0422 -45.0156
   -44.9836 -44.9170 -44.8886 -44.8871 -44.8740 -44.8459 -44.7777 -44.7494
    -4.8872  -4.6252  -4.5692  -4.4596  -4.4070  -4.3652  -4.2195  -4.1793
    -4.1109  -4.0047  -3.9557  -3.8880  -3.8396  -3.6712  -3.6644  -3.4345
    -3.4191  -3.2944  -3.2341  -3.2005  -3.0739  -2.9897  -2.9231  -2.8030
    -2.7904  -2.7642  -2.7012  -2.5886  -2.5509  -2.4979  -2.4488  -2.3980
    -2.3266  -2.2059  -2.0770  -2.0098  -1.9700  -1.8107  -1.6365  -1.5593
    -1.4970  -1.3807  -1.1663  -1.0134  -1.0043  -0.8524  -0.8175  -0.5760
    -0.5247  -0.3975  -0.3789  -0.2489  -0.1758  -0.0057   0.3491   0.4551
     0.5196   0.5348   0.6608   0.6933   0.7131   0.8153   1.0622   1.7293
     1.7666   1.8024   2.9714   3.0474   3.7418   4.0662   4.7988   5.0270
     5.4864   5.8162   6.2373   6.3202   6.5258

          k = 0.0151 0.0894 0.0000 ( 32482 PWs)   bands (ev):

   -77.4056 -77.3795 -77.1781 -77.1519 -77.0252 -76.9988 -45.5355 -45.5054
   -45.4081 -45.2676 -45.1727 -45.1230 -45.0825 -45.0536 -45.0422 -45.0156
   -44.9836 -44.9170 -44.8886 -44.8871 -44.8740 -44.8460 -44.7777 -44.7494
    -4.8203  -4.5922  -4.5366  -4.4132  -4.3875  -4.2946  -4.1222  -4.0777
    -4.0647  -3.9699  -3.9033  -3.8578  -3.7974  -3.6427  -3.5046  -3.4396
    -3.4198  -3.2884  -3.1899  -3.1268  -2.9868  -2.9398  -2.9307  -2.8432
    -2.7779  -2.7412  -2.6574  -2.6412  -2.5749  -2.5190  -2.4886  -2.4570
    -2.4174  -2.2085  -2.1617  -2.0675  -2.0659  -1.8382  -1.7098  -1.6413
    -1.6251  -1.4774  -1.2608  -1.1329  -1.0253  -0.9134  -0.8802  -0.7985
    -0.6459  -0.4312  -0.4040  -0.2739  -0.1878  -0.1797   0.3060   0.4041
     0.4999   0.5692   0.6388   0.6476   0.7043   0.7406   1.0599   1.7316
     1.7934   2.0752   2.6828   2.9725   4.1662   4.2561   4.8473   4.9554
     5.0688   6.1125   6.5414   6.6453   6.6782

          k = 0.0151-0.0894 0.0000 ( 32482 PWs)   bands (ev):

   -77.4056 -77.3795 -77.1781 -77.1519 -77.0252 -76.9988 -45.5355 -45.5054
   -45.4081 -45.2676 -45.1727 -45.1230 -45.0825 -45.0536 -45.0422 -45.0156
   -44.9836 -44.9170 -44.8886 -44.8871 -44.8740 -44.8460 -44.7777 -44.7494
    -4.8203  -4.5922  -4.5366  -4.4132  -4.3875  -4.2946  -4.1222  -4.0777
    -4.0647  -3.9699  -3.9033  -3.8578  -3.7974  -3.6427  -3.5046  -3.4396
    -3.4198  -3.2885  -3.1899  -3.1268  -2.9868  -2.9398  -2.9307  -2.8432
    -2.7779  -2.7412  -2.6574  -2.6411  -2.5749  -2.5190  -2.4886  -2.4570
    -2.4174  -2.2085  -2.1617  -2.0675  -2.0659  -1.8382  -1.7098  -1.6413
    -1.6251  -1.4774  -1.2608  -1.1329  -1.0252  -0.9134  -0.8802  -0.7985
    -0.6459  -0.4312  -0.4040  -0.2739  -0.1878  -0.1797   0.3060   0.4041
     0.4999   0.5692   0.6387   0.6476   0.7043   0.7406   1.0599   1.7316
     1.7934   2.0753   2.6828   2.9725   4.1662   4.2561   4.8474   4.9554
     5.0688   6.1125   6.5414   6.6454   6.6782

          k = 0.0151-0.0732 0.0000 ( 32483 PWs)   bands (ev):

   -77.4056 -77.3795 -77.1781 -77.1519 -77.0252 -76.9988 -45.5355 -45.5054
   -45.4080 -45.2676 -45.1727 -45.1230 -45.0824 -45.0536 -45.0422 -45.0156
   -44.9836 -44.9170 -44.8886 -44.8871 -44.8740 -44.8459 -44.7777 -44.7494
    -4.8872  -4.6252  -4.5692  -4.4596  -4.4070  -4.3652  -4.2195  -4.1793
    -4.1109  -4.0046  -3.9557  -3.8879  -3.8396  -3.6711  -3.6644  -3.4345
    -3.4191  -3.2944  -3.2341  -3.2005  -3.0739  -2.9898  -2.9231  -2.8030
    -2.7904  -2.7642  -2.7012  -2.5886  -2.5508  -2.4981  -2.4488  -2.3981
    -2.3266  -2.2059  -2.0770  -2.0098  -1.9700  -1.8107  -1.6365  -1.5593
    -1.4969  -1.3807  -1.1663  -1.0133  -1.0042  -0.8523  -0.8175  -0.5760
    -0.5247  -0.3975  -0.3789  -0.2488  -0.1758  -0.0057   0.3491   0.4551
     0.5196   0.5348   0.6608   0.6933   0.7132   0.8153   1.0622   1.7293
     1.7666   1.8024   2.9714   3.0474   3.7419   4.0661   4.7988   5.0270
     5.4864   5.8162   6.2374   6.3205   6.5258

          k = 0.0151-0.0569 0.0000 ( 32498 PWs)   bands (ev):

   -77.4056 -77.3795 -77.1781 -77.1519 -77.0252 -76.9988 -45.5354 -45.5054
   -45.4080 -45.2676 -45.1726 -45.1230 -45.0823 -45.0536 -45.0422 -45.0155
   -44.9836 -44.9170 -44.8886 -44.8871 -44.8739 -44.8459 -44.7777 -44.7494
    -5.0341  -4.6810  -4.6360  -4.5195  -4.4688  -4.4407  -4.3393  -4.2716
    -4.1800  -4.0847  -4.0234  -3.9730  -3.8475  -3.8323  -3.7848  -3.4856
    -3.4656  -3.3088  -3.3022  -3.3011  -3.1293  -3.0118  -2.9266  -2.8385
    -2.8253  -2.7893  -2.6954  -2.5944  -2.5373  -2.4713  -2.4074  -2.2468
    -2.2042  -2.1052  -1.9921  -1.9393  -1.8394  -1.7813  -1.5875  -1.3676
    -1.3007  -1.2199  -1.0364  -0.9309  -0.8042  -0.7336  -0.7243  -0.3978
    -0.3196  -0.2545  -0.2536  -0.1563  -0.1350   0.2531   0.4070   0.5003
     0.5239   0.6318   0.6816   0.7376   0.7503   0.9996   1.0819   1.5021
     1.7224   1.8278   2.9753   3.0870   3.6248   3.8331   4.6751   4.9688
     5.4276   5.7879   5.8798   6.1346   6.2962

          k = 0.0151-0.0407 0.0000 ( 32437 PWs)   bands (ev):

   -77.4056 -77.3795 -77.1781 -77.1518 -77.0252 -76.9988 -45.5354 -45.5054
   -45.4079 -45.2675 -45.1726 -45.1230 -45.0821 -45.0536 -45.0421 -45.0155
   -44.9836 -44.9169 -44.8885 -44.8871 -44.8738 -44.8458 -44.7777 -44.7494
    -5.2192  -4.7446  -4.6979  -4.5696  -4.5691  -4.4911  -4.4179  -4.3515
    -4.2607  -4.1770  -4.1175  -4.0444  -3.9695  -3.9322  -3.8376  -3.5736
    -3.5312  -3.4249  -3.3715  -3.3101  -3.0839  -3.0675  -2.9426  -2.8488
    -2.8110  -2.8085  -2.6649  -2.6171  -2.5571  -2.4547  -2.3975  -2.2058
    -2.0896  -1.9406  -1.9043  -1.8665  -1.7562  -1.7090  -1.4867  -1.2168
    -1.1148  -1.0710  -0.8942  -0.8523  -0.6639  -0.5785  -0.4994  -0.3232
    -0.2136  -0.1673  -0.0561   0.0150   0.1405   0.4383   0.4574   0.5459
     0.5616   0.6784   0.7243   0.8121   0.9954   1.0673   1.1120   1.6796
     1.7082   1.8786   2.6403   2.9910   3.4570   3.9907   4.4655   4.8983
     5.2204   5.2972   5.6147   5.9757   6.7230

          k = 0.0151-0.0244 0.0000 ( 32410 PWs)   bands (ev):

   -77.4056 -77.3795 -77.1781 -77.1518 -77.0252 -76.9988 -45.5353 -45.5054
   -45.4079 -45.2675 -45.1725 -45.1230 -45.0820 -45.0536 -45.0421 -45.0155
   -44.9836 -44.9169 -44.8885 -44.8871 -44.8737 -44.8458 -44.7777 -44.7493
    -5.3720  -4.8000  -4.7379  -4.6438  -4.6159  -4.5486  -4.4665  -4.4009
    -4.3269  -4.2501  -4.2087  -4.1002  -4.0488  -4.0479  -3.8350  -3.6566
    -3.5840  -3.5044  -3.4146  -3.3148  -3.1229  -3.0348  -2.9612  -2.8679
    -2.8121  -2.7613  -2.6411  -2.6401  -2.5790  -2.4390  -2.3921  -2.2052
    -2.0028  -1.9203  -1.8500  -1.7534  -1.6807  -1.5973  -1.3766  -1.1864
    -1.0488  -0.8714  -0.8476  -0.6947  -0.5358  -0.4169  -0.3511  -0.2225
    -0.1714  -0.1444   0.1344   0.2178   0.2562   0.5152   0.5623   0.5890
     0.6612   0.7133   0.7562   0.8878   0.9327   1.0747   1.6906   1.7001
     1.9590   2.2244   2.2570   2.8464   3.2119   4.0594   4.1357   4.8065
     4.9958   5.0717   5.4364   5.8238   6.3877

          k = 0.0151-0.0081 0.0000 ( 32376 PWs)   bands (ev):

   -77.4056 -77.3795 -77.1781 -77.1518 -77.0252 -76.9988 -45.5353 -45.5053
   -45.4079 -45.2675 -45.1725 -45.1230 -45.0819 -45.0535 -45.0421 -45.0155
   -44.9836 -44.9169 -44.8885 -44.8870 -44.8736 -44.8458 -44.7776 -44.7493
    -5.4551  -4.8321  -4.7576  -4.6827  -4.6474  -4.5843  -4.4902  -4.4233
    -4.3632  -4.2899  -4.2608  -4.1328  -4.1090  -4.0845  -3.8342  -3.7053
    -3.6114  -3.5416  -3.4344  -3.3170  -3.1535  -3.0096  -2.9750  -2.8794
    -2.8054  -2.7296  -2.6557  -2.6279  -2.5922  -2.4305  -2.3899  -2.2049
    -1.9609  -1.9163  -1.8301  -1.7401  -1.5561  -1.5347  -1.3010  -1.2330
    -1.0026  -0.8748  -0.7296  -0.5437  -0.3973  -0.3962  -0.2469  -0.2141
    -0.1536  -0.1339   0.1751   0.2491   0.3678   0.5741   0.6050   0.6605
     0.7395   0.7800   0.8261   0.8896   0.9439   1.0721   1.6885   1.9747
     2.0854   2.4377   2.4573   2.7447   3.3864   3.5363   3.7329   4.7518
     4.8689   4.9946   5.3453   5.7474   6.2709

          k = 0.0303 0.0163 0.0000 ( 32386 PWs)   bands (ev):

   -77.4043 -77.3809 -77.1767 -77.1532 -77.0239 -77.0002 -45.5338 -45.5069
   -45.3933 -45.2530 -45.1580 -45.1380 -45.0805 -45.0550 -45.0407 -45.0169
   -44.9985 -44.9154 -44.9020 -44.8899 -44.8722 -44.8472 -44.7762 -44.7508
    -5.2973  -4.7611  -4.6642  -4.6116  -4.5292  -4.4735  -4.4094  -4.3729
    -4.2994  -4.2453  -4.2022  -4.1078  -4.0418  -4.0224  -3.7805  -3.6571
    -3.5751  -3.5125  -3.4286  -3.2760  -3.1461  -3.1025  -2.9949  -2.9602
    -2.7800  -2.7573  -2.7199  -2.6750  -2.6609  -2.4954  -2.3345  -2.2639
    -1.8766  -1.8696  -1.8495  -1.7877  -1.5927  -1.5152  -1.3232  -1.2439
    -1.1929  -0.9552  -0.8930  -0.5763  -0.4504  -0.4385  -0.3092  -0.3071
    -0.1664  -0.1220   0.0942   0.1829   0.2478   0.3877   0.3944   0.5504
     0.5853   0.6851   0.7276   0.7966   0.9612   1.0865   1.4089   1.4920
     2.3360   2.3652   2.4081   2.6119   2.8988   3.5333   4.1060   4.6838
     5.1200   5.2024   5.4947   5.8752   6.3970

          k = 0.0303 0.0325 0.0000 ( 32421 PWs)   bands (ev):

   -77.4043 -77.3809 -77.1767 -77.1532 -77.0239 -77.0002 -45.5338 -45.5069
   -45.3934 -45.2531 -45.1580 -45.1380 -45.0806 -45.0551 -45.0408 -45.0169
   -44.9985 -44.9155 -44.9020 -44.8900 -44.8723 -44.8473 -44.7762 -44.7508
    -5.1775  -4.7172  -4.6379  -4.5574  -4.4807  -4.4295  -4.3751  -4.3453
    -4.2499  -4.1904  -4.1350  -4.0672  -3.9856  -3.9423  -3.7804  -3.5938
    -3.5425  -3.4571  -3.4015  -3.2719  -3.1312  -3.1050  -2.9958  -2.9420
    -2.7991  -2.7893  -2.7023  -2.6903  -2.6450  -2.5008  -2.3367  -2.2666
    -1.9410  -1.9068  -1.8695  -1.7978  -1.7530  -1.5904  -1.4132  -1.3140
    -1.1674  -1.0813  -0.8597  -0.7489  -0.5751  -0.5471  -0.4443  -0.3307
    -0.2208  -0.1724  -0.0130   0.0729   0.1783   0.2897   0.3415   0.4607
     0.5514   0.5593   0.6979   0.7508   0.9611   1.1961   1.2706   1.5213
     1.6475   2.3127   2.3342   2.6654   3.1375   4.1244   4.3220   4.5658
     5.2347   5.4310   5.6314   5.9910   6.6798

          k = 0.0303 0.0488 0.0000 ( 32464 PWs)   bands (ev):

   -77.4043 -77.3809 -77.1767 -77.1532 -77.0239 -77.0002 -45.5339 -45.5070
   -45.3934 -45.2531 -45.1580 -45.1380 -45.0807 -45.0551 -45.0408 -45.0169
   -44.9985 -44.9155 -44.9021 -44.8900 -44.8724 -44.8473 -44.7762 -44.7508
    -5.0006  -4.6564  -4.5937  -4.4714  -4.4317  -4.3587  -4.3344  -4.2833
    -4.1770  -4.1152  -4.0438  -4.0089  -3.8863  -3.8216  -3.7810  -3.5116
    -3.4919  -3.3646  -3.3515  -3.2652  -3.1795  -3.0501  -2.9888  -2.9252
    -2.8416  -2.7864  -2.7145  -2.6885  -2.6246  -2.5086  -2.3436  -2.2704
    -2.0777  -2.0043  -1.9230  -1.8890  -1.8361  -1.6951  -1.4864  -1.4243
    -1.2618  -1.1968  -0.9321  -0.8656  -0.7704  -0.6827  -0.6460  -0.3769
    -0.3549  -0.2035  -0.1814  -0.1172  -0.0182   0.1680   0.3836   0.3945
     0.4879   0.5430   0.6585   0.7128   0.9423   1.1101   1.2315   1.3420
     1.5492   1.7739   2.2382   3.0767   3.8798   3.9906   4.3010   4.8969
     5.4147   5.6758   5.8529   6.1753   6.6348

          k = 0.0303 0.0650 0.0000 ( 32453 PWs)   bands (ev):

   -77.4043 -77.3809 -77.1767 -77.1532 -77.0239 -77.0002 -45.5339 -45.5070
   -45.3935 -45.2531 -45.1581 -45.1380 -45.0809 -45.0551 -45.0408 -45.0169
   -44.9985 -44.9155 -44.9021 -44.8900 -44.8725 -44.8474 -44.7762 -44.7508
    -4.8208  -4.5944  -4.5271  -4.3972  -4.3661  -4.3074  -4.2436  -4.1970
    -4.1031  -4.0452  -3.9557  -3.9323  -3.7889  -3.7376  -3.7020  -3.4439
    -3.4433  -3.2872  -3.2594  -3.2554  -3.1920  -3.0181  -2.9867  -2.9161
    -2.8350  -2.7652  -2.7303  -2.6944  -2.6046  -2.5197  -2.3678  -2.2924
    -2.2551  -2.2100  -2.0167  -1.9284  -1.9100  -1.8084  -1.5432  -1.5073
    -1.4398  -1.3253  -1.1058  -1.0303  -0.9140  -0.7941  -0.7508  -0.5035
    -0.4834  -0.3306  -0.2967  -0.2065  -0.1763   0.0270   0.3542   0.4107
     0.4643   0.5347   0.6091   0.6719   0.7616   0.9773   1.1382   1.2255
     1.5685   1.7844   2.2046   3.3917   3.6832   4.2080   4.5846   5.3342
     5.6336   6.0374   6.0613   6.1679   6.4712

          k = 0.0303 0.0813 0.0000 ( 32465 PWs)   bands (ev):

   -77.4042 -77.3809 -77.1767 -77.1532 -77.0239 -77.0002 -45.5340 -45.5070
   -45.3935 -45.2532 -45.1581 -45.1380 -45.0810 -45.0551 -45.0408 -45.0169
   -44.9985 -44.9156 -44.9021 -44.8901 -44.8726 -44.8474 -44.7763 -44.7508
    -4.7131  -4.5476  -4.4514  -4.3826  -4.2756  -4.2698  -4.1315  -4.0789
    -4.0601  -4.0006  -3.8871  -3.8508  -3.7817  -3.6458  -3.5884  -3.4409
    -3.4219  -3.2471  -3.2178  -3.2063  -3.1181  -2.9939  -2.9916  -2.9184
    -2.7927  -2.7514  -2.7081  -2.7036  -2.6469  -2.5375  -2.4622  -2.4006
    -2.3467  -2.2718  -2.1082  -2.0024  -1.9622  -1.9064  -1.6501  -1.5865
    -1.4928  -1.4487  -1.2756  -1.1949  -0.9435  -0.8464  -0.8132  -0.6519
    -0.6491  -0.4191  -0.3392  -0.2671  -0.1818  -0.1040   0.3084   0.3907
     0.4838   0.4974   0.5785   0.6278   0.6550   0.8916   0.9747   1.2290
     1.5794   2.0810   2.1969   3.0079   4.1385   4.1831   4.9081   5.3533
     5.7499   6.0343   6.5203   6.5616   6.7216

          k = 0.0303 0.0976 0.0000 ( 32442 PWs)   bands (ev):

   -77.4042 -77.3809 -77.1767 -77.1532 -77.0239 -77.0002 -45.5340 -45.5070
   -45.3935 -45.2532 -45.1581 -45.1380 -45.0810 -45.0551 -45.0408 -45.0170
   -44.9985 -44.9156 -44.9021 -44.8901 -44.8726 -44.8474 -44.7763 -44.7509
    -4.6830  -4.5300  -4.4146  -4.3852  -4.2633  -4.2274  -4.0970  -4.0512
    -3.9857  -3.9759  -3.8615  -3.8023  -3.7861  -3.6503  -3.5006  -3.4513
    -3.4347  -3.2446  -3.2156  -3.1634  -3.0914  -2.9720  -2.9583  -2.9164
    -2.8346  -2.7699  -2.7149  -2.6844  -2.6760  -2.5226  -2.4785  -2.4750
    -2.3545  -2.2741  -2.1505  -2.0614  -1.9759  -1.9421  -1.7117  -1.6362
    -1.4949  -1.4818  -1.3471  -1.2451  -0.9423  -0.8568  -0.8344  -0.7423
    -0.7104  -0.4470  -0.3492  -0.2586  -0.1822  -0.1726   0.2885   0.3720
     0.4493   0.5246   0.5771   0.6000   0.6325   0.8190   0.9718   1.2313
     1.5830   2.1961   2.3089   2.7342   4.1725   4.5621   4.9082   4.9792
     5.9200   6.3644   6.4653   6.6726   7.1309

          k = 0.0303-0.0813 0.0000 ( 32465 PWs)   bands (ev):

   -77.4042 -77.3809 -77.1767 -77.1532 -77.0239 -77.0002 -45.5340 -45.5070
   -45.3935 -45.2532 -45.1581 -45.1380 -45.0810 -45.0551 -45.0408 -45.0169
   -44.9985 -44.9156 -44.9021 -44.8901 -44.8726 -44.8474 -44.7763 -44.7508
    -4.7131  -4.5476  -4.4514  -4.3826  -4.2756  -4.2698  -4.1315  -4.0789
    -4.0601  -4.0006  -3.8872  -3.8507  -3.7818  -3.6458  -3.5884  -3.4409
    -3.4219  -3.2471  -3.2178  -3.2063  -3.1182  -2.9939  -2.9916  -2.9183
    -2.7927  -2.7514  -2.7081  -2.7036  -2.6469  -2.5376  -2.4623  -2.4005
    -2.3467  -2.2718  -2.1082  -2.0025  -1.9622  -1.9064  -1.6501  -1.5864
    -1.4928  -1.4487  -1.2756  -1.1949  -0.9435  -0.8464  -0.8132  -0.6519
    -0.6492  -0.4191  -0.3392  -0.2670  -0.1818  -0.1041   0.3084   0.3906
     0.4837   0.4974   0.5785   0.6277   0.6550   0.8916   0.9747   1.2290
     1.5794   2.0810   2.1968   3.0079   4.1386   4.1831   4.9081   5.3533
     5.7500   6.0348   6.5205   6.5622   6.7217

          k = 0.0303-0.0650 0.0000 ( 32453 PWs)   bands (ev):

   -77.4043 -77.3809 -77.1767 -77.1532 -77.0239 -77.0002 -45.5339 -45.5070
   -45.3935 -45.2531 -45.1581 -45.1380 -45.0809 -45.0551 -45.0408 -45.0169
   -44.9985 -44.9155 -44.9021 -44.8900 -44.8725 -44.8474 -44.7762 -44.7508
    -4.8208  -4.5944  -4.5271  -4.3972  -4.3661  -4.3074  -4.2436  -4.1970
    -4.1031  -4.0452  -3.9557  -3.9323  -3.7889  -3.7376  -3.7019  -3.4439
    -3.4433  -3.2872  -3.2594  -3.2554  -3.1920  -3.0181  -2.9867  -2.9161
    -2.8350  -2.7652  -2.7303  -2.6943  -2.6047  -2.5197  -2.3678  -2.2924
    -2.2551  -2.2100  -2.0167  -1.9284  -1.9101  -1.8084  -1.5432  -1.5073
    -1.4398  -1.3254  -1.1059  -1.0303  -0.9140  -0.7941  -0.7508  -0.5035
    -0.4835  -0.3306  -0.2966  -0.2064  -0.1763   0.0270   0.3541   0.4107
     0.4643   0.5346   0.6091   0.6719   0.7615   0.9773   1.1382   1.2256
     1.5685   1.7845   2.2045   3.3917   3.6832   4.2080   4.5845   5.3343
     5.6336   6.0373   6.0617   6.1679   6.4711

          k = 0.0303-0.0488 0.0000 ( 32464 PWs)   bands (ev):

   -77.4043 -77.3809 -77.1767 -77.1532 -77.0239 -77.0002 -45.5339 -45.5070
   -45.3934 -45.2531 -45.1580 -45.1380 -45.0807 -45.0551 -45.0408 -45.0169
   -44.9985 -44.9155 -44.9021 -44.8900 -44.8724 -44.8473 -44.7762 -44.7508
    -5.0006  -4.6564  -4.5937  -4.4714  -4.4317  -4.3587  -4.3344  -4.2832
    -4.1770  -4.1152  -4.0438  -4.0089  -3.8863  -3.8216  -3.7810  -3.5115
    -3.4919  -3.3646  -3.3515  -3.2652  -3.1795  -3.0501  -2.9888  -2.9251
    -2.8416  -2.7865  -2.7146  -2.6885  -2.6246  -2.5086  -2.3436  -2.2704
    -2.0777  -2.0043  -1.9230  -1.8890  -1.8362  -1.6950  -1.4864  -1.4243
    -1.2618  -1.1968  -0.9322  -0.8656  -0.7704  -0.6827  -0.6459  -0.3769
    -0.3549  -0.2035  -0.1814  -0.1173  -0.0182   0.1680   0.3836   0.3944
     0.4879   0.5430   0.6585   0.7128   0.9423   1.1101   1.2315   1.3421
     1.5492   1.7738   2.2381   3.0768   3.8797   3.9906   4.3010   4.8970
     5.4147   5.6763   5.8528   6.1753   6.6349

          k = 0.0303-0.0325 0.0000 ( 32421 PWs)   bands (ev):

   -77.4043 -77.3809 -77.1767 -77.1532 -77.0239 -77.0002 -45.5338 -45.5069
   -45.3934 -45.2531 -45.1580 -45.1380 -45.0806 -45.0551 -45.0408 -45.0169
   -44.9985 -44.9155 -44.9020 -44.8900 -44.8723 -44.8473 -44.7762 -44.7508
    -5.1774  -4.7172  -4.6379  -4.5574  -4.4807  -4.4295  -4.3751  -4.3453
    -4.2499  -4.1904  -4.1350  -4.0672  -3.9856  -3.9423  -3.7804  -3.5938
    -3.5425  -3.4571  -3.4015  -3.2719  -3.1312  -3.1050  -2.9958  -2.9419
    -2.7991  -2.7894  -2.7023  -2.6903  -2.6450  -2.5008  -2.3367  -2.2666
    -1.9410  -1.9068  -1.8694  -1.7978  -1.7530  -1.5904  -1.4132  -1.3140
    -1.1674  -1.0812  -0.8597  -0.7491  -0.5750  -0.5471  -0.4443  -0.3307
    -0.2209  -0.1724  -0.0131   0.0729   0.1783   0.2897   0.3415   0.4607
     0.5513   0.5592   0.6979   0.7508   0.9611   1.1962   1.2707   1.5213
     1.6475   2.3127   2.3341   2.6655   3.1374   4.1245   4.3220   4.5657
     5.2347   5.4314   5.6313   5.9911   6.6798

          k = 0.0303-0.0163 0.0000 ( 32386 PWs)   bands (ev):

   -77.4043 -77.3809 -77.1767 -77.1532 -77.0239 -77.0002 -45.5338 -45.5069
   -45.3933 -45.2530 -45.1580 -45.1380 -45.0805 -45.0550 -45.0407 -45.0169
   -44.9985 -44.9154 -44.9020 -44.8899 -44.8722 -44.8472 -44.7762 -44.7508
    -5.2973  -4.7611  -4.6642  -4.6116  -4.5292  -4.4735  -4.4094  -4.3729
    -4.2994  -4.2453  -4.2022  -4.1078  -4.0418  -4.0224  -3.7805  -3.6571
    -3.5751  -3.5125  -3.4286  -3.2760  -3.1461  -3.1025  -2.9950  -2.9602
    -2.7800  -2.7573  -2.7199  -2.6750  -2.6609  -2.4954  -2.3345  -2.2639
    -1.8766  -1.8696  -1.8495  -1.7877  -1.5927  -1.5152  -1.3232  -1.2440
    -1.1929  -0.9552  -0.8930  -0.5764  -0.4504  -0.4384  -0.3092  -0.3071
    -0.1664  -0.1219   0.0942   0.1829   0.2478   0.3877   0.3944   0.5503
     0.5853   0.6851   0.7276   0.7966   0.9612   1.0865   1.4090   1.4920
     2.3360   2.3651   2.4081   2.6118   2.8988   3.5335   4.1060   4.6837
     5.1200   5.2027   5.4949   5.8752   6.3971

          k = 0.0303-0.0000 0.0000 ( 32395 PWs)   bands (ev):

   -77.4043 -77.3809 -77.1767 -77.1532 -77.0239 -77.0002 -45.5338 -45.5069
   -45.3933 -45.2530 -45.1579 -45.1380 -45.0805 -45.0550 -45.0407 -45.0169
   -44.9985 -44.9154 -44.9020 -44.8899 -44.8722 -44.8472 -44.7762 -44.7508
    -5.3390  -4.7771  -4.6731  -4.6299  -4.5490  -4.4885  -4.4227  -4.3805
    -4.3166  -4.2657  -4.2260  -4.1227  -4.0600  -4.0496  -3.7808  -3.6805
    -3.5859  -3.5303  -3.4373  -3.2775  -3.1606  -3.0954  -2.9889  -2.9713
    -2.7729  -2.7405  -2.7284  -2.6707  -2.6671  -2.4935  -2.3343  -2.2629
    -1.8686  -1.8461  -1.8424  -1.7877  -1.5182  -1.4884  -1.2796  -1.2424
    -1.2018  -0.9154  -0.9043  -0.5176  -0.3996  -0.3576  -0.3096  -0.2652
    -0.1764  -0.1120   0.0931   0.1617   0.3341   0.4250   0.4707   0.5309
     0.6112   0.7414   0.7701   0.8376   0.9548   1.0544   1.4722   1.7546
     1.8252   2.2445   2.9455   2.9675   3.0166   3.2579   3.5324   4.8438
     5.0139   5.0811   5.4487   5.8367   6.2680

          k = 0.0454 0.0244 0.0000 ( 32409 PWs)   bands (ev):

   -77.4021 -77.3830 -77.1746 -77.1554 -77.0217 -77.0023 -45.5313 -45.5094
   -45.3702 -45.2300 -45.1617 -45.1348 -45.0782 -45.0574 -45.0386 -45.0221
   -45.0191 -44.9258 -44.9131 -44.8923 -44.8700 -44.8496 -44.7739 -44.7532
    -5.0483  -4.6487  -4.5245  -4.5004  -4.3998  -4.3256  -4.2810  -4.2254
    -4.2080  -4.1690  -4.1344  -4.0457  -3.9691  -3.9021  -3.6980  -3.5865
    -3.5297  -3.4647  -3.4405  -3.2265  -3.2259  -3.1214  -3.1132  -2.9694
    -2.8680  -2.8129  -2.7833  -2.7415  -2.7062  -2.5909  -2.3480  -2.2300
    -2.0845  -1.9301  -1.7452  -1.6546  -1.5788  -1.5709  -1.4552  -1.3549
    -1.2369  -1.1555  -0.9687  -0.6453  -0.5141  -0.4807  -0.4236  -0.3747
    -0.1822  -0.1183  -0.1054   0.0318   0.0877   0.1386   0.1807   0.4421
     0.4918   0.4953   0.5765   0.6762   0.7660   0.8581   1.1871   1.3328
     1.8015   2.3591   2.3708   2.8561   3.0874   3.4106   4.1703   4.6787
     5.3281   5.4461   5.7446   6.0891   6.5528

          k = 0.0454 0.0407 0.0000 ( 32451 PWs)   bands (ev):

   -77.4021 -77.3830 -77.1746 -77.1554 -77.0217 -77.0023 -45.5314 -45.5094
   -45.3703 -45.2300 -45.1617 -45.1348 -45.0783 -45.0574 -45.0386 -45.0221
   -45.0191 -44.9258 -44.9131 -44.8923 -44.8701 -44.8496 -44.7739 -44.7532
    -4.8997  -4.5972  -4.5005  -4.4376  -4.3376  -4.2810  -4.2436  -4.1762
    -4.1736  -4.1070  -4.0722  -3.9881  -3.8987  -3.8237  -3.6969  -3.5198
    -3.5076  -3.4197  -3.3997  -3.2508  -3.2142  -3.1122  -3.0832  -2.9575
    -2.8801  -2.8529  -2.7771  -2.7569  -2.6871  -2.5788  -2.3564  -2.2312
    -2.1211  -1.9832  -1.8726  -1.8224  -1.6484  -1.6031  -1.5174  -1.4138
    -1.3323  -1.1778  -0.9264  -0.8155  -0.7171  -0.5838  -0.5304  -0.4512
    -0.2682  -0.2193  -0.1955  -0.0608  -0.0369   0.0625   0.1987   0.3105
     0.4343   0.4912   0.5753   0.6310   0.7281   0.8525   1.2348   1.4847
     1.6147   1.6762   2.4251   3.1756   3.1810   3.7873   4.3492   4.5026
     5.4772   5.9242   5.9413   6.2431   6.4689

          k = 0.0454 0.0569 0.0000 ( 32450 PWs)   bands (ev):

   -77.4021 -77.3830 -77.1746 -77.1554 -77.0217 -77.0023 -45.5314 -45.5094
   -45.3703 -45.2300 -45.1617 -45.1349 -45.0784 -45.0574 -45.0386 -45.0221
   -45.0191 -44.9258 -44.9132 -44.8924 -44.8701 -44.8496 -44.7739 -44.7532
    -4.7091  -4.5343  -4.4680  -4.3460  -4.2623  -4.2291  -4.1899  -4.1266
    -4.1219  -4.0385  -3.9959  -3.9102  -3.7986  -3.7300  -3.6952  -3.4818
    -3.4507  -3.3935  -3.3166  -3.2665  -3.2014  -3.1143  -3.0489  -2.9457
    -2.8914  -2.8750  -2.7895  -2.7689  -2.6657  -2.5584  -2.3681  -2.2367
    -2.1949  -2.0846  -2.0628  -2.0029  -1.7120  -1.6688  -1.6087  -1.4415
    -1.3918  -1.2923  -1.0054  -0.9617  -0.9115  -0.7088  -0.6862  -0.4668
    -0.4510  -0.2925  -0.2510  -0.1589  -0.1507  -0.0191   0.2488   0.2992
     0.3884   0.4735   0.5777   0.6003   0.7024   0.8392   1.1497   1.2766
     1.5336   1.5821   1.9618   3.5932   3.6380   4.0099   4.0837   5.1253
     5.6857   6.1576   6.1886   6.3479   6.4287

          k = 0.0454 0.0732 0.0000 ( 32447 PWs)   bands (ev):

   -77.4021 -77.3830 -77.1746 -77.1554 -77.0217 -77.0023 -45.5315 -45.5094
   -45.3704 -45.2301 -45.1617 -45.1349 -45.0786 -45.0574 -45.0386 -45.0221
   -45.0191 -44.9258 -44.9132 -44.8924 -44.8702 -44.8497 -44.7739 -44.7532
    -4.5467  -4.4767  -4.4205  -4.2393  -4.2314  -4.1433  -4.1088  -4.0852
    -4.0701  -3.9845  -3.9187  -3.8256  -3.7173  -3.6626  -3.6622  -3.4957
    -3.4062  -3.3449  -3.2554  -3.2424  -3.1859  -3.1190  -3.0373  -2.9441
    -2.8958  -2.8615  -2.8221  -2.7550  -2.6526  -2.5587  -2.3840  -2.3220
    -2.2785  -2.2122  -2.2102  -2.1302  -1.7563  -1.7443  -1.6952  -1.5316
    -1.4594  -1.3359  -1.2372  -1.1245  -0.9164  -0.7974  -0.7443  -0.6145
    -0.5050  -0.3558  -0.2767  -0.2286  -0.1795  -0.0775   0.2798   0.2829
     0.3864   0.4356   0.5128   0.6067   0.6927   0.7764   0.8915   1.2248
     1.3034   1.5041   2.1374   3.4609   3.5582   4.1097   4.9845   5.7984
     5.8021   6.0800   6.0831   6.5211   6.5438

          k = 0.0454 0.0894 0.0000 ( 32443 PWs)   bands (ev):

   -77.4021 -77.3830 -77.1746 -77.1554 -77.0217 -77.0023 -45.5315 -45.5095
   -45.3704 -45.2301 -45.1617 -45.1349 -45.0786 -45.0574 -45.0386 -45.0221
   -45.0191 -44.9258 -44.9132 -44.8924 -44.8703 -44.8497 -44.7739 -44.7532
    -4.4865  -4.4416  -4.3614  -4.2297  -4.1526  -4.0877  -4.0738  -4.0712
    -3.9665  -3.9378  -3.8647  -3.7574  -3.7109  -3.6570  -3.5867  -3.5303
    -3.3935  -3.2930  -3.2498  -3.2469  -3.1749  -3.0643  -3.0156  -2.9600
    -2.8935  -2.8611  -2.8434  -2.7340  -2.6835  -2.6135  -2.4057  -2.3907
    -2.3234  -2.3125  -2.2283  -2.1859  -1.8512  -1.7357  -1.7325  -1.6283
    -1.5316  -1.4145  -1.2913  -1.2018  -0.9223  -0.8208  -0.7615  -0.7111
    -0.5447  -0.3850  -0.2877  -0.2661  -0.1815  -0.0852   0.2535   0.2886
     0.4049   0.4088   0.4474   0.5940   0.6621   0.6984   0.8606   0.9810
     1.3156   1.4961   2.4485   3.0277   3.5145   4.6215   5.2781   5.7955
     5.9906   6.1738   6.3665   6.8015   6.9116

          k = 0.0454 0.1057 0.0000 ( 32443 PWs)   bands (ev):

   -77.4021 -77.3830 -77.1746 -77.1554 -77.0217 -77.0023 -45.5315 -45.5095
   -45.3704 -45.2301 -45.1617 -45.1349 -45.0786 -45.0574 -45.0386 -45.0221
   -45.0191 -44.9258 -44.9132 -44.8924 -44.8703 -44.8497 -44.7739 -44.7532
    -4.4865  -4.4416  -4.3614  -4.2297  -4.1526  -4.0877  -4.0737  -4.0712
    -3.9665  -3.9378  -3.8647  -3.7574  -3.7109  -3.6570  -3.5867  -3.5303
    -3.3935  -3.2930  -3.2498  -3.2469  -3.1749  -3.0643  -3.0156  -2.9600
    -2.8935  -2.8612  -2.8434  -2.7340  -2.6835  -2.6135  -2.4057  -2.3907
    -2.3234  -2.3125  -2.2283  -2.1859  -1.8512  -1.7357  -1.7325  -1.6283
    -1.5316  -1.4145  -1.2913  -1.2018  -0.9222  -0.8207  -0.7615  -0.7111
    -0.5447  -0.3850  -0.2877  -0.2660  -0.1815  -0.0852   0.2535   0.2886
     0.4049   0.4088   0.4475   0.5940   0.6621   0.6984   0.8606   0.9810
     1.3156   1.4961   2.4486   3.0276   3.5145   4.6215   5.2781   5.7955
     5.9906   6.1739   6.3665   6.8041   6.9117

          k = 0.0454-0.0732 0.0000 ( 32447 PWs)   bands (ev):

   -77.4021 -77.3830 -77.1746 -77.1554 -77.0217 -77.0023 -45.5315 -45.5094
   -45.3704 -45.2301 -45.1617 -45.1349 -45.0786 -45.0574 -45.0386 -45.0221
   -45.0191 -44.9258 -44.9132 -44.8924 -44.8702 -44.8497 -44.7739 -44.7532
    -4.5467  -4.4767  -4.4205  -4.2393  -4.2314  -4.1433  -4.1087  -4.0852
    -4.0701  -3.9846  -3.9186  -3.8256  -3.7173  -3.6626  -3.6622  -3.4958
    -3.4062  -3.3448  -3.2554  -3.2425  -3.1859  -3.1190  -3.0373  -2.9441
    -2.8958  -2.8615  -2.8221  -2.7551  -2.6526  -2.5588  -2.3841  -2.3219
    -2.2785  -2.2122  -2.2103  -2.1302  -1.7563  -1.7443  -1.6951  -1.5315
    -1.4594  -1.3359  -1.2372  -1.1245  -0.9164  -0.7974  -0.7443  -0.6145
    -0.5050  -0.3558  -0.2766  -0.2285  -0.1795  -0.0775   0.2798   0.2828
     0.3864   0.4356   0.5128   0.6067   0.6927   0.7764   0.8915   1.2248
     1.3034   1.5041   2.1375   3.4609   3.5582   4.1097   4.9845   5.7983
     5.8022   6.0799   6.0831   6.5215   6.5440

          k = 0.0454-0.0569 0.0000 ( 32450 PWs)   bands (ev):

   -77.4021 -77.3830 -77.1746 -77.1554 -77.0217 -77.0023 -45.5314 -45.5094
   -45.3703 -45.2300 -45.1617 -45.1349 -45.0784 -45.0574 -45.0386 -45.0221
   -45.0191 -44.9258 -44.9132 -44.8924 -44.8701 -44.8496 -44.7739 -44.7532
    -4.7091  -4.5343  -4.4681  -4.3460  -4.2623  -4.2291  -4.1898  -4.1266
    -4.1218  -4.0385  -3.9959  -3.9102  -3.7986  -3.7300  -3.6952  -3.4818
    -3.4506  -3.3935  -3.3166  -3.2666  -3.2015  -3.1143  -3.0489  -2.9457
    -2.8914  -2.8750  -2.7895  -2.7689  -2.6657  -2.5584  -2.3681  -2.2368
    -2.1949  -2.0846  -2.0628  -2.0029  -1.7120  -1.6688  -1.6086  -1.4415
    -1.3918  -1.2923  -1.0055  -0.9617  -0.9114  -0.7087  -0.6862  -0.4668
    -0.4510  -0.2925  -0.2510  -0.1589  -0.1506  -0.0191   0.2488   0.2992
     0.3883   0.4735   0.5777   0.6003   0.7024   0.8392   1.1497   1.2766
     1.5336   1.5821   1.9618   3.5933   3.6380   4.0098   4.0837   5.1254
     5.6857   6.1578   6.1886   6.3481   6.4287

          k = 0.0454-0.0407 0.0000 ( 32451 PWs)   bands (ev):

   -77.4021 -77.3830 -77.1746 -77.1554 -77.0217 -77.0023 -45.5314 -45.5094
   -45.3703 -45.2300 -45.1617 -45.1348 -45.0783 -45.0574 -45.0386 -45.0221
   -45.0191 -44.9258 -44.9131 -44.8923 -44.8701 -44.8496 -44.7739 -44.7532
    -4.8997  -4.5972  -4.5005  -4.4376  -4.3376  -4.2810  -4.2436  -4.1762
    -4.1736  -4.1070  -4.0722  -3.9881  -3.8987  -3.8237  -3.6969  -3.5198
    -3.5076  -3.4197  -3.3997  -3.2508  -3.2142  -3.1122  -3.0831  -2.9575
    -2.8801  -2.8529  -2.7771  -2.7570  -2.6871  -2.5788  -2.3564  -2.2312
    -2.1212  -1.9832  -1.8726  -1.8224  -1.6484  -1.6031  -1.5174  -1.4138
    -1.3323  -1.1778  -0.9264  -0.8156  -0.7171  -0.5838  -0.5304  -0.4512
    -0.2682  -0.2193  -0.1955  -0.0609  -0.0368   0.0624   0.1987   0.3105
     0.4343   0.4911   0.5753   0.6310   0.7281   0.8524   1.2348   1.4848
     1.6146   1.6762   2.4251   3.1756   3.1810   3.7873   4.3492   4.5025
     5.4772   5.9242   5.9416   6.2431   6.4690

          k = 0.0454-0.0244 0.0000 ( 32409 PWs)   bands (ev):

   -77.4021 -77.3830 -77.1746 -77.1554 -77.0217 -77.0023 -45.5313 -45.5094
   -45.3702 -45.2300 -45.1617 -45.1348 -45.0782 -45.0574 -45.0386 -45.0221
   -45.0191 -44.9258 -44.9131 -44.8923 -44.8700 -44.8496 -44.7739 -44.7532
    -5.0483  -4.6487  -4.5245  -4.5004  -4.3997  -4.3256  -4.2810  -4.2253
    -4.2080  -4.1690  -4.1344  -4.0457  -3.9691  -3.9020  -3.6980  -3.5865
    -3.5297  -3.4647  -3.4405  -3.2265  -3.2259  -3.1214  -3.1132  -2.9694
    -2.8680  -2.8129  -2.7833  -2.7415  -2.7062  -2.5910  -2.3480  -2.2300
    -2.0845  -1.9301  -1.7452  -1.6546  -1.5788  -1.5710  -1.4551  -1.3549
    -1.2369  -1.1555  -0.9687  -0.6454  -0.5141  -0.4806  -0.4237  -0.3747
    -0.1822  -0.1183  -0.1054   0.0318   0.0877   0.1386   0.1807   0.4421
     0.4918   0.4952   0.5766   0.6762   0.7660   0.8581   1.1871   1.3328
     1.8014   2.3591   2.3708   2.8562   3.0874   3.4107   4.1703   4.6786
     5.3281   5.4462   5.7446   6.0893   6.5528

          k = 0.0454-0.0081 0.0000 ( 32388 PWs)   bands (ev):

   -77.4021 -77.3830 -77.1746 -77.1554 -77.0217 -77.0023 -45.5313 -45.5094
   -45.3702 -45.2300 -45.1617 -45.1348 -45.0782 -45.0574 -45.0386 -45.0221
   -45.0191 -44.9258 -44.9131 -44.8923 -44.8699 -44.8496 -44.7739 -44.7531
    -5.1274  -4.6769  -4.5376  -4.5317  -4.4345  -4.3487  -4.3063  -4.2520
    -4.2243  -4.2075  -4.1691  -4.0760  -4.0040  -3.9440  -3.6997  -3.6262
    -3.5390  -3.4977  -3.4526  -3.2347  -3.2172  -3.1412  -3.1111  -2.9767
    -2.8594  -2.7935  -2.7850  -2.7339  -2.7160  -2.5964  -2.3436  -2.2301
    -2.0684  -1.9096  -1.6837  -1.5839  -1.5753  -1.4850  -1.4200  -1.2718
    -1.2034  -1.1616  -1.0217  -0.5317  -0.4579  -0.4148  -0.3394  -0.3117
    -0.1608  -0.0751  -0.0646   0.0035   0.1665   0.2089   0.2464   0.4863
     0.5113   0.5793   0.6516   0.7112   0.8543   1.0135   1.1634   1.2445
     1.6393   2.1676   2.6683   2.7399   3.1532   3.6202   4.1452   4.4698
     4.9439   5.2505   5.6509   6.0116   6.4496

          k = 0.0454 0.0081 0.0000 ( 32388 PWs)   bands (ev):

   -77.4021 -77.3830 -77.1746 -77.1554 -77.0217 -77.0023 -45.5313 -45.5094
   -45.3702 -45.2300 -45.1617 -45.1348 -45.0782 -45.0574 -45.0386 -45.0221
   -45.0191 -44.9258 -44.9131 -44.8923 -44.8699 -44.8496 -44.7739 -44.7531
    -5.1274  -4.6769  -4.5376  -4.5317  -4.4345  -4.3487  -4.3063  -4.2520
    -4.2243  -4.2075  -4.1691  -4.0760  -4.0040  -3.9440  -3.6997  -3.6262
    -3.5390  -3.4977  -3.4526  -3.2346  -3.2172  -3.1412  -3.1111  -2.9767
    -2.8594  -2.7934  -2.7850  -2.7339  -2.7160  -2.5964  -2.3436  -2.2301
    -2.0684  -1.9096  -1.6837  -1.5839  -1.5753  -1.4850  -1.4200  -1.2718
    -1.2034  -1.1616  -1.0217  -0.5317  -0.4579  -0.4148  -0.3394  -0.3117
    -0.1608  -0.0751  -0.0647   0.0035   0.1665   0.2089   0.2464   0.4864
     0.5114   0.5793   0.6516   0.7112   0.8543   1.0134   1.1634   1.2445
     1.6394   2.1677   2.6682   2.7398   3.1531   3.6203   4.1452   4.4698
     4.9438   5.2505   5.6509   6.0116   6.4496

          k = 0.0605 0.0325 0.0000 ( 32428 PWs)   bands (ev):

   -77.3993 -77.3858 -77.1718 -77.1582 -77.0189 -77.0052 -45.5282 -45.5126
   -45.3400 -45.1999 -45.1926 -45.1045 -45.0752 -45.0605 -45.0529 -45.0357
   -45.0219 -44.9568 -44.9101 -44.8954 -44.8670 -44.8526 -44.7709 -44.7562
    -4.7441  -4.5056  -4.3717  -4.3649  -4.2835  -4.2114  -4.1956  -4.0924
    -4.0354  -4.0301  -3.9549  -3.9333  -3.8703  -3.7885  -3.6001  -3.5302
    -3.5039  -3.4936  -3.4084  -3.2873  -3.2658  -3.2043  -3.0494  -3.0292
    -2.9614  -2.9229  -2.8949  -2.7962  -2.7688  -2.6118  -2.4114  -2.4045
    -2.1211  -2.1186  -1.9064  -1.6953  -1.6541  -1.5284  -1.4195  -1.3056
    -1.2544  -1.1339  -1.0556  -0.7202  -0.6020  -0.5360  -0.4833  -0.4350
    -0.2944  -0.2641  -0.1890  -0.1661  -0.0498  -0.0435   0.0516   0.0874
     0.2078   0.3076   0.5029   0.5651   0.6089   0.7571   0.8121   1.2240
     1.6475   2.3558   2.3691   3.2268   3.2593   3.4162   3.6815   5.1035
     5.5022   5.6178   6.0530   6.0934   6.3899

          k = 0.0605 0.0488 0.0000 ( 32421 PWs)   bands (ev):

   -77.3993 -77.3858 -77.1718 -77.1582 -77.0189 -77.0052 -45.5282 -45.5127
   -45.3400 -45.1999 -45.1926 -45.1045 -45.0753 -45.0605 -45.0529 -45.0357
   -45.0220 -44.9567 -44.9101 -44.8954 -44.8671 -44.8526 -44.7709 -44.7562
    -4.5906  -4.4515  -4.3497  -4.3065  -4.2360  -4.1609  -4.1578  -4.0390
    -4.0005  -3.9715  -3.9112  -3.8665  -3.8054  -3.7477  -3.5983  -3.5485
    -3.4908  -3.4441  -3.3545  -3.3046  -3.2411  -3.1785  -3.0411  -3.0346
    -2.9617  -2.9469  -2.8919  -2.8058  -2.7672  -2.5696  -2.4602  -2.4114
    -2.2406  -2.1337  -1.9229  -1.8660  -1.8048  -1.6035  -1.4385  -1.3434
    -1.2667  -1.2062  -1.0159  -0.8944  -0.8327  -0.5953  -0.5729  -0.4967
    -0.3718  -0.3274  -0.2739  -0.2138  -0.1257  -0.0706   0.0610   0.1201
     0.1769   0.2694   0.4911   0.5545   0.5839   0.7502   0.8717   1.1031
     1.6711   1.8515   2.5320   3.1193   3.2867   3.7514   4.3196   4.6143
     5.7060   5.7966   6.2799   6.3129   6.5780

          k = 0.0605 0.0650 0.0000 ( 32426 PWs)   bands (ev):

   -77.3993 -77.3858 -77.1718 -77.1582 -77.0189 -77.0052 -45.5282 -45.5127
   -45.3401 -45.1999 -45.1926 -45.1046 -45.0754 -45.0605 -45.0529 -45.0357
   -45.0220 -44.9567 -44.9101 -44.8954 -44.8672 -44.8526 -44.7709 -44.7562
    -4.4254  -4.3883  -4.3158  -4.2261  -4.1790  -4.1249  -4.0832  -3.9908
    -3.9818  -3.9015  -3.8603  -3.7898  -3.7334  -3.7158  -3.5956  -3.5765
    -3.4707  -3.3934  -3.3212  -3.3084  -3.2177  -3.1536  -3.0678  -3.0368
    -2.9688  -2.9524  -2.9012  -2.7995  -2.7601  -2.5452  -2.5433  -2.4158
    -2.3683  -2.1665  -2.0933  -1.9435  -1.8839  -1.6755  -1.4599  -1.4408
    -1.3329  -1.1964  -1.1149  -0.9986  -0.9908  -0.7169  -0.6308  -0.5360
    -0.4415  -0.3357  -0.2637  -0.2329  -0.1625  -0.0819   0.0944   0.1489
     0.1846   0.2564   0.4476   0.4879   0.5872   0.7469   0.9117   1.0494
     1.1670   1.7343   2.2653   3.0664   4.0225   4.0762   4.1841   5.2000
     5.5290   6.0257   6.4887   6.6235   6.9250

          k = 0.0605 0.0813 0.0000 ( 32438 PWs)   bands (ev):

   -77.3993 -77.3858 -77.1718 -77.1582 -77.0189 -77.0052 -45.5283 -45.5127
   -45.3401 -45.1999 -45.1926 -45.1046 -45.0755 -45.0605 -45.0529 -45.0357
   -45.0220 -44.9567 -44.9102 -44.8954 -44.8672 -44.8526 -44.7709 -44.7562
    -4.3487  -4.3359  -4.2416  -4.1581  -4.1144  -4.0722  -4.0184  -3.9660
    -3.9407  -3.8636  -3.8261  -3.7207  -3.7038  -3.6653  -3.6150  -3.5909
    -3.4570  -3.3643  -3.3243  -3.2987  -3.1974  -3.1251  -3.0893  -3.0478
    -2.9931  -2.9506  -2.9072  -2.7971  -2.7480  -2.6144  -2.5514  -2.4589
    -2.4567  -2.2420  -2.2034  -1.9950  -1.8657  -1.7462  -1.5567  -1.4543
    -1.4424  -1.3001  -1.1132  -1.0876  -0.9770  -0.7598  -0.6697  -0.6470
    -0.3714  -0.3223  -0.2537  -0.2449  -0.1750  -0.0348   0.1421   0.1423
     0.1970   0.2666   0.3678   0.4045   0.5849   0.7555   0.8471   0.9269
     1.0328   1.2949   2.5440   2.9778   3.4961   4.6646   5.0111   5.3703
     5.8185   6.1850   6.4124   6.9706   7.0486

          k = 0.0605 0.0976 0.0000 ( 32442 PWs)   bands (ev):

   -77.3993 -77.3858 -77.1718 -77.1582 -77.0189 -77.0052 -45.5283 -45.5127
   -45.3401 -45.1999 -45.1926 -45.1046 -45.0755 -45.0605 -45.0529 -45.0358
   -45.0220 -44.9567 -44.9102 -44.8954 -44.8672 -44.8526 -44.7709 -44.7562
    -4.3366  -4.3150  -4.2060  -4.1406  -4.0657  -4.0314  -4.0145  -3.9761
    -3.8631  -3.8537  -3.8303  -3.7037  -3.6891  -3.6491  -3.6212  -3.5991
    -3.4665  -3.3562  -3.3081  -3.3049  -3.2000  -3.1082  -3.0769  -3.0565
    -3.0180  -2.9488  -2.9084  -2.8093  -2.7396  -2.6246  -2.5790  -2.4924
    -2.4807  -2.3015  -2.2104  -1.9969  -1.8204  -1.8146  -1.6048  -1.4800
    -1.4548  -1.3693  -1.1160  -1.0731  -0.9737  -0.7662  -0.6902  -0.6852
    -0.3369  -0.3259  -0.2503  -0.2305  -0.1771   0.0056   0.1341   0.1785
     0.2040   0.2724   0.3334   0.3410   0.5835   0.7285   0.7704   0.9292
     1.0308   1.1024   2.8048   2.9481   3.1604   5.0879   5.3291   5.3641
     5.9309   6.0755   6.9529   7.0027   7.0531

          k = 0.0605 0.1138 0.0000 ( 32438 PWs)   bands (ev):

   -77.3993 -77.3858 -77.1718 -77.1582 -77.0189 -77.0052 -45.5283 -45.5127
   -45.3401 -45.1999 -45.1926 -45.1046 -45.0755 -45.0605 -45.0529 -45.0357
   -45.0220 -44.9567 -44.9102 -44.8954 -44.8672 -44.8526 -44.7709 -44.7562
    -4.3487  -4.3359  -4.2415  -4.1581  -4.1143  -4.0722  -4.0184  -3.9660
    -3.9407  -3.8636  -3.8261  -3.7207  -3.7038  -3.6653  -3.6150  -3.5909
    -3.4570  -3.3643  -3.3243  -3.2987  -3.1974  -3.1251  -3.0893  -3.0478
    -2.9931  -2.9505  -2.9072  -2.7971  -2.7480  -2.6143  -2.5514  -2.4589
    -2.4566  -2.2420  -2.2034  -1.9950  -1.8657  -1.7462  -1.5567  -1.4544
    -1.4424  -1.3001  -1.1132  -1.0877  -0.9770  -0.7597  -0.6697  -0.6470
    -0.3715  -0.3223  -0.2536  -0.2449  -0.1750  -0.0348   0.1421   0.1423
     0.1970   0.2666   0.3678   0.4045   0.5849   0.7555   0.8471   0.9268
     1.0328   1.2949   2.5441   2.9779   3.4961   4.6646   5.0111   5.3703
     5.8184   6.1850   6.4125   6.9705   7.0486

          k = 0.0605-0.0650 0.0000 ( 32426 PWs)   bands (ev):

   -77.3993 -77.3858 -77.1718 -77.1582 -77.0189 -77.0052 -45.5282 -45.5127
   -45.3401 -45.1999 -45.1926 -45.1046 -45.0754 -45.0605 -45.0529 -45.0357
   -45.0220 -44.9567 -44.9101 -44.8954 -44.8672 -44.8526 -44.7709 -44.7562
    -4.4254  -4.3883  -4.3158  -4.2261  -4.1789  -4.1249  -4.0832  -3.9908
    -3.9818  -3.9015  -3.8602  -3.7898  -3.7334  -3.7158  -3.5956  -3.5765
    -3.4707  -3.3934  -3.3213  -3.3084  -3.2177  -3.1536  -3.0678  -3.0369
    -2.9687  -2.9523  -2.9012  -2.7995  -2.7601  -2.5452  -2.5434  -2.4158
    -2.3683  -2.1665  -2.0933  -1.9435  -1.8839  -1.6756  -1.4599  -1.4409
    -1.3329  -1.1964  -1.1149  -0.9987  -0.9908  -0.7169  -0.6308  -0.5360
    -0.4415  -0.3357  -0.2637  -0.2329  -0.1625  -0.0819   0.0944   0.1489
     0.1846   0.2564   0.4477   0.4879   0.5872   0.7468   0.9116   1.0494
     1.1670   1.7343   2.2654   3.0665   4.0224   4.0762   4.1842   5.2001
     5.5290   6.0257   6.4885   6.6232   6.8706

          k = 0.0605-0.0488 0.0000 ( 32421 PWs)   bands (ev):

   -77.3993 -77.3858 -77.1718 -77.1582 -77.0189 -77.0052 -45.5282 -45.5127
   -45.3400 -45.1999 -45.1926 -45.1045 -45.0753 -45.0605 -45.0529 -45.0357
   -45.0220 -44.9567 -44.9101 -44.8954 -44.8671 -44.8526 -44.7709 -44.7562
    -4.5906  -4.4515  -4.3497  -4.3065  -4.2360  -4.1609  -4.1578  -4.0390
    -4.0005  -3.9715  -3.9112  -3.8666  -3.8054  -3.7477  -3.5983  -3.5486
    -3.4908  -3.4441  -3.3545  -3.3046  -3.2412  -3.1785  -3.0411  -3.0346
    -2.9617  -2.9469  -2.8919  -2.8058  -2.7673  -2.5696  -2.4602  -2.4114
    -2.2406  -2.1337  -1.9228  -1.8660  -1.8048  -1.6035  -1.4385  -1.3434
    -1.2667  -1.2062  -1.0158  -0.8945  -0.8328  -0.5952  -0.5729  -0.4967
    -0.3718  -0.3274  -0.2739  -0.2138  -0.1257  -0.0706   0.0610   0.1202
     0.1769   0.2694   0.4911   0.5545   0.5839   0.7502   0.8716   1.1031
     1.6711   1.8516   2.5320   3.1194   3.2867   3.7514   4.3196   4.6142
     5.7062   5.7966   6.2800   6.3129   6.5779

          k = 0.0605-0.0325 0.0000 ( 32428 PWs)   bands (ev):

   -77.3993 -77.3858 -77.1718 -77.1582 -77.0189 -77.0052 -45.5282 -45.5126
   -45.3400 -45.1999 -45.1926 -45.1045 -45.0752 -45.0605 -45.0529 -45.0357
   -45.0219 -44.9568 -44.9101 -44.8954 -44.8670 -44.8526 -44.7709 -44.7562
    -4.7441  -4.5056  -4.3717  -4.3649  -4.2835  -4.2114  -4.1955  -4.0924
    -4.0354  -4.0301  -3.9549  -3.9333  -3.8703  -3.7885  -3.6001  -3.5302
    -3.5039  -3.4935  -3.4084  -3.2873  -3.2658  -3.2044  -3.0494  -3.0292
    -2.9614  -2.9229  -2.8949  -2.7963  -2.7688  -2.6119  -2.4114  -2.4045
    -2.1211  -2.1186  -1.9064  -1.6953  -1.6541  -1.5284  -1.4195  -1.3057
    -1.2544  -1.1340  -1.0556  -0.7202  -0.6020  -0.5360  -0.4833  -0.4349
    -0.2944  -0.2640  -0.1890  -0.1661  -0.0498  -0.0435   0.0516   0.0875
     0.2078   0.3075   0.5029   0.5650   0.6089   0.7571   0.8120   1.2240
     1.6475   2.3558   2.3691   3.2267   3.2593   3.4162   3.6815   5.1035
     5.5023   5.6178   6.0531   6.0934   6.3899

          k = 0.0605-0.0163 0.0000 ( 32392 PWs)   bands (ev):

   -77.3993 -77.3858 -77.1718 -77.1582 -77.0189 -77.0052 -45.5281 -45.5126
   -45.3400 -45.1998 -45.1926 -45.1045 -45.0751 -45.0605 -45.0529 -45.0357
   -45.0219 -44.9568 -44.9101 -44.8954 -44.8670 -44.8526 -44.7709 -44.7562
    -4.8454  -4.5394  -4.3977  -4.3866  -4.3150  -4.2441  -4.2215  -4.1375
    -4.0739  -4.0597  -3.9798  -3.9790  -3.9125  -3.8198  -3.6043  -3.5510
    -3.5192  -3.4861  -3.4460  -3.3051  -3.2586  -3.2271  -3.0617  -3.0311
    -2.9532  -2.9117  -2.9002  -2.7824  -2.7671  -2.6473  -2.4094  -2.3750
    -2.1163  -2.0332  -1.9197  -1.5523  -1.5492  -1.4593  -1.4114  -1.2801
    -1.2090  -1.1262  -1.1090  -0.5831  -0.5571  -0.4411  -0.3860  -0.3649
    -0.2601  -0.2042  -0.1949  -0.0594  -0.0333  -0.0005   0.0646   0.1928
     0.3406   0.4420   0.5027   0.5295   0.6561   0.7541   0.7584   1.4529
     1.5175   1.6396   2.6193   3.1394   3.2081   3.8850   3.9377   4.8768
     4.9339   5.5016   5.9508   6.2729   6.3992

          k = 0.0605 0.0000 0.0000 ( 32394 PWs)   bands (ev):

   -77.3993 -77.3858 -77.1718 -77.1582 -77.0189 -77.0052 -45.5281 -45.5126
   -45.3400 -45.1998 -45.1926 -45.1045 -45.0751 -45.0605 -45.0529 -45.0357
   -45.0219 -44.9568 -44.9101 -44.8954 -44.8670 -44.8526 -44.7708 -44.7562
    -4.8805  -4.5505  -4.4080  -4.3920  -4.3260  -4.2551  -4.2309  -4.1559
    -4.0859  -4.0719  -3.9969  -3.9863  -3.9266  -3.8311  -3.6073  -3.5682
    -3.5162  -3.4798  -3.4590  -3.3185  -3.2517  -3.2362  -3.0657  -3.0342
    -2.9397  -2.9291  -2.8916  -2.7762  -2.7655  -2.6611  -2.4084  -2.3658
    -2.1150  -1.9974  -1.9323  -1.5113  -1.5051  -1.4192  -1.4128  -1.2397
    -1.2057  -1.1419  -1.1377  -0.5653  -0.5274  -0.3971  -0.3412  -0.3236
    -0.2647  -0.2039  -0.2028  -0.0287  -0.0250  -0.0092   0.0753   0.3250
     0.4015   0.4062   0.5014   0.6828   0.7196   0.7444   0.9002   1.0190
     1.4707   1.8564   2.0842   3.1032   3.8841   4.1863   4.2190   4.3965
     4.4269   5.4618   5.9048   6.2316   6.4953

          k = 0.0605 0.0163 0.0000 ( 32392 PWs)   bands (ev):

   -77.3993 -77.3858 -77.1718 -77.1582 -77.0189 -77.0052 -45.5281 -45.5126
   -45.3400 -45.1998 -45.1926 -45.1045 -45.0751 -45.0605 -45.0529 -45.0357
   -45.0219 -44.9568 -44.9101 -44.8954 -44.8670 -44.8526 -44.7709 -44.7562
    -4.8454  -4.5394  -4.3977  -4.3866  -4.3150  -4.2441  -4.2215  -4.1375
    -4.0739  -4.0597  -3.9798  -3.9790  -3.9125  -3.8198  -3.6043  -3.5510
    -3.5192  -3.4861  -3.4460  -3.3051  -3.2586  -3.2271  -3.0618  -3.0311
    -2.9533  -2.9116  -2.9001  -2.7824  -2.7671  -2.6473  -2.4094  -2.3750
    -2.1163  -2.0332  -1.9197  -1.5523  -1.5491  -1.4593  -1.4115  -1.2801
    -1.2091  -1.1262  -1.1090  -0.5830  -0.5571  -0.4411  -0.3860  -0.3649
    -0.2601  -0.2042  -0.1949  -0.0594  -0.0333  -0.0005   0.0646   0.1927
     0.3406   0.4420   0.5027   0.5295   0.6562   0.7541   0.7584   1.4529
     1.5175   1.6396   2.6192   3.1394   3.2080   3.8850   3.9378   4.8767
     4.9339   5.5016   5.9508   6.2729   6.3990

          k = 0.0757 0.0407 0.0000 ( 32393 PWs)   bands (ev):

   -77.3961 -77.3891 -77.1685 -77.1615 -77.0156 -77.0085 -45.5244 -45.5164
   -45.3047 -45.2284 -45.1646 -45.0886 -45.0717 -45.0691 -45.0641 -45.0324
   -45.0253 -44.9926 -44.9066 -44.8989 -44.8636 -44.8561 -44.7673 -44.7597
    -4.4801  -4.3650  -4.2567  -4.2496  -4.1757  -4.1695  -4.0539  -4.0292
    -3.8927  -3.8796  -3.8322  -3.7501  -3.7482  -3.6546  -3.5581  -3.5283
    -3.5219  -3.4172  -3.3807  -3.3611  -3.2676  -3.2088  -3.1730  -3.0903
    -3.0499  -2.9459  -2.9447  -2.8325  -2.8275  -2.7663  -2.6733  -2.5229
    -2.3458  -2.0429  -2.0109  -1.8844  -1.6690  -1.6658  -1.3324  -1.1511
[...]
    -3.0760  -2.9829  -2.9566  -2.9215  -2.8393  -2.7699  -2.7492  -2.6683
    -2.3430  -2.2078  -2.1304  -1.9685  -1.8737  -1.6846  -1.4131  -1.3399
    -1.1906  -1.1318  -0.9819  -0.9639  -0.8402  -0.6868  -0.6115  -0.6033
    -0.3630  -0.2855  -0.2552  -0.2201  -0.1921  -0.1120  -0.0736  -0.0052
     0.0940   0.1763   0.2865   0.3443   0.5595   0.6071   0.6986   0.8296
     0.9226   1.3626   2.4901   3.0010   3.5602   4.7298   4.9917   5.2702
     5.8703   5.9763   6.1297   6.5166   6.8697

          k = 0.0757 0.1057 0.0000 ( 32467 PWs)   bands (ev):

   -77.3961 -77.3891 -77.1685 -77.1615 -77.0156 -77.0085 -45.5245 -45.5164
   -45.3048 -45.2283 -45.1647 -45.0886 -45.0719 -45.0692 -45.0640 -45.0324
   -45.0253 -44.9926 -44.9066 -44.8990 -44.8637 -44.8561 -44.7674 -44.7597
    -4.2993  -4.2511  -4.1569  -4.1046  -4.0616  -4.0579  -3.9709  -3.9298
    -3.8815  -3.8419  -3.7380  -3.6846  -3.6767  -3.5873  -3.5761  -3.5225
    -3.4759  -3.3944  -3.3569  -3.3140  -3.3027  -3.2178  -3.1880  -3.1233
    -3.0760  -2.9829  -2.9566  -2.9215  -2.8393  -2.7699  -2.7492  -2.6683
    -2.3430  -2.2078  -2.1304  -1.9685  -1.8737  -1.6846  -1.4131  -1.3399
    -1.1906  -1.1318  -0.9819  -0.9638  -0.8402  -0.6868  -0.6115  -0.6033
    -0.3631  -0.2855  -0.2552  -0.2201  -0.1921  -0.1120  -0.0736  -0.0052
     0.0940   0.1763   0.2864   0.3443   0.5594   0.6071   0.6986   0.8296
     0.9225   1.3626   2.4901   3.0011   3.5602   4.7299   4.9917   5.2703
     5.8703   5.9762   6.1297   6.5167   7.1393

          k = 0.0757 0.1220 0.0000 ( 32454 PWs)   bands (ev):

   -77.3961 -77.3891 -77.1685 -77.1615 -77.0156 -77.0085 -45.5245 -45.5164
   -45.3047 -45.2283 -45.1647 -45.0886 -45.0719 -45.0692 -45.0640 -45.0324
   -45.0253 -44.9926 -44.9066 -44.8990 -44.8637 -44.8561 -44.7674 -44.7597
    -4.3260  -4.2790  -4.1934  -4.1594  -4.0881  -4.0845  -4.0000  -3.9658
    -3.8763  -3.8091  -3.7466  -3.7312  -3.6533  -3.6397  -3.5724  -3.5388
    -3.5025  -3.3749  -3.3626  -3.3175  -3.2730  -3.2085  -3.1810  -3.1204
    -3.0653  -2.9603  -2.9234  -2.9155  -2.8191  -2.7958  -2.7245  -2.6603
    -2.3141  -2.1477  -2.1138  -1.9525  -1.8442  -1.6979  -1.3428  -1.2919
    -1.1791  -1.1310  -0.9635  -0.9450  -0.8974  -0.6696  -0.5638  -0.5523
    -0.3709  -0.3014  -0.2992  -0.2689  -0.2519  -0.1922  -0.0596  -0.0415
     0.0124   0.0829   0.3972   0.4178   0.5298   0.6246   0.7311   0.8350
     1.1624   1.8154   2.5615   2.6669   4.0545   4.0753   4.7906   4.8218
     5.2149   6.3629   6.5803   6.6019   6.8595

          k = 0.0757-0.0569 0.0000 ( 32431 PWs)   bands (ev):

   -77.3961 -77.3891 -77.1685 -77.1615 -77.0156 -77.0085 -45.5245 -45.5164
   -45.3047 -45.2284 -45.1647 -45.0886 -45.0718 -45.0691 -45.0640 -45.0324
   -45.0253 -44.9926 -44.9066 -44.8990 -44.8636 -44.8561 -44.7674 -44.7597
    -4.3904  -4.3251  -4.2300  -4.2148  -4.1368  -4.1331  -4.0211  -3.9988
    -3.8696  -3.8316  -3.7913  -3.7520  -3.6987  -3.6453  -3.5656  -3.5450
    -3.5159  -3.3792  -3.3714  -3.3390  -3.2563  -3.1893  -3.1878  -3.1094
    -3.0513  -2.9479  -2.9317  -2.8447  -2.8188  -2.8152  -2.6599  -2.6368
    -2.3116  -2.0781  -2.0532  -1.9374  -1.7782  -1.6928  -1.2709  -1.2337
    -1.2021  -0.9978  -0.9759  -0.9372  -0.8554  -0.6116  -0.5292  -0.4888
    -0.4537  -0.3615  -0.3222  -0.3041  -0.2817  -0.1941  -0.1384  -0.0358
    -0.0183   0.0629   0.4628   0.4957   0.4968   0.6223   0.7163   0.8554
     1.6864   2.1900   2.6497   2.6948   3.1853   4.2836   4.3593   4.6928
     5.0352   6.1912   6.2748   6.7332   6.7922

          k = 0.0757-0.0407 0.0000 ( 32393 PWs)   bands (ev):

   -77.3961 -77.3891 -77.1685 -77.1615 -77.0156 -77.0085 -45.5244 -45.5164
   -45.3047 -45.2284 -45.1646 -45.0886 -45.0717 -45.0691 -45.0641 -45.0324
   -45.0253 -44.9926 -44.9066 -44.8989 -44.8636 -44.8561 -44.7673 -44.7597
    -4.4801  -4.3650  -4.2567  -4.2495  -4.1757  -4.1694  -4.0539  -4.0292
    -3.8927  -3.8796  -3.8322  -3.7501  -3.7482  -3.6546  -3.5581  -3.5283
    -3.5219  -3.4172  -3.3807  -3.3611  -3.2676  -3.2088  -3.1731  -3.0903
    -3.0499  -2.9459  -2.9447  -2.8325  -2.8275  -2.7663  -2.6734  -2.5229
    -2.3458  -2.0430  -2.0109  -1.8845  -1.6690  -1.6658  -1.3324  -1.1512
    -1.1309  -0.9937  -0.9350  -0.8171  -0.6927  -0.6072  -0.5150  -0.4989
    -0.4016  -0.3813  -0.3288  -0.3196  -0.2225  -0.1818  -0.1749  -0.0067
    -0.0039   0.0470   0.4632   0.4973   0.5442   0.5795   0.7157   0.9082
     2.0088   2.3563   2.3839   2.8888   3.3288   3.4772   4.0132   5.2809
     5.3332   5.5512   5.9832   6.5338   6.7766

          k = 0.0757-0.0244 0.0000 ( 32407 PWs)   bands (ev):

   -77.3961 -77.3891 -77.1685 -77.1615 -77.0156 -77.0085 -45.5244 -45.5164
   -45.3046 -45.2284 -45.1646 -45.0886 -45.0716 -45.0691 -45.0641 -45.0324
   -45.0253 -44.9926 -44.9066 -44.8989 -44.8636 -44.8561 -44.7673 -44.7597
    -4.5579  -4.3867  -4.2691  -4.2662  -4.1999  -4.1979  -4.0915  -4.0529
    -3.9338  -3.8980  -3.8750  -3.7860  -3.7368  -3.6685  -3.5489  -3.5292
    -3.5010  -3.4677  -3.3869  -3.3806  -3.2876  -3.2352  -3.1673  -3.0723
    -3.0678  -2.9566  -2.9486  -2.8280  -2.8272  -2.7276  -2.6989  -2.4288
    -2.3807  -2.0225  -2.0171  -1.8335  -1.6432  -1.5192  -1.3619  -1.1229
    -1.0738  -1.0005  -0.9117  -0.6807  -0.6563  -0.5146  -0.5028  -0.4346
    -0.3896  -0.3850  -0.3283  -0.3262  -0.1721  -0.1277  -0.0342   0.0050
     0.0276   0.1381   0.4359   0.4973   0.5201   0.5647   0.7211   1.0183
     1.6491   1.8541   2.5466   3.1654   3.3342   3.7540   4.1338   4.8069
     5.6776   5.6986   5.8343   6.3517   6.6186

          k = 0.0757-0.0081 0.0000 ( 32425 PWs)   bands (ev):

   -77.3961 -77.3891 -77.1685 -77.1615 -77.0156 -77.0085 -45.5244 -45.5164
   -45.3046 -45.2284 -45.1646 -45.0886 -45.0716 -45.0691 -45.0642 -45.0324
   -45.0253 -44.9926 -44.9065 -44.8989 -44.8635 -44.8561 -44.7673 -44.7597
    -4.6011  -4.3938  -4.2784  -4.2584  -4.2259  -4.2071  -4.1187  -4.0657
    -3.9470  -3.9108  -3.9080  -3.8028  -3.7245  -3.6801  -3.5418  -3.5344
    -3.5009  -3.4782  -3.3970  -3.3919  -3.3001  -3.2529  -3.1686  -3.0863
    -3.0622  -2.9640  -2.9509  -2.8261  -2.8212  -2.7208  -2.7097  -2.3986
    -2.3780  -2.0284  -2.0140  -1.8090  -1.6289  -1.3981  -1.3743  -1.1357
    -1.0411  -1.0020  -0.8827  -0.7281  -0.5672  -0.4768  -0.4673  -0.4117
    -0.3974  -0.3405  -0.3402  -0.3334  -0.1469  -0.0294   0.0034   0.0354
     0.1453   0.3032   0.4090   0.5293   0.5312   0.5786   0.7220   0.9597
     1.3577   1.7666   1.9234   3.6210   3.6837   4.0366   4.2304   4.7947
     5.0596   5.7559   6.1227   6.2539   6.5412

          k = 0.0757 0.0081 0.0000 ( 32425 PWs)   bands (ev):

   -77.3961 -77.3891 -77.1685 -77.1615 -77.0156 -77.0085 -45.5244 -45.5164
   -45.3046 -45.2284 -45.1646 -45.0886 -45.0716 -45.0691 -45.0642 -45.0324
   -45.0253 -44.9926 -44.9065 -44.8989 -44.8635 -44.8561 -44.7673 -44.7597
    -4.6011  -4.3938  -4.2784  -4.2584  -4.2259  -4.2071  -4.1187  -4.0657
    -3.9470  -3.9108  -3.9080  -3.8028  -3.7245  -3.6801  -3.5418  -3.5344
    -3.5009  -3.4782  -3.3970  -3.3919  -3.3001  -3.2529  -3.1686  -3.0863
    -3.0622  -2.9640  -2.9509  -2.8261  -2.8212  -2.7208  -2.7097  -2.3986
    -2.3780  -2.0284  -2.0140  -1.8090  -1.6289  -1.3981  -1.3743  -1.1357
    -1.0412  -1.0020  -0.8827  -0.7281  -0.5672  -0.4768  -0.4673  -0.4117
    -0.3974  -0.3405  -0.3402  -0.3334  -0.1469  -0.0294   0.0034   0.0353
     0.1453   0.3033   0.4091   0.5293   0.5312   0.5786   0.7220   0.9597
     1.3577   1.7666   1.9233   3.6210   3.6837   4.0366   4.2305   4.7947
     5.0596   5.7559   6.1225   6.2539   6.5414

          k = 0.0757 0.0244 0.0000 ( 32407 PWs)   bands (ev):

   -77.3961 -77.3891 -77.1685 -77.1615 -77.0156 -77.0085 -45.5244 -45.5164
   -45.3046 -45.2284 -45.1646 -45.0886 -45.0716 -45.0691 -45.0641 -45.0324
   -45.0253 -44.9926 -44.9066 -44.8989 -44.8636 -44.8561 -44.7673 -44.7597
    -4.5579  -4.3867  -4.2691  -4.2662  -4.1999  -4.1979  -4.0915  -4.0529
    -3.9338  -3.8980  -3.8750  -3.7860  -3.7368  -3.6685  -3.5489  -3.5293
    -3.5010  -3.4677  -3.3869  -3.3806  -3.2876  -3.2352  -3.1673  -3.0723
    -3.0678  -2.9566  -2.9487  -2.8280  -2.8272  -2.7276  -2.6989  -2.4288
    -2.3807  -2.0225  -2.0172  -1.8335  -1.6432  -1.5192  -1.3619  -1.1229
    -1.0738  -1.0005  -0.9117  -0.6807  -0.6563  -0.5146  -0.5028  -0.4346
    -0.3897  -0.3850  -0.3283  -0.3262  -0.1721  -0.1277  -0.0342   0.0050
     0.0276   0.1381   0.4360   0.4974   0.5202   0.5647   0.7211   1.0183
     1.6491   1.8541   2.5466   3.1654   3.3342   3.7539   4.1339   4.8069
     5.6776   5.6985   5.8343   6.3517   6.6187

          k =-0.0908-0.0488 0.0000 ( 32416 PWs)   bands (ev):

   -77.3926 -77.3925 -77.1651 -77.1649 -77.0123 -77.0118 -45.5205 -45.5204
   -45.2667 -45.2665 -45.1268 -45.1266 -45.0680 -45.0678 -45.0312 -45.0308
   -45.0289 -45.0287 -44.9028 -44.9027 -44.8601 -44.8596 -44.7638 -44.7633
    -4.3497  -4.3497  -4.2135  -4.2135  -4.1099  -4.1099  -4.0074  -4.0073
    -3.8254  -3.8254  -3.7455  -3.7454  -3.6747  -3.6745  -3.4945  -3.4943
    -3.3974  -3.3973  -3.3451  -3.3449  -3.2578  -3.2577  -3.2123  -3.2122
    -3.0660  -3.0659  -2.9071  -2.9070  -2.8217  -2.8217  -2.7673  -2.7671
    -2.1803  -2.1802  -1.9946  -1.9946  -1.6940  -1.6939  -1.1819  -1.1818
    -1.0541  -1.0540  -0.7450  -0.7449  -0.6704  -0.6702  -0.5187  -0.5185
    -0.4769  -0.4768  -0.3755  -0.3754  -0.3148  -0.3147  -0.2412  -0.2411
     0.0044   0.0045   0.4295   0.4296   0.5515   0.5516   0.7602   0.7602
     2.3278   2.3279   2.4776   2.4777   3.4012   3.4012   4.6455   4.6456
     5.4514   5.4514   6.4225   6.4225   7.0603

          k =-0.0908-0.0325 0.0000 ( 32411 PWs)   bands (ev):

   -77.3926 -77.3925 -77.1651 -77.1649 -77.0123 -77.0118 -45.5205 -45.5204
   -45.2667 -45.2665 -45.1268 -45.1266 -45.0680 -45.0678 -45.0312 -45.0308
   -45.0289 -45.0287 -44.9028 -44.9027 -44.8601 -44.8596 -44.7638 -44.7633
    -4.3697  -4.3183  -4.2202  -4.1960  -4.1111  -4.1000  -4.0362  -3.9947
    -3.8414  -3.8175  -3.7670  -3.7084  -3.6928  -3.6482  -3.5113  -3.4744
    -3.4291  -3.3840  -3.3544  -3.3293  -3.2655  -3.2587  -3.2239  -3.2158
    -3.1110  -3.0351  -2.9461  -2.8899  -2.8382  -2.8110  -2.7829  -2.7247
    -2.2417  -2.1469  -2.0183  -1.9653  -1.7751  -1.5842  -1.2854  -1.1742
    -1.0411  -0.9568  -0.8195  -0.7094  -0.6683  -0.6161  -0.5705  -0.5283
    -0.4838  -0.4272  -0.4006  -0.3529  -0.3141  -0.2682  -0.2408  -0.1150
     0.0022   0.0213   0.3945   0.4620   0.4820   0.5754   0.7466   0.7975
     1.6744   2.2473   2.4415   2.8923   3.1720   4.2097   4.3981   4.7379
     5.0239   6.1159   6.2575   6.6557   6.8518

          k =-0.0908-0.0163 0.0000 ( 32443 PWs)   bands (ev):

   -77.3927 -77.3925 -77.1651 -77.1649 -77.0123 -77.0118 -45.5205 -45.5204
   -45.2667 -45.2665 -45.1268 -45.1266 -45.0680 -45.0678 -45.0312 -45.0308
   -45.0289 -45.0287 -44.9028 -44.9027 -44.8601 -44.8596 -44.7638 -44.7633
    -4.3783  -4.2857  -4.2156  -4.1768  -4.1021  -4.0899  -4.0691  -3.9995
    -3.8516  -3.8168  -3.7850  -3.6990  -3.6845  -3.5987  -3.5165  -3.4663
    -3.4648  -3.4016  -3.3300  -3.3238  -3.2725  -3.2621  -3.2398  -3.2358
    -3.1641  -3.0184  -2.9859  -2.8838  -2.8428  -2.8135  -2.7941  -2.6768
    -2.2929  -2.1469  -2.0298  -1.9437  -1.8280  -1.4608  -1.3610  -1.2240
    -1.0084  -0.8666  -0.8541  -0.7071  -0.6690  -0.6010  -0.5481  -0.5370
    -0.5072  -0.4304  -0.3816  -0.3720  -0.2856  -0.2158  -0.1028   0.0257
     0.0304   0.1511   0.3375   0.3934   0.4944   0.5685   0.7439   0.8376
     1.1643   1.8669   2.1300   3.1421   4.0387   4.1378   4.2072   5.0958
     5.4424   5.9606   6.1337   6.5127   6.6927

          k =-0.0908 0.0000 0.0000 ( 32444 PWs)   bands (ev):

   -77.3927 -77.3925 -77.1651 -77.1649 -77.0123 -77.0118 -45.5205 -45.5204
   -45.2667 -45.2665 -45.1268 -45.1266 -45.0681 -45.0678 -45.0312 -45.0308
   -45.0289 -45.0287 -44.9028 -44.9027 -44.8601 -44.8596 -44.7638 -44.7633
    -4.3803  -4.2714  -4.2089  -4.1685  -4.0970  -4.0937  -4.0750  -4.0070
    -3.8533  -3.8168  -3.7951  -3.6992  -3.6840  -3.5410  -3.5068  -3.5028
    -3.4911  -3.3927  -3.3229  -3.3177  -3.2748  -3.2604  -3.2479  -3.2470
    -3.1969  -3.0132  -3.0015  -2.8817  -2.8432  -2.8158  -2.7996  -2.6575
    -2.3115  -2.1514  -2.0332  -1.9361  -1.8461  -1.3860  -1.3859  -1.2685
    -0.9921  -0.8832  -0.8195  -0.7031  -0.6737  -0.6036  -0.5637  -0.5385
    -0.4634  -0.4418  -0.3911  -0.3778  -0.2808  -0.2059   0.0329   0.0625
     0.1433   0.1511   0.2645   0.4800   0.5120   0.5584   0.6700   0.7432
     1.1503   1.4959   2.0891   3.4522   3.7281   4.1444   4.8890   5.0866
     5.6843   5.8470   6.0617   6.0878   6.6544

          k =-0.0908 0.0163 0.0000 ( 32443 PWs)   bands (ev):

   -77.3927 -77.3925 -77.1651 -77.1649 -77.0123 -77.0118 -45.5205 -45.5204
   -45.2667 -45.2665 -45.1268 -45.1266 -45.0680 -45.0678 -45.0312 -45.0308
   -45.0289 -45.0287 -44.9028 -44.9027 -44.8601 -44.8596 -44.7638 -44.7633
    -4.3783  -4.2857  -4.2156  -4.1767  -4.1020  -4.0898  -4.0691  -3.9996
    -3.8516  -3.8168  -3.7850  -3.6990  -3.6845  -3.5986  -3.5165  -3.4663
    -3.4648  -3.4017  -3.3300  -3.3238  -3.2725  -3.2621  -3.2398  -3.2358
    -3.1641  -3.0184  -2.9859  -2.8838  -2.8428  -2.8135  -2.7941  -2.6768
    -2.2929  -2.1469  -2.0298  -1.9437  -1.8279  -1.4608  -1.3610  -1.2240
    -1.0084  -0.8667  -0.8541  -0.7071  -0.6690  -0.6010  -0.5481  -0.5370
    -0.5071  -0.4304  -0.3816  -0.3720  -0.2856  -0.2158  -0.1028   0.0257
     0.0304   0.1510   0.3374   0.3934   0.4943   0.5685   0.7439   0.8376
     1.1643   1.8670   2.1300   3.1422   4.0387   4.1378   4.2072   5.0958
     5.4425   5.9606   6.1334   6.5126   6.6922

          k =-0.0908 0.0325 0.0000 ( 32411 PWs)   bands (ev):

   -77.3926 -77.3925 -77.1651 -77.1649 -77.0123 -77.0118 -45.5205 -45.5204
   -45.2667 -45.2665 -45.1268 -45.1266 -45.0680 -45.0678 -45.0312 -45.0308
   -45.0289 -45.0287 -44.9028 -44.9027 -44.8601 -44.8596 -44.7638 -44.7633
    -4.3696  -4.3183  -4.2202  -4.1960  -4.1111  -4.1000  -4.0362  -3.9947
    -3.8414  -3.8175  -3.7670  -3.7084  -3.6927  -3.6482  -3.5113  -3.4744
    -3.4291  -3.3840  -3.3544  -3.3294  -3.2655  -3.2587  -3.2239  -3.2158
    -3.1110  -3.0351  -2.9460  -2.8899  -2.8382  -2.8110  -2.7829  -2.7247
    -2.2417  -2.1470  -2.0183  -1.9654  -1.7751  -1.5841  -1.2854  -1.1742
    -1.0411  -0.9568  -0.8195  -0.7094  -0.6683  -0.6161  -0.5706  -0.5283
    -0.4838  -0.4272  -0.4006  -0.3529  -0.3141  -0.2682  -0.2408  -0.1150
     0.0022   0.0213   0.3944   0.4619   0.4820   0.5754   0.7466   0.7975
     1.6744   2.2473   2.4415   2.8924   3.1720   4.2097   4.3981   4.7379
     5.0240   6.1159   6.2575   6.6556   6.8518

          k =-0.0908-0.1464 0.0000 ( 32416 PWs)   bands (ev):

   -77.3926 -77.3925 -77.1651 -77.1649 -77.0123 -77.0118 -45.5205 -45.5204
   -45.2667 -45.2665 -45.1268 -45.1266 -45.0680 -45.0678 -45.0312 -45.0308
   -45.0289 -45.0287 -44.9028 -44.9027 -44.8601 -44.8596 -44.7638 -44.7633
    -4.3497  -4.3497  -4.2134  -4.2134  -4.1099  -4.1099  -4.0074  -4.0073
    -3.8254  -3.8254  -3.7455  -3.7455  -3.6747  -3.6745  -3.4945  -3.4943
    -3.3974  -3.3973  -3.3451  -3.3450  -3.2578  -3.2577  -3.2123  -3.2122
    -3.0660  -3.0658  -2.9070  -2.9069  -2.8218  -2.8217  -2.7674  -2.7671
    -2.1804  -2.1803  -1.9946  -1.9946  -1.6939  -1.6939  -1.1819  -1.1818
    -1.0541  -1.0540  -0.7450  -0.7449  -0.6704  -0.6703  -0.5187  -0.5186
    -0.4769  -0.4768  -0.3755  -0.3754  -0.3148  -0.3147  -0.2412  -0.2411
     0.0044   0.0045   0.4294   0.4295   0.5515   0.5516   0.7602   0.7602
     2.3279   2.3280   2.4777   2.4777   3.4012   3.4012   4.6456   4.6457
     5.4514   5.4514   6.4225   6.4225   7.0601

     the Fermi energy is     0.7132 ev

!    total energy              =   -1874.83515587 Ry
     estimated scf accuracy    <       0.00000434 Ry
     smearing contrib. (-TS)   =      -0.08257964 Ry
     internal energy E=F+TS    =   -1874.75257624 Ry

     The total energy is F=E-TS. E is the sum of the following terms:
     one-electron contribution =  -14988.42945460 Ry
     hartree contribution      =    7540.95822389 Ry
     xc contribution           =    -323.32187614 Ry
     ewald contribution        =    5896.04052903 Ry
     electric field correction =       0.00000158 Ry

     convergence has been achieved in  15 iterations

     negative rho (up, down):  1.211E-03 0.000E+00

     Forces acting on atoms (cartesian axes, Ry/au):

     atom    1 type  1   force =     0.00000043    0.01318605    0.01937207
     atom    2 type  1   force =    -0.00000004    0.01318389    0.01930369
     atom    3 type  2   force =     0.00000394   -0.00675035   -0.01894985
     atom    4 type  2   force =    -0.00000444   -0.00674989   -0.01894978
     atom    5 type  1   force =    -0.00000498   -0.01293204   -0.00204959
     atom    6 type  1   force =    -0.00000592   -0.01288875   -0.00199887
     atom    7 type  2   force =    -0.00003878    0.00764031    0.00393388
     atom    8 type  2   force =     0.00003310    0.00764123    0.00393155
     atom    9 type  1   force =     0.00000075   -0.00088423   -0.00129560
     atom   10 type  1   force =    -0.00000015   -0.00086141   -0.00129562
     atom   11 type  2   force =     0.00006855   -0.00029206   -0.00100111
     atom   12 type  2   force =    -0.00005245   -0.00029274   -0.00100078

     Total force =     0.049002     Total SCF correction =     0.008956
     SCF correction compared to forces is large: reduce conv_thr to get better values

     Writing output data file ./Rh2Ag2/Rh2Ag2_beef.save/

     init_run     :     84.08s CPU     84.59s WALL (       1 calls)
     electrons    :   3124.67s CPU   3138.33s WALL (       1 calls)
     forces       :     65.96s CPU     66.24s WALL (       1 calls)

     Called by init_run:
     wfcinit      :     72.68s CPU     72.96s WALL (       1 calls)
     potinit      :      7.75s CPU      7.85s WALL (       1 calls)
     hinit0       :      2.04s CPU      2.05s WALL (       1 calls)

     Called by electrons:
     c_bands      :   2756.54s CPU   2763.95s WALL (      15 calls)
     sum_band     :    335.87s CPU    338.92s WALL (      15 calls)
     v_of_rho     :     23.37s CPU     24.61s WALL (      16 calls)
     newd         :     15.55s CPU     17.53s WALL (      16 calls)
     mix_rho      :      0.62s CPU      0.63s WALL (      15 calls)
     vdW_kernel   :      5.69s CPU      5.70s WALL (       1 calls)

     Called by c_bands:
     init_us_2    :     11.07s CPU     11.13s WALL (    2368 calls)
     cegterg      :   2728.77s CPU   2735.00s WALL (    1110 calls)

     Called by *egterg:
     cdiaghg      :    131.03s CPU    131.10s WALL (    5074 calls)
     h_psi        :   1326.22s CPU   1331.46s WALL (    5148 calls)
     s_psi        :    454.70s CPU    454.78s WALL (    5148 calls)
     g_psi        :      0.94s CPU      0.94s WALL (    3964 calls)

     Called by h_psi:
     h_psi:calbec :    461.15s CPU    461.76s WALL (    5148 calls)
     vloc_psi     :    397.25s CPU    401.74s WALL (    5148 calls)
     add_vuspsi   :    462.10s CPU    462.22s WALL (    5148 calls)

     General routines
     calbec       :    727.88s CPU    728.88s WALL (    6554 calls)
     fft          :     13.49s CPU     13.91s WALL (    1067 calls)
     ffts         :      0.05s CPU      0.06s WALL (      31 calls)
     fftw         :    468.06s CPU    473.13s WALL (  606588 calls)
     interpolate  :      0.23s CPU      0.24s WALL (      16 calls)

     Parallel routines
     fft_scatt_xy :     39.38s CPU     39.78s WALL (  607686 calls)
     fft_scatt_yz :     86.09s CPU     87.44s WALL (  607686 calls)

     PWSCF        :  54m45.03s CPU  55m21.84s WALL


   This run was terminated on:  18:43:33  10Jul2022            

=------------------------------------------------------------------------------=
   JOB DONE.
=------------------------------------------------------------------------------=
