
     Program PWSCF v.6.6 starts on 11Jul2022 at  0: 7: 4 

     This program is part of the open-source Quantum ESPRESSO suite
     for quantum simulation of materials; please cite
         "P. Giannozzi et al., J. Phys.:Condens. Matter 21 395502 (2009);
         "P. Giannozzi et al., J. Phys.:Condens. Matter 29 465901 (2017);
          URL http://www.quantum-espresso.org", 
     in publications or presentations arising from this work. More details at
     http://www.quantum-espresso.org/quote

     Parallel version (MPI), running on    37 processors

     MPI processes distributed on     3 nodes
     R & G space division:  proc/nbgrp/npool/nimage =      37
     Fft bands division:     nmany     =       1
     Reading input from Rh2Au2.in
Warning: card &CELL ignored
Warning: card / ignored

     Current dimensions of program PWSCF are:
     Max number of different atomic species (ntypx) = 10
     Max number of k-points (npk) =  40000
     Max angular momentum in pseudopotentials (lmaxx) =  3
     Presently stress not available with electric field and gates

     Message from routine cell_base_init:
     DEPRECATED: use true lattice parameter, not A to a.u. conversion factor
     file Rh.pbe-spn-rrkjus_psl.1.0.0.UPF: wavefunction(s)  4S 5S renormalized

     **************************************************************************
     Initializing libbeef V0.1.2 with the BEEF-vdW functional.
     Citation: Wellendorff et al., PRB 85, 235149 (2012).
     **************************************************************************


     IMPORTANT: XC functional enforced from input :
     Exchange-correlation= BEEF-VDW
                           (   1   4  43  14   2   0   0)
     Any further DFT definition will be discarded
     Please, verify this is what you really want


     Subspace diagonalization in iterative solution of the eigenvalue problem:
     a serial algorithm will be used


     Parallelization info
     --------------------
     sticks:   dense  smooth     PW     G-vecs:    dense   smooth      PW
     Min         119      47     13                27657     6985    1079
     Max         120      48     14                27670     7006    1106
     Sum        4413    1761    509              1023445   258837   40515



     bravais-lattice index     =            0
     lattice parameter (alat)  =       1.8897  a.u.
     unit-cell volume          =    4681.0892 (a.u.)^3
     number of atoms/cell      =           12
     number of atomic types    =            2
     number of electrons       =       168.00
     number of Kohn-Sham states=          101
     kinetic-energy cutoff     =      55.1240  Ry
     charge density cutoff     =     551.2396  Ry
     convergence threshold     =      1.0E-05
     mixing beta               =       0.1000
     number of iterations used =           10  plain     mixing
     Exchange-correlation= BEEF-VDW
                           (   1   4  43  14   2   0   0)

     celldm(1)=   1.889726  celldm(2)=   0.000000  celldm(3)=   0.000000
     celldm(4)=   0.000000  celldm(5)=   0.000000  celldm(6)=   0.000000

     crystal axes: (cart. coord. in units of alat)
               a(1) = (   5.641015   0.000000   0.000000 )  
               a(2) = (  -2.820507   4.988046   0.000000 )  
               a(3) = (   0.000000   0.000000  24.652598 )  

     reciprocal axes: (cart. coord. in units 2 pi/alat)
               b(1) = (  0.177273  0.100240 -0.000000 )  
               b(2) = (  0.000000  0.200479  0.000000 )  
               b(3) = (  0.000000 -0.000000  0.040564 )  


     PseudoPot. # 1 for Rh read from file:
     ../pseudo/Rh.pbe-spn-rrkjus_psl.1.0.0.UPF
     MD5 check sum: 912a852783f0c9b7bd5e9eb06cc0cc10
     Pseudo is Ultrasoft + core correction, Zval = 17.0
     Generated using "atomic" code by A. Dal Corso v.6.3
     Using radial grid of 1233 points,  6 beta functions with: 
                l(1) =   0
                l(2) =   0
                l(3) =   1
                l(4) =   1
                l(5) =   2
                l(6) =   2
     Q(r) pseudized with 0 coefficients 


     PseudoPot. # 2 for Au read from file:
     ../pseudo/Au.pbe-n-rrkjus_psl.1.0.0.UPF
     MD5 check sum: d7e77ba19504afed2c9b41c931dde4f0
     Pseudo is Ultrasoft + core correction, Zval = 11.0
     Generated using "atomic" code by A. Dal Corso v.6.3
     Using radial grid of 1279 points,  6 beta functions with: 
                l(1) =   0
                l(2) =   0
                l(3) =   1
                l(4) =   1
                l(5) =   2
                l(6) =   2
     Q(r) pseudized with 0 coefficients 


     atomic species   valence    mass     pseudopotential
        Rh            17.00   102.90550     Rh( 1.00)
        Au            11.00   196.96657     Au( 1.00)

     No symmetry found



   Cartesian axes

     site n.     atom                  positions (alat units)
         1           Rh  tau(   1) = (   0.0000000   0.0000000  10.0000000  )
         2           Rh  tau(   2) = (   2.8205074   0.0000000  10.0000000  )
         3           Au  tau(   3) = (   1.4102537   2.4940232  10.0000000  )
         4           Au  tau(   4) = (  -1.4102537   2.4940232  10.0000000  )
         5           Rh  tau(   5) = (   2.8205074   1.5948653  12.3262989  )
         6           Rh  tau(   6) = (  -0.0000000   1.5948653  12.3262989  )
         7           Au  tau(   7) = (  -1.4102537   4.0888885  12.3262989  )
         8           Au  tau(   8) = (   1.4102537   4.0888885  12.3262989  )
         9           Rh  tau(   9) = (  -0.0000341   2.9617472  14.5595618  )
        10           Rh  tau(  10) = (   2.8205288   2.9611114  14.5596208  )
        11           Au  tau(  11) = (   4.2298454   0.5151494  14.8263517  )
        12           Au  tau(  12) = (   1.4111641   0.5152169  14.8262538  )

     number of k points=    74  Fermi-Dirac smearing, width (Ry)=  0.0100
                       cart. coord. in units 2pi/alat
        k(    1) = (   0.0000000   0.0000000   0.0000000), wk =   0.0138889
        k(    2) = (   0.0000000   0.0167066   0.0000000), wk =   0.0277778
        k(    3) = (   0.0000000   0.0334132   0.0000000), wk =   0.0277778
        k(    4) = (   0.0000000   0.0501198   0.0000000), wk =   0.0277778
        k(    5) = (   0.0000000   0.0668264   0.0000000), wk =   0.0277778
        k(    6) = (   0.0000000   0.0835330   0.0000000), wk =   0.0277778
        k(    7) = (   0.0000000  -0.1002397   0.0000000), wk =   0.0138889
        k(    8) = (   0.0147728   0.0083533   0.0000000), wk =   0.0277778
        k(    9) = (   0.0147728   0.0250599   0.0000000), wk =   0.0277778
        k(   10) = (   0.0147728   0.0417665   0.0000000), wk =   0.0277778
        k(   11) = (   0.0147728   0.0584731   0.0000000), wk =   0.0277778
        k(   12) = (   0.0147728   0.0751797   0.0000000), wk =   0.0277778
        k(   13) = (   0.0147728   0.0918863   0.0000000), wk =   0.0277778
        k(   14) = (   0.0147728  -0.0918864   0.0000000), wk =   0.0277778
        k(   15) = (   0.0147728  -0.0751797   0.0000000), wk =   0.0277778
        k(   16) = (   0.0147728  -0.0584731   0.0000000), wk =   0.0277778
        k(   17) = (   0.0147728  -0.0417665   0.0000000), wk =   0.0277778
        k(   18) = (   0.0147728  -0.0250599   0.0000000), wk =   0.0277778
        k(   19) = (   0.0147728  -0.0083533   0.0000000), wk =   0.0277778
        k(   20) = (   0.0295455   0.0167066   0.0000000), wk =   0.0277778
        k(   21) = (   0.0295455   0.0334132   0.0000000), wk =   0.0277778
        k(   22) = (   0.0295455   0.0501198   0.0000000), wk =   0.0277778
        k(   23) = (   0.0295455   0.0668264   0.0000000), wk =   0.0277778
        k(   24) = (   0.0295455   0.0835330   0.0000000), wk =   0.0277778
        k(   25) = (   0.0295455   0.1002397   0.0000000), wk =   0.0277778
        k(   26) = (   0.0295455  -0.0835330   0.0000000), wk =   0.0277778
        k(   27) = (   0.0295455  -0.0668264   0.0000000), wk =   0.0277778
        k(   28) = (   0.0295455  -0.0501198   0.0000000), wk =   0.0277778
        k(   29) = (   0.0295455  -0.0334132   0.0000000), wk =   0.0277778
        k(   30) = (   0.0295455  -0.0167066   0.0000000), wk =   0.0277778
        k(   31) = (   0.0295455  -0.0000000   0.0000000), wk =   0.0277778
        k(   32) = (   0.0443183   0.0250599   0.0000000), wk =   0.0277778
        k(   33) = (   0.0443183   0.0417665   0.0000000), wk =   0.0277778
        k(   34) = (   0.0443183   0.0584731   0.0000000), wk =   0.0277778
        k(   35) = (   0.0443183   0.0751797   0.0000000), wk =   0.0277778
        k(   36) = (   0.0443183   0.0918863   0.0000000), wk =   0.0277778
        k(   37) = (   0.0443183   0.1085930   0.0000000), wk =   0.0277778
        k(   38) = (   0.0443183  -0.0751797   0.0000000), wk =   0.0277778
        k(   39) = (   0.0443183  -0.0584731   0.0000000), wk =   0.0277778
        k(   40) = (   0.0443183  -0.0417665   0.0000000), wk =   0.0277778
        k(   41) = (   0.0443183  -0.0250599   0.0000000), wk =   0.0277778
        k(   42) = (   0.0443183  -0.0083533   0.0000000), wk =   0.0277778
        k(   43) = (   0.0443183   0.0083533   0.0000000), wk =   0.0277778
        k(   44) = (   0.0590910   0.0334132   0.0000000), wk =   0.0277778
        k(   45) = (   0.0590910   0.0501198   0.0000000), wk =   0.0277778
        k(   46) = (   0.0590910   0.0668264   0.0000000), wk =   0.0277778
        k(   47) = (   0.0590910   0.0835330   0.0000000), wk =   0.0277778
        k(   48) = (   0.0590910   0.1002396   0.0000000), wk =   0.0277778
        k(   49) = (   0.0590910   0.1169463   0.0000000), wk =   0.0277778
        k(   50) = (   0.0590910  -0.0668264   0.0000000), wk =   0.0277778
        k(   51) = (   0.0590910  -0.0501198   0.0000000), wk =   0.0277778
        k(   52) = (   0.0590910  -0.0334132   0.0000000), wk =   0.0277778
        k(   53) = (   0.0590910  -0.0167066   0.0000000), wk =   0.0277778
        k(   54) = (   0.0590910  -0.0000000   0.0000000), wk =   0.0277778
        k(   55) = (   0.0590910   0.0167066   0.0000000), wk =   0.0277778
        k(   56) = (   0.0738638   0.0417665   0.0000000), wk =   0.0277778
        k(   57) = (   0.0738638   0.0584731   0.0000000), wk =   0.0277778
        k(   58) = (   0.0738638   0.0751797   0.0000000), wk =   0.0277778
        k(   59) = (   0.0738638   0.0918863   0.0000000), wk =   0.0277778
        k(   60) = (   0.0738638   0.1085929   0.0000000), wk =   0.0277778
        k(   61) = (   0.0738638   0.1252996   0.0000000), wk =   0.0277778
        k(   62) = (   0.0738638  -0.0584731   0.0000000), wk =   0.0277778
        k(   63) = (   0.0738638  -0.0417665   0.0000000), wk =   0.0277778
        k(   64) = (   0.0738638  -0.0250599   0.0000000), wk =   0.0277778
        k(   65) = (   0.0738638  -0.0083533   0.0000000), wk =   0.0277778
        k(   66) = (   0.0738638   0.0083533   0.0000000), wk =   0.0277778
        k(   67) = (   0.0738638   0.0250599   0.0000000), wk =   0.0277778
        k(   68) = (  -0.0886365  -0.0501198   0.0000000), wk =   0.0138889
        k(   69) = (  -0.0886365  -0.0334132   0.0000000), wk =   0.0277778
        k(   70) = (  -0.0886365  -0.0167066   0.0000000), wk =   0.0277778
        k(   71) = (  -0.0886365   0.0000000   0.0000000), wk =   0.0277778
        k(   72) = (  -0.0886365   0.0167066   0.0000000), wk =   0.0277778
        k(   73) = (  -0.0886365   0.0334132   0.0000000), wk =   0.0277778
        k(   74) = (  -0.0886365  -0.1503595   0.0000000), wk =   0.0138889

     Dense  grid:  1023445 G-vectors     FFT dimensions: (  80,  81, 360)

     Smooth grid:   258837 G-vectors     FFT dimensions: (  54,  54, 225)

     Estimated max dynamical RAM per process >     211.52 MB

     Estimated total dynamical RAM >       7.64 GB

     Initial potential from superposition of free atoms

     starting charge  167.99640, renormalised to  168.00000

     negative rho (up, down):  1.488E-03 0.000E+00


     %%%%%%%%%%%%%%%%%%%%%%%%%%%%%%%%%%%%%%%%%%%%%%%%%%%%%%%%%%%%%%%%%%%%%%%%
     %                                                                      %
     % You are using vdW-DF, which was implemented by the Thonhauser group. %
     % Please cite the following two papers that made this development      %
     % possible and the two reviews that describe the various versions:     %
     %                                                                      %
     %   T. Thonhauser et al., PRL 115, 136402 (2015).                      %
     %   T. Thonhauser et al., PRB 76, 125112 (2007).                       %
     %   K. Berland et al., Rep. Prog. Phys. 78, 066501 (2015).             %
     %   D.C. Langreth et al., J. Phys.: Condens. Matter 21, 084203 (2009). %
     %                                                                      %
     %                                                                      %
     % If you are calculating the stress with vdW-DF, please also cite:     %
     %                                                                      %
     %   R. Sabatini et al., J. Phys.: Condens. Matter 24, 424209 (2012).   %
     %                                                                      %
     %%%%%%%%%%%%%%%%%%%%%%%%%%%%%%%%%%%%%%%%%%%%%%%%%%%%%%%%%%%%%%%%%%%%%%%%



     Adding external electric field

     Computed dipole along edir(3) : 
        Dipole               -0.0001 Ry au,         -0.0003 Debye
        Dipole field         -0.0000 Ry au, 

        Potential amp.        0.0000 Ry
        Total length         45.4220 bohr

     Starting wfcs are  114 randomized atomic wfcs

     total cpu time spent up to now is       95.4 secs

     Self-consistent Calculation

     iteration #  1     ecut=    55.12 Ry     beta= 0.10
     Davidson diagonalization with overlap
     ethr =  1.00E-02,  avg # of iterations =  5.4

     negative rho (up, down):  1.401E-03 0.000E+00

     Adding external electric field

     Computed dipole along edir(3) : 
        Dipole                0.2443 Ry au,          0.6209 Debye
        Dipole field          0.0007 Ry au, 

        Potential amp.       -0.0596 Ry
        Total length         45.4220 bohr


     total cpu time spent up to now is      339.2 secs

     total energy              =   -1882.21892381 Ry
     estimated scf accuracy    <      16.20174182 Ry

     iteration #  2     ecut=    55.12 Ry     beta= 0.10
     Davidson diagonalization with overlap
     ethr =  9.64E-03,  avg # of iterations =  1.0

     negative rho (up, down):  1.388E-03 0.000E+00

     Adding external electric field

     Computed dipole along edir(3) : 
        Dipole               -0.6821 Ry au,         -1.7337 Debye
        Dipole field         -0.0018 Ry au, 

        Potential amp.        0.1663 Ry
        Total length         45.4220 bohr


     total cpu time spent up to now is      502.8 secs

     total energy              =   -1883.21937143 Ry
     estimated scf accuracy    <       1.70244796 Ry

     iteration #  3     ecut=    55.12 Ry     beta= 0.10
     Davidson diagonalization with overlap
     ethr =  1.01E-03,  avg # of iterations =  6.9

     negative rho (up, down):  1.400E-03 0.000E+00

     Adding external electric field

     Computed dipole along edir(3) : 
        Dipole                0.1161 Ry au,          0.2952 Debye
        Dipole field          0.0003 Ry au, 

        Potential amp.       -0.0283 Ry
        Total length         45.4220 bohr


     total cpu time spent up to now is      737.2 secs

     total energy              =   -1882.99399899 Ry
     estimated scf accuracy    <      33.49212716 Ry

     iteration #  4     ecut=    55.12 Ry     beta= 0.10
     Davidson diagonalization with overlap
     ethr =  1.01E-03,  avg # of iterations =  2.1

     negative rho (up, down):  1.413E-03 0.000E+00

     Adding external electric field

     Computed dipole along edir(3) : 
        Dipole                0.0260 Ry au,          0.0661 Debye
        Dipole field          0.0001 Ry au, 

        Potential amp.       -0.0063 Ry
        Total length         45.4220 bohr


     total cpu time spent up to now is      938.3 secs

     total energy              =   -1883.46903131 Ry
     estimated scf accuracy    <       0.84036004 Ry

     iteration #  5     ecut=    55.12 Ry     beta= 0.10
     Davidson diagonalization with overlap
     ethr =  5.00E-04,  avg # of iterations =  1.5

     negative rho (up, down):  1.429E-03 0.000E+00

     Adding external electric field

     Computed dipole along edir(3) : 
        Dipole                0.0261 Ry au,          0.0664 Debye
        Dipole field          0.0001 Ry au, 

        Potential amp.       -0.0064 Ry
        Total length         45.4220 bohr


     total cpu time spent up to now is     1115.6 secs

     total energy              =   -1883.48323685 Ry
     estimated scf accuracy    <       0.14760085 Ry

     iteration #  6     ecut=    55.12 Ry     beta= 0.10
     Davidson diagonalization with overlap
     c_bands:  1 eigenvalues not converged
     c_bands:  2 eigenvalues not converged
     ethr =  8.79E-05,  avg # of iterations = 11.7

     negative rho (up, down):  1.474E-03 0.000E+00

     Adding external electric field

     Computed dipole along edir(3) : 
        Dipole               -0.0103 Ry au,         -0.0261 Debye
        Dipole field         -0.0000 Ry au, 

        Potential amp.        0.0025 Ry
        Total length         45.4220 bohr


     total cpu time spent up to now is     1370.7 secs

     total energy              =   -1883.48344314 Ry
     estimated scf accuracy    <       0.05510889 Ry

     iteration #  7     ecut=    55.12 Ry     beta= 0.10
     Davidson diagonalization with overlap
     ethr =  3.28E-05,  avg # of iterations =  4.5

     negative rho (up, down):  1.553E-03 0.000E+00

     Adding external electric field

     Computed dipole along edir(3) : 
        Dipole                0.0002 Ry au,          0.0004 Debye
        Dipole field          0.0000 Ry au, 

        Potential amp.       -0.0000 Ry
        Total length         45.4220 bohr


     total cpu time spent up to now is     1597.6 secs

     total energy              =   -1883.48499248 Ry
     estimated scf accuracy    <       0.01934549 Ry

     iteration #  8     ecut=    55.12 Ry     beta= 0.10
     Davidson diagonalization with overlap
     c_bands:  1 eigenvalues not converged
     c_bands:  1 eigenvalues not converged
     c_bands:  1 eigenvalues not converged
     c_bands:  1 eigenvalues not converged
     c_bands:  2 eigenvalues not converged
     c_bands:  3 eigenvalues not converged
     ethr =  1.15E-05,  avg # of iterations =  8.2

     negative rho (up, down):  1.627E-03 0.000E+00

     Adding external electric field

     Computed dipole along edir(3) : 
        Dipole               -0.0082 Ry au,         -0.0208 Debye
        Dipole field         -0.0000 Ry au, 

        Potential amp.        0.0020 Ry
        Total length         45.4220 bohr


     total cpu time spent up to now is     1840.7 secs

     total energy              =   -1883.48574591 Ry
     estimated scf accuracy    <       0.00595530 Ry

     iteration #  9     ecut=    55.12 Ry     beta= 0.10
     Davidson diagonalization with overlap
     c_bands:  1 eigenvalues not converged
     c_bands:  2 eigenvalues not converged
     c_bands:  1 eigenvalues not converged
     c_bands:  2 eigenvalues not converged
     c_bands:  1 eigenvalues not converged
     c_bands:  1 eigenvalues not converged
     c_bands:  1 eigenvalues not converged
     ethr =  3.54E-06,  avg # of iterations =  9.3

     negative rho (up, down):  1.617E-03 0.000E+00

     Adding external electric field

     Computed dipole along edir(3) : 
        Dipole               -0.0078 Ry au,         -0.0197 Debye
        Dipole field         -0.0000 Ry au, 

        Potential amp.        0.0019 Ry
        Total length         45.4220 bohr


     total cpu time spent up to now is     2104.1 secs

     total energy              =   -1883.48647047 Ry
     estimated scf accuracy    <       0.00262076 Ry

     iteration # 10     ecut=    55.12 Ry     beta= 0.10
     Davidson diagonalization with overlap
     c_bands:  1 eigenvalues not converged
     ethr =  1.56E-06,  avg # of iterations =  2.6

     negative rho (up, down):  1.611E-03 0.000E+00

     Adding external electric field

     Computed dipole along edir(3) : 
        Dipole               -0.0071 Ry au,         -0.0181 Debye
        Dipole field         -0.0000 Ry au, 

        Potential amp.        0.0017 Ry
        Total length         45.4220 bohr


     total cpu time spent up to now is     2314.0 secs

     total energy              =   -1883.48652329 Ry
     estimated scf accuracy    <       0.00071743 Ry

     iteration # 11     ecut=    55.12 Ry     beta= 0.10
     Davidson diagonalization with overlap
     ethr =  4.27E-07,  avg # of iterations =  4.7

     negative rho (up, down):  1.611E-03 0.000E+00

     Adding external electric field

     Computed dipole along edir(3) : 
        Dipole               -0.0090 Ry au,         -0.0229 Debye
        Dipole field         -0.0000 Ry au, 

        Potential amp.        0.0022 Ry
        Total length         45.4220 bohr


     total cpu time spent up to now is     2562.1 secs

     total energy              =   -1883.48663361 Ry
     estimated scf accuracy    <       0.00153545 Ry

     iteration # 12     ecut=    55.12 Ry     beta= 0.10
     Davidson diagonalization with overlap
     ethr =  4.27E-07,  avg # of iterations =  1.6

     negative rho (up, down):  1.608E-03 0.000E+00

     Adding external electric field

     Computed dipole along edir(3) : 
        Dipole               -0.0104 Ry au,         -0.0265 Debye
        Dipole field         -0.0000 Ry au, 

        Potential amp.        0.0025 Ry
        Total length         45.4220 bohr


     total cpu time spent up to now is     2741.8 secs

     total energy              =   -1883.48665022 Ry
     estimated scf accuracy    <       0.00063415 Ry

     iteration # 13     ecut=    55.12 Ry     beta= 0.10
     Davidson diagonalization with overlap
     ethr =  3.77E-07,  avg # of iterations =  1.0

     negative rho (up, down):  1.601E-03 0.000E+00

     Adding external electric field

     Computed dipole along edir(3) : 
        Dipole               -0.0084 Ry au,         -0.0214 Debye
        Dipole field         -0.0000 Ry au, 

        Potential amp.        0.0021 Ry
        Total length         45.4220 bohr


     total cpu time spent up to now is     2906.3 secs

     total energy              =   -1883.48667869 Ry
     estimated scf accuracy    <       0.00021760 Ry

     iteration # 14     ecut=    55.12 Ry     beta= 0.10
     Davidson diagonalization with overlap
     ethr =  1.30E-07,  avg # of iterations =  1.4

     negative rho (up, down):  1.597E-03 0.000E+00

     Adding external electric field

     Computed dipole along edir(3) : 
        Dipole               -0.0077 Ry au,         -0.0195 Debye
        Dipole field         -0.0000 Ry au, 

        Potential amp.        0.0019 Ry
        Total length         45.4220 bohr


     total cpu time spent up to now is     3084.9 secs

     total energy              =   -1883.48668564 Ry
     estimated scf accuracy    <       0.00002684 Ry

     iteration # 15     ecut=    55.12 Ry     beta= 0.10
     Davidson diagonalization with overlap
     ethr =  1.60E-08,  avg # of iterations =  4.7

     negative rho (up, down):  1.591E-03 0.000E+00

     Adding external electric field

     Computed dipole along edir(3) : 
        Dipole               -0.0075 Ry au,         -0.0191 Debye
        Dipole field         -0.0000 Ry au, 

        Potential amp.        0.0018 Ry
        Total length         45.4220 bohr


     total cpu time spent up to now is     3377.2 secs

     total energy              =   -1883.48669232 Ry
     estimated scf accuracy    <       0.00001312 Ry

     iteration # 16     ecut=    55.12 Ry     beta= 0.10
     Davidson diagonalization with overlap
     ethr =  7.81E-09,  avg # of iterations =  1.4

     negative rho (up, down):  1.578E-03 0.000E+00

     Adding external electric field

     Computed dipole along edir(3) : 
        Dipole               -0.0019 Ry au,         -0.0047 Debye
        Dipole field         -0.0000 Ry au, 

        Potential amp.        0.0005 Ry
        Total length         45.4220 bohr


     total cpu time spent up to now is     3557.7 secs

     End of self-consistent calculation

          k = 0.0000 0.0000 0.0000 ( 32345 PWs)   bands (ev):

   -77.2689 -77.2492 -77.1024 -77.0827 -76.9761 -76.9563 -45.3285 -45.3050
   -45.2177 -45.1325 -45.0523 -45.0323 -45.0099 -44.9872 -44.9701 -44.9486
   -44.9040 -44.8753 -44.8602 -44.8530 -44.8384 -44.8224 -44.7252 -44.7030
    -6.5884  -5.2941  -5.1442  -4.9419  -4.7712  -4.7419  -4.5793  -4.5305
    -4.4205  -4.3591  -4.3456  -4.2159  -4.1022  -4.0769  -3.7707  -3.5008
    -3.2675  -3.1803  -3.0865  -2.9385  -2.7661  -2.6284  -2.6060  -2.6056
    -2.5028  -2.2290  -2.1920  -2.1491  -2.0722  -1.9265  -1.5866  -1.5710
    -1.5514  -1.4429  -1.3312  -0.9389  -0.9270  -0.8012  -0.7588  -0.6827
    -0.4324  -0.3915  -0.2926  -0.0909   0.0043   0.0580   0.1828   0.2734
     0.2954   0.3062   0.5503   0.5536   0.6346   0.6594   0.9213   0.9267
     0.9810   1.0306   1.0904   1.1845   1.2316   1.3320   1.6986   1.9020
     2.2139   2.5547   2.5619   3.3476   3.5757   3.6834   3.8100   4.0440
     4.1688   5.3617   5.4552   5.7572   6.0533

          k = 0.0000 0.0167 0.0000 ( 32365 PWs)   bands (ev):

   -77.2689 -77.2492 -77.1024 -77.0827 -76.9761 -76.9563 -45.3285 -45.3050
   -45.2178 -45.1326 -45.0524 -45.0324 -45.0099 -44.9872 -44.9702 -44.9486
   -44.9040 -44.8753 -44.8603 -44.8530 -44.8384 -44.8224 -44.7252 -44.7030
    -6.5434  -5.2640  -5.1183  -4.9140  -4.7479  -4.7196  -4.5499  -4.5116
    -4.4042  -4.3233  -4.3201  -4.1871  -4.0809  -4.0507  -3.7289  -3.5008
    -3.2619  -3.1701  -3.0732  -2.9334  -2.7433  -2.6712  -2.5842  -2.5804
    -2.4920  -2.2709  -2.1735  -2.1476  -2.0544  -1.9388  -1.6129  -1.5751
    -1.5626  -1.4615  -1.3305  -0.9939  -0.9907  -0.8407  -0.8167  -0.6266
    -0.5172  -0.3850  -0.3097  -0.1405  -0.1184   0.0349   0.0531   0.2775
     0.2880   0.4152   0.4685   0.4740   0.5841   0.6718   0.8592   0.8955
     0.9337   0.9928   1.0198   1.0840   1.1544   1.2653   1.6813   2.1074
     2.1279   2.4262   2.4523   2.7390   3.4502   3.7927   4.2559   4.3631
     4.3646   5.4186   5.6500   5.8045   5.9252

          k = 0.0000 0.0334 0.0000 ( 32384 PWs)   bands (ev):

   -77.2689 -77.2492 -77.1024 -77.0827 -76.9761 -76.9563 -45.3286 -45.3051
   -45.2179 -45.1326 -45.0525 -45.0326 -45.0099 -44.9872 -44.9703 -44.9487
   -44.9040 -44.8754 -44.8604 -44.8531 -44.8385 -44.8224 -44.7252 -44.7030
    -6.4133  -5.1873  -5.0445  -4.8374  -4.6795  -4.6561  -4.4677  -4.4556
    -4.3535  -4.2467  -4.2181  -4.1037  -4.0178  -3.9697  -3.6061  -3.5027
    -3.2438  -3.1432  -3.0383  -2.9184  -2.7493  -2.6768  -2.5500  -2.5240
    -2.4625  -2.3650  -2.1674  -2.1213  -2.0019  -1.9759  -1.6894  -1.5989
    -1.5869  -1.5151  -1.3280  -1.1705  -1.1291  -0.9545  -0.8707  -0.7339
    -0.6389  -0.4530  -0.3134  -0.3018  -0.2293  -0.1987   0.0100   0.1123
     0.2023   0.2039   0.3095   0.3911   0.4824   0.6895   0.7275   0.8269
     0.8299   0.8620   0.8991   1.0218   1.0932   1.1136   1.3872   1.7026
     2.0188   2.1964   2.5802   2.8438   3.3031   3.8373   4.3585   4.7602
     4.9783   5.5609   5.6535   5.9685   6.2270

          k = 0.0000 0.0501 0.0000 ( 32366 PWs)   bands (ev):

   -77.2689 -77.2492 -77.1024 -77.0827 -76.9761 -76.9563 -45.3288 -45.3051
   -45.2180 -45.1327 -45.0526 -45.0329 -45.0099 -44.9872 -44.9704 -44.9489
   -44.9040 -44.8755 -44.8605 -44.8531 -44.8385 -44.8225 -44.7252 -44.7030
    -6.2149  -5.1016  -4.9332  -4.7343  -4.5685  -4.5681  -4.3603  -4.3509
    -4.2644  -4.1367  -4.0514  -3.9762  -3.9141  -3.8282  -3.5104  -3.4140
    -3.2130  -3.1104  -3.0003  -2.8944  -2.8397  -2.5815  -2.5194  -2.4701
    -2.4433  -2.4152  -2.2161  -2.0453  -2.0384  -1.9203  -1.8258  -1.6587
    -1.6049  -1.5999  -1.3909  -1.3365  -1.3230  -1.0970  -1.0168  -0.9802
    -0.7679  -0.6471  -0.4659  -0.4642  -0.3800  -0.3277  -0.1187  -0.0766
    -0.0693   0.0515   0.0978   0.1310   0.1964   0.6055   0.6494   0.6873
     0.6967   0.7446   0.7840   0.9236   0.9758   0.9871   1.0965   1.6187
     1.7216   2.0419   3.1285   3.1802   3.2061   3.9451   3.9535   5.1810
     5.3591   5.7687   5.8277   6.2161   6.5309

          k = 0.0000 0.0668 0.0000 ( 32364 PWs)   bands (ev):

   -77.2689 -77.2492 -77.1024 -77.0827 -76.9761 -76.9563 -45.3289 -45.3052
   -45.2181 -45.1328 -45.0527 -45.0332 -45.0099 -44.9872 -44.9705 -44.9490
   -44.9041 -44.8756 -44.8606 -44.8532 -44.8386 -44.8225 -44.7252 -44.7030
    -5.9826  -5.0426  -4.8115  -4.6365  -4.4905  -4.4244  -4.2294  -4.2203
    -4.1452  -4.0156  -3.8495  -3.8274  -3.7647  -3.6378  -3.5242  -3.2260
    -3.1851  -3.0476  -3.0118  -2.8645  -2.8578  -2.6224  -2.4970  -2.4199
    -2.3948  -2.3275  -2.2620  -2.1452  -2.0146  -1.9633  -1.8239  -1.7407
    -1.7191  -1.6257  -1.5960  -1.5937  -1.3161  -1.2850  -1.2609  -1.1633
    -0.9385  -0.8886  -0.7496  -0.6883  -0.5475  -0.4967  -0.3577  -0.3387
    -0.1794  -0.1751  -0.0696  -0.0171   0.0041   0.3270   0.5065   0.5313
     0.6145   0.6282   0.6954   0.7531   0.8938   0.9354   1.0824   1.7349
     1.7803   1.9705   3.1504   3.4108   3.4302   3.7718   4.0663   5.2614
     5.5167   6.0064   6.4258   6.5499   6.5923

          k = 0.0000 0.0835 0.0000 ( 32402 PWs)   bands (ev):

   -77.2688 -77.2492 -77.1024 -77.0827 -76.9761 -76.9563 -45.3291 -45.3053
   -45.2182 -45.1329 -45.0528 -45.0334 -45.0100 -44.9872 -44.9706 -44.9491
   -44.9041 -44.8757 -44.8607 -44.8533 -44.8387 -44.8225 -44.7252 -44.7030
    -5.7786  -5.0203  -4.7198  -4.5673  -4.4421  -4.2892  -4.1381  -4.0570
    -4.0284  -3.9258  -3.6966  -3.6780  -3.5611  -3.5366  -3.5155  -3.2426
    -3.1928  -2.9635  -2.8465  -2.8368  -2.7925  -2.7047  -2.5080  -2.3992
    -2.3671  -2.3406  -2.2482  -2.1649  -2.1329  -1.9002  -1.8583  -1.8551
    -1.8409  -1.7549  -1.7364  -1.6466  -1.4551  -1.3986  -1.3891  -1.3096
    -1.2471  -0.9695  -0.9539  -0.7844  -0.7541  -0.6999  -0.6674  -0.6236
    -0.2446  -0.1841  -0.1118  -0.0867  -0.0405   0.0427   0.4010   0.4226
     0.5150   0.6061   0.6406   0.6742   0.9027   0.9116   1.0708   1.7436
     1.9441   2.0718   3.0313   3.1224   3.5380   4.1568   4.3753   5.1896
     5.7003   5.7155   6.4134   6.9677   7.1927

          k = 0.0000-0.1002 0.0000 ( 32410 PWs)   bands (ev):

   -77.2689 -77.2492 -77.1024 -77.0827 -76.9761 -76.9563 -45.3291 -45.3053
   -45.2183 -45.1329 -45.0528 -45.0335 -45.0100 -44.9873 -44.9706 -44.9491
   -44.9041 -44.8758 -44.8607 -44.8533 -44.8387 -44.8225 -44.7252 -44.7030
    -5.6926  -5.0192  -4.6860  -4.5421  -4.4260  -4.2302  -4.1043  -3.9960
    -3.9376  -3.8966  -3.6400  -3.5935  -3.5470  -3.5416  -3.4349  -3.3015
    -3.1834  -2.8650  -2.8543  -2.8249  -2.7136  -2.5934  -2.5505  -2.4774
    -2.4448  -2.3572  -2.2168  -2.1672  -2.0523  -1.9863  -1.9265  -1.9028
    -1.8771  -1.8239  -1.6855  -1.6695  -1.5478  -1.5087  -1.4353  -1.3778
    -1.3069  -1.0528  -0.9822  -0.8361  -0.8239  -0.7908  -0.7495  -0.7214
    -0.2780  -0.1871  -0.1493  -0.0881  -0.0488  -0.0360   0.3586   0.3794
     0.4703   0.6058   0.6219   0.6531   0.9047   0.9089   1.0661   1.7467
     1.9378   2.2605   2.8064   3.1140   3.5781   4.1897   4.9022   5.1659
     5.1701   5.7788   6.7605   6.8483   7.4473

          k = 0.0148 0.0084 0.0000 ( 32389 PWs)   bands (ev):

   -77.2685 -77.2496 -77.1020 -77.0830 -76.9758 -76.9566 -45.3281 -45.3054
   -45.2139 -45.1287 -45.0485 -45.0319 -45.0103 -44.9911 -44.9698 -44.9490
   -44.9080 -44.8749 -44.8599 -44.8534 -44.8388 -44.8264 -44.7248 -44.7034
    -6.5328  -5.2373  -5.0917  -4.9132  -4.7427  -4.7038  -4.5715  -4.5041
    -4.4036  -4.3401  -4.3154  -4.1855  -4.0867  -4.0418  -3.7455  -3.4830
    -3.2543  -3.1739  -3.0840  -2.9198  -2.7601  -2.6624  -2.6327  -2.5944
    -2.5191  -2.2450  -2.2162  -2.1618  -2.0960  -1.9072  -1.6247  -1.5538
    -1.5144  -1.4538  -1.3688  -0.9472  -0.9372  -0.8621  -0.7895  -0.6571
    -0.5487  -0.4280  -0.3012  -0.1716  -0.0478  -0.0008   0.1245   0.1956
     0.3176   0.3446   0.4699   0.5040   0.6106   0.7021   0.8314   0.8839
     0.9524   0.9601   1.0670   1.1076   1.1275   1.2792   1.6177   1.9476
     2.1072   2.4779   2.6047   3.0735   3.2291   3.5017   4.0390   4.4126
     4.6282   5.4063   5.8043   5.8312   6.1030

          k = 0.0148 0.0251 0.0000 ( 32352 PWs)   bands (ev):

   -77.2685 -77.2496 -77.1020 -77.0830 -76.9758 -76.9566 -45.3282 -45.3055
   -45.2139 -45.1287 -45.0485 -45.0321 -45.0103 -44.9912 -44.9699 -44.9491
   -44.9080 -44.8750 -44.8599 -44.8534 -44.8388 -44.8264 -44.7248 -44.7034
    -6.4442  -5.1802  -5.0410  -4.8609  -4.6999  -4.6600  -4.5147  -4.4687
    -4.3710  -4.2786  -4.2561  -4.1298  -4.0447  -3.9907  -3.6627  -3.4832
    -3.2462  -3.1555  -3.0589  -2.9099  -2.7210  -2.7149  -2.5997  -2.5591
    -2.5060  -2.3200  -2.1838  -2.1655  -2.0652  -1.9269  -1.6394  -1.5981
    -1.5358  -1.4886  -1.3689  -1.0569  -1.0503  -0.9035  -0.8980  -0.6727
    -0.6136  -0.4532  -0.3441  -0.2275  -0.2204  -0.1025   0.0021   0.1561
     0.2385   0.3236   0.3947   0.4894   0.4991   0.6055   0.7701   0.8147
     0.8230   0.8829   0.9636   1.0285   1.0993   1.1341   1.6274   1.8110
     1.9201   2.4280   2.5539   2.6846   3.0959   3.9760   4.4356   4.4980
     4.8285   5.5070   5.9089   5.9472   6.1848

          k = 0.0148 0.0418 0.0000 ( 32344 PWs)   bands (ev):

   -77.2685 -77.2496 -77.1020 -77.0830 -76.9758 -76.9566 -45.3283 -45.3055
   -45.2141 -45.1288 -45.0486 -45.0323 -45.0103 -44.9912 -44.9700 -44.9492
   -44.9080 -44.8751 -44.8600 -44.8535 -44.8389 -44.8264 -44.7248 -44.7034
    -6.2772  -5.0928  -4.9465  -4.7687  -4.6149  -4.5813  -4.4157  -4.3975
    -4.3016  -4.1757  -4.1285  -4.0243  -3.9623  -3.8843  -3.5063  -3.4848
    -3.2269  -3.1260  -3.0210  -2.8904  -2.8063  -2.6299  -2.5483  -2.5109
    -2.4810  -2.4262  -2.1993  -2.1292  -2.0182  -1.9545  -1.7179  -1.6399
    -1.5810  -1.5572  -1.3710  -1.2513  -1.2314  -1.0220  -1.0157  -0.8644
    -0.6820  -0.5962  -0.4227  -0.3693  -0.3347  -0.2837  -0.0498  -0.0266
     0.0050   0.1196   0.1886   0.2393   0.3512   0.5713   0.6471   0.6668
     0.7473   0.7719   0.8586   0.9988   1.0356   1.1003   1.3275   1.6463
     1.7443   1.9006   2.6258   2.9295   3.4895   4.2529   4.3037   4.5566
     5.1866   5.6880   6.1199   6.1756   6.4902

          k = 0.0148 0.0585 0.0000 ( 32350 PWs)   bands (ev):

   -77.2685 -77.2495 -77.1020 -77.0830 -76.9758 -76.9566 -45.3285 -45.3056
   -45.2142 -45.1289 -45.0488 -45.0327 -45.0103 -44.9912 -44.9701 -44.9493
   -44.9080 -44.8752 -44.8602 -44.8535 -44.8389 -44.8264 -44.7248 -44.7034
    -6.0559  -5.0171  -4.8248  -4.6640  -4.4972  -4.4894  -4.2997  -4.2814
    -4.1957  -4.0514  -3.9464  -3.8834  -3.8399  -3.7213  -3.4976  -3.2976
    -3.1991  -3.0926  -3.0077  -2.8698  -2.8629  -2.5844  -2.5142  -2.4691
    -2.4550  -2.4429  -2.2531  -2.0927  -2.0157  -1.9451  -1.8583  -1.6718
    -1.6642  -1.6472  -1.4780  -1.4622  -1.3619  -1.2326  -1.1443  -1.0513
    -0.8224  -0.8035  -0.7054  -0.5771  -0.4396  -0.4237  -0.2963  -0.1987
    -0.1228  -0.1114  -0.0475   0.0550   0.0952   0.3590   0.5708   0.6179
     0.6343   0.7416   0.7780   0.7946   0.9285   1.0332   1.0999   1.6623
     1.7176   1.7360   2.6148   3.4771   3.7378   3.7796   4.4787   4.6494
     5.7626   5.9182   6.4076   6.4136   6.6630

          k = 0.0148 0.0752 0.0000 ( 32386 PWs)   bands (ev):

   -77.2685 -77.2495 -77.1020 -77.0830 -76.9758 -76.9566 -45.3286 -45.3056
   -45.2143 -45.1290 -45.0489 -45.0329 -45.0103 -44.9912 -44.9702 -44.9494
   -44.9080 -44.8753 -44.8603 -44.8536 -44.8390 -44.8265 -44.7248 -44.7034
    -5.8268  -4.9770  -4.7133  -4.5773  -4.4379  -4.3421  -4.1987  -4.1198
    -4.0750  -3.9394  -3.7693  -3.7267  -3.6691  -3.5501  -3.5091  -3.2108
    -3.1958  -3.0182  -2.9513  -2.8375  -2.8316  -2.6842  -2.5131  -2.4427
    -2.3954  -2.3951  -2.2411  -2.1866  -2.0610  -1.9782  -1.8457  -1.8186
    -1.7544  -1.7419  -1.6905  -1.6252  -1.4249  -1.3731  -1.2698  -1.2409
    -1.1078  -0.9749  -0.8827  -0.7558  -0.6441  -0.6241  -0.5298  -0.5102
    -0.2021  -0.1901  -0.0774  -0.0526  -0.0195   0.1118   0.4539   0.5245
     0.5725   0.6114   0.6675   0.7504   0.8862   0.8940   1.0479   1.6752
     1.7128   1.9757   2.6223   3.2750   3.8599   4.1171   4.5312   4.7332
     6.0193   6.3105   6.3204   6.7430   6.7847

          k = 0.0148 0.0919 0.0000 ( 32425 PWs)   bands (ev):

   -77.2685 -77.2496 -77.1020 -77.0830 -76.9758 -76.9566 -45.3287 -45.3057
   -45.2144 -45.1290 -45.0489 -45.0331 -45.0104 -44.9912 -44.9703 -44.9495
   -44.9080 -44.8754 -44.8603 -44.8537 -44.8391 -44.8265 -44.7248 -44.7034
    -5.6684  -4.9696  -4.6486  -4.5280  -4.4086  -4.2280  -4.1453  -3.9986
    -3.9467  -3.8798  -3.6669  -3.5940  -3.5393  -3.5203  -3.4873  -3.2718
    -3.1992  -2.9034  -2.8540  -2.8109  -2.7646  -2.6367  -2.5811  -2.4691
    -2.4470  -2.3767  -2.3233  -2.0967  -2.0753  -1.9767  -1.9735  -1.9214
    -1.8855  -1.7874  -1.7386  -1.7041  -1.5494  -1.4614  -1.3842  -1.3340
    -1.2792  -1.1190  -0.9041  -0.8587  -0.7667  -0.7568  -0.7205  -0.6498
    -0.2305  -0.2056  -0.1335  -0.0840  -0.0370  -0.0231   0.3748   0.4198
     0.4779   0.6079   0.6245   0.6925   0.8728   0.8798   1.0382   1.6829
     1.7138   2.2496   2.6290   2.9141   3.9109   4.5377   4.7324   4.7824
     5.4332   6.4617   6.6230   7.0639   7.2496

          k = 0.0148-0.0919 0.0000 ( 32425 PWs)   bands (ev):

   -77.2685 -77.2496 -77.1020 -77.0830 -76.9758 -76.9566 -45.3287 -45.3057
   -45.2144 -45.1290 -45.0489 -45.0331 -45.0104 -44.9912 -44.9703 -44.9495
   -44.9080 -44.8754 -44.8603 -44.8537 -44.8391 -44.8265 -44.7248 -44.7034
    -5.6684  -4.9696  -4.6486  -4.5280  -4.4086  -4.2280  -4.1453  -3.9986
    -3.9467  -3.8798  -3.6669  -3.5940  -3.5393  -3.5203  -3.4873  -3.2718
    -3.1992  -2.9034  -2.8540  -2.8109  -2.7646  -2.6367  -2.5811  -2.4691
    -2.4470  -2.3767  -2.3233  -2.0967  -2.0753  -1.9767  -1.9735  -1.9214
    -1.8855  -1.7874  -1.7386  -1.7041  -1.5494  -1.4614  -1.3842  -1.3340
    -1.2792  -1.1190  -0.9041  -0.8587  -0.7667  -0.7568  -0.7205  -0.6498
    -0.2305  -0.2056  -0.1335  -0.0840  -0.0370  -0.0231   0.3748   0.4198
     0.4779   0.6079   0.6245   0.6925   0.8728   0.8798   1.0382   1.6829
     1.7138   2.2496   2.6290   2.9141   3.9109   4.5377   4.7324   4.7824
     5.4332   6.4617   6.6230   7.0639   7.2497

          k = 0.0148-0.0752 0.0000 ( 32386 PWs)   bands (ev):

   -77.2685 -77.2495 -77.1020 -77.0830 -76.9758 -76.9566 -45.3286 -45.3056
   -45.2143 -45.1290 -45.0489 -45.0329 -45.0103 -44.9912 -44.9702 -44.9494
   -44.9080 -44.8753 -44.8603 -44.8536 -44.8390 -44.8265 -44.7248 -44.7034
    -5.8268  -4.9770  -4.7133  -4.5773  -4.4379  -4.3421  -4.1987  -4.1198
    -4.0750  -3.9394  -3.7693  -3.7267  -3.6691  -3.5501  -3.5091  -3.2108
    -3.1958  -3.0182  -2.9513  -2.8375  -2.8316  -2.6842  -2.5131  -2.4427
    -2.3954  -2.3951  -2.2411  -2.1866  -2.0610  -1.9782  -1.8457  -1.8186
    -1.7544  -1.7419  -1.6905  -1.6252  -1.4249  -1.3731  -1.2698  -1.2409
    -1.1078  -0.9749  -0.8827  -0.7558  -0.6441  -0.6241  -0.5298  -0.5102
    -0.2021  -0.1901  -0.0774  -0.0526  -0.0195   0.1118   0.4539   0.5245
     0.5725   0.6114   0.6675   0.7504   0.8862   0.8940   1.0479   1.6752
     1.7128   1.9757   2.6223   3.2750   3.8599   4.1171   4.5312   4.7332
     6.0193   6.3105   6.3204   6.7430   6.7846

          k = 0.0148-0.0585 0.0000 ( 32350 PWs)   bands (ev):

   -77.2685 -77.2495 -77.1020 -77.0830 -76.9758 -76.9566 -45.3285 -45.3056
   -45.2142 -45.1289 -45.0488 -45.0327 -45.0103 -44.9912 -44.9701 -44.9493
   -44.9080 -44.8752 -44.8602 -44.8535 -44.8389 -44.8264 -44.7248 -44.7034
    -6.0559  -5.0171  -4.8248  -4.6640  -4.4972  -4.4894  -4.2997  -4.2814
    -4.1957  -4.0514  -3.9464  -3.8834  -3.8399  -3.7213  -3.4976  -3.2976
    -3.1991  -3.0926  -3.0077  -2.8698  -2.8629  -2.5844  -2.5142  -2.4691
    -2.4550  -2.4429  -2.2531  -2.0927  -2.0157  -1.9451  -1.8583  -1.6718
    -1.6642  -1.6472  -1.4780  -1.4622  -1.3619  -1.2326  -1.1443  -1.0513
    -0.8224  -0.8035  -0.7054  -0.5771  -0.4396  -0.4237  -0.2963  -0.1987
    -0.1228  -0.1114  -0.0475   0.0550   0.0952   0.3590   0.5708   0.6179
     0.6343   0.7416   0.7780   0.7946   0.9285   1.0332   1.0999   1.6623
     1.7176   1.7360   2.6148   3.4771   3.7377   3.7796   4.4787   4.6494
     5.7627   5.9182   6.4076   6.4135   6.6629

          k = 0.0148-0.0418 0.0000 ( 32344 PWs)   bands (ev):

   -77.2685 -77.2496 -77.1020 -77.0830 -76.9758 -76.9566 -45.3283 -45.3055
   -45.2141 -45.1288 -45.0486 -45.0323 -45.0103 -44.9912 -44.9700 -44.9492
   -44.9080 -44.8751 -44.8600 -44.8535 -44.8389 -44.8264 -44.7248 -44.7034
    -6.2772  -5.0928  -4.9465  -4.7687  -4.6149  -4.5813  -4.4157  -4.3975
    -4.3016  -4.1757  -4.1285  -4.0243  -3.9623  -3.8843  -3.5063  -3.4848
    -3.2269  -3.1260  -3.0210  -2.8904  -2.8063  -2.6299  -2.5483  -2.5109
    -2.4810  -2.4262  -2.1993  -2.1292  -2.0182  -1.9545  -1.7179  -1.6399
    -1.5810  -1.5572  -1.3710  -1.2513  -1.2314  -1.0220  -1.0157  -0.8644
    -0.6820  -0.5962  -0.4227  -0.3693  -0.3347  -0.2837  -0.0498  -0.0266
     0.0050   0.1196   0.1886   0.2393   0.3512   0.5713   0.6471   0.6668
     0.7473   0.7719   0.8586   0.9988   1.0356   1.1003   1.3275   1.6463
     1.7443   1.9006   2.6258   2.9295   3.4895   4.2529   4.3037   4.5566
     5.1866   5.6880   6.1199   6.1756   6.4902

          k = 0.0148-0.0251 0.0000 ( 32352 PWs)   bands (ev):

   -77.2685 -77.2496 -77.1020 -77.0830 -76.9758 -76.9566 -45.3282 -45.3055
   -45.2139 -45.1287 -45.0485 -45.0321 -45.0103 -44.9912 -44.9699 -44.9491
   -44.9080 -44.8750 -44.8599 -44.8534 -44.8388 -44.8264 -44.7248 -44.7034
    -6.4442  -5.1802  -5.0410  -4.8609  -4.6999  -4.6600  -4.5147  -4.4687
    -4.3710  -4.2786  -4.2561  -4.1298  -4.0447  -3.9907  -3.6627  -3.4832
    -3.2462  -3.1555  -3.0589  -2.9099  -2.7210  -2.7149  -2.5997  -2.5591
    -2.5060  -2.3200  -2.1838  -2.1655  -2.0652  -1.9269  -1.6394  -1.5981
    -1.5358  -1.4886  -1.3689  -1.0569  -1.0503  -0.9035  -0.8980  -0.6727
    -0.6136  -0.4532  -0.3441  -0.2275  -0.2204  -0.1025   0.0021   0.1561
     0.2385   0.3236   0.3947   0.4894   0.4991   0.6055   0.7701   0.8147
     0.8230   0.8829   0.9636   1.0285   1.0993   1.1341   1.6274   1.8110
     1.9201   2.4280   2.5539   2.6846   3.0959   3.9760   4.4356   4.4980
     4.8285   5.5070   5.9090   5.9473   6.1848

          k = 0.0148-0.0084 0.0000 ( 32389 PWs)   bands (ev):

   -77.2685 -77.2496 -77.1020 -77.0830 -76.9758 -76.9566 -45.3281 -45.3054
   -45.2139 -45.1287 -45.0485 -45.0319 -45.0103 -44.9911 -44.9698 -44.9490
   -44.9080 -44.8749 -44.8599 -44.8534 -44.8388 -44.8264 -44.7248 -44.7034
    -6.5328  -5.2373  -5.0917  -4.9132  -4.7427  -4.7038  -4.5715  -4.5041
    -4.4036  -4.3401  -4.3154  -4.1855  -4.0867  -4.0418  -3.7455  -3.4830
    -3.2543  -3.1739  -3.0840  -2.9198  -2.7601  -2.6624  -2.6327  -2.5944
    -2.5191  -2.2450  -2.2162  -2.1618  -2.0960  -1.9072  -1.6247  -1.5538
    -1.5144  -1.4538  -1.3688  -0.9472  -0.9372  -0.8621  -0.7895  -0.6571
    -0.5487  -0.4280  -0.3012  -0.1716  -0.0478  -0.0008   0.1245   0.1956
     0.3176   0.3446   0.4699   0.5040   0.6106   0.7021   0.8314   0.8839
     0.9524   0.9601   1.0670   1.1076   1.1275   1.2792   1.6177   1.9476
     2.1072   2.4779   2.6047   3.0735   3.2291   3.5017   4.0390   4.4126
     4.6282   5.4063   5.8044   5.8312   6.1028

          k = 0.0295 0.0167 0.0000 ( 32360 PWs)   bands (ev):

   -77.2676 -77.2505 -77.1011 -77.0840 -76.9748 -76.9576 -45.3270 -45.3066
   -45.2025 -45.1174 -45.0372 -45.0309 -45.0114 -45.0028 -44.9688 -44.9501
   -44.9195 -44.8738 -44.8588 -44.8545 -44.8399 -44.8380 -44.7237 -44.7045
    -6.3688  -5.0704  -4.9384  -4.8328  -4.6663  -4.5923  -4.5445  -4.4283
    -4.3533  -4.2825  -4.2282  -4.1055  -4.0357  -3.9406  -3.6705  -3.4319
    -3.2213  -3.1547  -3.0824  -2.8700  -2.7468  -2.7379  -2.7173  -2.5870
    -2.5485  -2.2957  -2.2846  -2.1952  -2.1656  -1.8592  -1.7384  -1.4862
    -1.4849  -1.4605  -1.4093  -1.1399  -0.9729  -0.9626  -0.8521  -0.7812
    -0.6347  -0.5893  -0.4835  -0.2720  -0.1579  -0.0706   0.0095   0.0519
     0.2456   0.2959   0.3660   0.4567   0.5231   0.5342   0.6657   0.7498
     0.8614   0.9255   0.9293   1.0134   1.0707   1.1406   1.2952   1.4459
     2.1501   2.5567   2.6205   2.6565   3.2826   3.3477   4.5910   4.6100
     5.0170   5.5341   5.9469   6.2987   6.4027

          k = 0.0295 0.0334 0.0000 ( 32359 PWs)   bands (ev):

   -77.2676 -77.2505 -77.1011 -77.0840 -76.9748 -76.9576 -45.3271 -45.3067
   -45.2026 -45.1175 -45.0372 -45.0311 -45.0114 -45.0028 -44.9688 -44.9502
   -44.9195 -44.8739 -44.8589 -44.8546 -44.8399 -44.8380 -44.7237 -44.7045
    -6.2404  -4.9918  -4.8656  -4.7659  -4.6201  -4.5287  -4.4618  -4.3852
    -4.3044  -4.1923  -4.1440  -4.0320  -3.9732  -3.8721  -3.5503  -3.4314
    -3.2229  -3.1342  -3.0531  -2.8546  -2.8067  -2.6776  -2.6735  -2.5658
    -2.5348  -2.3904  -2.2508  -2.2100  -2.1336  -1.8807  -1.7490  -1.5611
    -1.5373  -1.4713  -1.4318  -1.2377  -1.1200  -1.1129  -0.9542  -0.8732
    -0.7261  -0.6312  -0.5226  -0.3408  -0.2745  -0.2342  -0.0513  -0.0463
     0.0842   0.1352   0.2935   0.3282   0.3515   0.4468   0.5329   0.6640
     0.7203   0.7708   0.9169   0.9510   0.9692   1.2059   1.2528   1.4866
     1.9336   1.9551   2.5878   2.9259   3.3365   3.8582   4.6397   4.6744
     5.1709   5.6757   6.1158   6.4426   6.4534

          k = 0.0295 0.0501 0.0000 ( 32360 PWs)   bands (ev):

   -77.2676 -77.2505 -77.1010 -77.0840 -76.9748 -76.9576 -45.3272 -45.3067
   -45.2027 -45.1176 -45.0373 -45.0313 -45.0115 -45.0029 -44.9690 -44.9503
   -44.9196 -44.8740 -44.8590 -44.8546 -44.8400 -44.8381 -44.7237 -44.7045
    -6.0432  -4.9037  -4.7552  -4.6660  -4.5372  -4.4443  -4.3569  -4.3043
    -4.2178  -4.0586  -4.0121  -3.9178  -3.8706  -3.7551  -3.4410  -3.3646
    -3.2156  -3.1095  -3.0361  -2.8730  -2.8306  -2.6431  -2.5946  -2.5470
    -2.5048  -2.4804  -2.2522  -2.2186  -2.1005  -1.9058  -1.7785  -1.6976
    -1.6485  -1.5058  -1.4588  -1.4222  -1.2937  -1.2904  -1.0415  -1.0135
    -0.9129  -0.6998  -0.6968  -0.5179  -0.3701  -0.3691  -0.2742  -0.1827
    -0.0919  -0.0628  -0.0006   0.1397   0.1826   0.2844   0.5565   0.6197
     0.6564   0.6927   0.8375   0.8786   0.9396   1.2095   1.2479   1.4781
     1.5181   1.9047   2.0174   3.4100   3.7991   4.1943   4.2497   4.9176
     5.4793   5.8856   6.3646   6.5428   6.6576

          k = 0.0295 0.0668 0.0000 ( 32347 PWs)   bands (ev):

   -77.2675 -77.2505 -77.1010 -77.0840 -76.9748 -76.9576 -45.3274 -45.3068
   -45.2029 -45.1177 -45.0374 -45.0316 -45.0115 -45.0029 -44.9691 -44.9504
   -44.9196 -44.8741 -44.8591 -44.8547 -44.8401 -44.8381 -44.7237 -44.7045
    -5.8092  -4.8442  -4.6351  -4.5629  -4.4202  -4.3806  -4.2523  -4.1605
    -4.1048  -3.9291  -3.8503  -3.7722  -3.7339  -3.6041  -3.4467  -3.2105
    -3.2059  -3.0621  -3.0494  -2.8842  -2.7999  -2.6573  -2.6562  -2.5212
    -2.4763  -2.4236  -2.2842  -2.2251  -2.0921  -1.9679  -1.8701  -1.8411
    -1.7816  -1.6493  -1.5964  -1.4680  -1.4498  -1.4478  -1.1796  -1.1141
    -1.0909  -0.9742  -0.8087  -0.7664  -0.5848  -0.5081  -0.4359  -0.3820
    -0.1900  -0.1631  -0.0647   0.0303   0.0442   0.1050   0.5132   0.5626
     0.6272   0.6834   0.7365   0.8281   0.8354   1.0069   1.1813   1.2354
     1.5382   1.9125   1.9931   3.6498   3.8460   3.9790   4.5792   5.3726
     5.8552   6.1284   6.5869   6.6978   6.8863

          k = 0.0295 0.0835 0.0000 ( 32390 PWs)   bands (ev):

   -77.2675 -77.2505 -77.1010 -77.0840 -76.9748 -76.9576 -45.3275 -45.3068
   -45.2029 -45.1177 -45.0375 -45.0318 -45.0115 -45.0029 -44.9691 -44.9505
   -44.9196 -44.8742 -44.8592 -44.8547 -44.8401 -44.8381 -44.7237 -44.7045
    -5.5991  -4.8251  -4.5492  -4.4894  -4.3412  -4.2989  -4.1707  -4.0027
    -3.9735  -3.8451  -3.7240  -3.6164  -3.5835  -3.5290  -3.4487  -3.2433
    -3.2179  -3.0062  -2.8897  -2.8523  -2.7727  -2.7162  -2.7141  -2.5062
    -2.4752  -2.4382  -2.2666  -2.1916  -2.1826  -2.0533  -2.0271  -1.8902
    -1.8614  -1.8374  -1.6635  -1.6034  -1.5649  -1.4685  -1.3709  -1.2756
    -1.2188  -1.0930  -1.0492  -0.7927  -0.6949  -0.6207  -0.5658  -0.5106
    -0.2480  -0.1551  -0.0724  -0.0688  -0.0056   0.0088   0.4115   0.4996
     0.5823   0.6182   0.6504   0.7223   0.8127   0.8980   0.9711   1.2579
     1.5504   1.9283   2.2525   3.1973   3.8403   4.5714   4.6433   5.6811
     5.8679   6.4420   6.5312   7.0010   7.1173

          k = 0.0295 0.1002 0.0000 ( 32370 PWs)   bands (ev):

   -77.2675 -77.2505 -77.1010 -77.0840 -76.9748 -76.9576 -45.3275 -45.3068
   -45.2030 -45.1177 -45.0376 -45.0319 -45.0115 -45.0029 -44.9692 -44.9505
   -44.9196 -44.8742 -44.8592 -44.8548 -44.8401 -44.8381 -44.7237 -44.7045
    -5.5084  -4.8270  -4.5199  -4.4627  -4.3261  -4.2442  -4.1376  -3.9592
    -3.8420  -3.8220  -3.6754  -3.5948  -3.5387  -3.4909  -3.4597  -3.2538
    -3.2466  -2.9148  -2.8833  -2.8138  -2.7672  -2.7550  -2.6068  -2.5278
    -2.5175  -2.4931  -2.2896  -2.2338  -2.1578  -2.1093  -2.0419  -1.9712
    -1.8904  -1.8442  -1.7119  -1.6465  -1.6248  -1.4774  -1.4711  -1.3372
    -1.3136  -1.1232  -1.0841  -0.7944  -0.7298  -0.6613  -0.6202  -0.5414
    -0.2582  -0.1428  -0.1249  -0.0708  -0.0104  -0.0099   0.3698   0.4559
     0.4785   0.6147   0.6163   0.7204   0.8060   0.8264   0.9627   1.2663
     1.5546   1.9350   2.4442   2.9486   3.8367   4.6516   5.0907   5.3394
     5.7222   6.8775   6.9688   6.9748   7.1137

          k = 0.0295-0.0835 0.0000 ( 32390 PWs)   bands (ev):

   -77.2675 -77.2505 -77.1010 -77.0840 -76.9748 -76.9576 -45.3275 -45.3068
   -45.2029 -45.1177 -45.0375 -45.0318 -45.0115 -45.0029 -44.9691 -44.9505
   -44.9196 -44.8742 -44.8592 -44.8547 -44.8401 -44.8381 -44.7237 -44.7045
    -5.5991  -4.8251  -4.5492  -4.4894  -4.3412  -4.2989  -4.1707  -4.0027
    -3.9735  -3.8451  -3.7240  -3.6164  -3.5835  -3.5290  -3.4487  -3.2433
    -3.2179  -3.0062  -2.8897  -2.8523  -2.7727  -2.7162  -2.7141  -2.5062
    -2.4752  -2.4382  -2.2666  -2.1916  -2.1827  -2.0533  -2.0271  -1.8902
    -1.8614  -1.8374  -1.6635  -1.6034  -1.5649  -1.4685  -1.3709  -1.2756
    -1.2188  -1.0930  -1.0492  -0.7927  -0.6949  -0.6207  -0.5658  -0.5106
    -0.2480  -0.1551  -0.0724  -0.0688  -0.0056   0.0088   0.4115   0.4996
     0.5823   0.6182   0.6504   0.7223   0.8127   0.8980   0.9711   1.2579
     1.5504   1.9283   2.2525   3.1973   3.8403   4.5714   4.6433   5.6811
     5.8679   6.4420   6.5312   7.0010   7.1160

          k = 0.0295-0.0668 0.0000 ( 32347 PWs)   bands (ev):

   -77.2675 -77.2505 -77.1010 -77.0840 -76.9748 -76.9576 -45.3274 -45.3068
   -45.2029 -45.1177 -45.0374 -45.0316 -45.0115 -45.0029 -44.9691 -44.9504
   -44.9196 -44.8741 -44.8591 -44.8547 -44.8401 -44.8381 -44.7237 -44.7045
    -5.8092  -4.8442  -4.6351  -4.5629  -4.4202  -4.3806  -4.2523  -4.1605
    -4.1048  -3.9291  -3.8503  -3.7722  -3.7339  -3.6041  -3.4467  -3.2105
    -3.2059  -3.0621  -3.0494  -2.8842  -2.7999  -2.6573  -2.6562  -2.5212
    -2.4763  -2.4236  -2.2842  -2.2251  -2.0921  -1.9679  -1.8701  -1.8411
    -1.7816  -1.6493  -1.5964  -1.4680  -1.4498  -1.4478  -1.1796  -1.1141
    -1.0909  -0.9742  -0.8087  -0.7664  -0.5848  -0.5081  -0.4359  -0.3820
    -0.1900  -0.1630  -0.0647   0.0303   0.0442   0.1050   0.5132   0.5626
     0.6272   0.6834   0.7365   0.8281   0.8354   1.0069   1.1813   1.2354
     1.5382   1.9125   1.9931   3.6498   3.8460   3.9790   4.5792   5.3726
     5.8552   6.1284   6.5871   6.6980   6.8864

          k = 0.0295-0.0501 0.0000 ( 32360 PWs)   bands (ev):

   -77.2676 -77.2505 -77.1010 -77.0840 -76.9748 -76.9576 -45.3272 -45.3067
   -45.2027 -45.1176 -45.0373 -45.0313 -45.0115 -45.0029 -44.9690 -44.9503
   -44.9196 -44.8740 -44.8590 -44.8546 -44.8400 -44.8381 -44.7237 -44.7045
    -6.0432  -4.9037  -4.7552  -4.6660  -4.5372  -4.4443  -4.3569  -4.3043
    -4.2178  -4.0586  -4.0121  -3.9178  -3.8706  -3.7551  -3.4410  -3.3646
    -3.2156  -3.1095  -3.0361  -2.8730  -2.8306  -2.6431  -2.5946  -2.5470
    -2.5048  -2.4804  -2.2522  -2.2186  -2.1005  -1.9058  -1.7785  -1.6976
    -1.6485  -1.5058  -1.4588  -1.4222  -1.2937  -1.2904  -1.0415  -1.0135
    -0.9129  -0.6998  -0.6968  -0.5179  -0.3701  -0.3691  -0.2742  -0.1827
    -0.0919  -0.0628  -0.0006   0.1397   0.1826   0.2844   0.5565   0.6197
     0.6564   0.6927   0.8375   0.8786   0.9396   1.2095   1.2479   1.4781
     1.5181   1.9047   2.0174   3.4100   3.7991   4.1943   4.2497   4.9176
     5.4793   5.8856   6.3646   6.5427   6.6575

          k = 0.0295-0.0334 0.0000 ( 32359 PWs)   bands (ev):

   -77.2676 -77.2505 -77.1011 -77.0840 -76.9748 -76.9576 -45.3271 -45.3067
   -45.2026 -45.1175 -45.0372 -45.0311 -45.0114 -45.0028 -44.9688 -44.9502
   -44.9195 -44.8739 -44.8589 -44.8546 -44.8399 -44.8380 -44.7237 -44.7045
    -6.2404  -4.9918  -4.8656  -4.7659  -4.6201  -4.5287  -4.4618  -4.3852
    -4.3044  -4.1923  -4.1440  -4.0320  -3.9732  -3.8721  -3.5503  -3.4314
    -3.2229  -3.1342  -3.0531  -2.8546  -2.8067  -2.6776  -2.6735  -2.5658
    -2.5348  -2.3904  -2.2508  -2.2100  -2.1336  -1.8807  -1.7490  -1.5611
    -1.5373  -1.4713  -1.4318  -1.2377  -1.1200  -1.1129  -0.9542  -0.8732
    -0.7261  -0.6312  -0.5226  -0.3408  -0.2745  -0.2342  -0.0513  -0.0463
     0.0842   0.1352   0.2935   0.3282   0.3515   0.4468   0.5329   0.6640
     0.7203   0.7708   0.9169   0.9510   0.9692   1.2059   1.2528   1.4866
     1.9336   1.9551   2.5878   2.9259   3.3365   3.8582   4.6397   4.6744
     5.1709   5.6757   6.1157   6.4426   6.4533

          k = 0.0295-0.0167 0.0000 ( 32360 PWs)   bands (ev):

   -77.2676 -77.2505 -77.1011 -77.0840 -76.9748 -76.9576 -45.3270 -45.3066
   -45.2025 -45.1174 -45.0372 -45.0309 -45.0114 -45.0028 -44.9688 -44.9501
   -44.9195 -44.8738 -44.8588 -44.8545 -44.8399 -44.8380 -44.7237 -44.7045
    -6.3688  -5.0704  -4.9384  -4.8328  -4.6663  -4.5923  -4.5445  -4.4283
    -4.3533  -4.2825  -4.2282  -4.1055  -4.0357  -3.9406  -3.6705  -3.4319
    -3.2213  -3.1547  -3.0824  -2.8700  -2.7468  -2.7379  -2.7173  -2.5870
    -2.5485  -2.2957  -2.2846  -2.1952  -2.1656  -1.8592  -1.7384  -1.4862
    -1.4849  -1.4605  -1.4093  -1.1399  -0.9729  -0.9626  -0.8521  -0.7812
    -0.6347  -0.5893  -0.4835  -0.2720  -0.1579  -0.0706   0.0095   0.0519
     0.2456   0.2959   0.3660   0.4567   0.5231   0.5342   0.6657   0.7498
     0.8614   0.9255   0.9293   1.0134   1.0707   1.1406   1.2952   1.4459
     2.1501   2.5567   2.6205   2.6565   3.2826   3.3477   4.5910   4.6100
     5.0170   5.5341   5.9469   6.2986   6.4027

          k = 0.0295-0.0000 0.0000 ( 32369 PWs)   bands (ev):

   -77.2676 -77.2506 -77.1011 -77.0840 -76.9748 -76.9576 -45.3269 -45.3066
   -45.2025 -45.1174 -45.0371 -45.0308 -45.0114 -45.0028 -44.9687 -44.9501
   -44.9195 -44.8738 -44.8588 -44.8545 -44.8399 -44.8380 -44.7237 -44.7045
    -6.4131  -5.1009  -4.9639  -4.8557  -4.6795  -4.6143  -4.5778  -4.4433
    -4.3684  -4.3131  -4.2575  -4.1307  -4.0568  -3.9630  -3.7126  -3.4325
    -3.2184  -3.1626  -3.0960  -2.8755  -2.7600  -2.7363  -2.7194  -2.6005
    -2.5500  -2.2980  -2.2461  -2.2053  -2.1782  -1.8509  -1.7354  -1.4731
    -1.4691  -1.4452  -1.4041  -1.1108  -0.9143  -0.9117  -0.7557  -0.7525
    -0.6978  -0.5275  -0.4911  -0.2559  -0.0493  -0.0426   0.0367   0.1163
     0.2412   0.3222   0.3584   0.4760   0.5823   0.6155   0.7172   0.7532
     0.9029   0.9629   0.9823   1.0336   1.1177   1.1843   1.3935   1.6588
     1.9458   2.4159   2.6390   2.8112   3.1557   3.7993   4.0343   4.6938
     4.8882   5.4726   5.9030   6.2397   6.3656

          k = 0.0443 0.0251 0.0000 ( 32358 PWs)   bands (ev):

   -77.2660 -77.2521 -77.0995 -77.0856 -76.9732 -76.9592 -45.3252 -45.3086
   -45.1844 -45.0995 -45.0292 -45.0214 -45.0191 -45.0133 -44.9671 -44.9519
   -44.9379 -44.8721 -44.8572 -44.8565 -44.8563 -44.8417 -44.7219 -44.7063
    -6.1069  -4.8061  -4.7288  -4.7010  -4.5883  -4.4588  -4.4187  -4.3089
    -4.2697  -4.1868  -4.0967  -4.0200  -3.9239  -3.7861  -3.5479  -3.3559
    -3.1938  -3.1234  -3.1071  -2.8840  -2.8177  -2.8154  -2.6806  -2.6149
    -2.5657  -2.3776  -2.3744  -2.2750  -2.2442  -1.9439  -1.7439  -1.6708
    -1.6096  -1.4894  -1.3669  -1.2358  -1.2082  -1.0667  -1.0301  -0.9572
    -0.8932  -0.6566  -0.6119  -0.3237  -0.2559  -0.1696  -0.1058  -0.0596
     0.0405   0.1562   0.1625   0.3271   0.3844   0.4239   0.4456   0.5872
     0.6915   0.7299   0.7429   0.8206   0.9259   1.0135   1.2019   1.3624
     1.4855   2.6060   2.6956   3.1056   3.2707   3.4417   4.2524   5.1446
     5.4158   5.7346   6.1941   6.5084   6.7191

          k = 0.0443 0.0418 0.0000 ( 32364 PWs)   bands (ev):

   -77.2660 -77.2521 -77.0995 -77.0856 -76.9732 -76.9592 -45.3253 -45.3086
   -45.1845 -45.0996 -45.0294 -45.0214 -45.0192 -45.0133 -44.9672 -44.9520
   -44.9379 -44.8722 -44.8573 -44.8565 -44.8564 -44.8417 -44.7219 -44.7063
    -5.9455  -4.7144  -4.6737  -4.6147  -4.5448  -4.3580  -4.3349  -4.2722
    -4.2067  -4.0699  -4.0054  -3.9409  -3.8426  -3.7174  -3.4076  -3.3463
    -3.2170  -3.1092  -3.1043  -2.9200  -2.7943  -2.7872  -2.6218  -2.6156
    -2.5414  -2.4640  -2.3552  -2.2712  -2.2532  -1.9665  -1.8150  -1.7612
    -1.6155  -1.5240  -1.4945  -1.3025  -1.2791  -1.2233  -1.1461  -1.1119
    -0.9662  -0.7281  -0.6694  -0.4485  -0.3187  -0.3096  -0.2425  -0.1641
    -0.0945  -0.0734   0.0639   0.1177   0.2258   0.2461   0.4139   0.5936
     0.6281   0.6989   0.7087   0.8188   0.8658   0.9445   1.2622   1.3522
     1.5060   2.0132   2.7062   3.1912   3.4892   3.7565   4.6530   4.7722
     5.8044   5.9200   6.4162   6.6445   6.7010

          k = 0.0443 0.0585 0.0000 ( 32358 PWs)   bands (ev):

   -77.2660 -77.2521 -77.0995 -77.0856 -76.9732 -76.9592 -45.3254 -45.3086
   -45.1846 -45.0996 -45.0297 -45.0214 -45.0193 -45.0133 -44.9673 -44.9521
   -44.9379 -44.8723 -44.8574 -44.8565 -44.8564 -44.8418 -44.7219 -44.7063
    -5.7276  -4.6350  -4.5890  -4.5069  -4.4741  -4.2558  -4.2498  -4.1769
    -4.1083  -3.9218  -3.8956  -3.8319  -3.7246  -3.6211  -3.3668  -3.2342
    -3.2173  -3.1328  -3.0912  -2.9550  -2.8047  -2.7578  -2.6373  -2.6048
    -2.5133  -2.4618  -2.3692  -2.3028  -2.2515  -2.0132  -1.9916  -1.8108
    -1.6868  -1.6314  -1.6011  -1.4580  -1.3834  -1.3675  -1.2529  -1.2487
    -0.9949  -0.9512  -0.7361  -0.6859  -0.4968  -0.4428  -0.3915  -0.3109
    -0.1654  -0.1496  -0.0601   0.0382   0.1017   0.1223   0.4674   0.5186
     0.6267   0.6733   0.7385   0.8056   0.8104   0.8504   1.3011   1.3301
     1.3533   1.6510   2.2180   3.2872   3.9650   4.1718   4.5005   5.3623
     5.8954   6.1526   6.5462   6.7030   6.9317

          k = 0.0443 0.0752 0.0000 ( 32336 PWs)   bands (ev):

   -77.2660 -77.2521 -77.0995 -77.0855 -76.9732 -76.9592 -45.3255 -45.3087
   -45.1847 -45.0997 -45.0299 -45.0214 -45.0194 -45.0132 -44.9674 -44.9521
   -44.9379 -44.8724 -44.8574 -44.8565 -44.8565 -44.8418 -44.7219 -44.7063
    -5.4940  -4.5996  -4.4972  -4.4225  -4.3982  -4.1983  -4.1384  -4.0184
    -3.9859  -3.8247  -3.7727  -3.7124  -3.5801  -3.5386  -3.3638  -3.2897
    -3.1683  -3.1276  -2.9924  -2.9864  -2.8319  -2.7418  -2.7052  -2.6016
    -2.4948  -2.4462  -2.4292  -2.2902  -2.2848  -2.1847  -2.0110  -1.9330
    -1.7997  -1.7782  -1.6565  -1.6337  -1.4587  -1.4366  -1.3869  -1.3673
    -1.1980  -1.0680  -0.9484  -0.6911  -0.6161  -0.5177  -0.4849  -0.3389
    -0.2781  -0.1280  -0.0517  -0.0081   0.0426   0.0434   0.4242   0.5070
     0.6233   0.6279   0.7202   0.7280   0.7872   0.8171   0.9971   1.2600
     1.3155   1.3443   2.3095   3.2618   3.6180   4.5127   5.3489   5.6032
     6.2698   6.3162   6.5597   6.5790   6.9908

          k = 0.0443 0.0919 0.0000 ( 32354 PWs)   bands (ev):

   -77.2660 -77.2521 -77.0995 -77.0855 -76.9732 -76.9592 -45.3256 -45.3087
   -45.1848 -45.0997 -45.0300 -45.0214 -45.0194 -45.0132 -44.9674 -44.9522
   -44.9379 -44.8724 -44.8575 -44.8565 -44.8565 -44.8418 -44.7219 -44.7063
    -5.3240  -4.6049  -4.4369  -4.3862  -4.3466  -4.1516  -4.0475  -3.9237
    -3.8068  -3.8006  -3.7044  -3.6121  -3.5938  -3.4483  -3.3630  -3.3526
    -3.2019  -3.0703  -2.9883  -2.9219  -2.8337  -2.7455  -2.6727  -2.6363
    -2.5355  -2.5053  -2.4423  -2.3686  -2.3528  -2.1248  -2.0424  -2.0199
    -1.9323  -1.8147  -1.7841  -1.6526  -1.5166  -1.5090  -1.4664  -1.4266
    -1.3477  -1.2406  -0.8832  -0.7066  -0.6733  -0.5563  -0.5283  -0.3194
    -0.3088  -0.1302  -0.0464  -0.0177   0.0283   0.0968   0.3564   0.4880
     0.5653   0.6217   0.6278   0.6716   0.7073   0.8395   0.8792   0.9633
     1.3261   1.3517   2.5741   3.1918   3.2427   5.0952   5.5221   5.7626
     6.2377   6.3434   6.7114   6.8577   7.0704

          k = 0.0443 0.1086 0.0000 ( 32354 PWs)   bands (ev):

   -77.2660 -77.2521 -77.0995 -77.0855 -76.9732 -76.9592 -45.3256 -45.3087
   -45.1848 -45.0997 -45.0300 -45.0214 -45.0194 -45.0132 -44.9674 -44.9522
   -44.9379 -44.8724 -44.8575 -44.8565 -44.8565 -44.8418 -44.7219 -44.7063
    -5.3240  -4.6049  -4.4369  -4.3862  -4.3466  -4.1516  -4.0475  -3.9237
    -3.8068  -3.8006  -3.7044  -3.6121  -3.5938  -3.4483  -3.3630  -3.3526
    -3.2019  -3.0703  -2.9883  -2.9219  -2.8337  -2.7455  -2.6727  -2.6363
    -2.5355  -2.5053  -2.4423  -2.3686  -2.3528  -2.1248  -2.0424  -2.0199
    -1.9323  -1.8147  -1.7841  -1.6526  -1.5166  -1.5090  -1.4664  -1.4266
    -1.3477  -1.2406  -0.8832  -0.7066  -0.6733  -0.5563  -0.5283  -0.3194
    -0.3088  -0.1302  -0.0464  -0.0177   0.0283   0.0968   0.3564   0.4880
     0.5653   0.6217   0.6278   0.6716   0.7073   0.8395   0.8792   0.9633
     1.3261   1.3517   2.5741   3.1918   3.2427   5.0952   5.5221   5.7626
     6.2377   6.3434   6.7114   6.8573   7.0704

          k = 0.0443-0.0752 0.0000 ( 32336 PWs)   bands (ev):

   -77.2660 -77.2521 -77.0995 -77.0855 -76.9732 -76.9592 -45.3255 -45.3087
   -45.1847 -45.0997 -45.0299 -45.0214 -45.0194 -45.0132 -44.9674 -44.9521
   -44.9379 -44.8724 -44.8574 -44.8565 -44.8565 -44.8418 -44.7219 -44.7063
    -5.4940  -4.5996  -4.4972  -4.4225  -4.3982  -4.1983  -4.1384  -4.0184
    -3.9859  -3.8247  -3.7727  -3.7124  -3.5801  -3.5386  -3.3638  -3.2897
    -3.1683  -3.1275  -2.9924  -2.9864  -2.8319  -2.7418  -2.7052  -2.6016
    -2.4948  -2.4462  -2.4292  -2.2902  -2.2848  -2.1847  -2.0110  -1.9330
    -1.7997  -1.7782  -1.6565  -1.6337  -1.4588  -1.4366  -1.3869  -1.3673
    -1.1980  -1.0680  -0.9484  -0.6911  -0.6161  -0.5177  -0.4849  -0.3389
    -0.2781  -0.1280  -0.0517  -0.0081   0.0426   0.0434   0.4242   0.5070
     0.6233   0.6279   0.7202   0.7280   0.7872   0.8171   0.9971   1.2600
     1.3155   1.3443   2.3095   3.2618   3.6180   4.5127   5.3489   5.6032
     6.2698   6.3162   6.5597   6.5790   6.9909

          k = 0.0443-0.0585 0.0000 ( 32358 PWs)   bands (ev):

   -77.2660 -77.2521 -77.0995 -77.0856 -76.9732 -76.9592 -45.3254 -45.3086
   -45.1846 -45.0996 -45.0297 -45.0214 -45.0193 -45.0133 -44.9673 -44.9521
   -44.9379 -44.8723 -44.8574 -44.8565 -44.8564 -44.8418 -44.7219 -44.7063
    -5.7276  -4.6350  -4.5890  -4.5069  -4.4741  -4.2558  -4.2498  -4.1769
    -4.1083  -3.9218  -3.8956  -3.8319  -3.7246  -3.6211  -3.3668  -3.2342
    -3.2173  -3.1328  -3.0912  -2.9550  -2.8047  -2.7578  -2.6373  -2.6048
    -2.5133  -2.4618  -2.3692  -2.3028  -2.2515  -2.0132  -1.9916  -1.8108
    -1.6868  -1.6314  -1.6011  -1.4580  -1.3834  -1.3675  -1.2529  -1.2487
    -0.9949  -0.9512  -0.7361  -0.6859  -0.4968  -0.4428  -0.3915  -0.3109
    -0.1654  -0.1496  -0.0601   0.0382   0.1017   0.1223   0.4674   0.5186
     0.6267   0.6733   0.7385   0.8056   0.8104   0.8504   1.3011   1.3301
     1.3533   1.6510   2.2180   3.2872   3.9650   4.1718   4.5005   5.3623
     5.8954   6.1526   6.5462   6.7030   6.9316

          k = 0.0443-0.0418 0.0000 ( 32364 PWs)   bands (ev):

   -77.2660 -77.2521 -77.0995 -77.0856 -76.9732 -76.9592 -45.3253 -45.3086
   -45.1845 -45.0996 -45.0294 -45.0214 -45.0192 -45.0133 -44.9672 -44.9520
   -44.9379 -44.8722 -44.8573 -44.8565 -44.8564 -44.8417 -44.7219 -44.7063
    -5.9455  -4.7144  -4.6737  -4.6147  -4.5448  -4.3580  -4.3349  -4.2722
    -4.2067  -4.0699  -4.0054  -3.9409  -3.8426  -3.7174  -3.4076  -3.3463
    -3.2170  -3.1092  -3.1044  -2.9200  -2.7943  -2.7872  -2.6218  -2.6156
    -2.5414  -2.4640  -2.3552  -2.2712  -2.2532  -1.9665  -1.8150  -1.7612
    -1.6155  -1.5240  -1.4945  -1.3025  -1.2791  -1.2233  -1.1461  -1.1119
    -0.9662  -0.7281  -0.6694  -0.4485  -0.3187  -0.3096  -0.2425  -0.1641
    -0.0945  -0.0734   0.0639   0.1177   0.2258   0.2461   0.4139   0.5936
     0.6281   0.6989   0.7087   0.8188   0.8658   0.9445   1.2622   1.3522
     1.5060   2.0132   2.7062   3.1912   3.4892   3.7565   4.6530   4.7722
     5.8044   5.9200   6.4162   6.6445   6.7009

          k = 0.0443-0.0251 0.0000 ( 32358 PWs)   bands (ev):

   -77.2660 -77.2521 -77.0995 -77.0856 -76.9732 -76.9592 -45.3252 -45.3086
   -45.1844 -45.0995 -45.0292 -45.0214 -45.0191 -45.0133 -44.9671 -44.9519
   -44.9379 -44.8721 -44.8572 -44.8565 -44.8563 -44.8417 -44.7219 -44.7063
    -6.1069  -4.8061  -4.7288  -4.7010  -4.5883  -4.4588  -4.4187  -4.3089
    -4.2697  -4.1868  -4.0968  -4.0200  -3.9239  -3.7861  -3.5479  -3.3559
    -3.1938  -3.1234  -3.1071  -2.8840  -2.8177  -2.8154  -2.6806  -2.6149
    -2.5657  -2.3776  -2.3744  -2.2750  -2.2442  -1.9439  -1.7439  -1.6708
    -1.6096  -1.4894  -1.3669  -1.2358  -1.2082  -1.0667  -1.0301  -0.9572
    -0.8932  -0.6566  -0.6119  -0.3237  -0.2559  -0.1696  -0.1058  -0.0596
     0.0405   0.1562   0.1625   0.3271   0.3844   0.4239   0.4456   0.5872
     0.6915   0.7299   0.7429   0.8206   0.9259   1.0135   1.2019   1.3624
     1.4855   2.6060   2.6956   3.1057   3.2707   3.4417   4.2524   5.1446
     5.4158   5.7346   6.1942   6.5085   6.7193

          k = 0.0443-0.0084 0.0000 ( 32312 PWs)   bands (ev):

   -77.2660 -77.2521 -77.0995 -77.0856 -76.9732 -76.9592 -45.3251 -45.3085
   -45.1844 -45.0995 -45.0290 -45.0214 -45.0191 -45.0133 -44.9671 -44.9518
   -44.9379 -44.8721 -44.8572 -44.8564 -44.8563 -44.8417 -44.7219 -44.7063
    -6.1917  -4.8638  -4.7524  -4.7484  -4.5904  -4.5413  -4.4608  -4.3326
    -4.2948  -4.2463  -4.1492  -4.0599  -3.9647  -3.8208  -3.6316  -3.3581
    -3.1658  -3.1330  -3.1266  -2.8810  -2.8358  -2.8234  -2.7127  -2.6149
    -2.5763  -2.3926  -2.3082  -2.2933  -2.2415  -1.9314  -1.7362  -1.6098
    -1.5961  -1.4855  -1.3037  -1.2302  -1.1559  -0.9893  -0.9312  -0.8520
    -0.8212  -0.6836  -0.5762  -0.2685  -0.2091  -0.1285  -0.0245   0.0415
     0.0985   0.1833   0.2808   0.3486   0.4424   0.4888   0.5316   0.7093
     0.7330   0.8266   0.8376   0.9698   1.0462   1.0466   1.2000   1.2534
     1.7575   1.9862   2.6228   2.8971   3.4629   4.0701   4.4141   4.6640
     4.8900   5.6368   6.0941   6.4092   6.9125

          k = 0.0443 0.0084 0.0000 ( 32312 PWs)   bands (ev):

   -77.2660 -77.2521 -77.0995 -77.0856 -76.9732 -76.9592 -45.3251 -45.3085
   -45.1844 -45.0995 -45.0290 -45.0214 -45.0191 -45.0133 -44.9671 -44.9518
   -44.9379 -44.8721 -44.8572 -44.8564 -44.8563 -44.8417 -44.7219 -44.7063
    -6.1917  -4.8638  -4.7524  -4.7484  -4.5904  -4.5413  -4.4608  -4.3326
    -4.2948  -4.2463  -4.1492  -4.0599  -3.9647  -3.8208  -3.6316  -3.3581
    -3.1658  -3.1330  -3.1266  -2.8810  -2.8358  -2.8234  -2.7127  -2.6149
    -2.5763  -2.3926  -2.3082  -2.2933  -2.2415  -1.9314  -1.7362  -1.6098
    -1.5961  -1.4855  -1.3037  -1.2302  -1.1559  -0.9893  -0.9312  -0.8520
    -0.8212  -0.6836  -0.5762  -0.2685  -0.2091  -0.1285  -0.0245   0.0415
     0.0985   0.1833   0.2808   0.3486   0.4424   0.4888   0.5316   0.7093
     0.7330   0.8266   0.8376   0.9698   1.0461   1.0466   1.2000   1.2534
     1.7576   1.9862   2.6228   2.8971   3.4629   4.0701   4.4141   4.6640
     4.8900   5.6368   6.0941   6.4092   6.9127

          k = 0.0591 0.0334 0.0000 ( 32348 PWs)   bands (ev):

   -77.2640 -77.2541 -77.0975 -77.0876 -76.9712 -76.9612 -45.3228 -45.3111
   -45.1608 -45.0760 -45.0455 -45.0269 -45.0157 -44.9955 -44.9650 -44.9617
   -44.9542 -44.8806 -44.8698 -44.8587 -44.8549 -44.8440 -44.7196 -44.7086
    -5.7684  -4.7069  -4.4897  -4.4844  -4.4176  -4.2983  -4.2298  -4.1617
    -4.1078  -4.0599  -3.9775  -3.9132  -3.7656  -3.5993  -3.3884  -3.2709
    -3.2390  -3.1738  -3.0855  -3.0588  -2.8501  -2.7912  -2.6575  -2.6339
    -2.5855  -2.4691  -2.4362  -2.4061  -2.3038  -2.1982  -2.1240  -1.7968
    -1.7792  -1.6339  -1.5854  -1.4934  -1.3302  -1.1053  -1.0929  -0.9982
    -0.8376  -0.6990  -0.6961  -0.3972  -0.3486  -0.2693  -0.2498  -0.1430
    -0.1288  -0.0800  -0.0140   0.0662   0.1730   0.2771   0.3447   0.3712
     0.4665   0.5136   0.6930   0.7389   0.7605   0.8779   1.0097   1.1677
     1.6501   2.5768   2.7452   3.1371   3.5427   3.7436   3.9691   5.4729
     5.5766   6.0186   6.4072   6.5550   6.8127

          k = 0.0591 0.0501 0.0000 ( 32344 PWs)   bands (ev):

   -77.2640 -77.2541 -77.0975 -77.0876 -76.9712 -76.9612 -45.3229 -45.3111
   -45.1609 -45.0761 -45.0455 -45.0272 -45.0157 -44.9956 -44.9651 -44.9617
   -44.9542 -44.8806 -44.8699 -44.8587 -44.8550 -44.8440 -44.7196 -44.7086
    -5.5870  -4.7059  -4.4195  -4.4020  -4.3424  -4.2087  -4.1578  -4.0816
    -4.0622  -3.9510  -3.8898  -3.8283  -3.6822  -3.5569  -3.3036  -3.2629
    -3.2222  -3.1977  -3.0994  -3.0875  -2.8479  -2.7626  -2.6510  -2.6234
    -2.6070  -2.4778  -2.4377  -2.4087  -2.3293  -2.3029  -2.1455  -1.8967
    -1.8192  -1.6739  -1.6539  -1.4799  -1.4622  -1.3605  -1.1646  -1.0290
    -0.9107  -0.8517  -0.6739  -0.6228  -0.4294  -0.3821  -0.3309  -0.3227
    -0.1601  -0.1406  -0.0651  -0.0443   0.1332   0.1490   0.3487   0.3644
     0.4109   0.5224   0.6943   0.7192   0.7480   0.8691   0.9438   1.1567
     1.7510   2.1148   2.8312   2.8580   3.6759   4.0951   4.6593   4.8259
     6.0182   6.2339   6.4507   6.8058   7.0281

          k = 0.0591 0.0668 0.0000 ( 32327 PWs)   bands (ev):

   -77.2640 -77.2541 -77.0974 -77.0876 -76.9712 -76.9612 -45.3230 -45.3111
   -45.1609 -45.0762 -45.0455 -45.0274 -45.0156 -44.9957 -44.9651 -44.9617
   -44.9543 -44.8805 -44.8700 -44.8588 -44.8551 -44.8441 -44.7196 -44.7086
    -5.3647  -4.6805  -4.3387  -4.3379  -4.2850  -4.1076  -4.0702  -3.9936
    -3.9446  -3.8694  -3.7824  -3.7354  -3.5656  -3.5236  -3.3195  -3.2905
    -3.2486  -3.1555  -3.1203  -3.0478  -2.8745  -2.7676  -2.6837  -2.6662
    -2.6065  -2.5028  -2.4670  -2.4306  -2.4081  -2.2971  -2.1690  -2.0267
    -1.8554  -1.7874  -1.7149  -1.6012  -1.5656  -1.4799  -1.2063  -1.1478
    -1.0572  -0.9288  -0.8668  -0.6296  -0.5426  -0.4273  -0.4141  -0.2699
    -0.2662  -0.1316  -0.0464  -0.0394   0.0837   0.0939   0.3294   0.3912
     0.4087   0.5356   0.6764   0.6929   0.7148   0.8492   0.8715   1.1588
     1.4106   1.7861   2.4856   2.8232   4.1653   4.4749   4.5718   5.5321
     5.9081   6.4850   6.5908   7.0363   7.1350

          k = 0.0591 0.0835 0.0000 ( 32317 PWs)   bands (ev):

   -77.2640 -77.2541 -77.0974 -77.0876 -76.9712 -76.9612 -45.3231 -45.3111
   -45.1610 -45.0762 -45.0454 -45.0275 -45.0156 -44.9957 -44.9652 -44.9617
   -44.9544 -44.8805 -44.8701 -44.8588 -44.8551 -44.8441 -44.7197 -44.7086
    -5.1532  -4.6495  -4.3439  -4.2653  -4.2422  -3.9985  -3.9924  -3.8761
    -3.8258  -3.7953  -3.7708  -3.6111  -3.5505  -3.4368  -3.4267  -3.2705
    -3.2648  -3.1681  -3.1359  -2.9674  -2.9041  -2.8095  -2.7713  -2.6935
    -2.6186  -2.5632  -2.5472  -2.4709  -2.4162  -2.2419  -2.1873  -2.1003
    -1.9061  -1.8975  -1.7776  -1.7725  -1.6254  -1.4951  -1.2690  -1.2196
    -1.1940  -1.1088  -0.7518  -0.6277  -0.6038  -0.4750  -0.4415  -0.3256
    -0.1631  -0.1217  -0.0244   0.0499   0.0590   0.1641   0.2727   0.4261
     0.4293   0.5413   0.5974   0.6617   0.6833   0.7825   0.8792   0.9933
     1.1578   1.3194   2.6709   2.7762   3.6164   5.1037   5.3309   5.7175
     6.3283   6.4487   6.5312   6.8819   7.0231

          k = 0.0591 0.1002 0.0000 ( 32332 PWs)   bands (ev):

   -77.2639 -77.2541 -77.0974 -77.0876 -76.9711 -76.9612 -45.3231 -45.3111
   -45.1610 -45.0762 -45.0454 -45.0276 -45.0155 -44.9958 -44.9652 -44.9617
   -44.9544 -44.8805 -44.8701 -44.8588 -44.8551 -44.8441 -44.7196 -44.7086
    -5.0552  -4.6356  -4.3666  -4.2350  -4.2257  -3.9714  -3.8920  -3.8608
    -3.7905  -3.7839  -3.6690  -3.6541  -3.5466  -3.4975  -3.3709  -3.2759
    -3.2526  -3.2041  -3.0586  -2.9521  -2.9307  -2.8479  -2.8466  -2.6937
    -2.6434  -2.5871  -2.5717  -2.4806  -2.4204  -2.2220  -2.1943  -2.0984
    -1.9778  -1.9159  -1.8291  -1.8025  -1.6441  -1.5062  -1.3043  -1.2749
    -1.1927  -1.1656  -0.6900  -0.6225  -0.6188  -0.5049  -0.4631  -0.3356
    -0.1771  -0.0709  -0.0152   0.0598   0.1603   0.2408   0.2468   0.4303
     0.5016   0.5422   0.5563   0.5695   0.6721   0.7573   0.8035   0.8829
     1.0801   1.1566   2.7592   2.8874   3.2997   5.5987   5.6802   5.8074
     6.1005   6.2638   6.4190   7.2277   7.2947

          k = 0.0591 0.1169 0.0000 ( 32317 PWs)   bands (ev):

   -77.2640 -77.2541 -77.0974 -77.0876 -76.9712 -76.9612 -45.3231 -45.3111
   -45.1610 -45.0762 -45.0454 -45.0275 -45.0156 -44.9957 -44.9652 -44.9617
   -44.9544 -44.8805 -44.8701 -44.8588 -44.8551 -44.8441 -44.7197 -44.7086
    -5.1532  -4.6495  -4.3439  -4.2653  -4.2422  -3.9985  -3.9924  -3.8761
    -3.8258  -3.7953  -3.7708  -3.6111  -3.5505  -3.4368  -3.4267  -3.2705
    -3.2648  -3.1681  -3.1359  -2.9674  -2.9041  -2.8095  -2.7713  -2.6935
    -2.6186  -2.5632  -2.5472  -2.4709  -2.4162  -2.2419  -2.1873  -2.1003
    -1.9061  -1.8975  -1.7776  -1.7725  -1.6254  -1.4951  -1.2690  -1.2196
    -1.1940  -1.1088  -0.7518  -0.6277  -0.6038  -0.4750  -0.4415  -0.3256
    -0.1631  -0.1217  -0.0244   0.0499   0.0590   0.1641   0.2727   0.4261
     0.4293   0.5413   0.5974   0.6617   0.6833   0.7825   0.8792   0.9933
     1.1578   1.3194   2.6709   2.7762   3.6164   5.1037   5.3309   5.7175
     6.3284   6.4488   6.5312   6.8818   7.0231

          k = 0.0591-0.0668 0.0000 ( 32327 PWs)   bands (ev):

   -77.2640 -77.2541 -77.0974 -77.0876 -76.9712 -76.9612 -45.3230 -45.3111
   -45.1609 -45.0762 -45.0455 -45.0274 -45.0156 -44.9957 -44.9651 -44.9617
   -44.9543 -44.8805 -44.8700 -44.8588 -44.8551 -44.8441 -44.7196 -44.7086
    -5.3647  -4.6805  -4.3387  -4.3379  -4.2850  -4.1076  -4.0702  -3.9936
    -3.9446  -3.8694  -3.7824  -3.7354  -3.5656  -3.5236  -3.3195  -3.2905
    -3.2485  -3.1555  -3.1203  -3.0478  -2.8745  -2.7676  -2.6837  -2.6662
    -2.6065  -2.5028  -2.4670  -2.4306  -2.4081  -2.2971  -2.1690  -2.0267
    -1.8554  -1.7874  -1.7149  -1.6012  -1.5656  -1.4799  -1.2063  -1.1478
    -1.0572  -0.9288  -0.8668  -0.6296  -0.5426  -0.4273  -0.4141  -0.2699
    -0.2662  -0.1316  -0.0464  -0.0394   0.0837   0.0939   0.3294   0.3912
     0.4087   0.5356   0.6764   0.6929   0.7148   0.8492   0.8715   1.1588
     1.4106   1.7861   2.4856   2.8232   4.1653   4.4749   4.5718   5.5321
     5.9081   6.4850   6.5908   7.0364   7.1348

          k = 0.0591-0.0501 0.0000 ( 32344 PWs)   bands (ev):

   -77.2640 -77.2541 -77.0975 -77.0876 -76.9712 -76.9612 -45.3229 -45.3111
   -45.1609 -45.0761 -45.0455 -45.0272 -45.0157 -44.9956 -44.9651 -44.9617
   -44.9542 -44.8806 -44.8699 -44.8587 -44.8550 -44.8440 -44.7196 -44.7086
    -5.5870  -4.7059  -4.4195  -4.4020  -4.3424  -4.2087  -4.1578  -4.0816
    -4.0622  -3.9510  -3.8898  -3.8283  -3.6822  -3.5569  -3.3036  -3.2629
    -3.2222  -3.1977  -3.0994  -3.0875  -2.8479  -2.7626  -2.6510  -2.6234
    -2.6070  -2.4778  -2.4377  -2.4087  -2.3293  -2.3029  -2.1455  -1.8967
    -1.8192  -1.6739  -1.6539  -1.4799  -1.4622  -1.3605  -1.1646  -1.0290
    -0.9107  -0.8517  -0.6739  -0.6228  -0.4294  -0.3821  -0.3309  -0.3227
    -0.1601  -0.1406  -0.0651  -0.0443   0.1332   0.1490   0.3487   0.3644
     0.4109   0.5224   0.6943   0.7192   0.7480   0.8691   0.9438   1.1567
     1.7510   2.1148   2.8312   2.8580   3.6759   4.0951   4.6593   4.8259
     6.0182   6.2339   6.4507   6.8058   7.0283

          k = 0.0591-0.0334 0.0000 ( 32348 PWs)   bands (ev):

   -77.2640 -77.2541 -77.0975 -77.0876 -76.9712 -76.9612 -45.3228 -45.3111
   -45.1608 -45.0760 -45.0455 -45.0269 -45.0157 -44.9955 -44.9650 -44.9617
   -44.9542 -44.8806 -44.8698 -44.8587 -44.8549 -44.8440 -44.7196 -44.7086
    -5.7684  -4.7069  -4.4897  -4.4844  -4.4176  -4.2983  -4.2298  -4.1617
    -4.1078  -4.0599  -3.9775  -3.9132  -3.7656  -3.5993  -3.3884  -3.2709
    -3.2390  -3.1738  -3.0855  -3.0588  -2.8501  -2.7912  -2.6575  -2.6339
    -2.5855  -2.4691  -2.4362  -2.4061  -2.3038  -2.1982  -2.1240  -1.7968
    -1.7792  -1.6339  -1.5854  -1.4934  -1.3302  -1.1053  -1.0929  -0.9982
    -0.8376  -0.6990  -0.6961  -0.3972  -0.3486  -0.2693  -0.2498  -0.1430
    -0.1288  -0.0800  -0.0140   0.0662   0.1730   0.2771   0.3447   0.3712
     0.4665   0.5136   0.6930   0.7389   0.7605   0.8779   1.0097   1.1677
     1.6501   2.5768   2.7452   3.1371   3.5427   3.7436   3.9691   5.4729
     5.5766   6.0186   6.4072   6.5550   6.8129

          k = 0.0591-0.0167 0.0000 ( 32354 PWs)   bands (ev):

   -77.2640 -77.2541 -77.0975 -77.0876 -76.9712 -76.9612 -45.3227 -45.3111
   -45.1607 -45.0760 -45.0455 -45.0268 -45.0158 -44.9955 -44.9650 -44.9617
   -44.9541 -44.8806 -44.8698 -44.8587 -44.8549 -44.8440 -44.7196 -44.7086
    -5.8846  -4.6792  -4.5567  -4.5286  -4.4797  -4.3771  -4.2726  -4.2087
    -4.1449  -4.1287  -4.0228  -3.9788  -3.8107  -3.6292  -3.5031  -3.2794
    -3.2297  -3.1215  -3.0895  -3.0456  -2.8778  -2.8272  -2.6799  -2.6279
    -2.6049  -2.4544  -2.4157  -2.4152  -2.2796  -2.1313  -2.1104  -1.7851
    -1.7042  -1.6331  -1.5414  -1.4982  -1.2252  -1.0336  -0.9684  -0.8982
    -0.8260  -0.6547  -0.6263  -0.3491  -0.2929  -0.2047  -0.1839  -0.0698
    -0.0595  -0.0328   0.1087   0.1989   0.2279   0.3889   0.4228   0.4748
     0.5347   0.6569   0.7035   0.7426   0.7783   0.8915   1.0376   1.3165
     1.5209   1.9156   2.5799   3.4600   3.5310   3.9139   4.3527   4.8837
     5.4230   5.9093   6.3685   6.6719   6.7482

          k = 0.0591-0.0000 0.0000 ( 32369 PWs)   bands (ev):

   -77.2640 -77.2541 -77.0975 -77.0876 -76.9712 -76.9612 -45.3227 -45.3110
   -45.1607 -45.0760 -45.0455 -45.0267 -45.0158 -44.9954 -44.9649 -44.9617
   -44.9541 -44.8806 -44.8698 -44.8587 -44.8548 -44.8440 -44.7196 -44.7086
    -5.9245  -4.6529  -4.5813  -4.5517  -4.5027  -4.4134  -4.2866  -4.2240
    -4.1739  -4.1353  -4.0374  -4.0035  -3.8227  -3.6397  -3.5496  -3.2809
    -3.2277  -3.0918  -3.0812  -3.0619  -2.8923  -2.8429  -2.6915  -2.6225
    -2.6128  -2.4626  -2.4227  -2.3912  -2.2699  -2.1096  -2.1061  -1.7813
    -1.6788  -1.6342  -1.5405  -1.4877  -1.1871  -1.0230  -0.9192  -0.8569
    -0.8125  -0.6228  -0.6098  -0.3505  -0.2639  -0.2166  -0.1496  -0.0706
    -0.0192   0.0161   0.0952   0.2383   0.2909   0.4032   0.4305   0.5298
     0.5751   0.7170   0.7281   0.7374   0.8732   1.0427   1.1875   1.2946
     1.4694   1.6764   2.0628   3.3750   4.1979   4.2151   4.4025   4.6065
     4.9705   5.8086   6.3432   6.5864   6.9671

          k = 0.0591 0.0167 0.0000 ( 32354 PWs)   bands (ev):

   -77.2640 -77.2541 -77.0975 -77.0876 -76.9712 -76.9612 -45.3227 -45.3111
   -45.1607 -45.0760 -45.0455 -45.0268 -45.0158 -44.9955 -44.9650 -44.9617
   -44.9541 -44.8806 -44.8698 -44.8587 -44.8549 -44.8440 -44.7196 -44.7086
    -5.8846  -4.6792  -4.5567  -4.5286  -4.4797  -4.3771  -4.2726  -4.2087
    -4.1449  -4.1287  -4.0228  -3.9788  -3.8107  -3.6292  -3.5031  -3.2794
    -3.2297  -3.1215  -3.0895  -3.0456  -2.8778  -2.8272  -2.6799  -2.6279
    -2.6049  -2.4544  -2.4157  -2.4152  -2.2796  -2.1313  -2.1104  -1.7851
    -1.7042  -1.6331  -1.5414  -1.4982  -1.2252  -1.0336  -0.9684  -0.8982
    -0.8260  -0.6547  -0.6263  -0.3491  -0.2929  -0.2047  -0.1839  -0.0698
[...]
    -2.7342  -2.6790  -2.5598  -2.5537  -2.4473  -2.4112  -2.3193  -2.2674
    -2.1869  -2.0669  -1.7204  -1.6758  -1.5002  -1.3975  -1.1450  -1.0249
    -1.0151  -0.8958  -0.5664  -0.5545  -0.5286  -0.4310  -0.3985  -0.3211
    -0.1909  -0.0620   0.0019   0.0586   0.0911   0.1179   0.2113   0.3138
     0.3652   0.4808   0.5755   0.6267   0.6294   0.7323   0.8734   0.9707
     1.0466   1.3715   2.3742   3.0780   3.6509   5.0814   5.2985   5.7294
     6.1699   6.3477   6.4851   6.9376   7.3272

          k = 0.0739 0.1086 0.0000 ( 32315 PWs)   bands (ev):

   -77.2616 -77.2565 -77.0951 -77.0900 -76.9688 -76.9636 -45.3202 -45.3139
   -45.1333 -45.0734 -45.0488 -45.0247 -45.0182 -44.9895 -44.9681 -44.9625
   -44.9569 -44.9084 -44.8673 -44.8614 -44.8525 -44.8467 -44.7170 -44.7112
    -4.9193  -4.8703  -4.2267  -4.1342  -4.0273  -3.9861  -3.9215  -3.8961
    -3.8124  -3.7926  -3.7127  -3.5972  -3.5356  -3.4413  -3.3270  -3.2966
    -3.2519  -3.1695  -3.1551  -3.0444  -2.9784  -2.9701  -2.8989  -2.7830
    -2.7342  -2.6790  -2.5598  -2.5537  -2.4473  -2.4112  -2.3193  -2.2674
    -2.1869  -2.0669  -1.7204  -1.6758  -1.5002  -1.3975  -1.1450  -1.0250
    -1.0151  -0.8958  -0.5664  -0.5545  -0.5286  -0.4310  -0.3985  -0.3211
    -0.1909  -0.0620   0.0019   0.0586   0.0911   0.1179   0.2113   0.3138
     0.3652   0.4808   0.5755   0.6267   0.6294   0.7323   0.8734   0.9707
     1.0466   1.3715   2.3742   3.0780   3.6509   5.0814   5.2985   5.7294
     6.1699   6.3477   6.4851   6.9376   7.3272

          k = 0.0739 0.1253 0.0000 ( 32297 PWs)   bands (ev):

   -77.2616 -77.2565 -77.0951 -77.0900 -76.9688 -76.9636 -45.3202 -45.3139
   -45.1333 -45.0734 -45.0487 -45.0246 -45.0183 -44.9895 -44.9681 -44.9625
   -44.9569 -44.9084 -44.8673 -44.8614 -44.8524 -44.8467 -44.7170 -44.7112
    -5.0218  -4.9064  -4.2268  -4.2020  -4.0514  -4.0246  -3.9423  -3.9062
    -3.8489  -3.8081  -3.7064  -3.6215  -3.5497  -3.4759  -3.3433  -3.3073
    -3.2764  -3.1987  -3.1586  -2.9435  -2.9380  -2.8853  -2.8689  -2.7389
    -2.7180  -2.6422  -2.5713  -2.5192  -2.4400  -2.3986  -2.3124  -2.2858
    -2.1708  -2.0399  -1.6542  -1.6362  -1.4983  -1.3786  -1.0792  -1.0082
    -0.9593  -0.9388  -0.6486  -0.5490  -0.5402  -0.3891  -0.3546  -0.3100
    -0.1479  -0.0861  -0.0637  -0.0344   0.0193   0.0708   0.1324   0.1923
     0.3581   0.3786   0.5977   0.6246   0.6749   0.7457   0.8846   1.0597
     1.4242   1.8666   2.4220   2.8217   4.1763   4.4318   5.1569   5.2065
     5.6061   6.8396   6.8404   7.0875   7.2002

          k = 0.0739-0.0585 0.0000 ( 32306 PWs)   bands (ev):

   -77.2616 -77.2565 -77.0951 -77.0900 -76.9688 -76.9636 -45.3201 -45.3139
   -45.1332 -45.0734 -45.0487 -45.0245 -45.0184 -44.9895 -44.9680 -44.9624
   -44.9569 -44.9084 -44.8673 -44.8614 -44.8524 -44.8467 -44.7170 -44.7112
    -5.2186  -4.8750  -4.2813  -4.2560  -4.0837  -4.0808  -4.0054  -3.9347
    -3.9114  -3.8338  -3.7542  -3.7115  -3.5423  -3.4861  -3.3548  -3.3161
    -3.2544  -3.1925  -3.1125  -3.0270  -2.8769  -2.8276  -2.8002  -2.6801
    -2.6758  -2.5956  -2.5842  -2.4499  -2.4392  -2.3933  -2.2963  -2.2783
    -2.1478  -1.9989  -1.6185  -1.5158  -1.4600  -1.3645  -1.0319  -0.9382
    -0.9221  -0.8213  -0.7105  -0.5591  -0.4939  -0.3449  -0.3373  -0.2777
    -0.2600  -0.1527  -0.1057  -0.0759  -0.0377   0.0823   0.0877   0.1411
     0.3652   0.3973   0.5842   0.6106   0.7339   0.7686   0.9521   1.0701
     1.9115   2.2619   2.5006   2.9685   3.6202   4.6300   4.6912   4.8963
     5.3956   6.5200   6.6165   7.0792   7.2826

          k = 0.0739-0.0418 0.0000 ( 32330 PWs)   bands (ev):

   -77.2616 -77.2565 -77.0951 -77.0900 -76.9688 -76.9636 -45.3200 -45.3139
   -45.1331 -45.0735 -45.0486 -45.0243 -45.0185 -44.9895 -44.9680 -44.9624
   -44.9568 -44.9085 -44.8672 -44.8614 -44.8523 -44.8467 -44.7170 -44.7112
    -5.3953  -4.8191  -4.3424  -4.2916  -4.1347  -4.1215  -4.0869  -3.9744
    -3.9684  -3.8654  -3.8567  -3.7694  -3.6074  -3.4530  -3.3460  -3.3145
    -3.2370  -3.1507  -3.1492  -3.0854  -2.8496  -2.8171  -2.7688  -2.6632
    -2.6374  -2.5760  -2.5697  -2.4411  -2.4273  -2.3484  -2.2774  -2.2681
    -2.1040  -1.9666  -1.5812  -1.5263  -1.3750  -1.2470  -1.0362  -0.8314
    -0.7869  -0.7175  -0.6011  -0.5919  -0.4032  -0.3925  -0.3306  -0.2762
    -0.1826  -0.1798  -0.1415  -0.1025   0.0419   0.0802   0.1236   0.1670
     0.3835   0.4102   0.5765   0.5926   0.7521   0.7833   1.0100   1.0639
     1.9526   2.4674   2.7967   2.9658   3.6600   3.8254   4.3589   5.5224
     5.6040   5.8233   6.3829   7.0021   7.2051

          k = 0.0739-0.0251 0.0000 ( 32332 PWs)   bands (ev):

   -77.2616 -77.2565 -77.0951 -77.0900 -76.9688 -76.9636 -45.3199 -45.3139
   -45.1331 -45.0735 -45.0486 -45.0241 -45.0186 -44.9895 -44.9679 -44.9624
   -44.9568 -44.9085 -44.8672 -44.8614 -44.8523 -44.8467 -44.7170 -44.7112
    -5.5235  -4.7408  -4.3834  -4.3102  -4.1923  -4.1832  -4.1218  -4.0252
    -4.0098  -3.9521  -3.8716  -3.8258  -3.6432  -3.4444  -3.3530  -3.3410
    -3.2336  -3.2321  -3.0821  -3.0811  -2.8604  -2.8376  -2.7864  -2.6743
    -2.6025  -2.5825  -2.5449  -2.4444  -2.4258  -2.3215  -2.2590  -2.2319
    -2.0717  -1.9537  -1.5612  -1.5490  -1.3699  -1.0184  -1.0037  -0.7320
    -0.7036  -0.6946  -0.6231  -0.4316  -0.4137  -0.3071  -0.3012  -0.2469
    -0.1940  -0.1581  -0.1473  -0.0420   0.1235   0.1841   0.2359   0.3414
     0.3788   0.4226   0.5865   0.6150   0.7512   0.7582   1.0293   1.0732
     1.8281   1.9546   2.5351   3.4791   3.5554   4.0630   4.5299   4.8675
     6.0890   6.1130   6.2506   6.7265   6.9841

          k = 0.0739-0.0084 0.0000 ( 32336 PWs)   bands (ev):

   -77.2616 -77.2565 -77.0951 -77.0900 -76.9688 -76.9636 -45.3199 -45.3140
   -45.1330 -45.0735 -45.0486 -45.0240 -45.0186 -44.9895 -44.9679 -44.9623
   -44.9568 -44.9085 -44.8671 -44.8614 -44.8523 -44.8467 -44.7170 -44.7112
    -5.5901  -4.6659  -4.4168  -4.3044  -4.2526  -4.2204  -4.1330  -4.0744
    -4.0318  -3.9793  -3.8786  -3.8644  -3.6453  -3.4438  -3.4255  -3.3401
    -3.2496  -3.2351  -3.0848  -2.9986  -2.9029  -2.8621  -2.8285  -2.6734
    -2.5946  -2.5807  -2.5264  -2.4504  -2.4341  -2.2969  -2.2470  -2.2082
    -2.0601  -1.9530  -1.5650  -1.5571  -1.3458  -0.9837  -0.8524  -0.7068
    -0.6826  -0.6634  -0.5814  -0.4526  -0.3462  -0.2947  -0.2910  -0.2485
    -0.2009  -0.1631  -0.1382   0.0445   0.1781   0.2784   0.3550   0.3745
     0.4138   0.6057   0.6207   0.7103   0.7420   0.8189   1.0252   1.2480
     1.3423   1.7490   1.9301   3.7066   3.9330   4.2505   4.4051   5.2264
     5.4992   6.1408   6.5328   6.6786   6.8939

          k = 0.0739 0.0084 0.0000 ( 32336 PWs)   bands (ev):

   -77.2616 -77.2565 -77.0951 -77.0900 -76.9688 -76.9636 -45.3199 -45.3140
   -45.1330 -45.0735 -45.0486 -45.0240 -45.0186 -44.9895 -44.9679 -44.9623
   -44.9568 -44.9085 -44.8671 -44.8614 -44.8523 -44.8467 -44.7170 -44.7112
    -5.5901  -4.6659  -4.4168  -4.3044  -4.2526  -4.2204  -4.1330  -4.0744
    -4.0318  -3.9793  -3.8786  -3.8644  -3.6453  -3.4438  -3.4255  -3.3401
    -3.2496  -3.2351  -3.0848  -2.9986  -2.9029  -2.8621  -2.8285  -2.6734
    -2.5946  -2.5807  -2.5264  -2.4504  -2.4341  -2.2969  -2.2470  -2.2082
    -2.0601  -1.9530  -1.5650  -1.5571  -1.3458  -0.9837  -0.8524  -0.7068
    -0.6826  -0.6634  -0.5814  -0.4526  -0.3462  -0.2947  -0.2910  -0.2485
    -0.2009  -0.1631  -0.1382   0.0445   0.1781   0.2784   0.3550   0.3745
     0.4138   0.6057   0.6207   0.7103   0.7420   0.8189   1.0252   1.2480
     1.3423   1.7490   1.9301   3.7066   3.9330   4.2505   4.4051   5.2264
     5.4992   6.1408   6.5328   6.6787   6.8938

          k = 0.0739 0.0251 0.0000 ( 32332 PWs)   bands (ev):

   -77.2616 -77.2565 -77.0951 -77.0900 -76.9688 -76.9636 -45.3199 -45.3139
   -45.1331 -45.0735 -45.0486 -45.0241 -45.0186 -44.9895 -44.9679 -44.9624
   -44.9568 -44.9085 -44.8672 -44.8614 -44.8523 -44.8467 -44.7170 -44.7112
    -5.5235  -4.7408  -4.3834  -4.3102  -4.1923  -4.1832  -4.1218  -4.0252
    -4.0098  -3.9521  -3.8716  -3.8258  -3.6432  -3.4444  -3.3530  -3.3410
    -3.2336  -3.2321  -3.0821  -3.0811  -2.8604  -2.8376  -2.7864  -2.6743
    -2.6025  -2.5825  -2.5449  -2.4444  -2.4258  -2.3215  -2.2590  -2.2319
    -2.0717  -1.9537  -1.5612  -1.5490  -1.3699  -1.0184  -1.0037  -0.7320
    -0.7036  -0.6946  -0.6231  -0.4316  -0.4137  -0.3071  -0.3012  -0.2469
    -0.1940  -0.1581  -0.1473  -0.0420   0.1235   0.1841   0.2359   0.3414
     0.3788   0.4226   0.5865   0.6150   0.7512   0.7582   1.0293   1.0732
     1.8281   1.9546   2.5351   3.4791   3.5554   4.0630   4.5299   4.8675
     6.0890   6.1130   6.2506   6.7265   6.9842

          k =-0.0886-0.0501 0.0000 ( 32324 PWs)   bands (ev):

   -77.2591 -77.2590 -77.0927 -77.0924 -76.9662 -76.9662 -45.3172 -45.3168
   -45.1034 -45.1033 -45.0215 -45.0213 -45.0193 -45.0190 -44.9597 -44.9595
   -44.9383 -44.9382 -44.8645 -44.8642 -44.8496 -44.8495 -44.7141 -44.7141
    -5.0561  -5.0556  -4.2556  -4.2550  -4.0522  -4.0520  -3.9786  -3.9782
    -3.7654  -3.7647  -3.6911  -3.6906  -3.5528  -3.5518  -3.4256  -3.4246
    -3.1180  -3.1178  -3.0393  -3.0372  -2.8250  -2.8244  -2.8069  -2.8050
    -2.6998  -2.6959  -2.6258  -2.6250  -2.4514  -2.4487  -2.3392  -2.3380
    -2.1391  -2.1375  -1.5531  -1.5526  -1.3499  -1.3492  -0.8967  -0.8967
    -0.8284  -0.8277  -0.5128  -0.5125  -0.3751  -0.3749  -0.2819  -0.2806
    -0.2345  -0.2343  -0.1786  -0.1776  -0.1244  -0.1238   0.0548   0.0549
     0.4091   0.4092   0.5206   0.5210   0.7653   0.7654   1.0224   1.0227
     2.2412   2.2421   2.8579   2.8582   3.7412   3.7418   4.9977   4.9991
     5.6640   5.6645   6.8114   6.8114   7.5230

          k =-0.0886-0.0334 0.0000 ( 32319 PWs)   bands (ev):

   -77.2591 -77.2590 -77.0927 -77.0924 -76.9662 -76.9662 -45.3172 -45.3168
   -45.1034 -45.1033 -45.0216 -45.0212 -45.0193 -45.0190 -44.9597 -44.9595
   -44.9383 -44.9382 -44.8645 -44.8642 -44.8496 -44.8494 -44.7141 -44.7141
    -5.1631  -4.9192  -4.2658  -4.2241  -4.0545  -4.0452  -3.9911  -3.9748
    -3.8246  -3.7392  -3.6943  -3.6835  -3.5859  -3.5104  -3.4414  -3.4082
    -3.1362  -3.1204  -3.0707  -3.0145  -2.8452  -2.8410  -2.8268  -2.7965
    -2.7148  -2.7008  -2.6446  -2.6093  -2.4656  -2.4368  -2.3346  -2.3279
    -2.1839  -2.1088  -1.5800  -1.5343  -1.4689  -1.1999  -0.9899  -0.8398
    -0.8309  -0.7467  -0.5285  -0.4610  -0.3920  -0.3772  -0.3201  -0.2919
    -0.2589  -0.1901  -0.1691  -0.1596  -0.0852  -0.0134   0.0641   0.1560
     0.3924   0.3937   0.5324   0.5385   0.7440   0.7586   0.9843   1.0354
     1.9641   2.1561   2.4291   3.1657   3.5825   4.5397   4.7806   4.8445
     5.4218   6.4641   6.6036   7.0675   7.2680

          k =-0.0886-0.0167 0.0000 ( 32325 PWs)   bands (ev):

   -77.2591 -77.2590 -77.0927 -77.0924 -76.9662 -76.9662 -45.3172 -45.3168
   -45.1034 -45.1032 -45.0217 -45.0211 -45.0193 -45.0190 -44.9597 -44.9595
   -44.9383 -44.9382 -44.8645 -44.8642 -44.8496 -44.8494 -44.7141 -44.7141
    -5.2300  -4.7826  -4.2716  -4.1721  -4.0671  -4.0299  -4.0063  -3.9845
    -3.9022  -3.7463  -3.7162  -3.6409  -3.5909  -3.4961  -3.4127  -3.4099
    -3.2218  -3.1015  -3.0814  -2.9999  -2.9069  -2.8648  -2.8508  -2.8005
    -2.7342  -2.7100  -2.6744  -2.5923  -2.4837  -2.4231  -2.3316  -2.2964
    -2.2199  -2.1079  -1.6074  -1.5406  -1.5127  -1.0852  -1.0359  -0.8278
    -0.7970  -0.6536  -0.5150  -0.4283  -0.4068  -0.3562  -0.3233  -0.3097
    -0.2879  -0.2056  -0.1891  -0.1839   0.1019   0.1142   0.2018   0.3568
     0.3599   0.4506   0.5602   0.5882   0.6598   0.7433   0.9889   1.0235
     1.3979   1.9049   2.0676   3.2273   4.2007   4.4121   4.5376   5.5134
     5.8652   6.2037   6.6413   6.9913   7.0697

          k =-0.0886 0.0000 0.0000 ( 32305 PWs)   bands (ev):

   -77.2591 -77.2590 -77.0927 -77.0924 -76.9662 -76.9662 -45.3172 -45.3168
   -45.1035 -45.1032 -45.0217 -45.0211 -45.0193 -45.0190 -44.9597 -44.9595
   -44.9384 -44.9382 -44.8645 -44.8642 -44.8496 -44.8494 -44.7141 -44.7141
    -5.2526  -4.7163  -4.2801  -4.1240  -4.0982  -4.0168  -4.0122  -3.9942
    -3.9436  -3.7513  -3.7273  -3.6100  -3.5895  -3.5090  -3.4096  -3.3437
    -3.3157  -3.0838  -3.0788  -2.9847  -2.9603  -2.8809  -2.8561  -2.8054
    -2.7409  -2.7135  -2.6900  -2.5843  -2.4920  -2.4168  -2.3318  -2.2759
    -2.2320  -2.1162  -1.6192  -1.5532  -1.5113  -1.0486  -1.0482  -0.8193
    -0.7812  -0.6038  -0.5003  -0.4222  -0.4162  -0.3744  -0.3197  -0.2975
    -0.2836  -0.2203  -0.2170  -0.1811   0.1223   0.2202   0.3049   0.3431
     0.3879   0.5492   0.5688   0.6217   0.7349   0.8767   0.9039   1.0143
     1.1151   1.4964   2.0352   3.4865   3.7882   4.4824   5.2506   5.3742
     6.2215   6.3173   6.3851   6.4913   7.0464

          k =-0.0886 0.0167 0.0000 ( 32325 PWs)   bands (ev):

   -77.2591 -77.2590 -77.0927 -77.0924 -76.9662 -76.9662 -45.3172 -45.3168
   -45.1034 -45.1032 -45.0217 -45.0211 -45.0193 -45.0190 -44.9597 -44.9595
   -44.9383 -44.9382 -44.8645 -44.8642 -44.8496 -44.8494 -44.7141 -44.7141
    -5.2300  -4.7826  -4.2716  -4.1721  -4.0671  -4.0299  -4.0063  -3.9845
    -3.9022  -3.7463  -3.7162  -3.6409  -3.5909  -3.4961  -3.4127  -3.4099
    -3.2218  -3.1015  -3.0814  -2.9999  -2.9069  -2.8648  -2.8508  -2.8005
    -2.7342  -2.7100  -2.6744  -2.5923  -2.4837  -2.4231  -2.3316  -2.2964
    -2.2199  -2.1079  -1.6074  -1.5406  -1.5127  -1.0852  -1.0359  -0.8278
    -0.7970  -0.6536  -0.5150  -0.4283  -0.4068  -0.3562  -0.3233  -0.3097
    -0.2879  -0.2056  -0.1891  -0.1839   0.1019   0.1142   0.2018   0.3568
     0.3599   0.4506   0.5602   0.5882   0.6598   0.7433   0.9889   1.0235
     1.3979   1.9049   2.0676   3.2273   4.2007   4.4121   4.5376   5.5134
     5.8652   6.2036   6.6411   6.9914   7.0698

          k =-0.0886 0.0334 0.0000 ( 32319 PWs)   bands (ev):

   -77.2591 -77.2590 -77.0927 -77.0924 -76.9662 -76.9662 -45.3172 -45.3168
   -45.1034 -45.1033 -45.0216 -45.0212 -45.0193 -45.0190 -44.9597 -44.9595
   -44.9383 -44.9382 -44.8645 -44.8642 -44.8496 -44.8494 -44.7141 -44.7141
    -5.1631  -4.9192  -4.2658  -4.2241  -4.0545  -4.0452  -3.9911  -3.9748
    -3.8246  -3.7392  -3.6943  -3.6835  -3.5859  -3.5104  -3.4414  -3.4082
    -3.1362  -3.1204  -3.0707  -3.0145  -2.8452  -2.8410  -2.8268  -2.7965
    -2.7148  -2.7008  -2.6446  -2.6093  -2.4656  -2.4368  -2.3346  -2.3279
    -2.1839  -2.1088  -1.5800  -1.5343  -1.4689  -1.1999  -0.9899  -0.8398
    -0.8309  -0.7467  -0.5285  -0.4610  -0.3920  -0.3772  -0.3201  -0.2919
    -0.2589  -0.1902  -0.1691  -0.1596  -0.0852  -0.0134   0.0641   0.1560
     0.3924   0.3937   0.5324   0.5385   0.7440   0.7586   0.9843   1.0353
     1.9641   2.1561   2.4291   3.1657   3.5825   4.5397   4.7806   4.8445
     5.4218   6.4641   6.6036   7.0678   7.2670

          k =-0.0886-0.1504 0.0000 ( 32324 PWs)   bands (ev):

   -77.2591 -77.2590 -77.0927 -77.0924 -76.9662 -76.9662 -45.3172 -45.3168
   -45.1034 -45.1033 -45.0215 -45.0213 -45.0193 -45.0190 -44.9597 -44.9595
   -44.9383 -44.9382 -44.8645 -44.8642 -44.8496 -44.8495 -44.7141 -44.7141
    -5.0562  -5.0555  -4.2556  -4.2551  -4.0522  -4.0520  -3.9786  -3.9782
    -3.7654  -3.7646  -3.6911  -3.6906  -3.5527  -3.5518  -3.4256  -3.4246
    -3.1181  -3.1177  -3.0393  -3.0372  -2.8250  -2.8244  -2.8069  -2.8050
    -2.6998  -2.6958  -2.6258  -2.6250  -2.4514  -2.4487  -2.3392  -2.3380
    -2.1391  -2.1375  -1.5531  -1.5526  -1.3498  -1.3493  -0.8967  -0.8966
    -0.8284  -0.8277  -0.5128  -0.5125  -0.3751  -0.3749  -0.2819  -0.2806
    -0.2345  -0.2343  -0.1787  -0.1776  -0.1244  -0.1238   0.0548   0.0549
     0.4092   0.4092   0.5206   0.5209   0.7653   0.7654   1.0224   1.0227
     2.2412   2.2421   2.8579   2.8582   3.7412   3.7418   4.9977   4.9991
     5.6641   5.6644   6.8113   6.8114   7.5230

     the Fermi energy is     0.8663 ev

!    total energy              =   -1883.48669192 Ry
     estimated scf accuracy    <       0.00000223 Ry
     smearing contrib. (-TS)   =      -0.09061387 Ry
     internal energy E=F+TS    =   -1883.39607806 Ry

     The total energy is F=E-TS. E is the sum of the following terms:
     one-electron contribution =  -14878.67010837 Ry
     hartree contribution      =    7484.01543211 Ry
     xc contribution           =    -383.47977767 Ry
     ewald contribution        =    5894.73837586 Ry
     electric field correction =       0.00000001 Ry

     convergence has been achieved in  16 iterations

     negative rho (up, down):  1.578E-03 0.000E+00

     Forces acting on atoms (cartesian axes, Ry/au):

     atom    1 type  1   force =    -0.00000319    0.01130995    0.01364260
     atom    2 type  1   force =     0.00000031    0.01129419    0.01360913
     atom    3 type  2   force =     0.00001179   -0.00742150   -0.02359174
     atom    4 type  2   force =    -0.00001682   -0.00742014   -0.02360170
     atom    5 type  1   force =     0.00000794   -0.01135020    0.00642001
     atom    6 type  1   force =    -0.00000211   -0.01138267    0.00647627
     atom    7 type  2   force =     0.00000105    0.00817222    0.00464777
     atom    8 type  2   force =     0.00000273    0.00817199    0.00465527
     atom    9 type  1   force =     0.00000510   -0.00065253   -0.00141327
     atom   10 type  1   force =     0.00000491   -0.00026275   -0.00140902
     atom   11 type  2   force =     0.00050229   -0.00023000    0.00027838
     atom   12 type  2   force =    -0.00051399   -0.00022857    0.00028631

     Total force =     0.048726     Total SCF correction =     0.008405
     SCF correction compared to forces is large: reduce conv_thr to get better values

     Writing output data file ./Rh2Au2/Rh2Au2_beef.save/

     init_run     :     70.16s CPU     92.74s WALL (       1 calls)
     electrons    :   2790.62s CPU   3462.66s WALL (       1 calls)
     forces       :     78.28s CPU     81.95s WALL (       1 calls)

     Called by init_run:
     wfcinit      :     57.44s CPU     68.65s WALL (       1 calls)
     potinit      :      7.39s CPU      7.89s WALL (       1 calls)
     hinit0       :      2.64s CPU      6.54s WALL (       1 calls)

     Called by electrons:
     c_bands      :   2474.12s CPU   3069.60s WALL (      16 calls)
     sum_band     :    283.28s CPU    345.75s WALL (      16 calls)
     v_of_rho     :     20.14s CPU     28.40s WALL (      17 calls)
     newd         :     19.55s CPU     25.16s WALL (      17 calls)
     mix_rho      :      0.45s CPU      0.95s WALL (      16 calls)
     vdW_kernel   :      5.70s CPU      5.77s WALL (       1 calls)

     Called by c_bands:
     init_us_2    :      6.17s CPU      6.25s WALL (    2516 calls)
     cegterg      :   2447.20s CPU   2989.91s WALL (    1184 calls)

     Called by *egterg:
     cdiaghg      :    181.37s CPU    250.59s WALL (    6217 calls)
     h_psi        :   1158.36s CPU   1448.44s WALL (    6291 calls)
     s_psi        :    346.95s CPU    347.08s WALL (    6291 calls)
     g_psi        :      1.04s CPU      1.09s WALL (    5033 calls)

     Called by h_psi:
     h_psi:calbec :    365.13s CPU    403.55s WALL (    6291 calls)
     vloc_psi     :    425.72s CPU    676.93s WALL (    6291 calls)
     add_vuspsi   :    360.71s CPU    361.01s WALL (    6291 calls)

     General routines
     calbec       :    597.00s CPU    649.88s WALL (    7771 calls)
     fft          :      8.75s CPU     17.83s WALL (    1130 calls)
     ffts         :      0.06s CPU      0.15s WALL (      33 calls)
     fftw         :    500.72s CPU    791.33s WALL (  661566 calls)
     interpolate  :      0.17s CPU      0.30s WALL (      17 calls)

     Parallel routines
     fft_scatt_xy :     28.10s CPU     40.60s WALL (  662729 calls)
     fft_scatt_yz :    179.73s CPU    391.16s WALL (  662729 calls)

     PWSCF        :  49m15.36s CPU      1h 3m WALL


   This run was terminated on:   1:10: 6  11Jul2022            

=------------------------------------------------------------------------------=
   JOB DONE.
=------------------------------------------------------------------------------=
