
     Program PWSCF v.6.6 starts on 11Jul2022 at  1:10:10 

     This program is part of the open-source Quantum ESPRESSO suite
     for quantum simulation of materials; please cite
         "P. Giannozzi et al., J. Phys.:Condens. Matter 21 395502 (2009);
         "P. Giannozzi et al., J. Phys.:Condens. Matter 29 465901 (2017);
          URL http://www.quantum-espresso.org", 
     in publications or presentations arising from this work. More details at
     http://www.quantum-espresso.org/quote

     Parallel version (MPI), running on    37 processors

     MPI processes distributed on     3 nodes
     R & G space division:  proc/nbgrp/npool/nimage =      37
     Fft bands division:     nmany     =       1
     Reading input from Rh2Cd2.in
Warning: card &CELL ignored
Warning: card / ignored

     Current dimensions of program PWSCF are:
     Max number of different atomic species (ntypx) = 10
     Max number of k-points (npk) =  40000
     Max angular momentum in pseudopotentials (lmaxx) =  3
     Presently stress not available with electric field and gates

     Message from routine cell_base_init:
     DEPRECATED: use true lattice parameter, not A to a.u. conversion factor
     file Rh.pbe-spn-rrkjus_psl.1.0.0.UPF: wavefunction(s)  4S 5S renormalized
     file Cd.pbe-n-rrkjus_psl.1.0.0.UPF: wavefunction(s)  4D renormalized

     **************************************************************************
     Initializing libbeef V0.1.2 with the BEEF-vdW functional.
     Citation: Wellendorff et al., PRB 85, 235149 (2012).
     **************************************************************************


     IMPORTANT: XC functional enforced from input :
     Exchange-correlation= BEEF-VDW
                           (   1   4  43  14   2   0   0)
     Any further DFT definition will be discarded
     Please, verify this is what you really want


     Subspace diagonalization in iterative solution of the eigenvalue problem:
     a serial algorithm will be used


     Parallelization info
     --------------------
     sticks:   dense  smooth     PW     G-vecs:    dense   smooth      PW
     Min         126      51     14                29422     7445    1112
     Max         127      52     15                29439     7453    1135
     Sum        4695    1893    535              1089033   275623   41451



     bravais-lattice index     =            0
     lattice parameter (alat)  =       1.8897  a.u.
     unit-cell volume          =    4983.6526 (a.u.)^3
     number of atoms/cell      =           12
     number of atomic types    =            2
     number of electrons       =       174.00
     number of Kohn-Sham states=          104
     kinetic-energy cutoff     =      55.1240  Ry
     charge density cutoff     =     551.2396  Ry
     convergence threshold     =      1.0E-05
     mixing beta               =       0.1000
     number of iterations used =           10  plain     mixing
     Exchange-correlation= BEEF-VDW
                           (   1   4  43  14   2   0   0)

     celldm(1)=   1.889726  celldm(2)=   0.000000  celldm(3)=   0.000000
     celldm(4)=   0.000000  celldm(5)=   0.000000  celldm(6)=   0.000000

     crystal axes: (cart. coord. in units of alat)
               a(1) = (   5.642050   0.000000   0.000000 )  
               a(2) = (   1.880682   5.319376   0.000000 )  
               a(3) = (   0.000000   0.000000  24.606714 )  

     reciprocal axes: (cart. coord. in units 2 pi/alat)
               b(1) = (  0.177241 -0.062664  0.000000 )  
               b(2) = (  0.000000  0.187992  0.000000 )  
               b(3) = (  0.000000  0.000000  0.040639 )  


     PseudoPot. # 1 for Rh read from file:
     ../pseudo/Rh.pbe-spn-rrkjus_psl.1.0.0.UPF
     MD5 check sum: 912a852783f0c9b7bd5e9eb06cc0cc10
     Pseudo is Ultrasoft + core correction, Zval = 17.0
     Generated using "atomic" code by A. Dal Corso v.6.3
     Using radial grid of 1233 points,  6 beta functions with: 
                l(1) =   0
                l(2) =   0
                l(3) =   1
                l(4) =   1
                l(5) =   2
                l(6) =   2
     Q(r) pseudized with 0 coefficients 


     PseudoPot. # 2 for Cd read from file:
     ../pseudo/Cd.pbe-n-rrkjus_psl.1.0.0.UPF
     MD5 check sum: a744746c89d2344a134ead0d8ab94e7a
     Pseudo is Ultrasoft + core correction, Zval = 12.0
     Generated using "atomic" code by A. Dal Corso v.6.3
     Using radial grid of 1239 points,  6 beta functions with: 
                l(1) =   0
                l(2) =   0
                l(3) =   1
                l(4) =   1
                l(5) =   2
                l(6) =   2
     Q(r) pseudized with 0 coefficients 


     atomic species   valence    mass     pseudopotential
        Rh            17.00   102.90550     Rh( 1.00)
        Cd            12.00   112.41400     Cd( 1.00)

     No symmetry found



   Cartesian axes

     site n.     atom                  positions (alat units)
         1           Rh  tau(   1) = (   0.0000000   0.0000000  10.0000000  )
         2           Rh  tau(   2) = (   3.7613663   2.6596882  10.0000000  )
         3           Cd  tau(   3) = (   2.8210251   0.0000000  10.0000000  )
         4           Cd  tau(   4) = (   0.9403412   2.6596882  10.0000000  )
         5           Rh  tau(   5) = (   5.6420503   3.9895329  12.3033572  )
         6           Rh  tau(   6) = (   1.8806840   1.3298447  12.3033572  )
         7           Cd  tau(   7) = (   2.8210251   3.9895329  12.3033572  )
         8           Cd  tau(   8) = (   4.7017091   1.3298447  12.3033572  )
         9           Rh  tau(   9) = (   3.7614025   2.6597042  14.4946392  )
        10           Rh  tau(  10) = (   7.5226993   5.3193650  14.4946348  )
        11           Cd  tau(  11) = (   0.9403573   2.6596502  14.7277149  )
        12           Cd  tau(  12) = (   2.8210131   0.0000472  14.7277386  )

     number of k points=    74  Fermi-Dirac smearing, width (Ry)=  0.0100
                       cart. coord. in units 2pi/alat
        k(    1) = (   0.0000000   0.0000000   0.0000000), wk =   0.0138889
        k(    2) = (   0.0000000   0.0156660   0.0000000), wk =   0.0277778
        k(    3) = (   0.0000000   0.0313320   0.0000000), wk =   0.0277778
        k(    4) = (   0.0000000   0.0469980   0.0000000), wk =   0.0277778
        k(    5) = (   0.0000000   0.0626640   0.0000000), wk =   0.0277778
        k(    6) = (   0.0000000   0.0783300   0.0000000), wk =   0.0277778
        k(    7) = (   0.0000000  -0.0939960   0.0000000), wk =   0.0138889
        k(    8) = (   0.0147700  -0.0052220   0.0000000), wk =   0.0277778
        k(    9) = (   0.0147700   0.0104440   0.0000000), wk =   0.0277778
        k(   10) = (   0.0147700   0.0261100   0.0000000), wk =   0.0277778
        k(   11) = (   0.0147700   0.0417760   0.0000000), wk =   0.0277778
        k(   12) = (   0.0147700   0.0574420   0.0000000), wk =   0.0277778
        k(   13) = (   0.0147700   0.0731080   0.0000000), wk =   0.0277778
        k(   14) = (   0.0147700  -0.0992180   0.0000000), wk =   0.0277778
        k(   15) = (   0.0147700  -0.0835520   0.0000000), wk =   0.0277778
        k(   16) = (   0.0147700  -0.0678860   0.0000000), wk =   0.0277778
        k(   17) = (   0.0147700  -0.0522200   0.0000000), wk =   0.0277778
        k(   18) = (   0.0147700  -0.0365540   0.0000000), wk =   0.0277778
        k(   19) = (   0.0147700  -0.0208880   0.0000000), wk =   0.0277778
        k(   20) = (   0.0295401  -0.0104440   0.0000000), wk =   0.0277778
        k(   21) = (   0.0295401   0.0052220   0.0000000), wk =   0.0277778
        k(   22) = (   0.0295401   0.0208880   0.0000000), wk =   0.0277778
        k(   23) = (   0.0295401   0.0365540   0.0000000), wk =   0.0277778
        k(   24) = (   0.0295401   0.0522200   0.0000000), wk =   0.0277778
        k(   25) = (   0.0295401   0.0678860   0.0000000), wk =   0.0277778
        k(   26) = (   0.0295401  -0.1044400   0.0000000), wk =   0.0277778
        k(   27) = (   0.0295401  -0.0887740   0.0000000), wk =   0.0277778
        k(   28) = (   0.0295401  -0.0731080   0.0000000), wk =   0.0277778
        k(   29) = (   0.0295401  -0.0574420   0.0000000), wk =   0.0277778
        k(   30) = (   0.0295401  -0.0417760   0.0000000), wk =   0.0277778
        k(   31) = (   0.0295401  -0.0261100   0.0000000), wk =   0.0277778
        k(   32) = (   0.0443101  -0.0156660   0.0000000), wk =   0.0277778
        k(   33) = (   0.0443101   0.0000000   0.0000000), wk =   0.0277778
        k(   34) = (   0.0443101   0.0156660   0.0000000), wk =   0.0277778
        k(   35) = (   0.0443101   0.0313320   0.0000000), wk =   0.0277778
        k(   36) = (   0.0443101   0.0469980   0.0000000), wk =   0.0277778
        k(   37) = (   0.0443101   0.0626640   0.0000000), wk =   0.0277778
        k(   38) = (   0.0443101  -0.1096620   0.0000000), wk =   0.0277778
        k(   39) = (   0.0443101  -0.0939960   0.0000000), wk =   0.0277778
        k(   40) = (   0.0443101  -0.0783300   0.0000000), wk =   0.0277778
        k(   41) = (   0.0443101  -0.0626640   0.0000000), wk =   0.0277778
        k(   42) = (   0.0443101  -0.0469980   0.0000000), wk =   0.0277778
        k(   43) = (   0.0443101  -0.0313320   0.0000000), wk =   0.0277778
        k(   44) = (   0.0590802  -0.0208880   0.0000000), wk =   0.0277778
        k(   45) = (   0.0590802  -0.0052220   0.0000000), wk =   0.0277778
        k(   46) = (   0.0590802   0.0104440   0.0000000), wk =   0.0277778
        k(   47) = (   0.0590802   0.0261100   0.0000000), wk =   0.0277778
        k(   48) = (   0.0590802   0.0417760   0.0000000), wk =   0.0277778
        k(   49) = (   0.0590802   0.0574420   0.0000000), wk =   0.0277778
        k(   50) = (   0.0590802  -0.1148840   0.0000000), wk =   0.0277778
        k(   51) = (   0.0590802  -0.0992180   0.0000000), wk =   0.0277778
        k(   52) = (   0.0590802  -0.0835520   0.0000000), wk =   0.0277778
        k(   53) = (   0.0590802  -0.0678860   0.0000000), wk =   0.0277778
        k(   54) = (   0.0590802  -0.0522200   0.0000000), wk =   0.0277778
        k(   55) = (   0.0590802  -0.0365540   0.0000000), wk =   0.0277778
        k(   56) = (   0.0738502  -0.0261100   0.0000000), wk =   0.0277778
        k(   57) = (   0.0738502  -0.0104440   0.0000000), wk =   0.0277778
        k(   58) = (   0.0738502   0.0052220   0.0000000), wk =   0.0277778
        k(   59) = (   0.0738502   0.0208880   0.0000000), wk =   0.0277778
        k(   60) = (   0.0738502   0.0365540   0.0000000), wk =   0.0277778
        k(   61) = (   0.0738502   0.0522200   0.0000000), wk =   0.0277778
        k(   62) = (   0.0738502  -0.1201060   0.0000000), wk =   0.0277778
        k(   63) = (   0.0738502  -0.1044400   0.0000000), wk =   0.0277778
        k(   64) = (   0.0738502  -0.0887740   0.0000000), wk =   0.0277778
        k(   65) = (   0.0738502  -0.0731080   0.0000000), wk =   0.0277778
        k(   66) = (   0.0738502  -0.0574420   0.0000000), wk =   0.0277778
        k(   67) = (   0.0738502  -0.0417760   0.0000000), wk =   0.0277778
        k(   68) = (  -0.0886203   0.0313320   0.0000000), wk =   0.0138889
        k(   69) = (  -0.0886203   0.0469980   0.0000000), wk =   0.0277778
        k(   70) = (  -0.0886203   0.0626640   0.0000000), wk =   0.0277778
        k(   71) = (  -0.0886203   0.0783300   0.0000000), wk =   0.0277778
        k(   72) = (  -0.0886203   0.0939960   0.0000000), wk =   0.0277778
        k(   73) = (  -0.0886203   0.1096620   0.0000000), wk =   0.0277778
        k(   74) = (  -0.0886203  -0.0626640   0.0000000), wk =   0.0138889

     Dense  grid:  1089033 G-vectors     FFT dimensions: (  80,  80, 360)

     Smooth grid:   275623 G-vectors     FFT dimensions: (  54,  54, 225)

     Estimated max dynamical RAM per process >     227.66 MB

     Estimated total dynamical RAM >       8.23 GB

     Initial potential from superposition of free atoms

     starting charge  173.96776, renormalised to  174.00000

     negative rho (up, down):  3.000E-03 0.000E+00


     %%%%%%%%%%%%%%%%%%%%%%%%%%%%%%%%%%%%%%%%%%%%%%%%%%%%%%%%%%%%%%%%%%%%%%%%
     %                                                                      %
     % You are using vdW-DF, which was implemented by the Thonhauser group. %
     % Please cite the following two papers that made this development      %
     % possible and the two reviews that describe the various versions:     %
     %                                                                      %
     %   T. Thonhauser et al., PRL 115, 136402 (2015).                      %
     %   T. Thonhauser et al., PRB 76, 125112 (2007).                       %
     %   K. Berland et al., Rep. Prog. Phys. 78, 066501 (2015).             %
     %   D.C. Langreth et al., J. Phys.: Condens. Matter 21, 084203 (2009). %
     %                                                                      %
     %                                                                      %
     % If you are calculating the stress with vdW-DF, please also cite:     %
     %                                                                      %
     %   R. Sabatini et al., J. Phys.: Condens. Matter 24, 424209 (2012).   %
     %                                                                      %
     %%%%%%%%%%%%%%%%%%%%%%%%%%%%%%%%%%%%%%%%%%%%%%%%%%%%%%%%%%%%%%%%%%%%%%%%



     Adding external electric field

     Computed dipole along edir(3) : 
        Dipole                0.0023 Ry au,          0.0060 Debye
        Dipole field          0.0000 Ry au, 

        Potential amp.       -0.0005 Ry
        Total length         45.3374 bohr

     Starting wfcs are  114 randomized atomic wfcs

     total cpu time spent up to now is       88.4 secs

     Self-consistent Calculation

     iteration #  1     ecut=    55.12 Ry     beta= 0.10
     Davidson diagonalization with overlap
     ethr =  1.00E-02,  avg # of iterations =  3.4

     negative rho (up, down):  2.958E-03 0.000E+00

     Adding external electric field

     Computed dipole along edir(3) : 
        Dipole                0.0691 Ry au,          0.1756 Debye
        Dipole field          0.0002 Ry au, 

        Potential amp.       -0.0158 Ry
        Total length         45.3374 bohr


     total cpu time spent up to now is      351.0 secs

     total energy              =   -1972.08972134 Ry
     estimated scf accuracy    <       5.37832679 Ry

     iteration #  2     ecut=    55.12 Ry     beta= 0.10
     Davidson diagonalization with overlap
     ethr =  3.09E-03,  avg # of iterations =  1.2

     negative rho (up, down):  2.976E-03 0.000E+00

     Adding external electric field

     Computed dipole along edir(3) : 
        Dipole               -0.0051 Ry au,         -0.0130 Debye
        Dipole field         -0.0000 Ry au, 

        Potential amp.        0.0012 Ry
        Total length         45.3374 bohr


     total cpu time spent up to now is      548.9 secs

     total energy              =   -1971.85934828 Ry
     estimated scf accuracy    <       1.65500415 Ry

     iteration #  3     ecut=    55.12 Ry     beta= 0.10
     Davidson diagonalization with overlap
     ethr =  9.51E-04,  avg # of iterations =  6.8

     negative rho (up, down):  2.989E-03 0.000E+00

     Adding external electric field

     Computed dipole along edir(3) : 
        Dipole                0.2554 Ry au,          0.6491 Debye
        Dipole field          0.0006 Ry au, 

        Potential amp.       -0.0584 Ry
        Total length         45.3374 bohr


     total cpu time spent up to now is      834.6 secs

     total energy              =   -1972.07470705 Ry
     estimated scf accuracy    <       0.46421271 Ry

     iteration #  4     ecut=    55.12 Ry     beta= 0.10
     Davidson diagonalization with overlap
     c_bands:  1 eigenvalues not converged
     c_bands:  1 eigenvalues not converged
     c_bands:  1 eigenvalues not converged
     c_bands:  1 eigenvalues not converged
     c_bands:  2 eigenvalues not converged
     c_bands:  1 eigenvalues not converged
     c_bands:  1 eigenvalues not converged
     c_bands:  1 eigenvalues not converged
     c_bands:  1 eigenvalues not converged
     c_bands:  1 eigenvalues not converged
     c_bands:  2 eigenvalues not converged
     ethr =  2.67E-04,  avg # of iterations = 11.8

     negative rho (up, down):  3.001E-03 0.000E+00

     Adding external electric field

     Computed dipole along edir(3) : 
        Dipole                0.0404 Ry au,          0.1026 Debye
        Dipole field          0.0001 Ry au, 

        Potential amp.       -0.0092 Ry
        Total length         45.3374 bohr


     total cpu time spent up to now is     1137.1 secs

     total energy              =   -1972.07942291 Ry
     estimated scf accuracy    <       2.00870969 Ry

     iteration #  5     ecut=    55.12 Ry     beta= 0.10
     Davidson diagonalization with overlap
     ethr =  2.67E-04,  avg # of iterations =  2.0

     negative rho (up, down):  3.057E-03 0.000E+00

     Adding external electric field

     Computed dipole along edir(3) : 
        Dipole               -0.0225 Ry au,         -0.0571 Debye
        Dipole field         -0.0001 Ry au, 

        Potential amp.        0.0051 Ry
        Total length         45.3374 bohr


     total cpu time spent up to now is     1364.8 secs

     total energy              =   -1972.08316956 Ry
     estimated scf accuracy    <       0.09606040 Ry

     iteration #  6     ecut=    55.12 Ry     beta= 0.10
     Davidson diagonalization with overlap
     c_bands:  1 eigenvalues not converged
     c_bands:  1 eigenvalues not converged
     c_bands:  1 eigenvalues not converged
     c_bands:  1 eigenvalues not converged
     c_bands:  1 eigenvalues not converged
     c_bands:  2 eigenvalues not converged
     c_bands:  1 eigenvalues not converged
     c_bands:  1 eigenvalues not converged
     c_bands:  1 eigenvalues not converged
     c_bands:  1 eigenvalues not converged
     c_bands:  2 eigenvalues not converged
     c_bands:  1 eigenvalues not converged
     ethr =  5.52E-05,  avg # of iterations = 12.6

     negative rho (up, down):  3.148E-03 0.000E+00

     Adding external electric field

     Computed dipole along edir(3) : 
        Dipole               -0.0229 Ry au,         -0.0581 Debye
        Dipole field         -0.0001 Ry au, 

        Potential amp.        0.0052 Ry
        Total length         45.3374 bohr


     total cpu time spent up to now is     1697.2 secs

     total energy              =   -1972.08733909 Ry
     estimated scf accuracy    <       0.17285692 Ry

     iteration #  7     ecut=    55.12 Ry     beta= 0.10
     Davidson diagonalization with overlap
     ethr =  5.52E-05,  avg # of iterations =  2.3

     negative rho (up, down):  3.195E-03 0.000E+00

     Adding external electric field

     Computed dipole along edir(3) : 
        Dipole                0.0283 Ry au,          0.0720 Debye
        Dipole field          0.0001 Ry au, 

        Potential amp.       -0.0065 Ry
        Total length         45.3374 bohr


     total cpu time spent up to now is     1939.0 secs

     total energy              =   -1972.07994224 Ry
     estimated scf accuracy    <       0.05812114 Ry

     iteration #  8     ecut=    55.12 Ry     beta= 0.10
     Davidson diagonalization with overlap
     c_bands:  2 eigenvalues not converged
     c_bands:  1 eigenvalues not converged
     c_bands:  1 eigenvalues not converged
     ethr =  3.34E-05,  avg # of iterations =  8.9

     negative rho (up, down):  3.236E-03 0.000E+00

     Adding external electric field

     Computed dipole along edir(3) : 
        Dipole                0.0262 Ry au,          0.0666 Debye
        Dipole field          0.0001 Ry au, 

        Potential amp.       -0.0060 Ry
        Total length         45.3374 bohr


     total cpu time spent up to now is     2240.2 secs

     total energy              =   -1972.08600806 Ry
     estimated scf accuracy    <       0.02757337 Ry

     iteration #  9     ecut=    55.12 Ry     beta= 0.10
     Davidson diagonalization with overlap
     ethr =  1.58E-05,  avg # of iterations =  2.7

     negative rho (up, down):  3.314E-03 0.000E+00

     Adding external electric field

     Computed dipole along edir(3) : 
        Dipole                0.0098 Ry au,          0.0249 Debye
        Dipole field          0.0000 Ry au, 

        Potential amp.       -0.0022 Ry
        Total length         45.3374 bohr


     total cpu time spent up to now is     2483.7 secs

     total energy              =   -1972.08811456 Ry
     estimated scf accuracy    <       0.00218808 Ry

     iteration # 10     ecut=    55.12 Ry     beta= 0.10
     Davidson diagonalization with overlap
     c_bands:  1 eigenvalues not converged
     c_bands:  1 eigenvalues not converged
     c_bands:  1 eigenvalues not converged
     c_bands:  1 eigenvalues not converged
     c_bands:  1 eigenvalues not converged
     ethr =  1.26E-06,  avg # of iterations = 12.6

     negative rho (up, down):  3.295E-03 0.000E+00

     Adding external electric field

     Computed dipole along edir(3) : 
        Dipole                0.0138 Ry au,          0.0351 Debye
        Dipole field          0.0000 Ry au, 

        Potential amp.       -0.0032 Ry
        Total length         45.3374 bohr


     total cpu time spent up to now is     2943.3 secs

     total energy              =   -1972.08782645 Ry
     estimated scf accuracy    <       0.01138552 Ry

     iteration # 11     ecut=    55.12 Ry     beta= 0.10
     Davidson diagonalization with overlap
     c_bands:  1 eigenvalues not converged
     c_bands:  1 eigenvalues not converged
     c_bands:  1 eigenvalues not converged
     ethr =  1.26E-06,  avg # of iterations =  3.0

     negative rho (up, down):  3.283E-03 0.000E+00

     Adding external electric field

     Computed dipole along edir(3) : 
        Dipole                0.0150 Ry au,          0.0381 Debye
        Dipole field          0.0000 Ry au, 

        Potential amp.       -0.0034 Ry
        Total length         45.3374 bohr


     total cpu time spent up to now is     3206.4 secs

     total energy              =   -1972.08829828 Ry
     estimated scf accuracy    <       0.00063387 Ry

     iteration # 12     ecut=    55.12 Ry     beta= 0.10
     Davidson diagonalization with overlap
     c_bands:  1 eigenvalues not converged
     ethr =  3.64E-07,  avg # of iterations =  2.2

     negative rho (up, down):  3.298E-03 0.000E+00

     Adding external electric field

     Computed dipole along edir(3) : 
        Dipole                0.0142 Ry au,          0.0361 Debye
        Dipole field          0.0000 Ry au, 

        Potential amp.       -0.0032 Ry
        Total length         45.3374 bohr


     total cpu time spent up to now is     3447.4 secs

     total energy              =   -1972.08835437 Ry
     estimated scf accuracy    <       0.00013743 Ry

     iteration # 13     ecut=    55.12 Ry     beta= 0.10
     Davidson diagonalization with overlap
     ethr =  7.90E-08,  avg # of iterations =  3.8

     negative rho (up, down):  3.298E-03 0.000E+00

     Adding external electric field

     Computed dipole along edir(3) : 
        Dipole                0.0148 Ry au,          0.0377 Debye
        Dipole field          0.0000 Ry au, 

        Potential amp.       -0.0034 Ry
        Total length         45.3374 bohr


     total cpu time spent up to now is     3718.4 secs

     total energy              =   -1972.08835836 Ry
     estimated scf accuracy    <       0.00020140 Ry

     iteration # 14     ecut=    55.12 Ry     beta= 0.10
     Davidson diagonalization with overlap
     ethr =  7.90E-08,  avg # of iterations =  2.0

     negative rho (up, down):  3.290E-03 0.000E+00

     Adding external electric field

     Computed dipole along edir(3) : 
        Dipole                0.0153 Ry au,          0.0389 Debye
        Dipole field          0.0000 Ry au, 

        Potential amp.       -0.0035 Ry
        Total length         45.3374 bohr


     total cpu time spent up to now is     3962.6 secs

     total energy              =   -1972.08836877 Ry
     estimated scf accuracy    <       0.00001382 Ry

     iteration # 15     ecut=    55.12 Ry     beta= 0.10
     Davidson diagonalization with overlap
     ethr =  7.94E-09,  avg # of iterations =  5.7

     negative rho (up, down):  3.275E-03 0.000E+00

     Adding external electric field

     Computed dipole along edir(3) : 
        Dipole                0.0153 Ry au,          0.0389 Debye
        Dipole field          0.0000 Ry au, 

        Potential amp.       -0.0035 Ry
        Total length         45.3374 bohr


     total cpu time spent up to now is     4307.6 secs

     End of self-consistent calculation

          k = 0.0000 0.0000 0.0000 ( 34523 PWs)   bands (ev):

   -76.6885 -76.6858 -76.4787 -76.4762 -76.4374 -76.4348 -44.6038 -44.5999
   -44.5972 -44.5945 -44.5913 -44.5489 -44.4453 -44.4019 -44.3973 -44.3968
   -44.3927 -44.3619 -44.3579 -44.3542 -44.3318 -44.3273 -44.2857 -44.2815
    -7.7883  -7.7497  -7.7471  -7.7070  -7.6908  -7.6759  -7.6399  -7.5999
    -7.4548  -7.4539  -7.4439  -7.4277  -7.4209  -7.4096  -7.3852  -7.3717
    -7.3608  -7.3583  -7.3262  -7.2890  -7.2816  -7.2765  -7.1834  -7.1471
    -7.1419  -7.0750  -6.9962  -6.9105  -6.8334  -6.7901  -6.0426  -4.2940
    -2.8027  -2.7015  -2.3765  -2.2507  -1.0723  -0.9128  -0.8982  -0.8841
    -0.8774  -0.7407  -0.7171  -0.5353  -0.3562  -0.2057  -0.1522  -0.0905
     0.0369   0.0602   0.1770   0.2516   0.3251   0.3646   0.4360   0.5361
     0.5562   0.6035   0.6238   0.6813   0.6956   0.7509   1.0411   1.3703
     1.3897   1.8485   1.8644   2.0783   2.2690   2.2876   2.3079   4.1887
     4.3007   4.5764   4.6714   4.9780   5.3159   5.3797   5.8183   6.0347

          k = 0.0000 0.0157 0.0000 ( 34533 PWs)   bands (ev):

   -76.6884 -76.6858 -76.4787 -76.4762 -76.4373 -76.4348 -44.6037 -44.6000
   -44.5964 -44.5944 -44.5913 -44.5498 -44.4445 -44.4011 -44.3981 -44.3968
   -44.3928 -44.3619 -44.3580 -44.3550 -44.3317 -44.3274 -44.2856 -44.2815
    -7.7758  -7.7409  -7.7355  -7.6993  -7.6892  -7.6601  -7.6306  -7.5863
    -7.4550  -7.4526  -7.4473  -7.4241  -7.4125  -7.4034  -7.3933  -7.3740
    -7.3617  -7.3412  -7.3258  -7.2949  -7.2809  -7.2698  -7.1822  -7.1568
    -7.1409  -7.0807  -7.0091  -6.9143  -6.8446  -6.8005  -6.0000  -4.2592
    -2.7864  -2.7365  -2.3821  -2.2978  -1.0641  -0.9445  -0.9191  -0.8735
    -0.8440  -0.7401  -0.7395  -0.5465  -0.3880  -0.2094  -0.1588  -0.0877
     0.0491   0.0545   0.1265   0.1774   0.3160   0.3741   0.3870   0.4719
     0.5054   0.5683   0.6410   0.6551   0.6730   0.7609   0.9136   1.3396
     1.4214   1.5471   1.8606   1.9792   2.1178   2.5196   2.8728   4.2095
     4.2912   4.6266   4.7055   5.0196   5.3507   5.5535   5.6767   6.1150

          k = 0.0000 0.0313 0.0000 ( 34511 PWs)   bands (ev):

   -76.6883 -76.6860 -76.4786 -76.4763 -76.4372 -76.4349 -44.6036 -44.6002
   -44.5943 -44.5940 -44.5915 -44.5522 -44.4421 -44.4006 -44.3987 -44.3966
   -44.3930 -44.3618 -44.3582 -44.3575 -44.3315 -44.3276 -44.2854 -44.2817
    -7.7395  -7.7136  -7.7045  -7.6795  -7.6768  -7.6198  -7.6040  -7.5468
    -7.4653  -7.4485  -7.4440  -7.4158  -7.4091  -7.3912  -7.3857  -7.3668
    -7.3651  -7.3240  -7.3130  -7.3073  -7.2832  -7.2527  -7.1927  -7.1704
    -7.1416  -7.0972  -7.0465  -6.9255  -6.8767  -6.8320  -5.8715  -4.1545
    -2.8685  -2.7384  -2.4231  -2.3854  -1.0407  -0.9900  -0.9348  -0.8441
    -0.8334  -0.8063  -0.7528  -0.5800  -0.4463  -0.2409  -0.1635  -0.1244
    -0.0301   0.0403   0.0712   0.0729   0.2369   0.2504   0.2813   0.3998
     0.4187   0.5292   0.5616   0.6665   0.6814   0.7313   0.7427   0.8835
     1.0247   1.8850   1.9009   2.1123   2.1959   2.8903   3.1365   4.0116
     4.5865   4.8077   4.8428   5.1413   5.4551   5.5968   5.9480   6.0423

          k = 0.0000 0.0470 0.0000 ( 34488 PWs)   bands (ev):

   -76.6881 -76.6862 -76.4784 -76.4765 -76.4370 -76.4351 -44.6034 -44.6006
   -44.5940 -44.5917 -44.5902 -44.5561 -44.4383 -44.4044 -44.3963 -44.3950
   -44.3934 -44.3616 -44.3612 -44.3586 -44.3311 -44.3279 -44.2851 -44.2821
    -7.6828  -7.6712  -7.6597  -7.6588  -7.6469  -7.5643  -7.5592  -7.4871
    -7.4847  -7.4431  -7.4317  -7.4218  -7.4111  -7.3722  -7.3701  -7.3587
    -7.3470  -7.3239  -7.3151  -7.2901  -7.2805  -7.2323  -7.2293  -7.1805
    -7.1416  -7.1223  -7.1044  -6.9433  -6.9246  -6.8849  -5.6560  -3.9792
    -3.1562  -2.6637  -2.4993  -2.4413  -1.0169  -1.0132  -0.9563  -0.9113
    -0.8603  -0.8385  -0.7884  -0.6272  -0.4623  -0.3230  -0.2537  -0.2291
    -0.1640  -0.0248   0.0183   0.0447   0.1027   0.1508   0.1550   0.3245
     0.3476   0.3616   0.4681   0.4855   0.4960   0.6566   0.6726   0.7762
     0.9456   1.9081   2.2492   2.3497   2.4389   2.9238   3.3375   3.8018
     4.8986   4.9768   5.1776   5.3410   5.6286   5.7795   5.8871   5.9597

          k = 0.0000 0.0627 0.0000 ( 34442 PWs)   bands (ev):

   -76.6878 -76.6864 -76.4781 -76.4768 -76.4368 -76.4354 -44.6031 -44.6011
   -44.5937 -44.5921 -44.5853 -44.5611 -44.4334 -44.4094 -44.3960 -44.3939
   -44.3901 -44.3663 -44.3612 -44.3591 -44.3307 -44.3284 -44.2847 -44.2825
    -7.6324  -7.6214  -7.6155  -7.6095  -7.6081  -7.5170  -7.5082  -7.4837
    -7.4395  -7.4352  -7.4225  -7.4197  -7.4087  -7.3846  -7.3559  -7.3337
    -7.3259  -7.3131  -7.3059  -7.2910  -7.2770  -7.2485  -7.2185  -7.1986
    -7.1763  -7.1573  -7.1412  -6.9763  -6.9660  -6.9580  -5.3556  -3.7361
    -3.5779  -2.5756  -2.5708  -2.5097  -1.0688  -1.0652  -1.0186  -0.9858
    -0.8922  -0.8896  -0.7426  -0.6711  -0.4445  -0.4096  -0.3994  -0.3317
    -0.3183  -0.1599  -0.0426  -0.0093   0.0051   0.0322   0.0803   0.1458
     0.2818   0.3213   0.3426   0.3822   0.4681   0.5303   0.6316   0.6699
     1.2053   1.9907   2.2693   2.5520   2.7606   2.8416   3.6107   3.8415
     4.9408   5.2115   5.3212   5.5265   5.6259   5.7178   5.8720   6.7615

          k = 0.0000 0.0783 0.0000 ( 34416 PWs)   bands (ev):

   -76.6876 -76.6867 -76.4778 -76.4771 -76.4365 -76.4357 -44.6027 -44.6016
   -44.5934 -44.5924 -44.5795 -44.5670 -44.4276 -44.4152 -44.3955 -44.3944
   -44.3844 -44.3720 -44.3608 -44.3597 -44.3301 -44.3289 -44.2842 -44.2830
    -7.6025  -7.5843  -7.5799  -7.5615  -7.5359  -7.5291  -7.4687  -7.4544
    -7.4453  -7.4332  -7.4068  -7.3963  -7.3850  -7.3751  -7.3435  -7.3413
    -7.3328  -7.3131  -7.2930  -7.2772  -7.2522  -7.2444  -7.2355  -7.2236
    -7.2030  -7.1928  -7.1522  -7.0466  -7.0090  -6.9903  -4.9778  -4.0579
    -3.4357  -2.7946  -2.5021  -2.4930  -1.1903  -1.1611  -1.0925  -1.0282
    -0.8653  -0.8532  -0.7111  -0.6994  -0.5135  -0.4782  -0.4646  -0.4543
    -0.3049  -0.2529  -0.2122  -0.1249  -0.0951  -0.0117   0.0582   0.1831
     0.2497   0.2832   0.2992   0.3145   0.4454   0.4548   0.6066   0.6149
     1.4998   2.0671   2.2077   2.2454   3.0165   3.3424   3.4613   4.3829
     4.4991   5.2730   5.4500   5.5120   5.9745   6.0598   6.1334   6.1857

          k = 0.0000-0.0940 0.0000 ( 34418 PWs)   bands (ev):

   -76.6874 -76.6868 -76.4775 -76.4773 -76.4363 -76.4358 -44.6024 -44.6019
   -44.5932 -44.5926 -44.5735 -44.5730 -44.4215 -44.4214 -44.3951 -44.3949
   -44.3784 -44.3780 -44.3605 -44.3600 -44.3296 -44.3294 -44.2838 -44.2834
    -7.5725  -7.5725  -7.5682  -7.5682  -7.4967  -7.4966  -7.4753  -7.4753
    -7.4312  -7.4312  -7.4004  -7.4004  -7.3642  -7.3642  -7.3324  -7.3324
    -7.3190  -7.3190  -7.3064  -7.3064  -7.2535  -7.2535  -7.2304  -7.2304
    -7.1792  -7.1792  -7.1398  -7.1398  -7.0093  -7.0093  -4.5372  -4.5372
    -3.1049  -3.1048  -2.4756  -2.4755  -1.2271  -1.2269  -1.0808  -1.0806
    -0.8352  -0.8350  -0.7076  -0.7075  -0.5403  -0.5402  -0.4747  -0.4746
    -0.3010  -0.3009  -0.2148  -0.2147  -0.0917  -0.0916   0.1418   0.1420
     0.2485   0.2486   0.2900   0.2901   0.4398   0.4400   0.5959   0.5960
     1.8202   1.8202   2.1896   2.1897   3.2314   3.2315   3.9408   3.9408
     4.9001   4.9001   5.6840   5.6840   5.8764   5.8765   6.3652   6.3653

          k = 0.0148-0.0052 0.0000 ( 34533 PWs)   bands (ev):

   -76.6884 -76.6858 -76.4787 -76.4762 -76.4373 -76.4348 -44.6037 -44.6000
   -44.5964 -44.5944 -44.5913 -44.5498 -44.4445 -44.4011 -44.3981 -44.3968
   -44.3928 -44.3619 -44.3580 -44.3550 -44.3317 -44.3274 -44.2856 -44.2815
    -7.7758  -7.7409  -7.7355  -7.6993  -7.6892  -7.6601  -7.6306  -7.5863
    -7.4550  -7.4526  -7.4473  -7.4241  -7.4125  -7.4034  -7.3933  -7.3740
    -7.3617  -7.3412  -7.3258  -7.2949  -7.2809  -7.2698  -7.1822  -7.1568
    -7.1409  -7.0807  -7.0091  -6.9143  -6.8446  -6.8005  -6.0000  -4.2592
    -2.7864  -2.7365  -2.3821  -2.2978  -1.0641  -0.9445  -0.9191  -0.8735
    -0.8440  -0.7401  -0.7395  -0.5465  -0.3880  -0.2094  -0.1588  -0.0877
     0.0491   0.0545   0.1265   0.1774   0.3160   0.3741   0.3870   0.4719
     0.5054   0.5683   0.6410   0.6551   0.6730   0.7609   0.9136   1.3396
     1.4214   1.5471   1.8606   1.9792   2.1178   2.5196   2.8728   4.2095
     4.2912   4.6266   4.7055   5.0196   5.3507   5.5535   5.6767   6.1150

          k = 0.0148 0.0104 0.0000 ( 34495 PWs)   bands (ev):

   -76.6885 -76.6858 -76.4787 -76.4762 -76.4374 -76.4348 -44.6039 -44.5999
   -44.5972 -44.5946 -44.5912 -44.5489 -44.4453 -44.4019 -44.3973 -44.3969
   -44.3927 -44.3620 -44.3579 -44.3542 -44.3318 -44.3273 -44.2857 -44.2815
    -7.7814  -7.7421  -7.7326  -7.6953  -7.6920  -7.6569  -7.6297  -7.5990
    -7.4623  -7.4622  -7.4449  -7.4181  -7.4127  -7.4096  -7.4073  -7.3743
    -7.3513  -7.3281  -7.3177  -7.2920  -7.2689  -7.2497  -7.1809  -7.1573
    -7.1255  -7.0771  -7.0067  -6.9272  -6.8363  -6.7873  -5.9851  -4.2385
    -2.7774  -2.6971  -2.3707  -2.2193  -1.1026  -1.0943  -0.9347  -0.9021
    -0.9002  -0.8082  -0.7565  -0.6048  -0.4259  -0.1628  -0.1604  -0.0812
     0.0134   0.0708   0.1587   0.2350   0.2951   0.2961   0.4196   0.4341
     0.4652   0.5796   0.5805   0.6623   0.6890   0.8435   0.8999   1.4404
     1.5902   1.6808   1.7624   1.7998   2.0879   2.6855   2.7237   3.7922
     4.3121   4.6491   4.7172   5.0353   5.3630   5.5045   5.7117   5.8847

          k = 0.0148 0.0261 0.0000 ( 34469 PWs)   bands (ev):

   -76.6884 -76.6858 -76.4787 -76.4762 -76.4373 -76.4348 -44.6039 -44.6000
   -44.5964 -44.5946 -44.5912 -44.5498 -44.4445 -44.4011 -44.3982 -44.3968
   -44.3928 -44.3620 -44.3580 -44.3551 -44.3317 -44.3274 -44.2856 -44.2815
    -7.7625  -7.7238  -7.7111  -7.6884  -7.6712  -7.6318  -7.6114  -7.5850
    -7.4769  -7.4643  -7.4373  -7.4289  -7.4069  -7.3991  -7.3954  -7.3688
    -7.3437  -7.3284  -7.2952  -7.2896  -7.2618  -7.2238  -7.1831  -7.1651
    -7.1184  -7.0846  -7.0288  -6.9470  -6.8498  -6.7961  -5.8840  -4.1480
    -2.7480  -2.7390  -2.3740  -2.2363  -1.2238  -1.1162  -0.9621  -0.9611
    -0.9116  -0.8685  -0.8082  -0.6691  -0.4817  -0.1893  -0.1537  -0.0907
    -0.0172   0.0045   0.0701   0.1096   0.2249   0.2696   0.3501   0.3907
     0.4236   0.5553   0.5827   0.6578   0.6900   0.7867   0.9023   1.0055
     1.3408   1.6463   1.8520   2.1702   2.2810   2.6423   3.1481   3.4248
     4.5055   4.7749   4.7967   5.1282   5.4439   5.4740   5.6699   5.8087

          k = 0.0148 0.0418 0.0000 ( 34463 PWs)   bands (ev):

   -76.6883 -76.6860 -76.4786 -76.4763 -76.4372 -76.4349 -44.6038 -44.6002
   -44.5945 -44.5941 -44.5913 -44.5522 -44.4421 -44.4006 -44.3988 -44.3967
   -44.3931 -44.3619 -44.3583 -44.3575 -44.3314 -44.3277 -44.2854 -44.2818
    -7.7208  -7.6895  -7.6749  -7.6684  -7.6395  -7.5888  -7.5792  -7.5474
    -7.4950  -7.4575  -7.4444  -7.4258  -7.3965  -7.3802  -7.3762  -7.3560
    -7.3414  -7.3246  -7.3031  -7.2615  -7.2586  -7.2037  -7.1977  -7.1742
    -7.1175  -7.1020  -7.0726  -6.9727  -6.8818  -6.8288  -5.6949  -3.9868
    -2.9682  -2.6794  -2.4093  -2.2955  -1.2519  -1.1491  -1.0317  -0.9959
    -0.9342  -0.8850  -0.8832  -0.7364  -0.5111  -0.2828  -0.2074  -0.1757
    -0.1556  -0.1348  -0.0090   0.0303   0.1266   0.2434   0.2541   0.3334
     0.3916   0.5057   0.5237   0.5696   0.5864   0.7211   0.8649   0.8716
     0.9315   1.6191   2.2330   2.6320   2.6774   2.6983   3.0607   3.1471
     4.7380   4.9427   5.1237   5.1310   5.3082   5.5945   5.9050   5.9669

          k = 0.0148 0.0574 0.0000 ( 34460 PWs)   bands (ev):

   -76.6881 -76.6862 -76.4784 -76.4765 -76.4370 -76.4351 -44.6036 -44.6006
   -44.5943 -44.5915 -44.5903 -44.5561 -44.4384 -44.4045 -44.3964 -44.3951
   -44.3934 -44.3617 -44.3613 -44.3587 -44.3310 -44.3280 -44.2851 -44.2821
    -7.6602  -7.6453  -7.6397  -7.6301  -7.6030  -7.5383  -7.5285  -7.5157
    -7.4935  -7.4566  -7.4410  -7.4170  -7.3966  -7.3611  -7.3527  -7.3470
    -7.3316  -7.3163  -7.3086  -7.2703  -7.2410  -7.2275  -7.1873  -7.1802
    -7.1328  -7.1318  -7.1204  -7.0023  -6.9236  -6.8858  -5.4199  -3.7563
    -3.3668  -2.6178  -2.5116  -2.3223  -1.2309  -1.2208  -1.0902  -1.0411
    -0.9776  -0.9379  -0.8468  -0.7910  -0.4984  -0.4446  -0.3577  -0.3281
    -0.3047  -0.1360  -0.1266  -0.0034   0.0627   0.1377   0.1611   0.2521
     0.2875   0.4067   0.4733   0.4954   0.5543   0.5588   0.7225   0.7352
     1.1083   1.6320   2.6337   2.6675   2.7512   2.9912   3.1742   3.2038
     4.8227   4.8505   5.1575   5.5300   5.5571   5.5751   5.8144   6.4983

          k = 0.0148 0.0731 0.0000 ( 34419 PWs)   bands (ev):

   -76.6878 -76.6864 -76.4781 -76.4768 -76.4367 -76.4354 -44.6033 -44.6010
   -44.5940 -44.5918 -44.5854 -44.5611 -44.4334 -44.4094 -44.3960 -44.3939
   -44.3902 -44.3663 -44.3613 -44.3592 -44.3305 -44.3285 -44.2846 -44.2825
    -7.6066  -7.6026  -7.5885  -7.5834  -7.5684  -7.5382  -7.4936  -7.4604
    -7.4558  -7.4368  -7.4201  -7.4156  -7.4138  -7.3631  -7.3495  -7.3223
    -7.3210  -7.2999  -7.2990  -7.2814  -7.2740  -7.2111  -7.2066  -7.1973
    -7.1804  -7.1636  -7.1381  -7.0330  -6.9648  -6.9569  -5.0666  -3.8527
    -3.4652  -2.7197  -2.5890  -2.3233  -1.2791  -1.2786  -1.1085  -1.0419
    -1.0362  -0.8924  -0.8209  -0.7861  -0.5618  -0.4721  -0.4562  -0.4288
    -0.3931  -0.2453  -0.1133  -0.1079  -0.0821   0.0186   0.1765   0.1852
     0.2444   0.3802   0.3930   0.4162   0.4545   0.5355   0.5714   0.6841
     1.3436   1.6699   2.2998   2.6762   2.8566   3.2804   3.6502   3.7166
     4.6249   4.6601   5.4151   5.4357   5.7928   5.8861   6.1047   6.4702

          k = 0.0148-0.0992 0.0000 ( 34395 PWs)   bands (ev):

   -76.6875 -76.6867 -76.4778 -76.4771 -76.4365 -76.4357 -44.6028 -44.6015
   -44.5937 -44.5922 -44.5796 -44.5670 -44.4277 -44.4152 -44.3956 -44.3944
   -44.3844 -44.3720 -44.3609 -44.3597 -44.3300 -44.3290 -44.2841 -44.2830
    -7.5808  -7.5722  -7.5712  -7.5448  -7.5277  -7.5188  -7.4644  -7.4544
    -7.4364  -7.4244  -7.4037  -7.3961  -7.3867  -7.3719  -7.3446  -7.3413
    -7.3278  -7.3029  -7.2919  -7.2705  -7.2656  -7.2334  -7.2318  -7.2164
    -7.2008  -7.1691  -7.1642  -7.0599  -7.0590  -6.9647  -4.6494  -4.3491
    -3.1378  -3.0188  -2.6192  -2.3410  -1.3077  -1.2378  -1.1875  -1.0377
    -0.9388  -0.8259  -0.8225  -0.7076  -0.5884  -0.5204  -0.4990  -0.4133
    -0.3950  -0.2700  -0.2298  -0.1829  -0.1116   0.0028   0.1098   0.1925
     0.2130   0.2833   0.3348   0.3498   0.4238   0.4770   0.5286   0.6795
     1.4509   1.8397   1.9403   2.5326   2.9534   3.8006   3.9925   4.1543
     4.3271   4.4203   5.7758   5.7790   5.9709   6.0496   6.2848   6.4648

          k = 0.0148-0.0836 0.0000 ( 34408 PWs)   bands (ev):

   -76.6874 -76.6868 -76.4775 -76.4773 -76.4363 -76.4358 -44.6024 -44.6019
   -44.5933 -44.5925 -44.5735 -44.5730 -44.4215 -44.4214 -44.3951 -44.3949
   -44.3784 -44.3780 -44.3605 -44.3600 -44.3297 -44.3294 -44.2838 -44.2834
    -7.5973  -7.5879  -7.5436  -7.5433  -7.5010  -7.4834  -7.4785  -7.4751
    -7.4409  -7.4357  -7.3981  -7.3847  -7.3709  -7.3484  -7.3378  -7.3348
    -7.3185  -7.3161  -7.3135  -7.2966  -7.2601  -7.2505  -7.2413  -7.2229
    -7.2079  -7.1694  -7.1486  -7.1253  -7.0678  -6.9530  -4.8108  -4.1910
    -3.3481  -2.8242  -2.6845  -2.4088  -1.2287  -1.2222  -1.0960  -0.9971
    -0.8768  -0.7939  -0.7766  -0.6299  -0.5247  -0.5246  -0.4591  -0.4086
    -0.3298  -0.2487  -0.2155  -0.1991  -0.1259  -0.0326   0.1196   0.1399
     0.2000   0.2465   0.2578   0.2856   0.3978   0.4702   0.5500   0.6980
     1.4214   1.6076   2.1480   2.3663   3.0240   3.6014   4.2029   4.2315
     4.3602   5.0000   5.6493   6.0159   6.1051   6.1529   6.1863   6.3328

          k = 0.0148-0.0679 0.0000 ( 34442 PWs)   bands (ev):

   -76.6876 -76.6867 -76.4778 -76.4771 -76.4365 -76.4357 -44.6026 -44.6016
   -44.5932 -44.5926 -44.5794 -44.5670 -44.4276 -44.4152 -44.3955 -44.3944
   -44.3843 -44.3720 -44.3607 -44.3596 -44.3302 -44.3288 -44.2842 -44.2830
    -7.6246  -7.6124  -7.5796  -7.5704  -7.5500  -7.4997  -7.4852  -7.4554
    -7.4483  -7.4220  -7.4114  -7.4103  -7.3712  -7.3553  -7.3460  -7.3459
    -7.3335  -7.3116  -7.2978  -7.2887  -7.2696  -7.2586  -7.2488  -7.2312
    -7.2213  -7.1862  -7.1488  -7.0417  -7.0364  -6.9356  -5.2113  -3.7251
    -3.6538  -2.7381  -2.5896  -2.5137  -1.1561  -1.0485  -0.9661  -0.9269
    -0.8747  -0.7509  -0.7436  -0.5790  -0.4818  -0.4161  -0.4003  -0.2967
    -0.2517  -0.1878  -0.1715  -0.1287  -0.0456  -0.0193   0.0442   0.1648
     0.2235   0.2292   0.2499   0.2754   0.4034   0.4703   0.6080   0.7257
     1.3061   1.3468   2.1752   2.5130   3.0185   3.0944   3.9622   4.4172
     4.8926   5.3302   5.5778   5.7206   5.7632   5.9970   6.2529   6.3202

          k = 0.0148-0.0522 0.0000 ( 34462 PWs)   bands (ev):

   -76.6878 -76.6864 -76.4781 -76.4768 -76.4368 -76.4354 -44.6029 -44.6011
   -44.5935 -44.5923 -44.5852 -44.5611 -44.4334 -44.4094 -44.3959 -44.3939
   -44.3900 -44.3663 -44.3611 -44.3591 -44.3307 -44.3283 -44.2847 -44.2825
    -7.6495  -7.6437  -7.6340  -7.6260  -7.6257  -7.5336  -7.5017  -7.4754
    -7.4547  -7.4200  -7.4083  -7.4056  -7.4008  -7.3918  -7.3577  -7.3417
    -7.3316  -7.3279  -7.3252  -7.3031  -7.2979  -7.2622  -7.2591  -7.1962
    -7.1567  -7.1562  -7.1480  -6.9844  -6.9544  -6.9204  -5.5356  -3.9065
    -3.3011  -2.7353  -2.6206  -2.4679  -1.0130  -0.9464  -0.9264  -0.8293
    -0.8086  -0.7247  -0.7157  -0.5261  -0.4414  -0.4052  -0.3306  -0.2068
    -0.1674  -0.0594  -0.0267   0.0334   0.0515   0.0737   0.1191   0.1305
     0.2784   0.2989   0.3016   0.3498   0.4644   0.4964   0.7143   0.7507
     1.0418   1.2651   1.9719   2.5568   2.8851   2.9971   3.6849   4.5729
     5.0758   5.1478   5.3199   5.4585   5.7299   6.0845   6.2582   6.3746

          k = 0.0148-0.0366 0.0000 ( 34486 PWs)   bands (ev):

   -76.6881 -76.6862 -76.4784 -76.4765 -76.4370 -76.4351 -44.6033 -44.6006
   -44.5939 -44.5919 -44.5902 -44.5561 -44.4383 -44.4044 -44.3963 -44.3949
   -44.3934 -44.3614 -44.3613 -44.3586 -44.3312 -44.3279 -44.2851 -44.2820
    -7.6957  -7.6838  -7.6781  -7.6709  -7.6681  -7.5791  -7.5751  -7.4838
    -7.4593  -7.4527  -7.4211  -7.4177  -7.3873  -7.3844  -7.3746  -7.3622
    -7.3593  -7.3318  -7.3258  -7.3207  -7.3041  -7.2750  -7.2117  -7.1774
    -7.1630  -7.1190  -7.0878  -6.9236  -6.9109  -6.8855  -5.7759  -4.0934
    -2.9903  -2.7069  -2.6426  -2.4166  -0.9744  -0.9294  -0.8764  -0.8007
    -0.7673  -0.7218  -0.6297  -0.5001  -0.4776  -0.3310  -0.2171  -0.1978
    -0.0744   0.0437   0.0478   0.0785   0.0985   0.1760   0.2924   0.3776
     0.4160   0.4377   0.4405   0.4624   0.4659   0.7580   0.7608   0.8268
     0.9196   1.2218   1.7828   2.1102   2.8138   3.1421   3.4233   4.6597
     4.8166   4.8855   5.1325   5.2304   5.5338   5.5798   6.1635   6.2021

          k = 0.0148-0.0209 0.0000 ( 34503 PWs)   bands (ev):

   -76.6883 -76.6860 -76.4786 -76.4763 -76.4372 -76.4349 -44.6035 -44.6002
   -44.5942 -44.5940 -44.5916 -44.5522 -44.4421 -44.4006 -44.3987 -44.3966
   -44.3930 -44.3617 -44.3582 -44.3574 -44.3315 -44.3276 -44.2854 -44.2817
    -7.7462  -7.7204  -7.7171  -7.6914  -7.6812  -7.6309  -7.6131  -7.5468
    -7.4566  -7.4464  -7.4378  -7.4227  -7.4001  -7.3875  -7.3784  -7.3739
    -7.3665  -7.3542  -7.3233  -7.3063  -7.2939  -7.2791  -7.1812  -7.1686
    -7.1596  -7.0952  -7.0368  -6.9088  -6.8746  -6.8336  -5.9304  -4.2110
    -2.8269  -2.7631  -2.4654  -2.3902  -1.0231  -0.9190  -0.8343  -0.8244
    -0.7859  -0.7718  -0.6620  -0.4932  -0.4247  -0.2711  -0.1788  -0.1113
     0.0361   0.0550   0.0613   0.1194   0.1553   0.3608   0.3973   0.4119
     0.4967   0.5332   0.5718   0.6066   0.6699   0.7447   0.7469   1.1606
     1.2227   1.3426   1.7295   1.7495   2.4982   2.9908   3.1953   4.4433
     4.5525   4.7617   4.8062   5.0825   5.4075   5.4799   5.8791   6.0426

          k = 0.0295-0.0104 0.0000 ( 34511 PWs)   bands (ev):

   -76.6883 -76.6860 -76.4786 -76.4763 -76.4372 -76.4349 -44.6036 -44.6002
   -44.5943 -44.5940 -44.5915 -44.5522 -44.4421 -44.4006 -44.3987 -44.3966
   -44.3930 -44.3618 -44.3582 -44.3575 -44.3315 -44.3276 -44.2854 -44.2817
    -7.7395  -7.7136  -7.7045  -7.6795  -7.6768  -7.6198  -7.6040  -7.5468
    -7.4653  -7.4485  -7.4440  -7.4158  -7.4091  -7.3912  -7.3857  -7.3668
    -7.3651  -7.3240  -7.3130  -7.3073  -7.2832  -7.2527  -7.1927  -7.1704
    -7.1416  -7.0972  -7.0465  -6.9255  -6.8767  -6.8320  -5.8715  -4.1545
    -2.8685  -2.7384  -2.4231  -2.3854  -1.0407  -0.9900  -0.9348  -0.8441
    -0.8334  -0.8063  -0.7528  -0.5800  -0.4463  -0.2409  -0.1635  -0.1244
    -0.0301   0.0403   0.0712   0.0729   0.2369   0.2504   0.2813   0.3998
     0.4187   0.5292   0.5616   0.6665   0.6814   0.7313   0.7427   0.8835
     1.0247   1.8850   1.9009   2.1123   2.1959   2.8903   3.1365   4.0116
     4.5866   4.8077   4.8428   5.1413   5.4551   5.5968   5.9480   6.0423

          k = 0.0295 0.0052 0.0000 ( 34469 PWs)   bands (ev):

   -76.6884 -76.6858 -76.4787 -76.4762 -76.4373 -76.4348 -44.6039 -44.6000
   -44.5964 -44.5946 -44.5912 -44.5498 -44.4445 -44.4011 -44.3982 -44.3968
   -44.3928 -44.3620 -44.3580 -44.3551 -44.3317 -44.3274 -44.2856 -44.2815
    -7.7625  -7.7238  -7.7111  -7.6884  -7.6712  -7.6318  -7.6114  -7.5850
    -7.4769  -7.4643  -7.4373  -7.4289  -7.4069  -7.3991  -7.3954  -7.3688
    -7.3437  -7.3284  -7.2952  -7.2896  -7.2618  -7.2238  -7.1831  -7.1651
    -7.1184  -7.0846  -7.0288  -6.9470  -6.8498  -6.7961  -5.8840  -4.1480
    -2.7480  -2.7390  -2.3740  -2.2363  -1.2238  -1.1162  -0.9621  -0.9611
    -0.9116  -0.8685  -0.8082  -0.6691  -0.4817  -0.1893  -0.1537  -0.0907
    -0.0172   0.0045   0.0701   0.1096   0.2249   0.2696   0.3501   0.3907
     0.4236   0.5553   0.5827   0.6578   0.6900   0.7867   0.9023   1.0055
     1.3408   1.6463   1.8520   2.1702   2.2810   2.6423   3.1481   3.4248
     4.5055   4.7749   4.7967   5.1282   5.4439   5.4740   5.6699   5.8087

          k = 0.0295 0.0209 0.0000 ( 34465 PWs)   bands (ev):

   -76.6885 -76.6858 -76.4787 -76.4761 -76.4374 -76.4348 -44.6041 -44.5999
   -44.5973 -44.5948 -44.5910 -44.5489 -44.4453 -44.4020 -44.3974 -44.3970
   -44.3928 -44.3622 -44.3580 -44.3543 -44.3317 -44.3274 -44.2857 -44.2815
    -7.7622  -7.7145  -7.6994  -7.6917  -7.6509  -7.6175  -7.6018  -7.5964
    -7.4901  -7.4742  -7.4473  -7.4225  -7.4003  -7.3923  -7.3894  -7.3659
    -7.3311  -7.3250  -7.2884  -7.2631  -7.2454  -7.1920  -7.1794  -7.1645
    -7.1019  -7.0825  -7.0347  -6.9748  -6.8443  -6.7815  -5.8111  -4.0731
    -2.7144  -2.6794  -2.3550  -2.1332  -1.4617  -1.2099  -1.0795  -1.0166
    -0.9645  -0.9327  -0.8489  -0.7483  -0.5448  -0.2207  -0.1766  -0.1091
    -0.0966  -0.0939   0.0968   0.1084   0.1836   0.2720   0.2736   0.4264
     0.4376   0.5426   0.5926   0.6319   0.6928   0.7861   0.9120   1.0053
     1.3017   1.5788   1.9640   2.0136   2.0616   2.9702   3.2327   3.2576
     4.5373   4.8518   4.9714   5.0055   5.2017   5.5018   5.5699   5.8744

          k = 0.0295 0.0366 0.0000 ( 34457 PWs)   bands (ev):

   -76.6884 -76.6858 -76.4787 -76.4762 -76.4373 -76.4348 -44.6041 -44.6000
   -44.5966 -44.5948 -44.5910 -44.5498 -44.4446 -44.4012 -44.3982 -44.3970
   -44.3929 -44.3622 -44.3581 -44.3551 -44.3315 -44.3275 -44.2856 -44.2816
    -7.7384  -7.6887  -7.6795  -7.6730  -7.6198  -7.5904  -7.5789  -7.5787
    -7.5046  -7.4743  -7.4607  -7.4079  -7.3898  -7.3772  -7.3762  -7.3578
    -7.3301  -7.3123  -7.2878  -7.2366  -7.2346  -7.1866  -7.1716  -7.1615
    -7.0957  -7.0887  -7.0623  -7.0074  -6.8589  -6.7913  -5.6503  -3.9282
    -2.7687  -2.6778  -2.3631  -2.1353  -1.5546  -1.3239  -1.1843  -1.0757
    -1.0063  -0.9463  -0.9045  -0.8300  -0.5922  -0.3886  -0.2663  -0.1940
    -0.1581  -0.0633  -0.0602   0.0193   0.1090   0.2464   0.3252   0.3310
     0.4267   0.5263   0.5403   0.5828   0.6614   0.7138   0.7721   1.0011
     1.2408   1.2597   2.1594   2.1665   2.4774   2.7180   3.2723   3.4218
     4.5755   4.8596   4.9775   5.1448   5.3452   5.6286   5.7573   6.1241

          k = 0.0295 0.0522 0.0000 ( 34461 PWs)   bands (ev):

   -76.6883 -76.6860 -76.4786 -76.4763 -76.4372 -76.4349 -44.6040 -44.6003
   -44.5948 -44.5942 -44.5910 -44.5522 -44.4422 -44.4006 -44.3989 -44.3968
   -44.3932 -44.3621 -44.3584 -44.3575 -44.3313 -44.3278 -44.2854 -44.2818
    -7.6934  -7.6527  -7.6517  -7.6369  -7.5823  -7.5539  -7.5466  -7.5360
    -7.5211  -7.4722  -7.4645  -7.3935  -7.3697  -7.3684  -7.3612  -7.3429
    -7.3234  -7.3094  -7.2929  -7.2384  -7.2079  -7.2065  -7.1870  -7.1405
    -7.1109  -7.1072  -7.0934  -7.0432  -6.8874  -6.8273  -5.4025  -3.7134
    -3.1038  -2.6579  -2.4337  -2.1609  -1.4735  -1.4246  -1.2777  -1.1502
    -1.0063  -0.9752  -0.9332  -0.9003  -0.6090  -0.5726  -0.3381  -0.2683
    -0.2579  -0.2267  -0.1419  -0.0386   0.1175   0.1213   0.2226   0.2449
     0.3581   0.4495   0.5041   0.5139   0.5918   0.7553   0.8243   0.8932
     0.9133   1.3474   2.1934   2.4741   2.8438   2.9708   3.0801   3.5708
     4.2707   5.0796   5.1673   5.3156   5.5700   5.8246   5.8399   6.4337

          k = 0.0295 0.0679 0.0000 ( 34430 PWs)   bands (ev):

   -76.6881 -76.6862 -76.4783 -76.4765 -76.4370 -76.4351 -44.6038 -44.6006
   -44.5946 -44.5912 -44.5904 -44.5561 -44.4384 -44.4045 -44.3965 -44.3951
   -44.3935 -44.3619 -44.3613 -44.3588 -44.3309 -44.3281 -44.2850 -44.2822
    -7.6321  -7.6165  -7.6111  -7.5966  -7.5441  -7.5403  -7.5091  -7.5061
    -7.4798  -7.4789  -7.4479  -7.3825  -7.3753  -7.3510  -7.3423  -7.3203
    -7.3197  -7.3072  -7.3001  -7.2570  -7.2392  -7.2068  -7.1859  -7.1676
    -7.1370  -7.1338  -7.1087  -7.0792  -6.9162  -6.8892  -5.0753  -3.5815
    -3.4353  -2.6957  -2.6086  -2.1653  -1.4457  -1.4201  -1.2614  -1.2514
    -1.0470  -0.9663  -0.9291  -0.8893  -0.6757  -0.5961  -0.4103  -0.3909
    -0.3572  -0.2589  -0.2158  -0.0615  -0.0521   0.0401   0.1513   0.1787
     0.3510   0.4444   0.4548   0.4840   0.5251   0.6049   0.7497   0.7675
     0.8977   1.5479   2.0864   2.4656   3.0372   3.2469   3.7094   3.7136
     4.0345   4.9242   5.4227   5.4551   5.7319   5.8725   6.0889   6.4795

          k = 0.0295-0.1044 0.0000 ( 34448 PWs)   bands (ev):

   -76.6878 -76.6864 -76.4781 -76.4768 -76.4367 -76.4354 -44.6035 -44.6010
   -44.5943 -44.5915 -44.5855 -44.5611 -44.4335 -44.4095 -44.3961 -44.3940
   -44.3902 -44.3663 -44.3614 -44.3592 -44.3304 -44.3286 -44.2846 -44.2826
    -7.5822  -7.5777  -7.5671  -7.5644  -7.5485  -7.5098  -7.4861  -7.4627
    -7.4562  -7.4258  -7.4144  -7.4031  -7.3827  -7.3455  -7.3451  -7.3123
    -7.3121  -7.3040  -7.2912  -7.2677  -7.2609  -7.2353  -7.2296  -7.1752
    -7.1706  -7.1551  -7.1374  -7.1109  -6.9736  -6.9282  -4.6830  -4.0881
    -3.1152  -2.8846  -2.7983  -2.2007  -1.4288  -1.3816  -1.3253  -1.1102
    -1.0561  -0.9318  -0.8946  -0.8116  -0.6860  -0.5656  -0.4796  -0.4231
    -0.3982  -0.2825  -0.1983  -0.1751  -0.1475   0.0155   0.1253   0.1919
     0.2674   0.3414   0.4270   0.4458   0.4603   0.4923   0.5812   0.7626
     0.9184   1.8178   1.9660   2.1148   3.5276   3.7389   3.8252   3.8451
     4.3104   4.5533   5.3922   5.7417   6.1161   6.2204   6.3287   6.3871

          k = 0.0295-0.0888 0.0000 ( 34393 PWs)   bands (ev):

   -76.6875 -76.6867 -76.4778 -76.4771 -76.4365 -76.4357 -44.6030 -44.6014
   -44.5939 -44.5919 -44.5796 -44.5669 -44.4277 -44.4152 -44.3956 -44.3945
   -44.3845 -44.3720 -44.3609 -44.3596 -44.3299 -44.3291 -44.2841 -44.2831
    -7.5890  -7.5792  -7.5394  -7.5165  -7.5075  -7.4865  -7.4736  -7.4519
    -7.4270  -7.4169  -7.4058  -7.3966  -7.3721  -7.3515  -7.3462  -7.3441
    -7.3209  -7.2925  -7.2921  -7.2697  -7.2639  -7.2595  -7.2321  -7.2110
    -7.2009  -7.1733  -7.1490  -7.1288  -7.0739  -6.9230  -4.5666  -4.2476
    -3.2043  -2.9212  -2.8002  -2.2963  -1.4299  -1.3404  -1.1402  -1.0098
    -0.9787  -0.9149  -0.8069  -0.6984  -0.6041  -0.5435  -0.4762  -0.4223
    -0.3677  -0.2437  -0.2323  -0.1923  -0.1402   0.0313   0.1032   0.1450
     0.1768   0.2555   0.3382   0.3626   0.4064   0.4822   0.4882   0.7832
     0.8969   1.7707   1.8389   2.1439   3.6804   3.8457   3.9379   4.1464
     4.2740   5.0300   5.5908   5.8396   6.0905   6.2189   6.4229   6.5321

          k = 0.0295-0.0731 0.0000 ( 34431 PWs)   bands (ev):

   -76.6874 -76.6868 -76.4775 -76.4773 -76.4363 -76.4358 -44.6025 -44.6018
   -44.5935 -44.5923 -44.5735 -44.5730 -44.4215 -44.4214 -44.3951 -44.3949
   -44.3784 -44.3780 -44.3604 -44.3600 -44.3297 -44.3293 -44.2838 -44.2834
    -7.6132  -7.5987  -7.5247  -7.5221  -7.4930  -7.4828  -7.4822  -7.4672
    -7.4525  -7.4306  -7.3843  -7.3811  -7.3565  -7.3524  -7.3397  -7.3276
    -7.3237  -7.3117  -7.3037  -7.3035  -7.2798  -7.2557  -7.2435  -7.2251
    -7.2191  -7.1838  -7.1462  -7.1162  -7.1116  -6.9126  -4.9871  -3.8003
    -3.5102  -3.0095  -2.5738  -2.4239  -1.3665  -1.1622  -0.9676  -0.9071
    -0.9036  -0.8564  -0.7234  -0.5638  -0.5340  -0.4505  -0.4000  -0.3588
    -0.3280  -0.2017  -0.1816  -0.1635  -0.1320   0.0469   0.1096   0.1208
     0.1388   0.2044   0.2295   0.2651   0.3825   0.4746   0.5227   0.8051
     0.8484   1.4604   1.7105   2.5135   3.3615   3.5341   3.9167   4.8120
     4.8202   5.3050   5.5120   5.9424   6.1043   6.1814   6.2789   6.5075

          k = 0.0295-0.0574 0.0000 ( 34466 PWs)   bands (ev):

   -76.6876 -76.6867 -76.4778 -76.4771 -76.4365 -76.4357 -44.6025 -44.6016
   -44.5932 -44.5926 -44.5794 -44.5670 -44.4276 -44.4152 -44.3955 -44.3944
   -44.3843 -44.3721 -44.3606 -44.3596 -44.3303 -44.3288 -44.2842 -44.2829
    -7.6361  -7.6263  -7.5813  -7.5752  -7.5584  -7.4957  -7.4721  -7.4596
    -7.4430  -7.4314  -7.4158  -7.3790  -7.3586  -7.3570  -7.3517  -7.3403
    -7.3257  -7.3198  -7.3022  -7.3019  -7.2857  -7.2812  -7.2795  -7.2230
    -7.2165  -7.1825  -7.1537  -7.0557  -7.0321  -6.9052  -5.3331  -3.7686
    -3.3862  -3.0309  -2.5458  -2.4700  -1.1875  -0.9494  -0.9385  -0.8859
    -0.7698  -0.7269  -0.6445  -0.5520  -0.4065  -0.3768  -0.3006  -0.2710
    -0.2424  -0.2044  -0.1017  -0.0906  -0.0412  -0.0088   0.1288   0.1507
     0.2116   0.2318   0.2379   0.2460   0.4290   0.4654   0.6111   0.7967
     0.8176   1.1927   1.5978   2.8747   2.9095   3.4075   3.7706   5.2347
     5.2525   5.3946   5.5684   5.6543   5.8950   5.9999   6.1386   6.2725

          k = 0.0295-0.0418 0.0000 ( 34465 PWs)   bands (ev):

   -76.6878 -76.6864 -76.4781 -76.4768 -76.4368 -76.4354 -44.6029 -44.6011
   -44.5935 -44.5923 -44.5852 -44.5611 -44.4334 -44.4094 -44.3959 -44.3939
   -44.3900 -44.3663 -44.3610 -44.3591 -44.3308 -44.3283 -44.2847 -44.2825
    -7.6549  -7.6538  -7.6380  -7.6328  -7.6313  -7.5394  -7.5079  -7.4619
    -7.4564  -7.4174  -7.4095  -7.4008  -7.3959  -7.3593  -7.3536  -7.3477
    -7.3444  -7.3431  -7.3347  -7.3209  -7.3084  -7.2859  -7.2490  -7.1935
    -7.1637  -7.1493  -7.1479  -6.9863  -6.9534  -6.9042  -5.5967  -3.9647
    -3.1109  -2.9057  -2.6425  -2.4355  -1.0003  -0.9361  -0.9188  -0.7245
    -0.7167  -0.6825  -0.6759  -0.4528  -0.4484  -0.3723  -0.3071  -0.2622
    -0.1035  -0.0487  -0.0277   0.0294   0.1071   0.1081   0.1110   0.1464
     0.3226   0.3236   0.3317   0.3384   0.4523   0.6542   0.7426   0.8088
     0.8352   0.9774   1.5733   2.4475   3.1844   3.3835   3.3909   5.0288
     5.2150   5.2897   5.3935   5.4762   5.6776   5.9108   6.0548   6.3366

          k = 0.0295-0.0261 0.0000 ( 34486 PWs)   bands (ev):

   -76.6881 -76.6862 -76.4784 -76.4765 -76.4370 -76.4351 -44.6033 -44.6006
   -44.5939 -44.5919 -44.5902 -44.5561 -44.4383 -44.4044 -44.3963 -44.3949
   -44.3934 -44.3614 -44.3613 -44.3586 -44.3312 -44.3279 -44.2851 -44.2820
    -7.6957  -7.6838  -7.6781  -7.6709  -7.6681  -7.5791  -7.5751  -7.4838
    -7.4593  -7.4527  -7.4211  -7.4177  -7.3873  -7.3844  -7.3746  -7.3622
    -7.3593  -7.3318  -7.3258  -7.3207  -7.3041  -7.2750  -7.2117  -7.1774
    -7.1630  -7.1190  -7.0878  -6.9236  -6.9109  -6.8855  -5.7759  -4.0934
    -2.9903  -2.7069  -2.6426  -2.4166  -0.9744  -0.9294  -0.8764  -0.8007
    -0.7673  -0.7218  -0.6297  -0.5001  -0.4776  -0.3310  -0.2171  -0.1978
    -0.0744   0.0437   0.0478   0.0785   0.0985   0.1760   0.2924   0.3776
     0.4160   0.4377   0.4405   0.4624   0.4659   0.7580   0.7608   0.8268
     0.9196   1.2218   1.7828   2.1102   2.8138   3.1421   3.4233   4.6597
     4.8166   4.8855   5.1325   5.2304   5.5338   5.5798   6.1635   6.2022

          k = 0.0443-0.0157 0.0000 ( 34488 PWs)   bands (ev):

   -76.6881 -76.6862 -76.4784 -76.4765 -76.4370 -76.4351 -44.6034 -44.6006
   -44.5940 -44.5917 -44.5902 -44.5561 -44.4383 -44.4044 -44.3963 -44.3950
   -44.3934 -44.3616 -44.3612 -44.3586 -44.3311 -44.3279 -44.2851 -44.2821
    -7.6828  -7.6712  -7.6597  -7.6588  -7.6469  -7.5643  -7.5592  -7.4871
    -7.4847  -7.4431  -7.4317  -7.4218  -7.4111  -7.3722  -7.3701  -7.3587
    -7.3470  -7.3239  -7.3151  -7.2901  -7.2805  -7.2323  -7.2293  -7.1805
    -7.1416  -7.1223  -7.1044  -6.9433  -6.9246  -6.8849  -5.6560  -3.9792
    -3.1562  -2.6637  -2.4993  -2.4413  -1.0169  -1.0132  -0.9563  -0.9113
    -0.8603  -0.8385  -0.7884  -0.6272  -0.4623  -0.3230  -0.2537  -0.2291
    -0.1640  -0.0248   0.0183   0.0447   0.1027   0.1508   0.1550   0.3245
     0.3476   0.3616   0.4681   0.4855   0.4960   0.6566   0.6726   0.7762
     0.9456   1.9081   2.2492   2.3497   2.4389   2.9238   3.3375   3.8018
     4.8986   4.9768   5.1776   5.3410   5.6286   5.7795   5.8871   5.9597

          k = 0.0443 0.0000 0.0000 ( 34463 PWs)   bands (ev):

   -76.6883 -76.6860 -76.4786 -76.4763 -76.4372 -76.4349 -44.6038 -44.6002
   -44.5945 -44.5941 -44.5913 -44.5522 -44.4421 -44.4006 -44.3988 -44.3967
   -44.3931 -44.3619 -44.3583 -44.3575 -44.3314 -44.3277 -44.2854 -44.2818
    -7.7208  -7.6895  -7.6749  -7.6684  -7.6395  -7.5888  -7.5792  -7.5474
    -7.4950  -7.4575  -7.4444  -7.4258  -7.3965  -7.3802  -7.3762  -7.3560
    -7.3414  -7.3246  -7.3031  -7.2615  -7.2586  -7.2037  -7.1977  -7.1742
    -7.1175  -7.1020  -7.0726  -6.9727  -6.8818  -6.8288  -5.6949  -3.9868
    -2.9682  -2.6794  -2.4093  -2.2955  -1.2519  -1.1491  -1.0317  -0.9959
    -0.9342  -0.8850  -0.8832  -0.7364  -0.5111  -0.2828  -0.2074  -0.1757
    -0.1556  -0.1348  -0.0090   0.0303   0.1266   0.2434   0.2541   0.3334
     0.3916   0.5057   0.5237   0.5696   0.5864   0.7211   0.8649   0.8716
     0.9315   1.6191   2.2330   2.6320   2.6774   2.6983   3.0607   3.1471
     4.7380   4.9427   5.1237   5.1310   5.3081   5.5944   5.9049   5.9669

          k = 0.0443 0.0157 0.0000 ( 34457 PWs)   bands (ev):

   -76.6884 -76.6858 -76.4787 -76.4762 -76.4373 -76.4348 -44.6041 -44.6000
   -44.5966 -44.5948 -44.5910 -44.5498 -44.4446 -44.4012 -44.3982 -44.3970
   -44.3929 -44.3622 -44.3581 -44.3551 -44.3315 -44.3275 -44.2856 -44.2816
    -7.7384  -7.6887  -7.6795  -7.6730  -7.6198  -7.5904  -7.5789  -7.5787
    -7.5046  -7.4743  -7.4607  -7.4079  -7.3898  -7.3772  -7.3762  -7.3578
    -7.3301  -7.3123  -7.2878  -7.2366  -7.2346  -7.1866  -7.1716  -7.1615
    -7.0957  -7.0887  -7.0623  -7.0074  -6.8589  -6.7913  -5.6503  -3.9282
    -2.7687  -2.6778  -2.3631  -2.1353  -1.5546  -1.3239  -1.1843  -1.0757
    -1.0063  -0.9463  -0.9045  -0.8300  -0.5922  -0.3886  -0.2663  -0.1940
    -0.1581  -0.0633  -0.0602   0.0193   0.1090   0.2464   0.3252   0.3310
     0.4267   0.5263   0.5403   0.5828   0.6614   0.7138   0.7721   1.0011
     1.2408   1.2597   2.1594   2.1665   2.4774   2.7180   3.2723   3.4218
     4.5756   4.8596   4.9775   5.1448   5.3452   5.6286   5.7573   6.1241

          k = 0.0443 0.0313 0.0000 ( 34389 PWs)   bands (ev):

   -76.6884 -76.6858 -76.4787 -76.4761 -76.4374 -76.4347 -44.6043 -44.6000
   -44.5974 -44.5951 -44.5907 -44.5490 -44.4454 -44.4021 -44.3974 -44.3971
   -44.3929 -44.3624 -44.3581 -44.3543 -44.3315 -44.3275 -44.2856 -44.2815
    -7.7340  -7.6804  -7.6718  -7.6570  -7.6030  -7.5855  -7.5657  -7.5579
    -7.5143  -7.4812  -7.4730  -7.3888  -7.3875  -7.3701  -7.3582  -7.3534
    -7.3311  -7.2896  -7.2766  -7.2191  -7.2094  -7.1889  -7.1677  -7.1279
    -7.0910  -7.0745  -7.0726  -7.0462  -6.8560  -6.7767  -5.5189  -3.8014
    -2.6812  -2.6424  -2.3336  -2.0125  -1.8485  -1.4939  -1.3093  -1.1782
    -1.0524  -0.9771  -0.9458  -0.9152  -0.6622  -0.5502  -0.3581  -0.2645
    -0.2228  -0.0532  -0.0392   0.0141   0.0271   0.1366   0.3600   0.3895
     0.4251   0.4442   0.4504   0.5204   0.5653   0.6838   0.7914   1.0540
     1.2160   1.4142   1.9787   2.0045   2.3369   2.6898   3.5026   3.8152
     4.1387   4.9592   5.0771   5.4639   5.5681   5.6691   5.7312   6.3856

          k = 0.0443 0.0470 0.0000 ( 34448 PWs)   bands (ev):

   -76.6884 -76.6858 -76.4787 -76.4762 -76.4373 -76.4348 -44.6044 -44.6001
   -44.5967 -44.5952 -44.5907 -44.5498 -44.4446 -44.4013 -44.3983 -44.3971
   -44.3930 -44.3624 -44.3582 -44.3552 -44.3314 -44.3276 -44.2855 -44.2816
    -7.7077  -7.6653  -7.6434  -7.6312  -7.5925  -7.5486  -7.5447  -7.5255
    -7.5202  -7.4829  -7.4781  -7.3745  -7.3707  -7.3590  -7.3444  -7.3443
    -7.3273  -7.2807  -7.2699  -7.2131  -7.2015  -7.1851  -7.1769  -7.1134
    -7.0989  -7.0904  -7.0872  -7.0681  -6.8696  -6.7886  -5.3006  -3.6054
    -2.8104  -2.7311  -2.3560  -2.0442  -1.7927  -1.6002  -1.4144  -1.3003
    -1.0656  -1.0163  -0.9848  -0.9766  -0.7068  -0.7007  -0.4273  -0.3342
    -0.3085  -0.1854  -0.1104  -0.0325   0.0416   0.0891   0.1548   0.2063
     0.4265   0.4335   0.4680   0.5136   0.5545   0.6507   0.8024   1.0252
     1.1894   1.3506   1.7939   2.1198   2.6646   2.9347   3.3007   3.8049
     4.1482   5.1312   5.2425   5.6614   5.6802   5.8993   6.2122   6.2205

          k = 0.0443 0.0627 0.0000 ( 34421 PWs)   bands (ev):

   -76.6883 -76.6860 -76.4785 -76.4763 -76.4372 -76.4349 -44.6043 -44.6003
   -44.5951 -44.5943 -44.5908 -44.5523 -44.4423 -44.4007 -44.3990 -44.3969
   -44.3933 -44.3622 -44.3585 -44.3576 -44.3312 -44.3279 -44.2853 -44.2819
    -7.6620  -7.6355  -7.6089  -7.5998  -7.5656  -7.5396  -7.5179  -7.5060
    -7.4918  -7.4739  -7.4666  -7.3565  -7.3531  -7.3451  -7.3377  -7.3319
    -7.3198  -7.2869  -7.2732  -7.2229  -7.2191  -7.2015  -7.1679  -7.1504
    -7.1287  -7.1149  -7.0866  -7.0759  -6.8901  -6.8282  -5.0016  -3.3442
    -3.2528  -2.8598  -2.4779  -2.0280  -1.6061  -1.5924  -1.4861  -1.4410
    -1.1103  -1.0431  -0.9866  -0.9634  -0.7866  -0.7242  -0.4620  -0.3743
    -0.3556  -0.3301  -0.2325  -0.0403  -0.0399   0.0263   0.0436   0.0943
     0.4332   0.4554   0.4772   0.5102   0.5253   0.5808   0.8128   0.8876
     0.9265   1.5518   1.6787   2.3527   2.9304   3.2170   3.3082   3.5538
     4.5263   5.2819   5.4105   5.4702   5.9072   5.9640   6.0728   6.1646

          k = 0.0443-0.1097 0.0000 ( 34414 PWs)   bands (ev):

   -76.6881 -76.6862 -76.4783 -76.4765 -76.4370 -76.4351 -44.6040 -44.6006
   -44.5949 -44.5910 -44.5905 -44.5561 -44.4385 -44.4045 -44.3966 -44.3952
   -44.3936 -44.3620 -44.3613 -44.3588 -44.3308 -44.3282 -44.2850 -44.2822
    -7.6037  -7.5949  -7.5763  -7.5678  -7.5550  -7.5270  -7.5002  -7.4855
    -7.4654  -7.4487  -7.4208  -7.3509  -7.3486  -7.3377  -7.3267  -7.3122
    -7.3045  -7.3032  -7.2901  -7.2497  -7.2419  -7.2298  -7.2125  -7.1660
    -7.1477  -7.1402  -7.1086  -7.0991  -6.9025  -6.8939  -4.6358  -3.7593
    -3.0495  -3.0249  -2.7125  -2.0531  -1.6187  -1.5545  -1.4366  -1.3414
    -1.1415  -0.9858  -0.9798  -0.9074  -0.7921  -0.7162  -0.4506  -0.4195
    -0.4132  -0.3268  -0.2659  -0.1514  -0.1484   0.0012   0.0170   0.1209
     0.4034   0.4106   0.4782   0.4815   0.5035   0.5260   0.6247   0.7684
     0.8317   1.5654   1.8414   2.3297   2.9438   3.3614   3.7595   3.8342
     4.7321   4.9111   5.6814   5.6846   5.8274   6.0634   6.2959   6.4698

          k = 0.0443-0.0940 0.0000 ( 34381 PWs)   bands (ev):

   -76.6878 -76.6864 -76.4781 -76.4768 -76.4367 -76.4354 -44.6036 -44.6010
   -44.5945 -44.5913 -44.5855 -44.5611 -44.4335 -44.4095 -44.3962 -44.3940
   -44.3903 -44.3663 -44.3615 -44.3592 -44.3304 -44.3287 -44.2846 -44.2826
    -7.5780  -7.5622  -7.5542  -7.5441  -7.5298  -7.4983  -7.4760  -7.4473
    -7.4384  -7.4268  -7.3986  -7.3620  -7.3533  -7.3459  -7.3328  -7.3107
    -7.3039  -7.3006  -7.2865  -7.2763  -7.2601  -7.2551  -7.2427  -7.1935
    -7.1736  -7.1665  -7.1390  -7.1353  -6.9814  -6.9021  -4.2477  -4.2251
    -3.2135  -3.0099  -2.7253  -2.1615  -1.7121  -1.4718  -1.2399  -1.1452
    -1.0988  -0.9739  -0.9008  -0.8149  -0.7137  -0.6711  -0.4483  -0.4361
    -0.3909  -0.2805  -0.2129  -0.2095  -0.1814  -0.0209   0.0348   0.1407
     0.3110   0.3263   0.4274   0.4298   0.4564   0.4802   0.5266   0.5754
     0.8473   1.4923   2.0028   2.1588   3.2085   3.4042   4.1892   4.2573
     4.6897   4.8498   5.6010   5.9931   6.1339   6.1513   6.4269   6.7627

          k = 0.0443-0.0783 0.0000 ( 34401 PWs)   bands (ev):

   -76.6875 -76.6867 -76.4778 -76.4771 -76.4365 -76.4357 -44.6031 -44.6014
   -44.5941 -44.5918 -44.5797 -44.5669 -44.4277 -44.4152 -44.3957 -44.3945
   -44.3845 -44.3720 -44.3609 -44.3596 -44.3299 -44.3292 -44.2841 -44.2831
    -7.5984  -7.5769  -7.5147  -7.5089  -7.4926  -7.4811  -7.4560  -7.4527
    -7.4189  -7.4082  -7.4052  -7.3858  -7.3714  -7.3547  -7.3443  -7.3195
    -7.3157  -7.3012  -7.2938  -7.2823  -7.2643  -7.2595  -7.2335  -7.2208
    -7.1888  -7.1815  -7.1783  -7.1421  -7.0832  -6.8981  -4.6834  -3.7992
    -3.3390  -3.3078  -2.5196  -2.3044  -1.6576  -1.3164  -1.0192  -1.0158
    -0.9871  -0.9639  -0.8018  -0.6854  -0.5746  -0.5653  -0.4604  -0.4174
    -0.3303  -0.2615  -0.1864  -0.1706  -0.1216   0.0354   0.0648   0.1454
     0.1608   0.2555   0.3268   0.3597   0.3954   0.4368   0.4777   0.5159
     0.8571   1.4372   1.6820   2.5320   3.0839   3.7434   4.0161   4.7575
     4.8248   5.3667   5.5825   5.7294   6.1786   6.3071   6.3909   6.5525

          k = 0.0443-0.0627 0.0000 ( 34423 PWs)   bands (ev):

   -76.6874 -76.6868 -76.4775 -76.4773 -76.4363 -76.4358 -44.6025 -44.6018
   -44.5935 -44.5923 -44.5735 -44.5730 -44.4215 -44.4214 -44.3951 -44.3949
   -44.3784 -44.3780 -44.3604 -44.3600 -44.3298 -44.3293 -44.2838 -44.2834
    -7.6186  -7.6019  -7.5196  -7.5142  -7.4907  -7.4839  -7.4831  -7.4591
    -7.4575  -7.4241  -7.3810  -7.3670  -7.3582  -7.3471  -7.3358  -7.3356
    -7.3256  -7.3169  -7.3045  -7.2979  -7.2938  -7.2638  -7.2380  -7.2273
    -7.2185  -7.1916  -7.1468  -7.1287  -7.1121  -6.8980  -5.0481  -3.5669
    -3.4181  -3.3716  -2.4659  -2.4385  -1.4344  -1.1263  -0.9603  -0.9153
    -0.8783  -0.8157  -0.6939  -0.5420  -0.5178  -0.4094  -0.3753  -0.3531
    -0.3436  -0.1855  -0.1697  -0.1550  -0.1171   0.1053   0.1213   0.1457
     0.1473   0.1607   0.2366   0.2554   0.4303   0.4595   0.4716   0.5568
     0.8505   1.4077   1.4414   2.9361   3.0054   3.2785   4.4606   4.7414
     5.1253   5.4585   5.7635   5.8645   6.0520   6.1391   6.2115   6.2429

          k = 0.0443-0.0470 0.0000 ( 34466 PWs)   bands (ev):

   -76.6876 -76.6867 -76.4778 -76.4771 -76.4365 -76.4357 -44.6025 -44.6016
   -44.5932 -44.5926 -44.5794 -44.5670 -44.4276 -44.4152 -44.3955 -44.3944
   -44.3843 -44.3721 -44.3606 -44.3596 -44.3303 -44.3288 -44.2842 -44.2829
    -7.6361  -7.6263  -7.5813  -7.5752  -7.5584  -7.4957  -7.4721  -7.4596
    -7.4430  -7.4314  -7.4158  -7.3790  -7.3586  -7.3570  -7.3517  -7.3403
    -7.3257  -7.3198  -7.3022  -7.3019  -7.2857  -7.2812  -7.2795  -7.2230
    -7.2165  -7.1825  -7.1537  -7.0557  -7.0321  -6.9052  -5.3331  -3.7686
    -3.3862  -3.0309  -2.5458  -2.4700  -1.1875  -0.9494  -0.9385  -0.8859
    -0.7698  -0.7269  -0.6445  -0.5520  -0.4065  -0.3768  -0.3006  -0.2710
    -0.2424  -0.2044  -0.1017  -0.0906  -0.0412  -0.0088   0.1288   0.1507
     0.2116   0.2318   0.2379   0.2460   0.4290   0.4654   0.6111   0.7967
     0.8176   1.1927   1.5978   2.8747   2.9095   3.4075   3.7706   5.2347
     5.2525   5.3946   5.5684   5.6544   5.8950   5.9999   6.1386   6.2725

          k = 0.0443-0.0313 0.0000 ( 34462 PWs)   bands (ev):

   -76.6878 -76.6864 -76.4781 -76.4768 -76.4368 -76.4354 -44.6029 -44.6011
   -44.5935 -44.5923 -44.5852 -44.5611 -44.4334 -44.4094 -44.3959 -44.3939
   -44.3900 -44.3663 -44.3611 -44.3591 -44.3307 -44.3283 -44.2847 -44.2825
    -7.6495  -7.6437  -7.6340  -7.6260  -7.6257  -7.5336  -7.5017  -7.4754
    -7.4547  -7.4200  -7.4083  -7.4056  -7.4008  -7.3918  -7.3577  -7.3417
    -7.3316  -7.3279  -7.3252  -7.3031  -7.2979  -7.2622  -7.2591  -7.1962
    -7.1567  -7.1562  -7.1480  -6.9844  -6.9544  -6.9204  -5.5356  -3.9065
    -3.3011  -2.7353  -2.6206  -2.4679  -1.0130  -0.9464  -0.9264  -0.8293
    -0.8086  -0.7247  -0.7157  -0.5261  -0.4414  -0.4052  -0.3306  -0.2068
    -0.1674  -0.0594  -0.0267   0.0334   0.0515   0.0737   0.1191   0.1305
     0.2784   0.2989   0.3016   0.3498   0.4644   0.4964   0.7143   0.7507
     1.0418   1.2651   1.9719   2.5568   2.8851   2.9971   3.6849   4.5729
     5.0758   5.1478   5.3199   5.4585   5.7299   6.0845   6.2581   6.3746

          k = 0.0591-0.0209 0.0000 ( 34442 PWs)   bands (ev):

   -76.6878 -76.6864 -76.4781 -76.4768 -76.4368 -76.4354 -44.6031 -44.6011
   -44.5937 -44.5921 -44.5853 -44.5611 -44.4334 -44.4094 -44.3960 -44.3939
   -44.3901 -44.3663 -44.3612 -44.3591 -44.3307 -44.3284 -44.2847 -44.2825
    -7.6324  -7.6214  -7.6155  -7.6095  -7.6081  -7.5170  -7.5082  -7.4837
    -7.4395  -7.4352  -7.4225  -7.4197  -7.4087  -7.3846  -7.3559  -7.3337
    -7.3259  -7.3131  -7.3059  -7.2910  -7.2770  -7.2485  -7.2185  -7.1986
    -7.1763  -7.1573  -7.1412  -6.9763  -6.9660  -6.9580  -5.3556  -3.7361
    -3.5779  -2.5756  -2.5708  -2.5097  -1.0688  -1.0652  -1.0186  -0.9858
    -0.8922  -0.8896  -0.7426  -0.6711  -0.4445  -0.4096  -0.3994  -0.3317
    -0.3183  -0.1599  -0.0426  -0.0093   0.0051   0.0322   0.0803   0.1458
     0.2818   0.3213   0.3426   0.3822   0.4681   0.5303   0.6316   0.6698
     1.2053   1.9907   2.2693   2.5520   2.7606   2.8416   3.6107   3.8415
     4.9408   5.2115   5.3212   5.5265   5.6259   5.7178   5.8720   6.7618

          k = 0.0591-0.0052 0.0000 ( 34460 PWs)   bands (ev):

   -76.6881 -76.6862 -76.4784 -76.4765 -76.4370 -76.4351 -44.6036 -44.6006
   -44.5943 -44.5915 -44.5903 -44.5561 -44.4384 -44.4045 -44.3964 -44.3951
   -44.3934 -44.3617 -44.3613 -44.3587 -44.3310 -44.3280 -44.2851 -44.2821
    -7.6602  -7.6453  -7.6397  -7.6301  -7.6030  -7.5383  -7.5285  -7.5157
    -7.4935  -7.4566  -7.4410  -7.4170  -7.3966  -7.3611  -7.3527  -7.3470
    -7.3316  -7.3163  -7.3086  -7.2703  -7.2409  -7.2275  -7.1873  -7.1802
    -7.1328  -7.1318  -7.1204  -7.0023  -6.9236  -6.8858  -5.4199  -3.7563
    -3.3668  -2.6178  -2.5116  -2.3223  -1.2309  -1.2208  -1.0902  -1.0411
    -0.9776  -0.9379  -0.8468  -0.7910  -0.4984  -0.4446  -0.3577  -0.3281
    -0.3047  -0.1360  -0.1266  -0.0034   0.0627   0.1377   0.1611   0.2521
     0.2875   0.4067   0.4733   0.4954   0.5543   0.5588   0.7225   0.7352
     1.1083   1.6320   2.6337   2.6675   2.7512   2.9912   3.1742   3.2038
     4.8227   4.8505   5.1575   5.5300   5.5570   5.5751   5.8144   6.4983

          k = 0.0591 0.0104 0.0000 ( 34461 PWs)   bands (ev):

   -76.6883 -76.6860 -76.4786 -76.4763 -76.4372 -76.4349 -44.6040 -44.6003
   -44.5948 -44.5942 -44.5910 -44.5522 -44.4422 -44.4006 -44.3989 -44.3968
   -44.3932 -44.3621 -44.3584 -44.3575 -44.3313 -44.3278 -44.2854 -44.2818
    -7.6934  -7.6527  -7.6517  -7.6369  -7.5823  -7.5539  -7.5466  -7.5360
    -7.5211  -7.4722  -7.4645  -7.3935  -7.3697  -7.3684  -7.3612  -7.3429
    -7.3234  -7.3094  -7.2929  -7.2384  -7.2079  -7.2065  -7.1870  -7.1405
    -7.1109  -7.1072  -7.0935  -7.0432  -6.8874  -6.8273  -5.4025  -3.7134
    -3.1038  -2.6579  -2.4337  -2.1609  -1.4735  -1.4246  -1.2777  -1.1502
    -1.0063  -0.9752  -0.9332  -0.9003  -0.6090  -0.5726  -0.3381  -0.2683
    -0.2579  -0.2267  -0.1419  -0.0386   0.1175   0.1213   0.2226   0.2449
     0.3581   0.4495   0.5041   0.5139   0.5918   0.7553   0.8243   0.8932
     0.9133   1.3474   2.1934   2.4741   2.8438   2.9708   3.0801   3.5708
     4.2707   5.0796   5.1673   5.3156   5.5700   5.8247   5.8399   6.4337

          k = 0.0591 0.0261 0.0000 ( 34448 PWs)   bands (ev):

   -76.6884 -76.6858 -76.4787 -76.4762 -76.4373 -76.4348 -44.6044 -44.6001
   -44.5967 -44.5952 -44.5907 -44.5498 -44.4446 -44.4013 -44.3983 -44.3971
   -44.3930 -44.3624 -44.3582 -44.3552 -44.3314 -44.3276 -44.2855 -44.2816
    -7.7077  -7.6653  -7.6434  -7.6312  -7.5925  -7.5486  -7.5447  -7.5255
    -7.5202  -7.4829  -7.4781  -7.3745  -7.3707  -7.3590  -7.3444  -7.3443
    -7.3273  -7.2807  -7.2699  -7.2131  -7.2015  -7.1851  -7.1769  -7.1134
    -7.0989  -7.0904  -7.0872  -7.0681  -6.8696  -6.7886  -5.3006  -3.6054
    -2.8104  -2.7311  -2.3560  -2.0442  -1.7927  -1.6002  -1.4144  -1.3003
    -1.0656  -1.0163  -0.9848  -0.9766  -0.7068  -0.7007  -0.4273  -0.3342
    -0.3085  -0.1854  -0.1104  -0.0325   0.0416   0.0891   0.1548   0.2063
     0.4265   0.4335   0.4680   0.5136   0.5545   0.6507   0.8024   1.0252
     1.1894   1.3506   1.7939   2.1198   2.6646   2.9347   3.3007   3.8049
     4.1482   5.1312   5.2425   5.6614   5.6802   5.8993   6.2122   6.2205

          k = 0.0591 0.0418 0.0000 ( 34430 PWs)   bands (ev):

   -76.6884 -76.6858 -76.4787 -76.4761 -76.4374 -76.4347 -44.6046 -44.6000
   -44.5976 -44.5954 -44.5905 -44.5490 -44.4455 -44.4022 -44.3975 -44.3973
   -44.3930 -44.3626 -44.3582 -44.3544 -44.3314 -44.3276 -44.2856 -44.2816
    -7.7017  -7.6662  -7.6257  -7.6153  -7.6071  -7.5363  -7.5308  -7.5127
    -7.4904  -7.4861  -7.4815  -7.3685  -7.3551  -7.3536  -7.3360  -7.3335
    -7.3171  -7.2664  -7.2475  -7.2161  -7.1988  -7.1682  -7.1648  -7.1328
    -7.1223  -7.0953  -7.0633  -7.0517  -6.8690  -6.7746  -5.1129  -3.4303
    -2.8793  -2.5900  -2.3123  -2.1777  -1.8861  -1.6827  -1.5145  -1.4725
    -1.1024  -1.0996  -1.0122  -1.0077  -0.8094  -0.7811  -0.5217  -0.4341
    -0.3785  -0.1654  -0.0905  -0.0831  -0.0236  -0.0111   0.0554   0.0799
     0.2445   0.4555   0.4923   0.5159   0.5686   0.6660   0.8345   1.0591
     1.3110   1.4324   1.5708   2.0207   2.5042   3.1489   3.4503   3.5582
     4.1034   5.3784   5.5931   5.7887   5.8421   6.0692   6.0886   6.2318

          k = 0.0591 0.0574 0.0000 ( 34430 PWs)   bands (ev):

   -76.6884 -76.6858 -76.4787 -76.4762 -76.4373 -76.4348 -44.6046 -44.6001
   -44.5968 -44.5954 -44.5904 -44.5499 -44.4447 -44.4014 -44.3983 -44.3972
   -44.3931 -44.3625 -44.3583 -44.3552 -44.3313 -44.3277 -44.2855 -44.2817
    -7.6755  -7.6513  -7.6039  -7.6021  -7.5914  -7.5387  -7.5231  -7.4973
    -7.4761  -7.4712  -7.4445  -7.3549  -7.3472  -7.3426  -7.3310  -7.3164
    -7.3077  -7.2656  -7.2402  -7.2367  -7.1987  -7.1782  -7.1760  -7.1579
    -7.1428  -7.1008  -7.0496  -7.0468  -6.8793  -6.7883  -4.8441  -3.1913
    -3.0987  -2.8809  -2.3584  -2.0510  -1.8161  -1.7164  -1.5965  -1.5952
    -1.1929  -1.1002  -1.0127  -1.0125  -0.8764  -0.8309  -0.5614  -0.4904
    -0.4266  -0.2659  -0.1926  -0.1081  -0.1008  -0.0751  -0.0276   0.0094
     0.2376   0.4627   0.5054   0.5089   0.5591   0.6323   0.8578   1.0216
     1.1505   1.4020   1.6486   2.1085   2.7573   3.1886   3.2849   3.4657
     4.4686   5.4318   5.6307   5.6777   5.8944   6.0815   6.2809   6.6821

          k = 0.0591-0.1149 0.0000 ( 34409 PWs)   bands (ev):

   -76.6882 -76.6860 -76.4785 -76.4763 -76.4372 -76.4349 -44.6045 -44.6003
   -44.5953 -44.5944 -44.5906 -44.5523 -44.4423 -44.4007 -44.3990 -44.3971
   -44.3933 -44.3624 -44.3585 -44.3576 -44.3311 -44.3280 -44.2853 -44.2819
    -7.6321  -7.6213  -7.5803  -7.5793  -7.5650  -7.5491  -7.5090  -7.5015
    -7.4642  -7.4287  -7.3990  -7.3433  -7.3352  -7.3288  -7.3224  -7.3077
    -7.3013  -7.2830  -7.2625  -7.2524  -7.2170  -7.2120  -7.2004  -7.1993
    -7.1351  -7.1168  -7.0639  -7.0567  -6.8888  -6.8300  -4.5075  -3.3716
    -3.3430  -2.8957  -2.5249  -1.9186  -1.8933  -1.6804  -1.6126  -1.4903
    -1.2343  -1.0639  -1.0002  -0.9804  -0.8830  -0.8546  -0.5334  -0.4825
    -0.4545  -0.3409  -0.2341  -0.2142  -0.1662  -0.1244  -0.0107   0.0247
     0.2515   0.4567   0.4840   0.4958   0.5312   0.5588   0.8711   0.8947
     0.9227   1.3464   1.8727   2.2911   2.9002   2.9997   3.2505   3.8612
     5.0447   5.2129   5.3509   5.6960   5.8801   6.4056   6.5646   6.8516

          k = 0.0591-0.0992 0.0000 ( 34384 PWs)   bands (ev):

   -76.6880 -76.6862 -76.4783 -76.4765 -76.4370 -76.4351 -44.6041 -44.6006
   -44.5950 -44.5908 -44.5906 -44.5561 -44.4385 -44.4045 -44.3967 -44.3952
   -44.3936 -44.3620 -44.3614 -44.3588 -44.3308 -44.3283 -44.2850 -44.2822
    -7.5858  -7.5757  -7.5658  -7.5513  -7.5432  -7.5426  -7.5176  -7.4746
    -7.4478  -7.3941  -7.3605  -7.3442  -7.3268  -7.3198  -7.3140  -7.3112
    -7.3034  -7.2946  -7.2823  -7.2761  -7.2528  -7.2497  -7.2413  -7.2206
    -7.1444  -7.1324  -7.0982  -7.0934  -6.8973  -6.8909  -4.1256  -3.8603
    -3.5555  -2.7796  -2.5966  -2.0360  -2.0111  -1.5930  -1.3799  -1.3268
    -1.2055  -0.9943  -0.9927  -0.9134  -0.8317  -0.8186  -0.4663  -0.4598
    -0.4151  -0.3708  -0.2594  -0.1985  -0.1772  -0.1345   0.0122   0.0368
     0.2661   0.4188   0.4363   0.4696   0.4832   0.4948   0.6375   0.7672
     0.8861   1.3191   2.1521   2.2638   2.8695   2.8981   3.8273   4.3010
     4.8110   5.0762   5.6025   5.8313   6.2075   6.5133   6.7484   6.8281

          k = 0.0591-0.0836 0.0000 ( 34394 PWs)   bands (ev):

   -76.6878 -76.6864 -76.4781 -76.4768 -76.4367 -76.4354 -44.6036 -44.6010
   -44.5946 -44.5912 -44.5855 -44.5611 -44.4335 -44.4095 -44.3962 -44.3940
   -44.3903 -44.3663 -44.3615 -44.3592 -44.3303 -44.3287 -44.2845 -44.2826
    -7.5817  -7.5536  -7.5448  -7.5357  -7.5218  -7.5049  -7.4804  -7.4391
    -7.4282  -7.3968  -7.3947  -7.3500  -7.3481  -7.3352  -7.3240  -7.3036
    -7.3029  -7.2978  -7.2902  -7.2856  -7.2697  -7.2683  -7.2393  -7.2287
    -7.1807  -7.1650  -7.1341  -7.1341  -6.9846  -6.8918  -4.3044  -3.7607
    -3.6762  -3.0564  -2.4670  -2.1605  -1.9541  -1.4682  -1.1642  -1.1587
    -1.1208  -0.9847  -0.9041  -0.8141  -0.7274  -0.7066  -0.4520  -0.4019
    -0.3646  -0.3304  -0.2514  -0.2063  -0.1193  -0.0548   0.0486   0.0657
     0.3128   0.3231   0.3397   0.4267   0.4300   0.4583   0.4819   0.5725
     0.8819   1.3328   1.9655   2.4359   2.8345   3.3602   4.1319   4.6559
     4.6782   5.1504   5.6546   5.8407   6.3066   6.5208   6.6096   6.7226

          k = 0.0591-0.0679 0.0000 ( 34401 PWs)   bands (ev):

   -76.6875 -76.6867 -76.4778 -76.4771 -76.4365 -76.4357 -44.6031 -44.6014
   -44.5941 -44.5918 -44.5797 -44.5669 -44.4277 -44.4152 -44.3957 -44.3945
   -44.3845 -44.3720 -44.3609 -44.3596 -44.3299 -44.3292 -44.2841 -44.2831
    -7.5984  -7.5769  -7.5147  -7.5089  -7.4926  -7.4811  -7.4560  -7.4527
    -7.4189  -7.4082  -7.4052  -7.3858  -7.3714  -7.3547  -7.3443  -7.3195
    -7.3157  -7.3012  -7.2938  -7.2823  -7.2643  -7.2595  -7.2335  -7.2208
    -7.1888  -7.1815  -7.1783  -7.1421  -7.0832  -6.8981  -4.6834  -3.7992
    -3.3390  -3.3078  -2.5196  -2.3044  -1.6576  -1.3164  -1.0192  -1.0158
    -0.9871  -0.9639  -0.8018  -0.6854  -0.5746  -0.5653  -0.4604  -0.4174
    -0.3303  -0.2615  -0.1864  -0.1706  -0.1216   0.0354   0.0648   0.1454
     0.1608   0.2555   0.3268   0.3597   0.3954   0.4367   0.4777   0.5159
     0.8571   1.4372   1.6820   2.5320   3.0839   3.7434   4.0161   4.7575
     4.8248   5.3667   5.5825   5.7294   6.1786   6.3071   6.3909   6.5525

          k = 0.0591-0.0522 0.0000 ( 34431 PWs)   bands (ev):

[...]
     0.9265   1.5518   1.6787   2.3527   2.9304   3.2170   3.3082   3.5538
     4.5263   5.2819   5.4105   5.4702   5.9072   5.9640   6.0727   6.1646

          k = 0.0739 0.0366 0.0000 ( 34430 PWs)   bands (ev):

   -76.6884 -76.6858 -76.4787 -76.4762 -76.4373 -76.4348 -44.6046 -44.6001
   -44.5968 -44.5954 -44.5904 -44.5499 -44.4447 -44.4014 -44.3983 -44.3972
   -44.3931 -44.3625 -44.3583 -44.3552 -44.3313 -44.3277 -44.2855 -44.2817
    -7.6755  -7.6513  -7.6039  -7.6021  -7.5914  -7.5387  -7.5231  -7.4973
    -7.4761  -7.4712  -7.4445  -7.3549  -7.3472  -7.3426  -7.3310  -7.3164
    -7.3077  -7.2656  -7.2402  -7.2367  -7.1987  -7.1782  -7.1760  -7.1579
    -7.1428  -7.1008  -7.0496  -7.0468  -6.8793  -6.7883  -4.8441  -3.1913
    -3.0987  -2.8809  -2.3584  -2.0510  -1.8161  -1.7164  -1.5965  -1.5952
    -1.1929  -1.1002  -1.0127  -1.0125  -0.8764  -0.8309  -0.5614  -0.4904
    -0.4266  -0.2659  -0.1926  -0.1081  -0.1008  -0.0751  -0.0276   0.0094
     0.2376   0.4627   0.5054   0.5089   0.5591   0.6323   0.8578   1.0216
     1.1505   1.4020   1.6486   2.1085   2.7573   3.1886   3.2849   3.4657
     4.4686   5.4318   5.6307   5.6777   5.8944   6.0815   6.2809   6.6821

          k = 0.0739 0.0522 0.0000 ( 34440 PWs)   bands (ev):

   -76.6884 -76.6858 -76.4787 -76.4761 -76.4374 -76.4347 -44.6048 -44.6001
   -44.5977 -44.5956 -44.5903 -44.5490 -44.4456 -44.4022 -44.3975 -44.3974
   -44.3931 -44.3627 -44.3583 -44.3544 -44.3314 -44.3277 -44.2856 -44.2816
    -7.6705  -7.6544  -7.6201  -7.5971  -7.5751  -7.5400  -7.5244  -7.5001
    -7.4776  -7.4318  -7.4060  -7.3517  -7.3426  -7.3394  -7.3339  -7.2946
    -7.2928  -7.2607  -7.2518  -7.2241  -7.2208  -7.1883  -7.1694  -7.1693
    -7.1328  -7.0942  -7.0363  -7.0210  -6.8805  -6.7743  -4.6071  -3.3885
    -2.9725  -2.5401  -2.3959  -2.2954  -1.9413  -1.7918  -1.6527  -1.5760
    -1.2660  -1.1249  -1.0358  -1.0183  -0.9332  -0.9149  -0.6404  -0.5653
    -0.4599  -0.2534  -0.2404  -0.1987  -0.1812  -0.1566  -0.1443   0.0239
     0.1575   0.4680   0.5214   0.5276   0.5728   0.6477   0.8866   1.0488
     1.2612   1.2910   1.7545   2.0386   2.5898   2.9315   3.5477   3.7152
     4.1700   5.0705   5.7892   6.1949   6.2988   6.3645   6.4693   6.5021

          k = 0.0739-0.1201 0.0000 ( 34435 PWs)   bands (ev):

   -76.6884 -76.6858 -76.4787 -76.4762 -76.4373 -76.4348 -44.6048 -44.6001
   -44.5969 -44.5956 -44.5903 -44.5499 -44.4448 -44.4014 -44.3983 -44.3973
   -44.3932 -44.3626 -44.3583 -44.3552 -44.3313 -44.3278 -44.2855 -44.2817
    -7.6487  -7.6400  -7.6193  -7.5862  -7.5570  -7.5443  -7.5208  -7.5039
    -7.4725  -7.3912  -7.3647  -7.3449  -7.3371  -7.3369  -7.3338  -7.2950
    -7.2823  -7.2747  -7.2672  -7.2531  -7.2227  -7.1973  -7.1898  -7.1795
    -7.1262  -7.0989  -7.0396  -7.0190  -6.8852  -6.7887  -4.3051  -3.6708
    -2.9413  -2.7013  -2.3659  -2.1808  -2.0664  -1.7653  -1.7078  -1.4897
    -1.3025  -1.1108  -1.0276  -1.0081  -0.9655  -0.9452  -0.6428  -0.5654
    -0.4751  -0.3209  -0.2934  -0.2397  -0.2173  -0.1991  -0.1377   0.0342
     0.1486   0.4676   0.5151   0.5253   0.5623   0.6167   0.9014   1.0125
     1.1351   1.2508   1.9034   2.1084   2.7723   2.7941   3.2700   4.0389
     4.5012   4.7860   5.8696   6.0249   6.3192   6.5517   6.6219   6.7857

          k = 0.0739-0.1044 0.0000 ( 34408 PWs)   bands (ev):

   -76.6882 -76.6860 -76.4785 -76.4763 -76.4372 -76.4349 -44.6045 -44.6003
   -44.5954 -44.5944 -44.5905 -44.5523 -44.4424 -44.4007 -44.3990 -44.3971
   -44.3934 -44.3624 -44.3585 -44.3576 -44.3311 -44.3280 -44.2853 -44.2819
    -7.6198  -7.6047  -7.5986  -7.5707  -7.5547  -7.5388  -7.5225  -7.4973
    -7.4625  -7.3621  -7.3499  -7.3403  -7.3321  -7.3303  -7.3233  -7.3071
    -7.2881  -7.2871  -7.2755  -7.2669  -7.2444  -7.2345  -7.2053  -7.2012
    -7.1262  -7.1167  -7.0597  -7.0469  -6.8873  -6.8310  -4.0198  -3.8490
    -3.4169  -2.5454  -2.4514  -2.3358  -1.8721  -1.6849  -1.6779  -1.4004
    -1.2789  -1.0638  -1.0020  -0.9859  -0.9447  -0.9011  -0.5563  -0.5222
    -0.4808  -0.3179  -0.3122  -0.2209  -0.2185  -0.1803  -0.1031   0.0381
     0.1738   0.4592   0.4913   0.5017   0.5327   0.5446   0.8932   0.9024
     0.9181   1.2560   2.0618   2.2727   2.7288   2.8900   3.2547   4.3168
     4.7094   5.0448   5.3146   6.2458   6.3766   6.4928   6.9221   7.0302

          k = 0.0739-0.0888 0.0000 ( 34384 PWs)   bands (ev):

   -76.6880 -76.6862 -76.4783 -76.4765 -76.4370 -76.4351 -44.6041 -44.6006
   -44.5950 -44.5908 -44.5906 -44.5561 -44.4385 -44.4045 -44.3967 -44.3952
   -44.3936 -44.3620 -44.3614 -44.3588 -44.3308 -44.3283 -44.2850 -44.2822
    -7.5858  -7.5757  -7.5658  -7.5513  -7.5432  -7.5426  -7.5176  -7.4746
    -7.4478  -7.3941  -7.3605  -7.3442  -7.3268  -7.3198  -7.3139  -7.3112
    -7.3034  -7.2946  -7.2823  -7.2761  -7.2528  -7.2497  -7.2413  -7.2206
    -7.1444  -7.1324  -7.0982  -7.0934  -6.8973  -6.8909  -4.1256  -3.8603
    -3.5555  -2.7796  -2.5966  -2.0360  -2.0111  -1.5930  -1.3799  -1.3268
    -1.2055  -0.9943  -0.9927  -0.9134  -0.8317  -0.8186  -0.4663  -0.4598
    -0.4151  -0.3708  -0.2594  -0.1985  -0.1772  -0.1345   0.0122   0.0368
     0.2661   0.4188   0.4363   0.4696   0.4832   0.4948   0.6375   0.7672
     0.8861   1.3191   2.1521   2.2638   2.8695   2.8981   3.8273   4.3010
     4.8110   5.0762   5.6025   5.8313   6.2075   6.5133   6.7513   6.9172

          k = 0.0739-0.0731 0.0000 ( 34381 PWs)   bands (ev):

   -76.6878 -76.6864 -76.4781 -76.4768 -76.4367 -76.4354 -44.6036 -44.6010
   -44.5945 -44.5913 -44.5855 -44.5611 -44.4335 -44.4095 -44.3962 -44.3940
   -44.3903 -44.3663 -44.3615 -44.3592 -44.3304 -44.3287 -44.2846 -44.2826
    -7.5780  -7.5622  -7.5542  -7.5441  -7.5298  -7.4983  -7.4760  -7.4473
    -7.4384  -7.4268  -7.3986  -7.3620  -7.3533  -7.3459  -7.3328  -7.3107
    -7.3039  -7.3006  -7.2865  -7.2763  -7.2601  -7.2551  -7.2427  -7.1934
    -7.1736  -7.1665  -7.1390  -7.1353  -6.9814  -6.9021  -4.2477  -4.2251
    -3.2135  -3.0099  -2.7253  -2.1615  -1.7121  -1.4718  -1.2399  -1.1452
    -1.0988  -0.9739  -0.9008  -0.8149  -0.7137  -0.6711  -0.4483  -0.4361
    -0.3909  -0.2805  -0.2129  -0.2095  -0.1814  -0.0209   0.0348   0.1407
     0.3110   0.3263   0.4274   0.4298   0.4564   0.4802   0.5266   0.5754
     0.8473   1.4923   2.0028   2.1588   3.2085   3.4042   4.1892   4.2574
     4.6897   4.8498   5.6010   5.9932   6.1339   6.1515   6.4272   6.7641

          k = 0.0739-0.0574 0.0000 ( 34393 PWs)   bands (ev):

   -76.6875 -76.6867 -76.4778 -76.4771 -76.4365 -76.4357 -44.6030 -44.6014
   -44.5939 -44.5919 -44.5796 -44.5669 -44.4277 -44.4152 -44.3956 -44.3945
   -44.3845 -44.3720 -44.3609 -44.3596 -44.3299 -44.3291 -44.2841 -44.2831
    -7.5890  -7.5792  -7.5394  -7.5165  -7.5075  -7.4865  -7.4736  -7.4519
    -7.4270  -7.4169  -7.4058  -7.3966  -7.3721  -7.3515  -7.3462  -7.3441
    -7.3209  -7.2925  -7.2921  -7.2697  -7.2639  -7.2595  -7.2321  -7.2110
    -7.2009  -7.1733  -7.1490  -7.1288  -7.0739  -6.9230  -4.5666  -4.2476
    -3.2043  -2.9212  -2.8002  -2.2963  -1.4299  -1.3404  -1.1402  -1.0098
    -0.9787  -0.9149  -0.8069  -0.6984  -0.6041  -0.5435  -0.4762  -0.4223
    -0.3677  -0.2437  -0.2323  -0.1923  -0.1402   0.0313   0.1032   0.1450
     0.1768   0.2555   0.3382   0.3626   0.4064   0.4822   0.4882   0.7832
     0.8969   1.7707   1.8389   2.1439   3.6804   3.8457   3.9379   4.1464
     4.2740   5.0300   5.5908   5.8396   6.0906   6.2189   6.4229   6.5316

          k = 0.0739-0.0418 0.0000 ( 34408 PWs)   bands (ev):

   -76.6874 -76.6868 -76.4775 -76.4773 -76.4363 -76.4358 -44.6024 -44.6019
   -44.5933 -44.5925 -44.5735 -44.5730 -44.4215 -44.4214 -44.3951 -44.3949
   -44.3784 -44.3780 -44.3605 -44.3600 -44.3297 -44.3294 -44.2838 -44.2834
    -7.5973  -7.5879  -7.5436  -7.5433  -7.5010  -7.4834  -7.4785  -7.4751
    -7.4409  -7.4357  -7.3981  -7.3847  -7.3709  -7.3484  -7.3378  -7.3348
    -7.3185  -7.3161  -7.3135  -7.2966  -7.2601  -7.2505  -7.2413  -7.2229
    -7.2079  -7.1694  -7.1486  -7.1253  -7.0678  -6.9530  -4.8108  -4.1910
    -3.3481  -2.8242  -2.6845  -2.4088  -1.2287  -1.2222  -1.0960  -0.9971
    -0.8768  -0.7939  -0.7766  -0.6299  -0.5247  -0.5246  -0.4591  -0.4086
    -0.3298  -0.2487  -0.2155  -0.1991  -0.1259  -0.0326   0.1196   0.1399
     0.2000   0.2465   0.2578   0.2856   0.3978   0.4702   0.5500   0.6980
     1.4214   1.6076   2.1480   2.3663   3.0240   3.6014   4.2029   4.2315
     4.3602   5.0000   5.6495   6.0159   6.1051   6.1529   6.1863   6.4583

          k =-0.0886 0.0313 0.0000 ( 34418 PWs)   bands (ev):

   -76.6874 -76.6868 -76.4775 -76.4773 -76.4363 -76.4358 -44.6024 -44.6019
   -44.5932 -44.5926 -44.5735 -44.5730 -44.4215 -44.4214 -44.3951 -44.3949
   -44.3784 -44.3780 -44.3605 -44.3600 -44.3296 -44.3294 -44.2838 -44.2834
    -7.5725  -7.5725  -7.5682  -7.5682  -7.4967  -7.4967  -7.4753  -7.4753
    -7.4312  -7.4312  -7.4004  -7.4004  -7.3642  -7.3642  -7.3324  -7.3324
    -7.3190  -7.3190  -7.3064  -7.3064  -7.2535  -7.2535  -7.2304  -7.2304
    -7.1792  -7.1792  -7.1398  -7.1398  -7.0093  -7.0093  -4.5372  -4.5372
    -3.1049  -3.1049  -2.4756  -2.4755  -1.2271  -1.2269  -1.0808  -1.0806
    -0.8352  -0.8350  -0.7075  -0.7075  -0.5403  -0.5402  -0.4747  -0.4746
    -0.3010  -0.3009  -0.2148  -0.2147  -0.0917  -0.0916   0.1418   0.1420
     0.2485   0.2486   0.2900   0.2901   0.4398   0.4400   0.5959   0.5961
     1.8201   1.8202   2.1896   2.1898   3.2314   3.2315   3.9408   3.9408
     4.9001   4.9001   5.6840   5.6840   5.8764   5.8765   6.3652   6.3653

          k =-0.0886 0.0470 0.0000 ( 34395 PWs)   bands (ev):

   -76.6875 -76.6867 -76.4778 -76.4771 -76.4365 -76.4357 -44.6028 -44.6015
   -44.5937 -44.5922 -44.5796 -44.5670 -44.4277 -44.4152 -44.3956 -44.3944
   -44.3844 -44.3720 -44.3609 -44.3597 -44.3300 -44.3290 -44.2841 -44.2830
    -7.5808  -7.5722  -7.5712  -7.5448  -7.5277  -7.5188  -7.4644  -7.4544
    -7.4364  -7.4244  -7.4037  -7.3961  -7.3867  -7.3719  -7.3446  -7.3413
    -7.3278  -7.3029  -7.2919  -7.2705  -7.2655  -7.2334  -7.2318  -7.2164
    -7.2008  -7.1691  -7.1642  -7.0599  -7.0590  -6.9647  -4.6494  -4.3491
    -3.1378  -3.0188  -2.6192  -2.3410  -1.3077  -1.2378  -1.1875  -1.0377
    -0.9388  -0.8259  -0.8225  -0.7076  -0.5884  -0.5204  -0.4990  -0.4133
    -0.3950  -0.2700  -0.2298  -0.1829  -0.1116   0.0028   0.1098   0.1925
     0.2130   0.2833   0.3348   0.3498   0.4238   0.4770   0.5286   0.6795
     1.4509   1.8397   1.9403   2.5326   2.9534   3.8006   3.9925   4.1543
     4.3271   4.4203   5.7758   5.7790   5.9709   6.0494   6.2848   6.4647

          k =-0.0886 0.0627 0.0000 ( 34448 PWs)   bands (ev):

   -76.6878 -76.6864 -76.4781 -76.4768 -76.4367 -76.4354 -44.6035 -44.6010
   -44.5943 -44.5915 -44.5855 -44.5611 -44.4335 -44.4095 -44.3961 -44.3940
   -44.3902 -44.3663 -44.3614 -44.3592 -44.3304 -44.3286 -44.2846 -44.2826
    -7.5822  -7.5777  -7.5671  -7.5644  -7.5485  -7.5098  -7.4861  -7.4627
    -7.4562  -7.4258  -7.4144  -7.4031  -7.3827  -7.3455  -7.3451  -7.3123
    -7.3121  -7.3040  -7.2912  -7.2677  -7.2609  -7.2353  -7.2296  -7.1752
    -7.1706  -7.1551  -7.1374  -7.1109  -6.9736  -6.9282  -4.6830  -4.0881
    -3.1152  -2.8846  -2.7983  -2.2007  -1.4288  -1.3816  -1.3253  -1.1102
    -1.0561  -0.9318  -0.8946  -0.8116  -0.6860  -0.5656  -0.4795  -0.4231
    -0.3982  -0.2825  -0.1983  -0.1751  -0.1475   0.0155   0.1253   0.1919
     0.2674   0.3414   0.4270   0.4458   0.4603   0.4923   0.5812   0.7626
     0.9184   1.8178   1.9660   2.1148   3.5276   3.7389   3.8252   3.8451
     4.3104   4.5533   5.3922   5.7417   6.1162   6.2204   6.3287   6.3871

          k =-0.0886 0.0783 0.0000 ( 34414 PWs)   bands (ev):

   -76.6881 -76.6862 -76.4783 -76.4765 -76.4370 -76.4351 -44.6040 -44.6006
   -44.5949 -44.5910 -44.5905 -44.5561 -44.4385 -44.4045 -44.3966 -44.3952
   -44.3936 -44.3620 -44.3613 -44.3588 -44.3308 -44.3282 -44.2850 -44.2822
    -7.6037  -7.5949  -7.5763  -7.5678  -7.5550  -7.5270  -7.5002  -7.4855
    -7.4654  -7.4487  -7.4208  -7.3509  -7.3486  -7.3377  -7.3267  -7.3122
    -7.3045  -7.3032  -7.2901  -7.2497  -7.2419  -7.2298  -7.2125  -7.1660
    -7.1477  -7.1402  -7.1086  -7.0991  -6.9025  -6.8939  -4.6358  -3.7593
    -3.0495  -3.0249  -2.7125  -2.0531  -1.6187  -1.5545  -1.4366  -1.3414
    -1.1415  -0.9858  -0.9798  -0.9074  -0.7921  -0.7162  -0.4506  -0.4195
    -0.4132  -0.3268  -0.2659  -0.1514  -0.1484   0.0012   0.0170   0.1209
     0.4034   0.4106   0.4782   0.4815   0.5035   0.5260   0.6247   0.7684
     0.8317   1.5654   1.8414   2.3297   2.9438   3.3614   3.7595   3.8342
     4.7321   4.9111   5.6815   5.6846   5.8276   6.0633   6.2959   6.5988

          k =-0.0886 0.0940 0.0000 ( 34409 PWs)   bands (ev):

   -76.6882 -76.6860 -76.4785 -76.4763 -76.4372 -76.4349 -44.6045 -44.6003
   -44.5953 -44.5944 -44.5906 -44.5523 -44.4423 -44.4007 -44.3990 -44.3971
   -44.3933 -44.3624 -44.3585 -44.3576 -44.3311 -44.3280 -44.2853 -44.2819
    -7.6321  -7.6213  -7.5803  -7.5793  -7.5650  -7.5491  -7.5090  -7.5015
    -7.4642  -7.4287  -7.3990  -7.3433  -7.3352  -7.3288  -7.3224  -7.3077
    -7.3013  -7.2830  -7.2625  -7.2524  -7.2170  -7.2120  -7.2004  -7.1993
    -7.1351  -7.1168  -7.0639  -7.0567  -6.8888  -6.8300  -4.5075  -3.3716
    -3.3430  -2.8957  -2.5249  -1.9186  -1.8933  -1.6804  -1.6126  -1.4903
    -1.2343  -1.0639  -1.0002  -0.9804  -0.8830  -0.8546  -0.5334  -0.4825
    -0.4545  -0.3409  -0.2341  -0.2142  -0.1662  -0.1244  -0.0107   0.0247
     0.2515   0.4567   0.4840   0.4958   0.5312   0.5588   0.8711   0.8947
     0.9227   1.3464   1.8727   2.2911   2.9002   2.9997   3.2505   3.8612
     5.0447   5.2129   5.3509   5.6960   5.8801   6.4057   6.5646   6.8517

          k =-0.0886 0.1097 0.0000 ( 34435 PWs)   bands (ev):

   -76.6884 -76.6858 -76.4787 -76.4762 -76.4373 -76.4348 -44.6048 -44.6001
   -44.5969 -44.5956 -44.5903 -44.5499 -44.4448 -44.4014 -44.3983 -44.3973
   -44.3932 -44.3626 -44.3583 -44.3552 -44.3313 -44.3278 -44.2855 -44.2817
    -7.6487  -7.6400  -7.6193  -7.5862  -7.5570  -7.5443  -7.5208  -7.5039
    -7.4725  -7.3912  -7.3647  -7.3449  -7.3371  -7.3369  -7.3338  -7.2950
    -7.2823  -7.2747  -7.2672  -7.2531  -7.2227  -7.1973  -7.1898  -7.1795
    -7.1262  -7.0989  -7.0396  -7.0190  -6.8852  -6.7887  -4.3051  -3.6708
    -2.9413  -2.7013  -2.3659  -2.1808  -2.0664  -1.7653  -1.7078  -1.4897
    -1.3025  -1.1108  -1.0276  -1.0081  -0.9655  -0.9452  -0.6428  -0.5654
    -0.4751  -0.3209  -0.2934  -0.2397  -0.2173  -0.1991  -0.1377   0.0342
     0.1486   0.4676   0.5151   0.5253   0.5623   0.6167   0.9014   1.0125
     1.1351   1.2508   1.9034   2.1084   2.7723   2.7940   3.2700   4.0389
     4.5012   4.7860   5.8696   6.0249   6.3192   6.5517   6.6219   6.7856

          k =-0.0886-0.0627 0.0000 ( 34462 PWs)   bands (ev):

   -76.6884 -76.6858 -76.4787 -76.4761 -76.4374 -76.4348 -44.6049 -44.6001
   -44.5977 -44.5957 -44.5902 -44.5490 -44.4456 -44.4023 -44.3975 -44.3974
   -44.3931 -44.3627 -44.3583 -44.3544 -44.3313 -44.3277 -44.2856 -44.2816
    -7.6543  -7.6416  -7.6381  -7.5887  -7.5531  -7.5428  -7.5267  -7.5033
    -7.4750  -7.3594  -7.3563  -7.3478  -7.3358  -7.3350  -7.3346  -7.3164
    -7.2848  -7.2812  -7.2640  -7.2452  -7.2125  -7.1979  -7.1824  -7.1725
    -7.1229  -7.0922  -7.0309  -7.0046  -6.8856  -6.7745  -4.1115  -3.9103
    -2.5192  -2.4727  -2.4721  -2.4427  -2.2883  -1.7588  -1.7015  -1.4791
    -1.3289  -1.1228  -1.0442  -1.0147  -1.0072  -0.9692  -0.7001  -0.5799
    -0.4781  -0.3780  -0.2849  -0.2746  -0.2220  -0.2185  -0.1837   0.0380
     0.1258   0.4690   0.5256   0.5379   0.5742   0.6395   0.9097   1.0426
     1.2253   1.2469   1.9169   2.0458   2.6157   2.6935   3.5388   4.1762
     4.1950   4.5452   6.1532   6.3835   6.4003   6.4539   6.4995   6.8208

     the Fermi energy is     0.8486 ev

!    total energy              =   -1972.08837172 Ry
     estimated scf accuracy    <       0.00000869 Ry
     smearing contrib. (-TS)   =      -0.06368353 Ry
     internal energy E=F+TS    =   -1972.02468819 Ry

     The total energy is F=E-TS. E is the sum of the following terms:
     one-electron contribution =  -15232.10828803 Ry
     hartree contribution      =    7661.58765669 Ry
     xc contribution           =    -327.51645055 Ry
     ewald contribution        =    5926.01239311 Ry
     electric field correction =       0.00000059 Ry

     convergence has been achieved in  15 iterations

     negative rho (up, down):  3.275E-03 0.000E+00

     Forces acting on atoms (cartesian axes, Ry/au):

     atom    1 type  1   force =    -0.00002952   -0.00001289    0.01703509
     atom    2 type  1   force =     0.00002881    0.00000717    0.01708776
     atom    3 type  2   force =    -0.00004328    0.00005220   -0.01458901
     atom    4 type  2   force =     0.00003522   -0.00004948   -0.01459302
     atom    5 type  1   force =    -0.00002999   -0.00002362    0.01247753
     atom    6 type  1   force =     0.00001506    0.00002088    0.01245864
     atom    7 type  2   force =    -0.00004567    0.00006500   -0.01697881
     atom    8 type  2   force =     0.00003844   -0.00006603   -0.01698082
     atom    9 type  1   force =     0.00003650    0.00002149    0.00202630
     atom   10 type  1   force =    -0.00001794   -0.00001441    0.00202113
     atom   11 type  2   force =     0.00005573   -0.00004477    0.00001753
     atom   12 type  2   force =    -0.00004337    0.00004446    0.00001767

     Total force =     0.043632     Total SCF correction =     0.019128
     SCF correction compared to forces is large: reduce conv_thr to get better values

     Writing output data file ./Rh2Cd2/Rh2Cd2_beef.save/

     init_run     :     74.80s CPU     85.66s WALL (       1 calls)
     electrons    :   3387.82s CPU   4219.81s WALL (       1 calls)
     forces       :     87.92s CPU     91.75s WALL (       1 calls)

     Called by init_run:
     wfcinit      :     63.60s CPU     73.47s WALL (       1 calls)
     potinit      :      7.45s CPU      7.94s WALL (       1 calls)
     hinit0       :      2.06s CPU      2.14s WALL (       1 calls)

     Called by electrons:
     c_bands      :   3052.53s CPU   3822.51s WALL (      15 calls)
     sum_band     :    302.65s CPU    351.82s WALL (      15 calls)
     v_of_rho     :     19.74s CPU     26.80s WALL (      16 calls)
     newd         :     19.69s CPU     25.22s WALL (      16 calls)
     mix_rho      :      0.45s CPU      0.88s WALL (      15 calls)
     vdW_kernel   :      5.67s CPU      5.75s WALL (       1 calls)

     Called by c_bands:
     init_us_2    :      6.72s CPU      6.78s WALL (    2368 calls)
     cegterg      :   3025.95s CPU   3739.04s WALL (    1110 calls)

     Called by *egterg:
     cdiaghg      :    236.86s CPU    350.36s WALL (    7107 calls)
     h_psi        :   1312.61s CPU   1561.21s WALL (    7181 calls)
     s_psi        :    394.76s CPU    394.91s WALL (    7181 calls)
     g_psi        :      1.38s CPU      1.44s WALL (    5997 calls)

     Called by h_psi:
     h_psi:calbec :    409.88s CPU    454.05s WALL (    7181 calls)
     vloc_psi     :    486.64s CPU    690.58s WALL (    7181 calls)
     add_vuspsi   :    408.23s CPU    408.54s WALL (    7181 calls)

     General routines
     calbec       :    659.65s CPU    718.07s WALL (    8587 calls)
     fft          :      8.40s CPU     15.07s WALL (    1067 calls)
     ffts         :      0.04s CPU      0.14s WALL (      31 calls)
     fftw         :    562.95s CPU    794.85s WALL (  670312 calls)
     interpolate  :      0.16s CPU      0.28s WALL (      16 calls)

     Parallel routines
     fft_scatt_xy :     32.30s CPU     42.67s WALL (  671410 calls)
     fft_scatt_yz :    168.55s CPU    327.55s WALL (  671410 calls)

     PWSCF        :  59m25.63s CPU      1h15m WALL


   This run was terminated on:   2:25:59  11Jul2022            

=------------------------------------------------------------------------------=
   JOB DONE.
=------------------------------------------------------------------------------=
