
     Program PWSCF v.6.6 starts on 25Jun2022 at 13:19: 0 

     This program is part of the open-source Quantum ESPRESSO suite
     for quantum simulation of materials; please cite
         "P. Giannozzi et al., J. Phys.:Condens. Matter 21 395502 (2009);
         "P. Giannozzi et al., J. Phys.:Condens. Matter 29 465901 (2017);
          URL http://www.quantum-espresso.org", 
     in publications or presentations arising from this work. More details at
     http://www.quantum-espresso.org/quote

     Parallel version (MPI), running on    37 processors

     MPI processes distributed on     1 nodes
     R & G space division:  proc/nbgrp/npool/nimage =      37
     Fft bands division:     nmany     =       1
     Reading input from Rh2Hf2.in
Warning: card &CELL ignored
Warning: card / ignored

     Current dimensions of program PWSCF are:
     Max number of different atomic species (ntypx) = 10
     Max number of k-points (npk) =  40000
     Max angular momentum in pseudopotentials (lmaxx) =  3
     Presently stress not available with electric field and gates

     Message from routine cell_base_init:
     DEPRECATED: use true lattice parameter, not A to a.u. conversion factor
     file Rh.pbe-spn-rrkjus_psl.1.0.0.UPF: wavefunction(s)  4S 5S renormalized

     **************************************************************************
     Initializing libbeef V0.1.2 with the BEEF-vdW functional.
     Citation: Wellendorff et al., PRB 85, 235149 (2012).
     **************************************************************************


     IMPORTANT: XC functional enforced from input :
     Exchange-correlation= BEEF-VDW
                           (   1   4  43  14   2   0   0)
     Any further DFT definition will be discarded
     Please, verify this is what you really want


     Subspace diagonalization in iterative solution of the eigenvalue problem:
     a serial algorithm will be used

     Found symmetry operation: I + (  0.5000 -0.5000  0.0000)
     This is a supercell, fractional translations are disabled

     Parallelization info
     --------------------
     sticks:   dense  smooth     PW     G-vecs:    dense   smooth      PW
     Min         127      51     14                29605     7485    1120
     Max         128      52     15                29615     7499    1141
     Sum        4713    1889    533              1095593   277189   41741



     bravais-lattice index     =            0
     lattice parameter (alat)  =       1.8897  a.u.
     unit-cell volume          =    5014.1804 (a.u.)^3
     number of atoms/cell      =           12
     number of atomic types    =            2
     number of electrons       =       174.00
     number of Kohn-Sham states=          104
     kinetic-energy cutoff     =      55.1240  Ry
     charge density cutoff     =     551.2396  Ry
     convergence threshold     =      1.0E-05
     mixing beta               =       0.1000
     number of iterations used =           10  plain     mixing
     Exchange-correlation= BEEF-VDW
                           (   1   4  43  14   2   0   0)

     celldm(1)=   1.889726  celldm(2)=   0.000000  celldm(3)=   0.000000
     celldm(4)=   0.000000  celldm(5)=   0.000000  celldm(6)=   0.000000

     crystal axes: (cart. coord. in units of alat)
               a(1) = (   5.670079   0.000000   0.000000 )  
               a(2) = (   1.973366   5.315601   0.000000 )  
               a(3) = (   0.000000   0.000000  24.652556 )  

     reciprocal axes: (cart. coord. in units 2 pi/alat)
               b(1) = (  0.176364 -0.065474  0.000000 )  
               b(2) = (  0.000000  0.188125  0.000000 )  
               b(3) = (  0.000000  0.000000  0.040564 )  


     PseudoPot. # 1 for Rh read from file:
     ../pseudo/Rh.pbe-spn-rrkjus_psl.1.0.0.UPF
     MD5 check sum: 912a852783f0c9b7bd5e9eb06cc0cc10
     Pseudo is Ultrasoft + core correction, Zval = 17.0
     Generated using "atomic" code by A. Dal Corso v.6.3
     Using radial grid of 1233 points,  6 beta functions with: 
                l(1) =   0
                l(2) =   0
                l(3) =   1
                l(4) =   1
                l(5) =   2
                l(6) =   2
     Q(r) pseudized with 0 coefficients 


     PseudoPot. # 2 for Hf read from file:
     ../pseudo/Hf.pbe-spn-rrkjus_psl.1.0.0.UPF
     MD5 check sum: 9605440c6f839e558204c6a924125fd0
     Pseudo is Ultrasoft + core correction, Zval = 12.0
     Generated using "atomic" code by A. Dal Corso v.6.2.2
     Using radial grid of 1271 points,  6 beta functions with: 
                l(1) =   0
                l(2) =   0
                l(3) =   1
                l(4) =   1
                l(5) =   2
                l(6) =   2
     Q(r) pseudized with 0 coefficients 


     atomic species   valence    mass     pseudopotential
        Rh            17.00   102.90550     Rh( 1.00)
        Hf            12.00   178.49000     Hf( 1.00)

     No symmetry found



   Cartesian axes

     site n.     atom                  positions (alat units)
         1           Rh  tau(   1) = (   0.0000000   0.0000000  10.0000000  )
         2           Rh  tau(   2) = (   3.8217222   2.6578007  10.0000000  )
         3           Hf  tau(   3) = (   2.8350393   0.0000000  10.0000000  )
         4           Hf  tau(   4) = (   0.9866829   2.6578007  10.0000000  )
         5           Rh  tau(   5) = (   5.6700785   3.9432324  12.3262781  )
         6           Rh  tau(   6) = (   1.8483563   1.2854317  12.3262781  )
         7           Hf  tau(   7) = (   2.8350393   3.9432324  12.3262781  )
         8           Hf  tau(   8) = (   4.6833956   1.2854317  12.3262781  )
         9           Rh  tau(   9) = (   3.7533754   2.6102714  14.4439706  )
        10           Rh  tau(  10) = (   7.5751004   5.2680698  14.4439741  )
        11           Hf  tau(  11) = (   6.5926822   2.6132320  14.6566396  )
        12           Hf  tau(  12) = (   4.7443275   5.2710435  14.6566423  )

     number of k points=    74  Fermi-Dirac smearing, width (Ry)=  0.0100
                       cart. coord. in units 2pi/alat
        k(    1) = (   0.0000000   0.0000000   0.0000000), wk =   0.0138889
        k(    2) = (   0.0000000   0.0156771   0.0000000), wk =   0.0277778
        k(    3) = (   0.0000000   0.0313542   0.0000000), wk =   0.0277778
        k(    4) = (   0.0000000   0.0470314   0.0000000), wk =   0.0277778
        k(    5) = (   0.0000000   0.0627085   0.0000000), wk =   0.0277778
        k(    6) = (   0.0000000   0.0783856   0.0000000), wk =   0.0277778
        k(    7) = (   0.0000000  -0.0940627   0.0000000), wk =   0.0138889
        k(    8) = (   0.0146970  -0.0054561   0.0000000), wk =   0.0277778
        k(    9) = (   0.0146970   0.0102210   0.0000000), wk =   0.0277778
        k(   10) = (   0.0146970   0.0258981   0.0000000), wk =   0.0277778
        k(   11) = (   0.0146970   0.0415752   0.0000000), wk =   0.0277778
        k(   12) = (   0.0146970   0.0572524   0.0000000), wk =   0.0277778
        k(   13) = (   0.0146970   0.0729295   0.0000000), wk =   0.0277778
        k(   14) = (   0.0146970  -0.0995189   0.0000000), wk =   0.0277778
        k(   15) = (   0.0146970  -0.0838418   0.0000000), wk =   0.0277778
        k(   16) = (   0.0146970  -0.0681646   0.0000000), wk =   0.0277778
        k(   17) = (   0.0146970  -0.0524875   0.0000000), wk =   0.0277778
        k(   18) = (   0.0146970  -0.0368104   0.0000000), wk =   0.0277778
        k(   19) = (   0.0146970  -0.0211333   0.0000000), wk =   0.0277778
        k(   20) = (   0.0293941  -0.0109123   0.0000000), wk =   0.0277778
        k(   21) = (   0.0293941   0.0047649   0.0000000), wk =   0.0277778
        k(   22) = (   0.0293941   0.0204420   0.0000000), wk =   0.0277778
        k(   23) = (   0.0293941   0.0361191   0.0000000), wk =   0.0277778
        k(   24) = (   0.0293941   0.0517962   0.0000000), wk =   0.0277778
        k(   25) = (   0.0293941   0.0674734   0.0000000), wk =   0.0277778
        k(   26) = (   0.0293941  -0.1049750   0.0000000), wk =   0.0277778
        k(   27) = (   0.0293941  -0.0892979   0.0000000), wk =   0.0277778
        k(   28) = (   0.0293941  -0.0736208   0.0000000), wk =   0.0277778
        k(   29) = (   0.0293941  -0.0579436   0.0000000), wk =   0.0277778
        k(   30) = (   0.0293941  -0.0422665   0.0000000), wk =   0.0277778
        k(   31) = (   0.0293941  -0.0265894   0.0000000), wk =   0.0277778
        k(   32) = (   0.0440911  -0.0163684   0.0000000), wk =   0.0277778
        k(   33) = (   0.0440911  -0.0006913   0.0000000), wk =   0.0277778
        k(   34) = (   0.0440911   0.0149858   0.0000000), wk =   0.0277778
        k(   35) = (   0.0440911   0.0306630   0.0000000), wk =   0.0277778
        k(   36) = (   0.0440911   0.0463401   0.0000000), wk =   0.0277778
        k(   37) = (   0.0440911   0.0620172   0.0000000), wk =   0.0277778
        k(   38) = (   0.0440911  -0.1104311   0.0000000), wk =   0.0277778
        k(   39) = (   0.0440911  -0.0947540   0.0000000), wk =   0.0277778
        k(   40) = (   0.0440911  -0.0790769   0.0000000), wk =   0.0277778
        k(   41) = (   0.0440911  -0.0633998   0.0000000), wk =   0.0277778
        k(   42) = (   0.0440911  -0.0477226   0.0000000), wk =   0.0277778
        k(   43) = (   0.0440911  -0.0320455   0.0000000), wk =   0.0277778
        k(   44) = (   0.0587881  -0.0218245   0.0000000), wk =   0.0277778
        k(   45) = (   0.0587881  -0.0061474   0.0000000), wk =   0.0277778
        k(   46) = (   0.0587881   0.0095297   0.0000000), wk =   0.0277778
        k(   47) = (   0.0587881   0.0252068   0.0000000), wk =   0.0277778
        k(   48) = (   0.0587881   0.0408840   0.0000000), wk =   0.0277778
        k(   49) = (   0.0587881   0.0565611   0.0000000), wk =   0.0277778
        k(   50) = (   0.0587881  -0.1158873   0.0000000), wk =   0.0277778
        k(   51) = (   0.0587881  -0.1002101   0.0000000), wk =   0.0277778
        k(   52) = (   0.0587881  -0.0845330   0.0000000), wk =   0.0277778
        k(   53) = (   0.0587881  -0.0688559   0.0000000), wk =   0.0277778
        k(   54) = (   0.0587881  -0.0531788   0.0000000), wk =   0.0277778
        k(   55) = (   0.0587881  -0.0375017   0.0000000), wk =   0.0277778
        k(   56) = (   0.0734852  -0.0272807   0.0000000), wk =   0.0277778
        k(   57) = (   0.0734852  -0.0116035   0.0000000), wk =   0.0277778
        k(   58) = (   0.0734852   0.0040736   0.0000000), wk =   0.0277778
        k(   59) = (   0.0734852   0.0197507   0.0000000), wk =   0.0277778
        k(   60) = (   0.0734852   0.0354278   0.0000000), wk =   0.0277778
        k(   61) = (   0.0734852   0.0511050   0.0000000), wk =   0.0277778
        k(   62) = (   0.0734852  -0.1213434   0.0000000), wk =   0.0277778
        k(   63) = (   0.0734852  -0.1056663   0.0000000), wk =   0.0277778
        k(   64) = (   0.0734852  -0.0899892   0.0000000), wk =   0.0277778
        k(   65) = (   0.0734852  -0.0743120   0.0000000), wk =   0.0277778
        k(   66) = (   0.0734852  -0.0586349   0.0000000), wk =   0.0277778
        k(   67) = (   0.0734852  -0.0429578   0.0000000), wk =   0.0277778
        k(   68) = (  -0.0881822   0.0327368   0.0000000), wk =   0.0138889
        k(   69) = (  -0.0881822   0.0484139   0.0000000), wk =   0.0277778
        k(   70) = (  -0.0881822   0.0640910   0.0000000), wk =   0.0277778
        k(   71) = (  -0.0881822   0.0797682   0.0000000), wk =   0.0277778
        k(   72) = (  -0.0881822   0.0954453   0.0000000), wk =   0.0277778
        k(   73) = (  -0.0881822   0.1111224   0.0000000), wk =   0.0277778
        k(   74) = (  -0.0881822  -0.0613259   0.0000000), wk =   0.0138889

     Dense  grid:  1095593 G-vectors     FFT dimensions: (  81,  81, 360)

     Smooth grid:   277189 G-vectors     FFT dimensions: (  54,  54, 225)

     Estimated max dynamical RAM per process >     229.13 MB

     Estimated total dynamical RAM >       8.28 GB

     Initial potential from superposition of free atoms

     starting charge  173.98543, renormalised to  174.00000

     negative rho (up, down):  1.177E-03 0.000E+00


     %%%%%%%%%%%%%%%%%%%%%%%%%%%%%%%%%%%%%%%%%%%%%%%%%%%%%%%%%%%%%%%%%%%%%%%%
     %                                                                      %
     % You are using vdW-DF, which was implemented by the Thonhauser group. %
     % Please cite the following two papers that made this development      %
     % possible and the two reviews that describe the various versions:     %
     %                                                                      %
     %   T. Thonhauser et al., PRL 115, 136402 (2015).                      %
     %   T. Thonhauser et al., PRB 76, 125112 (2007).                       %
     %   K. Berland et al., Rep. Prog. Phys. 78, 066501 (2015).             %
     %   D.C. Langreth et al., J. Phys.: Condens. Matter 21, 084203 (2009). %
     %                                                                      %
     %                                                                      %
     % If you are calculating the stress with vdW-DF, please also cite:     %
     %                                                                      %
     %   R. Sabatini et al., J. Phys.: Condens. Matter 24, 424209 (2012).   %
     %                                                                      %
     %%%%%%%%%%%%%%%%%%%%%%%%%%%%%%%%%%%%%%%%%%%%%%%%%%%%%%%%%%%%%%%%%%%%%%%%



     Adding external electric field

     Computed dipole along edir(3) : 
        Dipole                0.0008 Ry au,          0.0019 Debye
        Dipole field          0.0000 Ry au, 

        Potential amp.       -0.0002 Ry
        Total length         45.4219 bohr

     Starting wfcs are  120 randomized atomic wfcs

     total cpu time spent up to now is      122.5 secs

     Self-consistent Calculation

     iteration #  1     ecut=    55.12 Ry     beta= 0.10
     Davidson diagonalization with overlap
     ethr =  1.00E-02,  avg # of iterations =  3.2

     negative rho (up, down):  1.133E-03 0.000E+00

     Adding external electric field

     Computed dipole along edir(3) : 
        Dipole                0.1051 Ry au,          0.2671 Debye
        Dipole field          0.0003 Ry au, 

        Potential amp.       -0.0239 Ry
        Total length         45.4219 bohr


     total cpu time spent up to now is      444.0 secs

     total energy              =   -2122.40741928 Ry
     estimated scf accuracy    <       9.13107359 Ry

     iteration #  2     ecut=    55.12 Ry     beta= 0.10
     Davidson diagonalization with overlap
     ethr =  5.25E-03,  avg # of iterations =  1.3

     negative rho (up, down):  1.068E-03 0.000E+00

     Adding external electric field

     Computed dipole along edir(3) : 
        Dipole               -0.0148 Ry au,         -0.0376 Debye
        Dipole field         -0.0000 Ry au, 

        Potential amp.        0.0034 Ry
        Total length         45.4219 bohr


     total cpu time spent up to now is      671.5 secs

     total energy              =   -2122.33716038 Ry
     estimated scf accuracy    <       2.05599403 Ry

     iteration #  3     ecut=    55.12 Ry     beta= 0.10
     Davidson diagonalization with overlap
     ethr =  1.18E-03,  avg # of iterations =  3.4

     negative rho (up, down):  1.063E-03 0.000E+00

     Adding external electric field

     Computed dipole along edir(3) : 
        Dipole                0.4013 Ry au,          1.0200 Debye
        Dipole field          0.0010 Ry au, 

        Potential amp.       -0.0914 Ry
        Total length         45.4219 bohr


     total cpu time spent up to now is      896.6 secs

     total energy              =   -2122.56719924 Ry
     estimated scf accuracy    <       0.55521781 Ry

     iteration #  4     ecut=    55.12 Ry     beta= 0.10
     Davidson diagonalization with overlap
     ethr =  3.19E-04,  avg # of iterations =  6.0

     negative rho (up, down):  1.063E-03 0.000E+00

     Adding external electric field

     Computed dipole along edir(3) : 
        Dipole                0.0829 Ry au,          0.2106 Debye
        Dipole field          0.0002 Ry au, 

        Potential amp.       -0.0189 Ry
        Total length         45.4219 bohr


     total cpu time spent up to now is     1167.5 secs

     total energy              =   -2122.56974332 Ry
     estimated scf accuracy    <       2.05346746 Ry

     iteration #  5     ecut=    55.12 Ry     beta= 0.10
     Davidson diagonalization with overlap
     ethr =  3.19E-04,  avg # of iterations =  1.6

     negative rho (up, down):  1.150E-03 0.000E+00

     Adding external electric field

     Computed dipole along edir(3) : 
        Dipole                0.1163 Ry au,          0.2956 Debye
        Dipole field          0.0003 Ry au, 

        Potential amp.       -0.0265 Ry
        Total length         45.4219 bohr


     total cpu time spent up to now is     1411.3 secs

     total energy              =   -2122.56321522 Ry
     estimated scf accuracy    <       0.14498298 Ry

     iteration #  6     ecut=    55.12 Ry     beta= 0.10
     Davidson diagonalization with overlap
     ethr =  8.33E-05,  avg # of iterations =  7.5

     negative rho (up, down):  1.092E-03 0.000E+00

     Adding external electric field

     Computed dipole along edir(3) : 
        Dipole                0.0783 Ry au,          0.1990 Debye
        Dipole field          0.0002 Ry au, 

        Potential amp.       -0.0178 Ry
        Total length         45.4219 bohr


     total cpu time spent up to now is     1768.8 secs

     total energy              =   -2122.52999365 Ry
     estimated scf accuracy    <       0.34532240 Ry

     iteration #  7     ecut=    55.12 Ry     beta= 0.10
     Davidson diagonalization with overlap
     ethr =  8.33E-05,  avg # of iterations =  4.2

     negative rho (up, down):  1.201E-03 0.000E+00

     Adding external electric field

     Computed dipole along edir(3) : 
        Dipole                0.1184 Ry au,          0.3009 Debye
        Dipole field          0.0003 Ry au, 

        Potential amp.       -0.0270 Ry
        Total length         45.4219 bohr


     total cpu time spent up to now is     2139.8 secs

     total energy              =   -2122.55651615 Ry
     estimated scf accuracy    <       0.20493090 Ry

     iteration #  8     ecut=    55.12 Ry     beta= 0.10
     Davidson diagonalization with overlap
     ethr =  8.33E-05,  avg # of iterations =  3.4

     negative rho (up, down):  1.187E-03 0.000E+00

     Adding external electric field

     Computed dipole along edir(3) : 
        Dipole                0.1075 Ry au,          0.2732 Debye
        Dipole field          0.0003 Ry au, 

        Potential amp.       -0.0245 Ry
        Total length         45.4219 bohr


     total cpu time spent up to now is     2470.5 secs

     total energy              =   -2122.59673432 Ry
     estimated scf accuracy    <       0.09785097 Ry

     iteration #  9     ecut=    55.12 Ry     beta= 0.10
     Davidson diagonalization with overlap
     ethr =  5.62E-05,  avg # of iterations =  1.0

     negative rho (up, down):  1.204E-03 0.000E+00

     Adding external electric field

     Computed dipole along edir(3) : 
        Dipole                0.0923 Ry au,          0.2345 Debye
        Dipole field          0.0002 Ry au, 

        Potential amp.       -0.0210 Ry
        Total length         45.4219 bohr


     total cpu time spent up to now is     2665.0 secs

     total energy              =   -2122.59017976 Ry
     estimated scf accuracy    <       0.05189541 Ry

     iteration # 10     ecut=    55.12 Ry     beta= 0.10
     Davidson diagonalization with overlap
     ethr =  2.98E-05,  avg # of iterations =  2.0

     negative rho (up, down):  1.191E-03 0.000E+00

     Adding external electric field

     Computed dipole along edir(3) : 
        Dipole                0.0999 Ry au,          0.2539 Debye
        Dipole field          0.0003 Ry au, 

        Potential amp.       -0.0227 Ry
        Total length         45.4219 bohr


     total cpu time spent up to now is     2923.8 secs

     total energy              =   -2122.59424287 Ry
     estimated scf accuracy    <       0.00199432 Ry

     iteration # 11     ecut=    55.12 Ry     beta= 0.10
     Davidson diagonalization with overlap
     c_bands:  1 eigenvalues not converged
     ethr =  1.15E-06,  avg # of iterations =  9.7

     negative rho (up, down):  1.185E-03 0.000E+00

     Adding external electric field

     Computed dipole along edir(3) : 
        Dipole                0.0932 Ry au,          0.2370 Debye
        Dipole field          0.0002 Ry au, 

        Potential amp.       -0.0212 Ry
        Total length         45.4219 bohr


     total cpu time spent up to now is     3520.3 secs

     total energy              =   -2122.59203997 Ry
     estimated scf accuracy    <       0.01745333 Ry

     iteration # 12     ecut=    55.12 Ry     beta= 0.10
     Davidson diagonalization with overlap
     ethr =  1.15E-06,  avg # of iterations =  5.9

     negative rho (up, down):  1.182E-03 0.000E+00

     Adding external electric field

     Computed dipole along edir(3) : 
        Dipole                0.0914 Ry au,          0.2323 Debye
        Dipole field          0.0002 Ry au, 

        Potential amp.       -0.0208 Ry
        Total length         45.4219 bohr


     total cpu time spent up to now is     3845.2 secs

     total energy              =   -2122.59368044 Ry
     estimated scf accuracy    <       0.00348577 Ry

     iteration # 13     ecut=    55.12 Ry     beta= 0.10
     Davidson diagonalization with overlap
     ethr =  1.15E-06,  avg # of iterations =  2.1

     negative rho (up, down):  1.162E-03 0.000E+00

     Adding external electric field

     Computed dipole along edir(3) : 
        Dipole                0.0916 Ry au,          0.2328 Debye
        Dipole field          0.0002 Ry au, 

        Potential amp.       -0.0209 Ry
        Total length         45.4219 bohr


     total cpu time spent up to now is     4276.3 secs

     total energy              =   -2122.59392737 Ry
     estimated scf accuracy    <       0.00019217 Ry

     iteration # 14     ecut=    55.12 Ry     beta= 0.10
     Davidson diagonalization with overlap
     ethr =  1.10E-07,  avg # of iterations =  4.0

     negative rho (up, down):  1.149E-03 0.000E+00

     Adding external electric field

     Computed dipole along edir(3) : 
        Dipole                0.0918 Ry au,          0.2334 Debye
        Dipole field          0.0002 Ry au, 

        Potential amp.       -0.0209 Ry
        Total length         45.4219 bohr


     total cpu time spent up to now is     4707.7 secs

     total energy              =   -2122.59394559 Ry
     estimated scf accuracy    <       0.00006215 Ry

     iteration # 15     ecut=    55.12 Ry     beta= 0.10
     Davidson diagonalization with overlap
     ethr =  3.57E-08,  avg # of iterations =  3.8

     negative rho (up, down):  1.137E-03 0.000E+00

     Adding external electric field

     Computed dipole along edir(3) : 
        Dipole                0.0924 Ry au,          0.2349 Debye
        Dipole field          0.0002 Ry au, 

        Potential amp.       -0.0210 Ry
        Total length         45.4219 bohr


     total cpu time spent up to now is     4912.5 secs

     total energy              =   -2122.59394948 Ry
     estimated scf accuracy    <       0.00006142 Ry

     iteration # 16     ecut=    55.12 Ry     beta= 0.10
     Davidson diagonalization with overlap
     ethr =  3.53E-08,  avg # of iterations =  1.7

     negative rho (up, down):  1.128E-03 0.000E+00

     Adding external electric field

     Computed dipole along edir(3) : 
        Dipole                0.0920 Ry au,          0.2339 Debye
        Dipole field          0.0002 Ry au, 

        Potential amp.       -0.0210 Ry
        Total length         45.4219 bohr


     total cpu time spent up to now is     5085.5 secs

     total energy              =   -2122.59394421 Ry
     estimated scf accuracy    <       0.00003528 Ry

     iteration # 17     ecut=    55.12 Ry     beta= 0.10
     Davidson diagonalization with overlap
     ethr =  2.03E-08,  avg # of iterations =  3.6

     negative rho (up, down):  1.089E-03 0.000E+00

     Adding external electric field

     Computed dipole along edir(3) : 
        Dipole                0.0924 Ry au,          0.2348 Debye
        Dipole field          0.0002 Ry au, 

        Potential amp.       -0.0210 Ry
        Total length         45.4219 bohr


     total cpu time spent up to now is     5288.1 secs

     End of self-consistent calculation

          k = 0.0000 0.0000 0.0000 ( 34661 PWs)   bands (ev):

   -76.8293 -76.8263 -76.4763 -76.4733 -76.2799 -76.2770 -61.1977 -61.1837
   -61.1652 -61.1512 -60.6267 -60.6122 -44.7449 -44.7033 -44.6997 -44.6904
   -44.6791 -44.6736 -44.4000 -44.3944 -44.3894 -44.3348 -44.2898 -44.2856
   -44.2617 -44.2562 -44.1752 -44.1219 -44.0396 -44.0351 -29.7735 -29.7457
   -29.7278 -29.6987 -29.6930 -29.6745 -29.5752 -29.5517 -29.5393 -29.5149
   -29.3799 -29.3617 -29.2856 -29.1215 -29.0953 -29.0867 -29.0472 -28.9592
    -4.9836  -3.3455  -2.9312  -2.7275  -2.6343  -2.5847  -2.4732  -2.3492
    -2.2936  -2.2827  -1.8492  -1.7000  -1.4380  -1.2937  -1.1871  -1.1273
    -1.0366  -0.9359  -0.8435  -0.8344  -0.6536  -0.6253  -0.4446  -0.1095
    -0.0787   0.0597   0.0872   0.1607   0.6096   0.7187   0.7392   1.0218
     1.0914   1.2376   1.9347   2.0938   2.3288   2.3442   2.5373   2.7076
     2.8488   2.9879   3.0182   3.2504   3.3417   3.4467   3.4959   3.5273
     3.5914   3.8462   4.1392   4.2885   4.4336   4.7442   4.7838   4.8008

          k = 0.0000 0.0157 0.0000 ( 34709 PWs)   bands (ev):

   -76.8293 -76.8264 -76.4762 -76.4734 -76.2799 -76.2771 -61.1974 -61.1839
   -61.1650 -61.1515 -60.6265 -60.6125 -44.7439 -44.7033 -44.6997 -44.6912
   -44.6789 -44.6736 -44.3998 -44.3945 -44.3884 -44.3357 -44.2898 -44.2857
   -44.2616 -44.2562 -44.1743 -44.1227 -44.0395 -44.0352 -29.7730 -29.7462
   -29.7274 -29.6994 -29.6880 -29.6696 -29.5752 -29.5524 -29.5396 -29.5160
   -29.3856 -29.3675 -29.2804 -29.1216 -29.0962 -29.0860 -29.0478 -28.9652
    -4.9314  -3.2951  -2.8863  -2.7115  -2.6109  -2.5485  -2.4525  -2.3288
    -2.2697  -2.2497  -1.8275  -1.6628  -1.4265  -1.2606  -1.1706  -1.1234
    -1.0227  -0.9184  -0.8584  -0.8307  -0.6522  -0.6016  -0.4414  -0.1167
    -0.0794   0.0024   0.0262   0.2323   0.5798   0.6705   0.7016   1.0220
     1.0351   1.0945   1.7593   2.0747   2.1208   2.5155   2.6891   2.7455
     2.7958   2.9668   3.0039   3.1874   3.3466   3.3701   3.4418   3.5374
     3.5821   3.8423   4.0011   4.2040   4.4163   4.6902   4.7816   4.8085

          k = 0.0000 0.0314 0.0000 ( 34676 PWs)   bands (ev):

   -76.8291 -76.8265 -76.4761 -76.4735 -76.2797 -76.2772 -61.1968 -61.1847
   -61.1643 -61.1522 -60.6258 -60.6132 -44.7411 -44.7031 -44.6999 -44.6939
   -44.6784 -44.6736 -44.3993 -44.3945 -44.3856 -44.3383 -44.2896 -44.2859
   -44.2611 -44.2563 -44.1715 -44.1253 -44.0393 -44.0354 -29.7718 -29.7477
   -29.7261 -29.7010 -29.6734 -29.6551 -29.5749 -29.5546 -29.5403 -29.5190
   -29.4023 -29.3843 -29.2652 -29.1216 -29.0988 -29.0837 -29.0496 -28.9827
    -4.7780  -3.1493  -2.7571  -2.6894  -2.5469  -2.4411  -2.3787  -2.2696
    -2.2023  -2.1526  -1.7817  -1.5526  -1.3777  -1.1672  -1.1238  -1.1142
    -0.9829  -0.8983  -0.8674  -0.8259  -0.6581  -0.5212  -0.4341  -0.1795
    -0.1267  -0.0676  -0.0220   0.2884   0.4005   0.5105   0.6538   0.8533
     0.9711   1.0277   1.2825   1.8142   2.3545   2.4103   2.5811   2.6104
     2.9386   2.9719   2.9896   3.0943   3.1348   3.3546   3.3900   3.5546
     3.6270   3.7668   3.8130   4.0161   4.4077   4.5184   4.6585   4.7385

          k = 0.0000 0.0470 0.0000 ( 34692 PWs)   bands (ev):

   -76.8289 -76.8268 -76.4759 -76.4737 -76.2795 -76.2774 -61.1957 -61.1858
   -61.1633 -61.1533 -60.6247 -60.6144 -44.7366 -44.7027 -44.7001 -44.6981
   -44.6776 -44.6737 -44.3986 -44.3947 -44.3811 -44.3425 -44.2893 -44.2863
   -44.2603 -44.2564 -44.1671 -44.1294 -44.0390 -44.0357 -29.7697 -29.7501
   -29.7242 -29.7037 -29.6500 -29.6318 -29.5744 -29.5578 -29.5411 -29.5234
   -29.4286 -29.4107 -29.2409 -29.1213 -29.1026 -29.0803 -29.0525 -29.0102
    -4.5324  -2.9267  -2.7216  -2.5614  -2.4555  -2.2680  -2.2416  -2.1793
    -2.1055  -1.9979  -1.7441  -1.3757  -1.2895  -1.1056  -1.0652  -1.0184
    -0.9560  -0.9222  -0.8308  -0.7926  -0.6566  -0.4285  -0.3978  -0.2992
    -0.1988  -0.1943   0.0158   0.0162   0.2613   0.4484   0.5924   0.6336
     0.7990   0.8988   1.0549   1.4863   2.1503   2.1852   2.4821   2.5684
     2.7685   2.9422   2.9805   2.9850   3.0476   3.3960   3.4333   3.5188
     3.5875   3.7298   3.7509   3.8601   4.3162   4.3509   4.4632   4.5706

          k = 0.0000 0.0627 0.0000 ( 34682 PWs)   bands (ev):

   -76.8286 -76.8271 -76.4755 -76.4741 -76.2792 -76.2777 -61.1943 -61.1873
   -61.1618 -61.1548 -60.6232 -60.6160 -44.7308 -44.7036 -44.7023 -44.7005
   -44.6767 -44.6739 -44.3977 -44.3950 -44.3753 -44.3481 -44.2888 -44.2867
   -44.2594 -44.2566 -44.1615 -44.1348 -44.0385 -44.0362 -29.7670 -29.7532
   -29.7215 -29.7070 -29.6192 -29.6012 -29.5734 -29.5613 -29.5413 -29.5283
   -29.4624 -29.4446 -29.2088 -29.1205 -29.1069 -29.0759 -29.0563 -29.0453
    -4.2113  -2.8563  -2.6654  -2.3575  -2.3314  -2.0777  -2.0755  -2.0378
    -2.0051  -1.7979  -1.7132  -1.2043  -1.1485  -1.1009  -1.0279  -1.0145
    -0.8858  -0.8573  -0.8515  -0.7267  -0.6122  -0.4627  -0.3721  -0.3378
    -0.3042  -0.2830  -0.1981   0.0215   0.1803   0.2764   0.3679   0.5265
     0.5556   0.7619   1.0980   1.1292   1.7624   1.9731   2.2825   2.3520
     2.7896   2.8419   2.8998   2.9663   3.0850   3.3989   3.4264   3.5089
     3.5246   3.6934   3.7622   3.7941   4.0349   4.2426   4.2878   4.3179

          k = 0.0000 0.0784 0.0000 ( 34647 PWs)   bands (ev):

   -76.8282 -76.8274 -76.4752 -76.4744 -76.2788 -76.2781 -61.1926 -61.1890
   -61.1602 -61.1565 -60.6215 -60.6177 -44.7242 -44.7100 -44.7019 -44.7009
   -44.6758 -44.6743 -44.3969 -44.3954 -44.3686 -44.3545 -44.2884 -44.2873
   -44.2585 -44.2571 -44.1549 -44.1411 -44.0379 -44.0368 -29.7638 -29.7567
   -29.7182 -29.7107 -29.5835 -29.5717 -29.5659 -29.5634 -29.5404 -29.5327
   -29.5009 -29.4831 -29.1709 -29.1192 -29.1111 -29.0853 -29.0709 -29.0608
    -3.8401  -3.1104  -2.4304  -2.2875  -2.1151  -1.9812  -1.9591  -1.9364
    -1.7969  -1.6688  -1.5758  -1.1666  -1.1156  -1.0751  -1.0552  -0.9652
    -0.9093  -0.8272  -0.8154  -0.6654  -0.5600  -0.5367  -0.4992  -0.3868
    -0.3250  -0.2362  -0.0467  -0.0268  -0.0130   0.1000   0.2204   0.2577
     0.5347   0.7038   0.8196   1.2715   1.3508   1.8442   1.9987   2.2253
     2.7303   2.7680   2.8789   2.9572   3.1617   3.3040   3.4942   3.5099
     3.5769   3.6480   3.6943   3.7599   3.8460   4.0547   4.0574   4.1321

          k = 0.0000-0.0941 0.0000 ( 34630 PWs)   bands (ev):

   -76.8278 -76.8278 -76.4748 -76.4748 -76.2785 -76.2785 -61.1908 -61.1908
   -61.1584 -61.1584 -60.6196 -60.6196 -44.7171 -44.7171 -44.7014 -44.7014
   -44.6750 -44.6750 -44.3961 -44.3961 -44.3615 -44.3615 -44.2878 -44.2878
   -44.2577 -44.2577 -44.1479 -44.1479 -44.0374 -44.0374 -29.7603 -29.7603
   -29.7145 -29.7145 -29.5697 -29.5697 -29.5413 -29.5412 -29.5392 -29.5392
   -29.5225 -29.5225 -29.1306 -29.1306 -29.1135 -29.1135 -29.0658 -29.0658
    -3.4563  -3.4563  -2.2970  -2.2970  -1.9728  -1.9728  -1.9283  -1.9283
    -1.6524  -1.6524  -1.3374  -1.3374  -1.1313  -1.1313  -1.0300  -1.0300
    -0.8464  -0.8464  -0.6487  -0.6487  -0.5921  -0.5921  -0.4818  -0.4818
    -0.2229  -0.2229  -0.0986  -0.0986   0.0519   0.0519   0.1375   0.1375
     0.5455   0.5455   0.9921   0.9921   1.5270   1.5270   2.0847   2.0847
     2.6931   2.6931   2.9354   2.9354   3.2299   3.2299   3.5229   3.5229
     3.6134   3.6134   3.7227   3.7227   3.8245   3.8245   4.0392   4.0393

          k = 0.0147-0.0055 0.0000 ( 34709 PWs)   bands (ev):

   -76.8293 -76.8264 -76.4762 -76.4734 -76.2799 -76.2771 -61.1974 -61.1839
   -61.1650 -61.1515 -60.6265 -60.6125 -44.7439 -44.7033 -44.6997 -44.6912
   -44.6789 -44.6736 -44.3998 -44.3945 -44.3884 -44.3357 -44.2898 -44.2857
   -44.2616 -44.2562 -44.1743 -44.1227 -44.0395 -44.0352 -29.7730 -29.7462
   -29.7274 -29.6994 -29.6880 -29.6696 -29.5752 -29.5524 -29.5396 -29.5160
   -29.3856 -29.3675 -29.2804 -29.1216 -29.0962 -29.0860 -29.0478 -28.9652
    -4.9314  -3.2951  -2.8863  -2.7115  -2.6109  -2.5485  -2.4525  -2.3288
    -2.2697  -2.2497  -1.8275  -1.6628  -1.4265  -1.2606  -1.1706  -1.1234
    -1.0227  -0.9184  -0.8584  -0.8307  -0.6522  -0.6016  -0.4414  -0.1167
    -0.0794   0.0024   0.0262   0.2323   0.5798   0.6705   0.7016   1.0220
     1.0351   1.0945   1.7593   2.0747   2.1208   2.5155   2.6891   2.7455
     2.7958   2.9668   3.0039   3.1874   3.3466   3.3701   3.4418   3.5374
     3.5821   3.8423   4.0011   4.2040   4.4163   4.6902   4.7816   4.8085

          k = 0.0147 0.0102 0.0000 ( 34711 PWs)   bands (ev):

   -76.8293 -76.8263 -76.4763 -76.4733 -76.2799 -76.2770 -61.1977 -61.1837
   -61.1653 -61.1512 -60.6268 -60.6122 -44.7447 -44.7034 -44.6996 -44.6903
   -44.6789 -44.6735 -44.3998 -44.3943 -44.3892 -44.3348 -44.2898 -44.2857
   -44.2615 -44.2561 -44.1751 -44.1218 -44.0396 -44.0351 -29.7738 -29.7454
   -29.7282 -29.6989 -29.6938 -29.6753 -29.5761 -29.5515 -29.5415 -29.5160
   -29.3801 -29.3620 -29.2863 -29.1229 -29.0959 -29.0857 -29.0478 -28.9595
    -4.9153  -3.2820  -2.8826  -2.6922  -2.5932  -2.5555  -2.4363  -2.3182
    -2.2595  -2.2491  -1.8148  -1.6680  -1.4588  -1.2139  -1.1811  -1.0833
    -1.0199  -0.9160  -0.8405  -0.8333  -0.6378  -0.5969  -0.4024  -0.0826
    -0.0822   0.0349   0.0796   0.1521   0.6141   0.6539   0.7606   1.0235
     1.0569   1.1482   1.9010   2.1073   2.2434   2.3173   2.3975   2.7201
     2.7209   2.8779   2.8998   3.0864   3.2499   3.3608   3.4342   3.4724
     3.6099   3.7642   3.8555   4.3040   4.5667   4.6971   4.7633   4.8574

          k = 0.0147 0.0259 0.0000 ( 34691 PWs)   bands (ev):

   -76.8293 -76.8264 -76.4762 -76.4734 -76.2799 -76.2771 -61.1975 -61.1840
   -61.1651 -61.1515 -60.6265 -60.6125 -44.7436 -44.7033 -44.6996 -44.6912
   -44.6784 -44.6734 -44.3994 -44.3943 -44.3881 -44.3357 -44.2897 -44.2858
   -44.2611 -44.2560 -44.1740 -44.1227 -44.0395 -44.0352 -29.7737 -29.7457
   -29.7281 -29.6996 -29.6895 -29.6711 -29.5770 -29.5521 -29.5437 -29.5180
   -29.3860 -29.3679 -29.2818 -29.1241 -29.0972 -29.0841 -29.0490 -28.9657
    -4.7968  -3.1716  -2.7937  -2.6567  -2.5339  -2.4909  -2.3706  -2.2685
    -2.2044  -2.1837  -1.7729  -1.5999  -1.4406  -1.1603  -1.1228  -1.0393
    -0.9904  -0.8781  -0.8479  -0.8344  -0.6380  -0.5312  -0.3619  -0.1195
    -0.0503  -0.0164   0.0016   0.2148   0.5802   0.5863   0.6792   0.9355
     1.0223   1.0316   1.6565   2.0426   2.0974   2.2157   2.5329   2.5685
     2.6538   2.8129   2.8329   3.0024   3.0375   3.2897   3.3806   3.4296
     3.5720   3.6667   3.7180   4.2116   4.5683   4.6066   4.7077   4.7834

          k = 0.0147 0.0416 0.0000 ( 34693 PWs)   bands (ev):

   -76.8291 -76.8265 -76.4761 -76.4735 -76.2797 -76.2772 -61.1968 -61.1847
   -61.1644 -61.1522 -60.6259 -60.6132 -44.7407 -44.7032 -44.6997 -44.6938
   -44.6778 -44.6734 -44.3988 -44.3943 -44.3852 -44.3383 -44.2895 -44.2860
   -44.2605 -44.2560 -44.1711 -44.1253 -44.0393 -44.0354 -29.7728 -29.7471
   -29.7270 -29.7013 -29.6754 -29.6571 -29.5776 -29.5542 -29.5455 -29.5214
   -29.4027 -29.3847 -29.2671 -29.1248 -29.1000 -29.0812 -29.0514 -28.9833
    -4.5834  -2.9781  -2.6625  -2.6336  -2.4460  -2.3558  -2.2380  -2.1860
    -2.0894  -2.0863  -1.7390  -1.4618  -1.3646  -1.1189  -1.0043  -0.9960
    -0.9313  -0.8732  -0.8489  -0.8077  -0.6452  -0.4132  -0.3350  -0.1963
    -0.1463  -0.1070   0.0411   0.2506   0.3336   0.5017   0.5094   0.7885
     0.9149   1.0673   1.1973   1.6736   1.9422   2.2275   2.3812   2.4933
     2.5240   2.7756   2.8543   2.8779   2.9616   3.2120   3.3857   3.3897
     3.5153   3.5653   3.6367   4.0789   4.4054   4.5284   4.5485   4.6191

          k = 0.0147 0.0573 0.0000 ( 34658 PWs)   bands (ev):

   -76.8289 -76.8268 -76.4758 -76.4737 -76.2795 -76.2774 -61.1957 -61.1858
   -61.1633 -61.1534 -60.6248 -60.6144 -44.7362 -44.7029 -44.6999 -44.6981
   -44.6769 -44.6735 -44.3980 -44.3945 -44.3807 -44.3426 -44.2892 -44.2864
   -44.2597 -44.2562 -44.1667 -44.1294 -44.0389 -44.0358 -29.7711 -29.7493
   -29.7250 -29.7037 -29.6522 -29.6341 -29.5776 -29.5571 -29.5462 -29.5254
   -29.4288 -29.4109 -29.2429 -29.1248 -29.1036 -29.0773 -29.0547 -29.0105
    -4.2885  -2.7579  -2.7316  -2.4276  -2.3443  -2.1571  -2.0835  -2.0681
    -1.9810  -1.9248  -1.7116  -1.2743  -1.2620  -1.0866  -0.9936  -0.9215
    -0.8992  -0.8718  -0.8182  -0.7274  -0.6220  -0.3756  -0.2857  -0.2702
    -0.2273  -0.1699  -0.0506   0.0759   0.1849   0.3942   0.4873   0.5141
     0.7241   0.9541   1.1458   1.1906   1.5862   2.0743   2.2118   2.3130
     2.5248   2.7334   2.7887   2.8841   2.9619   3.2037   3.3504   3.3995
     3.4674   3.5554   3.6107   3.9743   4.1689   4.2514   4.3319   4.4246

          k = 0.0147 0.0729 0.0000 ( 34666 PWs)   bands (ev):

   -76.8286 -76.8271 -76.4755 -76.4741 -76.2792 -76.2777 -61.1943 -61.1873
   -61.1619 -61.1548 -60.6233 -60.6159 -44.7305 -44.7037 -44.7025 -44.7002
   -44.6761 -44.6739 -44.3972 -44.3949 -44.3749 -44.3481 -44.2887 -44.2869
   -44.2588 -44.2566 -44.1610 -44.1348 -44.0385 -44.0362 -29.7685 -29.7522
   -29.7221 -29.7068 -29.6213 -29.6033 -29.5769 -29.5604 -29.5455 -29.5293
   -29.4622 -29.4444 -29.2107 -29.1237 -29.1073 -29.0727 -29.0589 -29.0454
    -3.9334  -2.9690  -2.4853  -2.2552  -2.2137  -1.9938  -1.9313  -1.9021
    -1.9017  -1.7335  -1.6636  -1.2230  -1.0975  -1.0316  -1.0138  -0.9609
    -0.8891  -0.8383  -0.8140  -0.6593  -0.5482  -0.4826  -0.3649  -0.3638
    -0.2240  -0.2004  -0.0426   0.0223   0.0964   0.1439   0.2810   0.4138
     0.4813   0.7642   0.9733   1.1330   1.3550   1.7909   2.0623   2.1214
     2.6174   2.6734   2.8383   2.8831   3.0045   3.1981   3.3342   3.4364
     3.4392   3.5755   3.6655   3.8931   3.9525   4.0189   4.1280   4.2161

          k = 0.0147-0.0995 0.0000 ( 34642 PWs)   bands (ev):

   -76.8282 -76.8274 -76.4752 -76.4744 -76.2788 -76.2781 -61.1926 -61.1890
   -61.1602 -61.1565 -60.6216 -60.6177 -44.7238 -44.7102 -44.7021 -44.7007
   -44.6753 -44.6744 -44.3965 -44.3955 -44.3683 -44.3547 -44.2882 -44.2874
   -44.2581 -44.2572 -44.1546 -44.1412 -44.0379 -44.0368 -29.7654 -29.7556
   -29.7185 -29.7102 -29.5850 -29.5751 -29.5669 -29.5631 -29.5430 -29.5322
   -29.5003 -29.4825 -29.1723 -29.1214 -29.1107 -29.0850 -29.0678 -29.0636
    -3.5497  -3.2857  -2.3131  -2.2224  -2.0474  -1.9326  -1.9001  -1.8823
    -1.6751  -1.6182  -1.5317  -1.2341  -1.1596  -1.0562  -0.9849  -0.9630
    -0.9282  -0.7781  -0.7110  -0.6485  -0.5836  -0.5328  -0.4761  -0.4735
    -0.2134  -0.1759  -0.0871  -0.0824   0.0467   0.0876   0.1345   0.1512
     0.4715   0.5812   0.8104   1.1349   1.4700   1.5722   1.9359   2.0868
     2.6201   2.7740   2.8293   2.9763   3.0734   3.2187   3.2983   3.4846
     3.5393   3.6738   3.7083   3.8097   3.9006   3.9120   3.9361   4.1190

          k = 0.0147-0.0838 0.0000 ( 34631 PWs)   bands (ev):

   -76.8278 -76.8278 -76.4748 -76.4748 -76.2785 -76.2784 -61.1908 -61.1908
   -61.1584 -61.1584 -60.6197 -60.6196 -44.7173 -44.7168 -44.7016 -44.7012
   -44.6752 -44.6747 -44.3963 -44.3959 -44.3618 -44.3613 -44.2880 -44.2877
   -44.2579 -44.2574 -44.1482 -44.1477 -44.0374 -44.0373 -29.7617 -29.7593
   -29.7146 -29.7138 -29.5724 -29.5681 -29.5425 -29.5410 -29.5389 -29.5370
   -29.5237 -29.5220 -29.1309 -29.1296 -29.1150 -29.1128 -29.0687 -29.0630
    -3.6614  -3.1825  -2.3043  -2.2645  -2.0027  -1.9916  -1.9296  -1.9291
    -1.6944  -1.6250  -1.3769  -1.2473  -1.1858  -1.1077  -1.0805  -0.9216
    -0.8538  -0.8151  -0.7008  -0.6627  -0.6084  -0.5717  -0.5174  -0.4047
    -0.3937  -0.3035  -0.1000  -0.0859  -0.0613   0.0847   0.1073   0.2532
     0.5554   0.5621   0.6609   1.2197   1.4695   1.7761   1.9253   2.1386
     2.7495   2.8465   2.8752   3.0301   3.1590   3.2883   3.3419   3.5898
     3.6234   3.6664   3.6964   3.8232   3.8556   3.9668   4.0744   4.1369

          k = 0.0147-0.0682 0.0000 ( 34661 PWs)   bands (ev):

   -76.8282 -76.8274 -76.4752 -76.4744 -76.2788 -76.2781 -61.1926 -61.1890
   -61.1601 -61.1565 -60.6214 -60.6178 -44.7244 -44.7099 -44.7017 -44.7011
   -44.6762 -44.6742 -44.3972 -44.3954 -44.3689 -44.3544 -44.2885 -44.2871
   -44.2589 -44.2570 -44.1552 -44.1409 -44.0380 -44.0367 -29.7629 -29.7579
   -29.7173 -29.7105 -29.5817 -29.5700 -29.5673 -29.5630 -29.5367 -29.5325
   -29.5016 -29.4839 -29.1695 -29.1169 -29.1117 -29.0860 -29.0737 -29.0584
    -4.0418  -2.8885  -2.5137  -2.3164  -2.1832  -2.0990  -2.0239  -1.9854
    -1.8985  -1.6477  -1.6106  -1.1875  -1.1243  -1.1193  -0.9893  -0.9646
    -0.9034  -0.8346  -0.8036  -0.7270  -0.5892  -0.5353  -0.5253  -0.4811
    -0.3992  -0.3030  -0.2217  -0.0620   0.0623   0.1259   0.2763   0.3758
     0.5645   0.5991   0.9821   1.0786   1.7409   1.8830   2.2075   2.3103
     2.8563   2.9667   2.9770   2.9903   3.3145   3.3157   3.4438   3.4891
     3.6035   3.7032   3.7640   3.9236   3.9914   4.0454   4.3033   4.4259

          k = 0.0147-0.0525 0.0000 ( 34690 PWs)   bands (ev):

   -76.8286 -76.8271 -76.4755 -76.4741 -76.2792 -76.2777 -61.1942 -61.1873
   -61.1618 -61.1548 -60.6231 -60.6160 -44.7311 -44.7035 -44.7022 -44.7007
   -44.6772 -44.6740 -44.3981 -44.3950 -44.3756 -44.3480 -44.2889 -44.2866
   -44.2598 -44.2567 -44.1618 -44.1347 -44.0385 -44.0362 -29.7662 -29.7541
   -29.7205 -29.7067 -29.6176 -29.5995 -29.5718 -29.5631 -29.5372 -29.5271
   -29.4626 -29.4448 -29.2073 -29.1181 -29.1067 -29.0783 -29.0544 -29.0454
    -4.3839  -2.7815  -2.7148  -2.4184  -2.4129  -2.2514  -2.1395  -2.1224
    -2.0794  -1.8453  -1.6801  -1.2341  -1.1956  -1.1843  -1.0478  -1.0181
    -0.9736  -0.8817  -0.7954  -0.7648  -0.6397  -0.5089  -0.4101  -0.3994
    -0.3297  -0.2958  -0.2217  -0.0316   0.1737   0.3563   0.4543   0.5951
     0.6419   0.6498   1.0141   1.3847   1.8615   2.2897   2.3261   2.6814
     2.8835   2.9472   3.0934   3.1156   3.2515   3.3895   3.4701   3.5319
     3.5326   3.7274   3.9523   3.9778   4.0748   4.1784   4.4403   4.5455

          k = 0.0147-0.0368 0.0000 ( 34667 PWs)   bands (ev):

   -76.8289 -76.8268 -76.4759 -76.4737 -76.2795 -76.2774 -61.1957 -61.1858
   -61.1632 -61.1533 -60.6246 -60.6144 -44.7368 -44.7027 -44.7003 -44.6981
   -44.6780 -44.6738 -44.3989 -44.3948 -44.3813 -44.3425 -44.2893 -44.2862
   -44.2607 -44.2565 -44.1674 -44.1294 -44.0390 -44.0357 -29.7691 -29.7507
   -29.7234 -29.7034 -29.6487 -29.6305 -29.5731 -29.5587 -29.5375 -29.5219
   -29.4285 -29.4106 -29.2397 -29.1193 -29.1020 -29.0821 -29.0512 -29.0099
    -4.6577  -3.0290  -2.6663  -2.6384  -2.5099  -2.3750  -2.3280  -2.2300
    -2.1745  -2.0377  -1.7297  -1.4376  -1.2848  -1.1741  -1.1735  -1.0549
    -0.9759  -0.9469  -0.8290  -0.7999  -0.6458  -0.5048  -0.4956  -0.2883
    -0.1756  -0.1591  -0.0438   0.0434   0.2605   0.4784   0.6972   0.7049
     0.7728   0.9330   1.0017   1.6246   2.2515   2.4626   2.5631   2.6576
     2.9660   3.0997   3.1636   3.1926   3.2210   3.3662   3.4770   3.5414
     3.6069   3.7215   3.9683   4.0186   4.1584   4.3700   4.5170   4.7617

          k = 0.0147-0.0211 0.0000 ( 34699 PWs)   bands (ev):

   -76.8291 -76.8265 -76.4761 -76.4735 -76.2797 -76.2772 -61.1968 -61.1847
   -61.1643 -61.1522 -60.6258 -60.6132 -44.7412 -44.7030 -44.6999 -44.6939
   -44.6786 -44.6737 -44.3995 -44.3946 -44.3857 -44.3383 -44.2896 -44.2859
   -44.2613 -44.2564 -44.1717 -44.1253 -44.0393 -44.0354 -29.7715 -29.7480
   -29.7257 -29.7009 -29.6727 -29.6544 -29.5742 -29.5549 -29.5383 -29.5180
   -29.4022 -29.3841 -29.2646 -29.1204 -29.0984 -29.0847 -29.0489 -28.9825
    -4.8440  -3.2080  -2.8020  -2.6920  -2.5808  -2.4710  -2.4355  -2.2985
    -2.2430  -2.1747  -1.7917  -1.5845  -1.3632  -1.2552  -1.1539  -1.1268
    -0.9974  -0.9081  -0.8876  -0.8153  -0.6461  -0.5794  -0.4728  -0.1693
    -0.1200  -0.0499  -0.0469   0.2935   0.4131   0.5136   0.7169   0.8757
     0.9946   1.0123   1.3170   1.8482   2.3906   2.5857   2.6031   2.6815
     3.0223   3.1033   3.1894   3.1929   3.2165   3.3176   3.4090   3.5153
     3.7277   3.9046   3.9483   4.0044   4.2474   4.5368   4.6989   4.7762

          k = 0.0294-0.0109 0.0000 ( 34676 PWs)   bands (ev):

   -76.8291 -76.8265 -76.4761 -76.4735 -76.2797 -76.2772 -61.1968 -61.1847
   -61.1643 -61.1522 -60.6258 -60.6132 -44.7411 -44.7031 -44.6999 -44.6939
   -44.6784 -44.6736 -44.3993 -44.3945 -44.3856 -44.3383 -44.2896 -44.2859
   -44.2611 -44.2563 -44.1715 -44.1253 -44.0393 -44.0354 -29.7718 -29.7477
   -29.7261 -29.7010 -29.6734 -29.6551 -29.5749 -29.5546 -29.5403 -29.5190
   -29.4023 -29.3843 -29.2652 -29.1216 -29.0988 -29.0837 -29.0496 -28.9827
    -4.7780  -3.1493  -2.7571  -2.6894  -2.5469  -2.4411  -2.3787  -2.2696
    -2.2023  -2.1526  -1.7817  -1.5526  -1.3777  -1.1672  -1.1238  -1.1142
    -0.9829  -0.8983  -0.8674  -0.8259  -0.6581  -0.5212  -0.4341  -0.1795
    -0.1267  -0.0676  -0.0220   0.2884   0.4005   0.5105   0.6538   0.8533
     0.9711   1.0277   1.2825   1.8142   2.3545   2.4103   2.5811   2.6104
     2.9386   2.9719   2.9896   3.0943   3.1348   3.3546   3.3900   3.5546
     3.6270   3.7668   3.8130   4.0161   4.4077   4.5184   4.6585   4.7385

          k = 0.0294 0.0048 0.0000 ( 34691 PWs)   bands (ev):

   -76.8293 -76.8264 -76.4762 -76.4734 -76.2799 -76.2771 -61.1975 -61.1840
   -61.1651 -61.1515 -60.6265 -60.6125 -44.7436 -44.7033 -44.6996 -44.6912
   -44.6784 -44.6734 -44.3994 -44.3943 -44.3881 -44.3357 -44.2897 -44.2858
   -44.2611 -44.2560 -44.1740 -44.1227 -44.0395 -44.0352 -29.7737 -29.7457
   -29.7281 -29.6996 -29.6895 -29.6711 -29.5770 -29.5521 -29.5437 -29.5180
   -29.3860 -29.3679 -29.2818 -29.1241 -29.0972 -29.0841 -29.0490 -28.9657
    -4.7968  -3.1716  -2.7937  -2.6567  -2.5339  -2.4909  -2.3706  -2.2685
    -2.2044  -2.1837  -1.7729  -1.5999  -1.4406  -1.1603  -1.1228  -1.0393
    -0.9904  -0.8781  -0.8479  -0.8344  -0.6380  -0.5312  -0.3619  -0.1195
    -0.0503  -0.0164   0.0016   0.2148   0.5802   0.5863   0.6792   0.9355
     1.0223   1.0316   1.6565   2.0426   2.0974   2.2157   2.5329   2.5685
     2.6538   2.8129   2.8329   3.0024   3.0375   3.2897   3.3806   3.4296
     3.5720   3.6667   3.7180   4.2116   4.5683   4.6058   4.7077   4.7833

          k = 0.0294 0.0204 0.0000 ( 34703 PWs)   bands (ev):

   -76.8293 -76.8263 -76.4763 -76.4733 -76.2799 -76.2770 -61.1978 -61.1837
   -61.1653 -61.1513 -60.6269 -60.6122 -44.7443 -44.7035 -44.6994 -44.6903
   -44.6782 -44.6732 -44.3992 -44.3941 -44.3888 -44.3348 -44.2897 -44.2858
   -44.2609 -44.2558 -44.1747 -44.1218 -44.0396 -44.0351 -29.7750 -29.7448
   -29.7290 -29.6991 -29.6960 -29.6775 -29.5791 -29.5515 -29.5470 -29.5188
   -29.3807 -29.3626 -29.2883 -29.1264 -29.0974 -29.0831 -29.0496 -28.9603
    -4.7143  -3.0967  -2.7499  -2.5889  -2.4747  -2.4723  -2.3316  -2.2305
    -2.1897  -2.1197  -1.7186  -1.5767  -1.4608  -1.1607  -1.0451  -0.9708
    -0.9567  -0.8579  -0.8556  -0.7999  -0.6027  -0.5178  -0.2866  -0.0995
    -0.0217  -0.0136   0.0500   0.1334   0.4875   0.6292   0.8046   0.9108
     0.9697   1.0207   1.8181   1.9806   2.0004   2.1170   2.2297   2.4076
     2.5223   2.6586   2.7042   2.8125   2.9198   3.1722   3.3529   3.3739
     3.4533   3.5143   3.7375   4.2360   4.4975   4.6459   4.6685   4.8362

          k = 0.0294 0.0361 0.0000 ( 34688 PWs)   bands (ev):

   -76.8292 -76.8264 -76.4762 -76.4734 -76.2799 -76.2771 -61.1976 -61.1840
   -61.1651 -61.1515 -60.6267 -60.6125 -44.7432 -44.7035 -44.6993 -44.6911
   -44.6776 -44.6730 -44.3987 -44.3940 -44.3877 -44.3356 -44.2896 -44.2860
   -44.2603 -44.2557 -44.1735 -44.1226 -44.0395 -44.0352 -29.7753 -29.7451
   -29.7288 -29.6996 -29.6921 -29.6738 -29.5812 -29.5525 -29.5497 -29.5209
   -29.3867 -29.3686 -29.2842 -29.1283 -29.0991 -29.0809 -29.0512 -28.9667
    -4.5356  -2.9353  -2.6382  -2.5489  -2.3879  -2.3831  -2.2247  -2.1590
    -2.1129  -2.0209  -1.6712  -1.4842  -1.4139  -1.1353  -0.9490  -0.9101
    -0.8900  -0.8692  -0.7966  -0.7887  -0.6075  -0.4288  -0.2323  -0.1444
    -0.0690  -0.0549   0.0546   0.1656   0.4015   0.5783   0.5977   0.8226
     0.9296   1.0349   1.4838   1.7051   1.8999   2.0106   2.1925   2.2480
     2.3279   2.5473   2.5796   2.8072   2.8977   3.1188   3.1832   3.2895
     3.3697   3.4624   3.6943   4.1637   4.3612   4.5469   4.5558   4.6480

          k = 0.0294 0.0518 0.0000 ( 34667 PWs)   bands (ev):

   -76.8291 -76.8265 -76.4761 -76.4735 -76.2797 -76.2772 -61.1969 -61.1847
   -61.1645 -61.1523 -60.6260 -60.6132 -44.7402 -44.7033 -44.6994 -44.6938
   -44.6769 -44.6731 -44.3981 -44.3941 -44.3847 -44.3383 -44.2894 -44.2862
   -44.2596 -44.2557 -44.1706 -44.1252 -44.0393 -44.0354 -29.7747 -29.7464
   -29.7275 -29.7010 -29.6781 -29.6599 -29.5826 -29.5548 -29.5510 -29.5237
   -29.4033 -29.3853 -29.2696 -29.1292 -29.1017 -29.0778 -29.0538 -28.9841
    -4.2719  -2.7111  -2.5989  -2.4818  -2.2841  -2.2239  -2.0609  -2.0590
    -1.9848  -1.9101  -1.6451  -1.3282  -1.3262  -1.1073  -0.9107  -0.8904
    -0.8510  -0.7965  -0.7797  -0.7121  -0.6130  -0.3034  -0.2808  -0.2207
    -0.1141  -0.1042   0.0840   0.1306   0.1854   0.3871   0.4983   0.6921
     0.8162   1.0803   1.1221   1.3531   1.4144   1.9988   2.0504   2.1230
     2.2395   2.5055   2.6096   2.8204   2.9194   2.9765   3.2084   3.2376
     3.3930   3.4175   3.5941   4.0754   4.1487   4.3296   4.3746   4.4441

          k = 0.0294 0.0675 0.0000 ( 34661 PWs)   bands (ev):

   -76.8288 -76.8268 -76.4758 -76.4737 -76.2795 -76.2774 -61.1958 -61.1859
   -61.1634 -61.1534 -60.6249 -60.6144 -44.7358 -44.7031 -44.6996 -44.6981
   -44.6761 -44.6733 -44.3974 -44.3943 -44.3802 -44.3426 -44.2891 -44.2866
   -44.2589 -44.2560 -44.1662 -44.1294 -44.0389 -44.0358 -29.7730 -29.7487
   -29.7251 -29.7031 -29.6547 -29.6367 -29.5831 -29.5579 -29.5505 -29.5266
   -29.4291 -29.4112 -29.2452 -29.1287 -29.1048 -29.0739 -29.0573 -29.0111
    -3.9406  -2.7641  -2.4669  -2.3113  -2.1798  -2.0126  -1.9525  -1.9028
    -1.8203  -1.8147  -1.6038  -1.2673  -1.1253  -1.1111  -0.9598  -0.8645
    -0.8295  -0.8212  -0.7176  -0.6499  -0.5596  -0.3966  -0.3273  -0.2000
    -0.1794  -0.1006  -0.0424  -0.0294   0.1259   0.3498   0.3645   0.3977
     0.6005   0.8061   0.9311   1.0757   1.3636   1.7065   1.9188   1.9613
     2.3985   2.5485   2.6040   2.8663   2.9412   2.9549   3.2021   3.2947
     3.3549   3.5298   3.5410   3.8834   4.0017   4.1634   4.1790   4.3006

          k = 0.0294-0.1050 0.0000 ( 34632 PWs)   bands (ev):

   -76.8285 -76.8271 -76.4755 -76.4740 -76.2792 -76.2777 -61.1944 -61.1873
   -61.1619 -61.1549 -60.6234 -60.6159 -44.7301 -44.7037 -44.7027 -44.7000
   -44.6754 -44.6738 -44.3967 -44.3948 -44.3746 -44.3482 -44.2886 -44.2871
   -44.2582 -44.2565 -44.1606 -44.1349 -44.0384 -44.0363 -29.7705 -29.7516
   -29.7219 -29.7059 -29.6232 -29.6053 -29.5820 -29.5612 -29.5481 -29.5290
   -29.4621 -29.4443 -29.2124 -29.1266 -29.1078 -29.0697 -29.0615 -29.0455
    -3.5671  -3.0450  -2.2708  -2.1694  -2.1082  -1.9039  -1.8215  -1.7889
    -1.7355  -1.6301  -1.5541  -1.2617  -1.1588  -1.0355  -0.9275  -0.8443
    -0.8192  -0.8111  -0.7651  -0.6103  -0.5195  -0.5090  -0.4460  -0.4151
    -0.1992  -0.1220  -0.0645  -0.0150   0.0663   0.0905   0.2170   0.2208
     0.3630   0.5946   0.6364   1.1878   1.4314   1.5725   1.7454   1.9310
     2.5434   2.6414   2.6719   2.9141   3.0091   3.0114   3.1814   3.3455
     3.4299   3.6351   3.6426   3.8140   3.9438   4.0257   4.0738   4.1374

          k = 0.0294-0.0893 0.0000 ( 34603 PWs)   bands (ev):

   -76.8282 -76.8274 -76.4752 -76.4744 -76.2788 -76.2781 -61.1927 -61.1890
   -61.1602 -61.1565 -60.6216 -60.6176 -44.7235 -44.7103 -44.7022 -44.7005
   -44.6749 -44.6745 -44.3962 -44.3956 -44.3680 -44.3548 -44.2881 -44.2876
   -44.2577 -44.2572 -44.1543 -44.1414 -44.0379 -44.0368 -29.7670 -29.7551
   -29.7182 -29.7091 -29.5858 -29.5793 -29.5679 -29.5640 -29.5439 -29.5308
   -29.5000 -29.4821 -29.1733 -29.1230 -29.1106 -29.0850 -29.0661 -29.0652
    -3.4047  -3.1894  -2.1926  -2.1276  -2.1166  -1.8869  -1.8480  -1.8341
    -1.5858  -1.5570  -1.4108  -1.2873  -1.2211  -0.9967  -0.9832  -0.9736
    -0.8118  -0.7374  -0.6642  -0.6266  -0.5832  -0.5783  -0.5455  -0.4126
    -0.3775  -0.3588  -0.1498  -0.0952  -0.0418   0.0586   0.1117   0.2140
     0.3701   0.4877   0.5807   1.1542   1.5237   1.6101   1.9025   1.9403
     2.6597   2.7569   2.8421   2.9755   3.1074   3.1484   3.1779   3.4183
     3.6021   3.7152   3.7833   3.8756   3.9572   3.9708   4.0176   4.1552

          k = 0.0294-0.0736 0.0000 ( 34640 PWs)   bands (ev):

   -76.8278 -76.8278 -76.4748 -76.4748 -76.2785 -76.2784 -61.1908 -61.1908
   -61.1584 -61.1583 -60.6197 -60.6195 -44.7174 -44.7167 -44.7017 -44.7010
   -44.6755 -44.6745 -44.3964 -44.3957 -44.3620 -44.3612 -44.2881 -44.2876
   -44.2581 -44.2573 -44.1484 -44.1475 -44.0374 -44.0373 -29.7630 -29.7588
   -29.7141 -29.7127 -29.5751 -29.5676 -29.5438 -29.5404 -29.5383 -29.5336
   -29.5254 -29.5220 -29.1306 -29.1279 -29.1169 -29.1128 -29.0708 -29.0610
    -3.7875  -2.8614  -2.2921  -2.2394  -2.1738  -1.9933  -1.9317  -1.9310
    -1.7434  -1.5375  -1.3837  -1.2437  -1.1853  -1.1304  -1.0008  -0.8562
    -0.7873  -0.7833  -0.7372  -0.7283  -0.6315  -0.5903  -0.5658  -0.5590
    -0.4570  -0.3131  -0.2697  -0.1484  -0.0691   0.0755   0.0937   0.3416
     0.3879   0.6280   0.7427   1.0297   1.5530   1.8924   1.9977   2.2804
     2.7230   2.9151   2.9678   3.0911   3.1479   3.2513   3.4122   3.5779
     3.5966   3.6496   3.7444   3.8673   4.0665   4.1508   4.2894   4.3592

          k = 0.0294-0.0579 0.0000 ( 34649 PWs)   bands (ev):

   -76.8282 -76.8274 -76.4752 -76.4744 -76.2788 -76.2781 -61.1926 -61.1890
   -61.1601 -61.1565 -60.6214 -60.6178 -44.7246 -44.7098 -44.7016 -44.7012
   -44.6764 -44.6742 -44.3974 -44.3953 -44.3691 -44.3543 -44.2885 -44.2870
   -44.2591 -44.2569 -44.1554 -44.1409 -44.0380 -44.0367 -29.7625 -29.7587
   -29.7165 -29.7101 -29.5802 -29.5696 -29.5695 -29.5621 -29.5340 -29.5321
   -29.5021 -29.4844 -29.1685 -29.1153 -29.1121 -29.0866 -29.0753 -29.0570
    -4.1448  -2.6508  -2.5553  -2.3481  -2.2808  -2.2166  -2.0481  -2.0165
    -1.9534  -1.6335  -1.5732  -1.2472  -1.1578  -1.0947  -1.0143  -0.9664
    -0.8724  -0.8191  -0.7586  -0.7507  -0.6446  -0.5905  -0.5758  -0.5064
    -0.4697  -0.3518  -0.2326  -0.1083   0.0863   0.0884   0.3020   0.4361
     0.4664   0.6801   0.9736   1.2118   1.5394   2.1062   2.3126   2.6938
     2.7254   2.9661   3.0838   3.1661   3.3175   3.3590   3.3949   3.5165
     3.6561   3.7070   3.7902   3.8635   4.1938   4.2631   4.4813   4.5563

          k = 0.0294-0.0423 0.0000 ( 34701 PWs)   bands (ev):

   -76.8286 -76.8271 -76.4756 -76.4741 -76.2792 -76.2777 -61.1942 -61.1873
   -61.1618 -61.1548 -60.6231 -60.6160 -44.7312 -44.7035 -44.7022 -44.7007
   -44.6773 -44.6740 -44.3982 -44.3950 -44.3757 -44.3480 -44.2890 -44.2866
   -44.2600 -44.2567 -44.1619 -44.1347 -44.0385 -44.0362 -29.7660 -29.7545
   -29.7201 -29.7065 -29.6170 -29.5989 -29.5714 -29.5639 -29.5355 -29.5265
   -29.4627 -29.4449 -29.2068 -29.1172 -29.1067 -29.0792 -29.0537 -29.0455
    -4.4423  -2.8214  -2.6128  -2.4488  -2.4377  -2.3594  -2.1651  -2.1478
    -2.1072  -1.8631  -1.6434  -1.2641  -1.2179  -1.1801  -1.1141  -1.0586
    -0.9609  -0.8853  -0.7759  -0.7736  -0.6274  -0.5441  -0.4584  -0.4034
    -0.3329  -0.3147  -0.1824  -0.0711   0.1588   0.3836   0.4758   0.5949
     0.6260   0.7068   0.9732   1.5294   1.7753   2.2772   2.6600   2.7049
     2.8210   3.1622   3.2202   3.2360   3.2422   3.3408   3.3728   3.5286
     3.5513   3.7399   3.8870   4.1349   4.2072   4.2611   4.3554   4.6759

          k = 0.0294-0.0266 0.0000 ( 34667 PWs)   bands (ev):

   -76.8289 -76.8268 -76.4759 -76.4737 -76.2795 -76.2774 -61.1957 -61.1858
   -61.1632 -61.1533 -60.6246 -60.6144 -44.7368 -44.7027 -44.7003 -44.6981
   -44.6780 -44.6738 -44.3989 -44.3948 -44.3813 -44.3425 -44.2893 -44.2862
   -44.2607 -44.2565 -44.1674 -44.1294 -44.0390 -44.0357 -29.7691 -29.7507
   -29.7234 -29.7034 -29.6487 -29.6305 -29.5731 -29.5587 -29.5375 -29.5219
   -29.4285 -29.4106 -29.2397 -29.1193 -29.1020 -29.0821 -29.0512 -29.0099
    -4.6577  -3.0290  -2.6663  -2.6384  -2.5099  -2.3750  -2.3280  -2.2300
    -2.1745  -2.0377  -1.7297  -1.4376  -1.2848  -1.1741  -1.1735  -1.0549
    -0.9759  -0.9469  -0.8290  -0.7999  -0.6458  -0.5048  -0.4956  -0.2883
    -0.1756  -0.1591  -0.0438   0.0434   0.2605   0.4784   0.6972   0.7049
     0.7728   0.9330   1.0017   1.6246   2.2515   2.4626   2.5631   2.6576
     2.9660   3.0997   3.1636   3.1926   3.2210   3.3662   3.4770   3.5414
     3.6069   3.7215   3.9683   4.0186   4.1585   4.3700   4.5170   4.7617

          k = 0.0441-0.0164 0.0000 ( 34692 PWs)   bands (ev):

   -76.8289 -76.8268 -76.4759 -76.4737 -76.2795 -76.2774 -61.1957 -61.1858
   -61.1633 -61.1533 -60.6247 -60.6144 -44.7366 -44.7027 -44.7001 -44.6981
   -44.6776 -44.6737 -44.3986 -44.3947 -44.3811 -44.3425 -44.2893 -44.2863
   -44.2603 -44.2564 -44.1671 -44.1294 -44.0390 -44.0357 -29.7697 -29.7501
   -29.7242 -29.7037 -29.6500 -29.6318 -29.5744 -29.5578 -29.5411 -29.5234
   -29.4286 -29.4107 -29.2409 -29.1213 -29.1026 -29.0803 -29.0525 -29.0102
    -4.5324  -2.9267  -2.7216  -2.5614  -2.4555  -2.2680  -2.2416  -2.1793
    -2.1055  -1.9979  -1.7441  -1.3757  -1.2895  -1.1056  -1.0652  -1.0184
    -0.9560  -0.9222  -0.8308  -0.7926  -0.6566  -0.4285  -0.3978  -0.2992
    -0.1988  -0.1943   0.0158   0.0162   0.2613   0.4484   0.5924   0.6336
     0.7990   0.8988   1.0549   1.4863   2.1503   2.1852   2.4821   2.5684
     2.7685   2.9422   2.9805   2.9850   3.0476   3.3960   3.4333   3.5188
     3.5875   3.7298   3.7509   3.8601   4.3162   4.3509   4.4632   4.5706

          k = 0.0441-0.0007 0.0000 ( 34693 PWs)   bands (ev):

   -76.8291 -76.8265 -76.4761 -76.4735 -76.2797 -76.2772 -61.1968 -61.1847
   -61.1644 -61.1522 -60.6259 -60.6132 -44.7407 -44.7032 -44.6997 -44.6938
   -44.6778 -44.6734 -44.3988 -44.3943 -44.3852 -44.3383 -44.2895 -44.2860
   -44.2605 -44.2560 -44.1711 -44.1253 -44.0393 -44.0354 -29.7728 -29.7471
   -29.7270 -29.7013 -29.6754 -29.6571 -29.5776 -29.5542 -29.5455 -29.5214
   -29.4027 -29.3847 -29.2671 -29.1248 -29.1000 -29.0812 -29.0514 -28.9833
    -4.5834  -2.9781  -2.6625  -2.6336  -2.4460  -2.3558  -2.2380  -2.1860
    -2.0894  -2.0863  -1.7390  -1.4618  -1.3646  -1.1189  -1.0043  -0.9960
    -0.9313  -0.8732  -0.8489  -0.8077  -0.6452  -0.4132  -0.3350  -0.1963
    -0.1463  -0.1070   0.0411   0.2506   0.3336   0.5017   0.5094   0.7885
     0.9149   1.0673   1.1973   1.6736   1.9422   2.2275   2.3812   2.4933
     2.5240   2.7756   2.8543   2.8779   2.9616   3.2120   3.3857   3.3897
     3.5153   3.5653   3.6367   4.0789   4.4054   4.5284   4.5484   4.6191

          k = 0.0441 0.0150 0.0000 ( 34688 PWs)   bands (ev):

   -76.8292 -76.8264 -76.4762 -76.4734 -76.2799 -76.2771 -61.1976 -61.1840
   -61.1651 -61.1515 -60.6267 -60.6125 -44.7432 -44.7035 -44.6993 -44.6911
   -44.6776 -44.6730 -44.3987 -44.3940 -44.3877 -44.3356 -44.2896 -44.2860
   -44.2603 -44.2557 -44.1735 -44.1226 -44.0395 -44.0352 -29.7753 -29.7451
   -29.7288 -29.6996 -29.6921 -29.6738 -29.5812 -29.5525 -29.5497 -29.5209
   -29.3867 -29.3686 -29.2842 -29.1283 -29.0991 -29.0809 -29.0512 -28.9667
    -4.5356  -2.9353  -2.6382  -2.5489  -2.3879  -2.3831  -2.2247  -2.1590
    -2.1129  -2.0209  -1.6712  -1.4842  -1.4139  -1.1353  -0.9490  -0.9101
    -0.8900  -0.8692  -0.7966  -0.7887  -0.6075  -0.4288  -0.2323  -0.1444
    -0.0690  -0.0549   0.0546   0.1656   0.4015   0.5783   0.5977   0.8226
     0.9296   1.0349   1.4838   1.7051   1.8999   2.0106   2.1925   2.2480
     2.3279   2.5473   2.5796   2.8072   2.8977   3.1188   3.1832   3.2895
     3.3697   3.4624   3.6943   4.1637   4.3612   4.5469   4.5558   4.6480

          k = 0.0441 0.0307 0.0000 ( 34661 PWs)   bands (ev):

   -76.8293 -76.8263 -76.4763 -76.4733 -76.2799 -76.2770 -61.1978 -61.1838
   -61.1654 -61.1513 -60.6270 -60.6122 -44.7438 -44.7036 -44.6991 -44.6902
   -44.6772 -44.6728 -44.3984 -44.3937 -44.3883 -44.3347 -44.2896 -44.2860
   -44.2599 -44.2554 -44.1741 -44.1217 -44.0396 -44.0351 -29.7769 -29.7443
   -29.7294 -29.6989 -29.6988 -29.6805 -29.5848 -29.5531 -29.5527 -29.5217
   -29.3816 -29.3635 -29.2910 -29.1313 -29.0996 -29.0796 -29.0520 -28.9614
    -4.3933  -2.8069  -2.5914  -2.4279  -2.3401  -2.2948  -2.1794  -2.1119
    -2.0607  -1.9183  -1.5847  -1.4419  -1.4176  -1.1198  -0.8881  -0.8863
    -0.8528  -0.7843  -0.7487  -0.7227  -0.5837  -0.4069  -0.1474  -0.1397
    -0.0717  -0.0349   0.0474   0.1530   0.2937   0.5901   0.6565   0.7988
     0.9054   0.9716   1.4684   1.6488   1.6847   1.9592   2.0564   2.0985
     2.1107   2.2173   2.3623   2.7413   2.8670   3.0242   3.0517   3.1861
     3.1956   3.4366   3.6855   4.1448   4.2709   4.4061   4.4462   4.6752

          k = 0.0441 0.0463 0.0000 ( 34653 PWs)   bands (ev):

   -76.8292 -76.8264 -76.4762 -76.4734 -76.2798 -76.2771 -61.1976 -61.1841
   -61.1652 -61.1516 -60.6268 -60.6125 -44.7426 -44.7037 -44.6991 -44.6911
   -44.6766 -44.6726 -44.3979 -44.3936 -44.3871 -44.3356 -44.2895 -44.2862
   -44.2594 -44.2553 -44.1729 -44.1226 -44.0395 -44.0352 -29.7775 -29.7447
   -29.7289 -29.6990 -29.6950 -29.6768 -29.5877 -29.5550 -29.5544 -29.5231
   -29.3875 -29.3694 -29.2869 -29.1331 -29.1012 -29.0774 -29.0536 -28.9677
    -4.1654  -2.6130  -2.5144  -2.4016  -2.2228  -2.1922  -2.0475  -2.0271
    -1.9628  -1.7991  -1.5417  -1.3531  -1.3385  -1.0908  -0.9131  -0.8422
    -0.7501  -0.7485  -0.6666  -0.6581  -0.6005  -0.3212  -0.2158  -0.1799
    -0.0853  -0.0527   0.0560   0.1599   0.2759   0.3171   0.6112   0.7360
     0.8779   0.9048   1.2639   1.2980   1.5188   1.7536   1.8684   1.8946
     2.0142   2.2544   2.3707   2.7127   2.8415   2.8426   3.0296   3.1663
     3.1773   3.3765   3.5967   4.0816   4.1116   4.2070   4.3132   4.5161

          k = 0.0441 0.0620 0.0000 ( 34658 PWs)   bands (ev):

   -76.8291 -76.8266 -76.4761 -76.4735 -76.2797 -76.2772 -61.1970 -61.1848
   -61.1645 -61.1523 -60.6261 -60.6132 -44.7397 -44.7035 -44.6992 -44.6938
   -44.6760 -44.6728 -44.3974 -44.3938 -44.3842 -44.3383 -44.2893 -44.2864
   -44.2588 -44.2554 -44.1701 -44.1252 -44.0392 -44.0355 -29.7769 -29.7462
   -29.7272 -29.7000 -29.6807 -29.6627 -29.5894 -29.5570 -29.5551 -29.5249
   -29.4039 -29.3859 -29.2720 -29.1334 -29.1034 -29.0746 -29.0562 -28.9849
    -3.8659  -2.5131  -2.4407  -2.3737  -2.0833  -2.0442  -1.9172  -1.8818
    -1.8295  -1.6959  -1.5067  -1.2917  -1.1861  -1.0837  -0.9606  -0.7958
    -0.7473  -0.6672  -0.6621  -0.6355  -0.5591  -0.3306  -0.2850  -0.2182
    -0.1207  -0.0669  -0.0002   0.0462   0.1600   0.2956   0.4748   0.5748
     0.6643   0.7378   0.9474   1.1122   1.3287   1.5812   1.6991   1.7790
     2.1355   2.2483   2.5278   2.7083   2.7302   2.8518   3.1086   3.1713
     3.2989   3.3313   3.5114   3.8328   3.9873   4.0927   4.2188   4.3690

          k = 0.0441-0.1104 0.0000 ( 34638 PWs)   bands (ev):

   -76.8288 -76.8268 -76.4758 -76.4737 -76.2795 -76.2774 -61.1959 -61.1859
   -61.1634 -61.1534 -60.6250 -60.6144 -44.7353 -44.7032 -44.6994 -44.6981
   -44.6755 -44.6731 -44.3968 -44.3942 -44.3799 -44.3426 -44.2890 -44.2868
   -44.2583 -44.2558 -44.1658 -44.1294 -44.0389 -44.0358 -29.7751 -29.7485
   -29.7246 -29.7020 -29.6567 -29.6388 -29.5891 -29.5600 -29.5531 -29.5266
   -29.4293 -29.4115 -29.2471 -29.1319 -29.1059 -29.0712 -29.0596 -29.0116
    -3.5150  -2.7517  -2.3691  -2.1727  -1.9890  -1.8605  -1.8004  -1.7611
    -1.6513  -1.6484  -1.4593  -1.2839  -1.1192  -1.0805  -0.9392  -0.7559
    -0.7520  -0.7231  -0.6797  -0.6132  -0.5292  -0.4375  -0.3878  -0.2914
    -0.2491  -0.1209   0.0169   0.0308   0.1022   0.1781   0.2452   0.3130
     0.4103   0.5186   0.5975   1.1619   1.3883   1.5028   1.5710   1.7284
     2.3213   2.3493   2.5920   2.7712   2.7776   2.9133   3.1636   3.2640
     3.3431   3.4687   3.5629   3.6930   3.9328   4.0647   4.2022   4.2116

          k = 0.0441-0.0948 0.0000 ( 34588 PWs)   bands (ev):

   -76.8285 -76.8271 -76.4755 -76.4741 -76.2791 -76.2777 -61.1944 -61.1873
   -61.1620 -61.1549 -60.6235 -60.6159 -44.7298 -44.7038 -44.7028 -44.6998
   -44.6750 -44.6738 -44.3964 -44.3948 -44.3743 -44.3483 -44.2885 -44.2872
   -44.2578 -44.2564 -44.1603 -44.1350 -44.0384 -44.0363 -29.7721 -29.7514
   -29.7214 -29.7048 -29.6245 -29.6067 -29.5866 -29.5629 -29.5493 -29.5282
   -29.4621 -29.4442 -29.2136 -29.1286 -29.1083 -29.0675 -29.0634 -29.0457
    -3.1424  -3.0871  -2.3517  -2.0693  -1.9513  -1.8236  -1.7224  -1.6979
    -1.5818  -1.4622  -1.4451  -1.3105  -1.1852  -1.1117  -0.8357  -0.7819
    -0.7214  -0.7194  -0.7060  -0.6330  -0.6059  -0.5629  -0.4624  -0.3840
    -0.3678  -0.2480  -0.1693  -0.0086   0.0114   0.0373   0.1498   0.1592
     0.2323   0.3585   0.5927   1.1098   1.4646   1.4781   1.7298   1.8154
     2.4861   2.5356   2.6563   2.8246   2.9947   3.0254   3.1832   3.3092
     3.4759   3.6447   3.7807   3.8646   3.9283   3.9965   4.1041   4.1623

          k = 0.0441-0.0791 0.0000 ( 34602 PWs)   bands (ev):

   -76.8282 -76.8275 -76.4752 -76.4744 -76.2788 -76.2781 -61.1927 -61.1890
   -61.1603 -61.1565 -60.6217 -60.6176 -44.7234 -44.7104 -44.7023 -44.7004
   -44.6747 -44.6746 -44.3960 -44.3956 -44.3679 -44.3549 -44.2880 -44.2876
   -44.2575 -44.2573 -44.1541 -44.1415 -44.0379 -44.0368 -29.7681 -29.7549
   -29.7177 -29.7083 -29.5861 -29.5822 -29.5684 -29.5653 -29.5440 -29.5297
   -29.4998 -29.4820 -29.1738 -29.1238 -29.1106 -29.0851 -29.0676 -29.0637
    -3.4644  -2.7939  -2.4025  -2.0942  -2.0461  -1.8570  -1.8070  -1.7997
    -1.5820  -1.4435  -1.3174  -1.2544  -1.2448  -1.0351  -1.0275  -0.8613
    -0.7354  -0.7124  -0.6791  -0.6644  -0.6391  -0.6032  -0.4969  -0.4822
    -0.4737  -0.3948  -0.3116  -0.2053  -0.0964   0.0442   0.1031   0.2474
     0.2592   0.4386   0.6395   1.0097   1.4476   1.7486   1.8148   2.1474
     2.5967   2.7444   2.7790   2.9253   3.1414   3.2053   3.2774   3.3679
     3.6351   3.7255   3.7720   3.9625   4.0713   4.1154   4.2671   4.2683

          k = 0.0441-0.0634 0.0000 ( 34602 PWs)   bands (ev):

   -76.8278 -76.8278 -76.4748 -76.4748 -76.2785 -76.2784 -61.1908 -61.1908
   -61.1584 -61.1583 -60.6197 -60.6195 -44.7175 -44.7166 -44.7018 -44.7010
   -44.6755 -44.6744 -44.3965 -44.3956 -44.3620 -44.3611 -44.2881 -44.2875
   -44.2582 -44.2572 -44.1485 -44.1475 -44.0374 -44.0373 -29.7635 -29.7586
   -29.7138 -29.7122 -29.5762 -29.5675 -29.5443 -29.5400 -29.5380 -29.5316
   -29.5267 -29.5221 -29.1304 -29.1269 -29.1180 -29.1128 -29.0716 -29.0602
    -3.8300  -2.5872  -2.4375  -2.2832  -2.1934  -1.9890  -1.9329  -1.9325
    -1.7631  -1.4778  -1.3686  -1.2913  -1.2144  -1.0650  -0.8648  -0.8635
    -0.8157  -0.7887  -0.7791  -0.7412  -0.6892  -0.6210  -0.5715  -0.5688
    -0.5464  -0.3157  -0.2525  -0.1954  -0.0917   0.0433   0.0888   0.3323
     0.3684   0.6777   0.8030   0.9647   1.4613   1.9132   2.1013   2.4879
     2.6543   2.8597   2.9358   3.1034   3.2210   3.2603   3.4916   3.5672
     3.6115   3.6498   3.7662   3.7886   4.1553   4.3943   4.4023   4.6047

          k = 0.0441-0.0477 0.0000 ( 34649 PWs)   bands (ev):

   -76.8282 -76.8274 -76.4752 -76.4744 -76.2788 -76.2781 -61.1926 -61.1890
   -61.1601 -61.1565 -60.6214 -60.6178 -44.7246 -44.7098 -44.7016 -44.7012
   -44.6764 -44.6742 -44.3974 -44.3953 -44.3691 -44.3543 -44.2885 -44.2870
   -44.2591 -44.2569 -44.1554 -44.1409 -44.0380 -44.0367 -29.7625 -29.7587
   -29.7165 -29.7101 -29.5802 -29.5696 -29.5695 -29.5621 -29.5340 -29.5321
   -29.5021 -29.4844 -29.1685 -29.1153 -29.1121 -29.0866 -29.0753 -29.0570
    -4.1448  -2.6508  -2.5553  -2.3481  -2.2808  -2.2166  -2.0481  -2.0165
    -1.9534  -1.6335  -1.5732  -1.2472  -1.1578  -1.0947  -1.0143  -0.9664
    -0.8724  -0.8191  -0.7586  -0.7507  -0.6446  -0.5905  -0.5758  -0.5064
    -0.4697  -0.3518  -0.2326  -0.1083   0.0863   0.0884   0.3020   0.4361
     0.4664   0.6801   0.9736   1.2118   1.5394   2.1062   2.3126   2.6938
     2.7254   2.9661   3.0838   3.1661   3.3175   3.3590   3.3949   3.5165
     3.6561   3.7070   3.7902   3.8635   4.1938   4.2631   4.4813   4.5563

          k = 0.0441-0.0320 0.0000 ( 34690 PWs)   bands (ev):

   -76.8286 -76.8271 -76.4755 -76.4741 -76.2792 -76.2777 -61.1942 -61.1873
   -61.1618 -61.1548 -60.6231 -60.6160 -44.7311 -44.7035 -44.7022 -44.7007
   -44.6772 -44.6740 -44.3981 -44.3950 -44.3756 -44.3480 -44.2889 -44.2866
   -44.2598 -44.2567 -44.1618 -44.1347 -44.0385 -44.0362 -29.7662 -29.7541
   -29.7205 -29.7067 -29.6176 -29.5995 -29.5718 -29.5631 -29.5372 -29.5271
   -29.4626 -29.4448 -29.2073 -29.1181 -29.1067 -29.0783 -29.0544 -29.0454
    -4.3839  -2.7815  -2.7148  -2.4184  -2.4129  -2.2514  -2.1395  -2.1224
    -2.0794  -1.8453  -1.6801  -1.2341  -1.1956  -1.1843  -1.0478  -1.0181
    -0.9736  -0.8817  -0.7954  -0.7648  -0.6397  -0.5089  -0.4101  -0.3994
    -0.3297  -0.2958  -0.2217  -0.0316   0.1737   0.3563   0.4543   0.5951
     0.6419   0.6498   1.0141   1.3847   1.8615   2.2897   2.3261   2.6814
     2.8835   2.9472   3.0934   3.1156   3.2515   3.3895   3.4701   3.5319
     3.5326   3.7274   3.9523   3.9778   4.0748   4.1784   4.4403   4.5455

          k = 0.0588-0.0218 0.0000 ( 34682 PWs)   bands (ev):

   -76.8286 -76.8271 -76.4755 -76.4741 -76.2792 -76.2777 -61.1943 -61.1873
   -61.1618 -61.1548 -60.6232 -60.6160 -44.7308 -44.7036 -44.7023 -44.7005
   -44.6767 -44.6739 -44.3977 -44.3950 -44.3753 -44.3481 -44.2888 -44.2867
   -44.2594 -44.2566 -44.1615 -44.1348 -44.0385 -44.0362 -29.7670 -29.7532
   -29.7215 -29.7070 -29.6192 -29.6012 -29.5734 -29.5613 -29.5413 -29.5283
   -29.4624 -29.4446 -29.2088 -29.1205 -29.1069 -29.0759 -29.0563 -29.0453
    -4.2113  -2.8563  -2.6654  -2.3575  -2.3314  -2.0777  -2.0755  -2.0378
    -2.0051  -1.7979  -1.7132  -1.2043  -1.1485  -1.1009  -1.0279  -1.0145
    -0.8858  -0.8573  -0.8515  -0.7267  -0.6122  -0.4627  -0.3721  -0.3378
    -0.3042  -0.2830  -0.1981   0.0215   0.1803   0.2764   0.3679   0.5265
     0.5556   0.7619   1.0980   1.1292   1.7624   1.9731   2.2825   2.3520
     2.7896   2.8419   2.8998   2.9663   3.0850   3.3989   3.4264   3.5089
     3.5246   3.6934   3.7622   3.7941   4.0349   4.2426   4.2874   4.3179

          k = 0.0588-0.0061 0.0000 ( 34658 PWs)   bands (ev):

   -76.8289 -76.8268 -76.4758 -76.4737 -76.2795 -76.2774 -61.1957 -61.1858
   -61.1633 -61.1534 -60.6248 -60.6144 -44.7362 -44.7029 -44.6999 -44.6981
   -44.6769 -44.6735 -44.3980 -44.3945 -44.3807 -44.3426 -44.2892 -44.2864
   -44.2597 -44.2562 -44.1667 -44.1294 -44.0389 -44.0358 -29.7711 -29.7493
   -29.7250 -29.7037 -29.6522 -29.6341 -29.5776 -29.5571 -29.5462 -29.5254
   -29.4288 -29.4109 -29.2429 -29.1248 -29.1036 -29.0773 -29.0547 -29.0105
    -4.2885  -2.7579  -2.7316  -2.4276  -2.3443  -2.1571  -2.0835  -2.0681
    -1.9810  -1.9248  -1.7116  -1.2743  -1.2620  -1.0866  -0.9936  -0.9215
    -0.8992  -0.8718  -0.8182  -0.7274  -0.6220  -0.3756  -0.2857  -0.2702
    -0.2273  -0.1699  -0.0506   0.0759   0.1849   0.3942   0.4873   0.5141
     0.7241   0.9541   1.1458   1.1906   1.5862   2.0743   2.2118   2.3130
     2.5248   2.7334   2.7887   2.8841   2.9619   3.2037   3.3504   3.3995
     3.4674   3.5554   3.6107   3.9743   4.1689   4.2514   4.3321   4.4246

          k = 0.0588 0.0095 0.0000 ( 34667 PWs)   bands (ev):

   -76.8291 -76.8265 -76.4761 -76.4735 -76.2797 -76.2772 -61.1969 -61.1847
   -61.1645 -61.1523 -60.6260 -60.6132 -44.7402 -44.7033 -44.6994 -44.6938
   -44.6769 -44.6731 -44.3981 -44.3941 -44.3847 -44.3383 -44.2894 -44.2862
   -44.2596 -44.2557 -44.1706 -44.1252 -44.0393 -44.0354 -29.7747 -29.7464
   -29.7275 -29.7010 -29.6781 -29.6599 -29.5826 -29.5548 -29.5510 -29.5237
   -29.4033 -29.3853 -29.2696 -29.1292 -29.1017 -29.0778 -29.0538 -28.9841
    -4.2719  -2.7111  -2.5989  -2.4818  -2.2841  -2.2239  -2.0609  -2.0590
    -1.9848  -1.9101  -1.6451  -1.3282  -1.3262  -1.1073  -0.9107  -0.8904
    -0.8510  -0.7965  -0.7797  -0.7121  -0.6130  -0.3034  -0.2808  -0.2207
    -0.1141  -0.1042   0.0840   0.1306   0.1854   0.3871   0.4983   0.6921
     0.8162   1.0803   1.1221   1.3531   1.4144   1.9988   2.0504   2.1230
     2.2395   2.5055   2.6096   2.8204   2.9194   2.9765   3.2084   3.2376
     3.3930   3.4175   3.5941   4.0754   4.1487   4.3297   4.3746   4.4441

          k = 0.0588 0.0252 0.0000 ( 34653 PWs)   bands (ev):

   -76.8292 -76.8264 -76.4762 -76.4734 -76.2798 -76.2771 -61.1976 -61.1841
   -61.1652 -61.1516 -60.6268 -60.6125 -44.7426 -44.7037 -44.6991 -44.6911
   -44.6766 -44.6726 -44.3979 -44.3936 -44.3871 -44.3356 -44.2895 -44.2862
   -44.2594 -44.2553 -44.1729 -44.1226 -44.0395 -44.0352 -29.7775 -29.7447
   -29.7289 -29.6990 -29.6950 -29.6768 -29.5877 -29.5550 -29.5544 -29.5231
   -29.3875 -29.3694 -29.2869 -29.1331 -29.1012 -29.0774 -29.0536 -28.9677
    -4.1654  -2.6130  -2.5144  -2.4016  -2.2228  -2.1922  -2.0475  -2.0271
    -1.9628  -1.7991  -1.5417  -1.3531  -1.3385  -1.0908  -0.9131  -0.8422
    -0.7501  -0.7485  -0.6666  -0.6581  -0.6005  -0.3212  -0.2158  -0.1799
    -0.0853  -0.0527   0.0560   0.1599   0.2759   0.3171   0.6112   0.7360
     0.8779   0.9048   1.2639   1.2980   1.5188   1.7536   1.8684   1.8946
     2.0142   2.2544   2.3707   2.7127   2.8415   2.8426   3.0296   3.1663
     3.1773   3.3765   3.5967   4.0816   4.1116   4.2070   4.3132   4.5161

          k = 0.0588 0.0409 0.0000 ( 34635 PWs)   bands (ev):

   -76.8293 -76.8263 -76.4763 -76.4733 -76.2799 -76.2770 -61.1979 -61.1838
   -61.1655 -61.1514 -60.6271 -60.6122 -44.7433 -44.7038 -44.6988 -44.6901
   -44.6762 -44.6724 -44.3976 -44.3934 -44.3878 -44.3346 -44.2896 -44.2862
   -44.2590 -44.2550 -44.1735 -44.1216 -44.0395 -44.0352 -29.7793 -29.7441
   -29.7292 -29.7018 -29.6977 -29.6835 -29.5921 -29.5576 -29.5555 -29.5233
   -29.3824 -29.3643 -29.2937 -29.1360 -29.1018 -29.0763 -29.0543 -28.9625
    -3.9766  -2.5495  -2.4415  -2.2328  -2.1518  -2.0859  -2.0179  -1.9715
    -1.8837  -1.6682  -1.4636  -1.3299  -1.2936  -1.0502  -0.9290  -0.7607
    -0.7213  -0.6933  -0.6357  -0.5802  -0.5146  -0.2998  -0.2575  -0.1944
    -0.0879  -0.0677   0.1275   0.1607   0.2476   0.2488   0.6749   0.6904
     0.6996   0.9234   1.2374   1.2769   1.4665   1.5537   1.6381   1.6783
     1.8853   2.0756   2.2691   2.6431   2.6965   2.7548   2.9112   3.0342
     3.1507   3.3306   3.5270   4.0048   4.0516   4.1040   4.2069   4.2499

          k = 0.0588 0.0566 0.0000 ( 34634 PWs)   bands (ev):

   -76.8292 -76.8264 -76.4762 -76.4734 -76.2798 -76.2771 -61.1977 -61.1841
   -61.1653 -61.1516 -60.6269 -60.6125 -44.7421 -44.7038 -44.6988 -44.6910
   -44.6758 -44.6723 -44.3972 -44.3933 -44.3867 -44.3355 -44.2894 -44.2863
   -44.2586 -44.2550 -44.1724 -44.1225 -44.0394 -44.0353 -29.7798 -29.7447
   -29.7283 -29.6983 -29.6969 -29.6794 -29.5948 -29.5585 -29.5575 -29.5240
   -29.3882 -29.3702 -29.2893 -29.1372 -29.1031 -29.0746 -29.0558 -28.9687
    -3.7173  -2.5700  -2.2492  -2.2436  -2.0283  -1.9869  -1.8827  -1.8779
    -1.7850  -1.5498  -1.4300  -1.2736  -1.2015  -1.0199  -0.9672  -0.7246
    -0.6703  -0.6675  -0.6428  -0.5197  -0.4680  -0.3691  -0.2547  -0.2439
    -0.1256  -0.0269   0.0296   0.1276   0.1534   0.2914   0.4525   0.6353
     0.6756   0.8070   1.0846   1.1269   1.2716   1.4047   1.5009   1.5718
     1.9150   2.0054   2.3977   2.5561   2.6225   2.7208   2.8836   3.0917
     3.1648   3.2830   3.4361   3.8350   3.8691   4.0191   4.0570   4.2931

          k = 0.0588-0.1159 0.0000 ( 34646 PWs)   bands (ev):

   -76.8291 -76.8266 -76.4761 -76.4735 -76.2797 -76.2772 -61.1970 -61.1848
   -61.1646 -61.1523 -60.6262 -60.6132 -44.7394 -44.7036 -44.6990 -44.6937
   -44.6754 -44.6725 -44.3968 -44.3936 -44.3839 -44.3383 -44.2892 -44.2866
   -44.2582 -44.2552 -44.1697 -44.1252 -44.0392 -44.0355 -29.7788 -29.7462
   -29.7266 -29.6988 -29.6826 -29.6647 -29.5952 -29.5597 -29.5573 -29.5250
   -29.4043 -29.3863 -29.2738 -29.1365 -29.1048 -29.0723 -29.0580 -28.9856
    -3.4036  -2.5965  -2.4371  -2.0549  -1.8971  -1.8708  -1.7879  -1.7377
    -1.6576  -1.4984  -1.3927  -1.2540  -1.1066  -1.0281  -0.9985  -0.7266
    -0.6717  -0.6581  -0.5888  -0.5586  -0.5107  -0.4498  -0.3111  -0.2237
    -0.2189  -0.1511   0.0386   0.0553   0.1306   0.2344   0.3011   0.4248
     0.5643   0.5807   0.6425   1.1146   1.3027   1.3765   1.4344   1.5365
     2.0636   2.0826   2.4922   2.6052   2.6349   2.7607   2.9911   3.1967
     3.2700   3.3120   3.4393   3.6627   3.7627   4.0093   4.0403   4.3536

          k = 0.0588-0.1002 0.0000 ( 34601 PWs)   bands (ev):

   -76.8288 -76.8268 -76.4758 -76.4737 -76.2794 -76.2774 -61.1959 -61.1859
   -61.1635 -61.1534 -60.6250 -60.6144 -44.7351 -44.7033 -44.6993 -44.6981
   -44.6751 -44.6730 -44.3965 -44.3940 -44.3796 -44.3426 -44.2889 -44.2869
   -44.2579 -44.2557 -44.1655 -44.1294 -44.0389 -44.0359 -29.7764 -29.7485
   -29.7241 -29.7010 -29.6579 -29.6400 -29.5930 -29.5618 -29.5542 -29.5262
   -29.4295 -29.4116 -29.2482 -29.1338 -29.1065 -29.0696 -29.0608 -29.0119
    -3.0573  -2.7387  -2.6410  -1.9535  -1.8411  -1.7656  -1.6847  -1.6560
    -1.5530  -1.4769  -1.3659  -1.2961  -1.1575  -1.0612  -0.8712  -0.7613
    -0.6878  -0.6674  -0.6428  -0.6305  -0.5637  -0.4305  -0.3977  -0.3416
    -0.3058  -0.1692  -0.1474   0.0303   0.0667   0.1115   0.1389   0.2306
     0.2621   0.4022   0.5816   1.0957   1.3482   1.3608   1.5506   1.6600
     2.2369   2.2853   2.5246   2.6757   2.8244   2.8725   3.2006   3.2195
     3.3484   3.4974   3.6505   3.6705   3.8049   4.0301   4.1676   4.1770

          k = 0.0588-0.0845 0.0000 ( 34596 PWs)   bands (ev):

   -76.8285 -76.8271 -76.4755 -76.4740 -76.2792 -76.2777 -61.1944 -61.1873
   -61.1620 -61.1549 -60.6235 -60.6159 -44.7297 -44.7038 -44.7029 -44.6998
   -44.6748 -44.6738 -44.3962 -44.3948 -44.3742 -44.3483 -44.2885 -44.2872
   -44.2577 -44.2564 -44.1602 -44.1350 -44.0384 -44.0363 -29.7727 -29.7514
   -29.7211 -29.7042 -29.6249 -29.6072 -29.5885 -29.5637 -29.5496 -29.5277
   -29.4621 -29.4442 -29.2140 -29.1293 -29.1084 -29.0668 -29.0641 -29.0458
    -3.1003  -2.7295  -2.6893  -1.9852  -1.8723  -1.7904  -1.6732  -1.6709
    -1.5130  -1.4224  -1.3442  -1.2581  -1.2426  -1.1674  -0.7801  -0.7737
    -0.7580  -0.6750  -0.6586  -0.6542  -0.6341  -0.5368  -0.4981  -0.3810
    -0.3624  -0.3349  -0.2794  -0.1208  -0.0427   0.0490   0.1073   0.1615
     0.2332   0.2805   0.6199   1.0335   1.3800   1.5551   1.6447   1.9187
     2.4607   2.4841   2.6317   2.7621   3.0305   3.0554   3.2285   3.2777
     3.4743   3.6864   3.8767   3.9104   3.9881   3.9903   4.0995   4.2609

          k = 0.0588-0.0689 0.0000 ( 34602 PWs)   bands (ev):

   -76.8282 -76.8275 -76.4752 -76.4744 -76.2788 -76.2781 -61.1927 -61.1890
   -61.1603 -61.1565 -60.6217 -60.6176 -44.7234 -44.7104 -44.7023 -44.7004
   -44.6747 -44.6746 -44.3960 -44.3956 -44.3679 -44.3549 -44.2880 -44.2876
   -44.2575 -44.2573 -44.1541 -44.1415 -44.0379 -44.0368 -29.7681 -29.7549
   -29.7177 -29.7083 -29.5861 -29.5822 -29.5684 -29.5653 -29.5440 -29.5297
   -29.4998 -29.4820 -29.1738 -29.1238 -29.1106 -29.0851 -29.0676 -29.0637
    -3.4644  -2.7939  -2.4025  -2.0942  -2.0461  -1.8570  -1.8070  -1.7997
    -1.5820  -1.4435  -1.3174  -1.2544  -1.2448  -1.0351  -1.0275  -0.8613
    -0.7354  -0.7124  -0.6791  -0.6644  -0.6391  -0.6032  -0.4969  -0.4822
    -0.4737  -0.3948  -0.3116  -0.2053  -0.0964   0.0442   0.1031   0.2474
     0.2592   0.4386   0.6395   1.0097   1.4476   1.7486   1.8148   2.1474
     2.5967   2.7444   2.7790   2.9253   3.1414   3.2053   3.2774   3.3679
     3.6351   3.7255   3.7720   3.9625   4.0713   4.1154   4.2671   4.2683

          k = 0.0588-0.0532 0.0000 ( 34640 PWs)   bands (ev):

   -76.8278 -76.8278 -76.4748 -76.4748 -76.2785 -76.2784 -61.1908 -61.1908
   -61.1584 -61.1583 -60.6197 -60.6195 -44.7174 -44.7167 -44.7017 -44.7010
[...]
     0.6643   0.7378   0.9474   1.1122   1.3287   1.5812   1.6991   1.7790
     2.1355   2.2483   2.5278   2.7083   2.7302   2.8518   3.1086   3.1713
     3.2989   3.3313   3.5114   3.8328   3.9873   4.0927   4.2188   4.3690

          k = 0.0735 0.0354 0.0000 ( 34634 PWs)   bands (ev):

   -76.8292 -76.8264 -76.4762 -76.4734 -76.2798 -76.2771 -61.1977 -61.1841
   -61.1653 -61.1516 -60.6269 -60.6125 -44.7421 -44.7038 -44.6988 -44.6910
   -44.6758 -44.6723 -44.3972 -44.3933 -44.3867 -44.3355 -44.2894 -44.2863
   -44.2586 -44.2550 -44.1724 -44.1225 -44.0394 -44.0353 -29.7798 -29.7447
   -29.7283 -29.6983 -29.6969 -29.6794 -29.5948 -29.5585 -29.5575 -29.5240
   -29.3882 -29.3702 -29.2893 -29.1372 -29.1031 -29.0746 -29.0558 -28.9687
    -3.7173  -2.5700  -2.2492  -2.2436  -2.0283  -1.9869  -1.8827  -1.8779
    -1.7850  -1.5498  -1.4300  -1.2736  -1.2015  -1.0199  -0.9672  -0.7246
    -0.6703  -0.6675  -0.6428  -0.5197  -0.4680  -0.3691  -0.2547  -0.2439
    -0.1256  -0.0269   0.0296   0.1276   0.1534   0.2914   0.4525   0.6353
     0.6756   0.8070   1.0846   1.1269   1.2716   1.4047   1.5009   1.5718
     1.9150   2.0054   2.3977   2.5561   2.6225   2.7208   2.8836   3.0917
     3.1648   3.2830   3.4361   3.8350   3.8691   4.0191   4.0570   4.2931

          k = 0.0735 0.0511 0.0000 ( 34650 PWs)   bands (ev):

   -76.8293 -76.8264 -76.4763 -76.4733 -76.2799 -76.2770 -61.1980 -61.1839
   -61.1656 -61.1514 -60.6272 -60.6122 -44.7429 -44.7039 -44.6986 -44.6900
   -44.6755 -44.6721 -44.3970 -44.3931 -44.3874 -44.3346 -44.2895 -44.2863
   -44.2584 -44.2547 -44.1731 -44.1216 -44.0395 -44.0352 -29.7813 -29.7442
   -29.7285 -29.7039 -29.6965 -29.6857 -29.5983 -29.5602 -29.5586 -29.5238
   -29.3830 -29.3650 -29.2957 -29.1394 -29.1035 -29.0740 -29.0560 -28.9633
    -3.5058  -2.7017  -2.0851  -2.0521  -1.9769  -1.9055  -1.8972  -1.8276
    -1.7194  -1.4145  -1.4098  -1.2146  -1.1716  -0.9935  -0.9513  -0.7461
    -0.6664  -0.6278  -0.5836  -0.4718  -0.4697  -0.3210  -0.2676  -0.2526
    -0.1047  -0.0528   0.0248   0.0686   0.1943   0.2949   0.3682   0.5853
     0.7142   0.9632   0.9994   1.1510   1.2356   1.2495   1.3521   1.3905
     1.8102   1.8625   2.3646   2.4412   2.5638   2.6529   2.7125   3.0265
     3.1312   3.2171   3.3622   3.6638   3.8430   3.9804   4.0081   4.0267

          k = 0.0735-0.1213 0.0000 ( 34661 PWs)   bands (ev):

   -76.8292 -76.8264 -76.4762 -76.4734 -76.2798 -76.2771 -61.1977 -61.1841
   -61.1653 -61.1516 -60.6270 -60.6125 -44.7419 -44.7039 -44.6987 -44.6910
   -44.6753 -44.6721 -44.3968 -44.3932 -44.3864 -44.3355 -44.2894 -44.2864
   -44.2582 -44.2548 -44.1721 -44.1225 -44.0394 -44.0353 -29.7813 -29.7448
   -29.7278 -29.6993 -29.6965 -29.6810 -29.5993 -29.5601 -29.5598 -29.5241
   -29.3886 -29.3706 -29.2907 -29.1395 -29.1042 -29.0730 -29.0570 -28.9692
    -3.2449  -2.8279  -2.1478  -1.9441  -1.8956  -1.8463  -1.7757  -1.7719
    -1.6545  -1.4133  -1.3366  -1.1815  -1.1112  -1.0374  -0.9210  -0.7934
    -0.6733  -0.6135  -0.5328  -0.5004  -0.4660  -0.4014  -0.2716  -0.2147
    -0.1608  -0.1379   0.0194   0.0813   0.1350   0.2183   0.3731   0.5378
     0.6716   0.7078   0.8699   1.0718   1.1917   1.2735   1.3226   1.3762
     1.8585   1.8773   2.3873   2.5085   2.5519   2.6600   2.6916   3.1156
     3.1434   3.2251   3.3273   3.5839   3.7558   3.8346   3.9684   4.1841

          k = 0.0735-0.1057 0.0000 ( 34650 PWs)   bands (ev):

   -76.8291 -76.8266 -76.4761 -76.4735 -76.2797 -76.2772 -61.1970 -61.1848
   -61.1646 -61.1523 -60.6262 -60.6132 -44.7392 -44.7037 -44.6989 -44.6937
   -44.6752 -44.6725 -44.3967 -44.3935 -44.3838 -44.3383 -44.2892 -44.2866
   -44.2580 -44.2551 -44.1696 -44.1252 -44.0392 -44.0355 -29.7796 -29.7462
   -29.7263 -29.6983 -29.6833 -29.6654 -29.5975 -29.5609 -29.5580 -29.5249
   -29.4044 -29.3865 -29.2745 -29.1376 -29.1053 -29.0715 -29.0586 -28.9858
    -2.9656  -2.9322  -2.4063  -1.8899  -1.8169  -1.7955  -1.7475  -1.6682
    -1.5733  -1.4502  -1.3473  -1.2106  -1.1213  -0.9918  -0.9106  -0.8390
    -0.6704  -0.6229  -0.5450  -0.5332  -0.5060  -0.5048  -0.3048  -0.2404
    -0.1918  -0.1493  -0.1424   0.0753   0.0822   0.1963   0.2975   0.3683
     0.5277   0.5467   0.5507   1.1049   1.2358   1.2768   1.4287   1.4766
     1.9960   2.0667   2.4207   2.5868   2.6783   2.7360   2.8936   3.2039
     3.3067   3.3188   3.4143   3.6314   3.6534   3.9161   3.9858   4.3150

          k = 0.0735-0.0900 0.0000 ( 34601 PWs)   bands (ev):

   -76.8288 -76.8268 -76.4758 -76.4737 -76.2794 -76.2774 -61.1959 -61.1859
   -61.1635 -61.1534 -60.6250 -60.6144 -44.7351 -44.7033 -44.6993 -44.6981
   -44.6751 -44.6730 -44.3965 -44.3940 -44.3796 -44.3426 -44.2889 -44.2869
   -44.2579 -44.2557 -44.1655 -44.1294 -44.0389 -44.0359 -29.7764 -29.7485
   -29.7241 -29.7010 -29.6579 -29.6400 -29.5930 -29.5618 -29.5542 -29.5262
   -29.4295 -29.4116 -29.2482 -29.1338 -29.1065 -29.0696 -29.0608 -29.0119
    -3.0573  -2.7387  -2.6410  -1.9535  -1.8411  -1.7656  -1.6847  -1.6560
    -1.5530  -1.4769  -1.3659  -1.2961  -1.1575  -1.0612  -0.8712  -0.7613
    -0.6878  -0.6674  -0.6428  -0.6305  -0.5637  -0.4305  -0.3977  -0.3416
    -0.3058  -0.1692  -0.1474   0.0303   0.0667   0.1115   0.1389   0.2306
     0.2621   0.4022   0.5816   1.0957   1.3482   1.3608   1.5506   1.6600
     2.2369   2.2853   2.5246   2.6757   2.8244   2.8725   3.2006   3.2195
     3.3484   3.4974   3.6505   3.6705   3.8050   4.0302   4.1768   4.3425

          k = 0.0735-0.0743 0.0000 ( 34588 PWs)   bands (ev):

   -76.8285 -76.8271 -76.4755 -76.4741 -76.2791 -76.2777 -61.1944 -61.1873
   -61.1620 -61.1549 -60.6235 -60.6159 -44.7298 -44.7038 -44.7028 -44.6998
   -44.6750 -44.6738 -44.3964 -44.3948 -44.3743 -44.3483 -44.2885 -44.2872
   -44.2578 -44.2564 -44.1603 -44.1350 -44.0384 -44.0363 -29.7721 -29.7514
   -29.7214 -29.7048 -29.6245 -29.6067 -29.5866 -29.5629 -29.5493 -29.5282
   -29.4621 -29.4442 -29.2136 -29.1286 -29.1083 -29.0675 -29.0634 -29.0457
    -3.1424  -3.0871  -2.3517  -2.0693  -1.9513  -1.8236  -1.7224  -1.6979
    -1.5818  -1.4622  -1.4451  -1.3105  -1.1852  -1.1117  -0.8357  -0.7819
    -0.7214  -0.7194  -0.7060  -0.6330  -0.6059  -0.5629  -0.4624  -0.3840
    -0.3677  -0.2480  -0.1693  -0.0086   0.0114   0.0373   0.1498   0.1592
     0.2323   0.3585   0.5927   1.1098   1.4646   1.4781   1.7298   1.8154
     2.4861   2.5356   2.6563   2.8246   2.9947   3.0254   3.1832   3.3092
     3.4759   3.6447   3.7807   3.8646   3.9283   3.9965   4.1041   4.1623

          k = 0.0735-0.0586 0.0000 ( 34603 PWs)   bands (ev):

   -76.8282 -76.8274 -76.4752 -76.4744 -76.2788 -76.2781 -61.1927 -61.1890
   -61.1602 -61.1565 -60.6216 -60.6176 -44.7235 -44.7103 -44.7022 -44.7005
   -44.6749 -44.6745 -44.3962 -44.3956 -44.3680 -44.3548 -44.2881 -44.2876
   -44.2577 -44.2572 -44.1543 -44.1414 -44.0379 -44.0368 -29.7670 -29.7551
   -29.7182 -29.7091 -29.5858 -29.5793 -29.5679 -29.5640 -29.5439 -29.5308
   -29.5000 -29.4821 -29.1733 -29.1230 -29.1106 -29.0850 -29.0661 -29.0652
    -3.4047  -3.1894  -2.1926  -2.1276  -2.1166  -1.8869  -1.8480  -1.8341
    -1.5858  -1.5570  -1.4108  -1.2873  -1.2211  -0.9967  -0.9832  -0.9736
    -0.8118  -0.7374  -0.6642  -0.6266  -0.5832  -0.5783  -0.5455  -0.4126
    -0.3775  -0.3588  -0.1498  -0.0952  -0.0418   0.0586   0.1117   0.2140
     0.3701   0.4877   0.5807   1.1542   1.5237   1.6101   1.9025   1.9403
     2.6597   2.7569   2.8421   2.9755   3.1074   3.1484   3.1779   3.4183
     3.6021   3.7152   3.7833   3.8756   3.9572   3.9708   4.0176   4.1552

          k = 0.0735-0.0430 0.0000 ( 34631 PWs)   bands (ev):

   -76.8278 -76.8278 -76.4748 -76.4748 -76.2785 -76.2784 -61.1908 -61.1908
   -61.1584 -61.1584 -60.6197 -60.6196 -44.7173 -44.7168 -44.7016 -44.7012
   -44.6752 -44.6747 -44.3963 -44.3959 -44.3618 -44.3613 -44.2880 -44.2877
   -44.2579 -44.2574 -44.1482 -44.1477 -44.0374 -44.0373 -29.7617 -29.7593
   -29.7146 -29.7138 -29.5724 -29.5681 -29.5425 -29.5410 -29.5389 -29.5370
   -29.5237 -29.5220 -29.1309 -29.1296 -29.1150 -29.1128 -29.0687 -29.0630
    -3.6614  -3.1825  -2.3043  -2.2645  -2.0027  -1.9916  -1.9296  -1.9291
    -1.6944  -1.6250  -1.3769  -1.2473  -1.1858  -1.1077  -1.0805  -0.9216
    -0.8538  -0.8151  -0.7008  -0.6627  -0.6084  -0.5717  -0.5174  -0.4047
    -0.3937  -0.3035  -0.1000  -0.0859  -0.0613   0.0847   0.1073   0.2532
     0.5554   0.5621   0.6609   1.2197   1.4695   1.7761   1.9253   2.1386
     2.7495   2.8465   2.8752   3.0301   3.1590   3.2883   3.3419   3.5898
     3.6234   3.6664   3.6964   3.8232   3.8556   3.9668   4.0744   4.1369

          k =-0.0882 0.0327 0.0000 ( 34630 PWs)   bands (ev):

   -76.8278 -76.8278 -76.4748 -76.4748 -76.2785 -76.2785 -61.1908 -61.1908
   -61.1584 -61.1584 -60.6196 -60.6196 -44.7171 -44.7171 -44.7014 -44.7014
   -44.6750 -44.6750 -44.3961 -44.3961 -44.3615 -44.3615 -44.2878 -44.2878
   -44.2577 -44.2577 -44.1479 -44.1479 -44.0374 -44.0374 -29.7603 -29.7603
   -29.7145 -29.7145 -29.5697 -29.5697 -29.5413 -29.5412 -29.5392 -29.5392
   -29.5225 -29.5225 -29.1306 -29.1306 -29.1135 -29.1135 -29.0658 -29.0658
    -3.4563  -3.4563  -2.2970  -2.2970  -1.9728  -1.9728  -1.9283  -1.9283
    -1.6524  -1.6524  -1.3374  -1.3374  -1.1313  -1.1313  -1.0300  -1.0300
    -0.8464  -0.8464  -0.6487  -0.6487  -0.5921  -0.5921  -0.4818  -0.4818
    -0.2229  -0.2229  -0.0986  -0.0986   0.0519   0.0519   0.1375   0.1375
     0.5455   0.5455   0.9921   0.9921   1.5270   1.5270   2.0847   2.0847
     2.6931   2.6931   2.9354   2.9354   3.2299   3.2299   3.5228   3.5229
     3.6134   3.6134   3.7227   3.7227   3.8245   3.8245   4.0393   4.0393

          k =-0.0882 0.0484 0.0000 ( 34642 PWs)   bands (ev):

   -76.8282 -76.8274 -76.4752 -76.4744 -76.2788 -76.2781 -61.1926 -61.1890
   -61.1602 -61.1565 -60.6216 -60.6177 -44.7238 -44.7102 -44.7021 -44.7007
   -44.6753 -44.6744 -44.3965 -44.3955 -44.3683 -44.3547 -44.2882 -44.2874
   -44.2581 -44.2572 -44.1546 -44.1412 -44.0379 -44.0368 -29.7654 -29.7556
   -29.7185 -29.7102 -29.5850 -29.5751 -29.5669 -29.5631 -29.5430 -29.5322
   -29.5003 -29.4825 -29.1723 -29.1214 -29.1107 -29.0850 -29.0678 -29.0636
    -3.5497  -3.2857  -2.3131  -2.2224  -2.0474  -1.9326  -1.9001  -1.8823
    -1.6751  -1.6182  -1.5317  -1.2341  -1.1596  -1.0562  -0.9849  -0.9630
    -0.9282  -0.7781  -0.7110  -0.6485  -0.5836  -0.5328  -0.4761  -0.4735
    -0.2134  -0.1759  -0.0871  -0.0824   0.0467   0.0876   0.1345   0.1512
     0.4715   0.5812   0.8104   1.1349   1.4700   1.5722   1.9359   2.0868
     2.6201   2.7740   2.8293   2.9763   3.0734   3.2187   3.2983   3.4846
     3.5393   3.6738   3.7083   3.8097   3.9007   3.9120   3.9361   4.1190

          k =-0.0882 0.0641 0.0000 ( 34632 PWs)   bands (ev):

   -76.8285 -76.8271 -76.4755 -76.4740 -76.2792 -76.2777 -61.1944 -61.1873
   -61.1619 -61.1549 -60.6234 -60.6159 -44.7301 -44.7037 -44.7027 -44.7000
   -44.6754 -44.6738 -44.3967 -44.3948 -44.3746 -44.3482 -44.2886 -44.2871
   -44.2582 -44.2565 -44.1606 -44.1349 -44.0384 -44.0363 -29.7705 -29.7516
   -29.7219 -29.7059 -29.6232 -29.6053 -29.5820 -29.5612 -29.5481 -29.5290
   -29.4621 -29.4443 -29.2124 -29.1266 -29.1078 -29.0697 -29.0615 -29.0455
    -3.5671  -3.0450  -2.2708  -2.1694  -2.1082  -1.9039  -1.8215  -1.7889
    -1.7355  -1.6301  -1.5541  -1.2617  -1.1588  -1.0355  -0.9275  -0.8443
    -0.8192  -0.8111  -0.7651  -0.6103  -0.5195  -0.5090  -0.4460  -0.4151
    -0.1992  -0.1220  -0.0645  -0.0150   0.0663   0.0905   0.2170   0.2208
     0.3630   0.5946   0.6364   1.1878   1.4314   1.5725   1.7454   1.9310
     2.5434   2.6414   2.6719   2.9141   3.0091   3.0114   3.1814   3.3455
     3.4299   3.6351   3.6426   3.8140   3.9438   4.0258   4.0738   4.1374

          k =-0.0882 0.0798 0.0000 ( 34638 PWs)   bands (ev):

   -76.8288 -76.8268 -76.4758 -76.4737 -76.2795 -76.2774 -61.1959 -61.1859
   -61.1634 -61.1534 -60.6250 -60.6144 -44.7353 -44.7032 -44.6994 -44.6981
   -44.6755 -44.6731 -44.3968 -44.3942 -44.3799 -44.3426 -44.2890 -44.2868
   -44.2583 -44.2558 -44.1658 -44.1294 -44.0389 -44.0358 -29.7751 -29.7485
   -29.7246 -29.7020 -29.6567 -29.6388 -29.5891 -29.5600 -29.5531 -29.5266
   -29.4293 -29.4115 -29.2471 -29.1319 -29.1059 -29.0712 -29.0596 -29.0116
    -3.5150  -2.7517  -2.3691  -2.1727  -1.9890  -1.8605  -1.8004  -1.7611
    -1.6513  -1.6484  -1.4593  -1.2839  -1.1192  -1.0805  -0.9392  -0.7559
    -0.7520  -0.7231  -0.6797  -0.6132  -0.5292  -0.4375  -0.3878  -0.2914
    -0.2491  -0.1209   0.0169   0.0308   0.1022   0.1781   0.2452   0.3130
     0.4103   0.5186   0.5975   1.1619   1.3883   1.5028   1.5710   1.7284
     2.3213   2.3493   2.5920   2.7712   2.7776   2.9133   3.1636   3.2640
     3.3431   3.4687   3.5629   3.6930   3.9328   4.0647   4.2022   4.2116

          k =-0.0882 0.0954 0.0000 ( 34646 PWs)   bands (ev):

   -76.8291 -76.8266 -76.4761 -76.4735 -76.2797 -76.2772 -61.1970 -61.1848
   -61.1646 -61.1523 -60.6262 -60.6132 -44.7394 -44.7036 -44.6990 -44.6937
   -44.6754 -44.6725 -44.3968 -44.3936 -44.3839 -44.3383 -44.2892 -44.2866
   -44.2582 -44.2552 -44.1697 -44.1252 -44.0392 -44.0355 -29.7788 -29.7462
   -29.7266 -29.6988 -29.6826 -29.6647 -29.5952 -29.5597 -29.5573 -29.5250
   -29.4043 -29.3863 -29.2738 -29.1365 -29.1048 -29.0723 -29.0580 -28.9856
    -3.4036  -2.5965  -2.4371  -2.0549  -1.8971  -1.8708  -1.7879  -1.7377
    -1.6576  -1.4984  -1.3927  -1.2540  -1.1066  -1.0281  -0.9985  -0.7266
    -0.6717  -0.6581  -0.5888  -0.5586  -0.5107  -0.4498  -0.3111  -0.2237
    -0.2189  -0.1511   0.0386   0.0553   0.1306   0.2344   0.3011   0.4248
     0.5643   0.5807   0.6425   1.1146   1.3027   1.3765   1.4344   1.5365
     2.0636   2.0826   2.4922   2.6052   2.6349   2.7607   2.9911   3.1967
     3.2700   3.3120   3.4393   3.6627   3.7627   4.0093   4.0403   4.3536

          k =-0.0882 0.1111 0.0000 ( 34661 PWs)   bands (ev):

   -76.8292 -76.8264 -76.4762 -76.4734 -76.2798 -76.2771 -61.1977 -61.1841
   -61.1653 -61.1516 -60.6270 -60.6125 -44.7419 -44.7039 -44.6987 -44.6910
   -44.6753 -44.6721 -44.3968 -44.3932 -44.3864 -44.3355 -44.2894 -44.2864
   -44.2582 -44.2548 -44.1721 -44.1225 -44.0394 -44.0353 -29.7813 -29.7448
   -29.7278 -29.6993 -29.6965 -29.6810 -29.5993 -29.5601 -29.5598 -29.5241
   -29.3886 -29.3706 -29.2907 -29.1395 -29.1042 -29.0730 -29.0570 -28.9692
    -3.2449  -2.8279  -2.1478  -1.9441  -1.8956  -1.8463  -1.7757  -1.7719
    -1.6545  -1.4133  -1.3366  -1.1815  -1.1112  -1.0374  -0.9210  -0.7934
    -0.6733  -0.6135  -0.5328  -0.5004  -0.4660  -0.4014  -0.2716  -0.2147
    -0.1608  -0.1379   0.0194   0.0813   0.1350   0.2183   0.3731   0.5378
     0.6716   0.7078   0.8699   1.0718   1.1917   1.2735   1.3226   1.3762
     1.8585   1.8773   2.3873   2.5085   2.5519   2.6600   2.6916   3.1156
     3.1434   3.2251   3.3273   3.5839   3.7558   3.8346   3.9684   4.1837

          k =-0.0882-0.0613 0.0000 ( 34638 PWs)   bands (ev):

   -76.8292 -76.8264 -76.4763 -76.4733 -76.2799 -76.2770 -61.1980 -61.1839
   -61.1656 -61.1514 -60.6273 -60.6122 -44.7427 -44.7040 -44.6986 -44.6900
   -44.6753 -44.6720 -44.3968 -44.3930 -44.3873 -44.3346 -44.2894 -44.2864
   -44.2581 -44.2546 -44.1730 -44.1215 -44.0395 -44.0352 -29.7821 -29.7443
   -29.7281 -29.7047 -29.6959 -29.6865 -29.6008 -29.5611 -29.5599 -29.5238
   -29.3832 -29.3652 -29.2964 -29.1406 -29.1041 -29.0732 -29.0566 -28.9636
    -3.0708  -3.0264  -1.9721  -1.9147  -1.8782  -1.8537  -1.8297  -1.7866
    -1.6502  -1.4086  -1.2779  -1.1487  -1.0898  -1.0722  -0.8856  -0.8278
    -0.6774  -0.5990  -0.5692  -0.4398  -0.4346  -0.3162  -0.2828  -0.2629
    -0.1746  -0.0865   0.0371   0.1090   0.1186   0.2020   0.4270   0.5075
     0.7199   0.8988   0.9956   1.0111   1.1250   1.2311   1.2791   1.2907
     1.7811   1.7893   2.3458   2.4711   2.5244   2.5592   2.6270   3.0522
     3.0824   3.1706   3.3108   3.5149   3.7018   3.9536   3.9689   3.9761

     the Fermi energy is     2.1341 ev

!    total energy              =   -2122.59394786 Ry
     estimated scf accuracy    <       0.00000094 Ry
     smearing contrib. (-TS)   =      -0.03927591 Ry
     internal energy E=F+TS    =   -2122.55467195 Ry

     The total energy is F=E-TS. E is the sum of the following terms:
     one-electron contribution =  -15317.56115715 Ry
     hartree contribution      =    7652.62652688 Ry
     xc contribution           =    -441.13073793 Ry
     ewald contribution        =    5983.51067487 Ry
     electric field correction =       0.00002138 Ry

     convergence has been achieved in  17 iterations

     negative rho (up, down):  1.089E-03 0.000E+00

     Forces acting on atoms (cartesian axes, Ry/au):

     atom    1 type  1   force =    -0.00095809   -0.00066651    0.04655871
     atom    2 type  1   force =    -0.00096048   -0.00066807    0.04654558
     atom    3 type  2   force =    -0.00586742   -0.00407743   -0.01157022
     atom    4 type  2   force =    -0.00586454   -0.00408142   -0.01157038
     atom    5 type  1   force =     0.00147680    0.00102549   -0.00401148
     atom    6 type  1   force =     0.00147137    0.00102428   -0.00402124
     atom    7 type  2   force =     0.00508159    0.00352899   -0.02682922
     atom    8 type  2   force =     0.00507730    0.00353641   -0.02682916
     atom    9 type  1   force =     0.00073505    0.00051143   -0.00325414
     atom   10 type  1   force =     0.00073784    0.00051324   -0.00325943
     atom   11 type  2   force =    -0.00047062   -0.00031379   -0.00087941
     atom   12 type  2   force =    -0.00045880   -0.00033262   -0.00087961

     Total force =     0.079289     Total SCF correction =     0.005228

     Writing output data file ./Rh2Hf2/Rh2Hf2_beef.save/

     init_run     :    116.98s CPU    117.67s WALL (       1 calls)
     electrons    :   5126.40s CPU   5165.79s WALL (       1 calls)
     forces       :     51.22s CPU     51.45s WALL (       1 calls)

     Called by init_run:
     wfcinit      :    103.32s CPU    103.68s WALL (       1 calls)
     potinit      :      8.77s CPU      8.86s WALL (       1 calls)
     hinit0       :      2.45s CPU      2.46s WALL (       1 calls)

     Called by electrons:
     c_bands      :   4446.46s CPU   4478.78s WALL (      17 calls)
     sum_band     :    632.55s CPU    636.60s WALL (      17 calls)
     v_of_rho     :     34.23s CPU     35.27s WALL (      18 calls)
     newd         :     17.77s CPU     19.79s WALL (      18 calls)
     mix_rho      :      3.31s CPU      3.33s WALL (      17 calls)
     vdW_kernel   :      6.30s CPU      6.32s WALL (       1 calls)

     Called by c_bands:
     init_us_2    :     11.08s CPU     11.16s WALL (    2664 calls)
     cegterg      :   4410.58s CPU   4440.66s WALL (    1258 calls)

     Called by *egterg:
     cdiaghg      :    206.45s CPU    206.96s WALL (    6034 calls)
     h_psi        :   2470.20s CPU   2494.88s WALL (    6108 calls)
     s_psi        :    542.77s CPU    543.38s WALL (    6108 calls)
     g_psi        :      1.37s CPU      1.39s WALL (    4776 calls)

     Called by h_psi:
     h_psi:calbec :    592.19s CPU    594.31s WALL (    6108 calls)
     vloc_psi     :   1307.97s CPU   1329.88s WALL (    6108 calls)
     add_vuspsi   :    563.87s CPU    564.46s WALL (    6108 calls)

     General routines
     calbec       :    885.26s CPU    887.81s WALL (    7662 calls)
     fft          :     24.40s CPU     24.87s WALL (    1193 calls)
     ffts         :      0.39s CPU      0.40s WALL (      35 calls)
     fftw         :   1621.34s CPU   1644.35s WALL (  752596 calls)
     interpolate  :      0.54s CPU      0.55s WALL (      18 calls)

     Parallel routines
     fft_scatt_xy :     51.22s CPU     51.78s WALL (  753824 calls)
     fft_scatt_yz :   1142.95s CPU   1160.94s WALL (  753824 calls)

     PWSCF        :      1h32m CPU      1h34m WALL


   This run was terminated on:  14:53:16  25Jun2022            

=------------------------------------------------------------------------------=
   JOB DONE.
=------------------------------------------------------------------------------=
