
     Program PWSCF v.6.6 starts on 24Jun2022 at 19: 2: 2 

     This program is part of the open-source Quantum ESPRESSO suite
     for quantum simulation of materials; please cite
         "P. Giannozzi et al., J. Phys.:Condens. Matter 21 395502 (2009);
         "P. Giannozzi et al., J. Phys.:Condens. Matter 29 465901 (2017);
          URL http://www.quantum-espresso.org", 
     in publications or presentations arising from this work. More details at
     http://www.quantum-espresso.org/quote

     Parallel version (MPI), running on    37 processors

     MPI processes distributed on     1 nodes
     R & G space division:  proc/nbgrp/npool/nimage =      37
     Fft bands division:     nmany     =       1
     Reading input from Rh2Re2.in
Warning: card &CELL ignored
Warning: card / ignored

     Current dimensions of program PWSCF are:
     Max number of different atomic species (ntypx) = 10
     Max number of k-points (npk) =  40000
     Max angular momentum in pseudopotentials (lmaxx) =  3
     Presently stress not available with electric field and gates

     Message from routine cell_base_init:
     DEPRECATED: use true lattice parameter, not A to a.u. conversion factor
     file Rh.pbe-spn-rrkjus_psl.1.0.0.UPF: wavefunction(s)  4S 5S renormalized

     **************************************************************************
     Initializing libbeef V0.1.2 with the BEEF-vdW functional.
     Citation: Wellendorff et al., PRB 85, 235149 (2012).
     **************************************************************************


     IMPORTANT: XC functional enforced from input :
     Exchange-correlation= BEEF-VDW
                           (   1   4  43  14   2   0   0)
     Any further DFT definition will be discarded
     Please, verify this is what you really want


     Subspace diagonalization in iterative solution of the eigenvalue problem:
     a serial algorithm will be used

     Found symmetry operation: I + ( -0.5000  0.0000  0.0000)
     This is a supercell, fractional translations are disabled

     Parallelization info
     --------------------
     sticks:   dense  smooth     PW     G-vecs:    dense   smooth      PW
     Min         109      43     12                25255     6377     998
     Max         110      44     13                25276     6402    1017
     Sum        4053    1627    479               934785   236513   37397



     bravais-lattice index     =            0
     lattice parameter (alat)  =       1.8897  a.u.
     unit-cell volume          =    4278.3234 (a.u.)^3
     number of atoms/cell      =           12
     number of atomic types    =            2
     number of electrons       =       192.00
     number of Kohn-Sham states=          115
     kinetic-energy cutoff     =      55.1240  Ry
     charge density cutoff     =     551.2396  Ry
     convergence threshold     =      1.0E-05
     mixing beta               =       0.1000
     number of iterations used =           10  plain     mixing
     Exchange-correlation= BEEF-VDW
                           (   1   4  43  14   2   0   0)

     celldm(1)=   1.889726  celldm(2)=   0.000000  celldm(3)=   0.000000
     celldm(4)=   0.000000  celldm(5)=   0.000000  celldm(6)=   0.000000

     crystal axes: (cart. coord. in units of alat)
               a(1) = (   5.398726   0.000000   0.000000 )  
               a(2) = (  -2.699363   4.800149   0.000000 )  
               a(3) = (   0.000000   0.000000  24.464204 )  

     reciprocal axes: (cart. coord. in units 2 pi/alat)
               b(1) = (  0.185229  0.104163 -0.000000 )  
               b(2) = (  0.000000  0.208327  0.000000 )  
               b(3) = (  0.000000 -0.000000  0.040876 )  


     PseudoPot. # 1 for Rh read from file:
     ../pseudo/Rh.pbe-spn-rrkjus_psl.1.0.0.UPF
     MD5 check sum: 912a852783f0c9b7bd5e9eb06cc0cc10
     Pseudo is Ultrasoft + core correction, Zval = 17.0
     Generated using "atomic" code by A. Dal Corso v.6.3
     Using radial grid of 1233 points,  6 beta functions with: 
                l(1) =   0
                l(2) =   0
                l(3) =   1
                l(4) =   1
                l(5) =   2
                l(6) =   2
     Q(r) pseudized with 0 coefficients 


     PseudoPot. # 2 for Re read from file:
     ../pseudo/Re.pbe-spn-rrkjus_psl.1.0.0.UPF
     MD5 check sum: 1282f1ec51ad523723a04c61ae80a9e6
     Pseudo is Ultrasoft + core correction, Zval = 15.0
     Generated using "atomic" code by A. Dal Corso v.6.2.2
     Using radial grid of 1275 points,  6 beta functions with: 
                l(1) =   0
                l(2) =   0
                l(3) =   1
                l(4) =   1
                l(5) =   2
                l(6) =   2
     Q(r) pseudized with 0 coefficients 


     atomic species   valence    mass     pseudopotential
        Rh            17.00   102.90550     Rh( 1.00)
        Re            15.00   186.20700     Re( 1.00)

     No symmetry found



   Cartesian axes

     site n.     atom                  positions (alat units)
         1           Rh  tau(   1) = (   0.0000000   0.0000000  10.0000000  )
         2           Rh  tau(   2) = (   2.6993631   0.0000000  10.0000000  )
         3           Re  tau(   3) = (   1.3496816   2.4000746  10.0000000  )
         4           Re  tau(   4) = (  -1.3496816   2.4000746  10.0000000  )
         5           Rh  tau(   5) = (   2.6993631   1.5179864  12.2321018  )
         6           Rh  tau(   6) = (   0.0000000   1.5179864  12.2321018  )
         7           Re  tau(   7) = (  -1.3496816   3.9180610  12.2321018  )
         8           Re  tau(   8) = (   1.3496816   3.9180610  12.2321018  )
         9           Rh  tau(   9) = (  -0.0000007   3.1374407  14.3935590  )
        10           Rh  tau(  10) = (   2.6993696   3.1374355  14.3935584  )
        11           Re  tau(  11) = (   4.0490539   0.6524095  14.3649131  )
        12           Re  tau(  12) = (   1.3496826   0.6524033  14.3649103  )

     number of k points=    74  Fermi-Dirac smearing, width (Ry)=  0.0100
                       cart. coord. in units 2pi/alat
        k(    1) = (   0.0000000   0.0000000   0.0000000), wk =   0.0138889
        k(    2) = (   0.0000000   0.0173606   0.0000000), wk =   0.0277778
        k(    3) = (   0.0000000   0.0347211   0.0000000), wk =   0.0277778
        k(    4) = (   0.0000000   0.0520817   0.0000000), wk =   0.0277778
        k(    5) = (   0.0000000   0.0694423   0.0000000), wk =   0.0277778
        k(    6) = (   0.0000000   0.0868029   0.0000000), wk =   0.0277778
        k(    7) = (   0.0000000  -0.1041634   0.0000000), wk =   0.0138889
        k(    8) = (   0.0154357   0.0086803   0.0000000), wk =   0.0277778
        k(    9) = (   0.0154357   0.0260409   0.0000000), wk =   0.0277778
        k(   10) = (   0.0154357   0.0434014   0.0000000), wk =   0.0277778
        k(   11) = (   0.0154357   0.0607620   0.0000000), wk =   0.0277778
        k(   12) = (   0.0154357   0.0781226   0.0000000), wk =   0.0277778
        k(   13) = (   0.0154357   0.0954831   0.0000000), wk =   0.0277778
        k(   14) = (   0.0154357  -0.0954831   0.0000000), wk =   0.0277778
        k(   15) = (   0.0154357  -0.0781226   0.0000000), wk =   0.0277778
        k(   16) = (   0.0154357  -0.0607620   0.0000000), wk =   0.0277778
        k(   17) = (   0.0154357  -0.0434014   0.0000000), wk =   0.0277778
        k(   18) = (   0.0154357  -0.0260409   0.0000000), wk =   0.0277778
        k(   19) = (   0.0154357  -0.0086803   0.0000000), wk =   0.0277778
        k(   20) = (   0.0308715   0.0173606   0.0000000), wk =   0.0277778
        k(   21) = (   0.0308715   0.0347211   0.0000000), wk =   0.0277778
        k(   22) = (   0.0308715   0.0520817   0.0000000), wk =   0.0277778
        k(   23) = (   0.0308715   0.0694423   0.0000000), wk =   0.0277778
        k(   24) = (   0.0308715   0.0868029   0.0000000), wk =   0.0277778
        k(   25) = (   0.0308715   0.1041634   0.0000000), wk =   0.0277778
        k(   26) = (   0.0308715  -0.0868029   0.0000000), wk =   0.0277778
        k(   27) = (   0.0308715  -0.0694423   0.0000000), wk =   0.0277778
        k(   28) = (   0.0308715  -0.0520817   0.0000000), wk =   0.0277778
        k(   29) = (   0.0308715  -0.0347211   0.0000000), wk =   0.0277778
        k(   30) = (   0.0308715  -0.0173606   0.0000000), wk =   0.0277778
        k(   31) = (   0.0308715  -0.0000000   0.0000000), wk =   0.0277778
        k(   32) = (   0.0463072   0.0260409   0.0000000), wk =   0.0277778
        k(   33) = (   0.0463072   0.0434014   0.0000000), wk =   0.0277778
        k(   34) = (   0.0463072   0.0607620   0.0000000), wk =   0.0277778
        k(   35) = (   0.0463072   0.0781226   0.0000000), wk =   0.0277778
        k(   36) = (   0.0463072   0.0954831   0.0000000), wk =   0.0277778
        k(   37) = (   0.0463072   0.1128437   0.0000000), wk =   0.0277778
        k(   38) = (   0.0463072  -0.0781226   0.0000000), wk =   0.0277778
        k(   39) = (   0.0463072  -0.0607620   0.0000000), wk =   0.0277778
        k(   40) = (   0.0463072  -0.0434014   0.0000000), wk =   0.0277778
        k(   41) = (   0.0463072  -0.0260409   0.0000000), wk =   0.0277778
        k(   42) = (   0.0463072  -0.0086803   0.0000000), wk =   0.0277778
        k(   43) = (   0.0463072   0.0086803   0.0000000), wk =   0.0277778
        k(   44) = (   0.0617430   0.0347211   0.0000000), wk =   0.0277778
        k(   45) = (   0.0617430   0.0520817   0.0000000), wk =   0.0277778
        k(   46) = (   0.0617430   0.0694423   0.0000000), wk =   0.0277778
        k(   47) = (   0.0617430   0.0868029   0.0000000), wk =   0.0277778
        k(   48) = (   0.0617430   0.1041634   0.0000000), wk =   0.0277778
        k(   49) = (   0.0617430   0.1215240   0.0000000), wk =   0.0277778
        k(   50) = (   0.0617430  -0.0694423   0.0000000), wk =   0.0277778
        k(   51) = (   0.0617430  -0.0520817   0.0000000), wk =   0.0277778
        k(   52) = (   0.0617430  -0.0347211   0.0000000), wk =   0.0277778
        k(   53) = (   0.0617430  -0.0173606   0.0000000), wk =   0.0277778
        k(   54) = (   0.0617430   0.0000000   0.0000000), wk =   0.0277778
        k(   55) = (   0.0617430   0.0173606   0.0000000), wk =   0.0277778
        k(   56) = (   0.0771787   0.0434014   0.0000000), wk =   0.0277778
        k(   57) = (   0.0771787   0.0607620   0.0000000), wk =   0.0277778
        k(   58) = (   0.0771787   0.0781226   0.0000000), wk =   0.0277778
        k(   59) = (   0.0771787   0.0954831   0.0000000), wk =   0.0277778
        k(   60) = (   0.0771787   0.1128437   0.0000000), wk =   0.0277778
        k(   61) = (   0.0771787   0.1302043   0.0000000), wk =   0.0277778
        k(   62) = (   0.0771787  -0.0607620   0.0000000), wk =   0.0277778
        k(   63) = (   0.0771787  -0.0434014   0.0000000), wk =   0.0277778
        k(   64) = (   0.0771787  -0.0260409   0.0000000), wk =   0.0277778
        k(   65) = (   0.0771787  -0.0086803   0.0000000), wk =   0.0277778
        k(   66) = (   0.0771787   0.0086803   0.0000000), wk =   0.0277778
        k(   67) = (   0.0771787   0.0260409   0.0000000), wk =   0.0277778
        k(   68) = (  -0.0926144  -0.0520817   0.0000000), wk =   0.0138889
        k(   69) = (  -0.0926144  -0.0347211   0.0000000), wk =   0.0277778
        k(   70) = (  -0.0926144  -0.0173606   0.0000000), wk =   0.0277778
        k(   71) = (  -0.0926144   0.0000000   0.0000000), wk =   0.0277778
        k(   72) = (  -0.0926144   0.0173606   0.0000000), wk =   0.0277778
        k(   73) = (  -0.0926144   0.0347211   0.0000000), wk =   0.0277778
        k(   74) = (  -0.0926144  -0.1562451   0.0000000), wk =   0.0138889

     Dense  grid:   934785 G-vectors     FFT dimensions: (  80,  80, 360)

     Smooth grid:   236513 G-vectors     FFT dimensions: (  50,  50, 225)

     Estimated max dynamical RAM per process >     206.75 MB

     Estimated total dynamical RAM >       7.47 GB

     Initial potential from superposition of free atoms

     starting charge  191.99526, renormalised to  192.00000

     negative rho (up, down):  1.117E-03 0.000E+00


     %%%%%%%%%%%%%%%%%%%%%%%%%%%%%%%%%%%%%%%%%%%%%%%%%%%%%%%%%%%%%%%%%%%%%%%%
     %                                                                      %
     % You are using vdW-DF, which was implemented by the Thonhauser group. %
     % Please cite the following two papers that made this development      %
     % possible and the two reviews that describe the various versions:     %
     %                                                                      %
     %   T. Thonhauser et al., PRL 115, 136402 (2015).                      %
     %   T. Thonhauser et al., PRB 76, 125112 (2007).                       %
     %   K. Berland et al., Rep. Prog. Phys. 78, 066501 (2015).             %
     %   D.C. Langreth et al., J. Phys.: Condens. Matter 21, 084203 (2009). %
     %                                                                      %
     %                                                                      %
     % If you are calculating the stress with vdW-DF, please also cite:     %
     %                                                                      %
     %   R. Sabatini et al., J. Phys.: Condens. Matter 24, 424209 (2012).   %
     %                                                                      %
     %%%%%%%%%%%%%%%%%%%%%%%%%%%%%%%%%%%%%%%%%%%%%%%%%%%%%%%%%%%%%%%%%%%%%%%%



     Adding external electric field

     Computed dipole along edir(3) : 
        Dipole                0.0000 Ry au,          0.0000 Debye
        Dipole field          0.0000 Ry au, 

        Potential amp.       -0.0000 Ry
        Total length         45.0749 bohr

     Starting wfcs are  120 randomized atomic wfcs

     total cpu time spent up to now is       97.3 secs

     Self-consistent Calculation

     iteration #  1     ecut=    55.12 Ry     beta= 0.10
     Davidson diagonalization with overlap
     ethr =  1.00E-02,  avg # of iterations =  3.2

     negative rho (up, down):  1.065E-03 0.000E+00

     Adding external electric field

     Computed dipole along edir(3) : 
        Dipole               -0.1548 Ry au,         -0.3935 Debye
        Dipole field         -0.0005 Ry au, 

        Potential amp.        0.0410 Ry
        Total length         45.0749 bohr


     total cpu time spent up to now is      353.7 secs

     total energy              =   -2440.03223860 Ry
     estimated scf accuracy    <       6.92296418 Ry

     iteration #  2     ecut=    55.12 Ry     beta= 0.10
     Davidson diagonalization with overlap
     ethr =  3.61E-03,  avg # of iterations =  1.6

     negative rho (up, down):  1.050E-03 0.000E+00

     Adding external electric field

     Computed dipole along edir(3) : 
        Dipole                0.6365 Ry au,          1.6178 Debye
        Dipole field          0.0019 Ry au, 

        Potential amp.       -0.1685 Ry
        Total length         45.0749 bohr


     total cpu time spent up to now is      544.8 secs

     total energy              =   -2440.32723030 Ry
     estimated scf accuracy    <       2.91067123 Ry

     iteration #  3     ecut=    55.12 Ry     beta= 0.10
     Davidson diagonalization with overlap
     ethr =  1.52E-03,  avg # of iterations =  1.9

     negative rho (up, down):  1.057E-03 0.000E+00

     Adding external electric field

     Computed dipole along edir(3) : 
        Dipole               -0.0681 Ry au,         -0.1731 Debye
        Dipole field         -0.0002 Ry au, 

        Potential amp.        0.0180 Ry
        Total length         45.0749 bohr


     total cpu time spent up to now is      743.1 secs

     total energy              =   -2440.12056424 Ry
     estimated scf accuracy    <      28.03974673 Ry

     iteration #  4     ecut=    55.12 Ry     beta= 0.10
     Davidson diagonalization with overlap
     ethr =  1.52E-03,  avg # of iterations =  1.0

     negative rho (up, down):  1.063E-03 0.000E+00

     Adding external electric field

     Computed dipole along edir(3) : 
        Dipole                0.0229 Ry au,          0.0582 Debye
        Dipole field          0.0001 Ry au, 

        Potential amp.       -0.0061 Ry
        Total length         45.0749 bohr


     total cpu time spent up to now is      916.4 secs

     total energy              =   -2440.54560183 Ry
     estimated scf accuracy    <       0.71879384 Ry

     iteration #  5     ecut=    55.12 Ry     beta= 0.10
     Davidson diagonalization with overlap
     ethr =  3.74E-04,  avg # of iterations =  1.4

     negative rho (up, down):  1.072E-03 0.000E+00

     Adding external electric field

     Computed dipole along edir(3) : 
        Dipole                0.0202 Ry au,          0.0514 Debye
        Dipole field          0.0001 Ry au, 

        Potential amp.       -0.0054 Ry
        Total length         45.0749 bohr


     total cpu time spent up to now is     1108.4 secs

     total energy              =   -2440.53945827 Ry
     estimated scf accuracy    <       0.12706834 Ry

     iteration #  6     ecut=    55.12 Ry     beta= 0.10
     Davidson diagonalization with overlap
     ethr =  6.62E-05,  avg # of iterations =  3.4

     negative rho (up, down):  1.089E-03 0.000E+00

     Adding external electric field

     Computed dipole along edir(3) : 
        Dipole                0.0188 Ry au,          0.0477 Debye
        Dipole field          0.0001 Ry au, 

        Potential amp.       -0.0050 Ry
        Total length         45.0749 bohr


     total cpu time spent up to now is     1323.6 secs

     total energy              =   -2440.54418495 Ry
     estimated scf accuracy    <       0.04313679 Ry

     iteration #  7     ecut=    55.12 Ry     beta= 0.10
     Davidson diagonalization with overlap
     ethr =  2.25E-05,  avg # of iterations =  3.1

     negative rho (up, down):  1.160E-03 0.000E+00

     Adding external electric field

     Computed dipole along edir(3) : 
        Dipole                0.0141 Ry au,          0.0360 Debye
        Dipole field          0.0000 Ry au, 

        Potential amp.       -0.0037 Ry
        Total length         45.0749 bohr


     total cpu time spent up to now is     1541.2 secs

     total energy              =   -2440.54294756 Ry
     estimated scf accuracy    <       0.02205358 Ry

     iteration #  8     ecut=    55.12 Ry     beta= 0.10
     Davidson diagonalization with overlap
     ethr =  1.15E-05,  avg # of iterations =  2.3

     negative rho (up, down):  1.189E-03 0.000E+00

     Adding external electric field

     Computed dipole along edir(3) : 
        Dipole                0.0152 Ry au,          0.0387 Debye
        Dipole field          0.0000 Ry au, 

        Potential amp.       -0.0040 Ry
        Total length         45.0749 bohr


     total cpu time spent up to now is     1759.8 secs

     total energy              =   -2440.54491393 Ry
     estimated scf accuracy    <       0.00451154 Ry

     iteration #  9     ecut=    55.12 Ry     beta= 0.10
     Davidson diagonalization with overlap
     ethr =  2.35E-06,  avg # of iterations =  5.4

     negative rho (up, down):  1.254E-03 0.000E+00

     Adding external electric field

     Computed dipole along edir(3) : 
        Dipole                0.0202 Ry au,          0.0512 Debye
        Dipole field          0.0001 Ry au, 

        Potential amp.       -0.0053 Ry
        Total length         45.0749 bohr


     total cpu time spent up to now is     1994.1 secs

     total energy              =   -2440.54506698 Ry
     estimated scf accuracy    <       0.00198000 Ry

     iteration # 10     ecut=    55.12 Ry     beta= 0.10
     Davidson diagonalization with overlap
     ethr =  1.03E-06,  avg # of iterations =  2.0

     negative rho (up, down):  1.233E-03 0.000E+00

     Adding external electric field

     Computed dipole along edir(3) : 
        Dipole                0.0179 Ry au,          0.0456 Debye
        Dipole field          0.0001 Ry au, 

        Potential amp.       -0.0048 Ry
        Total length         45.0749 bohr


     total cpu time spent up to now is     2234.4 secs

     total energy              =   -2440.54527198 Ry
     estimated scf accuracy    <       0.00060659 Ry

     iteration # 11     ecut=    55.12 Ry     beta= 0.10
     Davidson diagonalization with overlap
     ethr =  3.16E-07,  avg # of iterations =  1.5

     negative rho (up, down):  1.212E-03 0.000E+00

     Adding external electric field

     Computed dipole along edir(3) : 
        Dipole                0.0172 Ry au,          0.0436 Debye
        Dipole field          0.0001 Ry au, 

        Potential amp.       -0.0045 Ry
        Total length         45.0749 bohr


     total cpu time spent up to now is     2440.4 secs

     total energy              =   -2440.54529351 Ry
     estimated scf accuracy    <       0.00011253 Ry

     iteration # 12     ecut=    55.12 Ry     beta= 0.10
     Davidson diagonalization with overlap
     ethr =  5.86E-08,  avg # of iterations =  2.7

     negative rho (up, down):  1.196E-03 0.000E+00

     Adding external electric field

     Computed dipole along edir(3) : 
        Dipole                0.0175 Ry au,          0.0446 Debye
        Dipole field          0.0001 Ry au, 

        Potential amp.       -0.0046 Ry
        Total length         45.0749 bohr


     total cpu time spent up to now is     2692.7 secs

     total energy              =   -2440.54530863 Ry
     estimated scf accuracy    <       0.00006801 Ry

     iteration # 13     ecut=    55.12 Ry     beta= 0.10
     Davidson diagonalization with overlap
     ethr =  3.54E-08,  avg # of iterations =  1.8

     negative rho (up, down):  1.120E-03 0.000E+00

     Adding external electric field

     Computed dipole along edir(3) : 
        Dipole                0.0144 Ry au,          0.0366 Debye
        Dipole field          0.0000 Ry au, 

        Potential amp.       -0.0038 Ry
        Total length         45.0749 bohr


     total cpu time spent up to now is     2893.2 secs

     End of self-consistent calculation

          k = 0.0000 0.0000 0.0000 ( 29537 PWs)   bands (ev):

   -78.5263 -78.4778 -78.1531 -78.1353 -78.1052 -78.0879 -76.8371 -76.8032
   -76.3484 -76.3143 -76.2469 -76.2127 -44.8792 -44.7555 -44.7067 -44.6963
   -44.6501 -44.5035 -44.3688 -44.2948 -44.2450 -44.2425 -44.2053 -44.1563
   -44.1398 -44.1010 -44.0297 -43.9956 -43.9914 -43.8733 -40.5588 -40.3813
   -40.3095 -40.2234 -40.1624 -40.1272 -40.0990 -39.9038 -39.8677 -39.8442
   -39.8316 -39.8285 -39.8047 -39.7647 -39.6862 -39.6226 -39.4143 -39.3883
    -5.9156  -4.0907  -3.9497  -3.7953  -3.7570  -3.6460  -3.4412  -3.2666
    -3.2168  -2.9954  -2.9630  -2.9121  -2.5985  -2.4898  -2.4488  -1.2907
    -1.2864  -1.2745  -0.8999  -0.6277  -0.5152  -0.3922  -0.3377  -0.2244
    -0.1537  -0.1467   0.0485   0.0508   0.2915   0.3274   0.3395   0.5419
     0.5858   0.7470   1.1703   1.5205   1.5324   1.7041   1.8056   1.8090
     1.9545   2.1261   2.4723   2.6058   2.7273   2.8447   2.9301   3.1908
     3.3978   3.5501   3.8005   3.8437   3.8868   3.9476   4.0678   4.1264
     4.2054   4.2307   4.4544   4.5574   4.6142   4.8481   5.0134   5.0581
     5.2334   5.3224   5.7598

          k = 0.0000 0.0174 0.0000 ( 29533 PWs)   bands (ev):

   -78.5262 -78.4778 -78.1531 -78.1353 -78.1052 -78.0879 -76.8372 -76.8032
   -76.3485 -76.3143 -76.2469 -76.2127 -44.8787 -44.7548 -44.7064 -44.6956
   -44.6497 -44.5034 -44.3684 -44.2938 -44.2446 -44.2420 -44.2041 -44.1558
   -44.1400 -44.1011 -44.0296 -43.9956 -43.9914 -43.8733 -40.5596 -40.3828
   -40.3102 -40.2247 -40.1629 -40.1279 -40.0997 -39.9034 -39.8690 -39.8443
   -39.8315 -39.8301 -39.8052 -39.7654 -39.6867 -39.6226 -39.4144 -39.3884
    -5.8564  -4.0420  -3.8996  -3.7460  -3.7057  -3.6153  -3.3996  -3.2361
    -3.1747  -2.9662  -2.9244  -2.8884  -2.5389  -2.4287  -2.4207  -1.2927
    -1.2843  -1.2537  -0.8981  -0.6031  -0.5019  -0.5008  -0.3411  -0.1940
    -0.1876  -0.1589   0.0675   0.0810   0.2600   0.3154   0.3178   0.5268
     0.6249   0.6824   1.1350   1.4593   1.5207   1.6155   1.7540   1.8104
     1.8698   2.0473   2.3299   2.6141   2.6985   2.8734   2.9179   3.0538
     3.1696   3.5569   3.6317   3.7114   3.8029   3.8126   3.8894   4.0218
     4.0444   4.4735   4.4816   4.5541   4.5719   4.7929   4.8984   5.0261
     5.1640   5.4529   5.5605

          k = 0.0000 0.0347 0.0000 ( 29547 PWs)   bands (ev):

   -78.5261 -78.4778 -78.1530 -78.1353 -78.1052 -78.0879 -76.8373 -76.8032
   -76.3486 -76.3143 -76.2470 -76.2127 -44.8775 -44.7531 -44.7056 -44.6935
   -44.6487 -44.5033 -44.3672 -44.2911 -44.2436 -44.2408 -44.2008 -44.1545
   -44.1404 -44.1014 -44.0293 -43.9954 -43.9914 -43.8732 -40.5620 -40.3867
   -40.3121 -40.2281 -40.1643 -40.1298 -40.1020 -39.9023 -39.8725 -39.8447
   -39.8345 -39.8312 -39.8067 -39.7673 -39.6879 -39.6230 -39.4147 -39.3887
    -5.6836  -3.9212  -3.7503  -3.6042  -3.5562  -3.5215  -3.2824  -3.1439
    -3.0514  -2.8777  -2.8180  -2.8115  -2.3654  -2.3383  -2.2502  -1.3047
    -1.2840  -1.1967  -0.9129  -0.7031  -0.5403  -0.4671  -0.3985  -0.2895
    -0.2120  -0.0837   0.0812   0.1221   0.1226   0.2662   0.3858   0.4699
     0.5138   0.7385   1.0128   1.3145   1.3826   1.4884   1.5638   1.6183
     1.8251   1.9691   2.0417   2.4414   2.5205   2.5735   2.6518   2.9438
     3.1198   3.1837   3.1999   3.3924   3.5015   3.5907   3.6535   3.8568
     4.1324   4.2217   4.4527   4.4854   4.6336   4.6480   4.8862   4.8996
     4.9668   5.0412   5.6501

          k = 0.0000 0.0521 0.0000 ( 29545 PWs)   bands (ev):

   -78.5260 -78.4778 -78.1529 -78.1352 -78.1052 -78.0879 -76.8375 -76.8032
   -76.3487 -76.3143 -76.2472 -76.2127 -44.8757 -44.7507 -44.7044 -44.6905
   -44.6474 -44.5031 -44.3655 -44.2875 -44.2423 -44.2391 -44.1963 -44.1528
   -44.1410 -44.1018 -44.0290 -43.9953 -43.9913 -43.8730 -40.5653 -40.3922
   -40.3147 -40.2327 -40.1662 -40.1325 -40.1051 -39.9013 -39.8770 -39.8451
   -39.8405 -39.8309 -39.8085 -39.7698 -39.6896 -39.6234 -39.4150 -39.3891
    -5.4130  -3.8059  -3.5044  -3.3899  -3.3630  -3.3221  -3.1133  -2.9894
    -2.8523  -2.7291  -2.7020  -2.6390  -2.2070  -2.0955  -1.9774  -1.3280
    -1.2978  -1.1448  -1.0003  -0.8862  -0.5310  -0.5302  -0.4476  -0.3376
    -0.2577  -0.1404   0.0566   0.0740   0.2164   0.2252   0.3328   0.3684
     0.4928   0.7969   0.9126   1.1285   1.1288   1.2535   1.2734   1.4447
     1.6733   1.8014   1.8496   2.0058   2.0671   2.2745   2.3684   2.4952
     2.5478   2.7099   3.0462   3.2470   3.3254   3.3988   3.6456   3.7127
     3.9734   4.0095   4.1206   4.2142   4.2755   4.4208   4.6880   4.9861
     5.1476   5.4079   5.7240

          k = 0.0000 0.0694 0.0000 ( 29522 PWs)   bands (ev):

   -78.5258 -78.4778 -78.1528 -78.1350 -78.1052 -78.0879 -76.8377 -76.8032
   -76.3489 -76.3143 -76.2473 -76.2127 -44.8740 -44.7485 -44.7034 -44.6873
   -44.6460 -44.5029 -44.3639 -44.2838 -44.2410 -44.2374 -44.1917 -44.1510
   -44.1417 -44.1022 -44.0286 -43.9951 -43.9913 -43.8728 -40.5685 -40.3978
   -40.3173 -40.2372 -40.1682 -40.1351 -40.1082 -39.9010 -39.8809 -39.8462
   -39.8456 -39.8308 -39.8102 -39.7722 -39.6912 -39.6238 -39.4154 -39.3895
    -5.0766  -3.7720  -3.2092  -3.1593  -3.1405  -3.0361  -2.9301  -2.7856
    -2.5888  -2.5422  -2.5326  -2.4475  -2.0387  -1.7780  -1.7219  -1.3148
    -1.2930  -1.2583  -1.0798  -0.9857  -0.7196  -0.6711  -0.6201  -0.2971
    -0.2438  -0.2121  -0.0229   0.1221   0.1681   0.2756   0.2890   0.3727
     0.5469   0.6096   0.8577   0.8587   0.9232   1.0381   1.1168   1.2555
     1.3483   1.3956   1.4073   1.6171   1.7185   1.8802   2.0897   2.2872
     2.2916   2.3124   2.9460   2.9684   3.0756   3.2127   3.3522   3.3969
     3.9245   3.9283   4.0527   4.0745   4.2224   4.2847   4.5979   4.9552
     5.3308   5.6419   5.7849

          k = 0.0000 0.0868 0.0000 ( 29554 PWs)   bands (ev):

   -78.5257 -78.4778 -78.1528 -78.1350 -78.1052 -78.0879 -76.8378 -76.8032
   -76.3490 -76.3143 -76.2474 -76.2127 -44.8727 -44.7470 -44.7026 -44.6849
   -44.6449 -44.5028 -44.3627 -44.2811 -44.2400 -44.2361 -44.1884 -44.1497
   -44.1421 -44.1025 -44.0283 -43.9950 -43.9913 -43.8727 -40.5709 -40.4019
   -40.3192 -40.2404 -40.1696 -40.1371 -40.1104 -39.9015 -39.8833 -39.8502
   -39.8459 -39.8309 -39.8114 -39.7740 -39.6923 -39.6242 -39.4156 -39.3898
    -4.7388  -3.8432  -3.0072  -2.9240  -2.9118  -2.8025  -2.7462  -2.6026
    -2.4054  -2.3452  -2.3367  -2.2069  -1.8563  -1.6601  -1.5782  -1.4874
    -1.3075  -1.2226  -1.0559  -1.0414  -0.9057  -0.8735  -0.6636  -0.2798
    -0.2037  -0.1583  -0.1116   0.0169   0.2313   0.2553   0.3164   0.3933
     0.5340   0.5417   0.5433   0.6296   0.6955   0.7134   0.8590   0.9306
     1.1026   1.2240   1.2860   1.3437   1.4031   1.7033   1.9067   2.0840
     2.2581   2.2627   2.5605   2.7304   3.0967   3.1173   3.1858   3.2200
     3.6985   3.8622   3.8647   3.9898   4.1211   4.5962   4.6735   4.9366
     5.4372   5.5381   5.8310

          k = 0.0000-0.1042 0.0000 ( 29566 PWs)   bands (ev):

   -78.5257 -78.4778 -78.1527 -78.1349 -78.1052 -78.0879 -76.8378 -76.8032
   -76.3490 -76.3143 -76.2475 -76.2127 -44.8722 -44.7465 -44.7023 -44.6840
   -44.6446 -44.5027 -44.3623 -44.2801 -44.2397 -44.2357 -44.1871 -44.1492
   -44.1423 -44.1027 -44.0282 -43.9949 -43.9913 -43.8726 -40.5718 -40.4035
   -40.3200 -40.2416 -40.1701 -40.1378 -40.1112 -39.9019 -39.8841 -39.8516
   -39.8460 -39.8310 -39.8118 -39.7747 -39.6927 -39.6243 -39.4157 -39.3899
    -4.5625  -3.9227  -2.9310  -2.8207  -2.8018  -2.7367  -2.6329  -2.5336
    -2.3975  -2.2418  -2.2215  -1.9958  -1.7163  -1.6787  -1.6194  -1.5602
    -1.4378  -1.2116  -1.1461  -1.0863  -1.0583  -0.5608  -0.5537  -0.2399
    -0.2203  -0.1816  -0.1610  -0.0406   0.1365   0.2531   0.3507   0.3594
     0.3619   0.4005   0.4653   0.5436   0.6187   0.6939   0.7230   0.7632
     1.0112   1.1230   1.2919   1.3359   1.4299   1.4945   1.9166   2.0234
     2.1872   2.2575   2.4949   2.6325   3.0221   3.1029   3.1513   3.1830
     3.6004   3.7751   3.8366   3.9767   4.0912   4.6017   4.9069   4.9302
     5.3724   5.4721   5.8482

          k = 0.0154 0.0087 0.0000 ( 29578 PWs)   bands (ev):

   -78.5255 -78.4786 -78.1523 -78.1346 -78.1060 -78.0887 -76.8366 -76.8038
   -76.3479 -76.3149 -76.2463 -76.2133 -44.8728 -44.7544 -44.7073 -44.6953
   -44.6506 -44.5099 -44.3625 -44.2937 -44.2455 -44.2362 -44.2040 -44.1567
   -44.1393 -44.1017 -44.0290 -44.0019 -43.9920 -43.8796 -40.5474 -40.3806
   -40.3113 -40.2229 -40.1638 -40.1157 -40.0876 -39.9024 -39.8672 -39.8572
   -39.8326 -39.8280 -39.8063 -39.7664 -39.6853 -39.6238 -39.4272 -39.4012
    -5.8483  -4.0236  -3.8851  -3.7589  -3.7213  -3.5906  -3.4076  -3.2246
    -3.1794  -2.9722  -2.9323  -2.8766  -2.5554  -2.4412  -2.3881  -1.2860
    -1.2706  -1.2668  -0.8761  -0.6216  -0.4888  -0.4387  -0.3356  -0.2741
    -0.1585  -0.1453   0.0288   0.0908   0.2752   0.2916   0.3709   0.5233
     0.5695   0.7458   1.0978   1.4004   1.5003   1.6893   1.7573   1.7703
     1.9409   2.1273   2.3593   2.5236   2.7218   2.8741   2.8842   2.8996
     3.2524   3.5043   3.6078   3.7521   3.8211   3.8678   3.8808   4.0395
     4.2173   4.3986   4.4366   4.4541   4.5262   4.8622   4.9708   5.0378
     5.2542   5.3605   5.7344

          k = 0.0154 0.0260 0.0000 ( 29530 PWs)   bands (ev):

   -78.5254 -78.4786 -78.1522 -78.1345 -78.1060 -78.0887 -76.8366 -76.8038
   -76.3479 -76.3149 -76.2464 -76.2133 -44.8719 -44.7532 -44.7067 -44.6938
   -44.6499 -44.5098 -44.3616 -44.2918 -44.2448 -44.2353 -44.2018 -44.1558
   -44.1395 -44.1019 -44.0288 -44.0019 -43.9920 -43.8796 -40.5490 -40.3833
   -40.3125 -40.2252 -40.1648 -40.1171 -40.0892 -39.9016 -39.8696 -39.8574
   -39.8324 -39.8310 -39.8072 -39.7676 -39.6861 -39.6240 -39.4274 -39.4014
    -5.7317  -3.9321  -3.7869  -3.6827  -3.6053  -3.5287  -3.3282  -3.1640
    -3.0952  -2.9183  -2.8500  -2.8305  -2.4519  -2.3327  -2.3089  -1.3025
    -1.2554  -1.2326  -0.8836  -0.6234  -0.5784  -0.4637  -0.3550  -0.2399
    -0.2116  -0.1571   0.0642   0.1218   0.1879   0.2911   0.3396   0.4772
     0.6302   0.6717   1.0247   1.3348   1.3855   1.5788   1.6403   1.7516
     1.7975   2.0264   2.1411   2.4916   2.5745   2.6590   2.8372   2.8945
     3.1587   3.1837   3.3507   3.4894   3.5238   3.6955   3.7748   3.8982
     4.1969   4.3190   4.3294   4.5635   4.6290   4.6452   4.7705   4.9263
     5.1904   5.5256   5.6054

          k = 0.0154 0.0434 0.0000 ( 29524 PWs)   bands (ev):

   -78.5252 -78.4786 -78.1521 -78.1344 -78.1060 -78.0887 -76.8368 -76.8038
   -76.3481 -76.3149 -76.2465 -76.2133 -44.8704 -44.7511 -44.7057 -44.6913
   -44.6487 -44.5097 -44.3602 -44.2885 -44.2437 -44.2338 -44.1978 -44.1543
   -44.1401 -44.1022 -44.0285 -44.0018 -43.9920 -43.8794 -40.5519 -40.3881
   -40.3147 -40.2293 -40.1664 -40.1194 -40.0918 -39.9004 -39.8737 -39.8578
   -39.8363 -39.8321 -39.8088 -39.7697 -39.6876 -39.6243 -39.4277 -39.4017
    -5.5084  -3.8019  -3.5903  -3.5167  -3.4086  -3.4016  -3.1828  -3.0413
    -2.9303  -2.8069  -2.7393  -2.6966  -2.2440  -2.2257  -2.0690  -1.3311
    -1.2557  -1.1708  -0.9526  -0.8135  -0.5325  -0.4493  -0.4252  -0.3344
    -0.2586  -0.0701  -0.0135   0.1102   0.1393   0.2390   0.3936   0.3989
     0.5020   0.8106   0.8595   1.1925   1.2206   1.3862   1.3953   1.5336
     1.7802   1.8186   1.9280   2.2153   2.2898   2.3198   2.5108   2.6192
     2.7241   2.8779   3.0610   3.3487   3.3880   3.4321   3.6990   3.7990
     3.8487   4.0649   4.2841   4.3245   4.5173   4.6506   4.7959   4.8239
     5.0632   5.4006   5.6033

          k = 0.0154 0.0608 0.0000 ( 29509 PWs)   bands (ev):

   -78.5251 -78.4786 -78.1521 -78.1343 -78.1060 -78.0887 -76.8370 -76.8038
   -76.3482 -76.3149 -76.2467 -76.2133 -44.8686 -44.7488 -44.7047 -44.6881
   -44.6474 -44.5095 -44.3585 -44.2848 -44.2424 -44.2321 -44.1933 -44.1526
   -44.1407 -44.1027 -44.0281 -44.0016 -43.9920 -43.8793 -40.5552 -40.3937
   -40.3173 -40.2338 -40.1683 -40.1221 -40.0950 -39.8997 -39.8780 -39.8582
   -39.8421 -39.8319 -39.8106 -39.7722 -39.6893 -39.6247 -39.4279 -39.4020
    -5.2006  -3.7211  -3.3099  -3.2800  -3.2162  -3.1614  -3.0019  -2.8575
    -2.6894  -2.6398  -2.6042  -2.5016  -2.0750  -1.9488  -1.7961  -1.3332
    -1.2725  -1.2140  -1.0381  -0.9626  -0.6234  -0.6094  -0.4951  -0.3077
    -0.3020  -0.1715  -0.0573   0.0589   0.1798   0.2876   0.2975   0.3634
     0.5285   0.6210   0.8753   0.9909   1.0537   1.1325   1.1899   1.4109
     1.4209   1.5827   1.6221   1.7369   1.9173   1.9349   2.2841   2.2861
     2.3693   2.4542   3.0087   3.0242   3.2099   3.2458   3.4617   3.5514
     3.9426   3.9560   4.1115   4.2203   4.3017   4.3820   4.6004   4.9164
     5.0458   5.6615   5.7213

          k = 0.0154 0.0781 0.0000 ( 29532 PWs)   bands (ev):

   -78.5249 -78.4786 -78.1520 -78.1342 -78.1060 -78.0887 -76.8371 -76.8038
   -76.3483 -76.3149 -76.2468 -76.2133 -44.8671 -44.7469 -44.7038 -44.6853
   -44.6462 -44.5094 -44.3571 -44.2816 -44.2413 -44.2306 -44.1892 -44.1511
   -44.1412 -44.1030 -44.0278 -44.0015 -43.9919 -43.8792 -40.5581 -40.3986
   -40.3195 -40.2377 -40.1699 -40.1244 -40.0977 -39.8999 -39.8811 -39.8586
   -39.8470 -39.8319 -39.8120 -39.7743 -39.6907 -39.6251 -39.4282 -39.4023
    -4.8519  -3.7436  -3.0407  -3.0189  -2.9908  -2.9084  -2.8279  -2.6451
    -2.4471  -2.4287  -2.4088  -2.3054  -1.8971  -1.6980  -1.6475  -1.4153
    -1.2800  -1.1871  -1.0841  -1.0360  -0.8616  -0.7590  -0.7154  -0.3487
    -0.2246  -0.1529  -0.0841   0.0044   0.1264   0.2183   0.3432   0.4204
     0.4207   0.5307   0.6998   0.7040   0.8105   0.9772   1.0061   1.0604
     1.1744   1.2822   1.3454   1.3999   1.5396   1.8784   1.9079   2.1369
     2.2767   2.2869   2.6218   2.9376   3.0204   3.1617   3.2901   3.3049
     3.8819   3.8927   3.9846   3.9997   4.1630   4.3528   4.6357   4.9211
     5.1964   5.7201   5.7612

          k = 0.0154 0.0955 0.0000 ( 29564 PWs)   bands (ev):

   -78.5249 -78.4786 -78.1519 -78.1342 -78.1060 -78.0887 -76.8372 -76.8038
   -76.3484 -76.3149 -76.2469 -76.2133 -44.8662 -44.7459 -44.7033 -44.6837
   -44.6455 -44.5093 -44.3563 -44.2797 -44.2407 -44.2297 -44.1869 -44.1503
   -44.1416 -44.1032 -44.0276 -44.0014 -43.9919 -43.8791 -40.5597 -40.4015
   -40.3208 -40.2400 -40.1709 -40.1258 -40.0992 -39.9005 -39.8827 -39.8589
   -39.8496 -39.8320 -39.8128 -39.7755 -39.6915 -39.6253 -39.4284 -39.4025
    -4.5614  -3.8485  -2.8963  -2.8165  -2.7990  -2.7389  -2.7080  -2.5047
    -2.3562  -2.2510  -2.2436  -2.0303  -1.7244  -1.7030  -1.5861  -1.5597
    -1.4189  -1.1752  -1.1667  -1.1015  -0.9829  -0.6419  -0.6162  -0.2681
    -0.2437  -0.2373  -0.1472  -0.0498   0.1309   0.1450   0.2753   0.2810
     0.3852   0.3945   0.4384   0.5518   0.6824   0.7318   0.8219   0.8952
     1.0342   1.1249   1.2544   1.3998   1.5430   1.5830   1.8631   2.0105
     2.2625   2.2954   2.3997   2.7675   3.0122   3.1110   3.1792   3.2036
     3.6720   3.8203   3.8520   3.9440   4.0876   4.4382   4.7354   5.0426
     5.2707   5.5658   5.7572

          k = 0.0154-0.0955 0.0000 ( 29564 PWs)   bands (ev):

   -78.5249 -78.4786 -78.1519 -78.1342 -78.1060 -78.0887 -76.8372 -76.8038
   -76.3484 -76.3149 -76.2469 -76.2133 -44.8662 -44.7459 -44.7033 -44.6837
   -44.6455 -44.5093 -44.3563 -44.2797 -44.2407 -44.2297 -44.1869 -44.1503
   -44.1416 -44.1032 -44.0276 -44.0014 -43.9919 -43.8791 -40.5597 -40.4015
   -40.3208 -40.2400 -40.1709 -40.1258 -40.0992 -39.9005 -39.8827 -39.8589
   -39.8496 -39.8320 -39.8128 -39.7755 -39.6915 -39.6253 -39.4284 -39.4025
    -4.5614  -3.8485  -2.8963  -2.8165  -2.7990  -2.7389  -2.7080  -2.5047
    -2.3562  -2.2510  -2.2436  -2.0303  -1.7244  -1.7030  -1.5861  -1.5597
    -1.4189  -1.1752  -1.1667  -1.1015  -0.9829  -0.6419  -0.6162  -0.2681
    -0.2437  -0.2373  -0.1472  -0.0498   0.1309   0.1450   0.2753   0.2810
     0.3852   0.3945   0.4384   0.5518   0.6824   0.7318   0.8219   0.8952
     1.0342   1.1249   1.2544   1.3998   1.5430   1.5830   1.8631   2.0105
     2.2625   2.2954   2.3997   2.7675   3.0122   3.1110   3.1792   3.2036
     3.6720   3.8203   3.8520   3.9440   4.0876   4.4382   4.7354   5.0426
     5.2707   5.5658   5.7572

          k = 0.0154-0.0781 0.0000 ( 29532 PWs)   bands (ev):

   -78.5249 -78.4786 -78.1520 -78.1342 -78.1060 -78.0887 -76.8371 -76.8038
   -76.3483 -76.3149 -76.2468 -76.2133 -44.8671 -44.7469 -44.7038 -44.6853
   -44.6462 -44.5094 -44.3571 -44.2816 -44.2413 -44.2306 -44.1892 -44.1511
   -44.1412 -44.1030 -44.0278 -44.0015 -43.9919 -43.8792 -40.5581 -40.3986
   -40.3195 -40.2377 -40.1699 -40.1244 -40.0977 -39.8999 -39.8811 -39.8586
   -39.8470 -39.8319 -39.8120 -39.7743 -39.6907 -39.6251 -39.4282 -39.4023
    -4.8519  -3.7436  -3.0407  -3.0189  -2.9908  -2.9084  -2.8279  -2.6451
    -2.4471  -2.4287  -2.4088  -2.3054  -1.8971  -1.6980  -1.6475  -1.4153
    -1.2800  -1.1871  -1.0841  -1.0360  -0.8616  -0.7590  -0.7154  -0.3487
    -0.2246  -0.1529  -0.0841   0.0044   0.1264   0.2183   0.3432   0.4204
     0.4207   0.5307   0.6998   0.7040   0.8105   0.9772   1.0061   1.0604
     1.1744   1.2822   1.3454   1.3999   1.5396   1.8784   1.9079   2.1369
     2.2767   2.2869   2.6218   2.9376   3.0204   3.1617   3.2901   3.3049
     3.8819   3.8927   3.9846   3.9997   4.1630   4.3528   4.6357   4.9211
     5.1964   5.7201   5.7612

          k = 0.0154-0.0608 0.0000 ( 29509 PWs)   bands (ev):

   -78.5251 -78.4786 -78.1521 -78.1343 -78.1060 -78.0887 -76.8370 -76.8038
   -76.3482 -76.3149 -76.2467 -76.2133 -44.8686 -44.7488 -44.7047 -44.6881
   -44.6474 -44.5095 -44.3585 -44.2848 -44.2424 -44.2321 -44.1933 -44.1526
   -44.1407 -44.1027 -44.0281 -44.0016 -43.9920 -43.8793 -40.5552 -40.3937
   -40.3173 -40.2338 -40.1683 -40.1221 -40.0950 -39.8997 -39.8780 -39.8582
   -39.8421 -39.8319 -39.8106 -39.7722 -39.6893 -39.6247 -39.4279 -39.4020
    -5.2006  -3.7211  -3.3099  -3.2800  -3.2162  -3.1614  -3.0019  -2.8575
    -2.6894  -2.6398  -2.6042  -2.5016  -2.0750  -1.9488  -1.7961  -1.3331
    -1.2725  -1.2140  -1.0381  -0.9626  -0.6234  -0.6094  -0.4951  -0.3077
    -0.3020  -0.1715  -0.0573   0.0589   0.1798   0.2876   0.2975   0.3634
     0.5285   0.6210   0.8753   0.9909   1.0537   1.1325   1.1899   1.4109
     1.4209   1.5827   1.6221   1.7369   1.9173   1.9349   2.2841   2.2861
     2.3693   2.4542   3.0087   3.0242   3.2099   3.2458   3.4617   3.5514
     3.9426   3.9560   4.1115   4.2203   4.3017   4.3820   4.6004   4.9164
     5.0458   5.6615   6.0343

          k = 0.0154-0.0434 0.0000 ( 29524 PWs)   bands (ev):

   -78.5252 -78.4786 -78.1521 -78.1344 -78.1060 -78.0887 -76.8368 -76.8038
   -76.3481 -76.3149 -76.2465 -76.2133 -44.8704 -44.7511 -44.7057 -44.6913
   -44.6487 -44.5097 -44.3602 -44.2885 -44.2437 -44.2338 -44.1978 -44.1543
   -44.1401 -44.1022 -44.0285 -44.0018 -43.9920 -43.8794 -40.5519 -40.3881
   -40.3147 -40.2293 -40.1664 -40.1194 -40.0918 -39.9004 -39.8737 -39.8578
   -39.8363 -39.8321 -39.8088 -39.7697 -39.6876 -39.6243 -39.4277 -39.4017
    -5.5084  -3.8019  -3.5903  -3.5167  -3.4086  -3.4016  -3.1828  -3.0413
    -2.9303  -2.8069  -2.7393  -2.6966  -2.2440  -2.2257  -2.0690  -1.3311
    -1.2557  -1.1708  -0.9526  -0.8135  -0.5325  -0.4493  -0.4252  -0.3344
    -0.2586  -0.0701  -0.0135   0.1102   0.1393   0.2390   0.3936   0.3989
     0.5020   0.8106   0.8595   1.1925   1.2206   1.3862   1.3953   1.5336
     1.7801   1.8186   1.9280   2.2153   2.2898   2.3198   2.5108   2.6192
     2.7241   2.8779   3.0610   3.3487   3.3880   3.4321   3.6990   3.7990
     3.8487   4.0649   4.2841   4.3245   4.5173   4.6506   4.7959   4.8239
     5.0632   5.4006   5.6033

          k = 0.0154-0.0260 0.0000 ( 29530 PWs)   bands (ev):

   -78.5254 -78.4786 -78.1522 -78.1345 -78.1060 -78.0887 -76.8366 -76.8038
   -76.3479 -76.3149 -76.2464 -76.2133 -44.8719 -44.7532 -44.7067 -44.6938
   -44.6499 -44.5098 -44.3616 -44.2918 -44.2448 -44.2353 -44.2018 -44.1558
   -44.1395 -44.1019 -44.0288 -44.0019 -43.9920 -43.8796 -40.5490 -40.3833
   -40.3125 -40.2252 -40.1648 -40.1171 -40.0892 -39.9016 -39.8696 -39.8574
   -39.8324 -39.8310 -39.8072 -39.7676 -39.6861 -39.6240 -39.4274 -39.4014
    -5.7317  -3.9321  -3.7869  -3.6827  -3.6053  -3.5287  -3.3282  -3.1640
    -3.0952  -2.9183  -2.8500  -2.8305  -2.4519  -2.3327  -2.3089  -1.3025
    -1.2554  -1.2326  -0.8836  -0.6234  -0.5784  -0.4637  -0.3550  -0.2398
    -0.2116  -0.1571   0.0642   0.1218   0.1879   0.2911   0.3396   0.4772
     0.6302   0.6717   1.0247   1.3348   1.3855   1.5788   1.6403   1.7516
     1.7975   2.0264   2.1411   2.4916   2.5745   2.6590   2.8372   2.8945
     3.1587   3.1837   3.3507   3.4894   3.5238   3.6955   3.7748   3.8982
     4.1969   4.3190   4.3294   4.5635   4.6290   4.6452   4.7705   4.9263
     5.1904   5.5259   5.6054

          k = 0.0154-0.0087 0.0000 ( 29578 PWs)   bands (ev):

   -78.5255 -78.4786 -78.1523 -78.1346 -78.1060 -78.0887 -76.8366 -76.8038
   -76.3479 -76.3149 -76.2463 -76.2133 -44.8728 -44.7544 -44.7073 -44.6953
   -44.6506 -44.5099 -44.3625 -44.2937 -44.2455 -44.2362 -44.2040 -44.1567
   -44.1393 -44.1017 -44.0290 -44.0019 -43.9920 -43.8796 -40.5474 -40.3806
   -40.3113 -40.2229 -40.1638 -40.1157 -40.0876 -39.9024 -39.8672 -39.8572
   -39.8326 -39.8280 -39.8063 -39.7664 -39.6853 -39.6238 -39.4272 -39.4012
    -5.8483  -4.0236  -3.8851  -3.7589  -3.7213  -3.5906  -3.4076  -3.2246
    -3.1794  -2.9722  -2.9323  -2.8766  -2.5554  -2.4412  -2.3881  -1.2860
    -1.2706  -1.2668  -0.8761  -0.6216  -0.4888  -0.4387  -0.3356  -0.2741
    -0.1585  -0.1453   0.0288   0.0908   0.2752   0.2916   0.3709   0.5233
     0.5695   0.7458   1.0978   1.4004   1.5003   1.6893   1.7573   1.7703
     1.9409   2.1273   2.3593   2.5236   2.7218   2.8741   2.8842   2.8996
     3.2524   3.5043   3.6078   3.7521   3.8211   3.8678   3.8808   4.0395
     4.2173   4.3986   4.4366   4.4541   4.5262   4.8622   4.9708   5.0378
     5.2542   5.3605   5.7344

          k = 0.0309 0.0174 0.0000 ( 29551 PWs)   bands (ev):

   -78.5230 -78.4810 -78.1499 -78.1322 -78.1084 -78.0910 -76.8349 -76.8055
   -76.3462 -76.3166 -76.2446 -76.2150 -44.8541 -44.7513 -44.7090 -44.6922
   -44.6520 -44.5287 -44.3439 -44.2902 -44.2469 -44.2178 -44.2004 -44.1579
   -44.1375 -44.1038 -44.0272 -44.0204 -43.9939 -43.8981 -40.5139 -40.3785
   -40.3163 -40.2210 -40.1680 -40.0821 -40.0542 -39.8994 -39.8939 -39.8655
   -39.8358 -39.8264 -39.8108 -39.7711 -39.6825 -39.6273 -39.4649 -39.4389
    -5.6511  -3.8290  -3.6991  -3.6931  -3.5871  -3.4299  -3.3111  -3.1033
    -3.0691  -2.9065  -2.8372  -2.7706  -2.4460  -2.2828  -2.2109  -1.2795
    -1.2662  -1.2111  -0.8205  -0.6462  -0.6089  -0.4125  -0.3416  -0.2705
    -0.1959  -0.1886  -0.0250   0.1761   0.2267   0.2627   0.3831   0.4500
     0.6045   0.7327   0.8926   1.1488   1.4354   1.5657   1.6046   1.6949
     1.8999   2.0445   2.0810   2.3228   2.4322   2.5908   2.7626   2.9162
     2.9316   2.9841   3.3710   3.4451   3.5445   3.6953   3.8702   3.8810
     4.0058   4.2135   4.2749   4.3456   4.5736   4.7512   4.7762   5.0655
     5.0996   5.2339   5.7404

          k = 0.0309 0.0347 0.0000 ( 29544 PWs)   bands (ev):

   -78.5229 -78.4810 -78.1498 -78.1321 -78.1084 -78.0911 -76.8350 -76.8055
   -76.3463 -76.3166 -76.2447 -76.2150 -44.8529 -44.7497 -44.7083 -44.6903
   -44.6513 -44.5286 -44.3428 -44.2878 -44.2462 -44.2166 -44.1975 -44.1569
   -44.1379 -44.1040 -44.0270 -44.0204 -43.9939 -43.8980 -40.5161 -40.3821
   -40.3178 -40.2241 -40.1691 -40.0839 -40.0563 -39.8984 -39.8941 -39.8686
   -39.8355 -39.8304 -39.8119 -39.7725 -39.6836 -39.6276 -39.4650 -39.4390
    -5.4827  -3.7076  -3.6087  -3.5603  -3.4212  -3.3353  -3.2022  -3.0156
    -2.9408  -2.8333  -2.7068  -2.7054  -2.3223  -2.1308  -2.0757  -1.3199
    -1.2220  -1.1936  -0.9079  -0.7796  -0.5724  -0.3817  -0.3793  -0.3016
    -0.2996  -0.2027   0.0754   0.1305   0.1415   0.2410   0.3653   0.3700
     0.6254   0.7446   0.7936   1.0814   1.2796   1.4209   1.4210   1.6745
     1.7156   1.8137   1.9924   2.2077   2.2343   2.4089   2.5379   2.5658
     2.6708   2.9629   3.1477   3.1626   3.4040   3.4615   3.6041   3.8502
     3.8868   4.0996   4.2660   4.2730   4.4225   4.5675   4.7158   5.1288
     5.1562   5.3102   5.6137

          k = 0.0309 0.0521 0.0000 ( 29544 PWs)   bands (ev):

   -78.5228 -78.4810 -78.1497 -78.1320 -78.1084 -78.0911 -76.8352 -76.8055
   -76.3464 -76.3166 -76.2449 -76.2150 -44.8513 -44.7476 -44.7075 -44.6876
   -44.6502 -44.5286 -44.3413 -44.2844 -44.2452 -44.2151 -44.1934 -44.1556
   -44.1384 -44.1044 -44.0266 -44.0204 -43.9939 -43.8980 -40.5191 -40.3870
   -40.3199 -40.2282 -40.1707 -40.0864 -40.0591 -39.8974 -39.8945 -39.8726
   -39.8357 -39.8353 -39.8133 -39.7745 -39.6851 -39.6279 -39.4651 -39.4391
    -5.2177  -3.5921  -3.4405  -3.3274  -3.2091  -3.1751  -3.0387  -2.8651
    -2.7337  -2.6983  -2.6006  -2.5163  -2.0946  -2.0039  -1.8239  -1.3454
    -1.2018  -1.1992  -1.0691  -0.9027  -0.6045  -0.5212  -0.4037  -0.3678
    -0.3205  -0.1856  -0.0580   0.0429   0.1559   0.2294   0.2943   0.4151
     0.5454   0.6143   0.7983   1.0435   1.0944   1.1554   1.2950   1.4859
     1.5309   1.5757   1.7628   1.8127   1.9040   2.0530   2.2203   2.3596
     2.4737   2.6009   2.9017   3.0614   3.2021   3.3156   3.3773   3.7408
     3.8778   3.9062   4.2049   4.3196   4.4355   4.4678   4.7072   4.8294
     5.1589   5.1973   5.4180

          k = 0.0309 0.0694 0.0000 ( 29549 PWs)   bands (ev):

   -78.5226 -78.4810 -78.1497 -78.1319 -78.1084 -78.0911 -76.8354 -76.8055
   -76.3466 -76.3166 -76.2450 -76.2150 -44.8496 -44.7456 -44.7066 -44.6847
   -44.6491 -44.5285 -44.3398 -44.2811 -44.2442 -44.2135 -44.1892 -44.1543
   -44.1390 -44.1047 -44.0263 -44.0203 -43.9938 -43.8980 -40.5221 -40.3920
   -40.3219 -40.2323 -40.1722 -40.0888 -40.0619 -39.8968 -39.8951 -39.8762
   -39.8408 -39.8352 -39.8147 -39.7764 -39.6866 -39.6282 -39.4653 -39.4393
    -4.8850  -3.5644  -3.2150  -3.0355  -2.9798  -2.9691  -2.8565  -2.6548
    -2.5372  -2.4559  -2.4319  -2.3159  -1.8414  -1.7933  -1.7329  -1.3762
    -1.2531  -1.1632  -1.1005  -1.0535  -0.7588  -0.7239  -0.6143  -0.4629
    -0.2488  -0.1501  -0.1066  -0.0332   0.0608   0.1919   0.2459   0.4117
     0.4219   0.5308   0.6978   0.8112   0.9451   1.0005   1.0577   1.2153
     1.2927   1.3027   1.4828   1.5032   1.6041   1.9056   2.0995   2.1849
     2.2309   2.3250   2.7054   2.8868   3.1216   3.1405   3.3565   3.4999
     3.8494   3.9468   4.0345   4.2060   4.2685   4.4933   4.5884   4.6475
     4.9110   5.2788   5.4867

          k = 0.0309 0.0868 0.0000 ( 29571 PWs)   bands (ev):

   -78.5225 -78.4810 -78.1496 -78.1318 -78.1084 -78.0911 -76.8355 -76.8055
   -76.3467 -76.3166 -76.2451 -76.2150 -44.8484 -44.7442 -44.7060 -44.6825
   -44.6484 -44.5285 -44.3386 -44.2786 -44.2436 -44.2123 -44.1861 -44.1533
   -44.1394 -44.1050 -44.0261 -44.0203 -43.9938 -43.8979 -40.5242 -40.3957
   -40.3235 -40.2352 -40.1733 -40.0906 -40.0640 -39.8969 -39.8955 -39.8785
   -39.8445 -39.8352 -39.8157 -39.7779 -39.6877 -39.6284 -39.4654 -39.4395
    -4.5446  -3.6494  -2.9940  -2.8063  -2.7765  -2.7471  -2.7055  -2.4399
    -2.3288  -2.2872  -2.2466  -2.0747  -1.7886  -1.6671  -1.5858  -1.5579
    -1.2881  -1.2259  -1.2182  -1.0100  -0.8523  -0.7698  -0.7490  -0.4463
    -0.2820  -0.2409  -0.0999  -0.0917  -0.0106   0.0700   0.1150   0.3164
     0.3285   0.3903   0.4815   0.6565   0.6757   0.8073   0.8375   1.0522
     1.0878   1.1634   1.3325   1.5353   1.6688   1.7517   1.8486   1.9952
     2.2457   2.2817   2.5289   2.8988   2.9717   3.1078   3.2777   3.3047
     3.8342   3.8875   3.9216   3.9716   4.1066   4.1809   4.5565   4.7621
     5.1183   5.3602   5.5041

          k = 0.0309 0.1042 0.0000 ( 29574 PWs)   bands (ev):

   -78.5225 -78.4811 -78.1496 -78.1318 -78.1084 -78.0911 -76.8355 -76.8055
   -76.3467 -76.3166 -76.2452 -76.2150 -44.8480 -44.7437 -44.7058 -44.6817
   -44.6481 -44.5285 -44.3382 -44.2777 -44.2433 -44.2118 -44.1850 -44.1529
   -44.1396 -44.1051 -44.0260 -44.0203 -43.9938 -43.8979 -40.5250 -40.3971
   -40.3241 -40.2362 -40.1737 -40.0912 -40.0647 -39.8971 -39.8957 -39.8793
   -39.8457 -39.8352 -39.8161 -39.7784 -39.6881 -39.6285 -39.4654 -39.4395
    -4.3614  -3.7412  -2.8926  -2.7160  -2.6834  -2.6466  -2.6426  -2.3510
    -2.2794  -2.1752  -2.1613  -1.8821  -1.7833  -1.6900  -1.6184  -1.5271
    -1.4766  -1.3456  -1.1853  -1.0186  -0.9334  -0.6149  -0.4672  -0.4584
    -0.3510  -0.3190  -0.2236  -0.2200  -0.0909   0.0077   0.0191   0.1664
     0.3460   0.3771   0.3967   0.5592   0.6860   0.6968   0.8451   0.8965
     1.0132   1.1315   1.3422   1.6011   1.6017   1.7343   1.8039   1.9265
     2.2308   2.2837   2.5066   2.9040   2.9198   3.1110   3.1821   3.2774
     3.7412   3.8312   3.8519   3.8818   4.0486   4.1664   4.5532   4.8009
     5.2829   5.4032   5.4954

          k = 0.0309-0.0868 0.0000 ( 29571 PWs)   bands (ev):

   -78.5225 -78.4810 -78.1496 -78.1318 -78.1084 -78.0911 -76.8355 -76.8055
   -76.3467 -76.3166 -76.2451 -76.2150 -44.8484 -44.7442 -44.7060 -44.6825
   -44.6484 -44.5285 -44.3386 -44.2786 -44.2436 -44.2123 -44.1861 -44.1533
   -44.1394 -44.1050 -44.0261 -44.0203 -43.9938 -43.8979 -40.5242 -40.3957
   -40.3235 -40.2352 -40.1733 -40.0906 -40.0640 -39.8969 -39.8955 -39.8785
   -39.8445 -39.8352 -39.8157 -39.7779 -39.6877 -39.6284 -39.4654 -39.4395
    -4.5446  -3.6494  -2.9940  -2.8063  -2.7765  -2.7471  -2.7055  -2.4399
    -2.3288  -2.2872  -2.2466  -2.0747  -1.7886  -1.6671  -1.5858  -1.5579
    -1.2881  -1.2259  -1.2182  -1.0100  -0.8523  -0.7698  -0.7490  -0.4463
    -0.2820  -0.2409  -0.0999  -0.0917  -0.0106   0.0700   0.1150   0.3164
     0.3285   0.3903   0.4815   0.6565   0.6757   0.8073   0.8375   1.0522
     1.0878   1.1634   1.3325   1.5353   1.6688   1.7517   1.8486   1.9952
     2.2457   2.2817   2.5289   2.8988   2.9717   3.1078   3.2777   3.3047
     3.8342   3.8875   3.9216   3.9716   4.1066   4.1809   4.5565   4.7621
     5.1183   5.3602   5.5040

          k = 0.0309-0.0694 0.0000 ( 29549 PWs)   bands (ev):

   -78.5226 -78.4810 -78.1497 -78.1319 -78.1084 -78.0911 -76.8354 -76.8055
   -76.3466 -76.3166 -76.2450 -76.2150 -44.8496 -44.7456 -44.7066 -44.6847
   -44.6491 -44.5285 -44.3398 -44.2811 -44.2442 -44.2135 -44.1892 -44.1543
   -44.1390 -44.1047 -44.0263 -44.0203 -43.9938 -43.8980 -40.5221 -40.3920
   -40.3219 -40.2323 -40.1722 -40.0888 -40.0619 -39.8968 -39.8951 -39.8762
   -39.8408 -39.8352 -39.8147 -39.7764 -39.6866 -39.6282 -39.4653 -39.4393
    -4.8850  -3.5644  -3.2150  -3.0355  -2.9798  -2.9691  -2.8565  -2.6548
    -2.5372  -2.4559  -2.4319  -2.3159  -1.8414  -1.7933  -1.7329  -1.3762
    -1.2531  -1.1632  -1.1005  -1.0535  -0.7588  -0.7239  -0.6144  -0.4629
    -0.2488  -0.1501  -0.1066  -0.0332   0.0608   0.1919   0.2459   0.4117
     0.4219   0.5308   0.6978   0.8112   0.9451   1.0005   1.0577   1.2153
     1.2927   1.3027   1.4828   1.5032   1.6041   1.9056   2.0995   2.1849
     2.2309   2.3250   2.7054   2.8868   3.1216   3.1405   3.3565   3.4999
     3.8494   3.9468   4.0345   4.2060   4.2685   4.4933   4.5884   4.6475
     4.9110   5.2788   5.4867

          k = 0.0309-0.0521 0.0000 ( 29544 PWs)   bands (ev):

   -78.5228 -78.4810 -78.1497 -78.1320 -78.1084 -78.0911 -76.8352 -76.8055
   -76.3464 -76.3166 -76.2449 -76.2150 -44.8513 -44.7476 -44.7075 -44.6876
   -44.6502 -44.5286 -44.3413 -44.2844 -44.2452 -44.2151 -44.1934 -44.1556
   -44.1384 -44.1044 -44.0266 -44.0204 -43.9939 -43.8980 -40.5191 -40.3870
   -40.3199 -40.2282 -40.1707 -40.0864 -40.0591 -39.8974 -39.8945 -39.8726
   -39.8357 -39.8353 -39.8133 -39.7745 -39.6851 -39.6279 -39.4651 -39.4391
    -5.2177  -3.5921  -3.4405  -3.3274  -3.2091  -3.1751  -3.0387  -2.8651
    -2.7337  -2.6983  -2.6006  -2.5163  -2.0946  -2.0039  -1.8239  -1.3454
    -1.2018  -1.1992  -1.0691  -0.9027  -0.6045  -0.5212  -0.4037  -0.3678
    -0.3205  -0.1856  -0.0580   0.0429   0.1559   0.2295   0.2943   0.4151
     0.5454   0.6143   0.7983   1.0435   1.0944   1.1554   1.2950   1.4859
     1.5309   1.5757   1.7628   1.8127   1.9040   2.0530   2.2203   2.3596
     2.4737   2.6009   2.9017   3.0614   3.2021   3.3156   3.3773   3.7408
     3.8778   3.9062   4.2049   4.3196   4.4355   4.4678   4.7072   4.8294
     5.1589   5.1973   5.4180

          k = 0.0309-0.0347 0.0000 ( 29544 PWs)   bands (ev):

   -78.5229 -78.4810 -78.1498 -78.1321 -78.1084 -78.0911 -76.8350 -76.8055
   -76.3463 -76.3166 -76.2447 -76.2150 -44.8529 -44.7497 -44.7083 -44.6903
   -44.6513 -44.5286 -44.3428 -44.2878 -44.2462 -44.2166 -44.1975 -44.1569
   -44.1379 -44.1040 -44.0270 -44.0204 -43.9939 -43.8980 -40.5161 -40.3821
   -40.3178 -40.2241 -40.1691 -40.0839 -40.0563 -39.8984 -39.8941 -39.8686
   -39.8355 -39.8304 -39.8119 -39.7725 -39.6836 -39.6276 -39.4650 -39.4390
    -5.4827  -3.7076  -3.6087  -3.5603  -3.4212  -3.3353  -3.2022  -3.0156
    -2.9408  -2.8333  -2.7068  -2.7054  -2.3223  -2.1308  -2.0757  -1.3199
    -1.2220  -1.1936  -0.9079  -0.7796  -0.5724  -0.3817  -0.3793  -0.3016
    -0.2996  -0.2027   0.0754   0.1305   0.1415   0.2410   0.3653   0.3700
     0.6254   0.7446   0.7936   1.0814   1.2796   1.4209   1.4210   1.6745
     1.7157   1.8137   1.9924   2.2077   2.2343   2.4089   2.5379   2.5658
     2.6708   2.9629   3.1477   3.1626   3.4040   3.4615   3.6041   3.8502
     3.8868   4.0996   4.2660   4.2730   4.4225   4.5675   4.7158   5.1288
     5.1562   5.3102   5.6137

          k = 0.0309-0.0174 0.0000 ( 29551 PWs)   bands (ev):

   -78.5230 -78.4810 -78.1499 -78.1322 -78.1084 -78.0910 -76.8349 -76.8055
   -76.3462 -76.3166 -76.2446 -76.2150 -44.8541 -44.7513 -44.7090 -44.6922
   -44.6520 -44.5287 -44.3439 -44.2902 -44.2469 -44.2178 -44.2004 -44.1579
   -44.1375 -44.1038 -44.0272 -44.0204 -43.9939 -43.8981 -40.5139 -40.3785
   -40.3163 -40.2210 -40.1680 -40.0821 -40.0542 -39.8994 -39.8939 -39.8655
   -39.8358 -39.8264 -39.8108 -39.7711 -39.6825 -39.6273 -39.4649 -39.4389
    -5.6511  -3.8290  -3.6991  -3.6931  -3.5871  -3.4299  -3.3111  -3.1033
    -3.0691  -2.9065  -2.8372  -2.7706  -2.4460  -2.2828  -2.2109  -1.2795
    -1.2662  -1.2111  -0.8205  -0.6462  -0.6089  -0.4125  -0.3416  -0.2705
    -0.1959  -0.1886  -0.0250   0.1761   0.2267   0.2627   0.3831   0.4500
     0.6045   0.7327   0.8926   1.1488   1.4354   1.5657   1.6046   1.6949
     1.8999   2.0445   2.0810   2.3228   2.4322   2.5908   2.7626   2.9162
     2.9316   2.9841   3.3710   3.4451   3.5445   3.6953   3.8702   3.8810
     4.0058   4.2135   4.2749   4.3456   4.5736   4.7512   4.7762   5.0655
     5.0995   5.2339   5.7404

          k = 0.0309-0.0000 0.0000 ( 29610 PWs)   bands (ev):

   -78.5231 -78.4810 -78.1499 -78.1322 -78.1084 -78.0911 -76.8349 -76.8055
   -76.3462 -76.3166 -76.2446 -76.2151 -44.8545 -44.7519 -44.7092 -44.6929
   -44.6523 -44.5287 -44.3443 -44.2911 -44.2472 -44.2182 -44.2015 -44.1583
   -44.1373 -44.1037 -44.0273 -44.0204 -43.9939 -43.8981 -40.5131 -40.3772
   -40.3158 -40.2199 -40.1676 -40.0814 -40.0535 -39.8998 -39.8939 -39.8643
   -39.8359 -39.8249 -39.8104 -39.7705 -39.6821 -39.6273 -39.4649 -39.4388
    -5.7087  -3.8771  -3.7458  -3.6939  -3.6737  -3.4608  -3.3484  -3.1322
    -3.1123  -2.9273  -2.8863  -2.7920  -2.4775  -2.3662  -2.2382  -1.2826
    -1.2542  -1.2321  -0.8072  -0.6280  -0.5704  -0.4247  -0.3392  -0.2765
    -0.1838  -0.1268  -0.0615   0.1824   0.2216   0.2379   0.4733   0.4993
     0.5074   0.7747   0.9213   1.1781   1.5080   1.6369   1.6522   1.6735
     1.9786   2.1370   2.1678   2.3302   2.4566   2.6202   2.8133   2.8778
     3.1116   3.1760   3.4059   3.4651   3.6842   3.7927   3.8545   3.9882
     4.0872   4.1728   4.4312   4.5438   4.6561   4.8084   4.8090   5.0057
     5.0873   5.2427   5.5724

          k = 0.0463 0.0260 0.0000 ( 29583 PWs)   bands (ev):

   -78.5191 -78.4848 -78.1461 -78.1284 -78.1122 -78.0948 -76.8323 -76.8083
   -76.3435 -76.3194 -76.2420 -76.2178 -44.8243 -44.7465 -44.7119 -44.6875
   -44.6546 -44.5585 -44.3145 -44.2850 -44.2494 -44.1950 -44.1886 -44.1600
   -44.1347 -44.1071 -44.0503 -44.0239 -43.9968 -43.9274 -40.4602 -40.3748
   -40.3240 -40.2178 -40.1744 -40.0282 -40.0007 -39.9552 -39.8915 -39.8624
   -39.8409 -39.8235 -39.8176 -39.7782 -39.6780 -39.6330 -39.5243 -39.4982
    -5.3391  -3.6342  -3.5313  -3.4181  -3.3751  -3.1848  -3.1617  -2.9137
    -2.8967  -2.7960  -2.6821  -2.5999  -2.2914  -2.0188  -1.9389  -1.2868
    -1.2754  -1.1312  -0.9382  -0.7630  -0.6178  -0.4145  -0.3549  -0.2998
    -0.2930  -0.2571   0.0634   0.1641   0.1851   0.2833   0.3176   0.3814
     0.6104   0.6625   0.7839   0.9194   1.3076   1.3380   1.3625   1.6042
     1.6172   1.7676   1.9072   1.9907   2.1281   2.2952   2.3706   2.4600
     2.6618   2.8996   2.9219   3.2099   3.3410   3.4507   3.5105   3.7986
     3.8806   3.9960   4.0353   4.1707   4.2844   4.4547   4.5055   4.6933
     4.8427   5.6430   5.9629

          k = 0.0463 0.0434 0.0000 ( 29573 PWs)   bands (ev):

   -78.5190 -78.4848 -78.1460 -78.1283 -78.1122 -78.0948 -76.8324 -76.8083
   -76.3436 -76.3194 -76.2421 -76.2178 -44.8230 -44.7448 -44.7114 -44.6854
   -44.6540 -44.5586 -44.3133 -44.2823 -44.2489 -44.1918 -44.1874 -44.1592
   -44.1351 -44.1073 -44.0504 -44.0236 -43.9968 -43.9275 -40.4626 -40.3786
   -40.3252 -40.2210 -40.1753 -40.0302 -40.0030 -39.9550 -39.8907 -39.8657
   -39.8407 -39.8277 -39.8185 -39.7794 -39.6792 -39.6331 -39.5242 -39.4981
    -5.1290  -3.5665  -3.4023  -3.2587  -3.1990  -3.0571  -3.0310  -2.8079
    -2.7445  -2.6765  -2.5245  -2.5132  -2.1510  -1.8414  -1.7971  -1.3237
    -1.2447  -1.1220  -1.0936  -0.8885  -0.6444  -0.5017  -0.3985  -0.3483
    -0.2857  -0.2710   0.0814   0.0841   0.1353   0.2038   0.2444   0.4288
     0.5281   0.6155   0.7684   0.9207   1.0960   1.1703   1.2747   1.3976
     1.4631   1.6569   1.6857   1.8011   1.8936   2.0891   2.1484   2.2588
     2.5494   2.7202   2.8122   2.9976   3.0911   3.2536   3.3574   3.7213
     3.8257   3.8567   4.0003   4.1515   4.2599   4.4327   4.5261   4.7153
     4.9526   5.4393   5.9847

          k = 0.0463 0.0608 0.0000 ( 29585 PWs)   bands (ev):

   -78.5189 -78.4849 -78.1459 -78.1282 -78.1122 -78.0949 -76.8326 -76.8082
   -76.3438 -76.3194 -76.2422 -76.2178 -44.8214 -44.7430 -44.7108 -44.6828
   -44.6532 -44.5587 -44.3118 -44.2793 -44.2483 -44.1880 -44.1859 -44.1584
   -44.1356 -44.1076 -44.0505 -44.0233 -43.9969 -43.9276 -40.4654 -40.3831
   -40.3267 -40.2247 -40.1764 -40.0325 -40.0056 -39.9549 -39.8902 -39.8692
   -39.8405 -39.8325 -39.8195 -39.7808 -39.6806 -39.6332 -39.5241 -39.4980
    -4.8356  -3.4374  -3.3293  -3.0168  -2.9948  -2.8705  -2.8624  -2.6385
    -2.5868  -2.4280  -2.4085  -2.3136  -1.9116  -1.7320  -1.7106  -1.3576
    -1.1938  -1.1613  -1.1454  -1.0379  -0.7426  -0.7036  -0.5246  -0.4916
    -0.2271  -0.2079  -0.0264  -0.0230   0.0325   0.1612   0.1919   0.3720
     0.4159   0.5757   0.6902   0.8806   0.9349   0.9748   1.0466   1.1955
     1.2731   1.3106   1.4266   1.6669   1.6997   1.9619   2.1382   2.1719
     2.2398   2.4271   2.7313   2.7617   3.1010   3.1860   3.2641   3.5980
     3.7346   3.9445   3.9717   4.1491   4.1560   4.4025   4.4649   4.8896
     4.9469   5.0265   5.2345

          k = 0.0463 0.0781 0.0000 ( 29555 PWs)   bands (ev):

   -78.5188 -78.4849 -78.1458 -78.1281 -78.1122 -78.0949 -76.8327 -76.8082
   -76.3439 -76.3193 -76.2423 -76.2178 -44.8201 -44.7414 -44.7103 -44.6806
   -44.6526 -44.5589 -44.3106 -44.2766 -44.2478 -44.1847 -44.1845 -44.1577
   -44.1360 -44.1079 -44.0507 -44.0230 -43.9969 -43.9277 -40.4677 -40.3870
   -40.3281 -40.2278 -40.1773 -40.0344 -40.0078 -39.9549 -39.8902 -39.8719
   -39.8404 -39.8364 -39.8204 -39.7820 -39.6818 -39.6333 -39.5240 -39.4980
    -4.4948  -3.3741  -3.2848  -2.7764  -2.7478  -2.6876  -2.6558  -2.4170
    -2.3949  -2.2644  -2.1873  -2.0849  -1.8579  -1.6045  -1.6036  -1.5408
    -1.2993  -1.2326  -1.1509  -0.9644  -0.8190  -0.8113  -0.6835  -0.6255
    -0.3247  -0.2022  -0.1237  -0.0884  -0.0646   0.0507   0.0521   0.2379
     0.3243   0.4381   0.5753   0.6280   0.7223   0.8150   0.8374   1.0024
     1.1224   1.1771   1.4119   1.6253   1.8232   1.8784   1.9188   1.9950
     2.2017   2.3322   2.6479   2.7727   3.0604   3.1204   3.3163   3.3939
     3.7083   3.8848   3.9820   4.0984   4.1411   4.2144   4.4823   4.5161
     4.5856   5.0598   5.1778

          k = 0.0463 0.0955 0.0000 ( 29543 PWs)   bands (ev):

   -78.5187 -78.4849 -78.1458 -78.1281 -78.1122 -78.0949 -76.8328 -76.8082
   -76.3439 -76.3193 -76.2424 -76.2177 -44.8193 -44.7406 -44.7100 -44.6792
   -44.6523 -44.5589 -44.3098 -44.2750 -44.2476 -44.1837 -44.1827 -44.1574
   -44.1363 -44.1080 -44.0508 -44.0228 -43.9969 -43.9278 -40.4691 -40.3892
   -40.3288 -40.2296 -40.1778 -40.0355 -40.0091 -39.9549 -39.8904 -39.8733
   -39.8404 -39.8386 -39.8209 -39.7827 -39.6825 -39.6334 -39.5240 -39.4979
    -4.1970  -3.5101  -3.1750  -2.6132  -2.5513  -2.5486  -2.4961  -2.2135
    -2.2046  -2.1356  -2.1172  -1.9604  -1.8144  -1.7429  -1.6393  -1.5905
    -1.3001  -1.2144  -1.2042  -1.0232  -0.8032  -0.7838  -0.6197  -0.5609
    -0.5337  -0.3542  -0.3261  -0.2531  -0.1577  -0.1572   0.0292   0.1638
     0.3203   0.3400   0.4911   0.5415   0.6016   0.7064   0.8089   0.8546
     1.0515   1.0871   1.4816   1.7008   1.7164   1.8591   1.8698   1.9714
     2.1680   2.3263   2.7424   2.7866   3.0740   3.1130   3.2234   3.3548
     3.6970   3.8404   3.9172   3.9499   4.0394   4.0884   4.1962   4.3716
     4.5506   5.0688   5.4504

          k = 0.0463 0.1128 0.0000 ( 29543 PWs)   bands (ev):

   -78.5187 -78.4849 -78.1458 -78.1281 -78.1122 -78.0949 -76.8328 -76.8082
   -76.3439 -76.3193 -76.2424 -76.2177 -44.8193 -44.7406 -44.7100 -44.6792
   -44.6523 -44.5589 -44.3098 -44.2750 -44.2476 -44.1837 -44.1827 -44.1574
   -44.1363 -44.1080 -44.0508 -44.0228 -43.9969 -43.9278 -40.4691 -40.3892
   -40.3288 -40.2296 -40.1778 -40.0355 -40.0091 -39.9549 -39.8904 -39.8733
   -39.8404 -39.8386 -39.8209 -39.7827 -39.6825 -39.6334 -39.5240 -39.4979
    -4.1970  -3.5101  -3.1750  -2.6132  -2.5513  -2.5486  -2.4961  -2.2135
    -2.2046  -2.1356  -2.1172  -1.9604  -1.8144  -1.7429  -1.6393  -1.5905
    -1.3001  -1.2144  -1.2042  -1.0232  -0.8032  -0.7838  -0.6197  -0.5609
    -0.5337  -0.3542  -0.3261  -0.2531  -0.1577  -0.1572   0.0292   0.1638
     0.3203   0.3400   0.4911   0.5415   0.6016   0.7064   0.8089   0.8546
     1.0515   1.0871   1.4816   1.7007   1.7164   1.8591   1.8698   1.9714
     2.1680   2.3263   2.7424   2.7866   3.0740   3.1130   3.2234   3.3548
     3.6970   3.8404   3.9172   3.9499   4.0394   4.0884   4.1962   4.3716
     4.5506   5.0688   5.4504

          k = 0.0463-0.0781 0.0000 ( 29555 PWs)   bands (ev):

   -78.5188 -78.4849 -78.1458 -78.1281 -78.1122 -78.0949 -76.8327 -76.8082
   -76.3439 -76.3193 -76.2423 -76.2178 -44.8201 -44.7414 -44.7103 -44.6806
   -44.6526 -44.5589 -44.3106 -44.2766 -44.2478 -44.1847 -44.1845 -44.1577
   -44.1360 -44.1079 -44.0507 -44.0230 -43.9969 -43.9277 -40.4677 -40.3870
   -40.3281 -40.2278 -40.1773 -40.0344 -40.0078 -39.9549 -39.8902 -39.8719
   -39.8404 -39.8364 -39.8204 -39.7820 -39.6818 -39.6333 -39.5240 -39.4980
    -4.4948  -3.3741  -3.2848  -2.7764  -2.7478  -2.6876  -2.6558  -2.4170
    -2.3949  -2.2644  -2.1873  -2.0849  -1.8579  -1.6045  -1.6036  -1.5408
    -1.2993  -1.2326  -1.1509  -0.9644  -0.8191  -0.8113  -0.6835  -0.6255
    -0.3247  -0.2022  -0.1237  -0.0884  -0.0646   0.0507   0.0521   0.2379
     0.3243   0.4381   0.5753   0.6280   0.7223   0.8150   0.8374   1.0024
     1.1224   1.1771   1.4119   1.6253   1.8232   1.8784   1.9188   1.9950
     2.2017   2.3322   2.6479   2.7727   3.0604   3.1204   3.3163   3.3939
     3.7083   3.8848   3.9820   4.0984   4.1411   4.2144   4.4823   4.5161
     4.5856   5.0598   5.1778

          k = 0.0463-0.0608 0.0000 ( 29585 PWs)   bands (ev):

   -78.5189 -78.4849 -78.1459 -78.1282 -78.1122 -78.0949 -76.8326 -76.8082
   -76.3438 -76.3194 -76.2422 -76.2178 -44.8214 -44.7430 -44.7108 -44.6828
   -44.6532 -44.5587 -44.3118 -44.2793 -44.2483 -44.1880 -44.1859 -44.1584
   -44.1356 -44.1076 -44.0505 -44.0233 -43.9969 -43.9276 -40.4654 -40.3831
   -40.3267 -40.2247 -40.1764 -40.0325 -40.0056 -39.9549 -39.8902 -39.8692
   -39.8405 -39.8325 -39.8195 -39.7808 -39.6806 -39.6332 -39.5241 -39.4980
    -4.8356  -3.4374  -3.3293  -3.0168  -2.9948  -2.8705  -2.8624  -2.6385
    -2.5868  -2.4280  -2.4085  -2.3136  -1.9116  -1.7320  -1.7106  -1.3576
    -1.1938  -1.1613  -1.1454  -1.0379  -0.7426  -0.7036  -0.5246  -0.4916
    -0.2271  -0.2079  -0.0264  -0.0230   0.0325   0.1612   0.1919   0.3720
     0.4159   0.5757   0.6902   0.8806   0.9349   0.9748   1.0466   1.1955
     1.2731   1.3106   1.4266   1.6669   1.6997   1.9619   2.1382   2.1719
     2.2398   2.4271   2.7313   2.7617   3.1010   3.1860   3.2641   3.5980
     3.7346   3.9445   3.9717   4.1491   4.1560   4.4025   4.4649   4.8896
     4.9469   5.0265   5.2345

          k = 0.0463-0.0434 0.0000 ( 29573 PWs)   bands (ev):

   -78.5190 -78.4848 -78.1460 -78.1283 -78.1122 -78.0948 -76.8324 -76.8083
   -76.3436 -76.3194 -76.2421 -76.2178 -44.8230 -44.7448 -44.7114 -44.6854
   -44.6540 -44.5586 -44.3133 -44.2823 -44.2489 -44.1918 -44.1874 -44.1592
   -44.1351 -44.1073 -44.0504 -44.0236 -43.9968 -43.9275 -40.4626 -40.3786
   -40.3252 -40.2210 -40.1753 -40.0302 -40.0030 -39.9550 -39.8907 -39.8657
   -39.8407 -39.8277 -39.8185 -39.7794 -39.6792 -39.6331 -39.5242 -39.4981
    -5.1290  -3.5665  -3.4023  -3.2587  -3.1990  -3.0571  -3.0310  -2.8079
    -2.7445  -2.6765  -2.5245  -2.5132  -2.1510  -1.8414  -1.7971  -1.3237
    -1.2447  -1.1220  -1.0936  -0.8885  -0.6444  -0.5017  -0.3985  -0.3483
    -0.2857  -0.2710   0.0814   0.0841   0.1353   0.2038   0.2444   0.4288
     0.5281   0.6155   0.7684   0.9207   1.0960   1.1703   1.2747   1.3976
     1.4631   1.6569   1.6857   1.8011   1.8936   2.0891   2.1484   2.2588
     2.5494   2.7202   2.8122   2.9976   3.0911   3.2536   3.3574   3.7213
     3.8257   3.8567   4.0003   4.1515   4.2599   4.4327   4.5261   4.7153
     4.9526   5.4393   5.9848

          k = 0.0463-0.0260 0.0000 ( 29583 PWs)   bands (ev):

   -78.5191 -78.4848 -78.1461 -78.1284 -78.1122 -78.0948 -76.8323 -76.8083
   -76.3435 -76.3194 -76.2420 -76.2178 -44.8243 -44.7465 -44.7119 -44.6875
   -44.6546 -44.5585 -44.3145 -44.2850 -44.2494 -44.1950 -44.1886 -44.1600
   -44.1347 -44.1071 -44.0503 -44.0239 -43.9968 -43.9274 -40.4602 -40.3748
   -40.3240 -40.2178 -40.1744 -40.0282 -40.0007 -39.9552 -39.8915 -39.8624
   -39.8409 -39.8235 -39.8176 -39.7782 -39.6780 -39.6330 -39.5243 -39.4982
    -5.3391  -3.6342  -3.5313  -3.4181  -3.3751  -3.1848  -3.1617  -2.9137
    -2.8967  -2.7960  -2.6821  -2.5999  -2.2914  -2.0188  -1.9389  -1.2868
    -1.2754  -1.1312  -0.9382  -0.7630  -0.6178  -0.4145  -0.3549  -0.2998
    -0.2930  -0.2571   0.0634   0.1641   0.1851   0.2833   0.3176   0.3814
     0.6104   0.6625   0.7839   0.9194   1.3076   1.3380   1.3625   1.6042
     1.6172   1.7676   1.9072   1.9907   2.1281   2.2952   2.3706   2.4600
     2.6618   2.8996   2.9219   3.2099   3.3410   3.4507   3.5105   3.7986
     3.8806   3.9960   4.0353   4.1707   4.2844   4.4547   4.5055   4.6933
     4.8427   5.6430   5.9629

          k = 0.0463-0.0087 0.0000 ( 29621 PWs)   bands (ev):

   -78.5192 -78.4848 -78.1461 -78.1285 -78.1122 -78.0948 -76.8322 -76.8083
   -76.3435 -76.3194 -76.2419 -76.2178 -44.8250 -44.7475 -44.7122 -44.6887
   -44.6549 -44.5585 -44.3152 -44.2866 -44.2498 -44.1969 -44.1893 -44.1606
   -44.1344 -44.1070 -44.0503 -44.0240 -43.9968 -43.9273 -40.4588 -40.3726
   -40.3233 -40.2159 -40.1739 -40.0270 -39.9993 -39.9553 -39.8921 -39.8605
   -39.8410 -39.8211 -39.8171 -39.7775 -39.6773 -39.6329 -39.5244 -39.4983
    -5.4480  -3.6311  -3.6173  -3.5112  -3.4994  -3.2475  -3.2276  -2.9812
    -2.9645  -2.8379  -2.7841  -2.6369  -2.3308  -2.1889  -1.9902  -1.3006
    -1.2311  -1.1691  -0.8308  -0.7004  -0.6323  -0.4506  -0.3235  -0.3163
    -0.2453  -0.1325  -0.0182   0.1017   0.1849   0.3304   0.3723   0.4623
     0.6298   0.6396   0.8024   0.9588   1.4467   1.4563   1.4649   1.5695
     1.7347   1.9452   1.9904   2.0433   2.1400   2.3660   2.5621   2.6672
     2.7806   2.9381   2.9672   3.2923   3.4847   3.6130   3.6893   3.8206
     4.1139   4.1677   4.1829   4.3048   4.3345   4.3989   4.6757   4.7013
     4.8799   5.1445   5.6949

          k = 0.0463 0.0087 0.0000 ( 29621 PWs)   bands (ev):

   -78.5192 -78.4848 -78.1461 -78.1285 -78.1122 -78.0948 -76.8322 -76.8083
   -76.3435 -76.3194 -76.2419 -76.2178 -44.8250 -44.7475 -44.7122 -44.6887
   -44.6549 -44.5585 -44.3152 -44.2866 -44.2498 -44.1969 -44.1893 -44.1606
   -44.1344 -44.1070 -44.0503 -44.0240 -43.9968 -43.9273 -40.4588 -40.3726
   -40.3233 -40.2159 -40.1739 -40.0270 -39.9993 -39.9553 -39.8921 -39.8605
   -39.8410 -39.8211 -39.8171 -39.7775 -39.6773 -39.6329 -39.5244 -39.4983
    -5.4480  -3.6311  -3.6173  -3.5112  -3.4994  -3.2475  -3.2276  -2.9812
    -2.9645  -2.8379  -2.7841  -2.6369  -2.3308  -2.1889  -1.9902  -1.3006
    -1.2311  -1.1691  -0.8308  -0.7004  -0.6323  -0.4506  -0.3235  -0.3163
    -0.2453  -0.1325  -0.0182   0.1017   0.1849   0.3304   0.3723   0.4623
     0.6298   0.6396   0.8024   0.9588   1.4467   1.4563   1.4649   1.5695
     1.7347   1.9452   1.9904   2.0433   2.1400   2.3660   2.5621   2.6672
     2.7806   2.9381   2.9672   3.2923   3.4847   3.6130   3.6893   3.8206
     4.1139   4.1677   4.1829   4.3048   4.3345   4.3989   4.6757   4.7013
     4.8799   5.1445   5.6949

          k = 0.0617 0.0347 0.0000 ( 29588 PWs)   bands (ev):

   -78.5141 -78.4898 -78.1411 -78.1235 -78.1171 -78.0997 -76.8288 -76.8118
   -76.3400 -76.3230 -76.2385 -76.2214 -44.7855 -44.7405 -44.7160 -44.6816
   -44.6582 -44.5974 -44.2786 -44.2767 -44.2526 -44.1884 -44.1642 -44.1498
   -44.1310 -44.1113 -44.0888 -44.0199 -44.0007 -43.9655 -40.3893 -40.3694
   -40.3333 -40.2131 -40.1823 -40.0320 -39.9572 -39.9301 -39.8834 -39.8579
   -39.8476 -39.8259 -39.8191 -39.7868 -39.6721 -39.6401 -39.6007 -39.5746
    -4.9403  -3.6402  -3.1894  -3.1407  -3.0913  -2.9703  -2.9086  -2.7143
    -2.6614  -2.6043  -2.4884  -2.3860  -2.0987  -1.7215  -1.6604  -1.2970
    -1.2700  -1.1471  -1.0632  -0.9275  -0.7347  -0.6142  -0.3607  -0.3344
    -0.3084  -0.1594   0.0588   0.0947   0.1154   0.1849   0.3065   0.4228
     0.4258   0.6567   0.7789   0.8571   0.9465   1.1014   1.1805   1.2348
     1.3585   1.4311   1.6136   1.7565   1.7888   2.0438   2.1232   2.1673
     2.5134   2.7109   2.7569   2.8449   2.9837   3.2929   3.3433   3.3669
     3.5224   3.6339   3.7431   3.8857   4.1901   4.3405   4.5619   4.6335
     4.7141   6.0277   6.1032

          k = 0.0617 0.0521 0.0000 ( 29589 PWs)   bands (ev):

   -78.5140 -78.4899 -78.1410 -78.1234 -78.1171 -78.0998 -76.8289 -76.8118
   -76.3401 -76.3229 -76.2386 -76.2214 -44.7842 -44.7391 -44.7158 -44.6797
   -44.6580 -44.5977 -44.2761 -44.2756 -44.2524 -44.1854 -44.1642 -44.1483
   -44.1314 -44.1115 -44.0891 -44.0196 -44.0007 -43.9659 -40.3917 -40.3728
   -40.3339 -40.2160 -40.1826 -40.0316 -39.9592 -39.9323 -39.8828 -39.8608
   -39.8475 -39.8262 -39.8229 -39.7873 -39.6732 -39.6400 -39.6003 -39.5742
    -4.7059  -3.6313  -3.0833  -2.9869  -2.9594  -2.8337  -2.7684  -2.5874
    -2.5506  -2.4101  -2.3063  -2.3055  -1.9492  -1.6709  -1.5890  -1.3769
    -1.1509  -1.1506  -1.0993  -1.0674  -0.8214  -0.8030  -0.4078  -0.4053
    -0.2033  -0.1473  -0.0316   0.0029   0.0389   0.1892   0.2257   0.3603
     0.4185   0.5864   0.6599   0.7849   0.9221   0.9360   0.9602   1.0382
     1.1431   1.2431   1.3701   1.7596   1.7910   2.0277   2.0303   2.1602
     2.3105   2.4894   2.6885   2.7134   2.9679   3.0613   3.2948   3.3588
     3.4207   3.5741   3.7396   3.9018   4.0992   4.2706   4.5322   4.7037
     4.9257   5.6104   6.0232

          k = 0.0617 0.0694 0.0000 ( 29588 PWs)   bands (ev):

   -78.5139 -78.4899 -78.1410 -78.1233 -78.1172 -78.0998 -76.8291 -76.8118
   -76.3403 -76.3229 -76.2387 -76.2213 -44.7829 -44.7376 -44.7156 -44.6776
   -44.6578 -44.5981 -44.2743 -44.2737 -44.2524 -44.1823 -44.1639 -44.1472
   -44.1318 -44.1117 -44.0895 -44.0193 -44.0008 -43.9662 -40.3939 -40.3763
   -40.3345 -40.2188 -40.1830 -40.0311 -39.9610 -39.9344 -39.8825 -39.8634
   -39.8474 -39.8267 -39.8264 -39.7879 -39.6743 -39.6399 -39.5999 -39.5737
    -4.4044  -3.5849  -3.0831  -2.7940  -2.7598  -2.6754  -2.5973  -2.4364
    -2.3786  -2.2243  -2.1877  -2.0630  -1.8115  -1.6859  -1.5937  -1.5079
    -1.2628  -1.2446  -1.0622  -1.0094  -0.8957  -0.7907  -0.5259  -0.5155
    -0.2888  -0.1853  -0.1306  -0.1129  -0.0370   0.1155   0.1388   0.1917
     0.3058   0.4838   0.4957   0.6916   0.7058   0.7845   0.8031   0.8963
     1.1135   1.1297   1.3317   1.7753   1.8768   1.9264   2.0265   2.0355
     2.2408   2.4108   2.6522   2.6968   2.9642   3.0891   3.2579   3.2732
     3.4539   3.5736   3.7539   3.9155   3.9960   4.1654   4.3641   4.7027
     4.9731   5.2522   5.2646

          k = 0.0617 0.0868 0.0000 ( 29571 PWs)   bands (ev):

   -78.5138 -78.4900 -78.1409 -78.1232 -78.1172 -78.0998 -76.8292 -76.8117
   -76.3403 -76.3229 -76.2388 -76.2213 -44.7819 -44.7366 -44.7154 -44.6760
   -44.6577 -44.5984 -44.2733 -44.2718 -44.2525 -44.1800 -44.1635 -44.1465
   -44.1320 -44.1118 -44.0897 -44.0191 -44.0009 -43.9665 -40.3954 -40.3788
   -40.3351 -40.2209 -40.1833 -40.0309 -39.9623 -39.9359 -39.8826 -39.8651
   -39.8473 -39.8290 -39.8270 -39.7883 -39.6750 -39.6399 -39.5997 -39.5735
    -4.0820  -3.5323  -3.2100  -2.5972  -2.5542  -2.5050  -2.4234  -2.2519
    -2.1934  -2.1219  -2.0601  -2.0046  -1.7799  -1.7458  -1.6711  -1.5250
    -1.3690  -1.2297  -1.1095  -0.9982  -0.8079  -0.6584  -0.6480  -0.5858
    -0.5449  -0.3797  -0.3119  -0.2786  -0.1893  -0.1127   0.0776   0.2322
     0.2976   0.3359   0.4645   0.5412   0.6343   0.6569   0.7838   0.8017
     1.0168   1.0958   1.6049   1.7098   1.7128   1.8703   1.9241   2.1706
     2.3313   2.3995   2.7221   2.8285   2.9391   3.1588   3.2173   3.3276
     3.5011   3.5650   3.7838   3.8597   3.9675   4.0630   4.1458   4.4666
     4.5430   4.6721   5.5568

          k = 0.0617 0.1042 0.0000 ( 29582 PWs)   bands (ev):

   -78.5137 -78.4900 -78.1409 -78.1232 -78.1172 -78.0998 -76.8292 -76.8117
   -76.3404 -76.3229 -76.2388 -76.2213 -44.7815 -44.7362 -44.7154 -44.6755
   -44.6576 -44.5985 -44.2729 -44.2712 -44.2525 -44.1792 -44.1634 -44.1463
   -44.1322 -44.1119 -44.0899 -44.0190 -44.0009 -43.9666 -40.3960 -40.3798
   -40.3353 -40.2216 -40.1834 -40.0308 -39.9628 -39.9365 -39.8827 -39.8657
   -39.8473 -39.8299 -39.8272 -39.7885 -39.6753 -39.6398 -39.5996 -39.5734
    -3.8954  -3.5091  -3.3310  -2.5118  -2.4545  -2.3820  -2.3456  -2.1810
    -2.0988  -2.0515  -1.9875  -1.9854  -1.8868  -1.8734  -1.7988  -1.4737
    -1.3569  -1.0405  -0.9995  -0.9658  -0.8004  -0.7688  -0.7220  -0.6832
    -0.6276  -0.5289  -0.5101  -0.3833  -0.2757  -0.0359   0.1498   0.1903
     0.3075   0.3625   0.3633   0.5119   0.5876   0.6505   0.7507   0.7629
     0.9702   1.1331   1.5853   1.7068   1.7557   1.8209   1.9326   2.2193
     2.3108   2.4206   2.7356   2.9415   2.9987   3.0943   3.3318   3.4474
     3.5155   3.5620   3.7986   3.7991   3.9365   4.0198   4.0746   4.1234
     4.2489   4.6560   5.7597

          k = 0.0617 0.1215 0.0000 ( 29571 PWs)   bands (ev):

   -78.5138 -78.4900 -78.1409 -78.1232 -78.1172 -78.0998 -76.8292 -76.8117
   -76.3403 -76.3229 -76.2388 -76.2213 -44.7819 -44.7366 -44.7154 -44.6760
   -44.6577 -44.5984 -44.2733 -44.2718 -44.2525 -44.1800 -44.1635 -44.1465
   -44.1320 -44.1118 -44.0897 -44.0191 -44.0009 -43.9665 -40.3954 -40.3788
   -40.3351 -40.2209 -40.1833 -40.0309 -39.9623 -39.9359 -39.8826 -39.8651
   -39.8473 -39.8290 -39.8270 -39.7883 -39.6750 -39.6399 -39.5997 -39.5735
    -4.0820  -3.5323  -3.2100  -2.5972  -2.5542  -2.5050  -2.4234  -2.2519
    -2.1934  -2.1219  -2.0601  -2.0046  -1.7799  -1.7458  -1.6711  -1.5250
    -1.3690  -1.2297  -1.1095  -0.9982  -0.8079  -0.6584  -0.6480  -0.5858
    -0.5449  -0.3797  -0.3119  -0.2786  -0.1893  -0.1127   0.0776   0.2322
     0.2976   0.3359   0.4645   0.5412   0.6343   0.6569   0.7838   0.8017
     1.0168   1.0958   1.6049   1.7098   1.7128   1.8703   1.9241   2.1706
     2.3313   2.3995   2.7221   2.8285   2.9391   3.1588   3.2173   3.3276
     3.5011   3.5650   3.7838   3.8597   3.9675   4.0630   4.1458   4.4666
     4.5430   4.6721   5.5568

          k = 0.0617-0.0694 0.0000 ( 29588 PWs)   bands (ev):

   -78.5139 -78.4899 -78.1410 -78.1233 -78.1172 -78.0998 -76.8291 -76.8118
   -76.3403 -76.3229 -76.2387 -76.2213 -44.7829 -44.7376 -44.7156 -44.6776
   -44.6578 -44.5981 -44.2743 -44.2737 -44.2524 -44.1823 -44.1639 -44.1472
   -44.1318 -44.1117 -44.0895 -44.0193 -44.0008 -43.9662 -40.3939 -40.3763
   -40.3345 -40.2188 -40.1830 -40.0311 -39.9610 -39.9344 -39.8825 -39.8634
   -39.8474 -39.8267 -39.8264 -39.7879 -39.6743 -39.6399 -39.5999 -39.5737
    -4.4044  -3.5849  -3.0831  -2.7940  -2.7598  -2.6754  -2.5973  -2.4364
    -2.3786  -2.2243  -2.1877  -2.0630  -1.8115  -1.6859  -1.5937  -1.5079
    -1.2628  -1.2446  -1.0622  -1.0094  -0.8957  -0.7907  -0.5259  -0.5155
    -0.2887  -0.1853  -0.1306  -0.1129  -0.0370   0.1155   0.1388   0.1917
     0.3058   0.4838   0.4957   0.6916   0.7058   0.7845   0.8031   0.8963
     1.1135   1.1297   1.3317   1.7753   1.8768   1.9264   2.0265   2.0355
     2.2408   2.4108   2.6522   2.6968   2.9643   3.0891   3.2579   3.2732
     3.4539   3.5736   3.7539   3.9156   3.9960   4.1654   4.3641   4.7027
     4.9730   5.2522   5.2646

          k = 0.0617-0.0521 0.0000 ( 29589 PWs)   bands (ev):

   -78.5140 -78.4899 -78.1410 -78.1234 -78.1171 -78.0998 -76.8289 -76.8118
   -76.3401 -76.3229 -76.2386 -76.2214 -44.7842 -44.7391 -44.7158 -44.6797
   -44.6580 -44.5977 -44.2761 -44.2756 -44.2524 -44.1854 -44.1642 -44.1483
   -44.1314 -44.1115 -44.0891 -44.0196 -44.0007 -43.9659 -40.3917 -40.3728
   -40.3339 -40.2160 -40.1826 -40.0316 -39.9592 -39.9323 -39.8828 -39.8608
   -39.8475 -39.8262 -39.8229 -39.7873 -39.6732 -39.6400 -39.6003 -39.5742
    -4.7059  -3.6313  -3.0833  -2.9869  -2.9594  -2.8337  -2.7684  -2.5874
    -2.5506  -2.4101  -2.3063  -2.3055  -1.9492  -1.6709  -1.5890  -1.3769
[...]
   -44.1259 -44.1164 -44.1035 -44.0156 -44.0103 -44.0054 -40.3670 -40.3430
   -40.3087 -40.2109 -40.1900 -40.1186 -39.8767 -39.8739 -39.8570 -39.8555
   -39.8489 -39.8337 -39.8180 -39.7951 -39.6872 -39.6664 -39.6606 -39.6475
    -3.9914  -3.8965  -2.9536  -2.6766  -2.6601  -2.5409  -2.5039  -2.3674
    -2.2421  -2.2218  -2.0605  -1.8904  -1.7626  -1.7114  -1.5353  -1.5302
    -1.4157  -1.3977  -1.1151  -0.9889  -0.8285  -0.5919  -0.4869  -0.4358
    -0.3666  -0.2284  -0.2222  -0.1071  -0.0787  -0.0646   0.0989   0.1748
     0.2550   0.3895   0.4797   0.5466   0.5865   0.6583   0.7611   0.7714
     0.9781   1.2998   1.5419   1.6206   1.8442   1.9403   1.9669   2.3795
     2.4055   2.4750   2.5733   2.7163   2.8052   2.8080   2.9932   3.1191
     3.3591   3.4203   3.4494   3.7570   4.0409   4.1870   4.3059   4.5370
     4.9690   5.2344   5.4790

          k = 0.0772-0.0608 0.0000 ( 29600 PWs)   bands (ev):

   -78.5081 -78.4957 -78.1353 -78.1229 -78.1177 -78.1055 -76.8249 -76.8159
   -76.3361 -76.3271 -76.2345 -76.2255 -44.7394 -44.7329 -44.7211 -44.6738
   -44.6633 -44.6432 -44.2698 -44.2601 -44.2288 -44.1789 -44.1692 -44.1354
   -44.1257 -44.1165 -44.1043 -44.0157 -44.0098 -44.0053 -40.3647 -40.3435
   -40.3070 -40.2091 -40.1903 -40.1193 -39.8756 -39.8740 -39.8567 -39.8539
   -39.8482 -39.8335 -39.8158 -39.7953 -39.6879 -39.6658 -39.6610 -39.6478
    -4.2698  -3.8581  -2.8762  -2.8325  -2.7573  -2.6599  -2.5972  -2.4739
    -2.3241  -2.2939  -2.0983  -2.0394  -1.7479  -1.6523  -1.6113  -1.5335
    -1.2925  -1.2319  -1.0884  -1.0429  -0.8503  -0.7726  -0.3881  -0.3214
    -0.2112  -0.1405  -0.0785  -0.0588  -0.0097   0.1994   0.2061   0.3407
     0.3417   0.4124   0.4218   0.5911   0.6309   0.6322   0.7195   0.8182
     1.1136   1.2056   1.3294   1.7804   1.9110   1.9755   2.0627   2.1812
     2.3259   2.4024   2.6232   2.6292   2.6820   2.8423   2.9235   3.0051
     3.3027   3.3952   3.4900   3.7009   4.1528   4.2683   4.5051   4.5996
     5.2489   5.5978   5.7099

          k = 0.0772-0.0434 0.0000 ( 29599 PWs)   bands (ev):

   -78.5082 -78.4956 -78.1353 -78.1229 -78.1178 -78.1054 -76.8248 -76.8160
   -76.3360 -76.3271 -76.2344 -76.2255 -44.7405 -44.7340 -44.7210 -44.6753
   -44.6630 -44.6426 -44.2717 -44.2595 -44.2299 -44.1813 -44.1686 -44.1347
   -44.1255 -44.1166 -44.1052 -44.0159 -44.0093 -44.0052 -40.3622 -40.3438
   -40.3051 -40.2070 -40.1907 -40.1202 -39.8743 -39.8740 -39.8565 -39.8518
   -39.8468 -39.8337 -39.8131 -39.7958 -39.6888 -39.6653 -39.6615 -39.6482
    -4.5006  -3.7840  -2.9482  -2.9291  -2.7864  -2.7732  -2.6879  -2.5767
    -2.4016  -2.3936  -2.2509  -2.1601  -1.8852  -1.5870  -1.5853  -1.4572
    -1.2019  -1.1201  -1.0690  -0.9821  -0.9317  -0.8638  -0.3747  -0.3090
    -0.1414  -0.0661  -0.0574  -0.0244  -0.0193   0.2447   0.2927   0.4031
     0.4074   0.5472   0.6150   0.6338   0.6576   0.7658   0.8563   0.9640
     1.0024   1.3320   1.3606   1.8336   1.8726   1.9135   2.0078   2.2188
     2.2994   2.4134   2.6178   2.7091   2.8069   2.8376   2.9600   3.0668
     3.3288   3.4171   3.5400   3.6568   4.2365   4.2953   4.5765   4.5913
     4.9998   5.7628   6.3327

          k = 0.0772-0.0260 0.0000 ( 29620 PWs)   bands (ev):

   -78.5083 -78.4956 -78.1354 -78.1229 -78.1178 -78.1054 -76.8247 -76.8160
   -76.3359 -76.3272 -76.2343 -76.2256 -44.7413 -44.7350 -44.7209 -44.6766
   -44.6627 -44.6422 -44.2734 -44.2589 -44.2309 -44.1833 -44.1679 -44.1340
   -44.1256 -44.1167 -44.1061 -44.0161 -44.0089 -44.0051 -40.3600 -40.3440
   -40.3036 -40.2050 -40.1912 -40.1211 -39.8747 -39.8724 -39.8564 -39.8498
   -39.8450 -39.8344 -39.8106 -39.7964 -39.6896 -39.6652 -39.6616 -39.6485
    -4.6619  -3.6697  -3.0447  -2.9720  -2.8683  -2.8344  -2.7637  -2.6597
    -2.4997  -2.4343  -2.4165  -2.2018  -1.9440  -1.6469  -1.6190  -1.3881
    -1.1902  -1.1003  -1.0761  -0.9844  -0.8696  -0.7282  -0.3996  -0.3933
    -0.2182  -0.0512  -0.0318  -0.0221   0.0256   0.1741   0.2414   0.3573
     0.4470   0.6209   0.6603   0.7611   0.8509   0.9253   0.9648   1.1424
     1.1590   1.3929   1.5612   1.6548   1.8134   1.9350   1.9835   2.2930
     2.3241   2.3750   2.6369   2.7865   2.9253   3.0604   3.2146   3.3200
     3.3403   3.5569   3.6320   3.6554   4.2535   4.2688   4.4410   4.5708
     4.7896   5.4844   5.9334

          k = 0.0772-0.0087 0.0000 ( 29600 PWs)   bands (ev):

   -78.5084 -78.4956 -78.1354 -78.1228 -78.1179 -78.1054 -76.8246 -76.8161
   -76.3358 -76.3272 -76.2343 -76.2256 -44.7417 -44.7355 -44.7210 -44.6772
   -44.6626 -44.6420 -44.2743 -44.2585 -44.2315 -44.1845 -44.1675 -44.1335
   -44.1256 -44.1169 -44.1066 -44.0161 -44.0086 -44.0050 -40.3587 -40.3441
   -40.3026 -40.2038 -40.1915 -40.1217 -39.8750 -39.8713 -39.8564 -39.8486
   -39.8435 -39.8352 -39.8091 -39.7969 -39.6900 -39.6653 -39.6616 -39.6487
    -4.7443  -3.5409  -3.1741  -2.9808  -2.8991  -2.8795  -2.8074  -2.7040
    -2.5545  -2.5193  -2.4424  -2.2173  -1.9117  -1.7517  -1.6999  -1.3597
    -1.1833  -1.1153  -1.0557  -0.9266  -0.7978  -0.6209  -0.5303  -0.4151
    -0.2772  -0.0606  -0.0292   0.0031   0.0113   0.1089   0.2843   0.3227
     0.4103   0.5378   0.7375   0.8305   1.0042   1.0848   1.0949   1.2204
     1.2413   1.4235   1.5787   1.7105   1.8006   1.8777   2.0127   2.2559
     2.2669   2.3823   2.6779   2.9021   3.0248   3.1402   3.2903   3.5077
     3.5707   3.7071   3.8974   3.9939   4.1894   4.2109   4.3958   4.4952
     4.6899   4.7932   5.0835

          k = 0.0772 0.0087 0.0000 ( 29600 PWs)   bands (ev):

   -78.5084 -78.4956 -78.1354 -78.1228 -78.1179 -78.1054 -76.8246 -76.8161
   -76.3358 -76.3272 -76.2343 -76.2256 -44.7417 -44.7355 -44.7210 -44.6772
   -44.6626 -44.6420 -44.2743 -44.2585 -44.2315 -44.1845 -44.1675 -44.1335
   -44.1256 -44.1169 -44.1066 -44.0161 -44.0086 -44.0050 -40.3587 -40.3441
   -40.3026 -40.2038 -40.1915 -40.1217 -39.8750 -39.8713 -39.8564 -39.8486
   -39.8435 -39.8352 -39.8091 -39.7969 -39.6900 -39.6653 -39.6616 -39.6487
    -4.7443  -3.5409  -3.1741  -2.9808  -2.8991  -2.8795  -2.8074  -2.7040
    -2.5545  -2.5193  -2.4424  -2.2173  -1.9117  -1.7517  -1.6999  -1.3597
    -1.1833  -1.1153  -1.0557  -0.9266  -0.7978  -0.6209  -0.5303  -0.4151
    -0.2772  -0.0606  -0.0292   0.0031   0.0113   0.1089   0.2843   0.3227
     0.4103   0.5378   0.7375   0.8305   1.0042   1.0848   1.0949   1.2204
     1.2413   1.4235   1.5787   1.7105   1.8006   1.8777   2.0127   2.2559
     2.2669   2.3823   2.6779   2.9021   3.0248   3.1402   3.2903   3.5077
     3.5707   3.7071   3.8974   3.9939   4.1894   4.2109   4.3958   4.4952
     4.6898   4.7932   5.0835

          k = 0.0772 0.0260 0.0000 ( 29620 PWs)   bands (ev):

   -78.5083 -78.4956 -78.1354 -78.1229 -78.1178 -78.1054 -76.8247 -76.8160
   -76.3359 -76.3272 -76.2343 -76.2256 -44.7413 -44.7350 -44.7209 -44.6766
   -44.6627 -44.6422 -44.2734 -44.2589 -44.2309 -44.1833 -44.1679 -44.1340
   -44.1256 -44.1167 -44.1061 -44.0161 -44.0089 -44.0051 -40.3600 -40.3440
   -40.3036 -40.2050 -40.1912 -40.1211 -39.8747 -39.8724 -39.8564 -39.8498
   -39.8450 -39.8344 -39.8106 -39.7964 -39.6896 -39.6652 -39.6616 -39.6485
    -4.6619  -3.6697  -3.0447  -2.9720  -2.8683  -2.8344  -2.7637  -2.6597
    -2.4997  -2.4343  -2.4165  -2.2018  -1.9440  -1.6469  -1.6190  -1.3881
    -1.1902  -1.1003  -1.0761  -0.9844  -0.8696  -0.7282  -0.3996  -0.3933
    -0.2182  -0.0512  -0.0318  -0.0221   0.0256   0.1741   0.2414   0.3573
     0.4470   0.6209   0.6603   0.7611   0.8509   0.9253   0.9648   1.1424
     1.1590   1.3929   1.5612   1.6548   1.8134   1.9350   1.9835   2.2930
     2.3241   2.3750   2.6369   2.7865   2.9253   3.0604   3.2146   3.3200
     3.3403   3.5569   3.6320   3.6554   4.2535   4.2688   4.4410   4.5708
     4.7896   5.4844   5.9334

          k =-0.0926-0.0521 0.0000 ( 29578 PWs)   bands (ev):

   -78.5019 -78.5019 -78.1291 -78.1291 -78.1116 -78.1116 -76.8204 -76.8204
   -76.3315 -76.3315 -76.2300 -76.2300 -44.7276 -44.7276 -44.6915 -44.6915
   -44.6686 -44.6686 -44.2650 -44.2650 -44.1825 -44.1825 -44.1742 -44.1742
   -44.1213 -44.1213 -44.0579 -44.0579 -44.0101 -44.0101 -40.3535 -40.3535
   -40.2150 -40.2150 -40.1978 -40.1978 -39.8650 -39.8650 -39.8445 -39.8444
   -39.8059 -39.8058 -39.7809 -39.7809 -39.7546 -39.7546 -39.6565 -39.6565
    -4.0881  -4.0881  -2.8540  -2.8540  -2.6632  -2.6632  -2.5620  -2.5620
    -2.3143  -2.3143  -2.0392  -2.0392  -1.6718  -1.6718  -1.5818  -1.5818
    -1.2749  -1.2749  -1.0999  -1.0999  -0.7687  -0.7687  -0.3126  -0.3126
    -0.1321  -0.1321   0.0229   0.0229   0.1031   0.1031   0.2380   0.2380
     0.4160   0.4160   0.5296   0.5297   0.5852   0.5852   0.6591   0.6592
     1.1474   1.1474   1.6117   1.6117   2.0179   2.0179   2.1344   2.1344
     2.3286   2.3286   2.5272   2.5272   2.6368   2.6368   2.8350   2.8350
     3.3488   3.3488   3.5274   3.5274   4.2676   4.2676   4.5781   4.5781
     5.3824   5.3824   6.4074

          k =-0.0926-0.0347 0.0000 ( 29588 PWs)   bands (ev):

   -78.5020 -78.5018 -78.1292 -78.1290 -78.1117 -78.1115 -76.8205 -76.8203
   -76.3316 -76.3315 -76.2300 -76.2299 -44.7282 -44.7269 -44.6923 -44.6907
   -44.6695 -44.6677 -44.2663 -44.2638 -44.1832 -44.1819 -44.1754 -44.1728
   -44.1214 -44.1212 -44.0587 -44.0571 -44.0102 -44.0099 -40.3549 -40.3521
   -40.2159 -40.2135 -40.1992 -40.1971 -39.8652 -39.8649 -39.8455 -39.8431
   -39.8072 -39.8042 -39.7822 -39.7799 -39.7560 -39.7535 -39.6571 -39.6559
    -4.2267  -3.8992  -2.8819  -2.8078  -2.7293  -2.6221  -2.5694  -2.5492
    -2.3349  -2.2890  -2.1557  -1.9828  -1.7339  -1.6702  -1.5757  -1.5378
    -1.3169  -1.2229  -1.0726  -1.0400  -0.9050  -0.6968  -0.4009  -0.3158
    -0.1950  -0.1474  -0.0166   0.0177   0.0409   0.1288   0.1472   0.2296
     0.2899   0.4671   0.4909   0.5867   0.6547   0.6559   0.7449   0.7821
     0.9868   1.4029   1.5183   1.6687   1.9529   2.0188   2.0699   2.1399
     2.1697   2.4851   2.5196   2.6555   2.7108   2.7616   2.8049   3.0132
     3.3665   3.4042   3.4738   3.5820   4.2057   4.2662   4.4639   4.5700
     5.1810   5.4889   5.8495

          k =-0.0926-0.0174 0.0000 ( 29612 PWs)   bands (ev):

   -78.5021 -78.5018 -78.1292 -78.1290 -78.1117 -78.1115 -76.8205 -76.8202
   -76.3317 -76.3314 -76.2301 -76.2299 -44.7286 -44.7264 -44.6929 -44.6900
   -44.6703 -44.6671 -44.2671 -44.2628 -44.1838 -44.1817 -44.1761 -44.1718
   -44.1215 -44.1212 -44.0593 -44.0566 -44.0104 -44.0098 -40.3559 -40.3510
   -40.2163 -40.2118 -40.2008 -40.1968 -39.8654 -39.8648 -39.8461 -39.8420
   -39.8079 -39.8027 -39.7834 -39.7793 -39.7572 -39.7527 -39.6576 -39.6555
    -4.3100  -3.6828  -3.0005  -2.7331  -2.7293  -2.6132  -2.5700  -2.5474
    -2.3663  -2.2851  -2.2352  -1.9725  -1.7792  -1.7060  -1.5638  -1.5236
    -1.2354  -1.2283  -1.1163  -0.9381  -0.9325  -0.6625  -0.5206  -0.5030
    -0.2206  -0.1932  -0.1237  -0.0374   0.0138   0.0944   0.1313   0.1977
     0.2740   0.4217   0.4534   0.6437   0.7284   0.7699   0.8809   0.9331
     0.9958   1.4478   1.6266   1.7424   1.8390   1.9448   2.0369   2.0848
     2.0962   2.5140   2.5298   2.7801   2.8308   2.8435   3.1720   3.3146
     3.3836   3.5076   3.5541   3.7316   4.1171   4.2059   4.2530   4.4824
     4.9042   5.0650   5.1708

          k =-0.0926 0.0000 0.0000 ( 29608 PWs)   bands (ev):

   -78.5021 -78.5018 -78.1292 -78.1290 -78.1117 -78.1115 -76.8206 -76.8202
   -76.3317 -76.3314 -76.2301 -76.2298 -44.7287 -44.7262 -44.6931 -44.6898
   -44.6706 -44.6669 -44.2674 -44.2625 -44.1840 -44.1816 -44.1764 -44.1714
   -44.1216 -44.1211 -44.0596 -44.0564 -44.0104 -44.0098 -40.3562 -40.3506
   -40.2164 -40.2110 -40.2017 -40.1967 -39.8654 -39.8648 -39.8464 -39.8416
   -39.8082 -39.8020 -39.7838 -39.7792 -39.7577 -39.7525 -39.6578 -39.6553
    -4.3376  -3.5484  -3.1160  -2.7014  -2.6846  -2.6121  -2.5679  -2.5628
    -2.3785  -2.3523  -2.1923  -1.9825  -1.8350  -1.6514  -1.5660  -1.5470
    -1.2476  -1.2161  -1.1317  -0.8695  -0.8518  -0.7037  -0.6168  -0.5946
    -0.2186  -0.2183  -0.1515  -0.0832  -0.0270   0.0770   0.1911   0.2079
     0.2735   0.3540   0.4298   0.6661   0.7598   0.8335   0.9330   0.9696
     1.0336   1.4618   1.7109   1.7538   1.8397   1.8625   2.0326   2.0356
     2.0755   2.5221   2.5297   2.8408   2.8756   2.8972   3.2809   3.3344
     3.5409   3.5745   3.8803   3.9504   4.0319   4.1648   4.1931   4.4250
     4.4790   4.5646   5.0322

          k =-0.0926 0.0174 0.0000 ( 29612 PWs)   bands (ev):

   -78.5021 -78.5018 -78.1292 -78.1290 -78.1117 -78.1115 -76.8205 -76.8202
   -76.3317 -76.3314 -76.2301 -76.2299 -44.7286 -44.7264 -44.6929 -44.6900
   -44.6703 -44.6671 -44.2671 -44.2628 -44.1838 -44.1817 -44.1761 -44.1718
   -44.1215 -44.1212 -44.0593 -44.0566 -44.0104 -44.0098 -40.3559 -40.3510
   -40.2163 -40.2118 -40.2008 -40.1968 -39.8654 -39.8648 -39.8461 -39.8420
   -39.8079 -39.8027 -39.7834 -39.7793 -39.7572 -39.7527 -39.6576 -39.6555
    -4.3100  -3.6828  -3.0005  -2.7331  -2.7293  -2.6132  -2.5700  -2.5474
    -2.3663  -2.2851  -2.2352  -1.9725  -1.7792  -1.7060  -1.5638  -1.5236
    -1.2354  -1.2283  -1.1163  -0.9381  -0.9325  -0.6625  -0.5206  -0.5030
    -0.2206  -0.1932  -0.1237  -0.0374   0.0138   0.0944   0.1313   0.1977
     0.2740   0.4217   0.4534   0.6437   0.7284   0.7699   0.8809   0.9331
     0.9958   1.4478   1.6266   1.7424   1.8390   1.9448   2.0369   2.0848
     2.0962   2.5140   2.5298   2.7801   2.8308   2.8435   3.1720   3.3146
     3.3836   3.5076   3.5541   3.7316   4.1171   4.2059   4.2530   4.4824
     4.9042   5.0650   5.1708

          k =-0.0926 0.0347 0.0000 ( 29588 PWs)   bands (ev):

   -78.5020 -78.5018 -78.1292 -78.1290 -78.1117 -78.1115 -76.8205 -76.8203
   -76.3316 -76.3315 -76.2300 -76.2299 -44.7282 -44.7269 -44.6923 -44.6907
   -44.6695 -44.6677 -44.2663 -44.2638 -44.1832 -44.1819 -44.1754 -44.1728
   -44.1214 -44.1212 -44.0587 -44.0571 -44.0102 -44.0099 -40.3549 -40.3521
   -40.2159 -40.2135 -40.1992 -40.1971 -39.8652 -39.8649 -39.8455 -39.8431
   -39.8072 -39.8042 -39.7822 -39.7799 -39.7560 -39.7535 -39.6571 -39.6559
    -4.2267  -3.8992  -2.8820  -2.8078  -2.7293  -2.6221  -2.5694  -2.5492
    -2.3349  -2.2890  -2.1557  -1.9828  -1.7339  -1.6702  -1.5757  -1.5378
    -1.3169  -1.2229  -1.0726  -1.0400  -0.9050  -0.6968  -0.4009  -0.3158
    -0.1950  -0.1474  -0.0166   0.0177   0.0409   0.1288   0.1472   0.2296
     0.2899   0.4671   0.4909   0.5867   0.6547   0.6559   0.7449   0.7821
     0.9868   1.4029   1.5183   1.6687   1.9529   2.0188   2.0699   2.1399
     2.1697   2.4851   2.5196   2.6555   2.7108   2.7616   2.8049   3.0132
     3.3665   3.4042   3.4738   3.5820   4.2057   4.2662   4.4639   4.5700
     5.1810   5.4889   5.8495

          k =-0.0926-0.1562 0.0000 ( 29578 PWs)   bands (ev):

   -78.5019 -78.5019 -78.1291 -78.1291 -78.1116 -78.1116 -76.8204 -76.8204
   -76.3315 -76.3315 -76.2300 -76.2300 -44.7276 -44.7276 -44.6915 -44.6915
   -44.6686 -44.6686 -44.2650 -44.2650 -44.1825 -44.1825 -44.1742 -44.1742
   -44.1213 -44.1213 -44.0579 -44.0579 -44.0101 -44.0101 -40.3535 -40.3535
   -40.2150 -40.2150 -40.1978 -40.1978 -39.8650 -39.8650 -39.8445 -39.8444
   -39.8059 -39.8058 -39.7809 -39.7809 -39.7546 -39.7546 -39.6565 -39.6565
    -4.0881  -4.0881  -2.8540  -2.8540  -2.6632  -2.6632  -2.5620  -2.5620
    -2.3143  -2.3143  -2.0392  -2.0392  -1.6718  -1.6718  -1.5818  -1.5818
    -1.2749  -1.2749  -1.0999  -1.0999  -0.7687  -0.7687  -0.3126  -0.3126
    -0.1321  -0.1321   0.0229   0.0229   0.1031   0.1032   0.2380   0.2380
     0.4160   0.4160   0.5296   0.5297   0.5852   0.5852   0.6591   0.6592
     1.1474   1.1474   1.6117   1.6117   2.0179   2.0179   2.1344   2.1344
     2.3286   2.3286   2.5272   2.5272   2.6368   2.6368   2.8350   2.8350
     3.3488   3.3488   3.5274   3.5274   4.2676   4.2676   4.5781   4.5781
     5.3824   5.3824   6.4074

     the Fermi energy is     2.4134 ev

!    total energy              =   -2440.54531033 Ry
     estimated scf accuracy    <       0.00000862 Ry
     smearing contrib. (-TS)   =      -0.05956682 Ry
     internal energy E=F+TS    =   -2440.48574351 Ry

     The total energy is F=E-TS. E is the sum of the following terms:
     one-electron contribution =  -21604.15399233 Ry
     hartree contribution      =   10794.02925523 Ry
     xc contribution           =    -429.84903194 Ry
     ewald contribution        =    8799.48802493 Ry
     electric field correction =       0.00000061 Ry

     convergence has been achieved in  13 iterations

     negative rho (up, down):  1.120E-03 0.000E+00

     Forces acting on atoms (cartesian axes, Ry/au):

     atom    1 type  1   force =    -0.00000122   -0.02306978    0.01647172
     atom    2 type  1   force =     0.00000055   -0.02307105    0.01647284
     atom    3 type  2   force =    -0.00000141    0.01581380    0.02439048
     atom    4 type  2   force =     0.00000173    0.01581188    0.02438429
     atom    5 type  1   force =     0.00000279    0.00490774   -0.01387199
     atom    6 type  1   force =    -0.00000274    0.00490941   -0.01387182
     atom    7 type  2   force =     0.00000117    0.00193385   -0.02218227
     atom    8 type  2   force =     0.00000012    0.00193445   -0.02218208
     atom    9 type  1   force =     0.00000501    0.00045182   -0.00275181
     atom   10 type  1   force =    -0.00000510    0.00045221   -0.00275110
     atom   11 type  2   force =    -0.00000074   -0.00003923   -0.00205422
     atom   12 type  2   force =    -0.00000017   -0.00003511   -0.00205404

     Total force =     0.068887     Total SCF correction =     0.016163
     SCF correction compared to forces is large: reduce conv_thr to get better values

     Writing output data file ./Rh2Re2/Rh2Re2_beef.save/

     init_run     :     83.50s CPU     84.14s WALL (       1 calls)
     electrons    :   2772.59s CPU   2796.23s WALL (       1 calls)
     forces       :     57.71s CPU     57.99s WALL (       1 calls)

     Called by init_run:
     wfcinit      :     67.43s CPU     67.90s WALL (       1 calls)
     potinit      :      9.56s CPU      9.63s WALL (       1 calls)
     hinit0       :      4.54s CPU      4.55s WALL (       1 calls)

     Called by electrons:
     c_bands      :   2420.89s CPU   2438.88s WALL (      13 calls)
     sum_band     :    318.38s CPU    321.67s WALL (      13 calls)
     v_of_rho     :     28.14s CPU     29.08s WALL (      14 calls)
     newd         :     11.15s CPU     12.43s WALL (      14 calls)
     mix_rho      :      2.08s CPU      2.09s WALL (      13 calls)
     vdW_kernel   :      5.99s CPU      6.00s WALL (       1 calls)

     Called by c_bands:
     init_us_2    :      6.59s CPU      6.65s WALL (    2072 calls)
     cegterg      :   2380.78s CPU   2397.28s WALL (     962 calls)

     Called by *egterg:
     cdiaghg      :    138.22s CPU    138.52s WALL (    3275 calls)
     h_psi        :   1070.95s CPU   1084.97s WALL (    3349 calls)
     s_psi        :    189.05s CPU    189.32s WALL (    3349 calls)
     g_psi        :      1.11s CPU      1.11s WALL (    2313 calls)

     Called by h_psi:
     h_psi:calbec :    391.66s CPU    393.17s WALL (    3349 calls)
     vloc_psi     :    480.45s CPU    492.61s WALL (    3349 calls)
     add_vuspsi   :    195.69s CPU    195.99s WALL (    3349 calls)

     General routines
     calbec       :    621.57s CPU    623.90s WALL (    4607 calls)
     fft          :     20.53s CPU     21.05s WALL (     941 calls)
     ffts         :      0.12s CPU      0.23s WALL (      27 calls)
     fftw         :    569.51s CPU    582.73s WALL (  605690 calls)
     interpolate  :      0.26s CPU      0.38s WALL (      14 calls)

     Parallel routines
     fft_scatt_xy :     43.23s CPU     43.78s WALL (  606658 calls)
     fft_scatt_yz :    196.36s CPU    205.44s WALL (  606658 calls)

     PWSCF        :  49m41.60s CPU  50m36.82s WALL


   This run was terminated on:  19:52:38  24Jun2022            

=------------------------------------------------------------------------------=
   JOB DONE.
=------------------------------------------------------------------------------=
