
     Program PWSCF v.6.6 starts on 24Jun2022 at 14:13: 1 

     This program is part of the open-source Quantum ESPRESSO suite
     for quantum simulation of materials; please cite
         "P. Giannozzi et al., J. Phys.:Condens. Matter 21 395502 (2009);
         "P. Giannozzi et al., J. Phys.:Condens. Matter 29 465901 (2017);
          URL http://www.quantum-espresso.org", 
     in publications or presentations arising from this work. More details at
     http://www.quantum-espresso.org/quote

     Parallel version (MPI), running on    37 processors

     MPI processes distributed on     1 nodes
     R & G space division:  proc/nbgrp/npool/nimage =      37
     Fft bands division:     nmany     =       1
     Reading input from Rh2W2.in
Warning: card &CELL ignored
Warning: card / ignored

     Current dimensions of program PWSCF are:
     Max number of different atomic species (ntypx) = 10
     Max number of k-points (npk) =  40000
     Max angular momentum in pseudopotentials (lmaxx) =  3
     Presently stress not available with electric field and gates

     Message from routine cell_base_init:
     DEPRECATED: use true lattice parameter, not A to a.u. conversion factor
     Message from routine emend_upf/check:
     BEWARE !!! Possible out of bounds while fixing pseudo
     Message from routine emend_upf/check:
     BEWARE !!! Possible out of bounds while fixing pseudo
     Message from routine read_upf:
     Pseudo file W.pbe-spn-rrkjus_psl.0.2.3.UPF has been fixed on the fly.
     To avoid this message in the future, permanently fix 
     your pseudo files following these instructions: 
     https://gitlab.com/QEF/q-e/blob/master/upftools/how_to_fix_upf.md
     file Rh.pbe-spn-rrkjus_psl.1.0.0.UPF: wavefunction(s)  4S 5S renormalized

     **************************************************************************
     Initializing libbeef V0.1.2 with the BEEF-vdW functional.
     Citation: Wellendorff et al., PRB 85, 235149 (2012).
     **************************************************************************


     IMPORTANT: XC functional enforced from input :
     Exchange-correlation= BEEF-VDW
                           (   1   4  43  14   2   0   0)
     Any further DFT definition will be discarded
     Please, verify this is what you really want


     Subspace diagonalization in iterative solution of the eigenvalue problem:
     a serial algorithm will be used

     Found symmetry operation: I + (  0.5000  0.0000  0.0000)
     This is a supercell, fractional translations are disabled

     Parallelization info
     --------------------
     sticks:   dense  smooth     PW     G-vecs:    dense   smooth      PW
     Min         112      44     13                25964     6554    1035
     Max         113      45     14                25981     6585    1044
     Sum        4161    1659    499               960903   243229   38421



     bravais-lattice index     =            0
     lattice parameter (alat)  =       1.8897  a.u.
     unit-cell volume          =    4397.6718 (a.u.)^3
     number of atoms/cell      =           12
     number of atomic types    =            2
     number of electrons       =       186.00
     number of Kohn-Sham states=          112
     kinetic-energy cutoff     =      55.1240  Ry
     charge density cutoff     =     551.2396  Ry
     convergence threshold     =      1.0E-05
     mixing beta               =       0.1000
     number of iterations used =           10  plain     mixing
     Exchange-correlation= BEEF-VDW
                           (   1   4  43  14   2   0   0)

     celldm(1)=   1.889726  celldm(2)=   0.000000  celldm(3)=   0.000000
     celldm(4)=   0.000000  celldm(5)=   0.000000  celldm(6)=   0.000000

     crystal axes: (cart. coord. in units of alat)
               a(1) = (   5.520439   0.000000   0.000000 )  
               a(2) = (  -2.760219   4.813750   0.000000 )  
               a(3) = (   0.000000   0.000000  24.522749 )  

     reciprocal axes: (cart. coord. in units 2 pi/alat)
               b(1) = (  0.181145  0.103869 -0.000000 )  
               b(2) = (  0.000000  0.207738  0.000000 )  
               b(3) = (  0.000000 -0.000000  0.040778 )  


     PseudoPot. # 1 for Rh read from file:
     ../pseudo/Rh.pbe-spn-rrkjus_psl.1.0.0.UPF
     MD5 check sum: 912a852783f0c9b7bd5e9eb06cc0cc10
     Pseudo is Ultrasoft + core correction, Zval = 17.0
     Generated using "atomic" code by A. Dal Corso v.6.3
     Using radial grid of 1233 points,  6 beta functions with: 
                l(1) =   0
                l(2) =   0
                l(3) =   1
                l(4) =   1
                l(5) =   2
                l(6) =   2
     Q(r) pseudized with 0 coefficients 


     PseudoPot. # 2 for W  read from file:
     ../pseudo/W.pbe-spn-rrkjus_psl.0.2.3.UPF
     MD5 check sum: 25b665cf2bbae626ad8d9f1bc024df95
     Pseudo is Ultrasoft + core correction, Zval = 14.0
     Generated using "atomic" code by A. Dal Corso v.5.0.2 svn rev. 10551
     Using radial grid of 1273 points,  6 beta functions with: 
                l(1) =   0
                l(2) =   0
                l(3) =   1
                l(4) =   1
                l(5) =   2
                l(6) =   2
     Q(r) pseudized with 0 coefficients 


     atomic species   valence    mass     pseudopotential
        Rh            17.00   102.90550     Rh( 1.00)
        W             14.00   183.84000     W ( 1.00)

     No symmetry found



   Cartesian axes

     site n.     atom                  positions (alat units)
         1           Rh  tau(   1) = (   0.0000000   0.0000000  10.0000000  )
         2           Rh  tau(   2) = (   2.7602194   0.0000000  10.0000000  )
         3           W   tau(   3) = (   1.3801097   2.4068752  10.0000000  )
         4           W   tau(   4) = (  -1.3801097   2.4068752  10.0000000  )
         5           Rh  tau(   5) = (   2.7602194   1.5827184  12.2613743  )
         6           Rh  tau(   6) = (   0.0000000   1.5827184  12.2613743  )
         7           W   tau(   7) = (  -1.3801097   3.9895936  12.2613743  )
         8           W   tau(   8) = (   1.3801097   3.9895936  12.2613743  )
         9           Rh  tau(   9) = (   0.0000016   3.2451610  14.4678511  )
        10           Rh  tau(  10) = (   2.7602175   3.2451619  14.4678510  )
        11           W   tau(  11) = (   4.1403286   0.7881886  14.4086920  )
        12           W   tau(  12) = (   1.3801082   0.7881899  14.4086923  )

     number of k points=    74  Fermi-Dirac smearing, width (Ry)=  0.0100
                       cart. coord. in units 2pi/alat
        k(    1) = (   0.0000000   0.0000000   0.0000000), wk =   0.0138889
        k(    2) = (   0.0000000   0.0173115   0.0000000), wk =   0.0277778
        k(    3) = (   0.0000000   0.0346230   0.0000000), wk =   0.0277778
        k(    4) = (   0.0000000   0.0519346   0.0000000), wk =   0.0277778
        k(    5) = (   0.0000000   0.0692461   0.0000000), wk =   0.0277778
        k(    6) = (   0.0000000   0.0865576   0.0000000), wk =   0.0277778
        k(    7) = (   0.0000000  -0.1038691   0.0000000), wk =   0.0138889
        k(    8) = (   0.0150954   0.0086558   0.0000000), wk =   0.0277778
        k(    9) = (   0.0150954   0.0259673   0.0000000), wk =   0.0277778
        k(   10) = (   0.0150954   0.0432788   0.0000000), wk =   0.0277778
        k(   11) = (   0.0150954   0.0605903   0.0000000), wk =   0.0277778
        k(   12) = (   0.0150954   0.0779018   0.0000000), wk =   0.0277778
        k(   13) = (   0.0150954   0.0952134   0.0000000), wk =   0.0277778
        k(   14) = (   0.0150954  -0.0952134   0.0000000), wk =   0.0277778
        k(   15) = (   0.0150954  -0.0779018   0.0000000), wk =   0.0277778
        k(   16) = (   0.0150954  -0.0605903   0.0000000), wk =   0.0277778
        k(   17) = (   0.0150954  -0.0432788   0.0000000), wk =   0.0277778
        k(   18) = (   0.0150954  -0.0259673   0.0000000), wk =   0.0277778
        k(   19) = (   0.0150954  -0.0086558   0.0000000), wk =   0.0277778
        k(   20) = (   0.0301908   0.0173115   0.0000000), wk =   0.0277778
        k(   21) = (   0.0301908   0.0346230   0.0000000), wk =   0.0277778
        k(   22) = (   0.0301908   0.0519346   0.0000000), wk =   0.0277778
        k(   23) = (   0.0301908   0.0692461   0.0000000), wk =   0.0277778
        k(   24) = (   0.0301908   0.0865576   0.0000000), wk =   0.0277778
        k(   25) = (   0.0301908   0.1038691   0.0000000), wk =   0.0277778
        k(   26) = (   0.0301908  -0.0865576   0.0000000), wk =   0.0277778
        k(   27) = (   0.0301908  -0.0692461   0.0000000), wk =   0.0277778
        k(   28) = (   0.0301908  -0.0519346   0.0000000), wk =   0.0277778
        k(   29) = (   0.0301908  -0.0346230   0.0000000), wk =   0.0277778
        k(   30) = (   0.0301908  -0.0173115   0.0000000), wk =   0.0277778
        k(   31) = (   0.0301908  -0.0000000   0.0000000), wk =   0.0277778
        k(   32) = (   0.0452863   0.0259673   0.0000000), wk =   0.0277778
        k(   33) = (   0.0452863   0.0432788   0.0000000), wk =   0.0277778
        k(   34) = (   0.0452863   0.0605903   0.0000000), wk =   0.0277778
        k(   35) = (   0.0452863   0.0779018   0.0000000), wk =   0.0277778
        k(   36) = (   0.0452863   0.0952134   0.0000000), wk =   0.0277778
        k(   37) = (   0.0452863   0.1125249   0.0000000), wk =   0.0277778
        k(   38) = (   0.0452863  -0.0779018   0.0000000), wk =   0.0277778
        k(   39) = (   0.0452863  -0.0605903   0.0000000), wk =   0.0277778
        k(   40) = (   0.0452863  -0.0432788   0.0000000), wk =   0.0277778
        k(   41) = (   0.0452863  -0.0259673   0.0000000), wk =   0.0277778
        k(   42) = (   0.0452863  -0.0086558   0.0000000), wk =   0.0277778
        k(   43) = (   0.0452863   0.0086558   0.0000000), wk =   0.0277778
        k(   44) = (   0.0603817   0.0346230   0.0000000), wk =   0.0277778
        k(   45) = (   0.0603817   0.0519346   0.0000000), wk =   0.0277778
        k(   46) = (   0.0603817   0.0692461   0.0000000), wk =   0.0277778
        k(   47) = (   0.0603817   0.0865576   0.0000000), wk =   0.0277778
        k(   48) = (   0.0603817   0.1038691   0.0000000), wk =   0.0277778
        k(   49) = (   0.0603817   0.1211806   0.0000000), wk =   0.0277778
        k(   50) = (   0.0603817  -0.0692461   0.0000000), wk =   0.0277778
        k(   51) = (   0.0603817  -0.0519346   0.0000000), wk =   0.0277778
        k(   52) = (   0.0603817  -0.0346230   0.0000000), wk =   0.0277778
        k(   53) = (   0.0603817  -0.0173115   0.0000000), wk =   0.0277778
        k(   54) = (   0.0603817  -0.0000000   0.0000000), wk =   0.0277778
        k(   55) = (   0.0603817   0.0173115   0.0000000), wk =   0.0277778
        k(   56) = (   0.0754771   0.0432788   0.0000000), wk =   0.0277778
        k(   57) = (   0.0754771   0.0605903   0.0000000), wk =   0.0277778
        k(   58) = (   0.0754771   0.0779018   0.0000000), wk =   0.0277778
        k(   59) = (   0.0754771   0.0952134   0.0000000), wk =   0.0277778
        k(   60) = (   0.0754771   0.1125249   0.0000000), wk =   0.0277778
        k(   61) = (   0.0754771   0.1298364   0.0000000), wk =   0.0277778
        k(   62) = (   0.0754771  -0.0605903   0.0000000), wk =   0.0277778
        k(   63) = (   0.0754771  -0.0432788   0.0000000), wk =   0.0277778
        k(   64) = (   0.0754771  -0.0259673   0.0000000), wk =   0.0277778
        k(   65) = (   0.0754771  -0.0086558   0.0000000), wk =   0.0277778
        k(   66) = (   0.0754771   0.0086558   0.0000000), wk =   0.0277778
        k(   67) = (   0.0754771   0.0259673   0.0000000), wk =   0.0277778
        k(   68) = (  -0.0905725  -0.0519346   0.0000000), wk =   0.0138889
        k(   69) = (  -0.0905725  -0.0346230   0.0000000), wk =   0.0277778
        k(   70) = (  -0.0905725  -0.0173115   0.0000000), wk =   0.0277778
        k(   71) = (  -0.0905725   0.0000000   0.0000000), wk =   0.0277778
        k(   72) = (  -0.0905725   0.0173115   0.0000000), wk =   0.0277778
        k(   73) = (  -0.0905725   0.0346231   0.0000000), wk =   0.0277778
        k(   74) = (  -0.0905725  -0.1558037   0.0000000), wk =   0.0138889

     Dense  grid:   960903 G-vectors     FFT dimensions: (  80,  80, 360)

     Smooth grid:   243229 G-vectors     FFT dimensions: (  50,  50, 225)

     Estimated max dynamical RAM per process >     209.41 MB

     Estimated total dynamical RAM >       7.57 GB

     Initial potential from superposition of free atoms

     starting charge  185.99372, renormalised to  186.00000

     negative rho (up, down):  1.352E-03 0.000E+00


     %%%%%%%%%%%%%%%%%%%%%%%%%%%%%%%%%%%%%%%%%%%%%%%%%%%%%%%%%%%%%%%%%%%%%%%%
     %                                                                      %
     % You are using vdW-DF, which was implemented by the Thonhauser group. %
     % Please cite the following two papers that made this development      %
     % possible and the two reviews that describe the various versions:     %
     %                                                                      %
     %   T. Thonhauser et al., PRL 115, 136402 (2015).                      %
     %   T. Thonhauser et al., PRB 76, 125112 (2007).                       %
     %   K. Berland et al., Rep. Prog. Phys. 78, 066501 (2015).             %
     %   D.C. Langreth et al., J. Phys.: Condens. Matter 21, 084203 (2009). %
     %                                                                      %
     %                                                                      %
     % If you are calculating the stress with vdW-DF, please also cite:     %
     %                                                                      %
     %   R. Sabatini et al., J. Phys.: Condens. Matter 24, 424209 (2012).   %
     %                                                                      %
     %%%%%%%%%%%%%%%%%%%%%%%%%%%%%%%%%%%%%%%%%%%%%%%%%%%%%%%%%%%%%%%%%%%%%%%%



     Adding external electric field

     Computed dipole along edir(3) : 
        Dipole               -0.0000 Ry au,         -0.0000 Debye
        Dipole field         -0.0000 Ry au, 

        Potential amp.        0.0000 Ry
        Total length         45.1827 bohr

     Starting wfcs are  138 randomized atomic wfcs

     total cpu time spent up to now is      105.2 secs

     Self-consistent Calculation

     iteration #  1     ecut=    55.12 Ry     beta= 0.10
     Davidson diagonalization with overlap
     ethr =  1.00E-02,  avg # of iterations =  2.0

     negative rho (up, down):  1.323E-03 0.000E+00

     Adding external electric field

     Computed dipole along edir(3) : 
        Dipole               -0.2390 Ry au,         -0.6074 Debye
        Dipole field         -0.0007 Ry au, 

        Potential amp.        0.0617 Ry
        Total length         45.1827 bohr


     total cpu time spent up to now is      367.4 secs

     total energy              =   -2319.38561826 Ry
     estimated scf accuracy    <       8.04769985 Ry

     iteration #  2     ecut=    55.12 Ry     beta= 0.10
     Davidson diagonalization with overlap
     ethr =  4.33E-03,  avg # of iterations =  1.3

     negative rho (up, down):  1.356E-03 0.000E+00

     Adding external electric field

     Computed dipole along edir(3) : 
        Dipole                0.7658 Ry au,          1.9464 Debye
        Dipole field          0.0022 Ry au, 

        Potential amp.       -0.1977 Ry
        Total length         45.1827 bohr


     total cpu time spent up to now is      563.1 secs

     total energy              =   -2319.60442529 Ry
     estimated scf accuracy    <       3.85969360 Ry

     iteration #  3     ecut=    55.12 Ry     beta= 0.10
     Davidson diagonalization with overlap
     ethr =  2.08E-03,  avg # of iterations =  1.9

     negative rho (up, down):  1.495E-03 0.000E+00

     Adding external electric field

     Computed dipole along edir(3) : 
        Dipole               -0.0724 Ry au,         -0.1839 Debye
        Dipole field         -0.0002 Ry au, 

        Potential amp.        0.0187 Ry
        Total length         45.1827 bohr


     total cpu time spent up to now is      780.7 secs

     total energy              =   -2319.38394395 Ry
     estimated scf accuracy    <      33.32324284 Ry

     iteration #  4     ecut=    55.12 Ry     beta= 0.10
     Davidson diagonalization with overlap
     ethr =  2.08E-03,  avg # of iterations =  1.0

     negative rho (up, down):  1.438E-03 0.000E+00

     Adding external electric field

     Computed dipole along edir(3) : 
        Dipole                0.0107 Ry au,          0.0272 Debye
        Dipole field          0.0000 Ry au, 

        Potential amp.       -0.0028 Ry
        Total length         45.1827 bohr


     total cpu time spent up to now is      967.8 secs

     total energy              =   -2319.90997927 Ry
     estimated scf accuracy    <       0.55444559 Ry

     iteration #  5     ecut=    55.12 Ry     beta= 0.10
     Davidson diagonalization with overlap
     ethr =  2.98E-04,  avg # of iterations =  1.9

     negative rho (up, down):  1.530E-03 0.000E+00

     Adding external electric field

     Computed dipole along edir(3) : 
        Dipole                0.0059 Ry au,          0.0149 Debye
        Dipole field          0.0000 Ry au, 

        Potential amp.       -0.0015 Ry
        Total length         45.1827 bohr


     total cpu time spent up to now is     1189.2 secs

     total energy              =   -2319.89418855 Ry
     estimated scf accuracy    <       0.14400017 Ry

     iteration #  6     ecut=    55.12 Ry     beta= 0.10
     Davidson diagonalization with overlap
     ethr =  7.74E-05,  avg # of iterations =  5.2

     negative rho (up, down):  1.838E-03 0.000E+00

     Adding external electric field

     Computed dipole along edir(3) : 
        Dipole                0.0149 Ry au,          0.0379 Debye
        Dipole field          0.0000 Ry au, 

        Potential amp.       -0.0039 Ry
        Total length         45.1827 bohr


     total cpu time spent up to now is     1445.3 secs

     total energy              =   -2319.90352176 Ry
     estimated scf accuracy    <       0.04794082 Ry

     iteration #  7     ecut=    55.12 Ry     beta= 0.10
     Davidson diagonalization with overlap
     ethr =  2.58E-05,  avg # of iterations =  7.3

     negative rho (up, down):  2.762E-03 0.000E+00

     Adding external electric field

     Computed dipole along edir(3) : 
        Dipole                0.0111 Ry au,          0.0283 Debye
        Dipole field          0.0000 Ry au, 

        Potential amp.       -0.0029 Ry
        Total length         45.1827 bohr


     total cpu time spent up to now is     1693.3 secs

     total energy              =   -2319.90289523 Ry
     estimated scf accuracy    <       0.02262100 Ry

     iteration #  8     ecut=    55.12 Ry     beta= 0.10
     Davidson diagonalization with overlap
     ethr =  1.22E-05,  avg # of iterations =  4.0

     negative rho (up, down):  3.587E-03 0.000E+00

     Adding external electric field

     Computed dipole along edir(3) : 
        Dipole                0.0109 Ry au,          0.0276 Debye
        Dipole field          0.0000 Ry au, 

        Potential amp.       -0.0028 Ry
        Total length         45.1827 bohr


     total cpu time spent up to now is     1938.3 secs

     total energy              =   -2319.90471549 Ry
     estimated scf accuracy    <       0.00546794 Ry

     iteration #  9     ecut=    55.12 Ry     beta= 0.10
     Davidson diagonalization with overlap
     ethr =  2.94E-06,  avg # of iterations =  7.2

     negative rho (up, down):  4.076E-03 0.000E+00

     Adding external electric field

     Computed dipole along edir(3) : 
        Dipole                0.0180 Ry au,          0.0458 Debye
        Dipole field          0.0001 Ry au, 

        Potential amp.       -0.0047 Ry
        Total length         45.1827 bohr


     total cpu time spent up to now is     2222.6 secs

     total energy              =   -2319.90488886 Ry
     estimated scf accuracy    <       0.00219762 Ry

     iteration # 10     ecut=    55.12 Ry     beta= 0.10
     Davidson diagonalization with overlap
     ethr =  1.18E-06,  avg # of iterations =  3.9

     negative rho (up, down):  4.311E-03 0.000E+00

     Adding external electric field

     Computed dipole along edir(3) : 
        Dipole                0.0147 Ry au,          0.0374 Debye
        Dipole field          0.0000 Ry au, 

        Potential amp.       -0.0038 Ry
        Total length         45.1827 bohr


     total cpu time spent up to now is     2492.5 secs

     total energy              =   -2319.90515391 Ry
     estimated scf accuracy    <       0.00166069 Ry

     iteration # 11     ecut=    55.12 Ry     beta= 0.10
     Davidson diagonalization with overlap
     ethr =  8.93E-07,  avg # of iterations =  2.1

     negative rho (up, down):  4.077E-03 0.000E+00

     Adding external electric field

     Computed dipole along edir(3) : 
        Dipole                0.0138 Ry au,          0.0350 Debye
        Dipole field          0.0000 Ry au, 

        Potential amp.       -0.0036 Ry
        Total length         45.1827 bohr


     total cpu time spent up to now is     2724.1 secs

     total energy              =   -2319.90534226 Ry
     estimated scf accuracy    <       0.00012522 Ry

     iteration # 12     ecut=    55.12 Ry     beta= 0.10
     Davidson diagonalization with overlap
     c_bands:  1 eigenvalues not converged
     ethr =  6.73E-08,  avg # of iterations =  5.7

     negative rho (up, down):  3.835E-03 0.000E+00

     Adding external electric field

     Computed dipole along edir(3) : 
        Dipole                0.0141 Ry au,          0.0360 Debye
        Dipole field          0.0000 Ry au, 

        Potential amp.       -0.0037 Ry
        Total length         45.1827 bohr


     total cpu time spent up to now is     3011.4 secs

     total energy              =   -2319.90533180 Ry
     estimated scf accuracy    <       0.00018881 Ry

     iteration # 13     ecut=    55.12 Ry     beta= 0.10
     Davidson diagonalization with overlap
     ethr =  6.73E-08,  avg # of iterations =  3.3

     negative rho (up, down):  3.534E-03 0.000E+00

     Adding external electric field

     Computed dipole along edir(3) : 
        Dipole                0.0143 Ry au,          0.0364 Debye
        Dipole field          0.0000 Ry au, 

        Potential amp.       -0.0037 Ry
        Total length         45.1827 bohr


     total cpu time spent up to now is     3269.9 secs

     total energy              =   -2319.90536291 Ry
     estimated scf accuracy    <       0.00001389 Ry

     iteration # 14     ecut=    55.12 Ry     beta= 0.10
     Davidson diagonalization with overlap
     ethr =  7.47E-09,  avg # of iterations =  4.6

     negative rho (up, down):  3.331E-03 0.000E+00

     Adding external electric field

     Computed dipole along edir(3) : 
        Dipole                0.0144 Ry au,          0.0366 Debye
        Dipole field          0.0000 Ry au, 

        Potential amp.       -0.0037 Ry
        Total length         45.1827 bohr


     total cpu time spent up to now is     3547.0 secs

     total energy              =   -2319.90536162 Ry
     estimated scf accuracy    <       0.00001274 Ry

     iteration # 15     ecut=    55.12 Ry     beta= 0.10
     Davidson diagonalization with overlap
     ethr =  6.85E-09,  avg # of iterations =  4.8

     negative rho (up, down):  3.084E-03 0.000E+00

     Adding external electric field

     Computed dipole along edir(3) : 
        Dipole                0.0143 Ry au,          0.0364 Debye
        Dipole field          0.0000 Ry au, 

        Potential amp.       -0.0037 Ry
        Total length         45.1827 bohr


     total cpu time spent up to now is     3844.8 secs

     total energy              =   -2319.90536087 Ry
     estimated scf accuracy    <       0.00001623 Ry

     iteration # 16     ecut=    55.12 Ry     beta= 0.10
     Davidson diagonalization with overlap
     ethr =  6.85E-09,  avg # of iterations =  3.0

     negative rho (up, down):  1.751E-03 0.000E+00

     Adding external electric field

     Computed dipole along edir(3) : 
        Dipole                0.0180 Ry au,          0.0458 Debye
        Dipole field          0.0001 Ry au, 

        Potential amp.       -0.0047 Ry
        Total length         45.1827 bohr


     total cpu time spent up to now is     4096.5 secs

     End of self-consistent calculation

          k = 0.0000 0.0000 0.0000 ( 30485 PWs)   bands (ev):

   -76.8090 -76.7821 -76.2385 -76.2118 -76.1957 -76.1692 -72.3585 -72.3333
   -72.3077 -72.2828 -72.2619 -72.2116 -44.7937 -44.7458 -44.7104 -44.6362
   -44.6020 -44.4951 -44.2063 -44.1871 -44.1517 -44.1515 -44.1493 -44.1137
   -44.0371 -44.0074 -43.9851 -43.9556 -43.9108 -43.8580 -36.8010 -36.6945
   -36.6085 -36.5949 -36.5545 -36.4790 -36.4538 -36.3981 -36.3861 -36.3812
   -36.3495 -36.3082 -36.2749 -36.0484 -36.0221 -35.9768 -35.8316 -35.7890
    -5.6040  -3.8304  -3.6068  -3.4264  -3.3739  -3.3344  -3.1588  -2.9412
    -2.8056  -2.6504  -2.6092  -2.5407  -2.3500  -2.1629  -2.1568  -1.0616
    -1.0580  -0.9598  -0.6116  -0.4736  -0.3945  -0.1634  -0.1611  -0.0257
     0.0351   0.0454   0.4271   0.4639   0.5844   0.6089   0.7250   0.8903
     1.1750   1.2796   1.4955   1.5036   1.6865   1.6997   1.8134   1.9554
     2.3239   2.5757   2.7878   2.8730   3.1054   3.1286   3.2034   3.3308
     3.5718   3.8373   3.9628   4.2419   4.2752   4.4041   4.4457   4.4850
     4.5981   4.7477   4.7531   5.2872   5.5038   5.7407   5.8065   5.8310

          k = 0.0000 0.0173 0.0000 ( 30473 PWs)   bands (ev):

   -76.8090 -76.7821 -76.2385 -76.2118 -76.1957 -76.1692 -72.3585 -72.3333
   -72.3077 -72.2828 -72.2619 -72.2116 -44.7935 -44.7455 -44.7102 -44.6358
   -44.6019 -44.4951 -44.2061 -44.1865 -44.1514 -44.1513 -44.1486 -44.1135
   -44.0372 -44.0075 -43.9850 -43.9555 -43.9108 -43.8580 -36.8017 -36.6958
   -36.6091 -36.5954 -36.5551 -36.4789 -36.4550 -36.3979 -36.3867 -36.3814
   -36.3507 -36.3089 -36.2755 -36.0485 -36.0222 -35.9768 -35.8317 -35.7891
    -5.5426  -3.7759  -3.5574  -3.3763  -3.3224  -3.3067  -3.1202  -2.9130
    -2.7589  -2.6166  -2.5801  -2.5172  -2.2906  -2.1292  -2.1011  -1.0595
    -1.0396  -0.9586  -0.6099  -0.4425  -0.3836  -0.2292  -0.1297  -0.0186
    -0.0068   0.0636   0.4301   0.4885   0.5697   0.6457   0.6683   0.8508
     1.0569   1.2261   1.4836   1.5087   1.6294   1.7069   1.7333   1.9199
     2.2020   2.5516   2.7293   2.7613   2.9663   3.0720   3.1933   3.3138
     3.4532   3.8483   3.9492   4.0072   4.0354   4.1021   4.4424   4.4765
     4.6583   4.8337   4.9038   5.1990   5.4520   5.5261   5.6567   5.8074

          k = 0.0000 0.0346 0.0000 ( 30445 PWs)   bands (ev):

   -76.8089 -76.7821 -76.2384 -76.2118 -76.1956 -76.1692 -72.3587 -72.3333
   -72.3078 -72.2828 -72.2620 -72.2116 -44.7928 -44.7447 -44.7099 -44.6347
   -44.6014 -44.4950 -44.2054 -44.1850 -44.1508 -44.1507 -44.1469 -44.1129
   -44.0374 -44.0076 -43.9848 -43.9555 -43.9107 -43.8579 -36.8038 -36.6994
   -36.6109 -36.5968 -36.5568 -36.4790 -36.4581 -36.3974 -36.3883 -36.3819
   -36.3539 -36.3108 -36.2773 -36.0489 -36.0225 -35.9768 -35.8319 -35.7893
    -5.3631  -3.6304  -3.4166  -3.2298  -3.2230  -3.1732  -3.0121  -2.8272
    -2.6235  -2.5158  -2.4906  -2.4483  -2.1198  -2.0488  -1.9208  -1.0582
    -0.9896  -0.9627  -0.6131  -0.3883  -0.3541  -0.3520  -0.1125  -0.0465
    -0.0244   0.1202   0.4192   0.5083   0.5186   0.5591   0.7470   0.7514
     0.7844   1.0961   1.4515   1.4519   1.4864   1.5573   1.7259   1.7538
     1.9177   2.3978   2.4791   2.6099   2.6467   2.8579   3.0184   3.0931
     3.3931   3.4705   3.4889   3.7422   3.8924   3.9569   4.2658   4.4031
     4.8256   4.9060   4.9215   5.1110   5.1868   5.2720   5.2983   5.4782

          k = 0.0000 0.0519 0.0000 ( 30389 PWs)   bands (ev):

   -76.8089 -76.7821 -76.2384 -76.2118 -76.1956 -76.1692 -72.3588 -72.3334
   -72.3078 -72.2828 -72.2620 -72.2115 -44.7919 -44.7436 -44.7094 -44.6332
   -44.6008 -44.4949 -44.2045 -44.1829 -44.1500 -44.1498 -44.1446 -44.1121
   -44.0377 -44.0078 -43.9846 -43.9555 -43.9106 -43.8578 -36.8066 -36.7043
   -36.6134 -36.5987 -36.5592 -36.4799 -36.4616 -36.3969 -36.3904 -36.3827
   -36.3583 -36.3134 -36.2799 -36.0494 -36.0230 -35.9769 -35.8322 -35.7897
    -5.0796  -3.4762  -3.1900  -3.0789  -2.9993  -2.9442  -2.8575  -2.6796
    -2.4136  -2.3528  -2.3425  -2.3389  -1.9223  -1.8579  -1.6465  -1.0673
    -0.9823  -0.9327  -0.6470  -0.5765  -0.3071  -0.2747  -0.1987  -0.0940
     0.0505   0.2281   0.2638   0.4070   0.4325   0.4368   0.6228   0.6636
     0.9102   0.9460   1.2976   1.3166   1.3507   1.4103   1.4478   1.5669
     1.7526   1.9811   2.1617   2.2649   2.2851   2.4769   2.6621   2.8511
     2.9084   3.0689   3.2773   3.5716   3.7879   4.0164   4.0594   4.3012
     4.4008   4.6376   4.8574   4.9681   4.9900   5.0812   5.2694   5.4691

          k = 0.0000 0.0692 0.0000 ( 30388 PWs)   bands (ev):

   -76.8088 -76.7821 -76.2383 -76.2118 -76.1955 -76.1692 -72.3590 -72.3334
   -72.3079 -72.2828 -72.2621 -72.2115 -44.7909 -44.7425 -44.7089 -44.6317
   -44.6002 -44.4948 -44.2036 -44.1809 -44.1493 -44.1488 -44.1422 -44.1113
   -44.0381 -44.0079 -43.9843 -43.9554 -43.9105 -43.8578 -36.8095 -36.7092
   -36.6158 -36.6007 -36.5615 -36.4821 -36.4641 -36.3965 -36.3923 -36.3833
   -36.3628 -36.3158 -36.2824 -36.0499 -36.0235 -35.9770 -35.8325 -35.7900
    -4.7201  -3.4361  -2.9071  -2.8747  -2.7213  -2.6819  -2.6697  -2.4710
    -2.2038  -2.1962  -2.1621  -2.1039  -1.7633  -1.5504  -1.4059  -1.0733
    -0.9788  -0.9171  -0.7475  -0.6626  -0.4654  -0.2936  -0.2489  -0.0520
     0.0643   0.0967   0.1237   0.3678   0.3700   0.3832   0.5240   0.7736
     0.7881   1.0748   1.0850   1.0915   1.1401   1.1506   1.2556   1.3736
     1.5601   1.6473   1.7229   1.7810   1.8299   2.0254   2.2527   2.5404
     2.7644   2.9504   3.1046   3.4554   3.5266   3.7568   3.7647   4.1063
     4.4682   4.5150   4.6414   4.8019   4.8485   5.0865   5.1218   5.3891

          k = 0.0000 0.0866 0.0000 ( 30336 PWs)   bands (ev):

   -76.8088 -76.7821 -76.2383 -76.2118 -76.1955 -76.1692 -72.3592 -72.3334
   -72.3079 -72.2828 -72.2622 -72.2115 -44.7903 -44.7417 -44.7086 -44.6305
   -44.5998 -44.4948 -44.2029 -44.1793 -44.1488 -44.1481 -44.1405 -44.1107
   -44.0383 -44.0081 -43.9841 -43.9554 -43.9105 -43.8577 -36.8115 -36.7127
   -36.6176 -36.6021 -36.5633 -36.4845 -36.4652 -36.3963 -36.3935 -36.3837
   -36.3661 -36.3176 -36.2842 -36.0503 -36.0238 -35.9771 -35.8327 -35.7902
    -4.3386  -3.5433  -2.7438  -2.6014  -2.5705  -2.4084  -2.3979  -2.2336
    -2.0888  -2.0844  -2.0281  -1.7551  -1.5989  -1.3928  -1.3225  -1.1537
    -0.9941  -0.8997  -0.8158  -0.6529  -0.5047  -0.4372  -0.3454  -0.0642
    -0.0142   0.0992   0.1694   0.2674   0.3671   0.4417   0.5297   0.6274
     0.7481   0.7929   0.8475   0.8911   0.9242   1.1425   1.2333   1.2451
     1.2724   1.3118   1.3576   1.5269   1.5347   1.8026   2.0599   2.1923
     2.7678   2.9085   3.0448   3.1230   3.4450   3.5478   3.6084   3.9204
     4.4246   4.4848   4.6325   4.6929   4.7298   4.9864   5.2014   5.3790

          k = 0.0000-0.1039 0.0000 ( 30378 PWs)   bands (ev):

   -76.8088 -76.7821 -76.2383 -76.2118 -76.1954 -76.1692 -72.3592 -72.3335
   -72.3079 -72.2828 -72.2622 -72.2115 -44.7900 -44.7415 -44.7085 -44.6301
   -44.5996 -44.4947 -44.2027 -44.1788 -44.1487 -44.1479 -44.1399 -44.1105
   -44.0383 -44.0081 -43.9840 -43.9554 -43.9104 -43.8577 -36.8123 -36.7140
   -36.6183 -36.6026 -36.5639 -36.4856 -36.4655 -36.3962 -36.3940 -36.3838
   -36.3673 -36.3183 -36.2849 -36.0504 -36.0239 -35.9771 -35.8328 -35.7903
    -4.1046  -3.6798  -2.6800  -2.5189  -2.4892  -2.2510  -2.2164  -2.1304
    -2.0775  -2.0606  -2.0067  -1.5111  -1.5032  -1.3793  -1.2638  -1.2472
    -1.0917  -1.0136  -0.8881  -0.6652  -0.5595  -0.2998  -0.0953  -0.0307
    -0.0136   0.0601   0.1586   0.1854   0.2382   0.3697   0.5192   0.5678
     0.5934   0.6463   0.8032   0.8410   0.8676   1.0960   1.1214   1.1816
     1.2017   1.3095   1.3215   1.3556   1.4428   1.8102   1.9408   2.0817
     2.7909   2.9038   2.9547   3.0334   3.4459   3.4656   3.5592   3.8445
     4.3374   4.4819   4.5461   4.6531   4.8477   4.9540   5.2276   5.3800

          k = 0.0151 0.0087 0.0000 ( 30449 PWs)   bands (ev):

   -76.8085 -76.7825 -76.2380 -76.2123 -76.1952 -76.1696 -72.3576 -72.3324
   -72.3086 -72.2837 -72.2610 -72.2124 -44.7887 -44.7451 -44.7109 -44.6355
   -44.6025 -44.5002 -44.2013 -44.1863 -44.1519 -44.1485 -44.1467 -44.1141
   -44.0367 -44.0079 -43.9846 -43.9560 -43.9158 -43.8630 -36.7886 -36.6935
   -36.6105 -36.5825 -36.5422 -36.4775 -36.4529 -36.3993 -36.3851 -36.3828
   -36.3487 -36.3099 -36.2766 -36.0472 -36.0362 -35.9780 -35.8454 -35.8029
    -5.5381  -3.7649  -3.5458  -3.3992  -3.3305  -3.2825  -3.1271  -2.9005
    -2.7742  -2.6265  -2.5799  -2.5050  -2.3056  -2.1167  -2.0991  -1.0538
    -1.0503  -0.9504  -0.5952  -0.4623  -0.3685  -0.2656  -0.1549  -0.0474
     0.0263   0.0497   0.4478   0.4523   0.5487   0.5935   0.7537   0.9184
     1.1295   1.2751   1.3794   1.4153   1.6727   1.7170   1.7945   1.9154
     2.3171   2.5691   2.6721   2.7114   2.9674   3.0624   3.1814   3.3618
     3.4295   3.8516   3.9229   3.9639   4.0397   4.1926   4.4000   4.5842
     4.7139   4.7786   5.0104   5.2090   5.2368   5.6870   5.7014   5.8029

          k = 0.0151 0.0260 0.0000 ( 30441 PWs)   bands (ev):

   -76.8085 -76.7825 -76.2380 -76.2123 -76.1952 -76.1696 -72.3577 -72.3325
   -72.3086 -72.2837 -72.2611 -72.2124 -44.7882 -44.7445 -44.7106 -44.6347
   -44.6022 -44.5002 -44.2009 -44.1852 -44.1515 -44.1473 -44.1462 -44.1137
   -44.0368 -44.0080 -43.9845 -43.9560 -43.9158 -43.8630 -36.7900 -36.6960
   -36.6117 -36.5835 -36.5434 -36.4774 -36.4552 -36.3990 -36.3863 -36.3831
   -36.3509 -36.3112 -36.2778 -36.0475 -36.0364 -35.9781 -35.8455 -35.8030
    -5.4174  -3.6604  -3.4506  -3.3192  -3.2267  -3.2159  -3.0537  -2.8446
    -2.6839  -2.5659  -2.5110  -2.4593  -2.1994  -2.0448  -1.9872  -1.0524
    -1.0206  -0.9469  -0.6005  -0.4037  -0.3608  -0.3457  -0.1169  -0.0563
    -0.0201   0.0547   0.4484   0.4900   0.5223   0.6358   0.6505   0.8671
     0.9153   1.1921   1.3374   1.4132   1.6323   1.6507   1.6839   1.8259
     2.1005   2.4509   2.5221   2.6495   2.7474   3.0014   3.0661   3.1430
     3.4654   3.5802   3.5894   3.7709   3.9306   4.0291   4.3662   4.4349
     4.7212   4.8524   5.0188   5.0323   5.1544   5.3009   5.5627   5.7489

          k = 0.0151 0.0433 0.0000 ( 30385 PWs)   bands (ev):

   -76.8084 -76.7825 -76.2380 -76.2123 -76.1951 -76.1696 -72.3579 -72.3325
   -72.3087 -72.2837 -72.2611 -72.2124 -44.7874 -44.7435 -44.7102 -44.6334
   -44.6017 -44.5001 -44.2000 -44.1834 -44.1509 -44.1454 -44.1452 -44.1131
   -44.0371 -44.0082 -43.9842 -43.9560 -43.9157 -43.8629 -36.7925 -36.7003
   -36.6138 -36.5853 -36.5455 -36.4778 -36.4586 -36.3985 -36.3881 -36.3837
   -36.3547 -36.3134 -36.2800 -36.0480 -36.0368 -35.9781 -35.8457 -35.8033
    -5.1847  -3.4946  -3.2707  -3.1513  -3.1128  -3.0139  -2.9201  -2.7300
    -2.5168  -2.4442  -2.3713  -2.3706  -1.9930  -1.9409  -1.7492  -1.0636
    -0.9658  -0.9535  -0.6255  -0.5281  -0.3260  -0.2785  -0.1810  -0.0884
     0.0010   0.1013   0.4171   0.4387   0.4551   0.5685   0.6026   0.6745
     0.8545   1.0691   1.2733   1.3164   1.4517   1.5205   1.5907   1.6576
     1.8312   2.1008   2.3575   2.4210   2.4479   2.5952   2.8742   2.9344
     3.0051   3.1280   3.4114   3.7168   3.7739   3.9144   4.2183   4.3456
     4.4715   4.7177   4.8564   4.9762   5.0631   5.2903   5.3508   5.4382

          k = 0.0151 0.0606 0.0000 ( 30398 PWs)   bands (ev):

   -76.8084 -76.7825 -76.2379 -76.2123 -76.1951 -76.1696 -72.3581 -72.3325
   -72.3087 -72.2836 -72.2612 -72.2124 -44.7864 -44.7425 -44.7097 -44.6319
   -44.6011 -44.5000 -44.1991 -44.1813 -44.1503 -44.1444 -44.1428 -44.1123
   -44.0374 -44.0084 -43.9839 -43.9560 -43.9157 -43.8629 -36.7954 -36.7052
   -36.6162 -36.5873 -36.5479 -36.4794 -36.4618 -36.3980 -36.3900 -36.3843
   -36.3593 -36.3159 -36.2824 -36.0485 -36.0372 -35.9782 -35.8460 -35.8036
    -4.8601  -3.3867  -3.0035  -2.9412  -2.9088  -2.7674  -2.7420  -2.5519
    -2.3227  -2.2466  -2.2297  -2.1827  -1.7972  -1.7063  -1.4809  -1.0676
    -0.9587  -0.9465  -0.7101  -0.6648  -0.3647  -0.2845  -0.1978  -0.1245
    -0.0045   0.2012   0.2426   0.2525   0.3773   0.3927   0.5934   0.6874
     0.8952   0.9415   1.0880   1.2223   1.2652   1.2848   1.4054   1.4889
     1.6959   1.7290   1.9172   1.9763   2.0493   2.1533   2.4410   2.7120
     2.7824   2.9756   3.1531   3.4955   3.6425   3.8659   3.8897   4.2293
     4.3455   4.5286   4.8640   4.8975   4.9994   5.0066   5.1807   5.2432

          k = 0.0151 0.0779 0.0000 ( 30354 PWs)   bands (ev):

   -76.8083 -76.7825 -76.2379 -76.2123 -76.1950 -76.1696 -72.3582 -72.3326
   -72.3088 -72.2836 -72.2613 -72.2124 -44.7856 -44.7415 -44.7093 -44.6305
   -44.6006 -44.5000 -44.1983 -44.1795 -44.1497 -44.1436 -44.1408 -44.1116
   -44.0377 -44.0085 -43.9837 -43.9559 -43.9156 -43.8628 -36.7979 -36.7095
   -36.6182 -36.5890 -36.5500 -36.4819 -36.4635 -36.3977 -36.3916 -36.3848
   -36.3632 -36.3181 -36.2846 -36.0489 -36.0376 -35.9783 -35.8463 -35.8038
    -4.4807  -3.4235  -2.7666  -2.6882  -2.6392  -2.5945  -2.4723  -2.3221
    -2.1513  -2.1108  -2.0208  -1.9100  -1.6323  -1.4267  -1.3926  -1.0862
    -1.0297  -0.8154  -0.7548  -0.7004  -0.6059  -0.3647  -0.3475  -0.0464
    -0.0260   0.0581   0.1201   0.3083   0.3437   0.3627   0.5318   0.7261
     0.7429   0.8093   0.9019   0.9647   1.0443   1.1959   1.2715   1.3159
     1.3972   1.4120   1.6146   1.6675   1.6706   1.8230   2.1709   2.3467
     2.7642   2.9133   3.0362   3.2825   3.4566   3.6324   3.6931   4.0340
     4.4573   4.5140   4.6967   4.7302   4.7596   5.0150   5.1025   5.1949

          k = 0.0151 0.0952 0.0000 ( 30375 PWs)   bands (ev):

   -76.8083 -76.7825 -76.2378 -76.2123 -76.1950 -76.1696 -72.3583 -72.3326
   -72.3088 -72.2836 -72.2613 -72.2124 -44.7851 -44.7410 -44.7091 -44.6298
   -44.6003 -44.4999 -44.1978 -44.1784 -44.1493 -44.1431 -44.1396 -44.1112
   -44.0378 -44.0086 -43.9836 -43.9559 -43.9156 -43.8628 -36.7993 -36.7119
   -36.6194 -36.5900 -36.5512 -36.4837 -36.4641 -36.3976 -36.3924 -36.3851
   -36.3655 -36.3193 -36.2859 -36.0492 -36.0378 -35.9783 -35.8464 -35.8040
    -4.1308  -3.5850  -2.6463  -2.5134  -2.4772  -2.3971  -2.2315  -2.1035
    -2.0657  -2.0226  -1.9792  -1.5782  -1.4926  -1.4281  -1.2759  -1.2499
    -0.9832  -0.9621  -0.8976  -0.7304  -0.5238  -0.3517  -0.2597  -0.0753
    -0.0603   0.0677   0.1359   0.1860   0.2776   0.3775   0.4682   0.5393
     0.5782   0.6375   0.7497   0.8454   0.9110   1.0337   1.1371   1.2237
     1.2323   1.3343   1.4376   1.4937   1.5975   1.7952   1.9912   2.1050
     2.7914   2.9063   3.0034   3.0263   3.4561   3.4913   3.6009   3.8916
     4.3788   4.4417   4.5736   4.6552   4.8327   4.9656   5.1563   5.1604

          k = 0.0151-0.0952 0.0000 ( 30375 PWs)   bands (ev):

   -76.8083 -76.7825 -76.2378 -76.2123 -76.1950 -76.1696 -72.3583 -72.3326
   -72.3088 -72.2836 -72.2613 -72.2124 -44.7851 -44.7410 -44.7091 -44.6298
   -44.6003 -44.4999 -44.1978 -44.1784 -44.1493 -44.1431 -44.1396 -44.1112
   -44.0378 -44.0086 -43.9836 -43.9559 -43.9156 -43.8628 -36.7993 -36.7119
   -36.6194 -36.5900 -36.5512 -36.4837 -36.4641 -36.3976 -36.3924 -36.3851
   -36.3655 -36.3193 -36.2859 -36.0492 -36.0378 -35.9783 -35.8464 -35.8040
    -4.1308  -3.5850  -2.6463  -2.5134  -2.4772  -2.3971  -2.2315  -2.1035
    -2.0657  -2.0226  -1.9792  -1.5782  -1.4926  -1.4281  -1.2759  -1.2499
    -0.9832  -0.9621  -0.8976  -0.7304  -0.5238  -0.3517  -0.2597  -0.0753
    -0.0603   0.0677   0.1359   0.1860   0.2776   0.3775   0.4682   0.5393
     0.5782   0.6375   0.7497   0.8454   0.9110   1.0337   1.1371   1.2237
     1.2323   1.3343   1.4376   1.4937   1.5975   1.7952   1.9912   2.1050
     2.7914   2.9063   3.0034   3.0263   3.4561   3.4913   3.6009   3.8916
     4.3788   4.4417   4.5736   4.6552   4.8327   4.9656   5.1563   5.1604

          k = 0.0151-0.0779 0.0000 ( 30354 PWs)   bands (ev):

   -76.8083 -76.7825 -76.2379 -76.2123 -76.1950 -76.1696 -72.3582 -72.3326
   -72.3088 -72.2836 -72.2613 -72.2124 -44.7856 -44.7415 -44.7093 -44.6305
   -44.6006 -44.5000 -44.1983 -44.1795 -44.1497 -44.1436 -44.1408 -44.1116
   -44.0377 -44.0085 -43.9837 -43.9559 -43.9156 -43.8628 -36.7979 -36.7095
   -36.6182 -36.5890 -36.5500 -36.4819 -36.4635 -36.3977 -36.3916 -36.3848
   -36.3632 -36.3181 -36.2846 -36.0489 -36.0376 -35.9783 -35.8463 -35.8038
    -4.4807  -3.4235  -2.7666  -2.6882  -2.6392  -2.5945  -2.4723  -2.3221
    -2.1513  -2.1108  -2.0208  -1.9100  -1.6323  -1.4267  -1.3926  -1.0862
    -1.0297  -0.8154  -0.7548  -0.7004  -0.6059  -0.3647  -0.3475  -0.0464
    -0.0260   0.0581   0.1201   0.3083   0.3437   0.3627   0.5318   0.7261
     0.7429   0.8093   0.9019   0.9647   1.0443   1.1959   1.2715   1.3159
     1.3972   1.4120   1.6146   1.6675   1.6706   1.8230   2.1709   2.3467
     2.7642   2.9133   3.0362   3.2825   3.4566   3.6324   3.6931   4.0340
     4.4573   4.5140   4.6967   4.7302   4.7596   5.0150   5.1025   5.1949

          k = 0.0151-0.0606 0.0000 ( 30398 PWs)   bands (ev):

   -76.8084 -76.7825 -76.2379 -76.2123 -76.1951 -76.1696 -72.3581 -72.3325
   -72.3087 -72.2836 -72.2612 -72.2124 -44.7864 -44.7425 -44.7097 -44.6319
   -44.6011 -44.5000 -44.1991 -44.1813 -44.1503 -44.1444 -44.1428 -44.1123
   -44.0374 -44.0084 -43.9839 -43.9560 -43.9157 -43.8629 -36.7954 -36.7052
   -36.6162 -36.5873 -36.5479 -36.4794 -36.4618 -36.3980 -36.3900 -36.3843
   -36.3593 -36.3159 -36.2824 -36.0485 -36.0372 -35.9782 -35.8460 -35.8036
    -4.8601  -3.3867  -3.0035  -2.9412  -2.9088  -2.7674  -2.7420  -2.5519
    -2.3227  -2.2466  -2.2297  -2.1827  -1.7972  -1.7063  -1.4809  -1.0676
    -0.9587  -0.9465  -0.7101  -0.6648  -0.3647  -0.2845  -0.1978  -0.1245
    -0.0045   0.2012   0.2426   0.2525   0.3773   0.3927   0.5934   0.6874
     0.8952   0.9415   1.0881   1.2223   1.2652   1.2848   1.4054   1.4889
     1.6959   1.7290   1.9172   1.9763   2.0493   2.1533   2.4410   2.7120
     2.7824   2.9756   3.1531   3.4955   3.6425   3.8659   3.8897   4.2293
     4.3455   4.5286   4.8640   4.8975   4.9994   5.0066   5.1807   5.2432

          k = 0.0151-0.0433 0.0000 ( 30385 PWs)   bands (ev):

   -76.8084 -76.7825 -76.2380 -76.2123 -76.1951 -76.1696 -72.3579 -72.3325
   -72.3087 -72.2837 -72.2611 -72.2124 -44.7874 -44.7435 -44.7102 -44.6334
   -44.6017 -44.5001 -44.2000 -44.1834 -44.1509 -44.1454 -44.1452 -44.1131
   -44.0371 -44.0082 -43.9842 -43.9560 -43.9157 -43.8629 -36.7925 -36.7003
   -36.6138 -36.5853 -36.5455 -36.4778 -36.4586 -36.3985 -36.3881 -36.3837
   -36.3547 -36.3134 -36.2800 -36.0480 -36.0368 -35.9781 -35.8457 -35.8033
    -5.1847  -3.4946  -3.2707  -3.1513  -3.1128  -3.0139  -2.9201  -2.7300
    -2.5168  -2.4442  -2.3713  -2.3706  -1.9930  -1.9409  -1.7492  -1.0636
    -0.9658  -0.9535  -0.6255  -0.5281  -0.3260  -0.2785  -0.1810  -0.0884
     0.0010   0.1013   0.4171   0.4387   0.4551   0.5685   0.6026   0.6745
     0.8545   1.0691   1.2733   1.3164   1.4517   1.5205   1.5907   1.6576
     1.8312   2.1008   2.3575   2.4210   2.4479   2.5952   2.8742   2.9344
     3.0051   3.1280   3.4114   3.7168   3.7739   3.9144   4.2183   4.3456
     4.4715   4.7177   4.8564   4.9762   5.0631   5.2903   5.3508   5.4382

          k = 0.0151-0.0260 0.0000 ( 30441 PWs)   bands (ev):

   -76.8085 -76.7825 -76.2380 -76.2123 -76.1952 -76.1696 -72.3577 -72.3325
   -72.3086 -72.2837 -72.2611 -72.2124 -44.7882 -44.7445 -44.7106 -44.6347
   -44.6022 -44.5002 -44.2009 -44.1852 -44.1515 -44.1473 -44.1462 -44.1137
   -44.0368 -44.0080 -43.9845 -43.9560 -43.9158 -43.8630 -36.7900 -36.6960
   -36.6117 -36.5835 -36.5434 -36.4774 -36.4552 -36.3990 -36.3863 -36.3831
   -36.3509 -36.3112 -36.2778 -36.0475 -36.0364 -35.9781 -35.8455 -35.8030
    -5.4174  -3.6604  -3.4506  -3.3192  -3.2267  -3.2159  -3.0537  -2.8446
    -2.6839  -2.5659  -2.5110  -2.4593  -2.1994  -2.0448  -1.9872  -1.0524
    -1.0206  -0.9469  -0.6005  -0.4037  -0.3608  -0.3457  -0.1169  -0.0563
    -0.0201   0.0547   0.4484   0.4900   0.5223   0.6358   0.6505   0.8671
     0.9153   1.1921   1.3374   1.4132   1.6323   1.6507   1.6839   1.8259
     2.1005   2.4509   2.5221   2.6495   2.7474   3.0014   3.0661   3.1430
     3.4654   3.5802   3.5894   3.7709   3.9306   4.0291   4.3662   4.4349
     4.7212   4.8524   5.0188   5.0323   5.1544   5.3009   5.5627   5.7486

          k = 0.0151-0.0087 0.0000 ( 30449 PWs)   bands (ev):

   -76.8085 -76.7825 -76.2380 -76.2123 -76.1952 -76.1696 -72.3576 -72.3324
   -72.3086 -72.2837 -72.2610 -72.2124 -44.7887 -44.7451 -44.7109 -44.6355
   -44.6025 -44.5002 -44.2013 -44.1863 -44.1519 -44.1485 -44.1467 -44.1141
   -44.0367 -44.0079 -43.9846 -43.9560 -43.9158 -43.8630 -36.7886 -36.6935
   -36.6105 -36.5825 -36.5422 -36.4775 -36.4529 -36.3993 -36.3851 -36.3828
   -36.3487 -36.3099 -36.2766 -36.0472 -36.0362 -35.9780 -35.8454 -35.8029
    -5.5381  -3.7649  -3.5458  -3.3992  -3.3305  -3.2825  -3.1271  -2.9005
    -2.7742  -2.6265  -2.5799  -2.5050  -2.3056  -2.1167  -2.0991  -1.0538
    -1.0503  -0.9504  -0.5952  -0.4623  -0.3685  -0.2656  -0.1549  -0.0474
     0.0263   0.0497   0.4478   0.4523   0.5487   0.5935   0.7537   0.9184
     1.1295   1.2751   1.3794   1.4153   1.6727   1.7170   1.7945   1.9154
     2.3171   2.5691   2.6721   2.7114   2.9674   3.0624   3.1814   3.3618
     3.4295   3.8516   3.9229   3.9639   4.0397   4.1926   4.4000   4.5842
     4.7139   4.7786   5.0104   5.2090   5.2368   5.6869   5.7012   5.8021

          k = 0.0302 0.0173 0.0000 ( 30439 PWs)   bands (ev):

   -76.8072 -76.7839 -76.2367 -76.2136 -76.1939 -76.1709 -72.3551 -72.3299
   -72.3112 -72.2862 -72.2585 -72.2150 -44.7738 -44.7430 -44.7123 -44.6334
   -44.6038 -44.5152 -44.1866 -44.1840 -44.1531 -44.1461 -44.1321 -44.1153
   -44.0353 -44.0095 -43.9831 -43.9575 -43.9306 -43.8777 -36.7520 -36.6906
   -36.6162 -36.5465 -36.5062 -36.4732 -36.4503 -36.4031 -36.3875 -36.3822
   -36.3463 -36.3147 -36.2816 -36.0776 -36.0438 -35.9818 -35.8857 -35.8434
    -5.3452  -3.5750  -3.3708  -3.3417  -3.1929  -3.1322  -3.0363  -2.7823
    -2.6876  -2.5553  -2.4871  -2.3990  -2.1899  -1.9692  -1.9312  -1.0485
    -1.0294  -0.9192  -0.5659  -0.4694  -0.4306  -0.2921  -0.1693  -0.1110
    -0.0086   0.0092   0.4069   0.4464   0.4535   0.6209   0.8208   0.9497
     1.0041   1.1387   1.2324   1.2943   1.6090   1.7160   1.7351   1.7938
     2.2171   2.2587   2.4411   2.5480   2.6614   2.9174   3.1138   3.1854
     3.2852   3.4335   3.5298   3.8285   3.8764   4.1221   4.2913   4.5200
     4.6692   4.7018   4.8259   4.9740   5.3433   5.3939   5.5514   5.5753

          k = 0.0302 0.0346 0.0000 ( 30425 PWs)   bands (ev):

   -76.8071 -76.7839 -76.2367 -76.2136 -76.1939 -76.1710 -72.3553 -72.3300
   -72.3112 -72.2862 -72.2586 -72.2150 -44.7732 -44.7423 -44.7120 -44.6324
   -44.6034 -44.5152 -44.1860 -44.1826 -44.1527 -44.1445 -44.1314 -44.1148
   -44.0355 -44.0096 -43.9829 -43.9574 -43.9306 -43.8777 -36.7540 -36.6939
   -36.6176 -36.5478 -36.5078 -36.4734 -36.4532 -36.4027 -36.3877 -36.3836
   -36.3491 -36.3163 -36.2831 -36.0778 -36.0441 -35.9818 -35.8858 -35.8435
    -5.1707  -3.4326  -3.2575  -3.2404  -3.0464  -3.0241  -2.9347  -2.7023
    -2.5711  -2.4642  -2.3661  -2.3353  -2.0631  -1.8527  -1.7673  -1.0529
    -1.0108  -0.9067  -0.6172  -0.5673  -0.3589  -0.2543  -0.1483  -0.1303
    -0.0716  -0.0031   0.4153   0.4248   0.4571   0.6225   0.6819   0.6905
     0.9512   1.1067   1.2188   1.2300   1.5361   1.5435   1.6407   1.6805
     1.9909   2.0258   2.3106   2.4317   2.5009   2.7334   2.8330   2.9344
     3.0434   3.1560   3.5612   3.5874   3.8328   3.8894   4.2278   4.2853
     4.4829   4.5232   4.8229   4.8716   5.1203   5.4007   5.5380   5.5414

          k = 0.0302 0.0519 0.0000 ( 30393 PWs)   bands (ev):

   -76.8071 -76.7839 -76.2366 -76.2136 -76.1938 -76.1710 -72.3554 -72.3300
   -72.3113 -72.2862 -72.2587 -72.2149 -44.7723 -44.7413 -44.7117 -44.6310
   -44.6030 -44.5151 -44.1852 -44.1807 -44.1522 -44.1424 -44.1306 -44.1142
   -44.0357 -44.0098 -43.9826 -43.9574 -43.9306 -43.8777 -36.7566 -36.6983
   -36.6195 -36.5496 -36.5100 -36.4742 -36.4565 -36.4022 -36.3881 -36.3853
   -36.3531 -36.3185 -36.2851 -36.0780 -36.0446 -35.9818 -35.8859 -35.8437
    -4.8939  -3.2785  -3.0943  -3.0299  -2.9006  -2.8138  -2.7662  -2.5630
    -2.4168  -2.2800  -2.2320  -2.1849  -1.8395  -1.7299  -1.5184  -1.0648
    -0.9766  -0.9114  -0.7309  -0.6735  -0.3282  -0.2631  -0.2211  -0.1531
    -0.0754   0.0481   0.3427   0.3546   0.4005   0.4023   0.5201   0.7169
     0.8525   1.0353   1.0685   1.1978   1.3280   1.4015   1.4726   1.6156
     1.6779   1.8437   2.0338   2.1165   2.1322   2.2297   2.5764   2.7566
     2.8190   3.0291   3.1937   3.5903   3.6351   3.8064   3.8760   4.2616
     4.3978   4.5452   4.7004   4.9049   4.9608   5.2324   5.3761   5.4949

          k = 0.0302 0.0692 0.0000 ( 30379 PWs)   bands (ev):

   -76.8070 -76.7839 -76.2366 -76.2136 -76.1938 -76.1710 -72.3556 -72.3300
   -72.3113 -72.2862 -72.2587 -72.2149 -44.7715 -44.7403 -44.7113 -44.6296
   -44.6025 -44.5151 -44.1843 -44.1788 -44.1517 -44.1403 -44.1297 -44.1136
   -44.0360 -44.0099 -43.9824 -43.9574 -43.9306 -43.8777 -36.7592 -36.7026
   -36.6215 -36.5515 -36.5122 -36.4762 -36.4589 -36.4018 -36.3884 -36.3869
   -36.3572 -36.3207 -36.2872 -36.0783 -36.0451 -35.9818 -35.8861 -35.8438
    -4.5402  -3.2422  -2.8763  -2.7398  -2.7121  -2.6294  -2.5240  -2.3626
    -2.2461  -2.0977  -2.0035  -1.9887  -1.5766  -1.5431  -1.4391  -1.0567
    -0.9882  -0.8410  -0.8062  -0.7728  -0.5088  -0.3815  -0.3064  -0.1541
    -0.0323   0.0577   0.1295   0.2837   0.3052   0.3265   0.4779   0.6384
     0.7819   0.8015   0.9356   1.1109   1.1239   1.1744   1.3446   1.3819
     1.5319   1.5997   1.6725   1.7317   1.8838   1.9878   2.2969   2.5222
     2.7497   2.9034   3.0280   3.3788   3.4956   3.6812   3.7723   4.1647
     4.4016   4.4778   4.7214   4.8830   4.8938   5.0079   5.0781   5.1393

          k = 0.0302 0.0866 0.0000 ( 30388 PWs)   bands (ev):

   -76.8070 -76.7839 -76.2365 -76.2136 -76.1937 -76.1710 -72.3557 -72.3301
   -72.3113 -72.2862 -72.2588 -72.2149 -44.7708 -44.7396 -44.7110 -44.6286
   -44.6022 -44.5151 -44.1837 -44.1774 -44.1513 -44.1387 -44.1290 -44.1132
   -44.0362 -44.0100 -43.9822 -43.9574 -43.9306 -43.8777 -36.7611 -36.7058
   -36.6229 -36.5528 -36.5138 -36.4783 -36.4600 -36.4015 -36.3887 -36.3879
   -36.3601 -36.3223 -36.2887 -36.0785 -36.0454 -35.9819 -35.8862 -35.8440
    -4.1592  -3.3599  -2.6636  -2.5543  -2.4922  -2.4558  -2.2697  -2.1374
    -2.0695  -1.9609  -1.8912  -1.6785  -1.5264  -1.4204  -1.2754  -1.2450
    -0.9730  -0.8925  -0.8396  -0.7840  -0.4885  -0.4733  -0.4458  -0.1633
    -0.0659  -0.0381   0.1206   0.1484   0.2538   0.2562   0.3825   0.5392
     0.5937   0.6829   0.7728   0.8472   0.9328   1.0341   1.1458   1.2392
     1.3164   1.3641   1.6375   1.7253   1.8306   1.8935   2.0766   2.2018
     2.7702   2.8965   2.9665   3.1856   3.4831   3.5617   3.6902   4.0039
     4.3439   4.4928   4.6488   4.6748   4.8025   4.9133   4.9435   5.0326

          k = 0.0302 0.1039 0.0000 ( 30398 PWs)   bands (ev):

   -76.8070 -76.7839 -76.2365 -76.2136 -76.1937 -76.1710 -72.3558 -72.3301
   -72.3113 -72.2862 -72.2588 -72.2149 -44.7706 -44.7393 -44.7109 -44.6282
   -44.6021 -44.5151 -44.1834 -44.1769 -44.1512 -44.1381 -44.1288 -44.1131
   -44.0363 -44.0101 -43.9821 -43.9574 -43.9306 -43.8777 -36.7618 -36.7069
   -36.6234 -36.5533 -36.5144 -36.4792 -36.4603 -36.4014 -36.3888 -36.3883
   -36.3612 -36.3229 -36.2893 -36.0785 -36.0455 -35.9819 -35.8862 -35.8440
    -3.9184  -3.5086  -2.5653  -2.4845  -2.4426  -2.3433  -2.1057  -2.0225
    -1.9820  -1.9253  -1.8758  -1.6071  -1.3932  -1.3718  -1.3310  -1.2792
    -1.0080  -0.9558  -0.9014  -0.8130  -0.5596  -0.3799  -0.2282  -0.1804
    -0.1421  -0.0792   0.0215   0.0974   0.1499   0.2320   0.2865   0.4543
     0.5604   0.5907   0.7225   0.7796   0.8381   1.0341   1.0954   1.1697
     1.2359   1.2794   1.6237   1.7768   1.8276   1.8803   1.9792   2.0844
     2.7758   2.9252   2.9297   3.1348   3.4876   3.5054   3.6630   3.9250
     4.3324   4.3947   4.5657   4.6152   4.7807   4.8782   4.9675   5.0370

          k = 0.0302-0.0866 0.0000 ( 30388 PWs)   bands (ev):

   -76.8070 -76.7839 -76.2365 -76.2136 -76.1937 -76.1710 -72.3557 -72.3301
   -72.3113 -72.2862 -72.2588 -72.2149 -44.7708 -44.7396 -44.7110 -44.6286
   -44.6022 -44.5151 -44.1837 -44.1774 -44.1513 -44.1387 -44.1290 -44.1132
   -44.0362 -44.0100 -43.9822 -43.9574 -43.9306 -43.8777 -36.7611 -36.7058
   -36.6229 -36.5528 -36.5138 -36.4783 -36.4600 -36.4015 -36.3887 -36.3879
   -36.3601 -36.3223 -36.2887 -36.0785 -36.0454 -35.9819 -35.8862 -35.8440
    -4.1592  -3.3599  -2.6636  -2.5543  -2.4922  -2.4558  -2.2697  -2.1374
    -2.0695  -1.9609  -1.8912  -1.6785  -1.5264  -1.4204  -1.2754  -1.2450
    -0.9730  -0.8925  -0.8396  -0.7840  -0.4885  -0.4733  -0.4458  -0.1633
    -0.0659  -0.0381   0.1206   0.1484   0.2538   0.2562   0.3825   0.5392
     0.5937   0.6829   0.7728   0.8472   0.9328   1.0341   1.1458   1.2392
     1.3164   1.3641   1.6375   1.7253   1.8306   1.8935   2.0766   2.2018
     2.7702   2.8965   2.9665   3.1856   3.4831   3.5617   3.6902   4.0039
     4.3439   4.4928   4.6488   4.6748   4.8025   4.9133   4.9435   5.0326

          k = 0.0302-0.0692 0.0000 ( 30379 PWs)   bands (ev):

   -76.8070 -76.7839 -76.2366 -76.2136 -76.1938 -76.1710 -72.3556 -72.3300
   -72.3113 -72.2862 -72.2587 -72.2149 -44.7715 -44.7403 -44.7113 -44.6296
   -44.6025 -44.5151 -44.1843 -44.1788 -44.1517 -44.1403 -44.1297 -44.1136
   -44.0360 -44.0099 -43.9824 -43.9574 -43.9306 -43.8777 -36.7592 -36.7026
   -36.6215 -36.5515 -36.5122 -36.4762 -36.4589 -36.4018 -36.3884 -36.3869
   -36.3572 -36.3207 -36.2872 -36.0783 -36.0451 -35.9818 -35.8861 -35.8438
    -4.5402  -3.2422  -2.8763  -2.7398  -2.7121  -2.6294  -2.5240  -2.3626
    -2.2461  -2.0977  -2.0035  -1.9887  -1.5766  -1.5431  -1.4391  -1.0567
    -0.9882  -0.8410  -0.8062  -0.7728  -0.5088  -0.3815  -0.3064  -0.1541
    -0.0323   0.0577   0.1295   0.2837   0.3052   0.3265   0.4779   0.6384
     0.7819   0.8015   0.9356   1.1109   1.1239   1.1744   1.3446   1.3819
     1.5319   1.5997   1.6725   1.7317   1.8838   1.9878   2.2969   2.5222
     2.7497   2.9034   3.0280   3.3788   3.4956   3.6812   3.7723   4.1647
     4.4016   4.4778   4.7214   4.8830   4.8938   5.0079   5.0781   5.1393

          k = 0.0302-0.0519 0.0000 ( 30393 PWs)   bands (ev):

   -76.8071 -76.7839 -76.2366 -76.2136 -76.1938 -76.1710 -72.3554 -72.3300
   -72.3113 -72.2862 -72.2587 -72.2149 -44.7723 -44.7413 -44.7117 -44.6310
   -44.6030 -44.5151 -44.1852 -44.1807 -44.1522 -44.1424 -44.1306 -44.1142
   -44.0357 -44.0098 -43.9826 -43.9574 -43.9306 -43.8777 -36.7566 -36.6983
   -36.6195 -36.5496 -36.5100 -36.4742 -36.4565 -36.4022 -36.3881 -36.3853
   -36.3531 -36.3185 -36.2851 -36.0780 -36.0446 -35.9818 -35.8859 -35.8437
    -4.8939  -3.2785  -3.0943  -3.0299  -2.9006  -2.8138  -2.7662  -2.5630
    -2.4168  -2.2800  -2.2320  -2.1849  -1.8395  -1.7299  -1.5184  -1.0648
    -0.9766  -0.9114  -0.7309  -0.6735  -0.3282  -0.2631  -0.2211  -0.1531
    -0.0754   0.0481   0.3427   0.3546   0.4005   0.4023   0.5201   0.7169
     0.8525   1.0353   1.0685   1.1978   1.3280   1.4015   1.4726   1.6156
     1.6779   1.8437   2.0338   2.1165   2.1322   2.2297   2.5764   2.7566
     2.8190   3.0291   3.1937   3.5903   3.6351   3.8064   3.8760   4.2616
     4.3978   4.5452   4.7004   4.9049   4.9608   5.2324   5.3761   5.4949

          k = 0.0302-0.0346 0.0000 ( 30425 PWs)   bands (ev):

   -76.8071 -76.7839 -76.2367 -76.2136 -76.1939 -76.1710 -72.3553 -72.3300
   -72.3112 -72.2862 -72.2586 -72.2150 -44.7732 -44.7423 -44.7120 -44.6324
   -44.6034 -44.5152 -44.1860 -44.1826 -44.1527 -44.1445 -44.1314 -44.1148
   -44.0355 -44.0096 -43.9829 -43.9574 -43.9306 -43.8777 -36.7540 -36.6939
   -36.6176 -36.5478 -36.5078 -36.4734 -36.4532 -36.4027 -36.3877 -36.3836
   -36.3491 -36.3163 -36.2831 -36.0778 -36.0441 -35.9818 -35.8858 -35.8435
    -5.1707  -3.4326  -3.2575  -3.2404  -3.0464  -3.0241  -2.9347  -2.7023
    -2.5711  -2.4642  -2.3661  -2.3353  -2.0631  -1.8527  -1.7673  -1.0529
    -1.0108  -0.9067  -0.6172  -0.5673  -0.3589  -0.2543  -0.1483  -0.1303
    -0.0716  -0.0031   0.4153   0.4248   0.4571   0.6225   0.6819   0.6905
     0.9512   1.1067   1.2188   1.2300   1.5361   1.5435   1.6407   1.6805
     1.9909   2.0258   2.3106   2.4317   2.5009   2.7334   2.8330   2.9344
     3.0434   3.1560   3.5612   3.5874   3.8328   3.8894   4.2278   4.2853
     4.4829   4.5232   4.8229   4.8716   5.1203   5.4007   5.5378   5.5414

          k = 0.0302-0.0173 0.0000 ( 30439 PWs)   bands (ev):

   -76.8072 -76.7839 -76.2367 -76.2136 -76.1939 -76.1709 -72.3551 -72.3299
   -72.3112 -72.2862 -72.2585 -72.2150 -44.7738 -44.7430 -44.7123 -44.6334
   -44.6038 -44.5152 -44.1866 -44.1840 -44.1531 -44.1461 -44.1321 -44.1153
   -44.0353 -44.0095 -43.9831 -43.9575 -43.9306 -43.8777 -36.7520 -36.6906
   -36.6162 -36.5465 -36.5062 -36.4732 -36.4503 -36.4031 -36.3875 -36.3822
   -36.3463 -36.3147 -36.2816 -36.0776 -36.0438 -35.9818 -35.8857 -35.8434
    -5.3452  -3.5750  -3.3708  -3.3417  -3.1929  -3.1322  -3.0363  -2.7823
    -2.6876  -2.5553  -2.4871  -2.3990  -2.1899  -1.9692  -1.9312  -1.0485
    -1.0294  -0.9192  -0.5659  -0.4694  -0.4306  -0.2921  -0.1693  -0.1110
    -0.0086   0.0092   0.4069   0.4464   0.4535   0.6209   0.8208   0.9497
     1.0041   1.1387   1.2324   1.2943   1.6090   1.7160   1.7351   1.7938
     2.2171   2.2587   2.4411   2.5480   2.6614   2.9174   3.1138   3.1854
     3.2852   3.4335   3.5298   3.8285   3.8764   4.1221   4.2913   4.5200
     4.6692   4.7017   4.8259   4.9740   5.3433   5.3939   5.5514   5.5753

          k = 0.0302-0.0000 0.0000 ( 30421 PWs)   bands (ev):

   -76.8072 -76.7839 -76.2367 -76.2136 -76.1939 -76.1709 -72.3551 -72.3299
   -72.3112 -72.2862 -72.2585 -72.2150 -44.7740 -44.7433 -44.7124 -44.6338
   -44.6039 -44.5152 -44.1869 -44.1845 -44.1532 -44.1467 -44.1323 -44.1155
   -44.0352 -44.0095 -43.9832 -43.9575 -43.9306 -43.8777 -36.7513 -36.6894
   -36.6157 -36.5460 -36.5056 -36.4733 -36.4492 -36.4033 -36.3874 -36.3817
   -36.3452 -36.3140 -36.2811 -36.0775 -36.0437 -35.9817 -35.8857 -35.8434
    -5.4047  -3.6276  -3.4169  -3.3575  -3.2654  -3.1607  -3.0704  -2.8085
    -2.7304  -2.5827  -2.5285  -2.4205  -2.2274  -2.0464  -1.9582  -1.0626
    -1.0194  -0.9286  -0.5488  -0.4596  -0.4394  -0.3028  -0.1837  -0.1226
     0.0125   0.0441   0.3938   0.4450   0.4550   0.6064   0.8800   1.0260
     1.0881   1.1560   1.1905   1.3237   1.6343   1.7267   1.8196   1.8352
     2.3029   2.4011   2.4661   2.5725   2.6734   2.9583   3.1561   3.3303
     3.3529   3.5101   3.6248   3.8089   4.0110   4.1788   4.3370   4.6106
     4.7437   4.8229   4.8998   5.0727   5.3474   5.5418   5.5604   5.6314

          k = 0.0453 0.0260 0.0000 ( 30421 PWs)   bands (ev):

   -76.8050 -76.7860 -76.2346 -76.2157 -76.1918 -76.1730 -72.3512 -72.3260
   -72.3153 -72.2903 -72.2546 -72.2190 -44.7502 -44.7398 -44.7147 -44.6302
   -44.6060 -44.5390 -44.1805 -44.1635 -44.1549 -44.1425 -44.1175 -44.1086
   -44.0330 -44.0120 -43.9807 -43.9597 -43.9541 -43.9011 -36.6935 -36.6857
   -36.6249 -36.4887 -36.4666 -36.4485 -36.4460 -36.4092 -36.3946 -36.3773
   -36.3421 -36.3220 -36.2893 -36.1428 -36.0384 -35.9876 -35.9493 -35.9074
    -5.0394  -3.2914  -3.2844  -3.1073  -2.9844  -2.9022  -2.8929  -2.5955
    -2.5717  -2.4240  -2.3323  -2.2303  -2.0313  -1.7188  -1.6740  -1.0575
    -1.0259  -0.8606  -0.7276  -0.5741  -0.3964  -0.2127  -0.1833  -0.1696
    -0.0840  -0.0755   0.3259   0.3290   0.3608   0.6027   0.7087   0.8577
     0.9503   1.1057   1.1205   1.2959   1.4922   1.5447   1.6038   1.7228
     1.7588   1.9764   2.1105   2.4134   2.4996   2.6762   2.7407   2.7894
     3.0753   3.1448   3.4018   3.6475   3.7171   3.9932   4.0716   4.2026
     4.2904   4.5898   4.6762   4.8038   4.9194   5.1883   5.2738   5.4587

          k = 0.0453 0.0433 0.0000 ( 30415 PWs)   bands (ev):

   -76.8050 -76.7860 -76.2345 -76.2157 -76.1917 -76.1731 -72.3513 -72.3260
   -72.3153 -72.2902 -72.2546 -72.2190 -44.7495 -44.7390 -44.7145 -44.6291
   -44.6057 -44.5390 -44.1790 -44.1629 -44.1546 -44.1408 -44.1172 -44.1078
   -44.0333 -44.0121 -43.9805 -43.9597 -43.9542 -43.9012 -36.6956 -36.6891
   -36.6261 -36.4902 -36.4670 -36.4504 -36.4489 -36.4088 -36.3945 -36.3785
   -36.3452 -36.3237 -36.2906 -36.1428 -36.0387 -35.9876 -35.9492 -35.9073
    -4.8214  -3.2314  -3.1270  -2.9640  -2.8259  -2.7852  -2.7433  -2.5005
    -2.4543  -2.2757  -2.1734  -2.1561  -1.8928  -1.5776  -1.4982  -1.0463
    -1.0306  -0.8472  -0.8214  -0.6892  -0.3668  -0.2889  -0.2092  -0.1154
    -0.1140  -0.0635   0.2992   0.3087   0.3694   0.3970   0.6012   0.7473
     0.9205   1.0039   1.0416   1.2794   1.3080   1.4107   1.4502   1.4973
     1.7616   1.7842   1.9676   2.1696   2.2066   2.3433   2.5423   2.7057
     2.9336   3.0818   3.2331   3.4888   3.6785   3.7138   3.7925   4.1543
     4.2448   4.5432   4.5634   4.7766   4.8839   5.0834   5.2831   5.4548

          k = 0.0453 0.0606 0.0000 ( 30408 PWs)   bands (ev):

   -76.8049 -76.7860 -76.2345 -76.2157 -76.1917 -76.1731 -72.3515 -72.3260
   -72.3153 -72.2902 -72.2547 -72.2189 -44.7487 -44.7381 -44.7142 -44.6278
   -44.6054 -44.5391 -44.1772 -44.1622 -44.1542 -44.1389 -44.1169 -44.1070
   -44.0335 -44.0122 -43.9802 -43.9597 -43.9543 -43.9012 -36.6980 -36.6930
   -36.6275 -36.4919 -36.4683 -36.4524 -36.4517 -36.4083 -36.3945 -36.3799
   -36.3488 -36.3256 -36.2922 -36.1428 -36.0392 -35.9876 -35.9492 -35.9072
    -4.5137  -3.1137  -3.0229  -2.7415  -2.6514  -2.6156  -2.5390  -2.3480
    -2.3075  -2.0434  -2.0354  -1.9836  -1.6592  -1.4497  -1.4239  -1.0700
    -0.9257  -0.8896  -0.8588  -0.8144  -0.4574  -0.4304  -0.2986  -0.1845
    -0.0212  -0.0123   0.1946   0.2279   0.2753   0.3357   0.4372   0.6531
     0.7458   0.7712   1.0176   1.1526   1.1989   1.2424   1.2671   1.3113
     1.4721   1.6712   1.7276   1.9120   2.0536   2.1750   2.3391   2.6798
     2.7212   2.9166   3.0493   3.3895   3.5562   3.6193   3.7268   4.1229
     4.3285   4.4186   4.5191   4.7630   4.8636   5.0145   5.1704   5.4222

          k = 0.0453 0.0779 0.0000 ( 30378 PWs)   bands (ev):

   -76.8049 -76.7860 -76.2344 -76.2157 -76.1916 -76.1731 -72.3516 -72.3261
   -72.3153 -72.2902 -72.2548 -72.2189 -44.7479 -44.7374 -44.7140 -44.6267
   -44.6052 -44.5392 -44.1757 -44.1614 -44.1540 -44.1372 -44.1165 -44.1064
   -44.0337 -44.0123 -43.9800 -43.9598 -43.9543 -43.9013 -36.7001 -36.6964
   -36.6287 -36.4934 -36.4701 -36.4541 -36.4534 -36.4079 -36.3945 -36.3809
   -36.3519 -36.3273 -36.2935 -36.1428 -36.0395 -35.9876 -35.9491 -35.9072
    -4.1470  -3.0754  -2.9732  -2.4804  -2.4707  -2.4235  -2.3062  -2.1550
    -2.1302  -1.8972  -1.8412  -1.7329  -1.5512  -1.3502  -1.3283  -1.2099
    -0.9803  -0.9716  -0.8715  -0.6693  -0.5822  -0.5153  -0.3998  -0.2905
    -0.1091   0.0086   0.0937   0.1375   0.1390   0.2102   0.3334   0.5124
     0.5713   0.6922   0.7824   0.9588   0.9939   1.0633   1.0899   1.2349
     1.3034   1.3814   1.8290   1.8759   2.0663   2.1201   2.1270   2.3461
     2.7513   2.8696   3.0026   3.2945   3.5143   3.6194   3.7098   4.0581
     4.2459   4.4254   4.4933   4.7180   4.8047   5.0108   5.0310   5.0381

          k = 0.0453 0.0952 0.0000 ( 30388 PWs)   bands (ev):

   -76.8049 -76.7860 -76.2344 -76.2157 -76.1916 -76.1731 -72.3517 -72.3261
   -72.3154 -72.2902 -72.2548 -72.2189 -44.7475 -44.7369 -44.7139 -44.6261
   -44.6050 -44.5392 -44.1749 -44.1609 -44.1540 -44.1362 -44.1163 -44.1060
   -44.0338 -44.0123 -43.9799 -43.9598 -43.9544 -43.9013 -36.7013 -36.6983
   -36.6294 -36.4942 -36.4714 -36.4551 -36.4541 -36.4077 -36.3945 -36.3815
   -36.3537 -36.3283 -36.2943 -36.1428 -36.0397 -35.9876 -35.9491 -35.9072
    -3.7952  -3.2614  -2.8719  -2.3743  -2.3026  -2.2570  -2.0773  -2.0009
    -1.9403  -1.8153  -1.7276  -1.7020  -1.4925  -1.4482  -1.2059  -1.1780
    -1.0827  -0.9983  -0.7974  -0.7718  -0.5197  -0.5168  -0.4010  -0.3039
    -0.2801  -0.1901  -0.0997  -0.0345   0.0808   0.1556   0.2576   0.5029
     0.5626   0.6346   0.6920   0.7399   0.8436   0.9216   1.0495   1.1852
     1.2573   1.3072   1.7997   1.9583   1.9764   2.0876   2.1405   2.1888
     2.7550   2.8746   2.9847   3.3335   3.5207   3.5978   3.7396   3.9568
     4.1944   4.4405   4.4461   4.5861   4.6703   4.7717   4.8570   5.0523

          k = 0.0453 0.1125 0.0000 ( 30388 PWs)   bands (ev):

   -76.8049 -76.7860 -76.2344 -76.2157 -76.1916 -76.1731 -72.3517 -72.3261
   -72.3154 -72.2902 -72.2548 -72.2189 -44.7475 -44.7369 -44.7139 -44.6261
   -44.6050 -44.5392 -44.1749 -44.1609 -44.1540 -44.1362 -44.1163 -44.1060
   -44.0338 -44.0123 -43.9799 -43.9598 -43.9544 -43.9013 -36.7013 -36.6983
   -36.6294 -36.4942 -36.4714 -36.4551 -36.4541 -36.4077 -36.3945 -36.3815
   -36.3537 -36.3283 -36.2943 -36.1428 -36.0397 -35.9876 -35.9491 -35.9072
    -3.7952  -3.2614  -2.8719  -2.3743  -2.3026  -2.2570  -2.0773  -2.0009
    -1.9403  -1.8153  -1.7276  -1.7020  -1.4925  -1.4482  -1.2059  -1.1780
    -1.0827  -0.9983  -0.7974  -0.7718  -0.5197  -0.5168  -0.4010  -0.3039
    -0.2801  -0.1901  -0.0997  -0.0345   0.0808   0.1556   0.2576   0.5029
     0.5626   0.6346   0.6920   0.7399   0.8436   0.9216   1.0495   1.1852
     1.2573   1.3071   1.7997   1.9583   1.9764   2.0876   2.1405   2.1888
     2.7550   2.8746   2.9847   3.3335   3.5207   3.5978   3.7396   3.9568
     4.1944   4.4405   4.4461   4.5861   4.6703   4.7717   4.8570   5.0523

          k = 0.0453-0.0779 0.0000 ( 30378 PWs)   bands (ev):

   -76.8049 -76.7860 -76.2344 -76.2157 -76.1916 -76.1731 -72.3516 -72.3261
   -72.3153 -72.2902 -72.2548 -72.2189 -44.7479 -44.7374 -44.7140 -44.6267
   -44.6052 -44.5392 -44.1757 -44.1614 -44.1540 -44.1372 -44.1165 -44.1064
   -44.0337 -44.0123 -43.9800 -43.9598 -43.9543 -43.9013 -36.7001 -36.6964
   -36.6287 -36.4934 -36.4701 -36.4541 -36.4534 -36.4079 -36.3945 -36.3809
   -36.3519 -36.3273 -36.2935 -36.1428 -36.0395 -35.9876 -35.9491 -35.9072
    -4.1470  -3.0754  -2.9732  -2.4804  -2.4707  -2.4235  -2.3062  -2.1550
    -2.1302  -1.8972  -1.8412  -1.7329  -1.5512  -1.3502  -1.3283  -1.2099
    -0.9803  -0.9716  -0.8715  -0.6693  -0.5822  -0.5153  -0.3998  -0.2905
    -0.1091   0.0086   0.0937   0.1375   0.1390   0.2102   0.3334   0.5124
     0.5713   0.6922   0.7824   0.9588   0.9939   1.0633   1.0899   1.2349
     1.3034   1.3814   1.8290   1.8759   2.0663   2.1201   2.1270   2.3461
     2.7513   2.8696   3.0026   3.2945   3.5143   3.6194   3.7098   4.0581
     4.2459   4.4254   4.4933   4.7180   4.8047   5.0108   5.0309   5.0381

          k = 0.0453-0.0606 0.0000 ( 30408 PWs)   bands (ev):

   -76.8049 -76.7860 -76.2345 -76.2157 -76.1917 -76.1731 -72.3515 -72.3260
   -72.3153 -72.2902 -72.2547 -72.2189 -44.7487 -44.7381 -44.7142 -44.6278
   -44.6054 -44.5391 -44.1772 -44.1622 -44.1542 -44.1389 -44.1169 -44.1070
   -44.0335 -44.0122 -43.9802 -43.9597 -43.9543 -43.9012 -36.6980 -36.6930
   -36.6275 -36.4919 -36.4683 -36.4524 -36.4517 -36.4083 -36.3945 -36.3799
   -36.3488 -36.3256 -36.2922 -36.1428 -36.0392 -35.9876 -35.9492 -35.9072
    -4.5137  -3.1137  -3.0229  -2.7415  -2.6514  -2.6156  -2.5390  -2.3480
    -2.3075  -2.0434  -2.0354  -1.9836  -1.6592  -1.4497  -1.4239  -1.0700
    -0.9257  -0.8896  -0.8588  -0.8144  -0.4574  -0.4304  -0.2986  -0.1845
    -0.0212  -0.0123   0.1946   0.2279   0.2753   0.3357   0.4372   0.6531
     0.7458   0.7712   1.0176   1.1526   1.1989   1.2424   1.2671   1.3113
     1.4721   1.6712   1.7276   1.9120   2.0536   2.1750   2.3391   2.6798
     2.7212   2.9166   3.0493   3.3895   3.5562   3.6193   3.7268   4.1229
     4.3285   4.4186   4.5191   4.7630   4.8636   5.0145   5.1704   5.4221

          k = 0.0453-0.0433 0.0000 ( 30415 PWs)   bands (ev):

   -76.8050 -76.7860 -76.2345 -76.2157 -76.1917 -76.1731 -72.3513 -72.3260
   -72.3153 -72.2902 -72.2546 -72.2190 -44.7495 -44.7390 -44.7145 -44.6291
   -44.6057 -44.5390 -44.1790 -44.1629 -44.1546 -44.1408 -44.1172 -44.1078
   -44.0333 -44.0121 -43.9805 -43.9597 -43.9542 -43.9012 -36.6956 -36.6891
   -36.6261 -36.4902 -36.4670 -36.4504 -36.4489 -36.4088 -36.3945 -36.3785
   -36.3452 -36.3237 -36.2906 -36.1428 -36.0387 -35.9876 -35.9492 -35.9073
    -4.8214  -3.2314  -3.1270  -2.9640  -2.8259  -2.7852  -2.7433  -2.5005
    -2.4543  -2.2757  -2.1734  -2.1561  -1.8928  -1.5776  -1.4982  -1.0463
    -1.0306  -0.8472  -0.8214  -0.6892  -0.3668  -0.2889  -0.2092  -0.1154
    -0.1140  -0.0635   0.2992   0.3087   0.3694   0.3970   0.6012   0.7473
     0.9205   1.0039   1.0416   1.2794   1.3080   1.4107   1.4502   1.4973
     1.7616   1.7842   1.9676   2.1696   2.2066   2.3433   2.5423   2.7057
     2.9336   3.0818   3.2331   3.4888   3.6785   3.7138   3.7925   4.1543
     4.2448   4.5432   4.5634   4.7766   4.8839   5.0834   5.2832   5.4549

          k = 0.0453-0.0260 0.0000 ( 30421 PWs)   bands (ev):

   -76.8050 -76.7860 -76.2346 -76.2157 -76.1918 -76.1730 -72.3512 -72.3260
   -72.3153 -72.2903 -72.2546 -72.2190 -44.7502 -44.7398 -44.7147 -44.6302
   -44.6060 -44.5390 -44.1805 -44.1635 -44.1549 -44.1425 -44.1175 -44.1086
   -44.0330 -44.0120 -43.9807 -43.9597 -43.9541 -43.9011 -36.6935 -36.6857
   -36.6249 -36.4887 -36.4666 -36.4485 -36.4460 -36.4092 -36.3946 -36.3773
   -36.3421 -36.3220 -36.2893 -36.1428 -36.0384 -35.9876 -35.9493 -35.9074
    -5.0394  -3.2914  -3.2844  -3.1073  -2.9844  -2.9022  -2.8929  -2.5955
    -2.5717  -2.4240  -2.3323  -2.2303  -2.0313  -1.7188  -1.6740  -1.0575
    -1.0259  -0.8606  -0.7276  -0.5741  -0.3964  -0.2127  -0.1833  -0.1696
    -0.0840  -0.0755   0.3259   0.3290   0.3608   0.6027   0.7087   0.8577
     0.9503   1.1057   1.1205   1.2959   1.4922   1.5447   1.6038   1.7228
     1.7588   1.9764   2.1105   2.4134   2.4996   2.6762   2.7407   2.7894
     3.0753   3.1448   3.4018   3.6475   3.7171   3.9932   4.0716   4.2026
     4.2904   4.5898   4.6762   4.8038   4.9194   5.1883   5.2738   5.4588

          k = 0.0453-0.0087 0.0000 ( 30424 PWs)   bands (ev):

   -76.8050 -76.7860 -76.2346 -76.2157 -76.1918 -76.1730 -72.3511 -72.3259
   -72.3153 -72.2903 -72.2545 -72.2190 -44.7506 -44.7402 -44.7148 -44.6308
   -44.6061 -44.5389 -44.1814 -44.1639 -44.1551 -44.1435 -44.1176 -44.1091
   -44.0329 -44.0119 -43.9808 -43.9597 -43.9541 -43.9011 -36.6922 -36.6837
   -36.6242 -36.4878 -36.4666 -36.4474 -36.4441 -36.4095 -36.3946 -36.3765
   -36.3404 -36.3210 -36.2886 -36.1428 -36.0381 -35.9876 -35.9493 -35.9074
    -5.1519  -3.3784  -3.2897  -3.1863  -3.1168  -2.9607  -2.9559  -2.6420
    -2.6412  -2.4854  -2.4227  -2.2671  -2.0773  -1.8813  -1.7251  -1.0780
    -0.9866  -0.8928  -0.6728  -0.4852  -0.4404  -0.2982  -0.1894  -0.1560
    -0.0863   0.0284   0.3102   0.3204   0.3538   0.7163   0.7302   0.9037
     1.0397   1.1082   1.1746   1.3171   1.5885   1.6554   1.7068   1.7278
     1.8847   2.0394   2.2727   2.4503   2.5720   2.7761   2.9638   2.9896
     3.0926   3.2596   3.3922   3.6449   3.8915   4.1010   4.2596   4.3363
     4.6463   4.7219   4.8170   4.8652   4.9951   5.2280   5.3728   5.4052

          k = 0.0453 0.0087 0.0000 ( 30424 PWs)   bands (ev):

   -76.8050 -76.7860 -76.2346 -76.2157 -76.1918 -76.1730 -72.3511 -72.3259
   -72.3153 -72.2903 -72.2545 -72.2190 -44.7506 -44.7402 -44.7148 -44.6308
   -44.6061 -44.5389 -44.1814 -44.1639 -44.1551 -44.1435 -44.1176 -44.1091
   -44.0329 -44.0119 -43.9808 -43.9597 -43.9541 -43.9011 -36.6922 -36.6837
   -36.6242 -36.4878 -36.4666 -36.4474 -36.4441 -36.4095 -36.3946 -36.3765
   -36.3404 -36.3210 -36.2886 -36.1428 -36.0381 -35.9876 -35.9493 -35.9074
    -5.1519  -3.3784  -3.2897  -3.1863  -3.1168  -2.9607  -2.9559  -2.6420
    -2.6412  -2.4854  -2.4227  -2.2671  -2.0773  -1.8813  -1.7251  -1.0780
    -0.9866  -0.8928  -0.6728  -0.4852  -0.4404  -0.2982  -0.1894  -0.1560
    -0.0863   0.0284   0.3102   0.3204   0.3538   0.7163   0.7302   0.9037
     1.0397   1.1082   1.1746   1.3171   1.5885   1.6554   1.7068   1.7278
     1.8847   2.0394   2.2727   2.4503   2.5720   2.7761   2.9638   2.9896
     3.0926   3.2596   3.3922   3.6449   3.8915   4.1010   4.2596   4.3363
     4.6463   4.7219   4.8170   4.8652   4.9951   5.2280   5.3751   5.4215

          k = 0.0604 0.0346 0.0000 ( 30374 PWs)   bands (ev):

   -76.8022 -76.7888 -76.2318 -76.2185 -76.1890 -76.1758 -72.3460 -72.3207
   -72.3206 -72.2955 -72.2494 -72.2242 -44.7357 -44.7200 -44.7173 -44.6261
   -44.6090 -44.5699 -44.1761 -44.1584 -44.1380 -44.1325 -44.1203 -44.0784
   -44.0301 -44.0151 -43.9849 -43.9775 -43.9627 -43.9315 -36.6786 -36.6358
   -36.6160 -36.4581 -36.4398 -36.4179 -36.4130 -36.4030 -36.3721 -36.3705
   -36.3362 -36.3312 -36.2987 -36.2266 -36.0339 -36.0286 -35.9952 -35.9895
    -4.6468  -3.3115  -2.9469  -2.8042  -2.7871  -2.6794  -2.6387  -2.4473
    -2.3426  -2.2298  -2.1382  -2.0297  -1.8424  -1.4306  -1.4077  -1.0936
    -1.0029  -0.9034  -0.8056  -0.7417  -0.4560  -0.3595  -0.1641  -0.1483
    -0.1279  -0.0167   0.2085   0.2135   0.2517   0.2876   0.5906   0.8114
     1.0054   1.0249   1.0551   1.0589   1.2345   1.2591   1.3471   1.4777
     1.6597   1.8919   1.9917   2.0824   2.2164   2.3992   2.4723   2.6797
     2.9474   3.0908   3.2258   3.3079   3.5656   3.7433   3.7930   3.8609
     4.0889   4.2185   4.3742   4.5844   4.7780   5.0293   5.1622   5.3232

          k = 0.0604 0.0519 0.0000 ( 30338 PWs)   bands (ev):

   -76.8022 -76.7888 -76.2318 -76.2185 -76.1890 -76.1758 -72.3461 -72.3208
   -72.3206 -72.2955 -72.2494 -72.2242 -44.7350 -44.7196 -44.7169 -44.6251
   -44.6089 -44.5701 -44.1747 -44.1584 -44.1365 -44.1318 -44.1203 -44.0776
   -44.0303 -44.0152 -43.9850 -43.9773 -43.9628 -43.9317 -36.6817 -36.6365
   -36.6179 -36.4588 -36.4424 -36.4177 -36.4142 -36.4025 -36.3738 -36.3713
   -36.3390 -36.3325 -36.2994 -36.2263 -36.0336 -36.0289 -35.9951 -35.9892
    -4.4024  -3.3165  -2.8087  -2.6908  -2.6656  -2.5108  -2.5087  -2.3273
    -2.2437  -2.0530  -1.9666  -1.9611  -1.6963  -1.3616  -1.3312  -1.1330
    -0.9145  -0.8744  -0.8568  -0.8333  -0.5215  -0.5047  -0.2495  -0.1529
    -0.0579   0.0454   0.1466   0.1646   0.2316   0.2724   0.5274   0.6573
     0.7689   0.7915   1.0219   1.0520   1.0910   1.1238   1.1301   1.4451
     1.4554   1.6765   1.7443   2.1058   2.2109   2.3029   2.3127   2.7192
     2.7991   2.9175   3.0889   3.3396   3.4286   3.5809   3.7046   3.8803
     3.9987   4.1258   4.3658   4.5724   4.6846   4.9803   5.2390   5.4293

          k = 0.0604 0.0692 0.0000 ( 30390 PWs)   bands (ev):

   -76.8021 -76.7888 -76.2317 -76.2185 -76.1889 -76.1758 -72.3463 -72.3208
   -72.3206 -72.2955 -72.2495 -72.2242 -44.7343 -44.7191 -44.7167 -44.6241
   -44.6088 -44.5703 -44.1733 -44.1584 -44.1349 -44.1312 -44.1202 -44.0770
   -44.0305 -44.0153 -43.9852 -43.9771 -43.9628 -43.9319 -36.6847 -36.6370
   -36.6200 -36.4601 -36.4445 -36.4174 -36.4153 -36.4021 -36.3755 -36.3721
   -36.3417 -36.3340 -36.3002 -36.2259 -36.0333 -36.0292 -35.9950 -35.9889
    -4.0837  -3.2842  -2.7880  -2.5034  -2.5012  -2.3539  -2.3321  -2.1810
    -2.0908  -1.8981  -1.8603  -1.7406  -1.4823  -1.4306  -1.3145  -1.2060
    -0.9956  -0.9571  -0.8496  -0.6878  -0.5959  -0.5603  -0.3353  -0.2131
    -0.1126   0.0284   0.0576   0.0858   0.1306   0.2572   0.3524   0.5538
     0.5545   0.6406   0.7246   0.8788   0.9191   1.0975   1.1063   1.2689
     1.3858   1.4374   1.8579   2.0896   2.1066   2.2290   2.3883   2.4700
     2.7749   2.8866   3.0660   3.2870   3.4956   3.5513   3.6741   3.9160
     3.9737   4.0651   4.3810   4.5471   4.6165   4.8876   5.1151   5.4630

          k = 0.0604 0.0866 0.0000 ( 30383 PWs)   bands (ev):

   -76.8021 -76.7888 -76.2317 -76.2185 -76.1889 -76.1758 -72.3464 -72.3208
   -72.3206 -72.2954 -72.2496 -72.2241 -44.7338 -44.7185 -44.7167 -44.6234
   -44.6088 -44.5704 -44.1723 -44.1584 -44.1337 -44.1307 -44.1202 -44.0765
   -44.0306 -44.0153 -43.9853 -43.9769 -43.9628 -43.9320 -36.6869 -36.6374
   -36.6216 -36.4614 -36.4457 -36.4173 -36.4159 -36.4018 -36.3766 -36.3726
   -36.3438 -36.3351 -36.3009 -36.2257 -36.0332 -36.0294 -35.9950 -35.9887
    -3.7280  -3.2427  -2.9364  -2.3461  -2.2996  -2.2064  -2.1354  -2.0157
    -1.9300  -1.8130  -1.7567  -1.6442  -1.4960  -1.4178  -1.2914  -1.1966
    -1.0973  -0.9821  -0.7912  -0.7670  -0.5326  -0.4466  -0.3864  -0.3661
    -0.2506  -0.1751  -0.1702  -0.0715   0.0326   0.1661   0.2405   0.4474
     0.4976   0.6096   0.7075   0.7341   0.8726   0.9159   1.0344   1.2002
     1.3053   1.4796   1.9429   1.9932   2.0726   2.2348   2.2365   2.5295
     2.8088   2.8808   3.0719   3.4017   3.4911   3.6683   3.7603   3.8631
     3.9862   4.0355   4.4116   4.4556   4.5991   4.7911   4.8989   5.0239

          k = 0.0604 0.1039 0.0000 ( 30386 PWs)   bands (ev):

   -76.8021 -76.7888 -76.2317 -76.2185 -76.1889 -76.1758 -72.3464 -72.3209
   -72.3206 -72.2954 -72.2496 -72.2241 -44.7336 -44.7183 -44.7167 -44.6231
   -44.6088 -44.5705 -44.1719 -44.1584 -44.1333 -44.1305 -44.1202 -44.0763
   -44.0307 -44.0153 -43.9854 -43.9769 -43.9628 -43.9321 -36.6877 -36.6374
   -36.6222 -36.4619 -36.4461 -36.4173 -36.4161 -36.4017 -36.3771 -36.3728
   -36.3446 -36.3355 -36.3011 -36.2256 -36.0332 -36.0294 -35.9950 -35.9886
    -3.4891  -3.2239  -3.1079  -2.2815  -2.2059  -2.1406  -2.0102  -1.9094
    -1.8482  -1.8025  -1.6982  -1.6957  -1.5231  -1.5150  -1.3524  -1.1372
    -1.0441  -0.8266  -0.7330  -0.6937  -0.6174  -0.5454  -0.4227  -0.4039
    -0.3459  -0.3447  -0.2883  -0.1933  -0.0492   0.2337   0.2963   0.3906
     0.4805   0.5165   0.7230   0.8137   0.8554   0.8684   0.9226   1.1790
     1.2858   1.5169   1.8977   1.9452   2.1309   2.1574   2.2557   2.6144
     2.7737   2.8825   3.0837   3.4941   3.5095   3.7460   3.8083   3.9060
     3.9952   4.0307   4.4016   4.4283   4.5260   4.6928   4.7489   4.8194

          k = 0.0604 0.1212 0.0000 ( 30383 PWs)   bands (ev):

   -76.8021 -76.7888 -76.2317 -76.2185 -76.1889 -76.1758 -72.3464 -72.3208
   -72.3206 -72.2954 -72.2496 -72.2241 -44.7338 -44.7185 -44.7167 -44.6234
   -44.6088 -44.5704 -44.1723 -44.1584 -44.1337 -44.1307 -44.1202 -44.0765
   -44.0306 -44.0153 -43.9853 -43.9769 -43.9628 -43.9320 -36.6869 -36.6374
   -36.6216 -36.4614 -36.4457 -36.4173 -36.4159 -36.4018 -36.3766 -36.3726
   -36.3438 -36.3351 -36.3009 -36.2257 -36.0332 -36.0294 -35.9950 -35.9887
    -3.7280  -3.2427  -2.9364  -2.3461  -2.2996  -2.2064  -2.1354  -2.0157
    -1.9300  -1.8130  -1.7567  -1.6442  -1.4960  -1.4178  -1.2914  -1.1966
    -1.0973  -0.9821  -0.7912  -0.7670  -0.5326  -0.4466  -0.3864  -0.3661
    -0.2506  -0.1751  -0.1702  -0.0715   0.0326   0.1661   0.2405   0.4474
     0.4976   0.6096   0.7075   0.7341   0.8726   0.9159   1.0344   1.2002
     1.3053   1.4796   1.9429   1.9932   2.0726   2.2348   2.2365   2.5295
     2.8088   2.8808   3.0719   3.4017   3.4911   3.6683   3.7603   3.8631
     3.9862   4.0355   4.4116   4.4556   4.5991   4.7910   4.8989   5.0239

          k = 0.0604-0.0692 0.0000 ( 30390 PWs)   bands (ev):

   -76.8021 -76.7888 -76.2317 -76.2185 -76.1889 -76.1758 -72.3463 -72.3208
   -72.3206 -72.2955 -72.2495 -72.2242 -44.7343 -44.7191 -44.7167 -44.6241
   -44.6088 -44.5703 -44.1733 -44.1584 -44.1349 -44.1312 -44.1202 -44.0770
   -44.0305 -44.0153 -43.9852 -43.9771 -43.9628 -43.9319 -36.6847 -36.6370
   -36.6200 -36.4601 -36.4445 -36.4174 -36.4153 -36.4021 -36.3755 -36.3721
   -36.3417 -36.3340 -36.3002 -36.2259 -36.0333 -36.0292 -35.9950 -35.9889
    -4.0837  -3.2842  -2.7880  -2.5034  -2.5012  -2.3539  -2.3321  -2.1810
    -2.0908  -1.8981  -1.8603  -1.7406  -1.4823  -1.4306  -1.3145  -1.2060
    -0.9956  -0.9571  -0.8496  -0.6878  -0.5959  -0.5603  -0.3353  -0.2131
    -0.1126   0.0284   0.0576   0.0858   0.1306   0.2572   0.3524   0.5538
[...]
     1.3293   1.8150   1.8332   2.1209   2.1497   2.2653   2.3695   2.8422
     2.9347   2.9884   3.0981   3.3313   3.4184   3.5280   3.5290   3.8776
     3.9142   4.0573   4.1354   4.4435   4.5702   4.7925   4.8039   4.9978

          k = 0.0755 0.1298 0.0000 ( 30419 PWs)   bands (ev):

   -76.7989 -76.7921 -76.2285 -76.2217 -76.1858 -76.1790 -72.3401 -72.3267
   -72.3147 -72.3016 -72.2435 -72.2302 -44.7302 -44.7222 -44.6822 -44.6202
   -44.6131 -44.6065 -44.1692 -44.1628 -44.1309 -44.1247 -44.0959 -44.0419
   -44.0275 -44.0204 -44.0188 -43.9739 -43.9673 -43.9664 -36.6738 -36.6468
   -36.5280 -36.4501 -36.4356 -36.4262 -36.4111 -36.3626 -36.3437 -36.3336
   -36.3246 -36.3200 -36.3091 -36.2846 -36.1242 -36.0831 -36.0229 -36.0036
    -3.6660  -3.6131  -2.6566  -2.4186  -2.4180  -2.2526  -2.2323  -2.1352
    -1.9131  -1.8816  -1.7800  -1.5856  -1.4691  -1.4522  -1.2653  -1.2635
    -1.1766  -1.0739  -0.7190  -0.6918  -0.5881  -0.4036  -0.2912  -0.2549
    -0.1707  -0.1067  -0.0730   0.0423   0.1193   0.2364   0.2422   0.3030
     0.3943   0.5947   0.6748   0.6959   0.8876   1.0995   1.1362   1.2362
     1.3362   1.7180   1.8972   2.0663   2.2011   2.3162   2.4143   2.8310
     2.9031   2.9218   3.0980   3.2524   3.3548   3.4680   3.5216   3.6074
     3.7853   3.8892   4.1018   4.4273   4.6298   4.8851   5.0325   5.2716

          k = 0.0755-0.0606 0.0000 ( 30363 PWs)   bands (ev):

   -76.7989 -76.7920 -76.2285 -76.2217 -76.1858 -76.1790 -72.3400 -72.3268
   -72.3147 -72.3016 -72.2434 -72.2303 -44.7306 -44.7221 -44.6827 -44.6209
   -44.6129 -44.6062 -44.1702 -44.1625 -44.1319 -44.1244 -44.0964 -44.0424
   -44.0273 -44.0202 -44.0188 -43.9740 -43.9670 -43.9663 -36.6718 -36.6471
   -36.5266 -36.4492 -36.4341 -36.4267 -36.4120 -36.3624 -36.3433 -36.3318
   -36.3231 -36.3206 -36.3094 -36.2831 -36.1247 -36.0837 -36.0226 -36.0038
    -3.9661  -3.5630  -2.5873  -2.5502  -2.5071  -2.3369  -2.3357  -2.2380
    -1.9934  -1.9623  -1.8223  -1.7346  -1.4911  -1.3482  -1.3393  -1.2900
    -1.0211  -0.9910  -0.7155  -0.7067  -0.6225  -0.5508  -0.2237  -0.1356
    -0.0783   0.0264   0.0386   0.0915   0.1631   0.3196   0.3850   0.4518
     0.5422   0.5683   0.7436   0.8172   0.8538   1.0469   1.1353   1.3131
     1.4150   1.5898   1.8885   2.0746   2.2628   2.4780   2.5134   2.5978
     2.8417   2.9143   3.0869   3.2340   3.2740   3.3884   3.5012   3.5163
     3.7116   3.8922   4.0901   4.3751   4.7573   4.9593   5.2173   5.3076

          k = 0.0755-0.0433 0.0000 ( 30361 PWs)   bands (ev):

   -76.7990 -76.7920 -76.2286 -76.2217 -76.1858 -76.1790 -72.3399 -72.3268
   -72.3147 -72.3016 -72.2433 -72.2303 -44.7312 -44.7220 -44.6833 -44.6217
   -44.6127 -44.6059 -44.1713 -44.1621 -44.1332 -44.1240 -44.0970 -44.0431
   -44.0271 -44.0200 -44.0187 -43.9742 -43.9667 -43.9662 -36.6696 -36.6474
   -36.5249 -36.4485 -36.4320 -36.4273 -36.4130 -36.3622 -36.3424 -36.3297
   -36.3219 -36.3214 -36.3094 -36.2817 -36.1254 -36.0844 -36.0223 -36.0039
    -4.2100  -3.4737  -2.6744  -2.6416  -2.5253  -2.4592  -2.4192  -2.3362
    -2.0604  -2.0536  -1.9155  -1.8631  -1.6332  -1.3215  -1.2970  -1.2364
    -0.9724  -0.8660  -0.8038  -0.7165  -0.6288  -0.5692  -0.1980  -0.1387
    -0.0205   0.0523   0.0678   0.1267   0.1451   0.3263   0.4159   0.5847
     0.6580   0.7375   0.8294   0.9253   1.0695   1.0744   1.1458   1.4522
     1.4890   1.6426   1.8213   2.2552   2.2899   2.3706   2.4917   2.7137
     2.7799   2.9095   3.0751   3.2459   3.3143   3.4554   3.5441   3.5763
     3.7251   3.9181   4.1242   4.3631   4.8652   4.9610   5.2299   5.2691

          k = 0.0755-0.0260 0.0000 ( 30396 PWs)   bands (ev):

   -76.7990 -76.7920 -76.2286 -76.2217 -76.1859 -76.1790 -72.3398 -72.3268
   -72.3146 -72.3016 -72.2433 -72.2304 -44.7316 -44.7219 -44.6838 -44.6223
   -44.6125 -44.6057 -44.1723 -44.1618 -44.1342 -44.1236 -44.0975 -44.0436
   -44.0269 -44.0198 -44.0187 -43.9743 -43.9664 -43.9662 -36.6677 -36.6476
   -36.5234 -36.4480 -36.4300 -36.4278 -36.4140 -36.3618 -36.3413 -36.3279
   -36.3222 -36.3211 -36.3094 -36.2807 -36.1259 -36.0850 -36.0220 -36.0041
    -4.3792  -3.3417  -2.7348  -2.6942  -2.6038  -2.5734  -2.4901  -2.4088
    -2.1505  -2.0930  -2.0595  -1.8789  -1.6934  -1.3848  -1.3426  -1.1921
    -0.9401  -0.8629  -0.8325  -0.7641  -0.5863  -0.4442  -0.2328  -0.1674
    -0.0767   0.0657   0.0898   0.0986   0.1382   0.2492   0.4256   0.6308
     0.7667   0.8047   0.9359   0.9553   1.1553   1.2660   1.3162   1.5696
     1.5799   1.8334   1.9152   2.1935   2.2791   2.3937   2.4934   2.7675
     2.7792   2.9399   3.0504   3.1951   3.4765   3.6033   3.7368   3.7634
     3.8557   4.0609   4.2243   4.4137   4.9063   4.9221   5.1003   5.1158

          k = 0.0755-0.0087 0.0000 ( 30411 PWs)   bands (ev):

   -76.7990 -76.7920 -76.2286 -76.2217 -76.1859 -76.1789 -72.3398 -72.3269
   -72.3146 -72.3017 -72.2433 -72.2304 -44.7319 -44.7218 -44.6841 -44.6226
   -44.6124 -44.6056 -44.1728 -44.1616 -44.1349 -44.1234 -44.0978 -44.0439
   -44.0268 -44.0197 -44.0187 -43.9744 -43.9662 -43.9661 -36.6665 -36.6477
   -36.5225 -36.4479 -36.4287 -36.4280 -36.4146 -36.3616 -36.3404 -36.3269
   -36.3227 -36.3208 -36.3093 -36.2802 -36.1263 -36.0854 -36.0218 -36.0042
    -4.4654  -3.1922  -2.8286  -2.7591  -2.6452  -2.6094  -2.5315  -2.4488
    -2.2058  -2.1446  -2.1075  -1.8745  -1.6670  -1.4698  -1.4409  -1.1809
    -0.9540  -0.8613  -0.8010  -0.7211  -0.5594  -0.3998  -0.3348  -0.1344
    -0.1203   0.0525   0.0985   0.1034   0.1195   0.1765   0.4747   0.6201
     0.7603   0.8153   0.9604   1.0680   1.1658   1.4027   1.4504   1.6441
     1.6695   1.9085   2.0807   2.1273   2.2520   2.4395   2.4968   2.7370
     2.7681   2.9532   3.0427   3.2340   3.4884   3.6220   3.8305   4.0611
     4.1488   4.4250   4.5054   4.5368   4.8587   4.8697   4.9414   5.0355

          k = 0.0755 0.0087 0.0000 ( 30411 PWs)   bands (ev):

   -76.7990 -76.7920 -76.2286 -76.2217 -76.1859 -76.1789 -72.3398 -72.3269
   -72.3146 -72.3017 -72.2433 -72.2304 -44.7319 -44.7218 -44.6841 -44.6226
   -44.6124 -44.6056 -44.1728 -44.1616 -44.1349 -44.1234 -44.0978 -44.0439
   -44.0268 -44.0197 -44.0187 -43.9744 -43.9662 -43.9661 -36.6665 -36.6477
   -36.5225 -36.4479 -36.4287 -36.4280 -36.4146 -36.3616 -36.3404 -36.3269
   -36.3227 -36.3208 -36.3093 -36.2802 -36.1263 -36.0854 -36.0218 -36.0042
    -4.4654  -3.1922  -2.8286  -2.7591  -2.6452  -2.6094  -2.5315  -2.4488
    -2.2058  -2.1446  -2.1075  -1.8745  -1.6670  -1.4698  -1.4409  -1.1809
    -0.9540  -0.8613  -0.8010  -0.7211  -0.5594  -0.3998  -0.3348  -0.1344
    -0.1203   0.0525   0.0985   0.1034   0.1195   0.1765   0.4747   0.6201
     0.7603   0.8153   0.9604   1.0680   1.1658   1.4027   1.4504   1.6441
     1.6695   1.9085   2.0807   2.1273   2.2520   2.4395   2.4968   2.7370
     2.7681   2.9532   3.0427   3.2340   3.4884   3.6220   3.8305   4.0611
     4.1488   4.4250   4.5054   4.5368   4.8587   4.8697   4.9414   5.0355

          k = 0.0755 0.0260 0.0000 ( 30396 PWs)   bands (ev):

   -76.7990 -76.7920 -76.2286 -76.2217 -76.1859 -76.1790 -72.3398 -72.3268
   -72.3146 -72.3016 -72.2433 -72.2304 -44.7316 -44.7219 -44.6838 -44.6223
   -44.6125 -44.6057 -44.1723 -44.1618 -44.1342 -44.1236 -44.0975 -44.0436
   -44.0269 -44.0198 -44.0187 -43.9743 -43.9664 -43.9662 -36.6677 -36.6476
   -36.5234 -36.4480 -36.4300 -36.4278 -36.4140 -36.3618 -36.3413 -36.3279
   -36.3222 -36.3211 -36.3094 -36.2807 -36.1259 -36.0850 -36.0220 -36.0041
    -4.3792  -3.3417  -2.7348  -2.6942  -2.6038  -2.5734  -2.4901  -2.4088
    -2.1505  -2.0930  -2.0595  -1.8789  -1.6934  -1.3848  -1.3426  -1.1921
    -0.9401  -0.8629  -0.8325  -0.7641  -0.5863  -0.4442  -0.2328  -0.1674
    -0.0767   0.0657   0.0898   0.0986   0.1382   0.2492   0.4256   0.6308
     0.7667   0.8047   0.9359   0.9553   1.1553   1.2660   1.3162   1.5696
     1.5799   1.8334   1.9152   2.1935   2.2791   2.3937   2.4934   2.7675
     2.7792   2.9399   3.0504   3.1951   3.4765   3.6033   3.7368   3.7634
     3.8557   4.0609   4.2243   4.4137   4.9063   4.9221   5.1003   5.1158

          k =-0.0906-0.0519 0.0000 ( 30390 PWs)   bands (ev):

   -76.7955 -76.7955 -76.2251 -76.2251 -76.1824 -76.1824 -72.3334 -72.3334
   -72.3082 -72.3081 -72.2368 -72.2368 -44.7265 -44.7265 -44.6447 -44.6447
   -44.6169 -44.6169 -44.1665 -44.1665 -44.1284 -44.1284 -44.0589 -44.0589
   -44.0227 -44.0227 -44.0050 -44.0050 -43.9700 -43.9700 -36.6590 -36.6590
   -36.4393 -36.4393 -36.4268 -36.4267 -36.4196 -36.4196 -36.3521 -36.3521
   -36.3193 -36.3193 -36.2246 -36.2246 -36.1840 -36.1840 -36.0132 -36.0132
    -3.7925  -3.7924  -2.5788  -2.5788  -2.3656  -2.3656  -2.3211  -2.3211
    -1.9791  -1.9791  -1.7520  -1.7520  -1.4186  -1.4186  -1.3258  -1.3258
    -1.0228  -1.0228  -0.7153  -0.7153  -0.5526  -0.5526  -0.1481  -0.1481
     0.0066   0.0066   0.1443   0.1443   0.1712   0.1712   0.3329   0.3329
     0.5856   0.5857   0.7503   0.7503   0.9974   0.9974   1.1958   1.1958
     1.5287   1.5287   2.0219   2.0219   2.4261   2.4261   2.7895   2.7895
     2.8559   2.8559   3.0136   3.0136   3.2032   3.2032   3.3140   3.3140
     3.7858   3.7858   4.1751   4.1751   4.9171   4.9171   5.2656   5.2656

          k =-0.0906-0.0346 0.0000 ( 30378 PWs)   bands (ev):

   -76.7955 -76.7955 -76.2251 -76.2251 -76.1824 -76.1824 -72.3335 -72.3333
   -72.3082 -72.3081 -72.2369 -72.2368 -44.7268 -44.7262 -44.6452 -44.6443
   -44.6174 -44.6165 -44.1672 -44.1658 -44.1292 -44.1276 -44.0593 -44.0584
   -44.0228 -44.0226 -44.0054 -44.0046 -43.9701 -43.9699 -36.6602 -36.6578
   -36.4393 -36.4393 -36.4269 -36.4263 -36.4205 -36.4191 -36.3523 -36.3517
   -36.3202 -36.3183 -36.2256 -36.2238 -36.1851 -36.1830 -36.0135 -36.0130
    -3.9429  -3.5867  -2.5688  -2.5520  -2.4663  -2.3394  -2.3178  -2.3052
    -2.0049  -1.9327  -1.8366  -1.7119  -1.4879  -1.3826  -1.3305  -1.3006
    -1.0823  -0.9568  -0.7408  -0.6523  -0.6475  -0.5030  -0.2102  -0.1477
    -0.0291  -0.0270   0.0683   0.1404   0.1483   0.2146   0.2864   0.3365
     0.4728   0.6713   0.6737   0.7850   1.0927   1.1223   1.1995   1.2256
     1.4255   1.7567   1.8713   2.1607   2.3360   2.4428   2.7047   2.7309
     2.8467   2.9329   2.9677   3.1447   3.2017   3.3064   3.3583   3.5018
     3.7829   3.8338   4.1730   4.2369   4.8196   4.9459   5.1652   5.2465

          k =-0.0906-0.0173 0.0000 ( 30401 PWs)   bands (ev):

   -76.7955 -76.7954 -76.2252 -76.2251 -76.1824 -76.1823 -72.3335 -72.3333
   -72.3082 -72.3081 -72.2369 -72.2368 -44.7270 -44.7259 -44.6455 -44.6440
   -44.6178 -44.6162 -44.1677 -44.1653 -44.1297 -44.1270 -44.0596 -44.0581
   -44.0228 -44.0226 -44.0058 -44.0043 -43.9702 -43.9698 -36.6611 -36.6569
   -36.4393 -36.4392 -36.4267 -36.4259 -36.4214 -36.4189 -36.3524 -36.3514
   -36.3209 -36.3176 -36.2263 -36.2232 -36.1859 -36.1823 -36.0136 -36.0128
    -4.0333  -3.3447  -2.6840  -2.4969  -2.4887  -2.3465  -2.3157  -2.2955
    -2.0343  -1.9312  -1.8495  -1.7003  -1.4807  -1.4770  -1.3170  -1.3102
    -0.9855  -0.9795  -0.8435  -0.6509  -0.5743  -0.4753  -0.3243  -0.2645
    -0.0688  -0.0456  -0.0177   0.0945   0.1349   0.2015   0.2740   0.3434
     0.4084   0.6422   0.6604   0.8301   1.2056   1.2230   1.2378   1.3218
     1.4913   1.7717   1.9986   2.1835   2.2900   2.4065   2.5923   2.6850
     2.8514   2.9419   2.9446   3.1891   3.2958   3.4154   3.6172   3.7694
     3.9228   4.0313   4.2248   4.3708   4.7117   4.8845   4.9385   5.1943

          k =-0.0906 0.0000 0.0000 ( 30392 PWs)   bands (ev):

   -76.7955 -76.7954 -76.2252 -76.2251 -76.1824 -76.1823 -72.3335 -72.3332
   -72.3082 -72.3081 -72.2369 -72.2367 -44.7271 -44.7258 -44.6456 -44.6438
   -44.6179 -44.6160 -44.1679 -44.1651 -44.1299 -44.1268 -44.0598 -44.0580
   -44.0228 -44.0225 -44.0059 -44.0042 -43.9702 -43.9698 -36.6614 -36.6565
   -36.4393 -36.4391 -36.4266 -36.4257 -36.4218 -36.4189 -36.3525 -36.3513
   -36.3212 -36.3173 -36.2266 -36.2230 -36.1862 -36.1821 -36.0137 -36.0127
    -4.0633  -3.1779  -2.8350  -2.4634  -2.4584  -2.3506  -2.3165  -2.3005
    -2.0516  -1.9735  -1.7837  -1.6979  -1.5600  -1.4469  -1.3435  -1.2769
    -1.0595  -0.8943  -0.8688  -0.6214  -0.5543  -0.4665  -0.4500  -0.2862
    -0.1051  -0.0414  -0.0249   0.0566   0.1214   0.1590   0.2730   0.3926
     0.4465   0.5369   0.6576   0.8789   1.2305   1.2516   1.2549   1.3696
     1.5472   1.7935   2.0698   2.1532   2.2724   2.4470   2.5075   2.6724
     2.8521   2.9122   2.9641   3.1924   3.3285   3.4532   3.7762   3.7812
     4.1299   4.2607   4.4725   4.5404   4.5554   4.8291   4.8341   5.0022

          k =-0.0906 0.0173 0.0000 ( 30401 PWs)   bands (ev):

   -76.7955 -76.7954 -76.2252 -76.2251 -76.1824 -76.1823 -72.3335 -72.3333
   -72.3082 -72.3081 -72.2369 -72.2368 -44.7270 -44.7259 -44.6455 -44.6440
   -44.6178 -44.6162 -44.1677 -44.1653 -44.1297 -44.1270 -44.0596 -44.0581
   -44.0228 -44.0226 -44.0058 -44.0043 -43.9702 -43.9698 -36.6611 -36.6569
   -36.4393 -36.4392 -36.4267 -36.4259 -36.4214 -36.4189 -36.3524 -36.3514
   -36.3209 -36.3176 -36.2263 -36.2232 -36.1859 -36.1823 -36.0136 -36.0128
    -4.0333  -3.3447  -2.6840  -2.4969  -2.4887  -2.3465  -2.3157  -2.2955
    -2.0343  -1.9312  -1.8495  -1.7003  -1.4807  -1.4770  -1.3170  -1.3102
    -0.9855  -0.9795  -0.8435  -0.6509  -0.5743  -0.4753  -0.3243  -0.2645
    -0.0688  -0.0456  -0.0177   0.0945   0.1349   0.2015   0.2740   0.3434
     0.4084   0.6422   0.6604   0.8301   1.2056   1.2230   1.2378   1.3218
     1.4913   1.7717   1.9986   2.1835   2.2900   2.4065   2.5923   2.6850
     2.8514   2.9419   2.9446   3.1891   3.2958   3.4154   3.6172   3.7694
     3.9228   4.0313   4.2248   4.3708   4.7117   4.8845   4.9384   5.1943

          k =-0.0906 0.0346 0.0000 ( 30378 PWs)   bands (ev):

   -76.7955 -76.7955 -76.2251 -76.2251 -76.1824 -76.1824 -72.3335 -72.3333
   -72.3082 -72.3081 -72.2369 -72.2368 -44.7268 -44.7262 -44.6452 -44.6443
   -44.6174 -44.6165 -44.1672 -44.1658 -44.1292 -44.1276 -44.0593 -44.0584
   -44.0228 -44.0226 -44.0054 -44.0046 -43.9701 -43.9699 -36.6602 -36.6578
   -36.4393 -36.4393 -36.4269 -36.4263 -36.4205 -36.4191 -36.3523 -36.3517
   -36.3202 -36.3183 -36.2256 -36.2238 -36.1851 -36.1830 -36.0135 -36.0130
    -3.9429  -3.5867  -2.5688  -2.5520  -2.4663  -2.3394  -2.3178  -2.3052
    -2.0049  -1.9327  -1.8366  -1.7119  -1.4879  -1.3826  -1.3305  -1.3006
    -1.0823  -0.9568  -0.7408  -0.6523  -0.6475  -0.5030  -0.2102  -0.1477
    -0.0291  -0.0270   0.0683   0.1404   0.1483   0.2146   0.2864   0.3365
     0.4728   0.6713   0.6737   0.7850   1.0927   1.1223   1.1995   1.2256
     1.4255   1.7567   1.8713   2.1607   2.3360   2.4428   2.7047   2.7309
     2.8467   2.9329   2.9677   3.1447   3.2017   3.3064   3.3583   3.5018
     3.7829   3.8338   4.1730   4.2369   4.8196   4.9459   5.1652   5.2465

          k =-0.0906-0.1558 0.0000 ( 30390 PWs)   bands (ev):

   -76.7955 -76.7955 -76.2251 -76.2251 -76.1824 -76.1824 -72.3334 -72.3334
   -72.3082 -72.3081 -72.2368 -72.2368 -44.7265 -44.7265 -44.6447 -44.6447
   -44.6169 -44.6169 -44.1665 -44.1665 -44.1284 -44.1284 -44.0589 -44.0589
   -44.0227 -44.0227 -44.0050 -44.0050 -43.9700 -43.9700 -36.6590 -36.6590
   -36.4393 -36.4393 -36.4268 -36.4267 -36.4196 -36.4196 -36.3521 -36.3521
   -36.3193 -36.3193 -36.2246 -36.2246 -36.1840 -36.1840 -36.0132 -36.0132
    -3.7925  -3.7924  -2.5788  -2.5788  -2.3656  -2.3656  -2.3211  -2.3211
    -1.9791  -1.9791  -1.7520  -1.7520  -1.4186  -1.4186  -1.3258  -1.3258
    -1.0228  -1.0228  -0.7153  -0.7153  -0.5526  -0.5526  -0.1481  -0.1481
     0.0066   0.0066   0.1443   0.1443   0.1712   0.1712   0.3329   0.3329
     0.5856   0.5857   0.7503   0.7503   0.9974   0.9974   1.1958   1.1958
     1.5287   1.5287   2.0219   2.0219   2.4261   2.4261   2.7895   2.7895
     2.8559   2.8559   3.0136   3.0136   3.2032   3.2032   3.3140   3.3140
     3.7858   3.7858   4.1751   4.1751   4.9171   4.9171   5.2656   5.2656

     the Fermi energy is     2.3407 ev

!    total energy              =   -2319.90533457 Ry
     estimated scf accuracy    <       0.00000074 Ry
     smearing contrib. (-TS)   =      -0.05347950 Ry
     internal energy E=F+TS    =   -2319.85185507 Ry

     The total energy is F=E-TS. E is the sum of the following terms:
     one-electron contribution =  -19706.27862866 Ry
     hartree contribution      =    9845.56384217 Ry
     xc contribution           =    -432.08451813 Ry
     ewald contribution        =    7972.94744862 Ry
     electric field correction =       0.00000093 Ry

     convergence has been achieved in  16 iterations

     negative rho (up, down):  1.751E-03 0.000E+00

     Forces acting on atoms (cartesian axes, Ry/au):

     atom    1 type  1   force =    -0.00000206   -0.01814532    0.00909546
     atom    2 type  1   force =     0.00000257   -0.01814678    0.00909575
     atom    3 type  2   force =    -0.00000093    0.01083039    0.02869340
     atom    4 type  2   force =    -0.00000031    0.01082820    0.02868928
     atom    5 type  1   force =    -0.00000086    0.00279986   -0.01697946
     atom    6 type  1   force =     0.00000061    0.00280078   -0.01697867
     atom    7 type  2   force =     0.00000098    0.00330159   -0.02019480
     atom    8 type  2   force =    -0.00000029    0.00330187   -0.02019443
     atom    9 type  1   force =     0.00000231    0.00151363    0.00005248
     atom   10 type  1   force =    -0.00000145    0.00151344    0.00005274
     atom   11 type  2   force =    -0.00000078   -0.00029981   -0.00066720
     atom   12 type  2   force =     0.00000022   -0.00029786   -0.00066453

     Total force =     0.064345     Total SCF correction =     0.005410

     Writing output data file ./Rh2W2/Rh2W2_beef.save/

     init_run     :    102.37s CPU    103.01s WALL (       1 calls)
     electrons    :   3972.17s CPU   3992.34s WALL (       1 calls)
     forces       :     65.06s CPU     65.32s WALL (       1 calls)

     Called by init_run:
     wfcinit      :     91.01s CPU     91.41s WALL (       1 calls)
     potinit      :      7.80s CPU      7.90s WALL (       1 calls)
     hinit0       :      1.88s CPU      1.90s WALL (       1 calls)

     Called by electrons:
     c_bands      :   3572.64s CPU   3585.08s WALL (      16 calls)
     sum_band     :    368.14s CPU    371.93s WALL (      16 calls)
     v_of_rho     :     22.59s CPU     23.73s WALL (      17 calls)
     newd         :     15.56s CPU     17.53s WALL (      17 calls)
     mix_rho      :      0.58s CPU      0.60s WALL (      16 calls)
     vdW_kernel   :      5.86s CPU      5.87s WALL (       1 calls)

     Called by c_bands:
     init_us_2    :     10.41s CPU     10.47s WALL (    2516 calls)
     cegterg      :   3546.07s CPU   3556.22s WALL (    1184 calls)

     Called by *egterg:
     cdiaghg      :    216.55s CPU    216.63s WALL (    5573 calls)
     h_psi        :   1609.47s CPU   1617.80s WALL (    5647 calls)
     s_psi        :    538.65s CPU    538.93s WALL (    5647 calls)
     g_psi        :      1.17s CPU      1.18s WALL (    4389 calls)

     Called by h_psi:
     h_psi:calbec :    550.11s CPU    551.06s WALL (    5647 calls)
     vloc_psi     :    506.51s CPU    513.53s WALL (    5647 calls)
     add_vuspsi   :    545.94s CPU    546.24s WALL (    5647 calls)

     General routines
     calbec       :    834.13s CPU    835.51s WALL (    7127 calls)
     fft          :     12.00s CPU     12.45s WALL (    1130 calls)
     ffts         :      0.06s CPU      0.07s WALL (      33 calls)
     fftw         :    588.31s CPU    596.58s WALL (  764202 calls)
     interpolate  :      0.21s CPU      0.22s WALL (      17 calls)

     Parallel routines
     fft_scatt_xy :     45.93s CPU     46.55s WALL (  765365 calls)
     fft_scatt_yz :    118.93s CPU    120.87s WALL (  765365 calls)

     PWSCF        :      1h 9m CPU      1h 9m WALL


   This run was terminated on:  15:22:47  24Jun2022            

=------------------------------------------------------------------------------=
   JOB DONE.
=------------------------------------------------------------------------------=
