
     Program PWSCF v.6.6 starts on 10Jul2022 at 19:37:19 

     This program is part of the open-source Quantum ESPRESSO suite
     for quantum simulation of materials; please cite
         "P. Giannozzi et al., J. Phys.:Condens. Matter 21 395502 (2009);
         "P. Giannozzi et al., J. Phys.:Condens. Matter 29 465901 (2017);
          URL http://www.quantum-espresso.org", 
     in publications or presentations arising from this work. More details at
     http://www.quantum-espresso.org/quote

     Parallel version (MPI), running on    37 processors

     MPI processes distributed on     1 nodes
     R & G space division:  proc/nbgrp/npool/nimage =      37
     Fft bands division:     nmany     =       1
     Reading input from Ru2Au2.in
Warning: card &CELL ignored
Warning: card / ignored

     Current dimensions of program PWSCF are:
     Max number of different atomic species (ntypx) = 10
     Max number of k-points (npk) =  40000
     Max angular momentum in pseudopotentials (lmaxx) =  3
     Presently stress not available with electric field and gates

     Message from routine cell_base_init:
     DEPRECATED: use true lattice parameter, not A to a.u. conversion factor

     **************************************************************************
     Initializing libbeef V0.1.2 with the BEEF-vdW functional.
     Citation: Wellendorff et al., PRB 85, 235149 (2012).
     **************************************************************************


     IMPORTANT: XC functional enforced from input :
     Exchange-correlation= BEEF-VDW
                           (   1   4  43  14   2   0   0)
     Any further DFT definition will be discarded
     Please, verify this is what you really want


     Subspace diagonalization in iterative solution of the eigenvalue problem:
     a serial algorithm will be used


     Parallelization info
     --------------------
     sticks:   dense  smooth     PW     G-vecs:    dense   smooth      PW
     Min         117      46     13                27211     6866    1069
     Max         118      47     14                27230     6893    1092
     Sum        4365    1737    503              1007187   254815   39997



     bravais-lattice index     =            0
     lattice parameter (alat)  =       1.8897  a.u.
     unit-cell volume          =    4607.6553 (a.u.)^3
     number of atoms/cell      =           12
     number of atomic types    =            2
     number of electrons       =       162.00
     number of Kohn-Sham states=           97
     kinetic-energy cutoff     =      55.1240  Ry
     charge density cutoff     =     551.2396  Ry
     convergence threshold     =      1.0E-05
     mixing beta               =       0.1000
     number of iterations used =           10  plain     mixing
     Exchange-correlation= BEEF-VDW
                           (   1   4  43  14   2   0   0)

     celldm(1)=   1.889726  celldm(2)=   0.000000  celldm(3)=   0.000000
     celldm(4)=   0.000000  celldm(5)=   0.000000  celldm(6)=   0.000000

     crystal axes: (cart. coord. in units of alat)
               a(1) = (   5.570144   0.000000   0.000000 )  
               a(2) = (  -2.785072   4.979380   0.000000 )  
               a(3) = (   0.000000   0.000000  24.617377 )  

     reciprocal axes: (cart. coord. in units 2 pi/alat)
               b(1) = (  0.179529  0.100414 -0.000000 )  
               b(2) = (  0.000000  0.200828  0.000000 )  
               b(3) = (  0.000000 -0.000000  0.040622 )  


     PseudoPot. # 1 for Ru read from file:
     ../pseudo/Ru.pbe-spn-rrkjus_psl.1.0.0.UPF
     MD5 check sum: fbaca725316a1a65f98761fd4ac95971
     Pseudo is Ultrasoft + core correction, Zval = 16.0
     Generated using "atomic" code by A. Dal Corso v.6.2.2
     Using radial grid of 1233 points,  6 beta functions with: 
                l(1) =   0
                l(2) =   0
                l(3) =   1
                l(4) =   1
                l(5) =   2
                l(6) =   2
     Q(r) pseudized with 0 coefficients 


     PseudoPot. # 2 for Au read from file:
     ../pseudo/Au.pbe-n-rrkjus_psl.1.0.0.UPF
     MD5 check sum: d7e77ba19504afed2c9b41c931dde4f0
     Pseudo is Ultrasoft + core correction, Zval = 11.0
     Generated using "atomic" code by A. Dal Corso v.6.3
     Using radial grid of 1279 points,  6 beta functions with: 
                l(1) =   0
                l(2) =   0
                l(3) =   1
                l(4) =   1
                l(5) =   2
                l(6) =   2
     Q(r) pseudized with 0 coefficients 


     atomic species   valence    mass     pseudopotential
        Ru            16.00   101.07000     Ru( 1.00)
        Au            11.00   196.96657     Au( 1.00)

     No symmetry found



   Cartesian axes

     site n.     atom                  positions (alat units)
         1           Ru  tau(   1) = (   0.0000000   0.0000000  10.0000000  )
         2           Ru  tau(   2) = (   2.7850719   0.0000000  10.0000000  )
         3           Au  tau(   3) = (   1.3925359   2.4896899  10.0000000  )
         4           Au  tau(   4) = (  -1.3925359   2.4896899  10.0000000  )
         5           Ru  tau(   5) = (   2.7850719   1.5577493  12.3086885  )
         6           Ru  tau(   6) = (  -0.0000000   1.5577493  12.3086885  )
         7           Au  tau(   7) = (  -1.3925359   4.0474392  12.3086885  )
         8           Au  tau(   8) = (   1.3925359   4.0474392  12.3086885  )
         9           Ru  tau(   9) = (   0.0000374   0.7227463  14.4379532  )
        10           Ru  tau(  10) = (   2.7850716   0.7226225  14.4379986  )
        11           Au  tau(  11) = (   1.3925952   3.1501507  14.9887392  )
        12           Au  tau(  12) = (  -1.3925325   3.1501201  14.9887439  )

     number of k points=    74  Fermi-Dirac smearing, width (Ry)=  0.0100
                       cart. coord. in units 2pi/alat
        k(    1) = (   0.0000000   0.0000000   0.0000000), wk =   0.0138889
        k(    2) = (   0.0000000   0.0167357   0.0000000), wk =   0.0277778
        k(    3) = (   0.0000000   0.0334714   0.0000000), wk =   0.0277778
        k(    4) = (   0.0000000   0.0502071   0.0000000), wk =   0.0277778
        k(    5) = (   0.0000000   0.0669427   0.0000000), wk =   0.0277778
        k(    6) = (   0.0000000   0.0836784   0.0000000), wk =   0.0277778
        k(    7) = (   0.0000000  -0.1004141   0.0000000), wk =   0.0138889
        k(    8) = (   0.0149607   0.0083678   0.0000000), wk =   0.0277778
        k(    9) = (   0.0149607   0.0251035   0.0000000), wk =   0.0277778
        k(   10) = (   0.0149607   0.0418392   0.0000000), wk =   0.0277778
        k(   11) = (   0.0149607   0.0585749   0.0000000), wk =   0.0277778
        k(   12) = (   0.0149607   0.0753106   0.0000000), wk =   0.0277778
        k(   13) = (   0.0149607   0.0920463   0.0000000), wk =   0.0277778
        k(   14) = (   0.0149607  -0.0920463   0.0000000), wk =   0.0277778
        k(   15) = (   0.0149607  -0.0753106   0.0000000), wk =   0.0277778
        k(   16) = (   0.0149607  -0.0585749   0.0000000), wk =   0.0277778
        k(   17) = (   0.0149607  -0.0418392   0.0000000), wk =   0.0277778
        k(   18) = (   0.0149607  -0.0251035   0.0000000), wk =   0.0277778
        k(   19) = (   0.0149607  -0.0083678   0.0000000), wk =   0.0277778
        k(   20) = (   0.0299214   0.0167357   0.0000000), wk =   0.0277778
        k(   21) = (   0.0299214   0.0334714   0.0000000), wk =   0.0277778
        k(   22) = (   0.0299214   0.0502071   0.0000000), wk =   0.0277778
        k(   23) = (   0.0299214   0.0669427   0.0000000), wk =   0.0277778
        k(   24) = (   0.0299214   0.0836784   0.0000000), wk =   0.0277778
        k(   25) = (   0.0299214   0.1004141   0.0000000), wk =   0.0277778
        k(   26) = (   0.0299214  -0.0836784   0.0000000), wk =   0.0277778
        k(   27) = (   0.0299214  -0.0669427   0.0000000), wk =   0.0277778
        k(   28) = (   0.0299214  -0.0502071   0.0000000), wk =   0.0277778
        k(   29) = (   0.0299214  -0.0334714   0.0000000), wk =   0.0277778
        k(   30) = (   0.0299214  -0.0167357   0.0000000), wk =   0.0277778
        k(   31) = (   0.0299214  -0.0000000   0.0000000), wk =   0.0277778
        k(   32) = (   0.0448821   0.0251035   0.0000000), wk =   0.0277778
        k(   33) = (   0.0448821   0.0418392   0.0000000), wk =   0.0277778
        k(   34) = (   0.0448821   0.0585749   0.0000000), wk =   0.0277778
        k(   35) = (   0.0448821   0.0753106   0.0000000), wk =   0.0277778
        k(   36) = (   0.0448821   0.0920463   0.0000000), wk =   0.0277778
        k(   37) = (   0.0448821   0.1087820   0.0000000), wk =   0.0277778
        k(   38) = (   0.0448821  -0.0753106   0.0000000), wk =   0.0277778
        k(   39) = (   0.0448821  -0.0585749   0.0000000), wk =   0.0277778
        k(   40) = (   0.0448821  -0.0418392   0.0000000), wk =   0.0277778
        k(   41) = (   0.0448821  -0.0251035   0.0000000), wk =   0.0277778
        k(   42) = (   0.0448821  -0.0083678   0.0000000), wk =   0.0277778
        k(   43) = (   0.0448821   0.0083678   0.0000000), wk =   0.0277778
        k(   44) = (   0.0598429   0.0334714   0.0000000), wk =   0.0277778
        k(   45) = (   0.0598429   0.0502071   0.0000000), wk =   0.0277778
        k(   46) = (   0.0598429   0.0669427   0.0000000), wk =   0.0277778
        k(   47) = (   0.0598429   0.0836784   0.0000000), wk =   0.0277778
        k(   48) = (   0.0598429   0.1004141   0.0000000), wk =   0.0277778
        k(   49) = (   0.0598429   0.1171498   0.0000000), wk =   0.0277778
        k(   50) = (   0.0598429  -0.0669427   0.0000000), wk =   0.0277778
        k(   51) = (   0.0598429  -0.0502071   0.0000000), wk =   0.0277778
        k(   52) = (   0.0598429  -0.0334714   0.0000000), wk =   0.0277778
        k(   53) = (   0.0598429  -0.0167357   0.0000000), wk =   0.0277778
        k(   54) = (   0.0598429   0.0000000   0.0000000), wk =   0.0277778
        k(   55) = (   0.0598429   0.0167357   0.0000000), wk =   0.0277778
        k(   56) = (   0.0748036   0.0418392   0.0000000), wk =   0.0277778
        k(   57) = (   0.0748036   0.0585749   0.0000000), wk =   0.0277778
        k(   58) = (   0.0748036   0.0753106   0.0000000), wk =   0.0277778
        k(   59) = (   0.0748036   0.0920463   0.0000000), wk =   0.0277778
        k(   60) = (   0.0748036   0.1087820   0.0000000), wk =   0.0277778
        k(   61) = (   0.0748036   0.1255176   0.0000000), wk =   0.0277778
        k(   62) = (   0.0748036  -0.0585749   0.0000000), wk =   0.0277778
        k(   63) = (   0.0748036  -0.0418392   0.0000000), wk =   0.0277778
        k(   64) = (   0.0748036  -0.0251035   0.0000000), wk =   0.0277778
        k(   65) = (   0.0748036  -0.0083678   0.0000000), wk =   0.0277778
        k(   66) = (   0.0748036   0.0083678   0.0000000), wk =   0.0277778
        k(   67) = (   0.0748036   0.0251035   0.0000000), wk =   0.0277778
        k(   68) = (  -0.0897643  -0.0502071   0.0000000), wk =   0.0138889
        k(   69) = (  -0.0897643  -0.0334714   0.0000000), wk =   0.0277778
        k(   70) = (  -0.0897643  -0.0167357   0.0000000), wk =   0.0277778
        k(   71) = (  -0.0897643   0.0000000   0.0000000), wk =   0.0277778
        k(   72) = (  -0.0897643   0.0167357   0.0000000), wk =   0.0277778
        k(   73) = (  -0.0897643   0.0334714   0.0000000), wk =   0.0277778
        k(   74) = (  -0.0897643  -0.1506212   0.0000000), wk =   0.0138889

     Dense  grid:  1007187 G-vectors     FFT dimensions: (  80,  81, 360)

     Smooth grid:   254815 G-vectors     FFT dimensions: (  50,  54, 225)

     Estimated max dynamical RAM per process >     204.34 MB

     Estimated total dynamical RAM >       7.38 GB

     Initial potential from superposition of free atoms

     starting charge  161.99552, renormalised to  162.00000

     negative rho (up, down):  1.640E-03 0.000E+00


     %%%%%%%%%%%%%%%%%%%%%%%%%%%%%%%%%%%%%%%%%%%%%%%%%%%%%%%%%%%%%%%%%%%%%%%%
     %                                                                      %
     % You are using vdW-DF, which was implemented by the Thonhauser group. %
     % Please cite the following two papers that made this development      %
     % possible and the two reviews that describe the various versions:     %
     %                                                                      %
     %   T. Thonhauser et al., PRL 115, 136402 (2015).                      %
     %   T. Thonhauser et al., PRB 76, 125112 (2007).                       %
     %   K. Berland et al., Rep. Prog. Phys. 78, 066501 (2015).             %
     %   D.C. Langreth et al., J. Phys.: Condens. Matter 21, 084203 (2009). %
     %                                                                      %
     %                                                                      %
     % If you are calculating the stress with vdW-DF, please also cite:     %
     %                                                                      %
     %   R. Sabatini et al., J. Phys.: Condens. Matter 24, 424209 (2012).   %
     %                                                                      %
     %%%%%%%%%%%%%%%%%%%%%%%%%%%%%%%%%%%%%%%%%%%%%%%%%%%%%%%%%%%%%%%%%%%%%%%%



     Adding external electric field

     Computed dipole along edir(3) : 
        Dipole               -0.0004 Ry au,         -0.0010 Debye
        Dipole field         -0.0000 Ry au, 

        Potential amp.        0.0001 Ry
        Total length         45.3571 bohr

     Starting wfcs are  114 randomized atomic wfcs

     total cpu time spent up to now is       91.6 secs

     Self-consistent Calculation

     iteration #  1     ecut=    55.12 Ry     beta= 0.10
     Davidson diagonalization with overlap
     ethr =  1.00E-02,  avg # of iterations =  4.8

     negative rho (up, down):  1.512E-03 0.000E+00

     Adding external electric field

     Computed dipole along edir(3) : 
        Dipole                0.5892 Ry au,          1.4976 Debye
        Dipole field          0.0016 Ry au, 

        Potential amp.       -0.1458 Ry
        Total length         45.3571 bohr


     total cpu time spent up to now is      312.3 secs

     total energy              =   -1704.66929008 Ry
     estimated scf accuracy    <      19.25354660 Ry

     iteration #  2     ecut=    55.12 Ry     beta= 0.10
     Davidson diagonalization with overlap
     ethr =  1.00E-02,  avg # of iterations =  1.0

     negative rho (up, down):  1.459E-03 0.000E+00

     Adding external electric field

     Computed dipole along edir(3) : 
        Dipole               -1.0957 Ry au,         -2.7850 Debye
        Dipole field         -0.0030 Ry au, 

        Potential amp.        0.2711 Ry
        Total length         45.3571 bohr


     total cpu time spent up to now is      480.4 secs

     total energy              =   -1705.98350965 Ry
     estimated scf accuracy    <       7.68692921 Ry

     iteration #  3     ecut=    55.12 Ry     beta= 0.10
     Davidson diagonalization with overlap
     ethr =  4.75E-03,  avg # of iterations =  2.0

     negative rho (up, down):  1.441E-03 0.000E+00

     Adding external electric field

     Computed dipole along edir(3) : 
        Dipole                0.1344 Ry au,          0.3415 Debye
        Dipole field          0.0004 Ry au, 

        Potential amp.       -0.0332 Ry
        Total length         45.3571 bohr


     total cpu time spent up to now is      675.9 secs

     total energy              =   -1705.79141275 Ry
     estimated scf accuracy    <      80.10781831 Ry

     iteration #  4     ecut=    55.12 Ry     beta= 0.10
     Davidson diagonalization with overlap
     ethr =  4.75E-03,  avg # of iterations =  1.0

     negative rho (up, down):  1.444E-03 0.000E+00

     Adding external electric field

     Computed dipole along edir(3) : 
        Dipole                0.0889 Ry au,          0.2260 Debye
        Dipole field          0.0002 Ry au, 

        Potential amp.       -0.0220 Ry
        Total length         45.3571 bohr


     total cpu time spent up to now is      843.7 secs

     total energy              =   -1706.86195879 Ry
     estimated scf accuracy    <       0.20903264 Ry

     iteration #  5     ecut=    55.12 Ry     beta= 0.10
     Davidson diagonalization with overlap
     c_bands:  1 eigenvalues not converged
     c_bands:  1 eigenvalues not converged
     c_bands:  1 eigenvalues not converged
     ethr =  1.29E-04,  avg # of iterations =  8.1

     negative rho (up, down):  1.455E-03 0.000E+00

     Adding external electric field

     Computed dipole along edir(3) : 
        Dipole                0.0516 Ry au,          0.1312 Debye
        Dipole field          0.0001 Ry au, 

        Potential amp.       -0.0128 Ry
        Total length         45.3571 bohr


     total cpu time spent up to now is     1079.0 secs

     total energy              =   -1706.86755355 Ry
     estimated scf accuracy    <       0.29019264 Ry

     iteration #  6     ecut=    55.12 Ry     beta= 0.10
     Davidson diagonalization with overlap
     ethr =  1.29E-04,  avg # of iterations =  1.1

     negative rho (up, down):  1.467E-03 0.000E+00

     Adding external electric field

     Computed dipole along edir(3) : 
        Dipole               -0.0186 Ry au,         -0.0474 Debye
        Dipole field         -0.0001 Ry au, 

        Potential amp.        0.0046 Ry
        Total length         45.3571 bohr


     total cpu time spent up to now is     1248.8 secs

     total energy              =   -1706.86074750 Ry
     estimated scf accuracy    <       0.77157045 Ry

     iteration #  7     ecut=    55.12 Ry     beta= 0.10
     Davidson diagonalization with overlap
     ethr =  1.29E-04,  avg # of iterations =  1.0

     negative rho (up, down):  1.578E-03 0.000E+00

     Adding external electric field

     Computed dipole along edir(3) : 
        Dipole                0.0006 Ry au,          0.0015 Debye
        Dipole field          0.0000 Ry au, 

        Potential amp.       -0.0001 Ry
        Total length         45.3571 bohr


     total cpu time spent up to now is     1412.4 secs

     total energy              =   -1706.86220775 Ry
     estimated scf accuracy    <       0.15290406 Ry

     iteration #  8     ecut=    55.12 Ry     beta= 0.10
     Davidson diagonalization with overlap
     ethr =  9.44E-05,  avg # of iterations =  1.0

     negative rho (up, down):  1.624E-03 0.000E+00

     Adding external electric field

     Computed dipole along edir(3) : 
        Dipole               -0.0123 Ry au,         -0.0313 Debye
        Dipole field         -0.0000 Ry au, 

        Potential amp.        0.0030 Ry
        Total length         45.3571 bohr


     total cpu time spent up to now is     1573.7 secs

     total energy              =   -1706.86618513 Ry
     estimated scf accuracy    <       0.05421471 Ry

     iteration #  9     ecut=    55.12 Ry     beta= 0.10
     Davidson diagonalization with overlap
     c_bands:  1 eigenvalues not converged
     ethr =  3.35E-05,  avg # of iterations =  1.8

     negative rho (up, down):  1.701E-03 0.000E+00

     Adding external electric field

     Computed dipole along edir(3) : 
        Dipole               -0.0066 Ry au,         -0.0169 Debye
        Dipole field         -0.0000 Ry au, 

        Potential amp.        0.0016 Ry
        Total length         45.3571 bohr


     total cpu time spent up to now is     1749.1 secs

     total energy              =   -1706.86848717 Ry
     estimated scf accuracy    <       0.05192548 Ry

     iteration # 10     ecut=    55.12 Ry     beta= 0.10
     Davidson diagonalization with overlap
     ethr =  3.21E-05,  avg # of iterations =  1.0

     negative rho (up, down):  1.694E-03 0.000E+00

     Adding external electric field

     Computed dipole along edir(3) : 
        Dipole               -0.0093 Ry au,         -0.0236 Debye
        Dipole field         -0.0000 Ry au, 

        Potential amp.        0.0023 Ry
        Total length         45.3571 bohr


     total cpu time spent up to now is     1912.4 secs

     total energy              =   -1706.86933029 Ry
     estimated scf accuracy    <       0.00465600 Ry

     iteration # 11     ecut=    55.12 Ry     beta= 0.10
     Davidson diagonalization with overlap
     c_bands:  1 eigenvalues not converged
     c_bands:  1 eigenvalues not converged
     c_bands:  1 eigenvalues not converged
     ethr =  2.87E-06,  avg # of iterations =  8.8

     negative rho (up, down):  1.683E-03 0.000E+00

     Adding external electric field

     Computed dipole along edir(3) : 
        Dipole               -0.0128 Ry au,         -0.0324 Debye
        Dipole field         -0.0000 Ry au, 

        Potential amp.        0.0032 Ry
        Total length         45.3571 bohr


     total cpu time spent up to now is     2143.5 secs

     total energy              =   -1706.86960214 Ry
     estimated scf accuracy    <       0.00178597 Ry

     iteration # 12     ecut=    55.12 Ry     beta= 0.10
     Davidson diagonalization with overlap
     ethr =  1.10E-06,  avg # of iterations =  2.9

     negative rho (up, down):  1.668E-03 0.000E+00

     Adding external electric field

     Computed dipole along edir(3) : 
        Dipole               -0.0158 Ry au,         -0.0402 Debye
        Dipole field         -0.0000 Ry au, 

        Potential amp.        0.0039 Ry
        Total length         45.3571 bohr


     total cpu time spent up to now is     2346.7 secs

     total energy              =   -1706.86970405 Ry
     estimated scf accuracy    <       0.00049505 Ry

     iteration # 13     ecut=    55.12 Ry     beta= 0.10
     Davidson diagonalization with overlap
     ethr =  3.06E-07,  avg # of iterations =  4.1

     negative rho (up, down):  1.650E-03 0.000E+00

     Adding external electric field

     Computed dipole along edir(3) : 
        Dipole               -0.0148 Ry au,         -0.0377 Debye
        Dipole field         -0.0000 Ry au, 

        Potential amp.        0.0037 Ry
        Total length         45.3571 bohr


     total cpu time spent up to now is     2561.0 secs

     total energy              =   -1706.86976672 Ry
     estimated scf accuracy    <       0.00016818 Ry

     iteration # 14     ecut=    55.12 Ry     beta= 0.10
     Davidson diagonalization with overlap
     ethr =  1.04E-07,  avg # of iterations =  3.1

     negative rho (up, down):  1.627E-03 0.000E+00

     Adding external electric field

     Computed dipole along edir(3) : 
        Dipole               -0.0141 Ry au,         -0.0358 Debye
        Dipole field         -0.0000 Ry au, 

        Potential amp.        0.0035 Ry
        Total length         45.3571 bohr


     total cpu time spent up to now is     2778.4 secs

     total energy              =   -1706.86978370 Ry
     estimated scf accuracy    <       0.00011552 Ry

     iteration # 15     ecut=    55.12 Ry     beta= 0.10
     Davidson diagonalization with overlap
     ethr =  7.13E-08,  avg # of iterations =  1.2

     negative rho (up, down):  1.607E-03 0.000E+00

     Adding external electric field

     Computed dipole along edir(3) : 
        Dipole               -0.0137 Ry au,         -0.0349 Debye
        Dipole field         -0.0000 Ry au, 

        Potential amp.        0.0034 Ry
        Total length         45.3571 bohr


     total cpu time spent up to now is     2947.5 secs

     total energy              =   -1706.86978814 Ry
     estimated scf accuracy    <       0.00002852 Ry

     iteration # 16     ecut=    55.12 Ry     beta= 0.10
     Davidson diagonalization with overlap
     ethr =  1.76E-08,  avg # of iterations =  3.6

     negative rho (up, down):  1.588E-03 0.000E+00

     Adding external electric field

     Computed dipole along edir(3) : 
        Dipole               -0.0130 Ry au,         -0.0329 Debye
        Dipole field         -0.0000 Ry au, 

        Potential amp.        0.0032 Ry
        Total length         45.3571 bohr


     total cpu time spent up to now is     3194.6 secs

     total energy              =   -1706.86979048 Ry
     estimated scf accuracy    <       0.00001780 Ry

     iteration # 17     ecut=    55.12 Ry     beta= 0.10
     Davidson diagonalization with overlap
     ethr =  1.10E-08,  avg # of iterations =  2.0

     negative rho (up, down):  1.507E-03 0.000E+00

     Adding external electric field

     Computed dipole along edir(3) : 
        Dipole               -0.0181 Ry au,         -0.0461 Debye
        Dipole field         -0.0000 Ry au, 

        Potential amp.        0.0045 Ry
        Total length         45.3571 bohr


     total cpu time spent up to now is     3407.6 secs

     End of self-consistent calculation

          k = 0.0000 0.0000 0.0000 ( 31891 PWs)   bands (ev):

   -71.7880 -71.7525 -71.4787 -71.4438 -71.1389 -71.1029 -42.4262 -42.3834
   -41.7380 -41.6542 -41.6157 -41.5169 -41.3629 -41.3605 -41.3413 -41.3042
   -41.2811 -41.2499 -41.1565 -41.0772 -41.0398 -41.0199 -40.9903 -40.9823
    -6.6175  -5.3726  -5.0448  -5.0090  -4.7648  -4.7267  -4.6929  -4.4779
    -4.4074  -4.3986  -4.2836  -4.1885  -3.8793  -3.8191  -3.5503  -3.4860
    -3.4417  -3.1586  -2.9886  -2.8330  -2.7241  -2.7094  -2.5102  -2.2938
    -2.2735  -2.1544  -2.0528  -1.9136  -1.6739  -1.6614  -1.5269  -1.4503
    -1.3939  -1.3001  -1.2356  -1.1649  -0.9886  -0.9660  -0.9333  -0.7161
    -0.4979  -0.0142   0.0402   0.1359   0.1747   0.1791   0.5192   0.7810
     0.7844   0.8147   0.9135   1.1378   1.3064   1.3817   1.6031   1.7003
     1.7688   1.8268   1.9049   1.9426   2.0113   2.0155   2.2196   2.3035
     2.6556   2.8173   3.2552   3.7771   3.7863   3.9158   4.2993   4.9435
     5.3347

          k = 0.0000 0.0167 0.0000 ( 31885 PWs)   bands (ev):

   -71.7880 -71.7524 -71.4787 -71.4438 -71.1389 -71.1029 -42.4262 -42.3834
   -41.7380 -41.6544 -41.6158 -41.5169 -41.3629 -41.3606 -41.3414 -41.3042
   -41.2811 -41.2499 -41.1565 -41.0773 -41.0399 -41.0199 -40.9903 -40.9823
    -6.5713  -5.3444  -5.0138  -4.9845  -4.7407  -4.6894  -4.6710  -4.4580
    -4.3889  -4.3751  -4.2534  -4.1585  -3.8620  -3.7965  -3.5345  -3.4814
    -3.4328  -3.1127  -2.9966  -2.8120  -2.7308  -2.7189  -2.4891  -2.3087
    -2.2617  -2.1849  -2.0405  -1.9516  -1.6643  -1.6578  -1.6015  -1.4737
    -1.3965  -1.2532  -1.2385  -1.1794  -1.0044  -0.9906  -0.9600  -0.7506
    -0.5332  -0.0732   0.0335   0.0978   0.1120   0.1446   0.4070   0.7201
     0.7312   0.7744   0.8545   1.1862   1.1947   1.3413   1.4766   1.6323
     1.6890   1.7575   1.8079   1.9739   2.0177   2.1297   2.2209   2.4106
     2.4854   2.6886   3.2158   3.3489   3.9131   3.9346   4.7095   5.0812
     5.3751

          k = 0.0000 0.0335 0.0000 ( 31868 PWs)   bands (ev):

   -71.7880 -71.7524 -71.4787 -71.4438 -71.1389 -71.1029 -42.4262 -42.3834
   -41.7382 -41.6548 -41.6159 -41.5170 -41.3630 -41.3608 -41.3415 -41.3043
   -41.2811 -41.2499 -41.1566 -41.0777 -41.0400 -41.0199 -40.9904 -40.9823
    -6.4383  -5.2695  -4.9268  -4.9164  -4.6697  -4.6097  -4.5820  -4.4024
    -4.3336  -4.3054  -4.1731  -4.0654  -3.8110  -3.7254  -3.4924  -3.4664
    -3.3928  -3.0057  -3.0018  -2.7737  -2.7472  -2.7451  -2.4298  -2.3528
    -2.2676  -2.2302  -2.0532  -2.0037  -1.7307  -1.6733  -1.6133  -1.5407
    -1.4035  -1.2698  -1.2129  -1.2059  -1.1086  -1.0367  -0.9962  -0.8418
    -0.6325  -0.2144  -0.1418  -0.0629   0.0147   0.0982   0.1786   0.5051
     0.5719   0.6294   0.7665   0.9078   1.2310   1.2409   1.3429   1.3781
     1.6408   1.6736   1.7367   1.7429   1.8670   1.9468   2.2227   2.4407
     2.4876   2.7405   2.7683   3.5894   3.8214   4.2748   4.6978   5.4777
     5.4915

          k = 0.0000 0.0502 0.0000 ( 31842 PWs)   bands (ev):

   -71.7879 -71.7524 -71.4787 -71.4438 -71.1388 -71.1029 -42.4263 -42.3835
   -41.7384 -41.6553 -41.6162 -41.5171 -41.3630 -41.3610 -41.3418 -41.3044
   -41.2812 -41.2499 -41.1566 -41.0782 -41.0403 -41.0199 -40.9904 -40.9823
    -6.2373  -5.1745  -4.8169  -4.8033  -4.5626  -4.5176  -4.4186  -4.3241
    -4.2401  -4.1971  -4.0643  -3.9089  -3.7300  -3.6007  -3.4387  -3.4380
    -3.3115  -3.0036  -2.9247  -2.7929  -2.7640  -2.7137  -2.4018  -2.3662
    -2.3454  -2.1920  -2.1872  -1.9458  -1.8544  -1.6904  -1.6548  -1.5527
    -1.4099  -1.3625  -1.2827  -1.2508  -1.2361  -1.1475  -1.0049  -0.9310
    -0.7709  -0.4863  -0.4593  -0.2850  -0.0776  -0.0133   0.0048   0.2607
     0.3427   0.3451   0.5675   0.7377   0.7763   1.0782   1.1822   1.1840
     1.5475   1.5722   1.6955   1.7042   1.7569   1.9254   1.9638   2.2250
     2.3667   2.8641   3.2922   3.7034   3.9106   4.2855   4.6034   5.6618
     5.6659

          k = 0.0000 0.0669 0.0000 ( 31866 PWs)   bands (ev):

   -71.7879 -71.7524 -71.4787 -71.4438 -71.1388 -71.1029 -42.4264 -42.3835
   -41.7387 -41.6559 -41.6164 -41.5172 -41.3631 -41.3612 -41.3420 -41.3045
   -41.2812 -41.2499 -41.1566 -41.0787 -41.0405 -41.0200 -40.9904 -40.9823
    -6.0066  -5.0915  -4.6996  -4.6794  -4.4592  -4.4037  -4.2316  -4.2296
    -4.1114  -4.0738  -3.9400  -3.7083  -3.6262  -3.4669  -3.3938  -3.3680
    -3.2518  -2.9951  -2.9196  -2.8509  -2.8115  -2.6465  -2.4436  -2.3545
    -2.3186  -2.2607  -2.1378  -1.9756  -1.8808  -1.8301  -1.7204  -1.5221
    -1.5018  -1.4791  -1.4008  -1.3991  -1.3519  -1.2057  -1.0158  -0.9871
    -0.8767  -0.8190  -0.7648  -0.4672  -0.3064  -0.1676  -0.0448   0.0199
     0.0734   0.1387   0.2575   0.2819   0.7331   0.8136   0.9206   1.0667
     1.4285   1.5011   1.5894   1.7165   1.7310   1.9219   2.0432   2.2282
     2.3169   2.9171   3.6169   3.7834   3.9328   4.1924   4.8365   5.6098
     5.8537

          k = 0.0000 0.0837 0.0000 ( 31906 PWs)   bands (ev):

   -71.7879 -71.7524 -71.4787 -71.4438 -71.1388 -71.1029 -42.4265 -42.3836
   -41.7389 -41.6563 -41.6166 -41.5173 -41.3631 -41.3614 -41.3422 -41.3047
   -41.2813 -41.2499 -41.1566 -41.0790 -41.0407 -41.0200 -40.9905 -40.9824
    -5.8114  -5.0410  -4.5933  -4.5833  -4.4170  -4.2945  -4.1255  -4.0752
    -3.9741  -3.9712  -3.7903  -3.5212  -3.5189  -3.4783  -3.3754  -3.3412
    -3.2149  -3.0064  -2.9084  -2.8238  -2.8083  -2.6225  -2.5547  -2.3261
    -2.2753  -2.2056  -2.0872  -2.0573  -2.0271  -1.8314  -1.7604  -1.6939
    -1.6902  -1.5224  -1.4932  -1.4834  -1.3685  -1.2318  -1.1461  -1.0354
    -1.0267  -0.9439  -0.8885  -0.5816  -0.4664  -0.3715  -0.2607  -0.1650
    -0.0705  -0.0360   0.0824   0.1231   0.5565   0.7341   0.8012   0.9993
     1.3255   1.4572   1.5116   1.6827   1.7233   1.9237   2.2310   2.3007
     2.3121   2.9412   3.4512   3.5683   4.3706   4.5025   4.9677   5.5610
     5.9925

          k = 0.0000-0.1004 0.0000 ( 31890 PWs)   bands (ev):

   -71.7879 -71.7524 -71.4787 -71.4438 -71.1388 -71.1029 -42.4265 -42.3836
   -41.7389 -41.6565 -41.6167 -41.5174 -41.3631 -41.3614 -41.3423 -41.3047
   -41.2813 -41.2499 -41.1566 -41.0791 -41.0408 -41.0200 -40.9905 -40.9824
    -5.7326  -5.0254  -4.5634  -4.5177  -4.4266  -4.2469  -4.0704  -4.0199
    -3.9354  -3.8863  -3.6349  -3.5589  -3.5375  -3.4612  -3.3805  -3.3602
    -3.1672  -3.0050  -2.9358  -2.7860  -2.7545  -2.5846  -2.5644  -2.3277
    -2.3018  -2.2066  -2.1884  -2.0633  -1.9736  -1.8138  -1.7819  -1.7723
    -1.7715  -1.5737  -1.5600  -1.4803  -1.3504  -1.2894  -1.2434  -1.1042
    -1.0318  -0.9731  -0.8621  -0.6228  -0.5264  -0.4474  -0.4185  -0.2561
    -0.1038  -0.0807   0.0701   0.0723   0.4713   0.7347   0.7566   0.9762
     1.2849   1.4423   1.4845   1.6756   1.7210   1.9249   2.2322   2.2973
     2.4558   2.9485   3.2798   3.5529   4.4302   4.9705   5.0096   5.3749
     5.5439

          k = 0.0150 0.0084 0.0000 ( 31893 PWs)   bands (ev):

   -71.7874 -71.7531 -71.4781 -71.4444 -71.1383 -71.1035 -42.4254 -42.3842
   -41.7317 -41.6536 -41.6165 -41.5109 -41.3695 -41.3544 -41.3407 -41.3049
   -41.2805 -41.2504 -41.1628 -41.0766 -41.0405 -41.0193 -40.9968 -40.9829
    -6.5596  -5.3146  -5.0151  -4.9590  -4.7248  -4.7080  -4.6616  -4.4446
    -4.3882  -4.3713  -4.2662  -4.1708  -3.8520  -3.7859  -3.5277  -3.4695
    -3.4281  -3.1422  -2.9857  -2.8315  -2.7346  -2.6867  -2.5372  -2.3298
    -2.3065  -2.1539  -2.0859  -1.9035  -1.7072  -1.6747  -1.5616  -1.4375
    -1.4258  -1.2955  -1.2140  -1.1270  -1.0242  -0.9626  -0.9263  -0.7525
    -0.5153  -0.1641  -0.0404   0.0816   0.1657   0.1716   0.3753   0.7233
     0.7507   0.7995   0.9077   1.1178   1.2298   1.2699   1.4777   1.6557
     1.7348   1.7488   1.8228   1.8727   1.9683   2.1383   2.2655   2.2661
     2.6123   2.8330   3.1025   3.4775   3.7219   3.9575   4.5763   5.1076
     5.2109

          k = 0.0150 0.0251 0.0000 ( 31869 PWs)   bands (ev):

   -71.7874 -71.7531 -71.4781 -71.4444 -71.1383 -71.1035 -42.4255 -42.3842
   -41.7318 -41.6539 -41.6165 -41.5109 -41.3695 -41.3545 -41.3408 -41.3049
   -41.2806 -41.2504 -41.1628 -41.0769 -41.0406 -41.0193 -40.9968 -40.9829
    -6.4689  -5.2605  -4.9572  -4.9116  -4.6774  -4.6492  -4.6056  -4.4091
    -4.3499  -4.3270  -4.2071  -4.1123  -3.8163  -3.7421  -3.4973  -3.4612
    -3.4080  -3.0583  -2.9978  -2.7978  -2.7481  -2.7041  -2.5025  -2.3359
    -2.3251  -2.1984  -2.0620  -1.9670  -1.7047  -1.6875  -1.6513  -1.4772
    -1.4358  -1.2383  -1.2197  -1.1489  -1.0396  -1.0327  -0.9747  -0.8120
    -0.5777  -0.2722  -0.0721  -0.0612   0.0779   0.1301   0.2432   0.6259
     0.6273   0.6527   0.8205   1.0569   1.1114   1.2224   1.3418   1.4579
     1.6453   1.7041   1.7350   1.7990   1.9249   2.1440   2.2508   2.3033
     2.6167   2.6594   3.0279   3.2999   3.5768   4.3555   4.8800   5.0626
     5.4150

          k = 0.0150 0.0418 0.0000 ( 31857 PWs)   bands (ev):

   -71.7873 -71.7530 -71.4781 -71.4444 -71.1382 -71.1035 -42.4256 -42.3842
   -41.7321 -41.6544 -41.6167 -41.5110 -41.3695 -41.3547 -41.3410 -41.3050
   -41.2806 -41.2504 -41.1628 -41.0773 -41.0408 -41.0193 -40.9968 -40.9830
    -6.2989  -5.1711  -4.8515  -4.8266  -4.5859  -4.5613  -4.4824  -4.3462
    -4.2734  -4.2381  -4.1120  -3.9895  -3.7479  -3.6496  -3.4468  -3.4422
    -3.3496  -3.0028  -2.9498  -2.7714  -2.7585  -2.7317  -2.4484  -2.3876
    -2.3537  -2.2285  -2.0907  -2.0042  -1.8174  -1.6802  -1.6613  -1.5489
    -1.4555  -1.2646  -1.2396  -1.1747  -1.1694  -1.0735  -1.0370  -0.9044
    -0.6896  -0.4853  -0.3230  -0.1865  -0.0284   0.0022   0.0688   0.3957
     0.4242   0.4484   0.6524   0.7940   0.8623   1.1200   1.2358   1.2928
     1.5939   1.6054   1.7106   1.7347   1.8428   1.8972   2.1544   2.1786
     2.3973   2.7476   3.1030   3.2877   3.9783   4.5830   4.7890   5.0441
     5.7616

          k = 0.0150 0.0586 0.0000 ( 31845 PWs)   bands (ev):

   -71.7873 -71.7530 -71.4781 -71.4444 -71.1382 -71.1035 -42.4257 -42.3842
   -41.7323 -41.6550 -41.6169 -41.5112 -41.3696 -41.3549 -41.3413 -41.3051
   -41.2807 -41.2504 -41.1629 -41.0778 -41.0410 -41.0193 -40.9969 -40.9830
    -6.0764  -5.0779  -4.7231  -4.7175  -4.4728  -4.4538  -4.3149  -4.2649
    -4.1620  -4.1161  -3.9992  -3.8126  -3.6524  -3.5145  -3.4045  -3.3946
    -3.2683  -2.9968  -2.9290  -2.7974  -2.7968  -2.6750  -2.4395  -2.4043
    -2.3746  -2.2324  -2.1868  -1.9562  -1.9356  -1.7282  -1.7083  -1.5800
    -1.4845  -1.3831  -1.3618  -1.3240  -1.2255  -1.1496  -1.0520  -0.9686
    -0.8044  -0.7799  -0.6244  -0.3627  -0.2406  -0.0941  -0.0697   0.1615
     0.1702   0.2071   0.3485   0.4782   0.7415   0.8712   1.1017   1.1113
     1.5124   1.5194   1.6106   1.6884   1.8411   1.8880   1.9951   2.1455
     2.2483   2.8005   3.2644   3.6491   4.1147   4.3256   4.8723   5.2779
     6.2228

          k = 0.0150 0.0753 0.0000 ( 31866 PWs)   bands (ev):

   -71.7873 -71.7530 -71.4781 -71.4444 -71.1382 -71.1035 -42.4257 -42.3843
   -41.7325 -41.6555 -41.6171 -41.5113 -41.3696 -41.3551 -41.3415 -41.3052
   -41.2807 -41.2504 -41.1629 -41.0782 -41.0413 -41.0193 -40.9969 -40.9830
    -5.8524  -5.0095  -4.6127  -4.5986  -4.3971  -4.3333  -4.1614  -4.1531
    -4.0267  -3.9956  -3.8651  -3.6218  -3.5377  -3.4574  -3.3638  -3.2844
    -3.2827  -2.9975  -2.8871  -2.8459  -2.8407  -2.6443  -2.5139  -2.3710
    -2.3104  -2.2549  -2.1881  -2.0398  -1.9401  -1.8920  -1.7563  -1.5989
    -1.5876  -1.5172  -1.4791  -1.4413  -1.3473  -1.1722  -1.0583  -1.0450
    -1.0224  -0.8971  -0.8548  -0.4975  -0.4517  -0.2775  -0.1812  -0.0890
    -0.0249   0.0686   0.1485   0.1623   0.6457   0.7309   0.8913   1.0221
     1.3766   1.4677   1.5486   1.6578   1.7324   1.8870   2.1375   2.1831
     2.2805   2.8315   3.2493   3.6652   4.2581   4.5550   4.8371   5.4709
     6.1146

          k = 0.0150 0.0920 0.0000 ( 31878 PWs)   bands (ev):

   -71.7873 -71.7530 -71.4781 -71.4444 -71.1382 -71.1035 -42.4258 -42.3843
   -41.7326 -41.6557 -41.6173 -41.5113 -41.3696 -41.3552 -41.3416 -41.3053
   -41.2808 -41.2505 -41.1629 -41.0784 -41.0414 -41.0193 -40.9969 -40.9830
    -5.7043  -4.9773  -4.5523  -4.4949  -4.3949  -4.2423  -4.0679  -4.0585
    -3.9220  -3.8948  -3.6933  -3.5322  -3.5248  -3.4445  -3.3985  -3.3408
    -3.1851  -3.0067  -2.9130  -2.7820  -2.7815  -2.5966  -2.5956  -2.3347
    -2.3267  -2.2651  -2.2028  -2.1095  -2.0232  -1.8790  -1.7930  -1.7258
    -1.6754  -1.5927  -1.5436  -1.4477  -1.4221  -1.2342  -1.1804  -1.1410
    -1.0669  -0.9747  -0.8478  -0.5647  -0.5636  -0.4384  -0.3202  -0.2382
    -0.1275   0.0132   0.0239   0.0900   0.5193   0.7273   0.7709   0.9825
     1.2938   1.4404   1.4917   1.6405   1.7104   1.8879   2.1373   2.2161
     2.4763   2.8464   3.2420   3.3647   4.6811   4.7987   4.8425   5.5520
     5.6042

          k = 0.0150-0.0920 0.0000 ( 31878 PWs)   bands (ev):

   -71.7873 -71.7530 -71.4781 -71.4444 -71.1382 -71.1035 -42.4258 -42.3843
   -41.7326 -41.6557 -41.6173 -41.5113 -41.3696 -41.3552 -41.3416 -41.3053
   -41.2808 -41.2505 -41.1629 -41.0784 -41.0414 -41.0193 -40.9969 -40.9830
    -5.7043  -4.9773  -4.5523  -4.4949  -4.3949  -4.2423  -4.0679  -4.0585
    -3.9220  -3.8948  -3.6933  -3.5322  -3.5248  -3.4445  -3.3985  -3.3408
    -3.1851  -3.0067  -2.9130  -2.7820  -2.7815  -2.5966  -2.5956  -2.3347
    -2.3267  -2.2651  -2.2028  -2.1095  -2.0232  -1.8790  -1.7930  -1.7258
    -1.6754  -1.5927  -1.5436  -1.4477  -1.4221  -1.2342  -1.1804  -1.1410
    -1.0669  -0.9747  -0.8478  -0.5647  -0.5636  -0.4384  -0.3202  -0.2382
    -0.1275   0.0132   0.0239   0.0900   0.5193   0.7273   0.7709   0.9825
     1.2938   1.4404   1.4917   1.6405   1.7104   1.8879   2.1373   2.2161
     2.4763   2.8464   3.2420   3.3647   4.6811   4.7987   4.8425   5.5521
     5.6042

          k = 0.0150-0.0753 0.0000 ( 31866 PWs)   bands (ev):

   -71.7873 -71.7530 -71.4781 -71.4444 -71.1382 -71.1035 -42.4257 -42.3843
   -41.7325 -41.6555 -41.6171 -41.5113 -41.3696 -41.3551 -41.3415 -41.3052
   -41.2807 -41.2504 -41.1629 -41.0782 -41.0413 -41.0193 -40.9969 -40.9830
    -5.8524  -5.0095  -4.6127  -4.5986  -4.3971  -4.3333  -4.1614  -4.1531
    -4.0267  -3.9956  -3.8651  -3.6218  -3.5377  -3.4574  -3.3638  -3.2844
    -3.2827  -2.9975  -2.8870  -2.8459  -2.8407  -2.6443  -2.5139  -2.3710
    -2.3104  -2.2549  -2.1881  -2.0398  -1.9401  -1.8920  -1.7563  -1.5989
    -1.5876  -1.5172  -1.4791  -1.4413  -1.3473  -1.1722  -1.0583  -1.0450
    -1.0224  -0.8971  -0.8548  -0.4974  -0.4517  -0.2775  -0.1812  -0.0890
    -0.0249   0.0686   0.1485   0.1623   0.6458   0.7309   0.8913   1.0221
     1.3766   1.4677   1.5486   1.6578   1.7324   1.8870   2.1375   2.1831
     2.2805   2.8315   3.2493   3.6652   4.2581   4.5550   4.8371   5.4709
     6.1143

          k = 0.0150-0.0586 0.0000 ( 31845 PWs)   bands (ev):

   -71.7873 -71.7530 -71.4781 -71.4444 -71.1382 -71.1035 -42.4257 -42.3842
   -41.7323 -41.6550 -41.6169 -41.5112 -41.3696 -41.3549 -41.3413 -41.3051
   -41.2807 -41.2504 -41.1629 -41.0778 -41.0410 -41.0193 -40.9969 -40.9830
    -6.0764  -5.0779  -4.7231  -4.7175  -4.4728  -4.4538  -4.3149  -4.2649
    -4.1620  -4.1161  -3.9992  -3.8126  -3.6524  -3.5145  -3.4045  -3.3946
    -3.2683  -2.9968  -2.9290  -2.7974  -2.7968  -2.6750  -2.4395  -2.4043
    -2.3746  -2.2324  -2.1868  -1.9562  -1.9356  -1.7282  -1.7083  -1.5800
    -1.4845  -1.3831  -1.3618  -1.3240  -1.2255  -1.1496  -1.0520  -0.9686
    -0.8044  -0.7799  -0.6244  -0.3627  -0.2406  -0.0941  -0.0697   0.1616
     0.1702   0.2071   0.3485   0.4782   0.7415   0.8712   1.1017   1.1113
     1.5124   1.5194   1.6106   1.6884   1.8411   1.8880   1.9951   2.1455
     2.2483   2.8005   3.2644   3.6491   4.1147   4.3256   4.8723   5.2779
     6.2235

          k = 0.0150-0.0418 0.0000 ( 31857 PWs)   bands (ev):

   -71.7873 -71.7530 -71.4781 -71.4444 -71.1382 -71.1035 -42.4256 -42.3842
   -41.7321 -41.6544 -41.6167 -41.5110 -41.3695 -41.3547 -41.3410 -41.3050
   -41.2806 -41.2504 -41.1628 -41.0773 -41.0408 -41.0193 -40.9968 -40.9830
    -6.2989  -5.1711  -4.8515  -4.8266  -4.5859  -4.5613  -4.4824  -4.3462
    -4.2734  -4.2381  -4.1120  -3.9895  -3.7479  -3.6496  -3.4468  -3.4422
    -3.3496  -3.0028  -2.9498  -2.7714  -2.7585  -2.7317  -2.4484  -2.3876
    -2.3537  -2.2285  -2.0907  -2.0042  -1.8174  -1.6802  -1.6613  -1.5489
    -1.4555  -1.2646  -1.2396  -1.1747  -1.1694  -1.0735  -1.0370  -0.9044
    -0.6896  -0.4853  -0.3230  -0.1865  -0.0284   0.0022   0.0688   0.3957
     0.4242   0.4484   0.6524   0.7940   0.8623   1.1200   1.2358   1.2928
     1.5939   1.6054   1.7106   1.7347   1.8428   1.8972   2.1544   2.1786
     2.3973   2.7476   3.1030   3.2877   3.9783   4.5831   4.7890   5.0441
     5.7616

          k = 0.0150-0.0251 0.0000 ( 31869 PWs)   bands (ev):

   -71.7874 -71.7531 -71.4781 -71.4444 -71.1383 -71.1035 -42.4255 -42.3842
   -41.7318 -41.6539 -41.6165 -41.5109 -41.3695 -41.3545 -41.3408 -41.3049
   -41.2806 -41.2504 -41.1628 -41.0769 -41.0406 -41.0193 -40.9968 -40.9829
    -6.4689  -5.2605  -4.9572  -4.9116  -4.6774  -4.6492  -4.6056  -4.4091
    -4.3499  -4.3270  -4.2071  -4.1123  -3.8163  -3.7421  -3.4973  -3.4612
    -3.4080  -3.0583  -2.9978  -2.7978  -2.7481  -2.7041  -2.5025  -2.3359
    -2.3251  -2.1984  -2.0620  -1.9670  -1.7047  -1.6875  -1.6513  -1.4772
    -1.4358  -1.2383  -1.2197  -1.1489  -1.0396  -1.0327  -0.9747  -0.8120
    -0.5777  -0.2722  -0.0721  -0.0612   0.0779   0.1301   0.2432   0.6259
     0.6273   0.6527   0.8205   1.0569   1.1114   1.2224   1.3418   1.4579
     1.6453   1.7041   1.7350   1.7990   1.9250   2.1440   2.2508   2.3033
     2.6167   2.6594   3.0279   3.2999   3.5768   4.3555   4.8800   5.0626
     5.4150

          k = 0.0150-0.0084 0.0000 ( 31893 PWs)   bands (ev):

   -71.7874 -71.7531 -71.4781 -71.4444 -71.1383 -71.1035 -42.4254 -42.3842
   -41.7317 -41.6536 -41.6165 -41.5109 -41.3695 -41.3544 -41.3407 -41.3049
   -41.2805 -41.2504 -41.1628 -41.0766 -41.0405 -41.0193 -40.9968 -40.9829
    -6.5596  -5.3146  -5.0151  -4.9590  -4.7248  -4.7080  -4.6616  -4.4446
    -4.3882  -4.3713  -4.2662  -4.1708  -3.8520  -3.7859  -3.5277  -3.4695
    -3.4281  -3.1422  -2.9857  -2.8315  -2.7346  -2.6867  -2.5372  -2.3298
    -2.3065  -2.1539  -2.0859  -1.9035  -1.7072  -1.6747  -1.5616  -1.4375
    -1.4258  -1.2956  -1.2140  -1.1270  -1.0242  -0.9626  -0.9263  -0.7525
    -0.5153  -0.1641  -0.0404   0.0816   0.1657   0.1716   0.3753   0.7233
     0.7507   0.7995   0.9077   1.1178   1.2298   1.2699   1.4777   1.6557
     1.7348   1.7488   1.8228   1.8727   1.9683   2.1383   2.2655   2.2661
     2.6123   2.8330   3.1025   3.4775   3.7219   3.9575   4.5763   5.1076
     5.2109

          k = 0.0299 0.0167 0.0000 ( 31887 PWs)   bands (ev):

   -71.7856 -71.7548 -71.4764 -71.4462 -71.1365 -71.1053 -42.4233 -42.3863
   -41.7134 -41.6519 -41.6185 -41.4933 -41.3886 -41.3389 -41.3363 -41.3068
   -41.2790 -41.2520 -41.1812 -41.0749 -41.0425 -41.0175 -41.0156 -40.9848
    -6.3892  -5.1442  -4.9337  -4.8157  -4.6572  -4.6105  -4.5666  -4.3537
    -4.3229  -4.2986  -4.2108  -4.1197  -3.7703  -3.6908  -3.4627  -3.4214
    -3.3892  -3.0955  -2.9809  -2.8412  -2.7535  -2.6316  -2.6073  -2.4635
    -2.3425  -2.2334  -2.1249  -1.8748  -1.7999  -1.7297  -1.6339  -1.5312
    -1.3996  -1.2937  -1.1647  -1.1111  -1.0210  -0.9923  -0.8878  -0.8774
    -0.5654  -0.5332  -0.2037  -0.1925   0.0261   0.1422   0.2519   0.5520
     0.5934   0.7050   0.8907   0.9135   1.0620   1.1736   1.2545   1.4659
     1.6175   1.6270   1.6956   1.7472   1.7776   2.0032   2.1290   2.3800
     2.6849   2.7820   3.0902   3.0955   3.7592   3.9697   4.7145   5.0780
     5.6849

          k = 0.0299 0.0335 0.0000 ( 31874 PWs)   bands (ev):

   -71.7856 -71.7548 -71.4764 -71.4462 -71.1365 -71.1053 -42.4234 -42.3863
   -41.7136 -41.6522 -41.6186 -41.4934 -41.3886 -41.3391 -41.3364 -41.3069
   -41.2790 -41.2520 -41.1812 -41.0752 -41.0426 -41.0175 -41.0156 -40.9848
    -6.2582  -5.0685  -4.8616  -4.7490  -4.5867  -4.5430  -4.4775  -4.3188
    -4.2568  -4.2410  -4.1282  -4.0369  -3.7147  -3.6353  -3.4197  -3.4133
    -3.3583  -2.9946  -2.9939  -2.8176  -2.7646  -2.6580  -2.5680  -2.4712
    -2.3825  -2.2637  -2.1193  -1.9434  -1.8176  -1.7921  -1.6772  -1.5621
    -1.4477  -1.2577  -1.1625  -1.1369  -1.1244  -1.0461  -0.9458  -0.9271
    -0.6960  -0.6294  -0.3647  -0.2371  -0.0516   0.0204   0.1378   0.3900
     0.4575   0.5012   0.7447   0.7459   0.8785   1.0605   1.1619   1.2333
     1.5490   1.5913   1.6967   1.7065   1.7697   1.9573   2.1112   2.4217
     2.4393   2.7486   3.0102   3.1696   3.7286   4.3834   4.9084   5.0161
     5.8274

          k = 0.0299 0.0502 0.0000 ( 31865 PWs)   bands (ev):

   -71.7856 -71.7548 -71.4764 -71.4462 -71.1364 -71.1053 -42.4235 -42.3864
   -41.7138 -41.6527 -41.6188 -41.4935 -41.3887 -41.3393 -41.3366 -41.3069
   -41.2791 -41.2520 -41.1812 -41.0757 -41.0428 -41.0175 -41.0156 -40.9849
    -6.0585  -4.9717  -4.7491  -4.6537  -4.4914  -4.4358  -4.3467  -4.2601
    -4.1609  -4.1342  -4.0311  -3.8943  -3.6300  -3.5424  -3.3931  -3.3646
    -3.2942  -2.9953  -2.9333  -2.8331  -2.7321  -2.6953  -2.5304  -2.4871
    -2.4248  -2.2875  -2.1642  -1.9948  -1.9343  -1.7828  -1.7065  -1.6071
    -1.5407  -1.3260  -1.2871  -1.2069  -1.1542  -1.0730  -1.0218  -1.0003
    -0.9133  -0.7169  -0.5947  -0.2986  -0.2243  -0.1295  -0.0330   0.1597
     0.2375   0.2960   0.4110   0.5521   0.7699   0.8452   1.1091   1.1689
     1.4926   1.5471   1.6745   1.6794   1.8098   1.9365   1.9561   2.1465
     2.4456   2.5141   2.7624   3.5850   4.0990   4.5324   4.7270   5.4803
     6.0252

          k = 0.0299 0.0669 0.0000 ( 31826 PWs)   bands (ev):

   -71.7855 -71.7548 -71.4763 -71.4462 -71.1364 -71.1053 -42.4236 -42.3864
   -41.7140 -41.6533 -41.6190 -41.4935 -41.3887 -41.3395 -41.3368 -41.3070
   -41.2792 -41.2520 -41.1812 -41.0761 -41.0430 -41.0176 -41.0156 -40.9849
    -5.8258  -4.8874  -4.6232  -4.5451  -4.3784  -4.3287  -4.2120  -4.1720
    -4.0458  -3.9989  -3.9176  -3.7256  -3.5251  -3.4601  -3.3306  -3.3260
    -3.2540  -2.9925  -2.9152  -2.8895  -2.7614  -2.6656  -2.5584  -2.4563
    -2.3932  -2.3176  -2.2795  -2.0426  -1.9914  -1.8072  -1.7560  -1.6906
    -1.6175  -1.5476  -1.4318  -1.2969  -1.1981  -1.1257  -1.1196  -1.0459
    -1.0253  -0.8399  -0.7827  -0.4916  -0.3793  -0.2364  -0.2092  -0.0524
     0.0203   0.1274   0.2001   0.3591   0.6711   0.7356   1.0342   1.0486
     1.4554   1.4842   1.5536   1.6520   1.6801   1.8380   1.9252   2.1812
     2.3391   2.4712   2.7867   4.0056   4.1076   4.1500   5.1728   6.0038
     6.3454

          k = 0.0299 0.0837 0.0000 ( 31800 PWs)   bands (ev):

   -71.7855 -71.7548 -71.4763 -71.4462 -71.1364 -71.1053 -42.4236 -42.3864
   -41.7141 -41.6536 -41.6191 -41.4936 -41.3887 -41.3397 -41.3370 -41.3071
   -41.2792 -41.2520 -41.1812 -41.0764 -41.0432 -41.0176 -41.0156 -40.9849
    -5.6244  -4.8374  -4.5286  -4.4427  -4.2854  -4.2609  -4.1178  -4.0602
    -3.9115  -3.8934  -3.7687  -3.5866  -3.4934  -3.4199  -3.3734  -3.2707
    -3.2415  -3.0109  -2.8694  -2.8623  -2.7782  -2.6437  -2.6236  -2.4563
    -2.3983  -2.3538  -2.2935  -2.1068  -2.0393  -1.8874  -1.8027  -1.7356
    -1.7058  -1.6401  -1.6104  -1.4199  -1.2544  -1.2344  -1.1267  -1.1231
    -1.0509  -1.0042  -0.8138  -0.6837  -0.4351  -0.3943  -0.2781  -0.2014
    -0.0868   0.0065   0.1020   0.2239   0.5944   0.7177   0.8554   0.9946
     1.3341   1.4280   1.5107   1.5751   1.6851   1.7081   1.9197   2.1972
     2.4919   2.5218   2.8037   3.6113   4.0879   4.7095   5.3192   6.0253
     6.3292

          k = 0.0299 0.1004 0.0000 ( 31866 PWs)   bands (ev):

   -71.7855 -71.7548 -71.4763 -71.4462 -71.1364 -71.1053 -42.4237 -42.3864
   -41.7142 -41.6538 -41.6192 -41.4937 -41.3887 -41.3397 -41.3370 -41.3072
   -41.2792 -41.2520 -41.1812 -41.0765 -41.0433 -41.0176 -41.0156 -40.9849
    -5.5412  -4.8227  -4.4951  -4.3898  -4.2882  -4.2013  -4.0891  -4.0086
    -3.8550  -3.8034  -3.6433  -3.5799  -3.5543  -3.4709  -3.3475  -3.2791
    -3.2322  -2.9936  -2.8841  -2.8055  -2.7565  -2.6635  -2.5880  -2.4836
    -2.4029  -2.3903  -2.3035  -2.1282  -2.1114  -1.8858  -1.7898  -1.7571
    -1.7357  -1.7050  -1.6666  -1.4811  -1.2767  -1.2683  -1.2240  -1.1153
    -1.0571  -1.0221  -0.8236  -0.7479  -0.4753  -0.4524  -0.2766  -0.2530
    -0.1181  -0.0476   0.0735   0.1787   0.5944   0.7116   0.7503   0.9819
     1.2756   1.4177   1.4878   1.5366   1.6875   1.6890   1.9181   2.1962
     2.4997   2.6579   2.8094   3.4202   4.0805   5.1441   5.3458   5.5956
     6.3668

          k = 0.0299-0.0837 0.0000 ( 31800 PWs)   bands (ev):

   -71.7855 -71.7548 -71.4763 -71.4462 -71.1364 -71.1053 -42.4236 -42.3864
   -41.7141 -41.6536 -41.6191 -41.4936 -41.3887 -41.3397 -41.3370 -41.3071
   -41.2792 -41.2520 -41.1812 -41.0764 -41.0432 -41.0176 -41.0156 -40.9849
    -5.6244  -4.8374  -4.5286  -4.4427  -4.2854  -4.2609  -4.1178  -4.0602
    -3.9115  -3.8934  -3.7687  -3.5866  -3.4934  -3.4199  -3.3734  -3.2707
    -3.2415  -3.0109  -2.8694  -2.8623  -2.7783  -2.6437  -2.6236  -2.4563
    -2.3983  -2.3538  -2.2935  -2.1068  -2.0393  -1.8874  -1.8027  -1.7356
    -1.7058  -1.6401  -1.6103  -1.4199  -1.2544  -1.2344  -1.1267  -1.1231
    -1.0509  -1.0042  -0.8138  -0.6836  -0.4351  -0.3943  -0.2781  -0.2014
    -0.0868   0.0065   0.1020   0.2239   0.5944   0.7177   0.8554   0.9946
     1.3341   1.4280   1.5107   1.5751   1.6851   1.7081   1.9197   2.1972
     2.4919   2.5218   2.8037   3.6113   4.0879   4.7095   5.3192   6.0253
     6.3292

          k = 0.0299-0.0669 0.0000 ( 31826 PWs)   bands (ev):

   -71.7855 -71.7548 -71.4763 -71.4462 -71.1364 -71.1053 -42.4236 -42.3864
   -41.7140 -41.6533 -41.6190 -41.4935 -41.3887 -41.3395 -41.3368 -41.3070
   -41.2792 -41.2520 -41.1812 -41.0761 -41.0430 -41.0176 -41.0156 -40.9849
    -5.8258  -4.8874  -4.6232  -4.5451  -4.3784  -4.3287  -4.2120  -4.1720
    -4.0458  -3.9989  -3.9176  -3.7256  -3.5251  -3.4601  -3.3306  -3.3260
    -3.2540  -2.9925  -2.9152  -2.8895  -2.7615  -2.6656  -2.5584  -2.4563
    -2.3932  -2.3176  -2.2795  -2.0426  -1.9914  -1.8072  -1.7560  -1.6906
    -1.6175  -1.5476  -1.4318  -1.2970  -1.1981  -1.1257  -1.1196  -1.0459
    -1.0253  -0.8399  -0.7827  -0.4916  -0.3793  -0.2364  -0.2092  -0.0524
     0.0203   0.1274   0.2001   0.3591   0.6711   0.7356   1.0342   1.0486
     1.4554   1.4842   1.5536   1.6520   1.6801   1.8380   1.9252   2.1812
     2.3391   2.4712   2.7867   4.0056   4.1076   4.1500   5.1728   6.0038
     6.3454

          k = 0.0299-0.0502 0.0000 ( 31865 PWs)   bands (ev):

   -71.7856 -71.7548 -71.4764 -71.4462 -71.1364 -71.1053 -42.4235 -42.3864
   -41.7138 -41.6527 -41.6188 -41.4935 -41.3887 -41.3393 -41.3366 -41.3069
   -41.2791 -41.2520 -41.1812 -41.0757 -41.0428 -41.0175 -41.0156 -40.9849
    -6.0585  -4.9717  -4.7491  -4.6537  -4.4914  -4.4358  -4.3467  -4.2601
    -4.1609  -4.1342  -4.0311  -3.8943  -3.6300  -3.5424  -3.3931  -3.3646
    -3.2942  -2.9953  -2.9333  -2.8331  -2.7321  -2.6953  -2.5304  -2.4871
    -2.4248  -2.2875  -2.1642  -1.9948  -1.9343  -1.7828  -1.7065  -1.6071
    -1.5407  -1.3260  -1.2871  -1.2069  -1.1542  -1.0730  -1.0218  -1.0003
    -0.9133  -0.7169  -0.5947  -0.2986  -0.2243  -0.1295  -0.0330   0.1597
     0.2375   0.2960   0.4110   0.5521   0.7699   0.8452   1.1091   1.1689
     1.4926   1.5471   1.6745   1.6794   1.8098   1.9365   1.9561   2.1465
     2.4456   2.5141   2.7624   3.5850   4.0990   4.5324   4.7269   5.4803
     6.0252

          k = 0.0299-0.0335 0.0000 ( 31874 PWs)   bands (ev):

   -71.7856 -71.7548 -71.4764 -71.4462 -71.1365 -71.1053 -42.4234 -42.3863
   -41.7136 -41.6522 -41.6186 -41.4934 -41.3886 -41.3391 -41.3364 -41.3069
   -41.2790 -41.2520 -41.1812 -41.0752 -41.0426 -41.0175 -41.0156 -40.9848
    -6.2582  -5.0685  -4.8616  -4.7490  -4.5867  -4.5430  -4.4775  -4.3188
    -4.2568  -4.2410  -4.1282  -4.0369  -3.7147  -3.6353  -3.4197  -3.4133
    -3.3583  -2.9946  -2.9939  -2.8176  -2.7646  -2.6580  -2.5680  -2.4712
    -2.3825  -2.2638  -2.1193  -1.9434  -1.8176  -1.7921  -1.6772  -1.5622
    -1.4477  -1.2577  -1.1625  -1.1369  -1.1244  -1.0461  -0.9458  -0.9271
    -0.6960  -0.6294  -0.3647  -0.2372  -0.0516   0.0204   0.1378   0.3900
     0.4575   0.5012   0.7447   0.7459   0.8785   1.0605   1.1619   1.2333
     1.5490   1.5913   1.6967   1.7065   1.7697   1.9573   2.1112   2.4217
     2.4393   2.7486   3.0103   3.1697   3.7286   4.3834   4.9084   5.0161
     5.8275

          k = 0.0299-0.0167 0.0000 ( 31887 PWs)   bands (ev):

   -71.7856 -71.7548 -71.4764 -71.4462 -71.1365 -71.1053 -42.4233 -42.3863
   -41.7134 -41.6519 -41.6185 -41.4933 -41.3886 -41.3389 -41.3363 -41.3068
   -41.2790 -41.2520 -41.1812 -41.0749 -41.0425 -41.0175 -41.0156 -40.9848
    -6.3892  -5.1442  -4.9337  -4.8157  -4.6572  -4.6105  -4.5666  -4.3537
    -4.3229  -4.2986  -4.2108  -4.1197  -3.7703  -3.6908  -3.4627  -3.4214
    -3.3892  -3.0955  -2.9809  -2.8412  -2.7535  -2.6316  -2.6073  -2.4635
    -2.3425  -2.2334  -2.1249  -1.8748  -1.7999  -1.7297  -1.6339  -1.5312
    -1.3996  -1.2937  -1.1647  -1.1111  -1.0210  -0.9923  -0.8878  -0.8774
    -0.5654  -0.5332  -0.2037  -0.1925   0.0261   0.1422   0.2519   0.5520
     0.5934   0.7050   0.8907   0.9135   1.0620   1.1736   1.2545   1.4660
     1.6175   1.6270   1.6956   1.7472   1.7776   2.0032   2.1290   2.3800
     2.6849   2.7820   3.0902   3.0955   3.7592   3.9698   4.7145   5.0780
     5.6849

          k = 0.0299-0.0000 0.0000 ( 31897 PWs)   bands (ev):

   -71.7856 -71.7548 -71.4764 -71.4462 -71.1365 -71.1053 -42.4233 -42.3863
   -41.7133 -41.6517 -41.6185 -41.4932 -41.3886 -41.3388 -41.3362 -41.3068
   -41.2790 -41.2520 -41.1812 -41.0748 -41.0424 -41.0175 -41.0156 -40.9848
    -6.4346  -5.1726  -4.9578  -4.8398  -4.6849  -4.6328  -4.5966  -4.3632
    -4.3485  -4.3138  -4.2471  -4.1448  -3.7898  -3.7087  -3.4787  -3.4235
    -3.3942  -3.1401  -2.9704  -2.8590  -2.7468  -2.6227  -2.6223  -2.4638
    -2.3284  -2.2222  -2.1272  -1.8482  -1.8010  -1.7101  -1.5882  -1.5201
    -1.3855  -1.3283  -1.1669  -1.1028  -1.0105  -0.9390  -0.8673  -0.8667
    -0.5440  -0.4728  -0.1929  -0.1323   0.0500   0.1861   0.2889   0.6093
     0.6266   0.8295   0.9253   0.9693   0.9996   1.2636   1.3307   1.6270
     1.6395   1.6859   1.7506   1.7842   1.8412   2.0527   2.1271   2.2667
     2.5657   2.6535   3.0176   3.4315   3.5892   4.2850   4.6428   4.7648
     5.5939

          k = 0.0449 0.0251 0.0000 ( 31854 PWs)   bands (ev):

   -71.7828 -71.7577 -71.4736 -71.4489 -71.1336 -71.1082 -42.4200 -42.3898
   -41.6841 -41.6490 -41.6218 -41.4652 -41.4190 -41.3361 -41.3098 -41.3074
   -41.2766 -41.2545 -41.2102 -41.0721 -41.0457 -41.0456 -41.0144 -40.9878
    -6.1176  -4.8745  -4.8314  -4.6020  -4.5757  -4.4417  -4.4142  -4.2560
    -4.2113  -4.1598  -4.1078  -4.0368  -3.6396  -3.5496  -3.3674  -3.3458
    -3.3275  -3.0283  -2.9992  -2.9023  -2.7738  -2.6843  -2.6212  -2.5530
    -2.3949  -2.3750  -2.1939  -1.9474  -1.8508  -1.8331  -1.7089  -1.6594
    -1.4156  -1.3635  -1.3105  -1.2396  -1.0726  -1.0431  -0.8964  -0.8470
    -0.7605  -0.6023  -0.5876  -0.3502  -0.2892   0.0565   0.1927   0.3309
     0.4592   0.4683   0.6632   0.8267   0.9400   0.9630   0.9874   1.1163
     1.3718   1.5125   1.5801   1.6849   1.7648   1.7796   2.0812   2.1231
     2.3042   3.0884   3.1064   3.3702   3.8480   3.9031   4.3984   5.5346
     5.9649

          k = 0.0449 0.0418 0.0000 ( 31868 PWs)   bands (ev):

   -71.7828 -71.7577 -71.4736 -71.4489 -71.1336 -71.1082 -42.4201 -42.3898
   -41.6843 -41.6494 -41.6219 -41.4652 -41.4190 -41.3362 -41.3099 -41.3075
   -41.2766 -41.2545 -41.2103 -41.0725 -41.0458 -41.0456 -41.0144 -40.9879
    -5.9540  -4.7843  -4.7670  -4.5234  -4.4982  -4.3662  -4.3116  -4.2124
    -4.1387  -4.0825  -4.0182  -3.9359  -3.5689  -3.5089  -3.3407  -3.3157
    -3.2899  -3.0072  -2.9502  -2.9251  -2.7603  -2.6697  -2.5963  -2.5910
    -2.4340  -2.3878  -2.2203  -1.9880  -1.9581  -1.8632  -1.7398  -1.7077
    -1.4934  -1.4647  -1.3106  -1.2844  -1.1628  -1.0658  -0.9842  -0.9228
    -0.8207  -0.7256  -0.6559  -0.3769  -0.3528  -0.0633  -0.0337   0.1507
     0.2783   0.3268   0.5256   0.5561   0.7689   0.7922   1.0413   1.0732
     1.2594   1.4741   1.5331   1.6724   1.8150   1.8404   2.0439   2.1613
     2.3187   2.5475   3.1801   3.6169   3.6859   4.1501   5.0647   5.1060
     6.3058

          k = 0.0449 0.0586 0.0000 ( 31855 PWs)   bands (ev):

   -71.7827 -71.7576 -71.4736 -71.4489 -71.1336 -71.1082 -42.4201 -42.3898
   -41.6845 -41.6499 -41.6220 -41.4653 -41.4190 -41.3364 -41.3100 -41.3077
   -41.2767 -41.2545 -41.2102 -41.0728 -41.0459 -41.0456 -41.0144 -40.9879
    -5.7352  -4.6894  -4.6653  -4.4327  -4.4087  -4.2531  -4.2019  -4.1491
    -4.0145  -3.9830  -3.9163  -3.8044  -3.4795  -3.4666  -3.3191  -3.2748
    -3.2335  -3.0082  -2.9793  -2.9235  -2.7090  -2.7003  -2.6409  -2.5463
    -2.4500  -2.4103  -2.3051  -2.0693  -2.0321  -1.8921  -1.7955  -1.7424
    -1.6878  -1.5725  -1.4000  -1.3284  -1.2539  -1.1158  -1.0542  -0.9805
    -0.8938  -0.8790  -0.7209  -0.4532  -0.3889  -0.3708  -0.1657  -0.0016
     0.0542   0.2156   0.2800   0.4683   0.6410   0.7485   1.0163   1.0425
     1.2585   1.4443   1.4761   1.6354   1.8211   1.8410   2.0177   2.0273
     2.3065   2.3679   2.6374   3.6039   4.1423   4.5260   4.9414   5.9199
     6.3275

          k = 0.0449 0.0753 0.0000 ( 31818 PWs)   bands (ev):

   -71.7827 -71.7576 -71.4736 -71.4489 -71.1336 -71.1081 -42.4202 -42.3898
   -41.6847 -41.6503 -41.6221 -41.4654 -41.4190 -41.3366 -41.3100 -41.3079
   -41.2768 -41.2544 -41.2103 -41.0732 -41.0460 -41.0457 -41.0145 -40.9879
    -5.5061  -4.6227  -4.5527  -4.3537  -4.3213  -4.1457  -4.1027  -4.0487
    -3.8839  -3.8795  -3.8011  -3.6854  -3.4633  -3.3881  -3.3111  -3.3036
    -3.1874  -3.0400  -2.9671  -2.8799  -2.7405  -2.7277  -2.6550  -2.5456
    -2.4893  -2.4296  -2.3690  -2.1638  -2.0481  -1.9366  -1.8963  -1.8222
    -1.7687  -1.6928  -1.5541  -1.3604  -1.3292  -1.1783  -1.1629  -1.0351
    -0.9790  -0.9241  -0.7654  -0.7148  -0.4860  -0.3696  -0.2205  -0.1471
    -0.0969   0.1396   0.1579   0.4204   0.6097   0.7204   0.9620   0.9886
     1.2797   1.4104   1.4127   1.5140   1.6390   1.7845   1.8442   2.0201
     2.2669   2.4079   2.5880   3.5398   4.0073   4.6742   5.8201   6.1907
     6.5425

          k = 0.0449 0.0920 0.0000 ( 31853 PWs)   bands (ev):

   -71.7827 -71.7576 -71.4736 -71.4489 -71.1336 -71.1081 -42.4202 -42.3898
   -41.6848 -41.6505 -41.6221 -41.4655 -41.4190 -41.3367 -41.3101 -41.3080
   -41.2768 -41.2544 -41.2103 -41.0734 -41.0461 -41.0457 -41.0145 -40.9879
    -5.3463  -4.5957  -4.4773  -4.3081  -4.2598  -4.0895  -4.0344  -3.9518
    -3.8076  -3.7547  -3.7046  -3.6027  -3.5608  -3.4156  -3.3516  -3.2787
    -3.1807  -3.0033  -2.9275  -2.8547  -2.7707  -2.7638  -2.6347  -2.5957
    -2.5269  -2.4541  -2.3723  -2.2342  -2.0638  -1.9857  -1.9842  -1.8163
    -1.8075  -1.7330  -1.6782  -1.3853  -1.3822  -1.2751  -1.2373  -1.1290
    -0.9526  -0.9195  -0.8401  -0.7919  -0.5609  -0.3458  -0.2443  -0.2415
    -0.1471   0.0698   0.1666   0.3991   0.6736   0.7038   0.8138   0.9785
     1.2945   1.2946   1.3869   1.4159   1.5430   1.6605   1.8386   2.0306
     2.2026   2.4290   2.7949   3.5051   3.6496   5.2054   5.9921   6.0923
     6.4704

          k = 0.0449 0.1088 0.0000 ( 31853 PWs)   bands (ev):

   -71.7827 -71.7576 -71.4736 -71.4489 -71.1336 -71.1081 -42.4202 -42.3898
   -41.6848 -41.6505 -41.6221 -41.4655 -41.4190 -41.3367 -41.3101 -41.3080
   -41.2768 -41.2544 -41.2103 -41.0734 -41.0461 -41.0457 -41.0145 -40.9879
    -5.3463  -4.5957  -4.4773  -4.3081  -4.2598  -4.0895  -4.0344  -3.9518
    -3.8076  -3.7547  -3.7046  -3.6027  -3.5608  -3.4156  -3.3516  -3.2787
    -3.1807  -3.0033  -2.9275  -2.8547  -2.7707  -2.7638  -2.6347  -2.5957
    -2.5269  -2.4541  -2.3723  -2.2342  -2.0638  -1.9857  -1.9842  -1.8163
    -1.8075  -1.7330  -1.6782  -1.3853  -1.3822  -1.2751  -1.2373  -1.1290
    -0.9526  -0.9195  -0.8401  -0.7919  -0.5609  -0.3458  -0.2443  -0.2415
    -0.1471   0.0698   0.1666   0.3991   0.6736   0.7038   0.8138   0.9785
     1.2945   1.2946   1.3869   1.4159   1.5430   1.6605   1.8386   2.0306
     2.2026   2.4290   2.7949   3.5051   3.6496   5.2054   5.9921   6.0924
     6.4705

          k = 0.0449-0.0753 0.0000 ( 31818 PWs)   bands (ev):

   -71.7827 -71.7576 -71.4736 -71.4489 -71.1336 -71.1081 -42.4202 -42.3898
   -41.6847 -41.6503 -41.6221 -41.4654 -41.4190 -41.3366 -41.3100 -41.3079
   -41.2768 -41.2544 -41.2103 -41.0732 -41.0460 -41.0457 -41.0145 -40.9879
    -5.5061  -4.6227  -4.5527  -4.3537  -4.3213  -4.1457  -4.1027  -4.0487
    -3.8839  -3.8795  -3.8011  -3.6854  -3.4633  -3.3881  -3.3111  -3.3036
    -3.1874  -3.0400  -2.9671  -2.8799  -2.7405  -2.7277  -2.6550  -2.5456
    -2.4893  -2.4296  -2.3690  -2.1638  -2.0481  -1.9366  -1.8963  -1.8222
    -1.7687  -1.6928  -1.5541  -1.3604  -1.3292  -1.1783  -1.1629  -1.0351
    -0.9790  -0.9241  -0.7654  -0.7148  -0.4860  -0.3696  -0.2205  -0.1471
    -0.0969   0.1396   0.1579   0.4204   0.6097   0.7204   0.9620   0.9886
     1.2797   1.4104   1.4127   1.5140   1.6390   1.7845   1.8442   2.0201
     2.2669   2.4079   2.5880   3.5398   4.0072   4.6742   5.8201   6.1907
     6.5440

          k = 0.0449-0.0586 0.0000 ( 31855 PWs)   bands (ev):

   -71.7827 -71.7576 -71.4736 -71.4489 -71.1336 -71.1082 -42.4201 -42.3898
   -41.6845 -41.6499 -41.6220 -41.4653 -41.4190 -41.3364 -41.3100 -41.3077
   -41.2767 -41.2545 -41.2102 -41.0728 -41.0459 -41.0456 -41.0144 -40.9879
    -5.7352  -4.6894  -4.6653  -4.4327  -4.4087  -4.2531  -4.2019  -4.1491
    -4.0145  -3.9830  -3.9163  -3.8044  -3.4795  -3.4666  -3.3191  -3.2748
    -3.2335  -3.0082  -2.9793  -2.9235  -2.7090  -2.7003  -2.6409  -2.5463
    -2.4500  -2.4103  -2.3051  -2.0693  -2.0321  -1.8921  -1.7956  -1.7424
    -1.6878  -1.5726  -1.4000  -1.3284  -1.2539  -1.1158  -1.0542  -0.9805
    -0.8938  -0.8790  -0.7209  -0.4532  -0.3889  -0.3708  -0.1657  -0.0016
     0.0542   0.2156   0.2800   0.4683   0.6410   0.7485   1.0163   1.0425
     1.2585   1.4443   1.4762   1.6354   1.8211   1.8410   2.0177   2.0273
     2.3065   2.3679   2.6374   3.6039   4.1423   4.5260   4.9414   5.9199
     6.3275

          k = 0.0449-0.0418 0.0000 ( 31868 PWs)   bands (ev):

   -71.7828 -71.7577 -71.4736 -71.4489 -71.1336 -71.1082 -42.4201 -42.3898
   -41.6843 -41.6494 -41.6219 -41.4652 -41.4190 -41.3362 -41.3099 -41.3075
   -41.2766 -41.2545 -41.2103 -41.0725 -41.0458 -41.0456 -41.0144 -40.9879
    -5.9540  -4.7843  -4.7670  -4.5234  -4.4982  -4.3662  -4.3116  -4.2124
    -4.1387  -4.0825  -4.0182  -3.9359  -3.5689  -3.5089  -3.3407  -3.3157
    -3.2899  -3.0072  -2.9501  -2.9251  -2.7603  -2.6697  -2.5963  -2.5910
    -2.4340  -2.3878  -2.2203  -1.9880  -1.9581  -1.8632  -1.7398  -1.7077
    -1.4934  -1.4647  -1.3106  -1.2844  -1.1628  -1.0658  -0.9842  -0.9228
    -0.8207  -0.7256  -0.6559  -0.3769  -0.3528  -0.0633  -0.0337   0.1507
     0.2783   0.3268   0.5256   0.5561   0.7689   0.7922   1.0413   1.0732
     1.2594   1.4741   1.5331   1.6724   1.8149   1.8404   2.0439   2.1613
     2.3187   2.5475   3.1801   3.6169   3.6860   4.1501   5.0647   5.1059
     6.3065

          k = 0.0449-0.0251 0.0000 ( 31854 PWs)   bands (ev):

   -71.7828 -71.7577 -71.4736 -71.4489 -71.1336 -71.1082 -42.4200 -42.3898
   -41.6841 -41.6490 -41.6218 -41.4652 -41.4190 -41.3361 -41.3098 -41.3074
   -41.2766 -41.2545 -41.2102 -41.0721 -41.0457 -41.0456 -41.0144 -40.9878
    -6.1176  -4.8745  -4.8314  -4.6020  -4.5757  -4.4417  -4.4142  -4.2560
    -4.2113  -4.1598  -4.1078  -4.0368  -3.6396  -3.5496  -3.3674  -3.3458
    -3.3275  -3.0283  -2.9992  -2.9023  -2.7738  -2.6843  -2.6212  -2.5530
    -2.3949  -2.3750  -2.1939  -1.9474  -1.8508  -1.8331  -1.7089  -1.6594
    -1.4156  -1.3635  -1.3105  -1.2396  -1.0726  -1.0431  -0.8964  -0.8470
    -0.7605  -0.6023  -0.5876  -0.3502  -0.2892   0.0565   0.1927   0.3309
     0.4592   0.4683   0.6632   0.8268   0.9400   0.9630   0.9874   1.1163
     1.3718   1.5125   1.5801   1.6849   1.7648   1.7796   2.0812   2.1231
     2.3042   3.0884   3.1064   3.3702   3.8480   3.9031   4.3984   5.5346
     5.9654

          k = 0.0449-0.0084 0.0000 ( 31860 PWs)   bands (ev):

   -71.7828 -71.7577 -71.4736 -71.4489 -71.1336 -71.1082 -42.4200 -42.3898
   -41.6840 -41.6488 -41.6217 -41.4651 -41.4190 -41.3360 -41.3098 -41.3073
   -41.2766 -41.2545 -41.2102 -41.0719 -41.0456 -41.0456 -41.0144 -40.9878
    -6.2041  -4.9281  -4.8570  -4.6471  -4.6268  -4.4780  -4.4740  -4.2798
    -4.2295  -4.2002  -4.1803  -4.0822  -3.6798  -3.5719  -3.3972  -3.3452
    -3.3358  -3.1032  -2.9849  -2.9064  -2.7655  -2.7139  -2.6238  -2.5334
    -2.3698  -2.3676  -2.1880  -1.9290  -1.8100  -1.7857  -1.6869  -1.6270
    -1.4019  -1.3487  -1.2863  -1.2119  -1.0721  -0.9703  -0.8833  -0.7658
    -0.7320  -0.5778  -0.5191  -0.3341  -0.2330   0.1327   0.2587   0.4548
     0.5277   0.5911   0.7381   0.9196   0.9412   1.0694   1.1451   1.3168
     1.5176   1.6164   1.6649   1.6834   1.7176   1.7517   2.0552   2.1106
     2.3587   2.5312   3.0399   3.3391   3.8828   4.3695   4.5438   5.2199
     5.5892

          k = 0.0449 0.0084 0.0000 ( 31860 PWs)   bands (ev):

   -71.7828 -71.7577 -71.4736 -71.4489 -71.1336 -71.1082 -42.4200 -42.3898
   -41.6840 -41.6488 -41.6217 -41.4651 -41.4190 -41.3360 -41.3098 -41.3073
   -41.2766 -41.2545 -41.2102 -41.0719 -41.0456 -41.0456 -41.0144 -40.9878
    -6.2041  -4.9281  -4.8570  -4.6471  -4.6268  -4.4780  -4.4740  -4.2798
    -4.2295  -4.2002  -4.1803  -4.0822  -3.6798  -3.5719  -3.3972  -3.3452
    -3.3358  -3.1032  -2.9849  -2.9064  -2.7655  -2.7139  -2.6238  -2.5334
    -2.3698  -2.3676  -2.1880  -1.9290  -1.8100  -1.7857  -1.6869  -1.6270
    -1.4019  -1.3487  -1.2863  -1.2119  -1.0721  -0.9703  -0.8833  -0.7658
    -0.7320  -0.5778  -0.5191  -0.3341  -0.2330   0.1327   0.2587   0.4548
     0.5277   0.5911   0.7381   0.9196   0.9412   1.0694   1.1451   1.3168
     1.5176   1.6164   1.6649   1.6834   1.7176   1.7517   2.0552   2.1106
     2.3587   2.5312   3.0399   3.3391   3.8828   4.3695   4.5438   5.2199
     5.5893

          k = 0.0598 0.0335 0.0000 ( 31836 PWs)   bands (ev):

   -71.7791 -71.7613 -71.4700 -71.4526 -71.1299 -71.1119 -42.4156 -42.3942
   -41.6459 -41.6452 -41.6260 -41.4584 -41.4284 -41.3323 -41.3138 -41.2737
   -41.2696 -41.2577 -41.2478 -41.0845 -41.0684 -41.0497 -41.0105 -40.9917
    -5.7689  -4.7782  -4.5423  -4.4523  -4.3747  -4.2396  -4.2279  -4.1348
    -4.1239  -3.9866  -3.9197  -3.9094  -3.4800  -3.4007  -3.2797  -3.2514
    -3.2355  -3.1021  -2.9783  -2.9606  -2.8214  -2.7789  -2.6912  -2.5017
    -2.4919  -2.4404  -2.3262  -2.1390  -2.0457  -1.9470  -1.8664  -1.7660
    -1.7275  -1.5235  -1.4706  -1.3512  -1.3141  -1.0993  -0.9807  -0.8406
    -0.7882  -0.5999  -0.5890  -0.5059  -0.3896  -0.0508   0.0300   0.1514
     0.2750   0.3098   0.5365   0.5801   0.6725   0.7890   0.8738   0.9157
     1.1021   1.2417   1.5302   1.5451   1.6614   1.8074   1.8379   2.0053
     2.2353   3.1082   3.2586   3.5719   3.8716   4.0781   4.2828   5.8024
     6.0138

          k = 0.0598 0.0502 0.0000 ( 31839 PWs)   bands (ev):

   -71.7791 -71.7613 -71.4700 -71.4526 -71.1299 -71.1119 -42.4157 -42.3942
   -41.6460 -41.6456 -41.6260 -41.4583 -41.4284 -41.3325 -41.3138 -41.2737
   -41.2698 -41.2577 -41.2478 -41.0845 -41.0687 -41.0498 -41.0106 -40.9917
    -5.5871  -4.7519  -4.4545  -4.3760  -4.2911  -4.1904  -4.1535  -4.0748
    -4.0259  -3.8857  -3.8391  -3.8237  -3.4164  -3.4149  -3.2672  -3.2390
    -3.1861  -3.1126  -3.0047  -2.9230  -2.8436  -2.7393  -2.6538  -2.5608
    -2.4837  -2.4685  -2.3654  -2.2019  -2.1499  -2.0334  -1.8828  -1.8341
    -1.7787  -1.5393  -1.5050  -1.4286  -1.3841  -1.2290  -0.9734  -0.8853
    -0.8308  -0.6981  -0.6323  -0.5884  -0.3651  -0.3073  -0.0821   0.0335
     0.1348   0.2333   0.3677   0.4932   0.5840   0.7359   0.8324   0.9389
     1.0190   1.2478   1.4780   1.5870   1.6256   1.8474   1.8531   1.9984
     2.3501   2.6252   3.2577   3.2967   4.1229   4.2888   5.0962   5.1679
     6.2269

          k = 0.0598 0.0669 0.0000 ( 31840 PWs)   bands (ev):

   -71.7791 -71.7613 -71.4700 -71.4526 -71.1299 -71.1119 -42.4157 -42.3943
   -41.6462 -41.6460 -41.6260 -41.4583 -41.4285 -41.3326 -41.3138 -41.2738
   -41.2699 -41.2576 -41.2478 -41.0845 -41.0690 -41.0499 -41.0106 -40.9918
    -5.3667  -4.6973  -4.3814  -4.2972  -4.2154  -4.1052  -4.0727  -3.9948
    -3.9122  -3.7618  -3.7538  -3.7470  -3.4407  -3.3527  -3.3309  -3.2357
    -3.1256  -3.1222  -2.9998  -2.8910  -2.8772  -2.7195  -2.6754  -2.6208
    -2.5049  -2.5034  -2.4160  -2.2446  -2.2392  -2.1240  -1.9350  -1.9152
    -1.7939  -1.6153  -1.5658  -1.4677  -1.4673  -1.3245  -0.9937  -0.9853
    -0.8425  -0.7719  -0.7105  -0.6334  -0.5613  -0.3333  -0.0836  -0.0767
    -0.0219   0.2113   0.2255   0.5074   0.5863   0.7111   0.8319   0.9370
     1.0076   1.2454   1.4048   1.5747   1.6281   1.8126   1.8283   2.0257
     2.0398   2.5150   2.7891   3.1613   4.5424   4.7491   4.9611   5.9133
     6.1321

          k = 0.0598 0.0837 0.0000 ( 31819 PWs)   bands (ev):

   -71.7791 -71.7613 -71.4700 -71.4526 -71.1299 -71.1119 -42.4158 -42.3943
   -41.6463 -41.6462 -41.6260 -41.4583 -41.4286 -41.3327 -41.3138 -41.2738
   -41.2700 -41.2576 -41.2477 -41.0845 -41.0692 -41.0499 -41.0106 -40.9918
    -5.1622  -4.6404  -4.3494  -4.2353  -4.1765  -4.0006  -3.9749  -3.8947
    -3.8306  -3.7380  -3.6862  -3.6378  -3.4815  -3.4274  -3.3395  -3.2318
    -3.1310  -3.0722  -2.9763  -2.8769  -2.8747  -2.7724  -2.7586  -2.6526
    -2.5698  -2.5142  -2.4262  -2.2993  -2.2457  -2.2029  -2.0045  -1.9449
    -1.7945  -1.7111  -1.6000  -1.5360  -1.5148  -1.3620  -1.0929  -1.0499
    -0.8863  -0.8290  -0.7317  -0.6443  -0.6345  -0.3059  -0.1802  -0.0859
    -0.0827   0.1036   0.2952   0.5787   0.6800   0.6909   0.8436   0.9136
     1.0086   1.2378   1.3214   1.4636   1.6306   1.6588   1.7284   1.8017
     2.0489   2.3091   2.8958   3.0909   4.0501   5.2517   5.7413   5.9602
     6.7832

          k = 0.0598 0.1004 0.0000 ( 31812 PWs)   bands (ev):

   -71.7791 -71.7613 -71.4700 -71.4526 -71.1299 -71.1119 -42.4158 -42.3943
   -41.6464 -41.6463 -41.6260 -41.4583 -41.4286 -41.3328 -41.3139 -41.2738
   -41.2701 -41.2576 -41.2477 -41.0844 -41.0693 -41.0499 -41.0106 -40.9918
    -5.0711  -4.6156  -4.3472  -4.2116  -4.1645  -3.9532  -3.8996  -3.8378
    -3.8234  -3.7292  -3.6787  -3.5847  -3.5524  -3.4386  -3.3497  -3.2249
    -3.1302  -3.0500  -2.9642  -2.8826  -2.8501  -2.8305  -2.7980  -2.6579
    -2.6147  -2.4845  -2.4278  -2.3399  -2.2375  -2.2324  -2.0438  -1.9441
    -1.7935  -1.7452  -1.6161  -1.5677  -1.5271  -1.3829  -1.1277  -1.0829
    -0.9006  -0.8678  -0.7050  -0.6543  -0.6450  -0.2907  -0.2157  -0.1119
    -0.0886   0.0580   0.3928   0.5872   0.6825   0.7569   0.8497   0.9208
     1.0088   1.2340   1.2675   1.3241   1.5622   1.6157   1.6703   1.7913
     2.0572   2.2346   3.0343   3.0666   3.8201   5.6213   5.8123   6.1596
     6.5036

          k = 0.0598 0.1171 0.0000 ( 31819 PWs)   bands (ev):

   -71.7791 -71.7613 -71.4700 -71.4526 -71.1299 -71.1119 -42.4158 -42.3943
   -41.6463 -41.6462 -41.6260 -41.4583 -41.4286 -41.3327 -41.3138 -41.2738
   -41.2700 -41.2576 -41.2477 -41.0845 -41.0692 -41.0499 -41.0106 -40.9918
    -5.1622  -4.6404  -4.3494  -4.2353  -4.1765  -4.0006  -3.9749  -3.8947
    -3.8306  -3.7380  -3.6862  -3.6378  -3.4815  -3.4274  -3.3395  -3.2318
    -3.1310  -3.0722  -2.9763  -2.8769  -2.8747  -2.7724  -2.7586  -2.6526
    -2.5698  -2.5142  -2.4262  -2.2993  -2.2457  -2.2029  -2.0045  -1.9449
    -1.7945  -1.7111  -1.6000  -1.5360  -1.5147  -1.3620  -1.0929  -1.0499
    -0.8863  -0.8290  -0.7317  -0.6443  -0.6345  -0.3059  -0.1802  -0.0859
    -0.0827   0.1036   0.2952   0.5787   0.6800   0.6909   0.8436   0.9136
     1.0086   1.2378   1.3214   1.4636   1.6305   1.6588   1.7284   1.8017
     2.0489   2.3091   2.8958   3.0910   4.0501   5.2517   5.7413   5.9602
     6.5340

          k = 0.0598-0.0669 0.0000 ( 31840 PWs)   bands (ev):

   -71.7791 -71.7613 -71.4700 -71.4526 -71.1299 -71.1119 -42.4157 -42.3943
   -41.6462 -41.6460 -41.6260 -41.4583 -41.4285 -41.3326 -41.3138 -41.2738
   -41.2699 -41.2576 -41.2478 -41.0845 -41.0690 -41.0499 -41.0106 -40.9918
    -5.3667  -4.6973  -4.3814  -4.2972  -4.2154  -4.1052  -4.0727  -3.9948
    -3.9122  -3.7618  -3.7538  -3.7470  -3.4407  -3.3527  -3.3309  -3.2357
    -3.1256  -3.1222  -2.9998  -2.8910  -2.8772  -2.7195  -2.6754  -2.6208
    -2.5049  -2.5034  -2.4160  -2.2447  -2.2392  -2.1240  -1.9350  -1.9152
    -1.7939  -1.6153  -1.5658  -1.4677  -1.4673  -1.3245  -0.9937  -0.9854
    -0.8425  -0.7719  -0.7105  -0.6334  -0.5613  -0.3333  -0.0836  -0.0767
    -0.0219   0.2113   0.2255   0.5074   0.5863   0.7111   0.8319   0.9370
     1.0076   1.2454   1.4048   1.5747   1.6281   1.8126   1.8283   2.0257
     2.0398   2.5150   2.7891   3.1613   4.5424   4.7491   4.9611   5.9133
     6.1320

          k = 0.0598-0.0502 0.0000 ( 31839 PWs)   bands (ev):

   -71.7791 -71.7613 -71.4700 -71.4526 -71.1299 -71.1119 -42.4157 -42.3942
   -41.6460 -41.6456 -41.6260 -41.4583 -41.4284 -41.3325 -41.3138 -41.2737
   -41.2698 -41.2577 -41.2478 -41.0845 -41.0687 -41.0498 -41.0106 -40.9917
    -5.5871  -4.7519  -4.4545  -4.3760  -4.2911  -4.1904  -4.1535  -4.0748
    -4.0259  -3.8857  -3.8391  -3.8237  -3.4164  -3.4149  -3.2672  -3.2390
    -3.1861  -3.1126  -3.0047  -2.9230  -2.8436  -2.7393  -2.6538  -2.5608
    -2.4837  -2.4685  -2.3654  -2.2019  -2.1499  -2.0334  -1.8828  -1.8341
    -1.7787  -1.5393  -1.5050  -1.4286  -1.3841  -1.2290  -0.9734  -0.8853
    -0.8308  -0.6981  -0.6323  -0.5884  -0.3651  -0.3073  -0.0821   0.0335
     0.1348   0.2333   0.3677   0.4932   0.5840   0.7359   0.8324   0.9389
     1.0190   1.2478   1.4780   1.5870   1.6256   1.8474   1.8531   1.9984
     2.3502   2.6252   3.2578   3.2967   4.1229   4.2888   5.0962   5.1679
     6.2270

          k = 0.0598-0.0335 0.0000 ( 31836 PWs)   bands (ev):

   -71.7791 -71.7613 -71.4700 -71.4526 -71.1299 -71.1119 -42.4156 -42.3942
   -41.6459 -41.6452 -41.6260 -41.4584 -41.4284 -41.3323 -41.3138 -41.2737
   -41.2696 -41.2577 -41.2478 -41.0845 -41.0684 -41.0497 -41.0105 -40.9917
    -5.7689  -4.7782  -4.5423  -4.4523  -4.3747  -4.2396  -4.2279  -4.1348
    -4.1239  -3.9866  -3.9197  -3.9094  -3.4800  -3.4007  -3.2797  -3.2514
    -3.2355  -3.1021  -2.9783  -2.9606  -2.8214  -2.7790  -2.6912  -2.5017
    -2.4919  -2.4404  -2.3262  -2.1390  -2.0457  -1.9470  -1.8664  -1.7660
    -1.7275  -1.5235  -1.4706  -1.3512  -1.3141  -1.0993  -0.9807  -0.8406
    -0.7882  -0.6000  -0.5890  -0.5059  -0.3896  -0.0508   0.0300   0.1514
     0.2750   0.3098   0.5365   0.5801   0.6725   0.7890   0.8738   0.9157
     1.1021   1.2417   1.5302   1.5451   1.6614   1.8074   1.8379   2.0053
     2.2353   3.1082   3.2586   3.5719   3.8716   4.0781   4.2828   5.8024
     6.0137

          k = 0.0598-0.0167 0.0000 ( 31837 PWs)   bands (ev):

   -71.7791 -71.7613 -71.4700 -71.4526 -71.1299 -71.1119 -42.4156 -42.3942
   -41.6457 -41.6450 -41.6259 -41.4584 -41.4283 -41.3322 -41.3137 -41.2737
   -41.2695 -41.2577 -41.2478 -41.0845 -41.0682 -41.0497 -41.0105 -40.9917
    -5.8859  -4.7709  -4.6094  -4.5203  -4.4311  -4.3004  -4.2696  -4.1734
    -4.1630  -4.0582  -3.9744  -3.9695  -3.5329  -3.3971  -3.3126  -3.2550
    -3.2469  -3.0930  -3.0323  -2.9494  -2.8285  -2.7848  -2.7301  -2.4990
    -2.4570  -2.4203  -2.3137  -2.0928  -1.9693  -1.8839  -1.8649  -1.7492
    -1.6825  -1.5104  -1.4652  -1.2769  -1.2529  -1.0294  -0.9734  -0.8539
    -0.7313  -0.5430  -0.5159  -0.4505  -0.3954  -0.0033   0.2055   0.2745
     0.3502   0.4239   0.5862   0.6802   0.7747   0.8885   0.9250   1.0919
     1.2323   1.3185   1.5173   1.5747   1.6697   1.7428   1.8100   2.0744
     2.1684   2.4406   3.2508   3.5833   3.9728   4.0835   4.7895   5.4386
     5.9280

          k = 0.0598 0.0000 0.0000 ( 31837 PWs)   bands (ev):

   -71.7791 -71.7613 -71.4700 -71.4526 -71.1299 -71.1119 -42.4156 -42.3942
   -41.6457 -41.6448 -41.6259 -41.4584 -41.4283 -41.3322 -41.3137 -41.2736
   -41.2694 -41.2577 -41.2478 -41.0845 -41.0681 -41.0497 -41.0105 -40.9917
    -5.9261  -4.7569  -4.6339  -4.5559  -4.4508  -4.3281  -4.2801  -4.1868
    -4.1677  -4.0897  -3.9966  -3.9859  -3.5542  -3.3975  -3.3246  -3.2511
    -3.2454  -3.0875  -3.0741  -2.9367  -2.8405  -2.7815  -2.7440  -2.5014
    -2.4407  -2.4127  -2.3112  -2.0754  -1.9394  -1.8658  -1.8606  -1.7547
    -1.6691  -1.5026  -1.4601  -1.2657  -1.2082  -1.0173  -0.9657  -0.8622
    -0.7160  -0.5243  -0.4729  -0.4412  -0.3903   0.0197   0.2168   0.3637
     0.3948   0.4450   0.5995   0.6805   0.8204   0.8791   1.0191   1.2109
     1.2848   1.4536   1.5969   1.6579   1.6769   1.6991   1.8082   1.9282
     2.1488   2.2175   2.8718   3.5158   4.0483   4.6418   5.1324   5.1732
     5.5030

          k = 0.0598 0.0167 0.0000 ( 31837 PWs)   bands (ev):

   -71.7791 -71.7613 -71.4700 -71.4526 -71.1299 -71.1119 -42.4156 -42.3942
   -41.6457 -41.6450 -41.6259 -41.4584 -41.4283 -41.3322 -41.3137 -41.2737
   -41.2695 -41.2577 -41.2478 -41.0845 -41.0682 -41.0497 -41.0105 -40.9917
    -5.8859  -4.7709  -4.6094  -4.5203  -4.4311  -4.3004  -4.2696  -4.1734
    -4.1630  -4.0582  -3.9744  -3.9695  -3.5329  -3.3971  -3.3125  -3.2550
    -3.2469  -3.0930  -3.0323  -2.9494  -2.8285  -2.7848  -2.7301  -2.4991
    -2.4570  -2.4203  -2.3137  -2.0928  -1.9693  -1.8839  -1.8649  -1.7492
    -1.6825  -1.5104  -1.4652  -1.2769  -1.2529  -1.0293  -0.9734  -0.8539
    -0.7313  -0.5430  -0.5159  -0.4505  -0.3954  -0.0033   0.2055   0.2745
     0.3502   0.4239   0.5862   0.6802   0.7747   0.8885   0.9250   1.0919
     1.2323   1.3185   1.5173   1.5747   1.6697   1.7428   1.8100   2.0744
     2.1684   2.4406   3.2508   3.5833   3.9728   4.0835   4.7895   5.4386
     5.9283

          k = 0.0748 0.0418 0.0000 ( 31816 PWs)   bands (ev):

   -71.7748 -71.7656 -71.4658 -71.4568 -71.1255 -71.1162 -42.4105 -42.3994
   -41.6407 -41.6308 -41.6010 -41.5040 -41.3853 -41.3279 -41.3183 -41.2925
   -41.2690 -41.2614 -41.2253 -41.1295 -41.0641 -41.0544 -41.0060 -40.9963
    -5.3895  -4.8438  -4.3079  -4.2788  -4.1976  -4.1028  -4.0234  -4.0030
    -3.9456  -3.8618  -3.7596  -3.7075  -3.3775  -3.3723  -3.2283  -3.2173
    -3.1578  -3.0903  -3.0120  -2.9066  -2.8801  -2.7564  -2.7542  -2.6134
    -2.5375  -2.5081  -2.4749  -2.3739  -2.3592  -2.1591  -2.0063  -1.9635
    -1.7875  -1.7773  -1.6036  -1.5414  -1.3514  -1.2570  -0.9103  -0.8681
    -0.8499  -0.7393  -0.5658  -0.3142  -0.2377  -0.1764  -0.0095   0.0139
     0.1440   0.2256   0.3931   0.4406   0.5624   0.5876   0.6851   0.8511
     0.8602   0.9239   1.4325   1.4754   1.6281   1.6590   1.8334   1.9171
     2.4592   2.9878   3.3177   3.3901   4.1063   4.2339   4.5656   5.8179
     5.9304

          k = 0.0748 0.0586 0.0000 ( 31839 PWs)   bands (ev):

   -71.7748 -71.7656 -71.4658 -71.4568 -71.1255 -71.1162 -42.4105 -42.3994
   -41.6410 -41.6307 -41.6012 -41.5039 -41.3854 -41.3280 -41.3183 -41.2925
   -41.2691 -41.2614 -41.2255 -41.1295 -41.0643 -41.0544 -41.0060 -40.9963
    -5.2166  -4.8798  -4.2489  -4.2426  -4.1249  -4.0719  -3.9938  -3.9303
    -3.8914  -3.7531  -3.7017  -3.6861  -3.4395  -3.3705  -3.2731  -3.1755
    -3.1154  -3.0858  -3.0064  -2.9005  -2.8845  -2.7590  -2.7260  -2.6439
[...]
     0.8993   0.9794   1.3522   1.4855   1.4974   1.7428   1.8262   1.8462
     2.0182   2.6285   2.8015   3.0419   4.5944   4.9170   5.3740   5.3741
     6.0029

          k = 0.0748 0.0920 0.0000 ( 31782 PWs)   bands (ev):

   -71.7748 -71.7656 -71.4658 -71.4568 -71.1255 -71.1162 -42.4106 -42.3994
   -41.6414 -41.6306 -41.6014 -41.5038 -41.3855 -41.3282 -41.3183 -41.2924
   -41.2691 -41.2613 -41.2256 -41.1294 -41.0646 -41.0543 -41.0060 -40.9963
    -4.8945  -4.8804  -4.2162  -4.1511  -3.9896  -3.9611  -3.9343  -3.8400
    -3.8245  -3.7496  -3.7150  -3.5451  -3.5281  -3.4148  -3.2979  -3.2034
    -3.0645  -3.0027  -2.9514  -2.9147  -2.9107  -2.8792  -2.8376  -2.7002
    -2.6992  -2.5797  -2.5173  -2.4731  -2.4195  -2.2070  -2.0737  -2.0456
    -2.0237  -1.7893  -1.6079  -1.5533  -1.4574  -1.4158  -1.0514  -0.9062
    -0.8779  -0.8174  -0.5952  -0.4925  -0.4547  -0.1794  -0.0974  -0.0302
     0.0627   0.1343   0.4760   0.4919   0.6050   0.6715   0.8608   0.8827
     0.9921   1.0473   1.2488   1.4210   1.5042   1.5940   1.7194   1.7501
     1.8251   2.3494   2.7446   3.2070   4.1708   5.2100   5.8249   5.8320
     6.5614

          k = 0.0748 0.1088 0.0000 ( 31782 PWs)   bands (ev):

   -71.7748 -71.7656 -71.4658 -71.4568 -71.1255 -71.1162 -42.4106 -42.3994
   -41.6414 -41.6306 -41.6014 -41.5038 -41.3855 -41.3282 -41.3183 -41.2924
   -41.2691 -41.2613 -41.2256 -41.1294 -41.0646 -41.0543 -41.0060 -40.9963
    -4.8945  -4.8804  -4.2162  -4.1511  -3.9896  -3.9611  -3.9343  -3.8400
    -3.8245  -3.7496  -3.7150  -3.5451  -3.5281  -3.4148  -3.2979  -3.2034
    -3.0645  -3.0027  -2.9514  -2.9147  -2.9107  -2.8792  -2.8376  -2.7002
    -2.6992  -2.5797  -2.5173  -2.4731  -2.4195  -2.2070  -2.0737  -2.0456
    -2.0237  -1.7893  -1.6079  -1.5533  -1.4574  -1.4158  -1.0514  -0.9062
    -0.8779  -0.8174  -0.5952  -0.4925  -0.4547  -0.1794  -0.0974  -0.0302
     0.0627   0.1343   0.4760   0.4919   0.6050   0.6715   0.8608   0.8827
     0.9921   1.0473   1.2488   1.4210   1.5042   1.5940   1.7194   1.7501
     1.8251   2.3494   2.7446   3.2070   4.1708   5.2100   5.8249   5.8320
     6.5615

          k = 0.0748 0.1255 0.0000 ( 31814 PWs)   bands (ev):

   -71.7748 -71.7656 -71.4658 -71.4568 -71.1255 -71.1162 -42.4106 -42.3994
   -41.6413 -41.6306 -41.6013 -41.5039 -41.3854 -41.3281 -41.3183 -41.2924
   -41.2691 -41.2614 -41.2256 -41.1294 -41.0645 -41.0543 -41.0060 -40.9963
    -5.0254  -4.8930  -4.2179  -4.1887  -4.0462  -4.0197  -3.9619  -3.8710
    -3.8398  -3.7070  -3.7068  -3.6125  -3.5062  -3.3888  -3.2988  -3.1826
    -3.0757  -3.0392  -2.9990  -2.9199  -2.8847  -2.8198  -2.7605  -2.6608
    -2.6145  -2.5998  -2.5087  -2.4842  -2.4264  -2.2008  -2.0638  -1.9986
    -1.9731  -1.7843  -1.6198  -1.5489  -1.4261  -1.3835  -1.0114  -0.9423
    -0.8447  -0.7828  -0.5664  -0.5276  -0.4418  -0.1480  -0.1267  -0.0103
     0.0982   0.1904   0.3295   0.4974   0.6089   0.6143   0.6766   0.8551
     0.8993   0.9794   1.3522   1.4855   1.4974   1.7428   1.8262   1.8462
     2.0182   2.6285   2.8015   3.0419   4.5944   4.9170   5.3740   5.3741
     6.0029

          k = 0.0748-0.0586 0.0000 ( 31839 PWs)   bands (ev):

   -71.7748 -71.7656 -71.4658 -71.4568 -71.1255 -71.1162 -42.4105 -42.3994
   -41.6410 -41.6307 -41.6012 -41.5039 -41.3854 -41.3280 -41.3183 -41.2925
   -41.2691 -41.2614 -41.2255 -41.1295 -41.0643 -41.0544 -41.0060 -40.9963
    -5.2166  -4.8798  -4.2489  -4.2426  -4.1249  -4.0719  -3.9938  -3.9303
    -3.8914  -3.7531  -3.7017  -3.6861  -3.4395  -3.3705  -3.2731  -3.1755
    -3.1154  -3.0858  -3.0064  -2.9005  -2.8845  -2.7590  -2.7260  -2.6439
    -2.5662  -2.5427  -2.4819  -2.4440  -2.4225  -2.1953  -2.0405  -1.9735
    -1.8661  -1.7780  -1.6220  -1.5480  -1.3859  -1.3298  -0.9415  -0.9404
    -0.7991  -0.7879  -0.5607  -0.4602  -0.3969  -0.1554  -0.0769   0.0482
     0.0522   0.2741   0.2804   0.4926   0.5193   0.5500   0.6241   0.8458
     0.8677   0.9535   1.4327   1.4570   1.5617   1.7179   1.8591   1.8801
     2.5265   2.7346   2.9066   3.3894   4.1154   4.9149   5.0610   5.2262
     5.5918

          k = 0.0748-0.0418 0.0000 ( 31816 PWs)   bands (ev):

   -71.7748 -71.7656 -71.4658 -71.4568 -71.1255 -71.1162 -42.4105 -42.3994
   -41.6407 -41.6308 -41.6010 -41.5040 -41.3853 -41.3279 -41.3183 -41.2925
   -41.2690 -41.2614 -41.2253 -41.1295 -41.0641 -41.0544 -41.0060 -40.9963
    -5.3895  -4.8438  -4.3079  -4.2788  -4.1976  -4.1028  -4.0234  -4.0030
    -3.9456  -3.8618  -3.7596  -3.7075  -3.3775  -3.3723  -3.2283  -3.2172
    -3.1578  -3.0903  -3.0120  -2.9066  -2.8801  -2.7564  -2.7542  -2.6134
    -2.5375  -2.5081  -2.4749  -2.3739  -2.3592  -2.1591  -2.0063  -1.9635
    -1.7875  -1.7773  -1.6037  -1.5414  -1.3514  -1.2570  -0.9103  -0.8681
    -0.8500  -0.7393  -0.5658  -0.3142  -0.2377  -0.1764  -0.0095   0.0139
     0.1440   0.2256   0.3931   0.4406   0.5624   0.5876   0.6851   0.8511
     0.8602   0.9239   1.4325   1.4753   1.6281   1.6590   1.8334   1.9171
     2.4592   2.9878   3.3177   3.3901   4.1063   4.2339   4.5656   5.8179
     5.9304

          k = 0.0748-0.0251 0.0000 ( 31834 PWs)   bands (ev):

   -71.7748 -71.7656 -71.4658 -71.4568 -71.1256 -71.1162 -42.4105 -42.3994
   -41.6405 -41.6308 -41.6009 -41.5040 -41.3853 -41.3278 -41.3183 -41.2925
   -41.2690 -41.2614 -41.2252 -41.1296 -41.0639 -41.0544 -41.0060 -40.9963
    -5.5150  -4.7828  -4.3608  -4.3107  -4.2493  -4.1212  -4.0766  -4.0482
    -3.9856  -3.9469  -3.8171  -3.7334  -3.3892  -3.3425  -3.2801  -3.1977
    -3.1673  -3.0854  -2.9959  -2.9404  -2.8809  -2.7990  -2.7983  -2.5670
    -2.5645  -2.4815  -2.4683  -2.3173  -2.2854  -2.1071  -1.9702  -1.9694
    -1.7917  -1.7863  -1.5665  -1.4739  -1.3340  -1.2177  -0.9143  -0.8544
    -0.7950  -0.6862  -0.5511  -0.2278  -0.1752  -0.0524  -0.0257   0.0826
     0.2158   0.2408   0.4442   0.4626   0.6180   0.7166   0.8476   0.8548
     0.9038   0.9918   1.4162   1.5122   1.5797   1.6612   1.7847   1.9466
     2.3426   2.5079   3.1538   3.6586   4.0082   4.3237   4.9631   5.3281
     6.2586

          k = 0.0748-0.0084 0.0000 ( 31800 PWs)   bands (ev):

   -71.7748 -71.7656 -71.4658 -71.4568 -71.1256 -71.1162 -42.4104 -42.3995
   -41.6403 -41.6309 -41.6008 -41.5041 -41.3852 -41.3278 -41.3183 -41.2925
   -41.2690 -41.2614 -41.2252 -41.1296 -41.0637 -41.0544 -41.0060 -40.9963
    -5.5804  -4.7197  -4.4129  -4.3287  -4.2752  -4.1426  -4.1082  -4.0629
    -4.0057  -3.9878  -3.8557  -3.7477  -3.4153  -3.3330  -3.3077  -3.1858
    -3.1507  -3.0706  -2.9992  -2.9711  -2.8986  -2.8389  -2.8124  -2.5827
    -2.5349  -2.4713  -2.4674  -2.2871  -2.2378  -2.0688  -1.9824  -1.9498
    -1.8263  -1.7981  -1.5330  -1.3856  -1.3309  -1.2368  -0.9242  -0.8460
    -0.7491  -0.6315  -0.5395  -0.1779  -0.1489  -0.0895   0.0090   0.1780
     0.2329   0.3133   0.4479   0.4696   0.6511   0.7873   0.8522   0.9479
     1.0918   1.2951   1.3563   1.5380   1.6282   1.6774   1.7362   1.8716
     1.9784   2.2830   2.7152   3.7126   4.0669   4.8629   4.9439   5.6503
     6.0142

          k = 0.0748 0.0084 0.0000 ( 31800 PWs)   bands (ev):

   -71.7748 -71.7656 -71.4658 -71.4568 -71.1256 -71.1162 -42.4104 -42.3995
   -41.6403 -41.6309 -41.6008 -41.5041 -41.3852 -41.3278 -41.3183 -41.2925
   -41.2690 -41.2614 -41.2252 -41.1296 -41.0637 -41.0544 -41.0060 -40.9963
    -5.5804  -4.7197  -4.4129  -4.3287  -4.2752  -4.1426  -4.1082  -4.0629
    -4.0057  -3.9878  -3.8557  -3.7477  -3.4153  -3.3330  -3.3077  -3.1858
    -3.1507  -3.0706  -2.9992  -2.9711  -2.8986  -2.8389  -2.8124  -2.5827
    -2.5349  -2.4713  -2.4674  -2.2871  -2.2378  -2.0688  -1.9824  -1.9498
    -1.8263  -1.7981  -1.5330  -1.3856  -1.3309  -1.2368  -0.9242  -0.8460
    -0.7491  -0.6315  -0.5395  -0.1779  -0.1489  -0.0895   0.0090   0.1780
     0.2329   0.3133   0.4479   0.4696   0.6511   0.7873   0.8522   0.9479
     1.0918   1.2951   1.3563   1.5380   1.6282   1.6774   1.7362   1.8716
     1.9784   2.2830   2.7152   3.7126   4.0669   4.8629   4.9439   5.6503
     6.0142

          k = 0.0748 0.0251 0.0000 ( 31834 PWs)   bands (ev):

   -71.7748 -71.7656 -71.4658 -71.4568 -71.1256 -71.1162 -42.4105 -42.3994
   -41.6405 -41.6308 -41.6009 -41.5040 -41.3853 -41.3278 -41.3183 -41.2925
   -41.2690 -41.2614 -41.2252 -41.1296 -41.0639 -41.0544 -41.0060 -40.9963
    -5.5150  -4.7828  -4.3608  -4.3107  -4.2493  -4.1212  -4.0766  -4.0482
    -3.9856  -3.9469  -3.8171  -3.7334  -3.3892  -3.3425  -3.2801  -3.1977
    -3.1673  -3.0854  -2.9959  -2.9404  -2.8809  -2.7990  -2.7983  -2.5670
    -2.5645  -2.4815  -2.4683  -2.3173  -2.2854  -2.1071  -1.9702  -1.9694
    -1.7917  -1.7863  -1.5665  -1.4739  -1.3340  -1.2177  -0.9143  -0.8545
    -0.7950  -0.6862  -0.5511  -0.2278  -0.1752  -0.0524  -0.0257   0.0826
     0.2158   0.2408   0.4442   0.4626   0.6180   0.7166   0.8476   0.8548
     0.9038   0.9918   1.4162   1.5122   1.5797   1.6612   1.7847   1.9466
     2.3426   2.5079   3.1538   3.6586   4.0082   4.3237   4.9632   5.3281
     6.2584

          k =-0.0898-0.0502 0.0000 ( 31834 PWs)   bands (ev):

   -71.7704 -71.7700 -71.4615 -71.4611 -71.1209 -71.1208 -42.4050 -42.4049
   -41.6361 -41.6356 -41.5529 -41.5524 -41.3391 -41.3387 -41.3234 -41.3229
   -41.2654 -41.2653 -41.1776 -41.1775 -41.0593 -41.0592 -41.0012 -41.0011
    -5.0554  -5.0554  -4.2256  -4.2256  -4.0929  -4.0929  -3.9311  -3.9311
    -3.7447  -3.7447  -3.6671  -3.6671  -3.4799  -3.4799  -3.1575  -3.1575
    -3.1071  -3.1071  -2.9390  -2.9390  -2.7949  -2.7949  -2.6684  -2.6684
    -2.6107  -2.6106  -2.5154  -2.5153  -2.4308  -2.4307  -2.0509  -2.0508
    -1.8514  -1.8513  -1.6003  -1.6002  -1.3324  -1.3324  -0.9143  -0.9142
    -0.8112  -0.8111  -0.4322  -0.4321  -0.1762  -0.1761   0.0124   0.0124
     0.2378   0.2378   0.3570   0.3573   0.4737   0.4738   0.6122   0.6123
     0.8352   0.8353   1.4273   1.4274   1.6156   1.6157   1.8681   1.8681
     2.7287   2.7287   3.3468   3.3469   4.1836   4.1837   5.2013   5.2015
     6.0031

          k =-0.0898-0.0335 0.0000 ( 31797 PWs)   bands (ev):

   -71.7704 -71.7700 -71.4615 -71.4611 -71.1209 -71.1208 -42.4050 -42.4049
   -41.6361 -41.6355 -41.5529 -41.5524 -41.3391 -41.3387 -41.3234 -41.3229
   -41.2654 -41.2653 -41.1777 -41.1775 -41.0594 -41.0591 -41.0012 -41.0011
    -5.1527  -4.9292  -4.2361  -4.2063  -4.1000  -4.0762  -3.9408  -3.9262
    -3.8054  -3.7146  -3.7027  -3.6424  -3.4847  -3.4662  -3.2199  -3.1289
    -3.0983  -3.0874  -2.9383  -2.9374  -2.8126  -2.8111  -2.6968  -2.6807
    -2.6148  -2.6106  -2.5637  -2.4604  -2.4442  -2.3977  -2.0510  -2.0417
    -1.9122  -1.8386  -1.5899  -1.5715  -1.3572  -1.3166  -0.9292  -0.8936
    -0.8603  -0.7514  -0.5064  -0.3162  -0.1869  -0.1829  -0.0029   0.0682
     0.2267   0.2636   0.2857   0.3825   0.4725   0.5842   0.6554   0.6714
     0.8411   0.8586   1.4072   1.4544   1.5215   1.6683   1.8258   1.8916
     2.5525   2.5991   2.9583   3.4850   4.0938   4.8571   5.0977   5.2498
     5.5984

          k =-0.0898-0.0167 0.0000 ( 31818 PWs)   bands (ev):

   -71.7704 -71.7700 -71.4615 -71.4611 -71.1209 -71.1208 -42.4051 -42.4049
   -41.6362 -41.6354 -41.5529 -41.5524 -41.3391 -41.3387 -41.3234 -41.3229
   -41.2654 -41.2653 -41.1777 -41.1774 -41.0595 -41.0591 -41.0012 -41.0011
    -5.2125  -4.8011  -4.2523  -4.1861  -4.0941  -4.0587  -3.9532  -3.9242
    -3.8750  -3.7332  -3.7050  -3.6290  -3.4794  -3.4616  -3.2769  -3.1433
    -3.0708  -3.0385  -2.9430  -2.9245  -2.8531  -2.8492  -2.7524  -2.7045
    -2.6733  -2.5863  -2.5529  -2.4653  -2.4167  -2.3519  -2.0599  -2.0202
    -1.9689  -1.8785  -1.5382  -1.5365  -1.3815  -1.3270  -0.9599  -0.8683
    -0.8496  -0.7080  -0.5242  -0.2775  -0.2049  -0.1579   0.0202   0.1243
     0.1852   0.2665   0.3382   0.3387   0.4796   0.7091   0.7333   0.8488
     0.8939   1.0208   1.3330   1.4731   1.4799   1.6929   1.7801   1.8615
     1.9670   2.5081   2.6733   3.3658   4.6363   4.6877   5.0092   5.9251
     6.0133

          k =-0.0898 0.0000 0.0000 ( 31806 PWs)   bands (ev):

   -71.7704 -71.7700 -71.4615 -71.4611 -71.1209 -71.1208 -42.4051 -42.4049
   -41.6362 -41.6354 -41.5529 -41.5524 -41.3391 -41.3387 -41.3234 -41.3229
   -41.2654 -41.2653 -41.1778 -41.1774 -41.0595 -41.0590 -41.0012 -41.0011
    -5.2325  -4.7382  -4.2703  -4.1785  -4.0873  -4.0512  -3.9560  -3.9239
    -3.9068  -3.7450  -3.7038  -3.6242  -3.4761  -3.4631  -3.3017  -3.1508
    -3.0416  -3.0167  -2.9519  -2.9118  -2.8795  -2.8769  -2.7741  -2.7157
    -2.7036  -2.5700  -2.5489  -2.4690  -2.4071  -2.3256  -2.0738  -2.0045
    -1.9878  -1.9069  -1.5210  -1.5029  -1.3953  -1.3427  -0.9703  -0.8694
    -0.8238  -0.6915  -0.5242  -0.2856  -0.2109  -0.1382   0.0371   0.1502
     0.1644   0.2809   0.3223   0.3305   0.5071   0.7207   0.8056   0.8519
     1.0627   1.2337   1.3035   1.4738   1.4903   1.5877   1.7054   1.7542
     1.7984   2.4380   2.4767   3.4820   4.4275   4.6167   5.7648   5.8974
     6.3192

          k =-0.0898 0.0167 0.0000 ( 31818 PWs)   bands (ev):

   -71.7704 -71.7700 -71.4615 -71.4611 -71.1209 -71.1208 -42.4051 -42.4049
   -41.6362 -41.6354 -41.5529 -41.5524 -41.3391 -41.3387 -41.3234 -41.3229
   -41.2654 -41.2653 -41.1777 -41.1774 -41.0595 -41.0591 -41.0012 -41.0011
    -5.2125  -4.8011  -4.2523  -4.1861  -4.0941  -4.0587  -3.9532  -3.9242
    -3.8750  -3.7332  -3.7050  -3.6289  -3.4794  -3.4616  -3.2769  -3.1433
    -3.0708  -3.0385  -2.9430  -2.9245  -2.8531  -2.8492  -2.7524  -2.7045
    -2.6733  -2.5863  -2.5529  -2.4653  -2.4167  -2.3519  -2.0599  -2.0201
    -1.9689  -1.8785  -1.5382  -1.5365  -1.3815  -1.3270  -0.9599  -0.8683
    -0.8496  -0.7080  -0.5242  -0.2775  -0.2049  -0.1579   0.0202   0.1243
     0.1852   0.2665   0.3382   0.3387   0.4796   0.7091   0.7333   0.8488
     0.8940   1.0208   1.3330   1.4731   1.4799   1.6929   1.7801   1.8615
     1.9670   2.5081   2.6733   3.3658   4.6363   4.6877   5.0092   5.9251
     6.0134

          k =-0.0898 0.0335 0.0000 ( 31797 PWs)   bands (ev):

   -71.7704 -71.7700 -71.4615 -71.4611 -71.1209 -71.1208 -42.4050 -42.4049
   -41.6361 -41.6355 -41.5529 -41.5524 -41.3391 -41.3387 -41.3234 -41.3229
   -41.2654 -41.2653 -41.1777 -41.1775 -41.0594 -41.0591 -41.0012 -41.0011
    -5.1527  -4.9292  -4.2361  -4.2063  -4.1000  -4.0762  -3.9408  -3.9262
    -3.8054  -3.7146  -3.7027  -3.6424  -3.4847  -3.4662  -3.2199  -3.1289
    -3.0983  -3.0874  -2.9383  -2.9374  -2.8126  -2.8111  -2.6968  -2.6807
    -2.6148  -2.6106  -2.5637  -2.4604  -2.4442  -2.3977  -2.0510  -2.0417
    -1.9122  -1.8386  -1.5899  -1.5715  -1.3572  -1.3166  -0.9292  -0.8936
    -0.8603  -0.7514  -0.5064  -0.3162  -0.1869  -0.1829  -0.0029   0.0682
     0.2267   0.2636   0.2857   0.3825   0.4725   0.5842   0.6554   0.6714
     0.8411   0.8586   1.4072   1.4544   1.5215   1.6683   1.8258   1.8916
     2.5525   2.5991   2.9583   3.4850   4.0938   4.8571   5.0977   5.2498
     5.5984

          k =-0.0898-0.1506 0.0000 ( 31834 PWs)   bands (ev):

   -71.7704 -71.7700 -71.4615 -71.4611 -71.1209 -71.1208 -42.4050 -42.4049
   -41.6361 -41.6356 -41.5529 -41.5524 -41.3391 -41.3387 -41.3234 -41.3229
   -41.2654 -41.2653 -41.1776 -41.1775 -41.0593 -41.0592 -41.0012 -41.0011
    -5.0554  -5.0554  -4.2256  -4.2255  -4.0929  -4.0929  -3.9311  -3.9311
    -3.7447  -3.7447  -3.6671  -3.6671  -3.4799  -3.4799  -3.1575  -3.1575
    -3.1071  -3.1071  -2.9390  -2.9390  -2.7949  -2.7949  -2.6684  -2.6684
    -2.6107  -2.6106  -2.5154  -2.5153  -2.4308  -2.4306  -2.0509  -2.0508
    -1.8514  -1.8513  -1.6003  -1.6002  -1.3324  -1.3324  -0.9143  -0.9142
    -0.8111  -0.8111  -0.4322  -0.4321  -0.1762  -0.1761   0.0124   0.0124
     0.2378   0.2378   0.3570   0.3572   0.4737   0.4738   0.6122   0.6123
     0.8352   0.8353   1.4273   1.4274   1.6156   1.6157   1.8680   1.8681
     2.7287   2.7288   3.3468   3.3469   4.1836   4.1837   5.2014   5.2015
     6.0032

     the Fermi energy is     1.3202 ev

!    total energy              =   -1706.86979200 Ry
     estimated scf accuracy    <       0.00000377 Ry
     smearing contrib. (-TS)   =      -0.06628252 Ry
     internal energy E=F+TS    =   -1706.80350948 Ry

     The total energy is F=E-TS. E is the sum of the following terms:
     one-electron contribution =  -13869.64809967 Ry
     hartree contribution      =    6977.43036525 Ry
     xc contribution           =    -379.09001133 Ry
     ewald contribution        =    5564.50423536 Ry
     electric field correction =       0.00000090 Ry

     convergence has been achieved in  17 iterations

     negative rho (up, down):  1.507E-03 0.000E+00

     Forces acting on atoms (cartesian axes, Ry/au):

     atom    1 type  1   force =     0.00000531    0.02896467    0.03265748
     atom    2 type  1   force =     0.00000313    0.02900878    0.03270607
     atom    3 type  2   force =    -0.00006089   -0.01149360   -0.04642437
     atom    4 type  2   force =     0.00005801   -0.01149636   -0.04642648
     atom    5 type  1   force =     0.00000061   -0.02791356    0.00211353
     atom    6 type  1   force =     0.00000228   -0.02796527    0.00220818
     atom    7 type  2   force =     0.00003223    0.00993827    0.00961253
     atom    8 type  2   force =    -0.00003483    0.00994376    0.00961083
     atom    9 type  1   force =    -0.00000092    0.00093018   -0.00076440
     atom   10 type  1   force =    -0.00000234    0.00103090   -0.00093332
     atom   11 type  2   force =    -0.00002410   -0.00046907    0.00281951
     atom   12 type  2   force =     0.00002151   -0.00047870    0.00282045

     Total force =     0.101805     Total SCF correction =     0.009720

     Writing output data file ./Ru2Au2/Ru2Au2_beef.save/

     init_run     :     88.82s CPU     89.37s WALL (       1 calls)
     electrons    :   3299.74s CPU   3316.26s WALL (       1 calls)
     forces       :     61.40s CPU     61.67s WALL (       1 calls)

     Called by init_run:
     wfcinit      :     77.40s CPU     77.70s WALL (       1 calls)
     potinit      :      7.76s CPU      7.84s WALL (       1 calls)
     hinit0       :      1.96s CPU      1.97s WALL (       1 calls)

     Called by electrons:
     c_bands      :   2894.98s CPU   2904.32s WALL (      17 calls)
     sum_band     :    369.33s CPU    372.97s WALL (      17 calls)
     v_of_rho     :     24.48s CPU     25.70s WALL (      18 calls)
     newd         :     17.47s CPU     19.77s WALL (      18 calls)
     mix_rho      :      0.69s CPU      0.70s WALL (      17 calls)
     vdW_kernel   :      5.70s CPU      5.71s WALL (       1 calls)

     Called by c_bands:
     init_us_2    :     12.76s CPU     12.85s WALL (    2664 calls)
     cegterg      :   2864.66s CPU   2872.31s WALL (    1258 calls)

     Called by *egterg:
     cdiaghg      :    123.80s CPU    123.84s WALL (    4850 calls)
     h_psi        :   1488.52s CPU   1495.14s WALL (    4924 calls)
     s_psi        :    512.79s CPU    512.90s WALL (    4924 calls)
     g_psi        :      1.05s CPU      1.06s WALL (    3592 calls)

     Called by h_psi:
     h_psi:calbec :    512.84s CPU    513.62s WALL (    4924 calls)
     vloc_psi     :    441.39s CPU    447.06s WALL (    4924 calls)
     add_vuspsi   :    527.67s CPU    527.80s WALL (    4924 calls)

     General routines
     calbec       :    794.91s CPU    796.10s WALL (    6478 calls)
     fft          :     13.68s CPU     14.12s WALL (    1193 calls)
     ffts         :      0.06s CPU      0.06s WALL (      35 calls)
     fftw         :    516.55s CPU    523.01s WALL (  668310 calls)
     interpolate  :      0.25s CPU      0.26s WALL (      18 calls)

     Parallel routines
     fft_scatt_xy :     43.72s CPU     44.24s WALL (  669538 calls)
     fft_scatt_yz :     85.41s CPU     87.00s WALL (  669538 calls)

     PWSCF        :  57m39.79s CPU  58m17.35s WALL


   This run was terminated on:  20:35:36  10Jul2022            

=------------------------------------------------------------------------------=
   JOB DONE.
=------------------------------------------------------------------------------=
