
     Program PWSCF v.6.6 starts on 10Jul2022 at 18:43:43 

     This program is part of the open-source Quantum ESPRESSO suite
     for quantum simulation of materials; please cite
         "P. Giannozzi et al., J. Phys.:Condens. Matter 21 395502 (2009);
         "P. Giannozzi et al., J. Phys.:Condens. Matter 29 465901 (2017);
          URL http://www.quantum-espresso.org", 
     in publications or presentations arising from this work. More details at
     http://www.quantum-espresso.org/quote

     Parallel version (MPI), running on    37 processors

     MPI processes distributed on     1 nodes
     R & G space division:  proc/nbgrp/npool/nimage =      37
     Fft bands division:     nmany     =       1
     Reading input from Ru2Ag2.in
Warning: card &CELL ignored
Warning: card / ignored

     Current dimensions of program PWSCF are:
     Max number of different atomic species (ntypx) = 10
     Max number of k-points (npk) =  40000
     Max angular momentum in pseudopotentials (lmaxx) =  3
     Presently stress not available with electric field and gates

     Message from routine cell_base_init:
     DEPRECATED: use true lattice parameter, not A to a.u. conversion factor

     **************************************************************************
     Initializing libbeef V0.1.2 with the BEEF-vdW functional.
     Citation: Wellendorff et al., PRB 85, 235149 (2012).
     **************************************************************************


     IMPORTANT: XC functional enforced from input :
     Exchange-correlation= BEEF-VDW
                           (   1   4  43  14   2   0   0)
     Any further DFT definition will be discarded
     Please, verify this is what you really want


     Subspace diagonalization in iterative solution of the eigenvalue problem:
     a serial algorithm will be used


     Parallelization info
     --------------------
     sticks:   dense  smooth     PW     G-vecs:    dense   smooth      PW
     Min         118      47     13                27484     6949    1073
     Max         119      48     14                27509     6972    1096
     Sum        4391    1753    509              1017457   257359   40127



     bravais-lattice index     =            0
     lattice parameter (alat)  =       1.8897  a.u.
     unit-cell volume          =    4654.9781 (a.u.)^3
     number of atoms/cell      =           12
     number of atomic types    =            2
     number of electrons       =       162.00
     number of Kohn-Sham states=           97
     kinetic-energy cutoff     =      55.1240  Ry
     charge density cutoff     =     551.2396  Ry
     convergence threshold     =      1.0E-05
     mixing beta               =       0.1000
     number of iterations used =           10  plain     mixing
     Exchange-correlation= BEEF-VDW
                           (   1   4  43  14   2   0   0)

     celldm(1)=   1.889726  celldm(2)=   0.000000  celldm(3)=   0.000000
     celldm(4)=   0.000000  celldm(5)=   0.000000  celldm(6)=   0.000000

     crystal axes: (cart. coord. in units of alat)
               a(1) = (   5.333386   0.000000   0.000000 )  
               a(2) = (  -2.666693   5.258263   0.000000 )  
               a(3) = (   0.000000   0.000000  24.596641 )  

     reciprocal axes: (cart. coord. in units 2 pi/alat)
               b(1) = (  0.187498  0.095088 -0.000000 )  
               b(2) = (  0.000000  0.190177  0.000000 )  
               b(3) = (  0.000000 -0.000000  0.040656 )  


     PseudoPot. # 1 for Ru read from file:
     ../pseudo/Ru.pbe-spn-rrkjus_psl.1.0.0.UPF
     MD5 check sum: fbaca725316a1a65f98761fd4ac95971
     Pseudo is Ultrasoft + core correction, Zval = 16.0
     Generated using "atomic" code by A. Dal Corso v.6.2.2
     Using radial grid of 1233 points,  6 beta functions with: 
                l(1) =   0
                l(2) =   0
                l(3) =   1
                l(4) =   1
                l(5) =   2
                l(6) =   2
     Q(r) pseudized with 0 coefficients 


     PseudoPot. # 2 for Ag read from file:
     ../pseudo/Ag.pbe-n-rrkjus_psl.1.0.0.UPF
     MD5 check sum: d841cbfac2b0861aec33b46768a516bf
     Pseudo is Ultrasoft + core correction, Zval = 11.0
     Generated using "atomic" code by A. Dal Corso v.6.2.2
     Using radial grid of 1237 points,  6 beta functions with: 
                l(1) =   0
                l(2) =   0
                l(3) =   1
                l(4) =   1
                l(5) =   2
                l(6) =   2
     Q(r) pseudized with 0 coefficients 


     atomic species   valence    mass     pseudopotential
        Ru            16.00   101.07000     Ru( 1.00)
        Ag            11.00   107.86820     Ag( 1.00)

     No symmetry found



   Cartesian axes

     site n.     atom                  positions (alat units)
         1           Ru  tau(   1) = (   0.0000000   0.0000000  10.0000000  )
         2           Ru  tau(   2) = (   2.6666930   0.0000000  10.0000000  )
         3           Ag  tau(   3) = (   1.3333465   2.6291313  10.0000000  )
         4           Ag  tau(   4) = (  -1.3333465   2.6291313  10.0000000  )
         5           Ru  tau(   5) = (   2.6666930   1.3523957  12.2983206  )
         6           Ru  tau(   6) = (  -0.0000000   1.3523957  12.2983206  )
         7           Ag  tau(   7) = (  -1.3333465   3.9815270  12.2983206  )
         8           Ag  tau(   8) = (   1.3333465   3.9815270  12.2983206  )
         9           Ru  tau(   9) = (  -0.0000719   2.2558345  14.4115061  )
        10           Ru  tau(  10) = (   2.6666204   2.2558283  14.4114769  )
        11           Ag  tau(  11) = (   1.3330281   4.9642737  14.9022461  )
        12           Ag  tau(  12) = (  -1.3334494   4.9642743  14.9022451  )

     number of k points=    74  Fermi-Dirac smearing, width (Ry)=  0.0100
                       cart. coord. in units 2pi/alat
        k(    1) = (   0.0000000   0.0000000   0.0000000), wk =   0.0138889
        k(    2) = (   0.0000000   0.0158481   0.0000000), wk =   0.0277778
        k(    3) = (   0.0000000   0.0316961   0.0000000), wk =   0.0277778
        k(    4) = (   0.0000000   0.0475442   0.0000000), wk =   0.0277778
        k(    5) = (   0.0000000   0.0633923   0.0000000), wk =   0.0277778
        k(    6) = (   0.0000000   0.0792404   0.0000000), wk =   0.0277778
        k(    7) = (   0.0000000  -0.0950884   0.0000000), wk =   0.0138889
        k(    8) = (   0.0156248   0.0079240   0.0000000), wk =   0.0277778
        k(    9) = (   0.0156248   0.0237721   0.0000000), wk =   0.0277778
        k(   10) = (   0.0156248   0.0396202   0.0000000), wk =   0.0277778
        k(   11) = (   0.0156248   0.0554683   0.0000000), wk =   0.0277778
        k(   12) = (   0.0156248   0.0713163   0.0000000), wk =   0.0277778
        k(   13) = (   0.0156248   0.0871644   0.0000000), wk =   0.0277778
        k(   14) = (   0.0156248  -0.0871644   0.0000000), wk =   0.0277778
        k(   15) = (   0.0156248  -0.0713163   0.0000000), wk =   0.0277778
        k(   16) = (   0.0156248  -0.0554683   0.0000000), wk =   0.0277778
        k(   17) = (   0.0156248  -0.0396202   0.0000000), wk =   0.0277778
        k(   18) = (   0.0156248  -0.0237721   0.0000000), wk =   0.0277778
        k(   19) = (   0.0156248  -0.0079240   0.0000000), wk =   0.0277778
        k(   20) = (   0.0312497   0.0158481   0.0000000), wk =   0.0277778
        k(   21) = (   0.0312497   0.0316961   0.0000000), wk =   0.0277778
        k(   22) = (   0.0312497   0.0475442   0.0000000), wk =   0.0277778
        k(   23) = (   0.0312497   0.0633923   0.0000000), wk =   0.0277778
        k(   24) = (   0.0312497   0.0792404   0.0000000), wk =   0.0277778
        k(   25) = (   0.0312497   0.0950884   0.0000000), wk =   0.0277778
        k(   26) = (   0.0312497  -0.0792404   0.0000000), wk =   0.0277778
        k(   27) = (   0.0312497  -0.0633923   0.0000000), wk =   0.0277778
        k(   28) = (   0.0312497  -0.0475442   0.0000000), wk =   0.0277778
        k(   29) = (   0.0312497  -0.0316961   0.0000000), wk =   0.0277778
        k(   30) = (   0.0312497  -0.0158481   0.0000000), wk =   0.0277778
        k(   31) = (   0.0312497  -0.0000000   0.0000000), wk =   0.0277778
        k(   32) = (   0.0468745   0.0237721   0.0000000), wk =   0.0277778
        k(   33) = (   0.0468745   0.0396202   0.0000000), wk =   0.0277778
        k(   34) = (   0.0468745   0.0554683   0.0000000), wk =   0.0277778
        k(   35) = (   0.0468745   0.0713163   0.0000000), wk =   0.0277778
        k(   36) = (   0.0468745   0.0871644   0.0000000), wk =   0.0277778
        k(   37) = (   0.0468745   0.1030125   0.0000000), wk =   0.0277778
        k(   38) = (   0.0468745  -0.0713163   0.0000000), wk =   0.0277778
        k(   39) = (   0.0468745  -0.0554683   0.0000000), wk =   0.0277778
        k(   40) = (   0.0468745  -0.0396202   0.0000000), wk =   0.0277778
        k(   41) = (   0.0468745  -0.0237721   0.0000000), wk =   0.0277778
        k(   42) = (   0.0468745  -0.0079240   0.0000000), wk =   0.0277778
        k(   43) = (   0.0468745   0.0079240   0.0000000), wk =   0.0277778
        k(   44) = (   0.0624994   0.0316961   0.0000000), wk =   0.0277778
        k(   45) = (   0.0624994   0.0475442   0.0000000), wk =   0.0277778
        k(   46) = (   0.0624994   0.0633923   0.0000000), wk =   0.0277778
        k(   47) = (   0.0624994   0.0792404   0.0000000), wk =   0.0277778
        k(   48) = (   0.0624994   0.0950884   0.0000000), wk =   0.0277778
        k(   49) = (   0.0624994   0.1109365   0.0000000), wk =   0.0277778
        k(   50) = (   0.0624994  -0.0633923   0.0000000), wk =   0.0277778
        k(   51) = (   0.0624994  -0.0475442   0.0000000), wk =   0.0277778
        k(   52) = (   0.0624994  -0.0316961   0.0000000), wk =   0.0277778
        k(   53) = (   0.0624994  -0.0158481   0.0000000), wk =   0.0277778
        k(   54) = (   0.0624994   0.0000000   0.0000000), wk =   0.0277778
        k(   55) = (   0.0624994   0.0158481   0.0000000), wk =   0.0277778
        k(   56) = (   0.0781242   0.0396202   0.0000000), wk =   0.0277778
        k(   57) = (   0.0781242   0.0554683   0.0000000), wk =   0.0277778
        k(   58) = (   0.0781242   0.0713163   0.0000000), wk =   0.0277778
        k(   59) = (   0.0781242   0.0871644   0.0000000), wk =   0.0277778
        k(   60) = (   0.0781242   0.1030125   0.0000000), wk =   0.0277778
        k(   61) = (   0.0781242   0.1188605   0.0000000), wk =   0.0277778
        k(   62) = (   0.0781242  -0.0554683   0.0000000), wk =   0.0277778
        k(   63) = (   0.0781242  -0.0396202   0.0000000), wk =   0.0277778
        k(   64) = (   0.0781242  -0.0237721   0.0000000), wk =   0.0277778
        k(   65) = (   0.0781242  -0.0079240   0.0000000), wk =   0.0277778
        k(   66) = (   0.0781242   0.0079240   0.0000000), wk =   0.0277778
        k(   67) = (   0.0781242   0.0237721   0.0000000), wk =   0.0277778
        k(   68) = (  -0.0937491  -0.0475442   0.0000000), wk =   0.0138889
        k(   69) = (  -0.0937491  -0.0316961   0.0000000), wk =   0.0277778
        k(   70) = (  -0.0937491  -0.0158481   0.0000000), wk =   0.0277778
        k(   71) = (  -0.0937491   0.0000000   0.0000000), wk =   0.0277778
        k(   72) = (  -0.0937491   0.0158481   0.0000000), wk =   0.0277778
        k(   73) = (  -0.0937491   0.0316961   0.0000000), wk =   0.0277778
        k(   74) = (  -0.0937491  -0.1426327   0.0000000), wk =   0.0138889

     Dense  grid:  1017457 G-vectors     FFT dimensions: (  75,  90, 360)

     Smooth grid:   257359 G-vectors     FFT dimensions: (  48,  54, 225)

     Estimated max dynamical RAM per process >     206.55 MB

     Estimated total dynamical RAM >       7.46 GB

     Initial potential from superposition of free atoms

     starting charge  161.99378, renormalised to  162.00000

     negative rho (up, down):  1.360E-03 0.000E+00


     %%%%%%%%%%%%%%%%%%%%%%%%%%%%%%%%%%%%%%%%%%%%%%%%%%%%%%%%%%%%%%%%%%%%%%%%
     %                                                                      %
     % You are using vdW-DF, which was implemented by the Thonhauser group. %
     % Please cite the following two papers that made this development      %
     % possible and the two reviews that describe the various versions:     %
     %                                                                      %
     %   T. Thonhauser et al., PRL 115, 136402 (2015).                      %
     %   T. Thonhauser et al., PRB 76, 125112 (2007).                       %
     %   K. Berland et al., Rep. Prog. Phys. 78, 066501 (2015).             %
     %   D.C. Langreth et al., J. Phys.: Condens. Matter 21, 084203 (2009). %
     %                                                                      %
     %                                                                      %
     % If you are calculating the stress with vdW-DF, please also cite:     %
     %                                                                      %
     %   R. Sabatini et al., J. Phys.: Condens. Matter 24, 424209 (2012).   %
     %                                                                      %
     %%%%%%%%%%%%%%%%%%%%%%%%%%%%%%%%%%%%%%%%%%%%%%%%%%%%%%%%%%%%%%%%%%%%%%%%



     Adding external electric field

     Computed dipole along edir(3) : 
        Dipole               -0.0000 Ry au,         -0.0001 Debye
        Dipole field         -0.0000 Ry au, 

        Potential amp.        0.0000 Ry
        Total length         45.3189 bohr

     Starting wfcs are  114 randomized atomic wfcs

     total cpu time spent up to now is       93.4 secs

     Self-consistent Calculation

     iteration #  1     ecut=    55.12 Ry     beta= 0.10
     Davidson diagonalization with overlap
     ethr =  1.00E-02,  avg # of iterations =  5.0

     negative rho (up, down):  1.269E-03 0.000E+00

     Adding external electric field

     Computed dipole along edir(3) : 
        Dipole                0.1983 Ry au,          0.5040 Debye
        Dipole field          0.0005 Ry au, 

        Potential amp.       -0.0485 Ry
        Total length         45.3189 bohr


     total cpu time spent up to now is      319.5 secs

     total energy              =   -1697.98275444 Ry
     estimated scf accuracy    <       3.44200554 Ry

     iteration #  2     ecut=    55.12 Ry     beta= 0.10
     Davidson diagonalization with overlap
     ethr =  2.12E-03,  avg # of iterations =  1.9

     negative rho (up, down):  1.254E-03 0.000E+00

     Adding external electric field

     Computed dipole along edir(3) : 
        Dipole               -0.3139 Ry au,         -0.7978 Debye
        Dipole field         -0.0008 Ry au, 

        Potential amp.        0.0768 Ry
        Total length         45.3189 bohr


     total cpu time spent up to now is      514.4 secs

     total energy              =   -1698.03790135 Ry
     estimated scf accuracy    <       1.69620715 Ry

     iteration #  3     ecut=    55.12 Ry     beta= 0.10
     Davidson diagonalization with overlap
     ethr =  1.05E-03,  avg # of iterations =  2.1

     negative rho (up, down):  1.248E-03 0.000E+00

     Adding external electric field

     Computed dipole along edir(3) : 
        Dipole                0.2459 Ry au,          0.6250 Debye
        Dipole field          0.0007 Ry au, 

        Potential amp.       -0.0602 Ry
        Total length         45.3189 bohr


     total cpu time spent up to now is      714.1 secs

     total energy              =   -1697.89280037 Ry
     estimated scf accuracy    <      13.73766448 Ry

     iteration #  4     ecut=    55.12 Ry     beta= 0.10
     Davidson diagonalization with overlap
     ethr =  1.05E-03,  avg # of iterations =  1.6

     negative rho (up, down):  1.244E-03 0.000E+00

     Adding external electric field

     Computed dipole along edir(3) : 
        Dipole                0.1058 Ry au,          0.2688 Debye
        Dipole field          0.0003 Ry au, 

        Potential amp.       -0.0259 Ry
        Total length         45.3189 bohr


     total cpu time spent up to now is      896.2 secs

     total energy              =   -1698.11615347 Ry
     estimated scf accuracy    <       2.42136588 Ry

     iteration #  5     ecut=    55.12 Ry     beta= 0.10
     Davidson diagonalization with overlap
     ethr =  1.05E-03,  avg # of iterations =  1.3

     negative rho (up, down):  1.249E-03 0.000E+00

     Adding external electric field

     Computed dipole along edir(3) : 
        Dipole                0.0711 Ry au,          0.1807 Debye
        Dipole field          0.0002 Ry au, 

        Potential amp.       -0.0174 Ry
        Total length         45.3189 bohr


     total cpu time spent up to now is     1070.5 secs

     total energy              =   -1698.16140155 Ry
     estimated scf accuracy    <       0.06965403 Ry

     iteration #  6     ecut=    55.12 Ry     beta= 0.10
     Davidson diagonalization with overlap
     c_bands:  1 eigenvalues not converged
     c_bands:  1 eigenvalues not converged
     c_bands:  1 eigenvalues not converged
     ethr =  4.30E-05,  avg # of iterations = 10.6

     negative rho (up, down):  1.296E-03 0.000E+00

     Adding external electric field

     Computed dipole along edir(3) : 
        Dipole                0.0628 Ry au,          0.1595 Debye
        Dipole field          0.0002 Ry au, 

        Potential amp.       -0.0154 Ry
        Total length         45.3189 bohr


     total cpu time spent up to now is     1296.8 secs

     total energy              =   -1698.15822400 Ry
     estimated scf accuracy    <       0.03239141 Ry

     iteration #  7     ecut=    55.12 Ry     beta= 0.10
     Davidson diagonalization with overlap
     ethr =  2.00E-05,  avg # of iterations =  5.2

     negative rho (up, down):  1.357E-03 0.000E+00

     Adding external electric field

     Computed dipole along edir(3) : 
        Dipole                0.0805 Ry au,          0.2045 Debye
        Dipole field          0.0002 Ry au, 

        Potential amp.       -0.0197 Ry
        Total length         45.3189 bohr


     total cpu time spent up to now is     1512.8 secs

     total energy              =   -1698.15958308 Ry
     estimated scf accuracy    <       0.01003197 Ry

     iteration #  8     ecut=    55.12 Ry     beta= 0.10
     Davidson diagonalization with overlap
     ethr =  6.19E-06,  avg # of iterations =  7.0

     negative rho (up, down):  1.410E-03 0.000E+00

     Adding external electric field

     Computed dipole along edir(3) : 
        Dipole                0.0756 Ry au,          0.1922 Debye
        Dipole field          0.0002 Ry au, 

        Potential amp.       -0.0185 Ry
        Total length         45.3189 bohr


     total cpu time spent up to now is     1740.2 secs

     total energy              =   -1698.15928319 Ry
     estimated scf accuracy    <       0.00773347 Ry

     iteration #  9     ecut=    55.12 Ry     beta= 0.10
     Davidson diagonalization with overlap
     ethr =  4.77E-06,  avg # of iterations =  2.0

     negative rho (up, down):  1.399E-03 0.000E+00

     Adding external electric field

     Computed dipole along edir(3) : 
        Dipole                0.0708 Ry au,          0.1800 Debye
        Dipole field          0.0002 Ry au, 

        Potential amp.       -0.0173 Ry
        Total length         45.3189 bohr


     total cpu time spent up to now is     1951.7 secs

     total energy              =   -1698.16032031 Ry
     estimated scf accuracy    <       0.00110809 Ry

     iteration # 10     ecut=    55.12 Ry     beta= 0.10
     Davidson diagonalization with overlap
     ethr =  6.84E-07,  avg # of iterations =  1.7

     negative rho (up, down):  1.381E-03 0.000E+00

     Adding external electric field

     Computed dipole along edir(3) : 
        Dipole                0.0678 Ry au,          0.1724 Debye
        Dipole field          0.0002 Ry au, 

        Potential amp.       -0.0166 Ry
        Total length         45.3189 bohr


     total cpu time spent up to now is     2143.6 secs

     total energy              =   -1698.16032006 Ry
     estimated scf accuracy    <       0.00051768 Ry

     iteration # 11     ecut=    55.12 Ry     beta= 0.10
     Davidson diagonalization with overlap
     ethr =  3.20E-07,  avg # of iterations =  2.1

     negative rho (up, down):  1.365E-03 0.000E+00

     Adding external electric field

     Computed dipole along edir(3) : 
        Dipole                0.0695 Ry au,          0.1766 Debye
        Dipole field          0.0002 Ry au, 

        Potential amp.       -0.0170 Ry
        Total length         45.3189 bohr


     total cpu time spent up to now is     2344.7 secs

     total energy              =   -1698.16035033 Ry
     estimated scf accuracy    <       0.00024568 Ry

     iteration # 12     ecut=    55.12 Ry     beta= 0.10
     Davidson diagonalization with overlap
     ethr =  1.52E-07,  avg # of iterations =  1.5

     negative rho (up, down):  1.359E-03 0.000E+00

     Adding external electric field

     Computed dipole along edir(3) : 
        Dipole                0.0708 Ry au,          0.1800 Debye
        Dipole field          0.0002 Ry au, 

        Potential amp.       -0.0173 Ry
        Total length         45.3189 bohr


     total cpu time spent up to now is     2525.8 secs

     total energy              =   -1698.16037865 Ry
     estimated scf accuracy    <       0.00010138 Ry

     iteration # 13     ecut=    55.12 Ry     beta= 0.10
     Davidson diagonalization with overlap
     ethr =  6.26E-08,  avg # of iterations =  2.1

     negative rho (up, down):  1.344E-03 0.000E+00

     Adding external electric field

     Computed dipole along edir(3) : 
        Dipole                0.0712 Ry au,          0.1810 Debye
        Dipole field          0.0002 Ry au, 

        Potential amp.       -0.0174 Ry
        Total length         45.3189 bohr


     total cpu time spent up to now is     2726.2 secs

     total energy              =   -1698.16038808 Ry
     estimated scf accuracy    <       0.00005524 Ry

     iteration # 14     ecut=    55.12 Ry     beta= 0.10
     Davidson diagonalization with overlap
     ethr =  3.41E-08,  avg # of iterations =  1.6

     negative rho (up, down):  1.329E-03 0.000E+00

     Adding external electric field

     Computed dipole along edir(3) : 
        Dipole                0.0706 Ry au,          0.1794 Debye
        Dipole field          0.0002 Ry au, 

        Potential amp.       -0.0173 Ry
        Total length         45.3189 bohr


     total cpu time spent up to now is     2908.1 secs

     total energy              =   -1698.16038817 Ry
     estimated scf accuracy    <       0.00002055 Ry

     iteration # 15     ecut=    55.12 Ry     beta= 0.10
     Davidson diagonalization with overlap
     ethr =  1.27E-08,  avg # of iterations =  2.4

     negative rho (up, down):  1.235E-03 0.000E+00

     Adding external electric field

     Computed dipole along edir(3) : 
        Dipole                0.0764 Ry au,          0.1942 Debye
        Dipole field          0.0002 Ry au, 

        Potential amp.       -0.0187 Ry
        Total length         45.3189 bohr


     total cpu time spent up to now is     3120.5 secs

     End of self-consistent calculation

          k = 0.0000 0.0000 0.0000 ( 32185 PWs)   bands (ev):

   -72.0255 -71.9645 -71.6960 -71.6355 -71.3772 -71.3151 -42.6168 -42.5496
   -42.1035 -41.8943 -41.8400 -41.7792 -41.7539 -41.5839 -41.5328 -41.5252
   -41.4763 -41.4228 -41.3399 -41.2870 -41.2265 -41.2031 -41.1888 -41.1460
    -5.6495  -5.0060  -5.0053  -4.8706  -4.8555  -4.7116  -4.6000  -4.5426
    -4.4643  -4.4441  -4.2473  -4.2252  -4.1484  -4.1206  -3.9118  -3.8909
    -3.7602  -3.5636  -3.3854  -3.3380  -3.0812  -3.0516  -2.9144  -2.8190
    -2.7194  -2.7133  -2.6557  -2.4510  -2.4302  -2.2892  -2.2486  -2.2407
    -2.1987  -2.0579  -2.0166  -1.9990  -1.9515  -1.4893  -1.3924  -1.2116
    -1.0272  -0.8088  -0.8063  -0.4483  -0.2560  -0.1937  -0.0658   0.0966
     0.1505   0.2500   0.3381   0.6806   0.8767   1.1937   1.2543   1.3041
     1.4359   1.4569   1.5610   1.5743   1.6571   1.9078   2.2395   2.2780
     2.4788   2.6022   2.7421   3.0527   3.4690   4.3963   4.4287   5.3348
     5.3827

          k = 0.0000 0.0158 0.0000 ( 32103 PWs)   bands (ev):

   -72.0255 -71.9645 -71.6960 -71.6355 -71.3772 -71.3151 -42.6168 -42.5496
   -42.1035 -41.8943 -41.8400 -41.7792 -41.7539 -41.5839 -41.5327 -41.5252
   -41.4762 -41.4228 -41.3399 -41.2870 -41.2265 -41.2031 -41.1888 -41.1460
    -5.6110  -4.9953  -4.9914  -4.8525  -4.8423  -4.7004  -4.5855  -4.5337
    -4.4459  -4.4159  -4.2329  -4.2066  -4.1330  -4.1005  -3.9119  -3.8631
    -3.7488  -3.5346  -3.3768  -3.3376  -3.0756  -3.0404  -2.9435  -2.8153
    -2.7171  -2.7075  -2.6746  -2.4583  -2.4249  -2.2846  -2.2741  -2.2451
    -2.1992  -2.0882  -2.0213  -1.9989  -1.9623  -1.5013  -1.4426  -1.1989
    -1.0782  -0.8487  -0.8078  -0.5234  -0.3355  -0.2346  -0.0714   0.0983
     0.1103   0.3228   0.3292   0.6113   0.7347   1.1783   1.1990   1.2204
     1.4123   1.4594   1.5148   1.5655   1.6476   1.8586   2.1060   2.2783
     2.3118   2.6646   2.7110   3.1189   3.8320   4.3512   4.4898   5.1094
     5.3868

          k = 0.0000 0.0317 0.0000 ( 32121 PWs)   bands (ev):

   -72.0255 -71.9645 -71.6960 -71.6355 -71.3772 -71.3151 -42.6169 -42.5496
   -42.1036 -41.8943 -41.8402 -41.7792 -41.7540 -41.5840 -41.5328 -41.5253
   -41.4762 -41.4228 -41.3399 -41.2871 -41.2266 -41.2031 -41.1888 -41.1460
    -5.5031  -4.9610  -4.9555  -4.8091  -4.7984  -4.6708  -4.5475  -4.5030
    -4.3936  -4.3365  -4.1927  -4.1495  -4.0929  -4.0429  -3.9129  -3.7794
    -3.7138  -3.4525  -3.3502  -3.3368  -3.0639  -3.0121  -3.0091  -2.8057
    -2.7249  -2.7191  -2.6909  -2.4790  -2.4103  -2.3511  -2.2721  -2.2576
    -2.2005  -2.1715  -2.0475  -1.9990  -1.9807  -1.5803  -1.5278  -1.2151
    -1.1959  -0.9583  -0.8236  -0.6865  -0.4706  -0.3902  -0.0867  -0.0678
     0.1137   0.3047   0.3101   0.4745   0.5208   1.0439   1.0494   1.1374
     1.2493   1.3848   1.4640   1.5399   1.5418   1.6234   1.8519   2.2787
     2.4554   2.6416   2.9721   3.3361   4.0582   4.2723   4.6533   5.2210
     5.5282

          k = 0.0000 0.0475 0.0000 ( 32113 PWs)   bands (ev):

   -72.0255 -71.9645 -71.6960 -71.6355 -71.3771 -71.3151 -42.6169 -42.5496
   -42.1037 -41.8943 -41.8404 -41.7793 -41.7540 -41.5840 -41.5328 -41.5253
   -41.4762 -41.4228 -41.3399 -41.2873 -41.2266 -41.2031 -41.1888 -41.1460
    -5.3546  -4.9098  -4.8948  -4.7659  -4.7130  -4.6340  -4.4992  -4.4414
    -4.3169  -4.2227  -4.1356  -4.0604  -4.0327  -3.9564  -3.9156  -3.6592
    -3.6482  -3.3350  -3.3333  -3.3023  -3.1159  -3.0234  -2.9676  -2.7937
    -2.7794  -2.7338  -2.6668  -2.5090  -2.4793  -2.3900  -2.2921  -2.2758
    -2.2550  -2.2021  -2.1085  -1.9991  -1.9970  -1.7712  -1.5629  -1.4010
    -1.2855  -1.0889  -0.8886  -0.8401  -0.6248  -0.5831  -0.3667  -0.1082
     0.0463   0.1305   0.2352   0.2580   0.3658   0.6562   0.8965   1.0831
     1.1454   1.3056   1.4649   1.5020   1.5393   1.5965   1.6260   2.2793
     2.5744   2.8551   3.1041   3.7544   3.8551   4.2103   4.8492   5.3852
     5.7244

          k = 0.0000 0.0634 0.0000 ( 32180 PWs)   bands (ev):

   -72.0255 -71.9645 -71.6960 -71.6355 -71.3771 -71.3151 -42.6170 -42.5497
   -42.1037 -41.8944 -41.8406 -41.7793 -41.7541 -41.5842 -41.5328 -41.5254
   -41.4763 -41.4228 -41.3399 -41.2875 -41.2267 -41.2031 -41.1888 -41.1460
    -5.2217  -4.8661  -4.8051  -4.6998  -4.6138  -4.6023  -4.4335  -4.3637
    -4.2357  -4.1005  -4.0735  -4.0081  -3.9201  -3.9030  -3.8647  -3.6056
    -3.5030  -3.3319  -3.2672  -3.2117  -3.1424  -2.9976  -2.9416  -2.7827
    -2.7823  -2.7685  -2.6410  -2.6390  -2.5377  -2.4291  -2.3697  -2.2968
    -2.2378  -2.2034  -2.2027  -2.0789  -1.9991  -1.9143  -1.6252  -1.5910
    -1.4451  -1.2610  -0.9938  -0.9418  -0.8180  -0.6764  -0.6520  -0.2000
    -0.1304  -0.1179   0.0483   0.1401   0.2982   0.3170   0.8046   1.0299
     1.0991   1.3294   1.4526   1.4677   1.5181   1.5778   1.7388   2.2798
     2.5289   3.1386   3.1453   3.6604   4.1713   4.1866   4.9964   5.5143
     5.9257

          k = 0.0000 0.0792 0.0000 ( 32160 PWs)   bands (ev):

   -72.0255 -71.9645 -71.6960 -71.6355 -71.3771 -71.3151 -42.6170 -42.5497
   -42.1038 -41.8944 -41.8407 -41.7794 -41.7542 -41.5842 -41.5328 -41.5254
   -41.4762 -41.4228 -41.3399 -41.2876 -41.2268 -41.2031 -41.1888 -41.1460
    -5.1466  -4.8343  -4.7589  -4.6095  -4.5721  -4.5311  -4.3248  -4.2944
    -4.1768  -4.0188  -4.0122  -3.9518  -3.9266  -3.8156  -3.7931  -3.5580
    -3.3918  -3.3284  -3.2915  -3.1422  -3.0610  -3.0084  -2.9382  -2.8402
    -2.7750  -2.7267  -2.7127  -2.6211  -2.5572  -2.5237  -2.3547  -2.3285
    -2.3157  -2.2253  -2.2241  -2.2038  -1.9991  -1.9469  -1.7347  -1.7299
    -1.5876  -1.4061  -1.0728  -1.0471  -0.8588  -0.8463  -0.7633  -0.5359
    -0.3070  -0.1470  -0.1158   0.1268   0.1444   0.3044   0.7441   0.9914
     1.0948   1.3163   1.4239   1.4564   1.4954   1.5693   2.0081   2.2801
     2.5054   2.9464   3.1592   3.9566   4.1507   4.5081   5.0614   5.1894
     6.0733

          k = 0.0000-0.0951 0.0000 ( 32132 PWs)   bands (ev):

   -72.0255 -71.9645 -71.6960 -71.6355 -71.3771 -71.3151 -42.6170 -42.5497
   -42.1038 -41.8944 -41.8408 -41.7794 -41.7542 -41.5842 -41.5328 -41.5255
   -41.4762 -41.4228 -41.3399 -41.2876 -41.2268 -41.2031 -41.1888 -41.1459
    -5.1244  -4.8225  -4.7478  -4.5908  -4.5456  -4.4982  -4.2732  -4.2319
    -4.1569  -3.9946  -3.9926  -3.9322  -3.8924  -3.8155  -3.7855  -3.5112
    -3.3758  -3.3268  -3.2484  -3.1379  -3.1368  -2.9552  -2.9416  -2.8749
    -2.7723  -2.6951  -2.6945  -2.6136  -2.5761  -2.5264  -2.3975  -2.3493
    -2.3240  -2.2923  -2.2208  -2.2036  -1.9991  -1.9557  -1.7884  -1.7791
    -1.6756  -1.4438  -1.1256  -0.9807  -0.9147  -0.8990  -0.8621  -0.6791
    -0.3424  -0.1770  -0.1532   0.0765   0.1457   0.3014   0.7210   0.9774
     1.0987   1.3107   1.4121   1.4525   1.4856   1.5672   2.1813   2.2803
     2.4985   2.7649   3.1626   4.1444   4.2354   4.6337   4.8894   5.0701
     6.1266

          k = 0.0156 0.0079 0.0000 ( 32136 PWs)   bands (ev):

   -72.0244 -71.9656 -71.6950 -71.6365 -71.3761 -71.3162 -42.6157 -42.5508
   -42.0941 -41.8851 -41.8390 -41.7802 -41.7446 -41.5829 -41.5428 -41.5262
   -41.4753 -41.4237 -41.3496 -41.2860 -41.2275 -41.2021 -41.1987 -41.1469
    -5.5913  -4.9797  -4.9686  -4.8447  -4.8067  -4.6667  -4.5772  -4.5253
    -4.4408  -4.4170  -4.2389  -4.2069  -4.1377  -4.0904  -3.8888  -3.8695
    -3.7488  -3.5479  -3.3822  -3.3202  -3.0699  -3.0532  -2.9577  -2.8206
    -2.7629  -2.6786  -2.6684  -2.4662  -2.4660  -2.3287  -2.2666  -2.2573
    -2.1785  -2.0524  -2.0288  -1.9651  -1.9124  -1.5319  -1.3983  -1.2197
    -1.0551  -0.8669  -0.8077  -0.5087  -0.2929  -0.2003  -0.1475   0.0484
     0.1760   0.2942   0.3327   0.6296   0.7960   1.0501   1.2146   1.2153
     1.4131   1.4280   1.4725   1.4910   1.5318   2.1121   2.2367   2.3165
     2.3850   2.5979   2.6962   2.9828   3.6881   3.9286   4.2826   5.1167
     5.3339

          k = 0.0156 0.0238 0.0000 ( 32125 PWs)   bands (ev):

   -72.0244 -71.9656 -71.6950 -71.6365 -71.3761 -71.3162 -42.6157 -42.5508
   -42.0941 -41.8851 -41.8390 -41.7803 -41.7446 -41.5829 -41.5428 -41.5263
   -41.4753 -41.4237 -41.3496 -41.2860 -41.2276 -41.2021 -41.1987 -41.1469
    -5.5160  -4.9536  -4.9476  -4.8090  -4.7817  -4.6444  -4.5507  -4.5081
    -4.4052  -4.3622  -4.2093  -4.1721  -4.1108  -4.0529  -3.8882  -3.8146
    -3.7259  -3.4925  -3.3651  -3.3197  -3.0637  -3.0317  -2.9942  -2.8356
    -2.7490  -2.7044  -2.6729  -2.4799  -2.4584  -2.3317  -2.2864  -2.2642
    -2.2035  -2.1150  -2.0303  -1.9770  -1.9242  -1.5515  -1.4927  -1.2181
    -1.1366  -0.9389  -0.8053  -0.6309  -0.4039  -0.2935  -0.1628  -0.0306
     0.1427   0.3133   0.3609   0.5285   0.5898   0.9884   1.0626   1.1055
     1.2917   1.4094   1.4726   1.4948   1.5452   1.8511   2.1960   2.2904
     2.2953   2.4272   2.8743   3.1704   3.8053   4.1066   4.5878   5.1928
     5.3696

          k = 0.0156 0.0396 0.0000 ( 32100 PWs)   bands (ev):

   -72.0244 -71.9656 -71.6950 -71.6365 -71.3761 -71.3162 -42.6157 -42.5508
   -42.0942 -41.8851 -41.8392 -41.7803 -41.7446 -41.5830 -41.5428 -41.5263
   -41.4753 -41.4237 -41.3496 -41.2862 -41.2276 -41.2021 -41.1987 -41.1469
    -5.3817  -4.9111  -4.9004  -4.7430  -4.7386  -4.6077  -4.5098  -4.4629
    -4.3394  -4.2640  -4.1575  -4.0990  -4.0669  -3.9832  -3.8878  -3.7067
    -3.6801  -3.3923  -3.3287  -3.3182  -3.0947  -3.0194  -2.9936  -2.8411
    -2.7607  -2.7350  -2.6716  -2.5053  -2.4472  -2.3961  -2.2983  -2.2796
    -2.2241  -2.2227  -2.0359  -2.0140  -1.9327  -1.6523  -1.5852  -1.3147
    -1.2380  -1.0425  -0.8327  -0.7957  -0.5245  -0.4945  -0.2822  -0.1824
     0.1271   0.1904   0.2728   0.4023   0.4176   0.7602   0.9292   1.0059
     1.1616   1.3628   1.4353   1.4990   1.5212   1.6068   1.8930   2.2397
     2.2662   2.7610   2.9982   3.5557   3.8338   4.0673   4.9105   5.3355
     5.4561

          k = 0.0156 0.0555 0.0000 ( 32124 PWs)   bands (ev):

   -72.0244 -71.9656 -71.6950 -71.6365 -71.3761 -71.3162 -42.6158 -42.5508
   -42.0942 -41.8852 -41.8394 -41.7803 -41.7447 -41.5831 -41.5428 -41.5264
   -41.4753 -41.4237 -41.3496 -41.2863 -41.2277 -41.2022 -41.1987 -41.1469
    -5.2318  -4.8650  -4.8168  -4.6967  -4.6434  -4.5724  -4.4560  -4.3910
    -4.2575  -4.1480  -4.0961  -4.0227  -3.9812  -3.8946  -3.8859  -3.6243
    -3.5663  -3.3161  -3.2749  -3.2704  -3.1643  -2.9965  -2.9571  -2.8447
    -2.7951  -2.7237  -2.6827  -2.5420  -2.5357  -2.4294  -2.3685  -2.2920
    -2.2901  -2.2352  -2.0942  -2.0291  -1.9672  -1.8120  -1.6436  -1.4828
    -1.3787  -1.1766  -0.9116  -0.9094  -0.7362  -0.6159  -0.5842  -0.2199
    -0.0676   0.0798   0.1125   0.1762   0.3305   0.4349   0.8176   1.0155
     1.0891   1.3055   1.3881   1.4847   1.5152   1.5909   1.7642   2.2457
     2.2491   3.0475   3.1421   3.6220   3.7727   4.2724   5.1208   5.5107
     5.5890

          k = 0.0156 0.0713 0.0000 ( 32170 PWs)   bands (ev):

   -72.0244 -71.9656 -71.6950 -71.6365 -71.3761 -71.3162 -42.6158 -42.5508
   -42.0943 -41.8852 -41.8396 -41.7804 -41.7448 -41.5832 -41.5428 -41.5264
   -41.4753 -41.4237 -41.3496 -41.2865 -41.2278 -41.2022 -41.1987 -41.1470
    -5.1262  -4.8259  -4.7333  -4.6196  -4.5497  -4.5473  -4.3645  -4.3162
    -4.1844  -4.0640  -4.0180  -3.9734  -3.9051  -3.8282  -3.8235  -3.5828
    -3.4350  -3.3123  -3.2875  -3.1725  -3.1155  -2.9766  -2.9455  -2.8746
    -2.7625  -2.7619  -2.7020  -2.6406  -2.5581  -2.4989  -2.4214  -2.3119
    -2.2930  -2.2481  -2.1923  -2.0870  -2.0287  -1.8653  -1.7399  -1.6449
    -1.5170  -1.3435  -1.0146  -0.9846  -0.9133  -0.7846  -0.6897  -0.3770
    -0.2405  -0.1546  -0.0907   0.1576   0.2148   0.3098   0.7516   0.9793
     1.0650   1.2762   1.3934   1.4813   1.4967   1.5224   1.9293   2.2407
     2.2638   3.0701   3.1719   3.6205   3.8182   4.6972   5.2090   5.4489
     5.7150

          k = 0.0156 0.0872 0.0000 ( 32177 PWs)   bands (ev):

   -72.0244 -71.9656 -71.6950 -71.6365 -71.3761 -71.3162 -42.6159 -42.5508
   -42.0943 -41.8852 -41.8397 -41.7804 -41.7448 -41.5832 -41.5428 -41.5265
   -41.4753 -41.4237 -41.3496 -41.2866 -41.2278 -41.2022 -41.1987 -41.1469
    -5.0801  -4.8032  -4.7042  -4.5509  -4.5386  -4.4848  -4.2726  -4.2267
    -4.1448  -4.0335  -3.9607  -3.9090  -3.8970  -3.8101  -3.7733  -3.5364
    -3.3778  -3.3096  -3.2733  -3.1406  -3.0836  -3.0165  -2.9489  -2.8949
    -2.8215  -2.7159  -2.6753  -2.6375  -2.5806  -2.5401  -2.4147  -2.3289
    -2.3279  -2.2925  -2.2429  -2.1658  -2.0302  -1.8758  -1.8154  -1.7567
    -1.6364  -1.4296  -1.1121  -1.0128  -0.9598  -0.8366  -0.7854  -0.6298
    -0.3295  -0.2045  -0.1876   0.1165   0.1569   0.3038   0.7125   0.9501
     1.0659   1.2634   1.3942   1.4606   1.4820   1.5045   2.0995   2.2380
     2.3339   2.9007   3.0789   3.6197   4.2028   4.9379   5.0337   5.2312
     5.7843

          k = 0.0156-0.0872 0.0000 ( 32177 PWs)   bands (ev):

   -72.0244 -71.9656 -71.6950 -71.6365 -71.3761 -71.3162 -42.6159 -42.5508
   -42.0943 -41.8852 -41.8397 -41.7804 -41.7448 -41.5832 -41.5428 -41.5265
   -41.4753 -41.4237 -41.3496 -41.2866 -41.2278 -41.2022 -41.1987 -41.1469
    -5.0801  -4.8032  -4.7042  -4.5509  -4.5386  -4.4848  -4.2726  -4.2267
    -4.1448  -4.0335  -3.9608  -3.9089  -3.8970  -3.8101  -3.7733  -3.5364
    -3.3778  -3.3096  -3.2733  -3.1406  -3.0836  -3.0165  -2.9489  -2.8949
    -2.8215  -2.7159  -2.6753  -2.6375  -2.5806  -2.5401  -2.4147  -2.3290
    -2.3279  -2.2925  -2.2429  -2.1658  -2.0302  -1.8758  -1.8154  -1.7567
    -1.6364  -1.4296  -1.1121  -1.0128  -0.9598  -0.8366  -0.7854  -0.6298
    -0.3295  -0.2045  -0.1876   0.1164   0.1569   0.3038   0.7125   0.9501
     1.0659   1.2634   1.3942   1.4606   1.4820   1.5045   2.0995   2.2380
     2.3339   2.9006   3.0789   3.6197   4.2028   4.9379   5.0337   5.2312
     5.7843

          k = 0.0156-0.0713 0.0000 ( 32170 PWs)   bands (ev):

   -72.0244 -71.9656 -71.6950 -71.6365 -71.3761 -71.3162 -42.6158 -42.5508
   -42.0943 -41.8852 -41.8396 -41.7804 -41.7448 -41.5832 -41.5428 -41.5264
   -41.4753 -41.4237 -41.3496 -41.2865 -41.2278 -41.2022 -41.1987 -41.1470
    -5.1262  -4.8259  -4.7333  -4.6196  -4.5497  -4.5473  -4.3645  -4.3162
    -4.1844  -4.0640  -4.0180  -3.9734  -3.9051  -3.8282  -3.8235  -3.5828
    -3.4350  -3.3123  -3.2875  -3.1725  -3.1155  -2.9766  -2.9455  -2.8746
    -2.7625  -2.7619  -2.7020  -2.6406  -2.5580  -2.4989  -2.4214  -2.3119
    -2.2931  -2.2481  -2.1923  -2.0870  -2.0287  -1.8653  -1.7399  -1.6450
    -1.5169  -1.3435  -1.0147  -0.9846  -0.9133  -0.7846  -0.6897  -0.3770
    -0.2405  -0.1546  -0.0907   0.1576   0.2148   0.3098   0.7516   0.9793
     1.0650   1.2762   1.3934   1.4813   1.4967   1.5224   1.9293   2.2407
     2.2638   3.0701   3.1719   3.6204   3.8182   4.6971   5.2090   5.4503
     5.7150

          k = 0.0156-0.0555 0.0000 ( 32124 PWs)   bands (ev):

   -72.0244 -71.9656 -71.6950 -71.6365 -71.3761 -71.3162 -42.6158 -42.5508
   -42.0942 -41.8852 -41.8394 -41.7803 -41.7447 -41.5831 -41.5428 -41.5264
   -41.4753 -41.4237 -41.3496 -41.2863 -41.2277 -41.2022 -41.1987 -41.1469
    -5.2318  -4.8650  -4.8168  -4.6967  -4.6434  -4.5724  -4.4560  -4.3910
    -4.2575  -4.1480  -4.0961  -4.0227  -3.9812  -3.8946  -3.8859  -3.6243
    -3.5663  -3.3161  -3.2749  -3.2704  -3.1643  -2.9965  -2.9571  -2.8447
    -2.7951  -2.7237  -2.6827  -2.5420  -2.5357  -2.4294  -2.3685  -2.2920
    -2.2901  -2.2352  -2.0942  -2.0291  -1.9672  -1.8120  -1.6436  -1.4828
    -1.3787  -1.1766  -0.9117  -0.9094  -0.7362  -0.6159  -0.5842  -0.2199
    -0.0676   0.0798   0.1126   0.1762   0.3305   0.4348   0.8176   1.0155
     1.0891   1.3055   1.3881   1.4848   1.5152   1.5909   1.7642   2.2457
     2.2492   3.0475   3.1421   3.6219   3.7727   4.2724   5.1208   5.5100
     5.5891

          k = 0.0156-0.0396 0.0000 ( 32100 PWs)   bands (ev):

   -72.0244 -71.9656 -71.6950 -71.6365 -71.3761 -71.3162 -42.6157 -42.5508
   -42.0942 -41.8851 -41.8392 -41.7803 -41.7446 -41.5830 -41.5428 -41.5263
   -41.4753 -41.4237 -41.3496 -41.2862 -41.2276 -41.2021 -41.1987 -41.1469
    -5.3817  -4.9111  -4.9004  -4.7430  -4.7386  -4.6077  -4.5098  -4.4629
    -4.3394  -4.2640  -4.1575  -4.0990  -4.0669  -3.9832  -3.8878  -3.7067
    -3.6801  -3.3923  -3.3287  -3.3182  -3.0947  -3.0194  -2.9936  -2.8411
    -2.7607  -2.7350  -2.6716  -2.5053  -2.4472  -2.3961  -2.2983  -2.2796
    -2.2241  -2.2227  -2.0359  -2.0139  -1.9327  -1.6523  -1.5852  -1.3147
    -1.2379  -1.0425  -0.8326  -0.7957  -0.5244  -0.4945  -0.2822  -0.1824
     0.1271   0.1903   0.2728   0.4024   0.4176   0.7602   0.9292   1.0059
     1.1616   1.3628   1.4353   1.4990   1.5212   1.6068   1.8930   2.2397
     2.2662   2.7611   2.9981   3.5556   3.8338   4.0673   4.9105   5.3362
     5.4565

          k = 0.0156-0.0238 0.0000 ( 32125 PWs)   bands (ev):

   -72.0244 -71.9656 -71.6950 -71.6365 -71.3761 -71.3162 -42.6157 -42.5508
   -42.0941 -41.8851 -41.8390 -41.7803 -41.7446 -41.5829 -41.5428 -41.5263
   -41.4753 -41.4237 -41.3496 -41.2860 -41.2276 -41.2021 -41.1987 -41.1469
    -5.5160  -4.9536  -4.9476  -4.8090  -4.7817  -4.6444  -4.5507  -4.5081
    -4.4052  -4.3622  -4.2093  -4.1721  -4.1108  -4.0528  -3.8882  -3.8146
    -3.7259  -3.4925  -3.3651  -3.3197  -3.0637  -3.0317  -2.9942  -2.8356
    -2.7490  -2.7044  -2.6729  -2.4799  -2.4584  -2.3317  -2.2864  -2.2642
    -2.2035  -2.1150  -2.0303  -1.9770  -1.9242  -1.5515  -1.4927  -1.2181
    -1.1366  -0.9389  -0.8053  -0.6309  -0.4039  -0.2935  -0.1628  -0.0306
     0.1427   0.3133   0.3609   0.5285   0.5898   0.9884   1.0626   1.1055
     1.2917   1.4094   1.4726   1.4948   1.5452   1.8511   2.1960   2.2905
     2.2953   2.4272   2.8742   3.1703   3.8053   4.1066   4.5879   5.1928
     5.3696

          k = 0.0156-0.0079 0.0000 ( 32136 PWs)   bands (ev):

   -72.0244 -71.9656 -71.6950 -71.6365 -71.3761 -71.3162 -42.6157 -42.5508
   -42.0941 -41.8851 -41.8390 -41.7802 -41.7446 -41.5829 -41.5428 -41.5262
   -41.4753 -41.4237 -41.3496 -41.2860 -41.2275 -41.2021 -41.1987 -41.1469
    -5.5913  -4.9797  -4.9686  -4.8447  -4.8067  -4.6667  -4.5772  -4.5253
    -4.4408  -4.4170  -4.2389  -4.2069  -4.1377  -4.0904  -3.8888  -3.8695
    -3.7488  -3.5479  -3.3822  -3.3202  -3.0699  -3.0532  -2.9577  -2.8206
    -2.7629  -2.6786  -2.6684  -2.4662  -2.4660  -2.3287  -2.2666  -2.2573
    -2.1785  -2.0524  -2.0288  -1.9651  -1.9124  -1.5319  -1.3983  -1.2198
    -1.0551  -0.8669  -0.8077  -0.5087  -0.2929  -0.2003  -0.1476   0.0484
     0.1761   0.2942   0.3327   0.6296   0.7960   1.0501   1.2146   1.2153
     1.4131   1.4280   1.4725   1.4910   1.5318   2.1121   2.2367   2.3166
     2.3850   2.5978   2.6962   2.9828   3.6881   3.9286   4.2827   5.1170
     5.3338

          k = 0.0312 0.0158 0.0000 ( 32138 PWs)   bands (ev):

   -72.0214 -71.9686 -71.6920 -71.6395 -71.3730 -71.3193 -42.6124 -42.5542
   -42.0663 -41.8581 -41.8360 -41.7833 -41.7171 -41.5800 -41.5721 -41.5292
   -41.4727 -41.4264 -41.3781 -41.2830 -41.2306 -41.2277 -41.1993 -41.1498
    -5.4205  -4.9044  -4.8622  -4.7686  -4.6667  -4.5494  -4.5109  -4.4579
    -4.3730  -4.3403  -4.2127  -4.1771  -4.0876  -4.0086  -3.8228  -3.8075
    -3.7133  -3.5039  -3.3773  -3.2689  -3.1082  -3.0579  -3.0056  -2.8899
    -2.7891  -2.7068  -2.6171  -2.5612  -2.5113  -2.4325  -2.3531  -2.2965
    -2.1096  -2.0974  -2.0504  -1.8365  -1.7662  -1.6755  -1.4159  -1.2595
    -1.1524  -1.0182  -0.8392  -0.6492  -0.4224  -0.2365  -0.2202  -0.0594
     0.1917   0.3137   0.3168   0.4976   0.6034   0.7687   0.9507   1.0963
     1.2166   1.2710   1.3533   1.3816   1.5800   1.7790   2.1211   2.4498
     2.4992   2.5969   2.7507   2.9512   3.1769   3.9407   4.1927   5.1022
     5.2525

          k = 0.0312 0.0317 0.0000 ( 32152 PWs)   bands (ev):

   -72.0214 -71.9686 -71.6920 -71.6395 -71.3730 -71.3193 -42.6124 -42.5542
   -42.0664 -41.8582 -41.8361 -41.7834 -41.7172 -41.5801 -41.5721 -41.5292
   -41.4727 -41.4264 -41.3781 -41.2831 -41.2307 -41.2278 -41.1993 -41.1498
    -5.3115  -4.8688  -4.8340  -4.7174  -4.6306  -4.5159  -4.4734  -4.4413
    -4.3235  -4.2645  -4.1738  -4.1286  -4.0532  -3.9632  -3.8200  -3.7305
    -3.6795  -3.4311  -3.3532  -3.2677  -3.1421  -3.0289  -2.9979  -2.9117
    -2.7909  -2.7531  -2.6157  -2.5540  -2.5295  -2.4334  -2.3635  -2.3018
    -2.1756  -2.1518  -2.1070  -1.8514  -1.7739  -1.7042  -1.5362  -1.2998
    -1.2415  -1.0752  -0.8173  -0.7764  -0.4928  -0.3619  -0.2989  -0.2873
     0.1532   0.2429   0.2730   0.4456   0.4763   0.6502   0.8409   0.9059
     1.1248   1.2144   1.3619   1.4250   1.6374   1.7217   1.9214   2.1428
     2.4608   2.7000   2.8479   2.9816   3.3254   4.3963   4.4070   5.0530
     5.3664

          k = 0.0312 0.0475 0.0000 ( 32155 PWs)   bands (ev):

   -72.0214 -71.9686 -71.6920 -71.6395 -71.3730 -71.3193 -42.6124 -42.5542
   -42.0664 -41.8582 -41.8363 -41.7834 -41.7172 -41.5801 -41.5721 -41.5293
   -41.4727 -41.4264 -41.3781 -41.2832 -41.2307 -41.2278 -41.1993 -41.1498
    -5.1587  -4.8230  -4.7781  -4.6344  -4.5887  -4.4656  -4.4375  -4.3913
    -4.2500  -4.1673  -4.1174  -4.0417  -4.0042  -3.8954  -3.8169  -3.6289
    -3.6122  -3.3293  -3.3119  -3.2645  -3.2010  -2.9919  -2.9912  -2.9216
    -2.8001  -2.7882  -2.6290  -2.5563  -2.5465  -2.4625  -2.3880  -2.3302
    -2.2760  -2.2622  -2.1101  -1.9013  -1.7865  -1.7585  -1.6687  -1.3940
    -1.3803  -1.1515  -0.9124  -0.8269  -0.6535  -0.5775  -0.5365  -0.3392
     0.0474   0.0674   0.2038   0.3020   0.3533   0.4592   0.7681   0.8784
     1.0451   1.1971   1.3292   1.4628   1.5782   1.7034   1.7107   2.0293
     2.1827   2.7364   2.9460   3.2092   4.0414   4.1166   4.5853   5.4193
     5.5328

          k = 0.0312 0.0634 0.0000 ( 32165 PWs)   bands (ev):

   -72.0214 -71.9686 -71.6920 -71.6395 -71.3730 -71.3193 -42.6125 -42.5542
   -42.0665 -41.8582 -41.8365 -41.7834 -41.7173 -41.5802 -41.5721 -41.5293
   -41.4727 -41.4264 -41.3781 -41.2834 -41.2308 -41.2277 -41.1993 -41.1498
    -5.0220  -4.7786  -4.6817  -4.5505  -4.5340  -4.4323  -4.3672  -4.3198
    -4.1723  -4.1026  -4.0346  -3.9526  -3.9144  -3.8244  -3.8083  -3.5871
    -3.4831  -3.3050  -3.2643  -3.2240  -3.2082  -2.9957  -2.9701  -2.9215
    -2.7995  -2.7917  -2.6622  -2.5827  -2.5795  -2.5352  -2.4595  -2.4025
    -2.3180  -2.3058  -2.1146  -1.9915  -1.8746  -1.8392  -1.7074  -1.5524
    -1.4858  -1.2813  -1.0499  -0.9125  -0.8669  -0.7287  -0.6249  -0.4054
    -0.1265  -0.1179  -0.0007   0.1772   0.3074   0.3236   0.7133   0.9089
     0.9983   1.1640   1.2822   1.4411   1.4715   1.6644   1.7023   1.9342
     2.2358   2.7595   2.9270   3.5034   3.8390   4.4850   4.8850   5.6808
     5.9410

          k = 0.0312 0.0792 0.0000 ( 32139 PWs)   bands (ev):

   -72.0214 -71.9686 -71.6920 -71.6395 -71.3730 -71.3193 -42.6125 -42.5542
   -42.0665 -41.8582 -41.8366 -41.7834 -41.7173 -41.5803 -41.5721 -41.5294
   -41.4727 -41.4263 -41.3781 -41.2835 -41.2308 -41.2278 -41.1993 -41.1498
    -4.9497  -4.7461  -4.5925  -4.5200  -4.4467  -4.4123  -4.2711  -4.2169
    -4.1198  -4.0703  -3.9487  -3.8954  -3.8434  -3.7940  -3.7554  -3.5727
    -3.3932  -3.3270  -3.2598  -3.1632  -3.1516  -3.0362  -2.9707  -2.9254
    -2.8569  -2.7595  -2.6983  -2.6234  -2.6010  -2.5611  -2.5245  -2.4064
    -2.3419  -2.3205  -2.1364  -2.0947  -1.9655  -1.9170  -1.7001  -1.6925
    -1.5773  -1.4063  -1.1897  -1.0635  -0.8705  -0.8115  -0.6514  -0.5254
    -0.2727  -0.2708  -0.1792   0.1728   0.2028   0.3151   0.6785   0.8820
     0.9839   1.1436   1.2546   1.3993   1.4666   1.5634   1.7079   1.9945
     2.3913   2.7756   2.9186   3.2353   4.1748   4.4880   5.3797   5.4791
     6.3183

          k = 0.0312 0.0951 0.0000 ( 32166 PWs)   bands (ev):

   -72.0214 -71.9686 -71.6920 -71.6395 -71.3730 -71.3193 -42.6125 -42.5542
   -42.0665 -41.8583 -41.8367 -41.7835 -41.7173 -41.5803 -41.5721 -41.5294
   -41.4726 -41.4263 -41.3781 -41.2836 -41.2309 -41.2278 -41.1993 -41.1498
    -4.9295  -4.7341  -4.5661  -4.5080  -4.4111  -4.4032  -4.2440  -4.1130
    -4.1046  -4.0583  -3.9128  -3.8536  -3.8442  -3.8090  -3.7237  -3.5611
    -3.3961  -3.2822  -3.2593  -3.1537  -3.1511  -3.0740  -2.9740  -2.9349
    -2.8928  -2.7514  -2.7059  -2.6110  -2.6043  -2.5761  -2.5071  -2.3994
    -2.3543  -2.3224  -2.2026  -2.1100  -1.9989  -1.9480  -1.7516  -1.6960
    -1.6246  -1.4540  -1.2389  -1.1209  -0.8285  -0.8284  -0.6933  -0.6007
    -0.3475  -0.3266  -0.2026   0.1663   0.1725   0.3133   0.6640   0.8631
     0.9828   1.1394   1.2463   1.3869   1.4628   1.5333   1.7109   2.0143
     2.5304   2.7819   2.9157   3.0333   4.4688   4.4823   5.0695   5.7022
     6.5170

          k = 0.0312-0.0792 0.0000 ( 32139 PWs)   bands (ev):

   -72.0214 -71.9686 -71.6920 -71.6395 -71.3730 -71.3193 -42.6125 -42.5542
   -42.0665 -41.8582 -41.8366 -41.7834 -41.7173 -41.5803 -41.5721 -41.5294
   -41.4727 -41.4263 -41.3781 -41.2835 -41.2308 -41.2278 -41.1993 -41.1498
    -4.9497  -4.7461  -4.5925  -4.5200  -4.4467  -4.4123  -4.2711  -4.2169
    -4.1198  -4.0703  -3.9487  -3.8954  -3.8434  -3.7940  -3.7554  -3.5727
    -3.3932  -3.3270  -3.2598  -3.1632  -3.1516  -3.0362  -2.9707  -2.9254
    -2.8568  -2.7595  -2.6983  -2.6234  -2.6010  -2.5611  -2.5245  -2.4065
    -2.3419  -2.3205  -2.1364  -2.0947  -1.9655  -1.9170  -1.7001  -1.6925
    -1.5773  -1.4063  -1.1897  -1.0635  -0.8705  -0.8115  -0.6514  -0.5254
    -0.2727  -0.2708  -0.1792   0.1728   0.2028   0.3151   0.6785   0.8820
     0.9839   1.1435   1.2546   1.3993   1.4666   1.5635   1.7079   1.9945
     2.3913   2.7756   2.9186   3.2353   4.1748   4.4880   5.3797   5.4791
     6.3185

          k = 0.0312-0.0634 0.0000 ( 32165 PWs)   bands (ev):

   -72.0214 -71.9686 -71.6920 -71.6395 -71.3730 -71.3193 -42.6125 -42.5542
   -42.0665 -41.8582 -41.8365 -41.7834 -41.7173 -41.5802 -41.5721 -41.5293
   -41.4727 -41.4264 -41.3781 -41.2834 -41.2308 -41.2277 -41.1993 -41.1498
    -5.0220  -4.7786  -4.6817  -4.5505  -4.5340  -4.4323  -4.3672  -4.3198
    -4.1723  -4.1026  -4.0346  -3.9526  -3.9144  -3.8244  -3.8083  -3.5871
    -3.4831  -3.3050  -3.2643  -3.2240  -3.2082  -2.9957  -2.9701  -2.9215
    -2.7995  -2.7917  -2.6622  -2.5827  -2.5795  -2.5352  -2.4595  -2.4025
    -2.3180  -2.3058  -2.1146  -1.9915  -1.8746  -1.8392  -1.7074  -1.5524
    -1.4858  -1.2813  -1.0499  -0.9125  -0.8669  -0.7287  -0.6250  -0.4054
    -0.1266  -0.1179  -0.0006   0.1772   0.3074   0.3236   0.7133   0.9089
     0.9983   1.1640   1.2822   1.4411   1.4715   1.6644   1.7023   1.9342
     2.2358   2.7595   2.9269   3.5034   3.8390   4.4850   4.8850   5.6808
     5.9411

          k = 0.0312-0.0475 0.0000 ( 32155 PWs)   bands (ev):

   -72.0214 -71.9686 -71.6920 -71.6395 -71.3730 -71.3193 -42.6124 -42.5542
   -42.0664 -41.8582 -41.8363 -41.7834 -41.7172 -41.5801 -41.5721 -41.5293
   -41.4727 -41.4264 -41.3781 -41.2832 -41.2307 -41.2278 -41.1993 -41.1498
    -5.1587  -4.8230  -4.7781  -4.6344  -4.5887  -4.4656  -4.4375  -4.3913
    -4.2500  -4.1672  -4.1174  -4.0417  -4.0042  -3.8954  -3.8169  -3.6289
    -3.6122  -3.3293  -3.3119  -3.2645  -3.2010  -2.9918  -2.9912  -2.9216
    -2.8001  -2.7882  -2.6290  -2.5563  -2.5465  -2.4625  -2.3880  -2.3301
    -2.2760  -2.2622  -2.1101  -1.9013  -1.7865  -1.7585  -1.6687  -1.3941
    -1.3803  -1.1515  -0.9125  -0.8269  -0.6535  -0.5775  -0.5365  -0.3392
     0.0474   0.0674   0.2038   0.3020   0.3533   0.4592   0.7682   0.8784
     1.0451   1.1971   1.3292   1.4628   1.5782   1.7034   1.7107   2.0293
     2.1827   2.7364   2.9460   3.2092   4.0413   4.1166   4.5853   5.4193
     5.5329

          k = 0.0312-0.0317 0.0000 ( 32152 PWs)   bands (ev):

   -72.0214 -71.9686 -71.6920 -71.6395 -71.3730 -71.3193 -42.6124 -42.5542
   -42.0664 -41.8582 -41.8361 -41.7834 -41.7172 -41.5801 -41.5721 -41.5292
   -41.4727 -41.4264 -41.3781 -41.2831 -41.2307 -41.2278 -41.1993 -41.1498
    -5.3115  -4.8688  -4.8340  -4.7174  -4.6306  -4.5159  -4.4734  -4.4413
    -4.3235  -4.2645  -4.1738  -4.1286  -4.0532  -3.9632  -3.8200  -3.7305
    -3.6795  -3.4311  -3.3532  -3.2677  -3.1421  -3.0289  -2.9979  -2.9117
    -2.7909  -2.7531  -2.6157  -2.5540  -2.5295  -2.4334  -2.3635  -2.3018
    -2.1756  -2.1518  -2.1070  -1.8514  -1.7739  -1.7043  -1.5363  -1.2998
    -1.2415  -1.0752  -0.8173  -0.7765  -0.4927  -0.3619  -0.2989  -0.2873
     0.1532   0.2429   0.2730   0.4456   0.4763   0.6502   0.8409   0.9059
     1.1248   1.2144   1.3619   1.4250   1.6374   1.7217   1.9214   2.1428
     2.4608   2.7000   2.8480   2.9815   3.3253   4.3963   4.4070   5.0529
     5.3664

          k = 0.0312-0.0158 0.0000 ( 32138 PWs)   bands (ev):

   -72.0214 -71.9686 -71.6920 -71.6395 -71.3730 -71.3193 -42.6124 -42.5542
   -42.0663 -41.8581 -41.8360 -41.7833 -41.7171 -41.5800 -41.5721 -41.5292
   -41.4727 -41.4264 -41.3781 -41.2830 -41.2306 -41.2277 -41.1993 -41.1498
    -5.4205  -4.9044  -4.8622  -4.7686  -4.6667  -4.5494  -4.5109  -4.4579
    -4.3730  -4.3403  -4.2127  -4.1771  -4.0876  -4.0086  -3.8228  -3.8075
    -3.7133  -3.5039  -3.3773  -3.2689  -3.1082  -3.0579  -3.0056  -2.8899
    -2.7891  -2.7068  -2.6171  -2.5612  -2.5113  -2.4326  -2.3531  -2.2965
    -2.1096  -2.0973  -2.0504  -1.8365  -1.7662  -1.6755  -1.4159  -1.2595
    -1.1524  -1.0182  -0.8392  -0.6492  -0.4223  -0.2366  -0.2202  -0.0594
     0.1917   0.3137   0.3168   0.4976   0.6034   0.7687   0.9507   1.0963
     1.2166   1.2710   1.3533   1.3816   1.5801   1.7790   2.1211   2.4498
     2.4992   2.5969   2.7507   2.9512   3.1769   3.9408   4.1927   5.1022
     5.2525

          k = 0.0312-0.0000 0.0000 ( 32136 PWs)   bands (ev):

   -72.0214 -71.9686 -71.6920 -71.6395 -71.3730 -71.3193 -42.6123 -42.5542
   -42.0663 -41.8581 -41.8359 -41.7833 -41.7171 -41.5800 -41.5721 -41.5292
   -41.4727 -41.4264 -41.3781 -41.2829 -41.2306 -41.2278 -41.1993 -41.1498
    -5.4591  -4.9179  -4.8710  -4.7855  -4.6813  -4.5609  -4.5248  -4.4625
    -4.3901  -4.3678  -4.2266  -4.1933  -4.1002  -4.0246  -3.8331  -3.8241
    -3.7243  -3.5302  -3.3850  -3.2692  -3.0990  -3.0683  -3.0087  -2.8789
    -2.7862  -2.6887  -2.6205  -2.5641  -2.5051  -2.4334  -2.3506  -2.2956
    -2.1058  -2.0736  -2.0119  -1.8356  -1.7609  -1.6664  -1.3670  -1.2547
    -1.1240  -0.9893  -0.8544  -0.5967  -0.4029  -0.1871  -0.1808   0.0079
     0.2042   0.2773   0.3307   0.5220   0.7275   0.7994   1.0366   1.1606
     1.2076   1.2758   1.3915   1.4273   1.5522   1.9660   2.0569   2.1233
     2.4486   2.7043   2.9100   3.2119   3.3463   3.6101   3.7866   5.2112
     5.2142

          k = 0.0469 0.0238 0.0000 ( 32160 PWs)   bands (ev):

   -72.0166 -71.9735 -71.6872 -71.6444 -71.3681 -71.3242 -42.6071 -42.5596
   -42.0220 -41.8312 -41.8151 -41.7882 -41.6733 -41.6186 -41.5754 -41.5339
   -41.4686 -41.4306 -41.4230 -41.2783 -41.2737 -41.2355 -41.1948 -41.1544
    -5.1506  -4.7842  -4.7037  -4.6475  -4.4879  -4.4210  -4.3912  -4.2782
    -4.2650  -4.2320  -4.1842  -4.1381  -3.9818  -3.9006  -3.7228  -3.7181
    -3.6517  -3.4426  -3.3971  -3.2469  -3.1928  -3.0626  -3.0556  -2.9641
    -2.8010  -2.7704  -2.6740  -2.5954  -2.5855  -2.5400  -2.4488  -2.3438
    -2.2158  -2.0832  -1.9979  -1.9288  -1.6517  -1.4991  -1.4930  -1.4283
    -1.3215  -1.1063  -0.9720  -0.7823  -0.5089  -0.2767  -0.2764  -0.2224
     0.1266   0.1777   0.2669   0.3783   0.4497   0.5161   0.6871   0.8207
     0.9630   1.0789   1.1478   1.2844   1.3555   1.7108   2.0124   2.2438
     2.4011   2.5561   2.5887   3.0534   3.2041   3.6685   4.5685   4.7649
     5.4772

          k = 0.0469 0.0396 0.0000 ( 32165 PWs)   bands (ev):

   -72.0166 -71.9735 -71.6872 -71.6444 -71.3681 -71.3242 -42.6071 -42.5596
   -42.0221 -41.8314 -41.8152 -41.7883 -41.6733 -41.6186 -41.5755 -41.5339
   -41.4686 -41.4306 -41.4230 -41.2784 -41.2737 -41.2355 -41.1948 -41.1544
    -5.0132  -4.7424  -4.6783  -4.5851  -4.4359  -4.3837  -4.3592  -4.2434
    -4.2292  -4.1681  -4.1297  -4.0661  -3.9406  -3.8625  -3.7189  -3.6383
    -3.6112  -3.3877  -3.3680  -3.2650  -3.1890  -3.0843  -3.0342  -2.9445
    -2.8255  -2.8122  -2.6698  -2.6137  -2.6064  -2.5303  -2.4388  -2.3488
    -2.2223  -2.2162  -2.1156  -1.9809  -1.6627  -1.5670  -1.5491  -1.5010
    -1.3742  -1.1880  -0.9200  -0.8769  -0.6129  -0.5560  -0.3827  -0.3413
     0.0493   0.0824   0.1834   0.3070   0.3744   0.4385   0.6529   0.6717
     0.9209   1.0765   1.1183   1.2440   1.4125   1.7672   1.9431   2.1095
     2.2170   2.3869   2.6338   3.3178   3.3604   4.0201   4.6194   4.7266
     5.6236

          k = 0.0469 0.0555 0.0000 ( 32176 PWs)   bands (ev):

   -72.0166 -71.9735 -71.6872 -71.6444 -71.3681 -71.3242 -42.6071 -42.5596
   -42.0221 -41.8315 -41.8152 -41.7883 -41.6734 -41.6186 -41.5755 -41.5340
   -41.4686 -41.4306 -41.4230 -41.2786 -41.2737 -41.2356 -41.1948 -41.1544
    -4.8496  -4.6954  -4.6311  -4.4935  -4.3639  -4.3589  -4.3018  -4.2138
    -4.1796  -4.1111  -4.0476  -3.9550  -3.8872  -3.8126  -3.7156  -3.5688
    -3.5392  -3.4050  -3.2848  -3.2585  -3.1823  -3.1219  -3.0107  -2.9281
    -2.8448  -2.8325  -2.6694  -2.6403  -2.6302  -2.5278  -2.4427  -2.4114
    -2.3334  -2.2689  -2.2212  -2.0486  -1.7144  -1.6633  -1.6453  -1.5004
    -1.4548  -1.3261  -0.9993  -0.8950  -0.8816  -0.5999  -0.5844  -0.3776
    -0.1468  -0.0494   0.1292   0.1672   0.3409   0.3471   0.6183   0.7214
     0.8825   1.0408   1.1242   1.1994   1.4352   1.5910   1.8339   2.0096
     2.1769   2.3337   2.4142   3.7340   3.8764   4.1850   4.2531   5.4215
     5.8065

          k = 0.0469 0.0713 0.0000 ( 32211 PWs)   bands (ev):

   -72.0166 -71.9735 -71.6872 -71.6444 -71.3681 -71.3242 -42.6072 -42.5596
   -42.0222 -41.8317 -41.8152 -41.7883 -41.6734 -41.6186 -41.5756 -41.5340
   -41.4686 -41.4306 -41.4231 -41.2787 -41.2737 -41.2356 -41.1948 -41.1544
    -4.7417  -4.6548  -4.5439  -4.3914  -4.3487  -4.2728  -4.2242  -4.1767
    -4.1491  -4.0571  -3.9666  -3.8502  -3.8115  -3.7749  -3.7090  -3.5540
    -3.4656  -3.4249  -3.2472  -3.2235  -3.1706  -3.1494  -3.0085  -2.9461
    -2.8311  -2.8112  -2.6979  -2.6680  -2.6498  -2.5583  -2.5451  -2.4776
    -2.3779  -2.3299  -2.2295  -2.1153  -1.8201  -1.7475  -1.7119  -1.5686
    -1.4779  -1.4619  -1.1648  -1.0131  -0.8903  -0.7387  -0.5938  -0.4141
    -0.3275  -0.1287  -0.0705   0.1656   0.2852   0.3305   0.6067   0.7489
     0.8587   0.9723   1.1382   1.1539   1.3905   1.4404   1.7437   1.8774
     2.1562   2.4424   2.4749   3.6905   3.8320   4.2113   5.1151   5.8099
     6.1412

          k = 0.0469 0.0872 0.0000 ( 32189 PWs)   bands (ev):

   -72.0166 -71.9735 -71.6872 -71.6444 -71.3681 -71.3242 -42.6072 -42.5596
   -42.0222 -41.8318 -41.8152 -41.7883 -41.6734 -41.6186 -41.5756 -41.5340
   -41.4686 -41.4306 -41.4230 -41.2787 -41.2737 -41.2357 -41.1948 -41.1544
    -4.7063  -4.6308  -4.4754  -4.3481  -4.3180  -4.2260  -4.1808  -4.1359
    -4.0510  -4.0307  -3.9046  -3.8080  -3.7931  -3.7437  -3.6750  -3.5761
    -3.4838  -3.3722  -3.2842  -3.2051  -3.1559  -3.1352  -3.0126  -2.9827
    -2.8074  -2.8024  -2.7618  -2.6928  -2.6545  -2.6071  -2.5920  -2.4780
    -2.4146  -2.3076  -2.2354  -2.1545  -1.9221  -1.7898  -1.7470  -1.6806
    -1.5247  -1.4577  -1.2519  -1.1123  -0.8871  -0.7930  -0.5462  -0.4531
    -0.4217  -0.2334  -0.1518   0.1677   0.2561   0.3276   0.5959   0.7389
     0.8516   0.9306   1.1196   1.1474   1.2951   1.4401   1.6370   1.8794
     2.1487   2.4577   2.6972   3.3442   3.7911   4.6295   5.3906   6.0077
     6.2294

          k = 0.0469 0.1030 0.0000 ( 32189 PWs)   bands (ev):

   -72.0166 -71.9735 -71.6872 -71.6444 -71.3681 -71.3242 -42.6072 -42.5596
   -42.0222 -41.8318 -41.8152 -41.7883 -41.6734 -41.6186 -41.5756 -41.5340
   -41.4686 -41.4306 -41.4230 -41.2787 -41.2737 -41.2357 -41.1948 -41.1544
    -4.7063  -4.6308  -4.4754  -4.3481  -4.3180  -4.2260  -4.1808  -4.1359
    -4.0510  -4.0308  -3.9046  -3.8080  -3.7931  -3.7437  -3.6750  -3.5761
    -3.4838  -3.3722  -3.2842  -3.2051  -3.1559  -3.1352  -3.0126  -2.9827
    -2.8074  -2.8024  -2.7618  -2.6928  -2.6545  -2.6071  -2.5920  -2.4780
    -2.4146  -2.3077  -2.2354  -2.1545  -1.9221  -1.7899  -1.7471  -1.6806
    -1.5247  -1.4577  -1.2519  -1.1124  -0.8871  -0.7930  -0.5462  -0.4531
    -0.4217  -0.2334  -0.1518   0.1677   0.2561   0.3276   0.5959   0.7389
     0.8516   0.9306   1.1196   1.1474   1.2951   1.4401   1.6370   1.8794
     2.1487   2.4577   2.6972   3.3442   3.7911   4.6295   5.3906   6.0077
     6.2294

          k = 0.0469-0.0713 0.0000 ( 32211 PWs)   bands (ev):

   -72.0166 -71.9735 -71.6872 -71.6444 -71.3681 -71.3242 -42.6072 -42.5596
   -42.0222 -41.8317 -41.8152 -41.7883 -41.6734 -41.6186 -41.5756 -41.5340
   -41.4686 -41.4306 -41.4231 -41.2787 -41.2737 -41.2356 -41.1948 -41.1544
    -4.7417  -4.6548  -4.5439  -4.3914  -4.3488  -4.2727  -4.2242  -4.1767
    -4.1491  -4.0571  -3.9666  -3.8502  -3.8115  -3.7749  -3.7090  -3.5540
    -3.4656  -3.4249  -3.2472  -3.2235  -3.1706  -3.1494  -3.0085  -2.9461
    -2.8311  -2.8112  -2.6979  -2.6680  -2.6498  -2.5583  -2.5451  -2.4775
    -2.3779  -2.3300  -2.2295  -2.1153  -1.8201  -1.7475  -1.7119  -1.5686
    -1.4779  -1.4618  -1.1648  -1.0132  -0.8903  -0.7387  -0.5938  -0.4141
    -0.3275  -0.1287  -0.0705   0.1656   0.2852   0.3305   0.6067   0.7489
     0.8587   0.9723   1.1382   1.1540   1.3905   1.4404   1.7437   1.8774
     2.1562   2.4424   2.4750   3.6905   3.8320   4.2113   5.1151   5.8099
     6.1413

          k = 0.0469-0.0555 0.0000 ( 32176 PWs)   bands (ev):

   -72.0166 -71.9735 -71.6872 -71.6444 -71.3681 -71.3242 -42.6071 -42.5596
   -42.0221 -41.8315 -41.8152 -41.7883 -41.6734 -41.6186 -41.5755 -41.5340
   -41.4686 -41.4306 -41.4230 -41.2786 -41.2737 -41.2356 -41.1948 -41.1544
    -4.8496  -4.6954  -4.6311  -4.4935  -4.3639  -4.3589  -4.3018  -4.2138
    -4.1796  -4.1111  -4.0476  -3.9550  -3.8872  -3.8126  -3.7155  -3.5688
    -3.5392  -3.4050  -3.2848  -3.2585  -3.1823  -3.1219  -3.0107  -2.9280
    -2.8448  -2.8325  -2.6694  -2.6403  -2.6303  -2.5278  -2.4427  -2.4114
    -2.3334  -2.2688  -2.2212  -2.0486  -1.7144  -1.6634  -1.6453  -1.5004
    -1.4548  -1.3261  -0.9994  -0.8950  -0.8816  -0.5999  -0.5844  -0.3775
    -0.1468  -0.0494   0.1292   0.1672   0.3409   0.3471   0.6183   0.7214
     0.8825   1.0408   1.1242   1.1995   1.4352   1.5909   1.8339   2.0096
     2.1769   2.3337   2.4142   3.7340   3.8764   4.1850   4.2531   5.4216
     5.8065

          k = 0.0469-0.0396 0.0000 ( 32165 PWs)   bands (ev):

   -72.0166 -71.9735 -71.6872 -71.6444 -71.3681 -71.3242 -42.6071 -42.5596
   -42.0221 -41.8314 -41.8152 -41.7883 -41.6733 -41.6186 -41.5755 -41.5339
   -41.4686 -41.4306 -41.4230 -41.2784 -41.2737 -41.2355 -41.1948 -41.1544
    -5.0132  -4.7424  -4.6783  -4.5851  -4.4359  -4.3837  -4.3592  -4.2434
    -4.2292  -4.1681  -4.1297  -4.0661  -3.9406  -3.8625  -3.7189  -3.6383
    -3.6112  -3.3877  -3.3680  -3.2650  -3.1890  -3.0843  -3.0342  -2.9445
    -2.8255  -2.8122  -2.6698  -2.6137  -2.6064  -2.5303  -2.4388  -2.3488
    -2.2223  -2.2162  -2.1156  -1.9809  -1.6627  -1.5670  -1.5492  -1.5011
    -1.3743  -1.1880  -0.9200  -0.8769  -0.6130  -0.5560  -0.3826  -0.3413
     0.0493   0.0824   0.1834   0.3070   0.3744   0.4385   0.6529   0.6717
     0.9209   1.0764   1.1183   1.2440   1.4125   1.7672   1.9431   2.1095
     2.2170   2.3869   2.6338   3.3178   3.3604   4.0202   4.6194   4.7266
     5.6236

          k = 0.0469-0.0238 0.0000 ( 32160 PWs)   bands (ev):

   -72.0166 -71.9735 -71.6872 -71.6444 -71.3681 -71.3242 -42.6071 -42.5596
   -42.0220 -41.8312 -41.8151 -41.7882 -41.6733 -41.6186 -41.5754 -41.5339
   -41.4686 -41.4306 -41.4230 -41.2783 -41.2737 -41.2355 -41.1948 -41.1544
    -5.1506  -4.7842  -4.7037  -4.6475  -4.4879  -4.4210  -4.3912  -4.2782
    -4.2650  -4.2320  -4.1842  -4.1381  -3.9818  -3.9006  -3.7228  -3.7181
    -3.6517  -3.4426  -3.3972  -3.2469  -3.1929  -3.0626  -3.0556  -2.9641
    -2.8010  -2.7704  -2.6740  -2.5955  -2.5855  -2.5400  -2.4488  -2.3437
    -2.2158  -2.0832  -1.9979  -1.9288  -1.6517  -1.4991  -1.4930  -1.4284
    -1.3215  -1.1063  -0.9719  -0.7823  -0.5089  -0.2767  -0.2764  -0.2224
     0.1266   0.1777   0.2669   0.3783   0.4497   0.5162   0.6871   0.8207
     0.9630   1.0788   1.1478   1.2844   1.3555   1.7109   2.0124   2.2438
     2.4011   2.5561   2.5887   3.0534   3.2041   3.6685   4.5685   4.7649
     5.4775

          k = 0.0469-0.0079 0.0000 ( 32158 PWs)   bands (ev):

   -72.0166 -71.9735 -71.6872 -71.6444 -71.3681 -71.3242 -42.6070 -42.5596
   -42.0220 -41.8311 -41.8151 -41.7882 -41.6732 -41.6186 -41.5753 -41.5339
   -41.4686 -41.4306 -41.4230 -41.2782 -41.2737 -41.2355 -41.1948 -41.1544
    -5.2251  -4.8088  -4.7159  -4.6779  -4.5169  -4.4471  -4.4044  -4.3053
    -4.2808  -4.2762  -4.2013  -4.1768  -4.0045  -3.9215  -3.7599  -3.7270
    -3.6721  -3.4861  -3.4063  -3.2346  -3.1947  -3.0791  -3.0396  -2.9751
    -2.7844  -2.7410  -2.6758  -2.5851  -2.5735  -2.5514  -2.4566  -2.3466
    -2.2123  -2.0083  -1.9363  -1.8953  -1.6526  -1.4865  -1.4588  -1.3433
    -1.2996  -1.0702  -1.0275  -0.7128  -0.4913  -0.1990  -0.1696  -0.0414
     0.1441   0.2045   0.3160   0.3763   0.5348   0.5385   0.7681   1.0167
     1.0451   1.0705   1.2386   1.3139   1.3514   1.6639   1.8514   2.0112
     2.2591   2.6694   2.8659   3.1237   3.2229   3.6731   4.2823   4.7838
     5.4360

          k = 0.0469 0.0079 0.0000 ( 32158 PWs)   bands (ev):

   -72.0166 -71.9735 -71.6872 -71.6444 -71.3681 -71.3242 -42.6070 -42.5596
   -42.0220 -41.8311 -41.8151 -41.7882 -41.6732 -41.6186 -41.5753 -41.5339
   -41.4686 -41.4306 -41.4230 -41.2782 -41.2737 -41.2355 -41.1948 -41.1544
    -5.2251  -4.8088  -4.7159  -4.6779  -4.5169  -4.4471  -4.4044  -4.3053
    -4.2808  -4.2762  -4.2013  -4.1768  -4.0045  -3.9215  -3.7599  -3.7270
    -3.6721  -3.4861  -3.4063  -3.2346  -3.1947  -3.0792  -3.0396  -2.9751
    -2.7844  -2.7410  -2.6758  -2.5851  -2.5735  -2.5514  -2.4566  -2.3466
    -2.2123  -2.0083  -1.9363  -1.8953  -1.6526  -1.4865  -1.4588  -1.3433
    -1.2996  -1.0702  -1.0275  -0.7128  -0.4913  -0.1990  -0.1696  -0.0414
     0.1441   0.2045   0.3160   0.3763   0.5348   0.5385   0.7681   1.0167
     1.0451   1.0705   1.2387   1.3139   1.3514   1.6639   1.8514   2.0112
     2.2591   2.6694   2.8658   3.1237   3.2229   3.6731   4.2823   4.7838
     5.4320

          k = 0.0625 0.0317 0.0000 ( 32180 PWs)   bands (ev):

   -72.0103 -71.9798 -71.6809 -71.6507 -71.3617 -71.3307 -42.6002 -42.5666
   -41.9640 -41.8250 -41.7946 -41.7588 -41.6787 -41.6158 -41.5694 -41.5400
   -41.4823 -41.4622 -41.4361 -41.3333 -41.2721 -41.2419 -41.1889 -41.1603
    -4.8211  -4.6296  -4.5234  -4.4933  -4.3608  -4.3104  -4.2413  -4.1627
    -4.1139  -4.0975  -4.0333  -3.9849  -3.8384  -3.8025  -3.6640  -3.6054
    -3.5677  -3.4726  -3.3818  -3.3463  -3.1991  -3.1438  -3.0247  -2.9736
    -2.9179  -2.8645  -2.7798  -2.7067  -2.6802  -2.5628  -2.4377  -2.4093
    -2.3146  -2.3018  -2.1266  -1.9111  -1.9060  -1.5473  -1.4871  -1.3064
    -1.2201  -1.1321  -1.0665  -0.8163  -0.5311  -0.4880  -0.3077  -0.2250
    -0.0462   0.1015   0.1284   0.1564   0.3280   0.3725   0.4108   0.4773
     0.6030   0.8276   1.0420   1.2281   1.2501   1.6600   1.7066   1.9494
     2.0806   2.5361   2.6052   3.3731   3.4340   3.6132   4.0715   5.2165
     5.7913

          k = 0.0625 0.0475 0.0000 ( 32185 PWs)   bands (ev):

   -72.0103 -71.9798 -71.6809 -71.6507 -71.3617 -71.3307 -42.6002 -42.5666
   -41.9640 -41.8252 -41.7946 -41.7588 -41.6787 -41.6158 -41.5694 -41.5401
   -41.4823 -41.4622 -41.4361 -41.3333 -41.2722 -41.2419 -41.1889 -41.1603
    -4.6724  -4.5848  -4.5076  -4.4281  -4.3235  -4.2636  -4.2217  -4.1188
    -4.0883  -4.0172  -3.9540  -3.9534  -3.7949  -3.7884  -3.6430  -3.6003
    -3.5301  -3.4760  -3.3339  -3.3229  -3.2159  -3.1303  -3.0167  -2.9955
    -2.9232  -2.8857  -2.7809  -2.7004  -2.7003  -2.5701  -2.4533  -2.4154
    -2.3509  -2.3037  -2.2727  -2.0405  -1.9838  -1.5437  -1.5361  -1.3731
    -1.3200  -1.1445  -1.0357  -0.8908  -0.7817  -0.5127  -0.3927  -0.3315
    -0.1331  -0.0674   0.0683   0.1282   0.3006   0.3656   0.4245   0.4797
     0.5536   0.7920   1.0058   1.1649   1.3269   1.6651   1.7040   1.9194
     1.9988   2.2326   2.7851   3.2614   3.5596   3.9282   4.5564   4.7737
     5.9174

          k = 0.0625 0.0634 0.0000 ( 32209 PWs)   bands (ev):

   -72.0103 -71.9798 -71.6809 -71.6507 -71.3617 -71.3307 -42.6002 -42.5666
   -41.9641 -41.8253 -41.7946 -41.7588 -41.6787 -41.6159 -41.5695 -41.5401
   -41.4823 -41.4622 -41.4361 -41.3333 -41.2723 -41.2419 -41.1889 -41.1603
    -4.5381  -4.5155  -4.4807  -4.3356  -4.2767  -4.2033  -4.1977  -4.0724
    -4.0717  -3.9398  -3.9172  -3.8657  -3.7702  -3.7430  -3.6418  -3.5959
    -3.4991  -3.4789  -3.3389  -3.2712  -3.2072  -3.1182  -3.0459  -3.0207
    -2.9186  -2.8845  -2.7898  -2.7148  -2.6867  -2.5834  -2.5534  -2.4336
    -2.4084  -2.3555  -2.3163  -2.1576  -2.0501  -1.6228  -1.5146  -1.4758
    -1.4197  -1.1516  -1.0184  -1.0098  -0.9495  -0.5945  -0.4802  -0.3179
    -0.3074  -0.0836   0.0069   0.1305   0.2931   0.3449   0.4595   0.5117
     0.5363   0.7666   0.9189   1.0846   1.3732   1.5783   1.6471   1.7561
     1.9362   2.0692   2.6257   3.3395   4.2152   4.2421   4.3312   5.3543
     5.7545

          k = 0.0625 0.0792 0.0000 ( 32190 PWs)   bands (ev):

   -72.0103 -71.9798 -71.6809 -71.6507 -71.3617 -71.3307 -42.6002 -42.5666
   -41.9641 -41.8254 -41.7946 -41.7588 -41.6787 -41.6159 -41.5695 -41.5401
   -41.4823 -41.4622 -41.4361 -41.3333 -41.2724 -41.2419 -41.1889 -41.1603
    -4.5025  -4.4860  -4.3803  -4.2432  -4.2244  -4.1825  -4.1189  -4.0426
    -4.0399  -3.8939  -3.8929  -3.7957  -3.7699  -3.6882  -3.6574  -3.5943
    -3.5000  -3.4856  -3.3384  -3.2444  -3.1864  -3.1091  -3.0948  -3.0321
    -2.9194  -2.8796  -2.8018  -2.7227  -2.6652  -2.6320  -2.6009  -2.5318
    -2.4600  -2.3906  -2.3475  -2.1674  -2.0890  -1.7067  -1.5858  -1.4827
    -1.4782  -1.1535  -1.1487  -1.0407  -0.9911  -0.7031  -0.4504  -0.4088
    -0.2759  -0.1067  -0.0237   0.1393   0.2909   0.3433   0.4836   0.5241
     0.5429   0.7553   0.7999   1.0128   1.3467   1.3990   1.6274   1.7333
     1.8158   1.9588   2.8369   3.2586   3.7947   4.7552   5.1154   5.5912
     6.2936

          k = 0.0625 0.0951 0.0000 ( 32228 PWs)   bands (ev):

   -72.0103 -71.9798 -71.6809 -71.6507 -71.3617 -71.3307 -42.6003 -42.5666
   -41.9641 -41.8254 -41.7946 -41.7589 -41.6787 -41.6159 -41.5696 -41.5401
   -41.4823 -41.4622 -41.4361 -41.3333 -41.2724 -41.2419 -41.1889 -41.1603
    -4.4890  -4.4814  -4.3469  -4.2141  -4.1972  -4.1547  -4.1078  -4.0367
    -3.9504  -3.8974  -3.8872  -3.8052  -3.7659  -3.6643  -3.6567  -3.5990
    -3.5205  -3.4826  -3.3195  -3.2406  -3.1969  -3.1059  -3.1021  -3.0375
    -2.9239  -2.8833  -2.8087  -2.7271  -2.6478  -2.6376  -2.6111  -2.5833
    -2.5069  -2.4055  -2.3531  -2.1492  -2.1006  -1.7413  -1.6356  -1.5015
    -1.4641  -1.2114  -1.1457  -1.0737  -0.9833  -0.7304  -0.4439  -0.4395
    -0.2505  -0.1230  -0.0264   0.1439   0.2900   0.3492   0.4900   0.5206
     0.5552   0.7466   0.7529   0.9851   1.2370   1.4076   1.6194   1.7252
     1.7438   1.9679   3.0060   3.2287   3.5525   5.0647   5.5440   5.5667
     5.9991

          k = 0.0625 0.1109 0.0000 ( 32190 PWs)   bands (ev):

   -72.0103 -71.9798 -71.6809 -71.6507 -71.3617 -71.3307 -42.6002 -42.5666
   -41.9641 -41.8254 -41.7946 -41.7588 -41.6787 -41.6159 -41.5695 -41.5401
   -41.4823 -41.4622 -41.4361 -41.3333 -41.2724 -41.2419 -41.1889 -41.1603
    -4.5025  -4.4860  -4.3803  -4.2432  -4.2244  -4.1825  -4.1189  -4.0426
    -4.0399  -3.8939  -3.8929  -3.7957  -3.7699  -3.6882  -3.6574  -3.5943
    -3.5000  -3.4855  -3.3384  -3.2444  -3.1864  -3.1091  -3.0947  -3.0321
    -2.9194  -2.8795  -2.8018  -2.7227  -2.6652  -2.6320  -2.6009  -2.5318
    -2.4600  -2.3906  -2.3474  -2.1675  -2.0890  -1.7067  -1.5858  -1.4827
    -1.4783  -1.1536  -1.1487  -1.0407  -0.9911  -0.7031  -0.4504  -0.4088
    -0.2759  -0.1067  -0.0237   0.1393   0.2908   0.3433   0.4836   0.5241
     0.5429   0.7553   0.7999   1.0128   1.3467   1.3990   1.6274   1.7333
     1.8158   1.9588   2.8369   3.2586   3.7947   4.7552   5.1154   5.5911
     5.8945

          k = 0.0625-0.0634 0.0000 ( 32209 PWs)   bands (ev):

   -72.0103 -71.9798 -71.6809 -71.6507 -71.3617 -71.3307 -42.6002 -42.5666
   -41.9641 -41.8253 -41.7946 -41.7588 -41.6787 -41.6159 -41.5695 -41.5401
   -41.4823 -41.4622 -41.4361 -41.3333 -41.2723 -41.2419 -41.1889 -41.1603
    -4.5381  -4.5155  -4.4807  -4.3356  -4.2767  -4.2033  -4.1977  -4.0724
    -4.0717  -3.9398  -3.9172  -3.8657  -3.7702  -3.7430  -3.6418  -3.5959
    -3.4991  -3.4789  -3.3389  -3.2712  -3.2072  -3.1182  -3.0459  -3.0207
    -2.9186  -2.8845  -2.7899  -2.7148  -2.6867  -2.5834  -2.5534  -2.4336
    -2.4084  -2.3555  -2.3162  -2.1576  -2.0501  -1.6227  -1.5146  -1.4758
    -1.4197  -1.1516  -1.0185  -1.0098  -0.9495  -0.5945  -0.4802  -0.3179
    -0.3074  -0.0837   0.0069   0.1305   0.2931   0.3449   0.4595   0.5117
     0.5363   0.7666   0.9189   1.0846   1.3732   1.5783   1.6470   1.7561
     1.9362   2.0692   2.6257   3.3396   4.2152   4.2421   4.3313   5.3543
     5.7545

          k = 0.0625-0.0475 0.0000 ( 32185 PWs)   bands (ev):

   -72.0103 -71.9798 -71.6809 -71.6507 -71.3617 -71.3307 -42.6002 -42.5666
   -41.9640 -41.8252 -41.7946 -41.7588 -41.6787 -41.6158 -41.5694 -41.5401
   -41.4823 -41.4622 -41.4361 -41.3333 -41.2722 -41.2419 -41.1889 -41.1603
    -4.6724  -4.5848  -4.5076  -4.4281  -4.3235  -4.2635  -4.2217  -4.1188
    -4.0883  -4.0172  -3.9540  -3.9534  -3.7949  -3.7884  -3.6430  -3.6003
    -3.5301  -3.4760  -3.3340  -3.3229  -3.2159  -3.1304  -3.0167  -2.9955
    -2.9232  -2.8857  -2.7810  -2.7004  -2.7003  -2.5701  -2.4533  -2.4154
    -2.3509  -2.3037  -2.2726  -2.0405  -1.9838  -1.5437  -1.5361  -1.3731
    -1.3200  -1.1446  -1.0356  -0.8909  -0.7817  -0.5126  -0.3927  -0.3315
    -0.1331  -0.0674   0.0683   0.1282   0.3006   0.3656   0.4245   0.4797
     0.5536   0.7920   1.0058   1.1649   1.3269   1.6651   1.7040   1.9194
     1.9988   2.2326   2.7851   3.2614   3.5596   3.9283   4.5564   4.7736
     5.9175

          k = 0.0625-0.0317 0.0000 ( 32180 PWs)   bands (ev):

   -72.0103 -71.9798 -71.6809 -71.6507 -71.3617 -71.3307 -42.6002 -42.5666
   -41.9640 -41.8250 -41.7946 -41.7588 -41.6787 -41.6158 -41.5694 -41.5400
   -41.4823 -41.4622 -41.4361 -41.3333 -41.2721 -41.2419 -41.1889 -41.1603
    -4.8211  -4.6296  -4.5234  -4.4933  -4.3608  -4.3104  -4.2413  -4.1627
    -4.1139  -4.0975  -4.0333  -3.9849  -3.8384  -3.8025  -3.6640  -3.6054
    -3.5677  -3.4726  -3.3818  -3.3463  -3.1991  -3.1438  -3.0247  -2.9736
    -2.9179  -2.8645  -2.7798  -2.7067  -2.6802  -2.5628  -2.4377  -2.4093
    -2.3146  -2.3018  -2.1265  -1.9111  -1.9060  -1.5473  -1.4871  -1.3064
    -1.2202  -1.1321  -1.0664  -0.8163  -0.5311  -0.4880  -0.3077  -0.2250
    -0.0462   0.1016   0.1284   0.1564   0.3280   0.3725   0.4108   0.4773
     0.6031   0.8276   1.0420   1.2281   1.2501   1.6599   1.7066   1.9494
     2.0807   2.5361   2.6052   3.3731   3.4341   3.6132   4.0716   5.2164
     5.7916

          k = 0.0625-0.0158 0.0000 ( 32199 PWs)   bands (ev):

   -72.0103 -71.9798 -71.6809 -71.6507 -71.3617 -71.3307 -42.6001 -42.5666
   -41.9639 -41.8249 -41.7946 -41.7587 -41.6787 -41.6158 -41.5693 -41.5400
   -41.4823 -41.4622 -41.4361 -41.3333 -41.2720 -41.2418 -41.1889 -41.1603
    -4.9189  -4.6604  -4.5347  -4.5297  -4.3858  -4.3404  -4.2568  -4.1943
    -4.1546  -4.1360  -4.0879  -4.0031  -3.8675  -3.8134  -3.6826  -3.6176
    -3.5884  -3.4723  -3.4281  -3.3572  -3.1813  -3.1549  -3.0330  -2.9735
    -2.9044  -2.8394  -2.7863  -2.7075  -2.6613  -2.5569  -2.4587  -2.4057
    -2.2997  -2.2884  -2.0129  -1.8351  -1.8278  -1.5229  -1.4828  -1.2788
    -1.1548  -1.1376  -1.0825  -0.7551  -0.5396  -0.2626  -0.1932  -0.1257
    -0.0277   0.1692   0.1693   0.2300   0.3356   0.3449   0.5109   0.5462
     0.7811   0.8765   1.0515   1.1374   1.2752   1.6093   1.6885   1.8894
     2.0170   2.0767   2.9020   3.2670   3.4235   4.0257   4.2142   5.0263
     5.2497

          k = 0.0625 0.0000 0.0000 ( 32162 PWs)   bands (ev):

   -72.0103 -71.9798 -71.6809 -71.6507 -71.3617 -71.3307 -42.6001 -42.5666
   -41.9639 -41.8249 -41.7946 -41.7587 -41.6787 -41.6158 -41.5693 -41.5400
   -41.4823 -41.4622 -41.4361 -41.3333 -41.2720 -41.2418 -41.1889 -41.1603
    -4.9527  -4.6710  -4.5412  -4.5388  -4.3947  -4.3508  -4.2626  -4.2091
    -4.1707  -4.1444  -4.1083  -4.0091  -3.8777  -3.8180  -3.6887  -3.6258
    -3.5920  -3.4732  -3.4457  -3.3609  -3.1743  -3.1592  -3.0360  -2.9750
    -2.8981  -2.8290  -2.7910  -2.7068  -2.6531  -2.5537  -2.4680  -2.4086
    -2.2989  -2.2790  -1.9727  -1.8007  -1.8006  -1.5044  -1.4918  -1.2744
    -1.1486  -1.1332  -1.0825  -0.7290  -0.5425  -0.2380  -0.1381  -0.0308
    -0.0221   0.1852   0.2246   0.2533   0.2973   0.3270   0.5291   0.6929
     0.8563   0.8963   1.0530   1.2719   1.2950   1.3046   1.6758   1.6948
     1.9972   2.2760   2.5044   3.3021   3.9108   4.3289   4.4151   4.4973
     4.9356

          k = 0.0625 0.0158 0.0000 ( 32199 PWs)   bands (ev):

   -72.0103 -71.9798 -71.6809 -71.6507 -71.3617 -71.3307 -42.6001 -42.5666
   -41.9639 -41.8249 -41.7946 -41.7587 -41.6787 -41.6158 -41.5693 -41.5400
   -41.4823 -41.4622 -41.4361 -41.3333 -41.2720 -41.2418 -41.1889 -41.1603
    -4.9189  -4.6604  -4.5347  -4.5297  -4.3858  -4.3404  -4.2568  -4.1943
    -4.1546  -4.1360  -4.0879  -4.0031  -3.8675  -3.8134  -3.6826  -3.6176
    -3.5884  -3.4723  -3.4281  -3.3572  -3.1813  -3.1549  -3.0330  -2.9735
    -2.9044  -2.8394  -2.7863  -2.7075  -2.6612  -2.5569  -2.4587  -2.4057
    -2.2997  -2.2884  -2.0129  -1.8351  -1.8278  -1.5229  -1.4828  -1.2788
    -1.1548  -1.1376  -1.0826  -0.7551  -0.5396  -0.2626  -0.1932  -0.1257
    -0.0278   0.1692   0.1693   0.2300   0.3356   0.3449   0.5109   0.5461
     0.7811   0.8765   1.0515   1.1374   1.2753   1.6093   1.6885   1.8894
     2.0170   2.0767   2.9020   3.2670   3.4235   4.0256   4.2142   5.0261
     5.2497

          k = 0.0781 0.0396 0.0000 ( 32180 PWs)   bands (ev):

   -72.0030 -71.9872 -71.6737 -71.6580 -71.3542 -71.3382 -42.5921 -42.5747
   -41.8959 -41.8177 -41.8020 -41.7483 -41.6927 -41.5624 -41.5494 -41.5485
   -41.5471 -41.4563 -41.4425 -41.4022 -41.2648 -41.2492 -41.1820 -41.1672
    -4.5512  -4.4726  -4.3536  -4.3366  -4.2565  -4.2506  -4.1386  -4.1338
    -3.9710  -3.9272  -3.8962  -3.7954  -3.7019  -3.6886  -3.5738  -3.5291
    -3.5095  -3.4692  -3.3974  -3.3391  -3.2438  -3.1670  -3.1324  -3.0267
    -3.0176  -2.9089  -2.8672  -2.7864  -2.7621  -2.7314  -2.6042  -2.5478
    -2.4293  -2.3165  -2.2709  -2.1291  -1.9244  -1.7191  -1.4086  -1.3098
    -1.2446  -0.8399  -0.8285  -0.7113  -0.6130  -0.5066  -0.3164  -0.2356
    -0.1484  -0.1205  -0.0297  -0.0167   0.1001   0.2268   0.2278   0.3017
     0.3317   0.4980   1.0537   1.1827   1.2184   1.2781   1.5765   1.6337
     2.3375   2.5429   2.6394   3.1275   3.5033   3.7684   4.2066   5.4682
     5.4764

          k = 0.0781 0.0555 0.0000 ( 32165 PWs)   bands (ev):

   -72.0030 -71.9872 -71.6737 -71.6580 -71.3542 -71.3382 -42.5921 -42.5747
   -41.8960 -41.8179 -41.8020 -41.7483 -41.6927 -41.5624 -41.5494 -41.5485
   -41.5471 -41.4563 -41.4425 -41.4022 -41.2649 -41.2492 -41.1820 -41.1672
    -4.4760  -4.4352  -4.3090  -4.2952  -4.2361  -4.2240  -4.1144  -4.1112
    -3.9250  -3.9056  -3.8429  -3.7910  -3.6997  -3.6576  -3.5818  -3.5474
    -3.4909  -3.4427  -3.3829  -3.3021  -3.2350  -3.1680  -3.1616  -3.0422
    -3.0280  -2.9073  -2.8522  -2.8075  -2.7732  -2.7652  -2.6183  -2.6047
    -2.4383  -2.3346  -2.2508  -2.2430  -1.9508  -1.7753  -1.3769  -1.3596
    -1.2854  -0.9315  -0.8558  -0.7972  -0.7014  -0.4303  -0.4178  -0.2781
    -0.2054  -0.0911  -0.0540  -0.0263   0.0818   0.2073   0.2789   0.2965
     0.3278   0.4771   0.9686   1.1313   1.2515   1.3611   1.5829   1.5865
     1.9987   2.4641   2.9637   2.9640   3.3714   4.4469   4.5332   4.8963
     5.2432

          k = 0.0781 0.0713 0.0000 ( 32195 PWs)   bands (ev):

   -72.0030 -71.9872 -71.6737 -71.6580 -71.3542 -71.3382 -42.5921 -42.5747
   -41.8960 -41.8180 -41.8019 -41.7483 -41.6928 -41.5625 -41.5494 -41.5485
   -41.5472 -41.4563 -41.4425 -41.4022 -41.2650 -41.2492 -41.1820 -41.1672
    -4.4276  -4.3964  -4.2592  -4.2454  -4.1888  -4.1842  -4.0915  -4.0865
    -3.9315  -3.8878  -3.7909  -3.7769  -3.6936  -3.6321  -3.6011  -3.5620
    -3.4661  -3.4191  -3.3738  -3.2810  -3.2284  -3.1833  -3.1807  -3.0532
    -3.0525  -2.9156  -2.8784  -2.8447  -2.7642  -2.7449  -2.6791  -2.6142
    -2.4609  -2.4332  -2.2652  -2.2310  -1.9522  -1.8331  -1.4204  -1.4139
    -1.2424  -1.0607  -0.8772  -0.8763  -0.6765  -0.5665  -0.3606  -0.2835
    -0.2226  -0.0535  -0.0486   0.0651   0.0914   0.2049   0.2990   0.3024
     0.3998   0.4657   0.8249   1.0005   1.3040   1.4048   1.5486   1.5684
     1.6230   2.1472   2.8681   3.0009   4.1833   4.3479   4.9336   5.0249
     5.3239

          k = 0.0781 0.0872 0.0000 ( 32225 PWs)   bands (ev):

   -72.0030 -71.9872 -71.6737 -71.6580 -71.3542 -71.3382 -42.5922 -42.5747
   -41.8961 -41.8180 -41.8019 -41.7483 -41.6928 -41.5625 -41.5494 -41.5486
   -41.5472 -41.4563 -41.4425 -41.4022 -41.2650 -41.2492 -41.1820 -41.1672
    -4.4082  -4.3721  -4.2432  -4.2059  -4.1512  -4.1398  -4.0562  -4.0449
    -3.9340  -3.9330  -3.8137  -3.7202  -3.6864  -3.6228  -3.6151  -3.5640
    -3.4389  -3.4116  -3.3602  -3.2834  -3.2629  -3.1947  -3.1487  -3.0907
    -3.0596  -2.9363  -2.9064  -2.8433  -2.7517  -2.7155  -2.7151  -2.6253
    -2.5032  -2.4842  -2.2620  -2.2420  -1.9224  -1.8708  -1.4784  -1.4483
    -1.1888  -1.1407  -0.9077  -0.8909  -0.6561  -0.6233  -0.3562  -0.3319
    -0.1653  -0.0397   0.0041   0.1000   0.1600   0.2049   0.3020   0.3191
     0.4643   0.5091   0.6548   0.9169   1.3016   1.3458   1.4032   1.5380
     1.6206   1.8953   2.8025   3.2408   3.9333   4.9260   5.1030   5.3437
     6.0549

          k = 0.0781 0.1030 0.0000 ( 32225 PWs)   bands (ev):

   -72.0030 -71.9872 -71.6737 -71.6580 -71.3542 -71.3382 -42.5922 -42.5747
   -41.8961 -41.8180 -41.8019 -41.7483 -41.6928 -41.5625 -41.5494 -41.5486
   -41.5472 -41.4563 -41.4425 -41.4022 -41.2650 -41.2492 -41.1820 -41.1672
    -4.4082  -4.3721  -4.2432  -4.2059  -4.1512  -4.1398  -4.0562  -4.0449
    -3.9340  -3.9330  -3.8137  -3.7201  -3.6864  -3.6228  -3.6151  -3.5640
    -3.4389  -3.4116  -3.3602  -3.2834  -3.2629  -3.1947  -3.1487  -3.0907
    -3.0596  -2.9363  -2.9064  -2.8433  -2.7517  -2.7155  -2.7151  -2.6253
    -2.5032  -2.4842  -2.2620  -2.2420  -1.9224  -1.8708  -1.4784  -1.4483
    -1.1888  -1.1407  -0.9077  -0.8909  -0.6560  -0.6233  -0.3562  -0.3319
    -0.1653  -0.0397   0.0041   0.1000   0.1600   0.2049   0.3020   0.3191
     0.4643   0.5091   0.6548   0.9169   1.3015   1.3457   1.4032   1.5380
     1.6206   1.8953   2.8025   3.2408   3.9332   4.9260   5.1030   5.3438
     6.0548

          k = 0.0781 0.1189 0.0000 ( 32195 PWs)   bands (ev):

   -72.0030 -71.9872 -71.6737 -71.6580 -71.3542 -71.3382 -42.5921 -42.5747
   -41.8960 -41.8180 -41.8019 -41.7483 -41.6928 -41.5625 -41.5494 -41.5485
   -41.5472 -41.4563 -41.4425 -41.4022 -41.2650 -41.2492 -41.1820 -41.1672
    -4.4276  -4.3964  -4.2592  -4.2454  -4.1888  -4.1842  -4.0915  -4.0865
    -3.9315  -3.8878  -3.7909  -3.7769  -3.6936  -3.6321  -3.6010  -3.5620
    -3.4661  -3.4191  -3.3739  -3.2810  -3.2284  -3.1833  -3.1807  -3.0532
    -3.0525  -2.9156  -2.8784  -2.8447  -2.7642  -2.7450  -2.6791  -2.6142
    -2.4609  -2.4331  -2.2652  -2.2310  -1.9522  -1.8331  -1.4204  -1.4139
    -1.2424  -1.0607  -0.8772  -0.8763  -0.6764  -0.5664  -0.3606  -0.2835
    -0.2226  -0.0535  -0.0486   0.0651   0.0914   0.2049   0.2990   0.3024
     0.3998   0.4657   0.8249   1.0005   1.3040   1.4048   1.5486   1.5684
     1.6230   2.1472   2.8681   3.0009   4.1833   4.3479   4.9337   5.0250
     5.3239

          k = 0.0781-0.0555 0.0000 ( 32165 PWs)   bands (ev):

   -72.0030 -71.9872 -71.6737 -71.6580 -71.3542 -71.3382 -42.5921 -42.5747
   -41.8960 -41.8179 -41.8020 -41.7483 -41.6927 -41.5624 -41.5494 -41.5485
   -41.5471 -41.4563 -41.4425 -41.4022 -41.2649 -41.2492 -41.1820 -41.1672
    -4.4760  -4.4352  -4.3089  -4.2951  -4.2361  -4.2240  -4.1144  -4.1112
    -3.9250  -3.9056  -3.8429  -3.7910  -3.6997  -3.6576  -3.5818  -3.5474
    -3.4909  -3.4427  -3.3829  -3.3021  -3.2350  -3.1680  -3.1616  -3.0422
    -3.0280  -2.9073  -2.8522  -2.8075  -2.7732  -2.7653  -2.6183  -2.6047
    -2.4384  -2.3345  -2.2508  -2.2430  -1.9508  -1.7753  -1.3770  -1.3597
    -1.2854  -0.9315  -0.8558  -0.7972  -0.7014  -0.4303  -0.4178  -0.2781
    -0.2053  -0.0911  -0.0540  -0.0263   0.0818   0.2073   0.2789   0.2965
     0.3278   0.4771   0.9686   1.1313   1.2515   1.3610   1.5829   1.5865
     1.9987   2.4641   2.9638   2.9640   3.3714   4.4469   4.5333   4.8963
     5.2432

          k = 0.0781-0.0396 0.0000 ( 32180 PWs)   bands (ev):

   -72.0030 -71.9872 -71.6737 -71.6580 -71.3542 -71.3382 -42.5921 -42.5747
   -41.8959 -41.8177 -41.8020 -41.7483 -41.6927 -41.5624 -41.5494 -41.5485
   -41.5471 -41.4563 -41.4425 -41.4022 -41.2648 -41.2492 -41.1820 -41.1672
    -4.5512  -4.4726  -4.3536  -4.3366  -4.2565  -4.2506  -4.1386  -4.1338
    -3.9710  -3.9272  -3.8962  -3.7954  -3.7019  -3.6886  -3.5738  -3.5291
    -3.5095  -3.4692  -3.3974  -3.3391  -3.2438  -3.1670  -3.1323  -3.0268
    -3.0176  -2.9089  -2.8672  -2.7864  -2.7621  -2.7314  -2.6042  -2.5478
    -2.4293  -2.3165  -2.2709  -2.1291  -1.9244  -1.7191  -1.4086  -1.3098
    -1.2446  -0.8399  -0.8285  -0.7113  -0.6130  -0.5066  -0.3164  -0.2356
    -0.1484  -0.1205  -0.0297  -0.0167   0.1001   0.2268   0.2278   0.3017
     0.3317   0.4980   1.0536   1.1826   1.2184   1.2781   1.5765   1.6337
     2.3375   2.5430   2.6394   3.1275   3.5033   3.7684   4.2067   5.4683
     5.4764

          k = 0.0781-0.0238 0.0000 ( 32209 PWs)   bands (ev):

   -72.0030 -71.9872 -71.6737 -71.6580 -71.3543 -71.3382 -42.5921 -42.5747
   -41.8959 -41.8177 -41.8021 -41.7483 -41.6927 -41.5624 -41.5494 -41.5484
   -41.5472 -41.4563 -41.4425 -41.4022 -41.2648 -41.2492 -41.1820 -41.1672
    -4.6207  -4.4963  -4.3770  -4.3621  -4.2679  -4.2669  -4.1637  -4.1495
    -4.0341  -3.9428  -3.9363  -3.7937  -3.7150  -3.7019  -3.5655  -3.5325
    -3.5194  -3.4824  -3.4207  -3.3756  -3.2390  -3.1738  -3.1213  -3.0164
    -3.0093  -2.9128  -2.8834  -2.7908  -2.7439  -2.6902  -2.6117  -2.4946
    -2.4317  -2.3272  -2.2865  -1.9750  -1.9085  -1.6891  -1.4304  -1.2800
    -1.1990  -0.8371  -0.7559  -0.7025  -0.5735  -0.3478  -0.3404  -0.1623
    -0.1340  -0.1061   0.0033   0.0382   0.1643   0.1899   0.3165   0.3432
     0.4345   0.5214   1.0677   1.0986   1.1803   1.2715   1.5638   1.6861
     1.9297   2.2461   2.7718   3.3270   3.6865   3.9583   4.2416   5.1028
     5.7857

          k = 0.0781-0.0079 0.0000 ( 32182 PWs)   bands (ev):

   -72.0030 -71.9872 -71.6737 -71.6580 -71.3543 -71.3382 -42.5921 -42.5747
   -41.8959 -41.8176 -41.8021 -41.7483 -41.6927 -41.5623 -41.5494 -41.5484
   -41.5472 -41.4563 -41.4425 -41.4022 -41.2647 -41.2492 -41.1820 -41.1672
    -4.6601  -4.5059  -4.3875  -4.3719  -4.2746  -4.2745  -4.1792  -4.1583
    -4.0714  -3.9705  -3.9434  -3.7907  -3.7296  -3.7008  -3.5572  -3.5491
    -3.5167  -3.4862  -3.4399  -3.3983  -3.2323  -3.1799  -3.1217  -3.0150
    -2.9980  -2.9155  -2.8963  -2.7915  -2.7298  -2.6715  -2.6189  -2.4718
    -2.4350  -2.3329  -2.2917  -1.9024  -1.8566  -1.6991  -1.4381  -1.2681
    -1.1711  -0.8400  -0.7124  -0.6926  -0.6069  -0.3485  -0.1875  -0.1355
    -0.1085  -0.0697   0.0267   0.0491   0.1749   0.2482   0.3475   0.3605
     0.5656   0.6745   0.9582   1.1084   1.1176   1.3019   1.4273   1.5513
     1.8340   2.1839   2.3132   3.8137   3.9343   4.1479   4.6370   4.8978
     5.1248

          k = 0.0781 0.0079 0.0000 ( 32182 PWs)   bands (ev):

   -72.0030 -71.9872 -71.6737 -71.6580 -71.3543 -71.3382 -42.5921 -42.5747
   -41.8959 -41.8176 -41.8021 -41.7483 -41.6927 -41.5623 -41.5494 -41.5484
   -41.5472 -41.4563 -41.4425 -41.4022 -41.2647 -41.2492 -41.1820 -41.1672
    -4.6601  -4.5059  -4.3875  -4.3719  -4.2746  -4.2745  -4.1792  -4.1583
    -4.0714  -3.9705  -3.9434  -3.7907  -3.7296  -3.7008  -3.5572  -3.5491
    -3.5167  -3.4862  -3.4399  -3.3983  -3.2323  -3.1799  -3.1217  -3.0150
    -2.9980  -2.9156  -2.8963  -2.7915  -2.7298  -2.6715  -2.6189  -2.4718
    -2.4350  -2.3329  -2.2918  -1.9024  -1.8566  -1.6991  -1.4381  -1.2681
    -1.1711  -0.8400  -0.7124  -0.6926  -0.6069  -0.3485  -0.1875  -0.1355
    -0.1085  -0.0696   0.0267   0.0491   0.1749   0.2482   0.3475   0.3606
     0.5656   0.6745   0.9582   1.1084   1.1176   1.3019   1.4273   1.5513
     1.8340   2.1839   2.3131   3.8137   3.9343   4.1480   4.6370   4.8978
     5.1248

          k = 0.0781 0.0238 0.0000 ( 32209 PWs)   bands (ev):

   -72.0030 -71.9872 -71.6737 -71.6580 -71.3543 -71.3382 -42.5921 -42.5747
   -41.8959 -41.8177 -41.8021 -41.7483 -41.6927 -41.5624 -41.5494 -41.5484
   -41.5472 -41.4563 -41.4425 -41.4022 -41.2648 -41.2492 -41.1820 -41.1672
    -4.6207  -4.4963  -4.3770  -4.3621  -4.2679  -4.2669  -4.1637  -4.1495
    -4.0341  -3.9428  -3.9363  -3.7937  -3.7150  -3.7019  -3.5655  -3.5325
    -3.5194  -3.4824  -3.4207  -3.3756  -3.2390  -3.1738  -3.1213  -3.0164
    -3.0093  -2.9128  -2.8834  -2.7908  -2.7439  -2.6902  -2.6117  -2.4946
    -2.4317  -2.3272  -2.2865  -1.9751  -1.9085  -1.6891  -1.4304  -1.2800
    -1.1990  -0.8371  -0.7558  -0.7025  -0.5735  -0.3478  -0.3404  -0.1623
    -0.1340  -0.1062   0.0033   0.0381   0.1643   0.1899   0.3165   0.3432
     0.4345   0.5214   1.0678   1.0987   1.1803   1.2715   1.5638   1.6861
     1.9297   2.2461   2.7717   3.3270   3.6864   3.9582   4.2416   5.1028
     5.7857

          k =-0.0937-0.0475 0.0000 ( 32174 PWs)   bands (ev):

   -71.9952 -71.9950 -71.6659 -71.6658 -71.3463 -71.3462 -42.5835 -42.5833
   -41.8225 -41.8223 -41.8100 -41.8098 -41.6214 -41.6213 -41.5548 -41.5547
   -41.4757 -41.4757 -41.4494 -41.4493 -41.2571 -41.2570 -41.1746 -41.1746
    -4.4337  -4.4337  -4.2839  -4.2839  -4.1921  -4.1920  -4.1145  -4.1144
    -3.8963  -3.8963  -3.8015  -3.8014  -3.6436  -3.6434  -3.4516  -3.4516
    -3.4241  -3.4239  -3.3531  -3.3528  -3.2170  -3.2169  -3.1803  -3.1802
    -3.0514  -3.0512  -2.8602  -2.8601  -2.7924  -2.7923  -2.7201  -2.7197
    -2.3789  -2.3788  -2.2094  -2.2094  -1.8965  -1.8965  -1.3352  -1.3351
    -1.0463  -1.0462  -0.6252  -0.6251  -0.4522  -0.4521  -0.3028  -0.3027
    -0.1862  -0.1862  -0.0940  -0.0940   0.0402   0.0403   0.1573   0.1573
     0.2776   0.2776   1.0969   1.0970   1.2201   1.2202   1.5181   1.5182
     2.5265   2.5265   2.7909   2.7910   3.6151   3.6152   4.8376   4.8377
     5.6354

          k =-0.0937-0.0317 0.0000 ( 32193 PWs)   bands (ev):

   -71.9952 -71.9950 -71.6659 -71.6658 -71.3463 -71.3462 -42.5836 -42.5833
   -41.8225 -41.8223 -41.8100 -41.8098 -41.6214 -41.6213 -41.5548 -41.5547
   -41.4757 -41.4756 -41.4494 -41.4493 -41.2571 -41.2570 -41.1746 -41.1746
    -4.4464  -4.4125  -4.2880  -4.2718  -4.1877  -4.1848  -4.1353  -4.1040
    -3.9350  -3.8690  -3.8184  -3.7803  -3.6477  -3.6442  -3.4732  -3.4506
    -3.4364  -3.3904  -3.3766  -3.3205  -3.2252  -3.2127  -3.1973  -3.1750
    -3.0939  -3.0217  -2.8989  -2.8358  -2.7987  -2.7733  -2.7285  -2.7036
    -2.4140  -2.3636  -2.2914  -2.1087  -1.9366  -1.8488  -1.3693  -1.3522
    -1.0636  -0.9806  -0.7329  -0.5130  -0.4766  -0.3924  -0.3472  -0.2924
    -0.2511  -0.1494  -0.1198   0.0174   0.0348   0.0998   0.1287   0.2100
     0.2953   0.3012   0.9886   1.1034   1.1703   1.2928   1.4777   1.5561
     1.9666   2.5761   2.6479   3.2575   3.3440   4.3421   4.5965   4.9703
     5.2167

          k =-0.0937-0.0158 0.0000 ( 32192 PWs)   bands (ev):

   -71.9952 -71.9950 -71.6659 -71.6658 -71.3463 -71.3462 -42.5836 -42.5833
   -41.8225 -41.8223 -41.8101 -41.8097 -41.6214 -41.6213 -41.5548 -41.5547
   -41.4757 -41.4756 -41.4494 -41.4493 -41.2571 -41.2570 -41.1746 -41.1746
    -4.4510  -4.3908  -4.2835  -4.2570  -4.1779  -4.1697  -4.1554  -4.1059
    -3.9742  -3.8562  -3.8302  -3.7673  -3.6529  -3.6392  -3.4939  -3.4569
    -3.4424  -3.3905  -3.3503  -3.2887  -3.2411  -3.2201  -3.2074  -3.1792
    -3.1377  -3.0059  -2.9317  -2.8266  -2.7925  -2.7633  -2.7403  -2.6703
    -2.4535  -2.3859  -2.3107  -2.0421  -1.9731  -1.7780  -1.4103  -1.4080
    -1.0514  -0.9105  -0.7988  -0.5018  -0.4853  -0.3777  -0.3063  -0.2698
    -0.2235  -0.1393  -0.1393   0.0116   0.0603   0.1235   0.2102   0.3116
     0.3925   0.4025   0.8163   0.9689   1.2232   1.3310   1.4417   1.4937
     1.6299   2.2193   2.4827   3.4421   4.1533   4.4200   4.4661   5.1795
     5.5844

          k =-0.0937 0.0000 0.0000 ( 32216 PWs)   bands (ev):

   -71.9952 -71.9950 -71.6659 -71.6658 -71.3463 -71.3462 -42.5836 -42.5833
   -41.8225 -41.8223 -41.8101 -41.8097 -41.6214 -41.6213 -41.5548 -41.5547
   -41.4757 -41.4756 -41.4494 -41.4493 -41.2571 -41.2570 -41.1747 -41.1746
    -4.4518  -4.3815  -4.2787  -4.2499  -4.1795  -4.1604  -4.1565  -4.1106
    -3.9933  -3.8524  -3.8343  -3.7681  -3.6552  -3.6297  -3.5012  -3.4617
    -3.4452  -3.3951  -3.3249  -3.2825  -3.2487  -3.2285  -3.2036  -3.1836
    -3.1603  -3.0010  -2.9447  -2.8239  -2.7848  -2.7625  -2.7495  -2.6499
    -2.4740  -2.4001  -2.3096  -2.0227  -1.9887  -1.7319  -1.4448  -1.4261
    -1.0425  -0.8823  -0.8219  -0.5118  -0.4822  -0.3847  -0.3119  -0.2751
    -0.1747  -0.1465  -0.0547   0.0094   0.0125   0.1249   0.3176   0.3362
     0.4078   0.4923   0.7212   0.9630   1.2465   1.2682   1.3409   1.4255
     1.6420   2.0222   2.4481   3.6299   4.1832   4.3441   4.9691   5.1957
     5.7518

          k =-0.0937 0.0158 0.0000 ( 32192 PWs)   bands (ev):

   -71.9952 -71.9950 -71.6659 -71.6658 -71.3463 -71.3462 -42.5836 -42.5833
   -41.8225 -41.8223 -41.8101 -41.8097 -41.6214 -41.6213 -41.5548 -41.5547
   -41.4757 -41.4756 -41.4494 -41.4493 -41.2571 -41.2570 -41.1746 -41.1746
    -4.4510  -4.3907  -4.2835  -4.2570  -4.1779  -4.1697  -4.1554  -4.1059
    -3.9742  -3.8562  -3.8302  -3.7673  -3.6529  -3.6392  -3.4939  -3.4569
    -3.4424  -3.3905  -3.3502  -3.2887  -3.2411  -3.2202  -3.2074  -3.1792
    -3.1376  -3.0059  -2.9317  -2.8266  -2.7925  -2.7634  -2.7403  -2.6703
    -2.4535  -2.3859  -2.3107  -2.0421  -1.9731  -1.7780  -1.4103  -1.4080
    -1.0514  -0.9105  -0.7988  -0.5018  -0.4853  -0.3777  -0.3063  -0.2698
    -0.2235  -0.1393  -0.1393   0.0116   0.0603   0.1235   0.2102   0.3116
     0.3925   0.4026   0.8163   0.9689   1.2231   1.3310   1.4417   1.4937
     1.6299   2.2193   2.4827   3.4421   4.1533   4.4200   4.4661   5.1796
     6.0276

          k =-0.0937 0.0317 0.0000 ( 32193 PWs)   bands (ev):

   -71.9952 -71.9950 -71.6659 -71.6658 -71.3463 -71.3462 -42.5836 -42.5833
   -41.8225 -41.8223 -41.8100 -41.8098 -41.6214 -41.6213 -41.5548 -41.5547
   -41.4757 -41.4756 -41.4494 -41.4493 -41.2571 -41.2570 -41.1746 -41.1746
    -4.4464  -4.4125  -4.2880  -4.2718  -4.1877  -4.1847  -4.1353  -4.1040
    -3.9350  -3.8690  -3.8184  -3.7804  -3.6477  -3.6442  -3.4732  -3.4506
    -3.4364  -3.3904  -3.3766  -3.3205  -3.2252  -3.2127  -3.1973  -3.1750
    -3.0939  -3.0217  -2.8989  -2.8358  -2.7988  -2.7733  -2.7285  -2.7036
    -2.4140  -2.3636  -2.2914  -2.1087  -1.9366  -1.8488  -1.3693  -1.3523
    -1.0636  -0.9806  -0.7329  -0.5130  -0.4767  -0.3924  -0.3472  -0.2924
    -0.2511  -0.1494  -0.1198   0.0174   0.0348   0.0998   0.1287   0.2100
     0.2953   0.3012   0.9886   1.1034   1.1703   1.2928   1.4777   1.5561
     1.9666   2.5761   2.6479   3.2575   3.3440   4.3421   4.5965   4.9703
     5.2168

          k =-0.0937-0.1426 0.0000 ( 32174 PWs)   bands (ev):

   -71.9952 -71.9950 -71.6659 -71.6658 -71.3463 -71.3462 -42.5835 -42.5833
   -41.8225 -41.8223 -41.8100 -41.8098 -41.6214 -41.6213 -41.5548 -41.5547
   -41.4757 -41.4757 -41.4494 -41.4493 -41.2571 -41.2570 -41.1746 -41.1746
    -4.4337  -4.4337  -4.2839  -4.2839  -4.1921  -4.1920  -4.1145  -4.1144
    -3.8963  -3.8963  -3.8015  -3.8014  -3.6435  -3.6434  -3.4516  -3.4516
    -3.4240  -3.4238  -3.3531  -3.3528  -3.2170  -3.2169  -3.1803  -3.1802
    -3.0514  -3.0512  -2.8602  -2.8601  -2.7924  -2.7923  -2.7200  -2.7197
    -2.3789  -2.3788  -2.2094  -2.2094  -1.8965  -1.8965  -1.3352  -1.3351
    -1.0462  -1.0462  -0.6252  -0.6251  -0.4522  -0.4521  -0.3028  -0.3028
    -0.1862  -0.1862  -0.0940  -0.0940   0.0402   0.0403   0.1573   0.1573
     0.2776   0.2776   1.0969   1.0969   1.2201   1.2202   1.5181   1.5182
     2.5265   2.5265   2.7909   2.7910   3.6151   3.6152   4.8376   4.8378
     5.6354

     the Fermi energy is     0.9608 ev

!    total energy              =   -1698.16038969 Ry
     estimated scf accuracy    <       0.00000335 Ry
     smearing contrib. (-TS)   =      -0.05780937 Ry
     internal energy E=F+TS    =   -1698.10258032 Ry

     The total energy is F=E-TS. E is the sum of the following terms:
     one-electron contribution =  -13926.08059011 Ry
     hartree contribution      =    7006.90474088 Ry
     xc contribution           =    -318.87784679 Ry
     ewald contribution        =    5539.95109995 Ry
     electric field correction =       0.00001575 Ry

     convergence has been achieved in  15 iterations

     negative rho (up, down):  1.235E-03 0.000E+00

     Forces acting on atoms (cartesian axes, Ry/au):

     atom    1 type  1   force =     0.00000078    0.01497004    0.03373621
     atom    2 type  1   force =    -0.00000189    0.01498043    0.03375714
     atom    3 type  2   force =     0.00000069   -0.01303199   -0.03143323
     atom    4 type  2   force =     0.00000049   -0.01303020   -0.03143301
     atom    5 type  1   force =    -0.00000409   -0.01409841   -0.01962552
     atom    6 type  1   force =    -0.00000616   -0.01411828   -0.01965765
     atom    7 type  2   force =    -0.00001812    0.01217956    0.01566723
     atom    8 type  2   force =     0.00002077    0.01218033    0.01566636
     atom    9 type  1   force =    -0.00000200   -0.00020454    0.00021136
     atom   10 type  1   force =    -0.00000314   -0.00024621    0.00016268
     atom   11 type  2   force =     0.00008878    0.00020891    0.00147454
     atom   12 type  2   force =    -0.00007611    0.00021037    0.00147389

     Total force =     0.083689     Total SCF correction =     0.008188

     Writing output data file ./Ru2Ag2/Ru2Ag2_beef.save/

     init_run     :     90.43s CPU     90.98s WALL (       1 calls)
     electrons    :   3013.55s CPU   3027.40s WALL (       1 calls)
     forces       :     62.59s CPU     62.85s WALL (       1 calls)

     Called by init_run:
     wfcinit      :     78.71s CPU     79.02s WALL (       1 calls)
     potinit      :      7.99s CPU      8.07s WALL (       1 calls)
     hinit0       :      1.94s CPU      1.95s WALL (       1 calls)

     Called by electrons:
     c_bands      :   2652.38s CPU   2659.90s WALL (      15 calls)
     sum_band     :    327.91s CPU    331.00s WALL (      15 calls)
     v_of_rho     :     23.97s CPU     25.10s WALL (      16 calls)
     newd         :     16.05s CPU     18.12s WALL (      16 calls)
     mix_rho      :      0.66s CPU      0.68s WALL (      15 calls)
     vdW_kernel   :      5.69s CPU      5.70s WALL (       1 calls)

     Called by c_bands:
     init_us_2    :     11.80s CPU     11.86s WALL (    2368 calls)
     cegterg      :   2622.49s CPU   2628.68s WALL (    1110 calls)

     Called by *egterg:
     cdiaghg      :    108.62s CPU    108.67s WALL (    4659 calls)
     h_psi        :   1281.97s CPU   1287.39s WALL (    4733 calls)
     s_psi        :    455.12s CPU    455.22s WALL (    4733 calls)
     g_psi        :      0.88s CPU      0.90s WALL (    3549 calls)

     Called by h_psi:
     h_psi:calbec :    455.11s CPU    455.68s WALL (    4733 calls)
     vloc_psi     :    360.35s CPU    365.07s WALL (    4733 calls)
     add_vuspsi   :    460.95s CPU    461.02s WALL (    4733 calls)

     General routines
     calbec       :    717.65s CPU    718.53s WALL (    6139 calls)
     fft          :     13.69s CPU     14.10s WALL (    1067 calls)
     ffts         :      0.05s CPU      0.06s WALL (      31 calls)
     fftw         :    418.68s CPU    424.05s WALL (  578400 calls)
     interpolate  :      0.36s CPU      0.36s WALL (      16 calls)

     Parallel routines
     fft_scatt_xy :     33.73s CPU     34.05s WALL (  579498 calls)
     fft_scatt_yz :     71.68s CPU     72.98s WALL (  579498 calls)

     PWSCF        :  52m56.61s CPU  53m29.83s WALL


   This run was terminated on:  19:37:13  10Jul2022            

=------------------------------------------------------------------------------=
   JOB DONE.
=------------------------------------------------------------------------------=
