
     Program PWSCF v.6.6 starts on 10Jul2022 at 20:35:40 

     This program is part of the open-source Quantum ESPRESSO suite
     for quantum simulation of materials; please cite
         "P. Giannozzi et al., J. Phys.:Condens. Matter 21 395502 (2009);
         "P. Giannozzi et al., J. Phys.:Condens. Matter 29 465901 (2017);
          URL http://www.quantum-espresso.org", 
     in publications or presentations arising from this work. More details at
     http://www.quantum-espresso.org/quote

     Parallel version (MPI), running on    37 processors

     MPI processes distributed on     1 nodes
     R & G space division:  proc/nbgrp/npool/nimage =      37
     Fft bands division:     nmany     =       1
     Reading input from Ru2Cd2.in
Warning: card &CELL ignored
Warning: card / ignored

     Current dimensions of program PWSCF are:
     Max number of different atomic species (ntypx) = 10
     Max number of k-points (npk) =  40000
     Max angular momentum in pseudopotentials (lmaxx) =  3
     Presently stress not available with electric field and gates

     Message from routine cell_base_init:
     DEPRECATED: use true lattice parameter, not A to a.u. conversion factor
     file Cd.pbe-n-rrkjus_psl.1.0.0.UPF: wavefunction(s)  4D renormalized

     **************************************************************************
     Initializing libbeef V0.1.2 with the BEEF-vdW functional.
     Citation: Wellendorff et al., PRB 85, 235149 (2012).
     **************************************************************************


     IMPORTANT: XC functional enforced from input :
     Exchange-correlation= BEEF-VDW
                           (   1   4  43  14   2   0   0)
     Any further DFT definition will be discarded
     Please, verify this is what you really want


     Subspace diagonalization in iterative solution of the eigenvalue problem:
     a serial algorithm will be used

     Found symmetry operation: I + (  0.5000  0.0000  0.0000)
     This is a supercell, fractional translations are disabled

     Parallelization info
     --------------------
     sticks:   dense  smooth     PW     G-vecs:    dense   smooth      PW
     Min         123      49     14                28683     7253    1122
     Max         124      50     15                28694     7266    1133
     Sum        4569    1833    525              1061433   268613   41787



     bravais-lattice index     =            0
     lattice parameter (alat)  =       1.8897  a.u.
     unit-cell volume          =    4856.1405 (a.u.)^3
     number of atoms/cell      =           12
     number of atomic types    =            2
     number of electrons       =       168.00
     number of Kohn-Sham states=          101
     kinetic-energy cutoff     =      55.1240  Ry
     charge density cutoff     =     551.2396  Ry
     convergence threshold     =      1.0E-05
     mixing beta               =       0.1000
     number of iterations used =           10  plain     mixing
     Exchange-correlation= BEEF-VDW
                           (   1   4  43  14   2   0   0)

     celldm(1)=   1.889726  celldm(2)=   0.000000  celldm(3)=   0.000000
     celldm(4)=   0.000000  celldm(5)=   0.000000  celldm(6)=   0.000000

     crystal axes: (cart. coord. in units of alat)
               a(1) = (   5.678525   0.000000   0.000000 )  
               a(2) = (  -2.839262   5.124846   0.000000 )  
               a(3) = (   0.000000   0.000000  24.727395 )  

     reciprocal axes: (cart. coord. in units 2 pi/alat)
               b(1) = (  0.176102  0.097564 -0.000000 )  
               b(2) = (  0.000000  0.195128  0.000000 )  
               b(3) = (  0.000000 -0.000000  0.040441 )  


     PseudoPot. # 1 for Ru read from file:
     ../pseudo/Ru.pbe-spn-rrkjus_psl.1.0.0.UPF
     MD5 check sum: fbaca725316a1a65f98761fd4ac95971
     Pseudo is Ultrasoft + core correction, Zval = 16.0
     Generated using "atomic" code by A. Dal Corso v.6.2.2
     Using radial grid of 1233 points,  6 beta functions with: 
                l(1) =   0
                l(2) =   0
                l(3) =   1
                l(4) =   1
                l(5) =   2
                l(6) =   2
     Q(r) pseudized with 0 coefficients 


     PseudoPot. # 2 for Cd read from file:
     ../pseudo/Cd.pbe-n-rrkjus_psl.1.0.0.UPF
     MD5 check sum: a744746c89d2344a134ead0d8ab94e7a
     Pseudo is Ultrasoft + core correction, Zval = 12.0
     Generated using "atomic" code by A. Dal Corso v.6.3
     Using radial grid of 1239 points,  6 beta functions with: 
                l(1) =   0
                l(2) =   0
                l(3) =   1
                l(4) =   1
                l(5) =   2
                l(6) =   2
     Q(r) pseudized with 0 coefficients 


     atomic species   valence    mass     pseudopotential
        Ru            16.00   101.07000     Ru( 1.00)
        Cd            12.00   112.41400     Cd( 1.00)

     No symmetry found



   Cartesian axes

     site n.     atom                  positions (alat units)
         1           Ru  tau(   1) = (   0.0000000   0.0000000  10.0000000  )
         2           Ru  tau(   2) = (   2.8392624   0.0000000  10.0000000  )
         3           Cd  tau(   3) = (   1.4196312   2.5624231  10.0000000  )
         4           Cd  tau(   4) = (  -1.4196312   2.5624231  10.0000000  )
         5           Ru  tau(   5) = (   2.8392624   1.5730054  12.3636973  )
         6           Ru  tau(   6) = (  -0.0000000   1.5730054  12.3636973  )
         7           Cd  tau(   7) = (  -1.4196312   4.1354285  12.3636973  )
         8           Cd  tau(   8) = (   1.4196312   4.1354285  12.3636973  )
         9           Ru  tau(   9) = (  -0.0000131   2.5271498  14.4536012  )
        10           Ru  tau(  10) = (   2.8392676   2.5271345  14.4536082  )
        11           Cd  tau(  11) = (   4.2588960   0.0575378  15.1296681  )
        12           Cd  tau(  12) = (   1.4196297   0.0575616  15.1296656  )

     number of k points=    74  Fermi-Dirac smearing, width (Ry)=  0.0100
                       cart. coord. in units 2pi/alat
        k(    1) = (   0.0000000   0.0000000   0.0000000), wk =   0.0138889
        k(    2) = (   0.0000000   0.0162607   0.0000000), wk =   0.0277778
        k(    3) = (   0.0000000   0.0325213   0.0000000), wk =   0.0277778
        k(    4) = (   0.0000000   0.0487820   0.0000000), wk =   0.0277778
        k(    5) = (   0.0000000   0.0650426   0.0000000), wk =   0.0277778
        k(    6) = (   0.0000000   0.0813033   0.0000000), wk =   0.0277778
        k(    7) = (   0.0000000  -0.0975639   0.0000000), wk =   0.0138889
        k(    8) = (   0.0146752   0.0081303   0.0000000), wk =   0.0277778
        k(    9) = (   0.0146752   0.0243910   0.0000000), wk =   0.0277778
        k(   10) = (   0.0146752   0.0406516   0.0000000), wk =   0.0277778
        k(   11) = (   0.0146752   0.0569123   0.0000000), wk =   0.0277778
        k(   12) = (   0.0146752   0.0731729   0.0000000), wk =   0.0277778
        k(   13) = (   0.0146752   0.0894336   0.0000000), wk =   0.0277778
        k(   14) = (   0.0146752  -0.0894336   0.0000000), wk =   0.0277778
        k(   15) = (   0.0146752  -0.0731729   0.0000000), wk =   0.0277778
        k(   16) = (   0.0146752  -0.0569123   0.0000000), wk =   0.0277778
        k(   17) = (   0.0146752  -0.0406516   0.0000000), wk =   0.0277778
        k(   18) = (   0.0146752  -0.0243910   0.0000000), wk =   0.0277778
        k(   19) = (   0.0146752  -0.0081303   0.0000000), wk =   0.0277778
        k(   20) = (   0.0293503   0.0162606   0.0000000), wk =   0.0277778
        k(   21) = (   0.0293503   0.0325213   0.0000000), wk =   0.0277778
        k(   22) = (   0.0293503   0.0487820   0.0000000), wk =   0.0277778
        k(   23) = (   0.0293503   0.0650426   0.0000000), wk =   0.0277778
        k(   24) = (   0.0293503   0.0813033   0.0000000), wk =   0.0277778
        k(   25) = (   0.0293503   0.0975639   0.0000000), wk =   0.0277778
        k(   26) = (   0.0293503  -0.0813033   0.0000000), wk =   0.0277778
        k(   27) = (   0.0293503  -0.0650426   0.0000000), wk =   0.0277778
        k(   28) = (   0.0293503  -0.0487820   0.0000000), wk =   0.0277778
        k(   29) = (   0.0293503  -0.0325213   0.0000000), wk =   0.0277778
        k(   30) = (   0.0293503  -0.0162607   0.0000000), wk =   0.0277778
        k(   31) = (   0.0293503  -0.0000000   0.0000000), wk =   0.0277778
        k(   32) = (   0.0440255   0.0243910   0.0000000), wk =   0.0277778
        k(   33) = (   0.0440255   0.0406516   0.0000000), wk =   0.0277778
        k(   34) = (   0.0440255   0.0569123   0.0000000), wk =   0.0277778
        k(   35) = (   0.0440255   0.0731729   0.0000000), wk =   0.0277778
        k(   36) = (   0.0440255   0.0894336   0.0000000), wk =   0.0277778
        k(   37) = (   0.0440255   0.1056942   0.0000000), wk =   0.0277778
        k(   38) = (   0.0440255  -0.0731729   0.0000000), wk =   0.0277778
        k(   39) = (   0.0440255  -0.0569123   0.0000000), wk =   0.0277778
        k(   40) = (   0.0440255  -0.0406516   0.0000000), wk =   0.0277778
        k(   41) = (   0.0440255  -0.0243910   0.0000000), wk =   0.0277778
        k(   42) = (   0.0440255  -0.0081303   0.0000000), wk =   0.0277778
        k(   43) = (   0.0440255   0.0081303   0.0000000), wk =   0.0277778
        k(   44) = (   0.0587007   0.0325213   0.0000000), wk =   0.0277778
        k(   45) = (   0.0587007   0.0487819   0.0000000), wk =   0.0277778
        k(   46) = (   0.0587007   0.0650426   0.0000000), wk =   0.0277778
        k(   47) = (   0.0587007   0.0813033   0.0000000), wk =   0.0277778
        k(   48) = (   0.0587007   0.0975639   0.0000000), wk =   0.0277778
        k(   49) = (   0.0587007   0.1138246   0.0000000), wk =   0.0277778
        k(   50) = (   0.0587007  -0.0650426   0.0000000), wk =   0.0277778
        k(   51) = (   0.0587007  -0.0487820   0.0000000), wk =   0.0277778
        k(   52) = (   0.0587007  -0.0325213   0.0000000), wk =   0.0277778
        k(   53) = (   0.0587007  -0.0162607   0.0000000), wk =   0.0277778
        k(   54) = (   0.0587007  -0.0000000   0.0000000), wk =   0.0277778
        k(   55) = (   0.0587007   0.0162606   0.0000000), wk =   0.0277778
        k(   56) = (   0.0733759   0.0406516   0.0000000), wk =   0.0277778
        k(   57) = (   0.0733759   0.0569123   0.0000000), wk =   0.0277778
        k(   58) = (   0.0733759   0.0731729   0.0000000), wk =   0.0277778
        k(   59) = (   0.0733759   0.0894336   0.0000000), wk =   0.0277778
        k(   60) = (   0.0733759   0.1056942   0.0000000), wk =   0.0277778
        k(   61) = (   0.0733759   0.1219549   0.0000000), wk =   0.0277778
        k(   62) = (   0.0733759  -0.0569123   0.0000000), wk =   0.0277778
        k(   63) = (   0.0733759  -0.0406516   0.0000000), wk =   0.0277778
        k(   64) = (   0.0733759  -0.0243910   0.0000000), wk =   0.0277778
        k(   65) = (   0.0733759  -0.0081303   0.0000000), wk =   0.0277778
        k(   66) = (   0.0733759   0.0081303   0.0000000), wk =   0.0277778
        k(   67) = (   0.0733759   0.0243910   0.0000000), wk =   0.0277778
        k(   68) = (  -0.0880510  -0.0487819   0.0000000), wk =   0.0138889
        k(   69) = (  -0.0880510  -0.0325213   0.0000000), wk =   0.0277778
        k(   70) = (  -0.0880510  -0.0162606   0.0000000), wk =   0.0277778
        k(   71) = (  -0.0880510   0.0000000   0.0000000), wk =   0.0277778
        k(   72) = (  -0.0880510   0.0162607   0.0000000), wk =   0.0277778
        k(   73) = (  -0.0880510   0.0325213   0.0000000), wk =   0.0277778
        k(   74) = (  -0.0880510  -0.1463459   0.0000000), wk =   0.0138889

     Dense  grid:  1061433 G-vectors     FFT dimensions: (  81,  90, 360)

     Smooth grid:   268613 G-vectors     FFT dimensions: (  54,  54, 225)

     Estimated max dynamical RAM per process >     219.64 MB

     Estimated total dynamical RAM >       7.94 GB

     Initial potential from superposition of free atoms

     starting charge  167.96687, renormalised to  168.00000

     negative rho (up, down):  3.029E-03 0.000E+00


     %%%%%%%%%%%%%%%%%%%%%%%%%%%%%%%%%%%%%%%%%%%%%%%%%%%%%%%%%%%%%%%%%%%%%%%%
     %                                                                      %
     % You are using vdW-DF, which was implemented by the Thonhauser group. %
     % Please cite the following two papers that made this development      %
     % possible and the two reviews that describe the various versions:     %
     %                                                                      %
     %   T. Thonhauser et al., PRL 115, 136402 (2015).                      %
     %   T. Thonhauser et al., PRB 76, 125112 (2007).                       %
     %   K. Berland et al., Rep. Prog. Phys. 78, 066501 (2015).             %
     %   D.C. Langreth et al., J. Phys.: Condens. Matter 21, 084203 (2009). %
     %                                                                      %
     %                                                                      %
     % If you are calculating the stress with vdW-DF, please also cite:     %
     %                                                                      %
     %   R. Sabatini et al., J. Phys.: Condens. Matter 24, 424209 (2012).   %
     %                                                                      %
     %%%%%%%%%%%%%%%%%%%%%%%%%%%%%%%%%%%%%%%%%%%%%%%%%%%%%%%%%%%%%%%%%%%%%%%%



     Adding external electric field

     Computed dipole along edir(3) : 
        Dipole                0.0064 Ry au,          0.0163 Debye
        Dipole field          0.0000 Ry au, 

        Potential amp.       -0.0015 Ry
        Total length         45.5598 bohr

     Starting wfcs are  114 randomized atomic wfcs

     total cpu time spent up to now is       97.1 secs

     Self-consistent Calculation

     iteration #  1     ecut=    55.12 Ry     beta= 0.10
     Davidson diagonalization with overlap
     ethr =  1.00E-02,  avg # of iterations =  3.2

     negative rho (up, down):  2.951E-03 0.000E+00

     Adding external electric field

     Computed dipole along edir(3) : 
        Dipole                0.6655 Ry au,          1.6917 Debye
        Dipole field          0.0017 Ry au, 

        Potential amp.       -0.1569 Ry
        Total length         45.5598 bohr


     total cpu time spent up to now is      341.3 secs

     total energy              =   -1795.08275147 Ry
     estimated scf accuracy    <       4.44163127 Ry

     iteration #  2     ecut=    55.12 Ry     beta= 0.10
     Davidson diagonalization with overlap
     ethr =  2.64E-03,  avg # of iterations =  2.0

     negative rho (up, down):  2.959E-03 0.000E+00

     Adding external electric field

     Computed dipole along edir(3) : 
        Dipole               -0.1678 Ry au,         -0.4265 Debye
        Dipole field         -0.0004 Ry au, 

        Potential amp.        0.0396 Ry
        Total length         45.5598 bohr


     total cpu time spent up to now is      563.0 secs

     total energy              =   -1794.96174259 Ry
     estimated scf accuracy    <      11.61600749 Ry

     iteration #  3     ecut=    55.12 Ry     beta= 0.10
     Davidson diagonalization with overlap
     ethr =  2.64E-03,  avg # of iterations =  1.0

     negative rho (up, down):  2.965E-03 0.000E+00

     Adding external electric field

     Computed dipole along edir(3) : 
        Dipole                0.1666 Ry au,          0.4236 Debye
        Dipole field          0.0004 Ry au, 

        Potential amp.       -0.0393 Ry
        Total length         45.5598 bohr


     total cpu time spent up to now is      752.1 secs

     total energy              =   -1795.19625904 Ry
     estimated scf accuracy    <       9.07811386 Ry

     iteration #  4     ecut=    55.12 Ry     beta= 0.10
     Davidson diagonalization with overlap
     ethr =  2.64E-03,  avg # of iterations =  1.0

     negative rho (up, down):  2.983E-03 0.000E+00

     Adding external electric field

     Computed dipole along edir(3) : 
        Dipole                0.1701 Ry au,          0.4324 Debye
        Dipole field          0.0004 Ry au, 

        Potential amp.       -0.0401 Ry
        Total length         45.5598 bohr


     total cpu time spent up to now is      941.9 secs

     total energy              =   -1795.31917464 Ry
     estimated scf accuracy    <       0.24204077 Ry

     iteration #  5     ecut=    55.12 Ry     beta= 0.10
     Davidson diagonalization with overlap
     c_bands:  1 eigenvalues not converged
     c_bands:  1 eigenvalues not converged
     c_bands:  1 eigenvalues not converged
     c_bands:  1 eigenvalues not converged
     c_bands:  1 eigenvalues not converged
     c_bands:  1 eigenvalues not converged
     ethr =  1.44E-04,  avg # of iterations = 12.2

     negative rho (up, down):  3.041E-03 0.000E+00

     Adding external electric field

     Computed dipole along edir(3) : 
        Dipole                0.0939 Ry au,          0.2386 Debye
        Dipole field          0.0002 Ry au, 

        Potential amp.       -0.0221 Ry
        Total length         45.5598 bohr


     total cpu time spent up to now is     1217.7 secs

     total energy              =   -1795.30629664 Ry
     estimated scf accuracy    <       0.12346207 Ry

     iteration #  6     ecut=    55.12 Ry     beta= 0.10
     Davidson diagonalization with overlap
     c_bands:  1 eigenvalues not converged
     ethr =  7.35E-05,  avg # of iterations =  2.4

     negative rho (up, down):  3.147E-03 0.000E+00

     Adding external electric field

     Computed dipole along edir(3) : 
        Dipole                0.0907 Ry au,          0.2306 Debye
        Dipole field          0.0002 Ry au, 

        Potential amp.       -0.0214 Ry
        Total length         45.5598 bohr


     total cpu time spent up to now is     1448.4 secs

     total energy              =   -1795.29610341 Ry
     estimated scf accuracy    <       0.22765707 Ry

     iteration #  7     ecut=    55.12 Ry     beta= 0.10
     Davidson diagonalization with overlap
     ethr =  7.35E-05,  avg # of iterations =  2.1

     negative rho (up, down):  3.171E-03 0.000E+00

     Adding external electric field

     Computed dipole along edir(3) : 
        Dipole                0.1284 Ry au,          0.3263 Debye
        Dipole field          0.0003 Ry au, 

        Potential amp.       -0.0303 Ry
        Total length         45.5598 bohr


     total cpu time spent up to now is     1668.8 secs

     total energy              =   -1795.31398637 Ry
     estimated scf accuracy    <       0.06930039 Ry

     iteration #  8     ecut=    55.12 Ry     beta= 0.10
     Davidson diagonalization with overlap
     c_bands:  1 eigenvalues not converged
     c_bands:  1 eigenvalues not converged
     c_bands:  1 eigenvalues not converged
     ethr =  4.13E-05,  avg # of iterations =  3.6

     negative rho (up, down):  3.210E-03 0.000E+00

     Adding external electric field

     Computed dipole along edir(3) : 
        Dipole                0.1404 Ry au,          0.3569 Debye
        Dipole field          0.0004 Ry au, 

        Potential amp.       -0.0331 Ry
        Total length         45.5598 bohr


     total cpu time spent up to now is     1894.3 secs

     total energy              =   -1795.31450384 Ry
     estimated scf accuracy    <       0.01908745 Ry

     iteration #  9     ecut=    55.12 Ry     beta= 0.10
     Davidson diagonalization with overlap
     c_bands:  1 eigenvalues not converged
     c_bands:  1 eigenvalues not converged
     c_bands:  1 eigenvalues not converged
     c_bands:  1 eigenvalues not converged
     c_bands:  1 eigenvalues not converged
     c_bands:  1 eigenvalues not converged
     c_bands:  2 eigenvalues not converged
     c_bands:  1 eigenvalues not converged
     c_bands:  1 eigenvalues not converged
     c_bands:  2 eigenvalues not converged
     c_bands:  1 eigenvalues not converged
     c_bands:  1 eigenvalues not converged
     c_bands:  1 eigenvalues not converged
     c_bands:  2 eigenvalues not converged
     c_bands:  1 eigenvalues not converged
     c_bands:  1 eigenvalues not converged
     c_bands:  1 eigenvalues not converged
     c_bands:  1 eigenvalues not converged
     c_bands:  1 eigenvalues not converged
     ethr =  1.14E-05,  avg # of iterations = 16.2

     negative rho (up, down):  3.261E-03 0.000E+00

     Adding external electric field

     Computed dipole along edir(3) : 
        Dipole                0.1164 Ry au,          0.2960 Debye
        Dipole field          0.0003 Ry au, 

        Potential amp.       -0.0275 Ry
        Total length         45.5598 bohr


     total cpu time spent up to now is     2178.8 secs

     total energy              =   -1795.31400313 Ry
     estimated scf accuracy    <       0.00582196 Ry

     iteration # 10     ecut=    55.12 Ry     beta= 0.10
     Davidson diagonalization with overlap
     c_bands:  1 eigenvalues not converged
     c_bands:  1 eigenvalues not converged
     c_bands:  1 eigenvalues not converged
     c_bands:  1 eigenvalues not converged
     ethr =  3.47E-06,  avg # of iterations =  9.2

     negative rho (up, down):  3.279E-03 0.000E+00

     Adding external electric field

     Computed dipole along edir(3) : 
        Dipole                0.1243 Ry au,          0.3159 Debye
        Dipole field          0.0003 Ry au, 

        Potential amp.       -0.0293 Ry
        Total length         45.5598 bohr


     total cpu time spent up to now is     2485.9 secs

     total energy              =   -1795.31492097 Ry
     estimated scf accuracy    <       0.00831416 Ry

     iteration # 11     ecut=    55.12 Ry     beta= 0.10
     Davidson diagonalization with overlap
     ethr =  3.47E-06,  avg # of iterations =  1.7

     negative rho (up, down):  3.269E-03 0.000E+00

     Adding external electric field

     Computed dipole along edir(3) : 
        Dipole                0.1296 Ry au,          0.3293 Debye
        Dipole field          0.0003 Ry au, 

        Potential amp.       -0.0305 Ry
        Total length         45.5598 bohr


     total cpu time spent up to now is     2700.1 secs

     total energy              =   -1795.31515890 Ry
     estimated scf accuracy    <       0.00122727 Ry

     iteration # 12     ecut=    55.12 Ry     beta= 0.10
     Davidson diagonalization with overlap
     ethr =  7.31E-07,  avg # of iterations =  2.0

     negative rho (up, down):  3.268E-03 0.000E+00

     Adding external electric field

     Computed dipole along edir(3) : 
        Dipole                0.1321 Ry au,          0.3358 Debye
        Dipole field          0.0003 Ry au, 

        Potential amp.       -0.0312 Ry
        Total length         45.5598 bohr


     total cpu time spent up to now is     2926.5 secs

     total energy              =   -1795.31523872 Ry
     estimated scf accuracy    <       0.00034564 Ry

     iteration # 13     ecut=    55.12 Ry     beta= 0.10
     Davidson diagonalization with overlap
     c_bands:  1 eigenvalues not converged
     c_bands:  1 eigenvalues not converged
     ethr =  2.06E-07,  avg # of iterations =  3.2

     negative rho (up, down):  3.269E-03 0.000E+00

     Adding external electric field

     Computed dipole along edir(3) : 
        Dipole                0.1251 Ry au,          0.3179 Debye
        Dipole field          0.0003 Ry au, 

        Potential amp.       -0.0295 Ry
        Total length         45.5598 bohr


     total cpu time spent up to now is     3167.6 secs

     total energy              =   -1795.31522144 Ry
     estimated scf accuracy    <       0.00045640 Ry

     iteration # 14     ecut=    55.12 Ry     beta= 0.10
     Davidson diagonalization with overlap
     ethr =  2.06E-07,  avg # of iterations =  2.0

     negative rho (up, down):  3.268E-03 0.000E+00

     Adding external electric field

     Computed dipole along edir(3) : 
        Dipole                0.1266 Ry au,          0.3217 Debye
        Dipole field          0.0003 Ry au, 

        Potential amp.       -0.0298 Ry
        Total length         45.5598 bohr


     total cpu time spent up to now is     3394.5 secs

     total energy              =   -1795.31528113 Ry
     estimated scf accuracy    <       0.00010523 Ry

     iteration # 15     ecut=    55.12 Ry     beta= 0.10
     Davidson diagonalization with overlap
     ethr =  6.26E-08,  avg # of iterations =  2.0

     negative rho (up, down):  3.262E-03 0.000E+00

     Adding external electric field

     Computed dipole along edir(3) : 
        Dipole                0.1290 Ry au,          0.3278 Debye
        Dipole field          0.0003 Ry au, 

        Potential amp.       -0.0304 Ry
        Total length         45.5598 bohr


     total cpu time spent up to now is     3637.1 secs

     total energy              =   -1795.31526697 Ry
     estimated scf accuracy    <       0.00006662 Ry

     iteration # 16     ecut=    55.12 Ry     beta= 0.10
     Davidson diagonalization with overlap
     ethr =  3.97E-08,  avg # of iterations =  2.0

     negative rho (up, down):  3.221E-03 0.000E+00

     Adding external electric field

     Computed dipole along edir(3) : 
        Dipole                0.1209 Ry au,          0.3074 Debye
        Dipole field          0.0003 Ry au, 

        Potential amp.       -0.0285 Ry
        Total length         45.5598 bohr


     total cpu time spent up to now is     3875.8 secs

     End of self-consistent calculation

          k = 0.0000 0.0000 0.0000 ( 33505 PWs)   bands (ev):

   -71.4179 -71.3899 -71.1687 -71.1414 -70.7279 -70.6995 -42.1138 -42.0788
   -41.3833 -41.1928 -41.1913 -41.1605 -41.0720 -41.0273 -41.0044 -40.9978
   -40.9782 -40.9474 -40.8937 -40.6912 -40.6596 -40.6399 -40.6130 -40.5823
    -8.3509  -8.1489  -8.1203  -8.0838  -7.9970  -7.8452  -7.7961  -7.7750
    -7.7360  -7.7119  -7.6498  -7.6308  -7.4164  -7.3561  -7.3228  -7.2464
    -7.2025  -7.1771  -7.1520  -7.1364  -7.0983  -7.0626  -7.0394  -6.9395
    -6.9131  -6.8986  -6.8870  -6.7899  -6.7074  -6.4316  -6.1340  -4.4664
    -2.9943  -2.6834  -2.3804  -2.2913  -1.8774  -1.8013  -1.5039  -1.3844
    -1.2443  -1.1592  -1.0198  -0.8211  -0.3821  -0.1783  -0.1494  -0.0796
     0.1097   0.3735   0.4623   0.7221   0.7259   0.9949   1.0288   1.1028
     1.1749   1.4240   1.5678   1.6164   1.6771   1.6808   1.7267   2.0391
     2.1202   2.1642   2.3564   2.6598   3.0663   3.2305   3.5335   3.7462
     3.8695   4.5855   4.5872   5.2696   5.4354

          k = 0.0000 0.0163 0.0000 ( 33499 PWs)   bands (ev):

   -71.4179 -71.3899 -71.1687 -71.1414 -70.7279 -70.6995 -42.1138 -42.0788
   -41.3833 -41.1928 -41.1913 -41.1605 -41.0720 -41.0273 -41.0044 -40.9978
   -40.9782 -40.9474 -40.8937 -40.6912 -40.6596 -40.6399 -40.6130 -40.5823
    -8.3492  -8.1437  -8.1197  -8.0833  -7.9892  -7.8406  -7.7888  -7.7679
    -7.7358  -7.7088  -7.6498  -7.6257  -7.4162  -7.3543  -7.3230  -7.2409
    -7.2049  -7.1758  -7.1467  -7.1326  -7.1004  -7.0605  -7.0355  -6.9374
    -6.9122  -6.8974  -6.8861  -6.7899  -6.7070  -6.4315  -6.0865  -4.4299
    -2.9783  -2.6959  -2.3616  -2.2935  -1.8831  -1.8569  -1.4933  -1.3866
    -1.2698  -1.2017  -1.0270  -0.8531  -0.5423  -0.2529  -0.2172  -0.0829
     0.2336   0.3580   0.4486   0.5741   0.6907   0.8787   0.9900   1.1619
     1.1861   1.3573   1.5677   1.6609   1.6658   1.7247   1.8131   1.8908
     1.8931   2.0349   2.3568   2.7574   3.0069   3.5190   3.5194   3.9350
     3.9495   4.6314   4.7464   5.3061   5.4470

          k = 0.0000 0.0325 0.0000 ( 33597 PWs)   bands (ev):

   -71.4179 -71.3899 -71.1687 -71.1414 -70.7279 -70.6995 -42.1138 -42.0789
   -41.3834 -41.1930 -41.1913 -41.1606 -41.0720 -41.0274 -41.0045 -40.9978
   -40.9783 -40.9474 -40.8937 -40.6914 -40.6597 -40.6399 -40.6130 -40.5823
    -8.3448  -8.1299  -8.1179  -8.0818  -7.9671  -7.8284  -7.7689  -7.7480
    -7.7352  -7.7009  -7.6496  -7.6116  -7.4155  -7.3498  -7.3233  -7.2277
    -7.2079  -7.1724  -7.1324  -7.1229  -7.1066  -7.0550  -7.0263  -6.9312
    -6.9104  -6.8937  -6.8837  -6.7898  -6.7058  -6.4312  -5.9446  -4.3241
    -2.9369  -2.7292  -2.3059  -2.2995  -2.0259  -1.9019  -1.4618  -1.4066
    -1.3393  -1.3219  -1.0490  -0.9337  -0.8533  -0.4027  -0.3310  -0.0920
     0.2110   0.2425   0.4095   0.4363   0.5904   0.7358   0.7707   1.1270
     1.2112   1.3419   1.4653   1.5253   1.5656   1.6075   1.6346   1.7207
     2.1671   2.2799   2.3581   2.8074   2.9812   3.5627   3.6623   4.0789
     4.4278   4.7565   4.9645   5.4747   5.6045

          k = 0.0000 0.0488 0.0000 ( 33597 PWs)   bands (ev):

   -71.4179 -71.3899 -71.1687 -71.1414 -70.7279 -70.6995 -42.1139 -42.0789
   -41.3835 -41.1932 -41.1913 -41.1606 -41.0720 -41.0274 -41.0045 -40.9979
   -40.9783 -40.9475 -40.8937 -40.6916 -40.6598 -40.6399 -40.6130 -40.5823
    -8.3387  -8.1155  -8.1119  -8.0798  -7.9351  -7.8116  -7.7413  -7.7343
    -7.7199  -7.6911  -7.6487  -7.5922  -7.4141  -7.3441  -7.3226  -7.2183
    -7.2038  -7.1679  -7.1156  -7.1107  -7.1105  -7.0472  -7.0164  -6.9224
    -6.9088  -6.8879  -6.8801  -6.7896  -6.7035  -6.4307  -5.7124  -4.1652
    -2.9033  -2.7733  -2.3243  -2.2720  -2.2141  -1.9413  -1.4948  -1.4889
    -1.4123  -1.4078  -1.1266  -1.0877  -1.0287  -0.5426  -0.5067  -0.1046
    -0.0789  -0.0775   0.2809   0.3555   0.5221   0.5533   0.7603   1.0554
     1.0810   1.1380   1.2182   1.5578   1.5766   1.5942   1.6365   1.7174
     2.3596   2.4625   2.6131   2.6750   3.1753   3.4368   3.7591   4.2583
     4.6382   4.8925   5.3641   5.5993   5.7259

          k = 0.0000 0.0650 0.0000 ( 33593 PWs)   bands (ev):

   -71.4179 -71.3899 -71.1687 -71.1414 -70.7279 -70.6995 -42.1139 -42.0789
   -41.3835 -41.1935 -41.1914 -41.1606 -41.0720 -41.0274 -41.0045 -40.9979
   -40.9783 -40.9476 -40.8938 -40.6918 -40.6599 -40.6399 -40.6130 -40.5823
    -8.3327  -8.1130  -8.0949  -8.0779  -7.9010  -7.7948  -7.7333  -7.7133
    -7.6930  -7.6812  -7.6465  -7.5728  -7.4121  -7.3406  -7.3195  -7.2151
    -7.1963  -7.1637  -7.1245  -7.1005  -7.0825  -7.0391  -7.0089  -6.9144
    -6.9080  -6.8821  -6.8758  -6.7892  -6.7004  -6.4300  -5.4027  -4.0104
    -2.9805  -2.8166  -2.5199  -2.2833  -2.0902  -2.0128  -1.6553  -1.6261
    -1.4804  -1.3572  -1.3066  -1.1433  -1.1097  -0.7091  -0.6589  -0.3813
    -0.3421  -0.1175  -0.0486   0.3071   0.3534   0.5491   0.7233   0.7673
     1.0365   1.2235   1.2605   1.5363   1.5654   1.6135   1.6731   1.7162
     2.3610   2.4835   2.6933   2.8942   3.2350   3.4285   3.9642   4.4743
     4.5712   4.8831   5.5675   5.9973   6.0263

          k = 0.0000 0.0813 0.0000 ( 33595 PWs)   bands (ev):

   -71.4179 -71.3899 -71.1687 -71.1414 -70.7279 -70.6995 -42.1140 -42.0789
   -41.3836 -41.1936 -41.1914 -41.1607 -41.0721 -41.0274 -41.0045 -40.9979
   -40.9783 -40.9476 -40.8938 -40.6919 -40.6600 -40.6400 -40.6130 -40.5823
    -8.3283  -8.1111  -8.0828  -8.0766  -7.8746  -7.7825  -7.7325  -7.6925
    -7.6838  -7.6644  -7.6441  -7.5584  -7.4101  -7.3401  -7.3152  -7.2121
    -7.1937  -7.1606  -7.1310  -7.0942  -7.0569  -7.0331  -7.0049  -6.9104
    -6.9076  -6.8783  -6.8721  -6.7888  -6.6975  -6.4293  -5.0560  -4.0182
    -3.0898  -2.8480  -2.6168  -2.2148  -2.0976  -1.9538  -1.8167  -1.7439
    -1.5463  -1.4062  -1.3546  -1.1711  -1.1540  -0.8798  -0.7388  -0.5772
    -0.5141  -0.2914  -0.1270   0.2537   0.2882   0.4926   0.5502   0.7758
     1.0048   1.2260   1.4187   1.5095   1.5543   1.6650   1.6801   1.7163
     2.3619   2.4160   2.6771   2.9490   3.3143   3.7039   4.0513   4.5008
     4.6605   4.6716   5.7278   6.3244   6.4925

          k = 0.0000-0.0976 0.0000 ( 33626 PWs)   bands (ev):

   -71.4179 -71.3899 -71.1687 -71.1414 -70.7279 -70.6995 -42.1140 -42.0789
   -41.3836 -41.1937 -41.1914 -41.1607 -41.0721 -41.0274 -41.0045 -40.9979
   -40.9783 -40.9476 -40.8938 -40.6920 -40.6600 -40.6400 -40.6130 -40.5823
    -8.3267  -8.1104  -8.0785  -8.0762  -7.8647  -7.7780  -7.7322  -7.6847
    -7.6827  -7.6559  -7.6435  -7.5531  -7.4093  -7.3403  -7.3134  -7.2106
    -7.1935  -7.1596  -7.1332  -7.0922  -7.0462  -7.0309  -7.0037  -6.9097
    -6.9075  -6.8770  -6.8706  -6.7886  -6.6962  -6.4290  -4.8470  -4.1422
    -3.0653  -2.8595  -2.6770  -2.1355  -2.1256  -1.9625  -1.8797  -1.7695
    -1.5691  -1.4380  -1.3976  -1.1644  -1.1482  -0.9557  -0.7687  -0.6411
    -0.5734  -0.3779  -0.1305   0.2230   0.3010   0.3924   0.5509   0.7793
     0.9933   1.2266   1.4843   1.4988   1.5509   1.6803   1.6899   1.7165
     2.3622   2.3957   2.6236   2.9587   3.4140   3.8247   4.0588   4.4746
     4.5264   4.7500   5.9215   6.2239   6.5810

          k = 0.0147 0.0081 0.0000 ( 33510 PWs)   bands (ev):

   -71.4175 -71.3904 -71.1683 -71.1419 -70.7274 -70.7000 -42.1132 -42.0794
   -41.3781 -41.1922 -41.1863 -41.1611 -41.0774 -41.0268 -41.0040 -40.9983
   -40.9787 -40.9422 -40.8989 -40.6907 -40.6602 -40.6452 -40.6125 -40.5829
    -8.3285  -8.1341  -8.0955  -8.0584  -7.9816  -7.8376  -7.7896  -7.7630
    -7.7382  -7.6996  -7.6379  -7.6291  -7.4068  -7.3530  -7.3218  -7.2472
    -7.2052  -7.1944  -7.1534  -7.1319  -7.0967  -7.0773  -7.0402  -6.9499
    -6.9279  -6.9133  -6.9022  -6.8016  -6.7280  -6.4570  -6.0859  -4.4251
    -2.9750  -2.6769  -2.4567  -2.2759  -1.8962  -1.7864  -1.5894  -1.3526
    -1.2062  -1.1568  -1.0111  -0.8047  -0.4019  -0.2711  -0.1813  -0.0819
     0.1825   0.3313   0.4789   0.6524   0.7046   0.9224   0.9856   1.1027
     1.1032   1.3381   1.4802   1.5363   1.5760   1.6461   1.8822   1.9387
     2.1182   2.2981   2.3706   2.6204   2.8379   3.2967   3.3981   3.8703
     4.1195   4.6291   4.8666   5.3068   5.4913

          k = 0.0147 0.0244 0.0000 ( 33536 PWs)   bands (ev):

   -71.4175 -71.3904 -71.1683 -71.1419 -70.7274 -70.7000 -42.1132 -42.0794
   -41.3781 -41.1923 -41.1863 -41.1611 -41.0774 -41.0268 -41.0040 -40.9983
   -40.9787 -40.9422 -40.8989 -40.6908 -40.6602 -40.6452 -40.6125 -40.5828
    -8.3254  -8.1243  -8.0943  -8.0574  -7.9665  -7.8289  -7.7761  -7.7516
    -7.7357  -7.6937  -7.6379  -7.6196  -7.4064  -7.3499  -7.3221  -7.2371
    -7.2087  -7.1922  -7.1439  -7.1259  -7.1008  -7.0735  -7.0331  -6.9460
    -6.9266  -6.9108  -6.9008  -6.8016  -6.7274  -6.4570  -5.9908  -4.3532
    -2.9441  -2.6990  -2.4285  -2.2793  -1.9077  -1.8987  -1.5742  -1.3608
    -1.2574  -1.2537  -1.0204  -0.8637  -0.6611  -0.3492  -0.2547  -0.1432
     0.2703   0.3306   0.4529   0.4589   0.6106   0.7719   0.8285   1.0459
     1.1711   1.3883   1.4548   1.5391   1.5955   1.5957   1.7378   1.9040
     2.0951   2.1867   2.3365   2.7130   2.8489   3.3781   3.7324   3.9733
     4.3128   4.7166   5.0327   5.4035   5.5306

          k = 0.0147 0.0407 0.0000 ( 33593 PWs)   bands (ev):

   -71.4175 -71.3904 -71.1683 -71.1419 -70.7274 -70.7000 -42.1133 -42.0795
   -41.3782 -41.1926 -41.1864 -41.1611 -41.0774 -41.0269 -41.0040 -40.9983
   -40.9787 -40.9423 -40.8989 -40.6910 -40.6603 -40.6453 -40.6125 -40.5829
    -8.3202  -8.1080  -8.0923  -8.0558  -7.9390  -7.8138  -7.7523  -7.7423
    -7.7200  -7.6842  -7.6375  -7.6031  -7.4054  -7.3447  -7.3223  -7.2238
    -7.2094  -7.1886  -7.1269  -7.1159  -7.1084  -7.0672  -7.0230  -6.9387
    -6.9247  -6.9063  -6.8981  -6.8015  -6.7259  -6.4568  -5.8032  -4.2184
    -2.8980  -2.7365  -2.3778  -2.2845  -2.1230  -1.9316  -1.5508  -1.4175
    -1.4061  -1.3357  -1.0589  -0.9521  -0.9252  -0.4697  -0.3947  -0.1680
     0.0111   0.0937   0.4201   0.4274   0.5249   0.5930   0.7443   0.9429
     1.1576   1.2467   1.3446   1.4816   1.5524   1.5860   1.6661   1.7497
     2.3173   2.3642   2.4162   2.7269   3.0470   3.5335   3.6321   4.1098
     4.6226   4.8648   5.2775   5.5979   5.7393

          k = 0.0147 0.0569 0.0000 ( 33604 PWs)   bands (ev):

   -71.4175 -71.3904 -71.1683 -71.1419 -70.7274 -70.7000 -42.1133 -42.0795
   -41.3783 -41.1928 -41.1864 -41.1612 -41.0775 -41.0269 -41.0041 -40.9984
   -40.9787 -40.9424 -40.8989 -40.6912 -40.6604 -40.6453 -40.6125 -40.5829
    -8.3141  -8.0900  -8.0897  -8.0540  -7.9052  -7.7965  -7.7400  -7.7244
    -7.6927  -7.6744  -7.6361  -7.5840  -7.4036  -7.3399  -7.3210  -7.2184
    -7.2022  -7.1845  -7.1176  -7.1049  -7.1028  -7.0602  -7.0142  -6.9301
    -6.9233  -6.9010  -6.8945  -6.8013  -6.7234  -6.4565  -5.5312  -4.0519
    -2.8982  -2.7790  -2.3994  -2.3252  -2.2772  -1.9610  -1.6079  -1.5201
    -1.5191  -1.4023  -1.1586  -1.0449  -1.0403  -0.5914  -0.5874  -0.2791
    -0.2383  -0.1740   0.1328   0.3668   0.4437   0.5142   0.7377   0.9022
     0.9664   1.2100   1.2757   1.4831   1.5254   1.6433   1.6513   1.7175
     2.3295   2.3761   2.6910   2.8631   3.3133   3.3543   3.7237   4.2477
     4.9306   4.9577   5.6108   5.6119   5.8852

          k = 0.0147 0.0732 0.0000 ( 33600 PWs)   bands (ev):

   -71.4175 -71.3904 -71.1683 -71.1419 -70.7274 -70.7000 -42.1134 -42.0795
   -41.3783 -41.1930 -41.1864 -41.1612 -41.0775 -41.0269 -41.0041 -40.9984
   -40.9787 -40.9424 -40.8989 -40.6913 -40.6605 -40.6453 -40.6125 -40.5829
    -8.3088  -8.0875  -8.0751  -8.0526  -7.8740  -7.7814  -7.7389  -7.6997
    -7.6740  -7.6612  -7.6336  -7.5674  -7.4015  -7.3382  -7.3175  -7.2155
    -7.1970  -7.1807  -7.1258  -7.0961  -7.0760  -7.0547  -7.0086  -6.9240
    -6.9224  -6.8966  -6.8909  -6.8010  -6.7206  -6.4560  -5.1980  -3.9568
    -3.0192  -2.8155  -2.5484  -2.3170  -2.2384  -1.9509  -1.7269  -1.6866
    -1.5379  -1.4761  -1.2094  -1.1041  -1.1037  -0.8054  -0.6806  -0.4835
    -0.4783  -0.2338  -0.1132   0.3131   0.3269   0.5016   0.6395   0.7839
     0.9718   1.2127   1.3758   1.4890   1.5084   1.6310   1.6710   1.7285
     2.3330   2.3381   2.7985   2.9113   3.2824   3.5843   3.8624   4.3622
     4.8217   5.1842   5.6557   6.0525   6.2838

          k = 0.0147 0.0894 0.0000 ( 33610 PWs)   bands (ev):

   -71.4175 -71.3904 -71.1683 -71.1419 -70.7274 -70.7000 -42.1134 -42.0795
   -41.3784 -41.1931 -41.1864 -41.1612 -41.0775 -41.0268 -41.0041 -40.9984
   -40.9788 -40.9425 -40.8989 -40.6914 -40.6606 -40.6453 -40.6125 -40.5829
    -8.3058  -8.0861  -8.0667  -8.0518  -7.8552  -7.7727  -7.7384  -7.6852
    -7.6708  -7.6463  -7.6320  -7.5579  -7.4001  -7.3383  -7.3146  -7.2131
    -7.1960  -7.1782  -7.1307  -7.0914  -7.0574  -7.0516  -7.0062  -6.9220
    -6.9219  -6.8942  -6.8886  -6.8007  -6.7186  -6.4557  -4.8858  -4.0671
    -3.0413  -2.8365  -2.6314  -2.3463  -2.1398  -1.8894  -1.8860  -1.7883
    -1.5776  -1.5212  -1.2013  -1.1288  -1.1275  -0.9668  -0.7349  -0.6004
    -0.5856  -0.3509  -0.1661   0.2525   0.3169   0.4390   0.5704   0.7820
     0.9562   1.2136   1.4376   1.4883   1.5455   1.6432   1.6741   1.7253
     2.3102   2.3508   2.7078   2.9202   3.4373   3.6939   3.9662   4.4187
     4.5997   5.3240   5.8808   6.2516   6.3338

          k = 0.0147-0.0894 0.0000 ( 33610 PWs)   bands (ev):

   -71.4175 -71.3904 -71.1683 -71.1419 -70.7274 -70.7000 -42.1134 -42.0795
   -41.3784 -41.1931 -41.1864 -41.1612 -41.0775 -41.0268 -41.0041 -40.9984
   -40.9788 -40.9425 -40.8989 -40.6914 -40.6606 -40.6453 -40.6125 -40.5829
    -8.3058  -8.0861  -8.0667  -8.0518  -7.8552  -7.7727  -7.7384  -7.6852
    -7.6708  -7.6463  -7.6320  -7.5579  -7.4001  -7.3383  -7.3146  -7.2131
    -7.1960  -7.1782  -7.1307  -7.0914  -7.0574  -7.0516  -7.0062  -6.9220
    -6.9219  -6.8942  -6.8886  -6.8007  -6.7186  -6.4557  -4.8858  -4.0671
    -3.0413  -2.8365  -2.6314  -2.3463  -2.1398  -1.8894  -1.8860  -1.7883
    -1.5776  -1.5212  -1.2013  -1.1288  -1.1275  -0.9668  -0.7349  -0.6004
    -0.5856  -0.3509  -0.1661   0.2525   0.3169   0.4390   0.5704   0.7820
     0.9562   1.2136   1.4376   1.4883   1.5455   1.6432   1.6741   1.7253
     2.3102   2.3508   2.7078   2.9202   3.4373   3.6939   3.9662   4.4187
     4.5997   5.3240   5.8806   6.2516   6.3337

          k = 0.0147-0.0732 0.0000 ( 33600 PWs)   bands (ev):

   -71.4175 -71.3904 -71.1683 -71.1419 -70.7274 -70.7000 -42.1134 -42.0795
   -41.3783 -41.1930 -41.1864 -41.1612 -41.0775 -41.0269 -41.0041 -40.9984
   -40.9787 -40.9424 -40.8989 -40.6913 -40.6605 -40.6453 -40.6125 -40.5829
    -8.3088  -8.0875  -8.0751  -8.0526  -7.8740  -7.7814  -7.7389  -7.6997
    -7.6740  -7.6612  -7.6336  -7.5674  -7.4015  -7.3382  -7.3175  -7.2155
    -7.1970  -7.1807  -7.1258  -7.0961  -7.0760  -7.0547  -7.0086  -6.9240
    -6.9224  -6.8966  -6.8909  -6.8010  -6.7206  -6.4560  -5.1980  -3.9568
    -3.0192  -2.8155  -2.5484  -2.3170  -2.2384  -1.9509  -1.7269  -1.6866
    -1.5379  -1.4761  -1.2094  -1.1041  -1.1037  -0.8054  -0.6806  -0.4835
    -0.4783  -0.2338  -0.1132   0.3131   0.3269   0.5016   0.6395   0.7839
     0.9718   1.2127   1.3758   1.4890   1.5084   1.6310   1.6710   1.7285
     2.3330   2.3381   2.7985   2.9113   3.2824   3.5843   3.8624   4.3622
     4.8217   5.1842   5.6554   6.0524   6.2838

          k = 0.0147-0.0569 0.0000 ( 33604 PWs)   bands (ev):

   -71.4175 -71.3904 -71.1683 -71.1419 -70.7274 -70.7000 -42.1133 -42.0795
   -41.3783 -41.1928 -41.1864 -41.1612 -41.0775 -41.0269 -41.0041 -40.9984
   -40.9787 -40.9424 -40.8989 -40.6912 -40.6604 -40.6453 -40.6125 -40.5829
    -8.3141  -8.0900  -8.0897  -8.0540  -7.9052  -7.7965  -7.7400  -7.7244
    -7.6927  -7.6744  -7.6361  -7.5840  -7.4036  -7.3399  -7.3210  -7.2184
    -7.2022  -7.1845  -7.1176  -7.1049  -7.1028  -7.0602  -7.0142  -6.9301
    -6.9233  -6.9010  -6.8945  -6.8013  -6.7234  -6.4565  -5.5312  -4.0519
    -2.8982  -2.7790  -2.3994  -2.3252  -2.2772  -1.9610  -1.6079  -1.5201
    -1.5191  -1.4023  -1.1586  -1.0449  -1.0403  -0.5914  -0.5874  -0.2791
    -0.2383  -0.1740   0.1328   0.3668   0.4437   0.5142   0.7377   0.9022
     0.9664   1.2100   1.2757   1.4831   1.5254   1.6433   1.6513   1.7175
     2.3295   2.3761   2.6910   2.8631   3.3133   3.3543   3.7237   4.2477
     4.9306   4.9577   5.6109   5.6117   6.0601

          k = 0.0147-0.0407 0.0000 ( 33593 PWs)   bands (ev):

   -71.4175 -71.3904 -71.1683 -71.1419 -70.7274 -70.7000 -42.1133 -42.0795
   -41.3782 -41.1926 -41.1864 -41.1611 -41.0774 -41.0269 -41.0040 -40.9983
   -40.9787 -40.9423 -40.8989 -40.6910 -40.6603 -40.6453 -40.6125 -40.5829
    -8.3202  -8.1080  -8.0923  -8.0558  -7.9390  -7.8138  -7.7523  -7.7423
    -7.7200  -7.6842  -7.6375  -7.6031  -7.4054  -7.3447  -7.3223  -7.2238
    -7.2094  -7.1886  -7.1269  -7.1159  -7.1084  -7.0672  -7.0230  -6.9387
    -6.9247  -6.9063  -6.8981  -6.8015  -6.7259  -6.4568  -5.8032  -4.2184
    -2.8980  -2.7365  -2.3778  -2.2845  -2.1230  -1.9316  -1.5508  -1.4175
    -1.4061  -1.3357  -1.0589  -0.9521  -0.9252  -0.4697  -0.3947  -0.1680
     0.0111   0.0937   0.4201   0.4274   0.5249   0.5930   0.7443   0.9429
     1.1576   1.2467   1.3446   1.4816   1.5524   1.5860   1.6661   1.7497
     2.3173   2.3642   2.4162   2.7269   3.0470   3.5335   3.6321   4.1098
     4.6226   4.8647   5.2775   5.5987   5.7392

          k = 0.0147-0.0244 0.0000 ( 33536 PWs)   bands (ev):

   -71.4175 -71.3904 -71.1683 -71.1419 -70.7274 -70.7000 -42.1132 -42.0794
   -41.3781 -41.1923 -41.1863 -41.1611 -41.0774 -41.0268 -41.0040 -40.9983
   -40.9787 -40.9422 -40.8989 -40.6908 -40.6602 -40.6452 -40.6125 -40.5828
    -8.3254  -8.1243  -8.0943  -8.0574  -7.9665  -7.8289  -7.7761  -7.7516
    -7.7357  -7.6937  -7.6379  -7.6196  -7.4064  -7.3499  -7.3221  -7.2371
    -7.2087  -7.1922  -7.1439  -7.1259  -7.1008  -7.0735  -7.0331  -6.9460
    -6.9266  -6.9108  -6.9008  -6.8016  -6.7274  -6.4570  -5.9908  -4.3532
    -2.9441  -2.6990  -2.4285  -2.2793  -1.9077  -1.8987  -1.5742  -1.3608
    -1.2574  -1.2537  -1.0204  -0.8637  -0.6611  -0.3492  -0.2547  -0.1432
     0.2703   0.3306   0.4529   0.4589   0.6106   0.7719   0.8285   1.0459
     1.1711   1.3883   1.4548   1.5391   1.5955   1.5957   1.7378   1.9040
     2.0950   2.1867   2.3365   2.7130   2.8489   3.3781   3.7324   3.9733
     4.3128   4.7167   5.0327   5.4033   5.5305

          k = 0.0147-0.0081 0.0000 ( 33510 PWs)   bands (ev):

   -71.4175 -71.3904 -71.1683 -71.1419 -70.7274 -70.7000 -42.1132 -42.0794
   -41.3781 -41.1922 -41.1863 -41.1611 -41.0774 -41.0268 -41.0040 -40.9983
   -40.9787 -40.9422 -40.8989 -40.6907 -40.6602 -40.6452 -40.6125 -40.5829
    -8.3285  -8.1341  -8.0955  -8.0584  -7.9816  -7.8376  -7.7896  -7.7630
    -7.7382  -7.6996  -7.6379  -7.6291  -7.4068  -7.3530  -7.3218  -7.2472
    -7.2052  -7.1944  -7.1534  -7.1319  -7.0967  -7.0773  -7.0402  -6.9499
    -6.9279  -6.9133  -6.9022  -6.8016  -6.7280  -6.4570  -6.0859  -4.4251
    -2.9750  -2.6769  -2.4567  -2.2759  -1.8962  -1.7864  -1.5894  -1.3526
    -1.2062  -1.1568  -1.0111  -0.8047  -0.4019  -0.2711  -0.1813  -0.0819
     0.1825   0.3313   0.4789   0.6524   0.7046   0.9224   0.9856   1.1027
     1.1032   1.3381   1.4802   1.5363   1.5760   1.6461   1.8822   1.9387
     2.1182   2.2981   2.3706   2.6204   2.8379   3.2967   3.3981   3.8703
     4.1195   4.6291   4.8666   5.3067   5.4913

          k = 0.0294 0.0163 0.0000 ( 33530 PWs)   bands (ev):

   -71.4161 -71.3918 -71.1669 -71.1432 -70.7260 -70.7014 -42.1115 -42.0812
   -41.3628 -41.1907 -41.1717 -41.1627 -41.0932 -41.0254 -41.0027 -40.9998
   -40.9800 -40.9271 -40.9140 -40.6892 -40.6618 -40.6609 -40.6110 -40.5844
    -8.2646  -8.0904  -8.0231  -7.9842  -7.9362  -7.8138  -7.7714  -7.7586
    -7.7132  -7.6655  -7.6229  -7.6036  -7.3787  -7.3454  -7.3207  -7.2507
    -7.2406  -7.2124  -7.1593  -7.1297  -7.1134  -7.0908  -7.0434  -6.9804
    -6.9710  -6.9556  -6.9453  -6.8354  -6.7891  -6.5315  -5.9429  -4.3027
    -2.9173  -2.7535  -2.5723  -2.2348  -1.9705  -1.7792  -1.7419  -1.2691
    -1.2117  -1.0984  -0.9734  -0.7517  -0.4638  -0.4624  -0.1891  -0.1379
     0.2710   0.2929   0.4813   0.4951   0.6176   0.7387   0.7959   0.9226
     1.0521   1.2352   1.3249   1.4454   1.4510   1.5107   1.8457   2.1013
     2.1920   2.3041   2.3438   2.5808   2.6006   2.9243   3.8091   3.9019
     4.5288   4.7541   5.2461   5.4187   5.7027

          k = 0.0294 0.0325 0.0000 ( 33568 PWs)   bands (ev):

   -71.4161 -71.3918 -71.1669 -71.1432 -70.7260 -70.7014 -42.1115 -42.0812
   -41.3629 -41.1908 -41.1717 -41.1628 -41.0932 -41.0254 -41.0027 -40.9998
   -40.9800 -40.9272 -40.9140 -40.6893 -40.6619 -40.6609 -40.6110 -40.5844
    -8.2607  -8.0774  -8.0216  -7.9834  -7.9154  -7.8014  -7.7567  -7.7541
    -7.6964  -7.6564  -7.6135  -7.6020  -7.3779  -7.3419  -7.3213  -7.2385
    -7.2380  -7.2155  -7.1487  -7.1308  -7.1043  -7.0955  -7.0336  -6.9758
    -6.9696  -6.9525  -6.9442  -6.8356  -6.7886  -6.5319  -5.8012  -4.1992
    -2.8734  -2.7597  -2.5911  -2.2380  -1.9873  -1.9106  -1.7660  -1.3698
    -1.2951  -1.1725  -0.9790  -0.8226  -0.7321  -0.4664  -0.2747  -0.2485
     0.0672   0.2289   0.4294   0.4816   0.4908   0.5989   0.7194   0.8206
     1.0648   1.2226   1.3231   1.4798   1.4931   1.5286   1.7723   2.0889
     2.1247   2.2725   2.4576   2.4880   2.7695   3.1146   3.9327   3.9585
     4.6696   4.8884   5.3394   5.6004   5.8169

          k = 0.0294 0.0488 0.0000 ( 33598 PWs)   bands (ev):

   -71.4161 -71.3918 -71.1669 -71.1432 -70.7260 -70.7014 -42.1116 -42.0812
   -41.3629 -41.1911 -41.1717 -41.1628 -41.0933 -41.0254 -41.0028 -40.9998
   -40.9800 -40.9272 -40.9140 -40.6895 -40.6620 -40.6609 -40.6110 -40.5844
    -8.2553  -8.0602  -8.0194  -7.9823  -7.8851  -7.7845  -7.7551  -7.7298
    -7.6712  -7.6456  -7.6065  -7.5933  -7.3765  -7.3375  -7.3220  -7.2351
    -7.2268  -7.2136  -7.1325  -7.1272  -7.1070  -7.0925  -7.0237  -6.9682
    -6.9677  -6.9491  -6.9423  -6.8356  -6.7875  -6.5324  -5.5724  -4.0471
    -2.8314  -2.7780  -2.6253  -2.2442  -2.1664  -2.0038  -1.7548  -1.5406
    -1.3759  -1.2486  -1.0442  -0.9048  -0.9025  -0.5143  -0.4384  -0.3180
    -0.2472  -0.0442   0.2904   0.3866   0.4788   0.5086   0.7159   0.8280
     0.9613   1.1760   1.3163   1.4365   1.5013   1.5933   1.6041   1.8893
     2.1329   2.2607   2.6704   2.7554   3.0738   3.3580   3.6407   4.2259
     4.8511   5.0316   5.4968   5.7414   5.8884

          k = 0.0294 0.0650 0.0000 ( 33587 PWs)   bands (ev):

   -71.4161 -71.3918 -71.1669 -71.1432 -70.7260 -70.7014 -42.1116 -42.0812
   -41.3630 -41.1913 -41.1718 -41.1628 -41.0933 -41.0254 -41.0028 -40.9999
   -40.9800 -40.9273 -40.9140 -40.6896 -40.6621 -40.6609 -40.6110 -40.5844
    -8.2500  -8.0437  -8.0170  -7.9813  -7.8525  -7.7677  -7.7542  -7.7048
    -7.6456  -7.6359  -7.6026  -7.5798  -7.3746  -7.3345  -7.3221  -7.2307
    -7.2228  -7.2069  -7.1221  -7.1136  -7.1114  -7.0880  -7.0170  -6.9659
    -6.9603  -6.9463  -6.9401  -6.8355  -6.7858  -6.5329  -5.2725  -3.9056
    -2.8702  -2.8074  -2.6800  -2.4121  -2.2090  -1.9960  -1.7705  -1.6524
    -1.5161  -1.3179  -1.1478  -0.9776  -0.9689  -0.6819  -0.5851  -0.4403
    -0.3930  -0.2617   0.0239   0.3519   0.3957   0.4760   0.6960   0.8289
     0.8782   1.1771   1.3175   1.4011   1.4741   1.5658   1.6396   1.8258
     2.1139   2.2790   2.7436   3.0075   3.1543   3.3720   3.8425   4.5653
     5.0373   5.1217   5.6904   5.6998   5.9843

          k = 0.0294 0.0813 0.0000 ( 33621 PWs)   bands (ev):

   -71.4161 -71.3918 -71.1669 -71.1432 -70.7260 -70.7014 -42.1116 -42.0813
   -41.3631 -41.1914 -41.1718 -41.1628 -41.0933 -41.0254 -41.0028 -40.9999
   -40.9801 -40.9273 -40.9140 -40.6898 -40.6621 -40.6609 -40.6110 -40.5844
    -8.2460  -8.0320  -8.0151  -7.9807  -7.8270  -7.7554  -7.7537  -7.6860
    -7.6380  -7.6186  -7.5990  -7.5697  -7.3728  -7.3337  -7.3217  -7.2263
    -7.2204  -7.2038  -7.1245  -7.1112  -7.0921  -7.0868  -7.0135  -6.9647
    -6.9553  -6.9444  -6.9384  -6.8354  -6.7840  -6.5332  -4.9457  -3.9130
    -2.9441  -2.8383  -2.7344  -2.5177  -2.1353  -1.9531  -1.8258  -1.7129
    -1.6879  -1.3792  -1.2034  -1.0213  -1.0145  -0.8718  -0.6430  -0.5499
    -0.5056  -0.3469  -0.1525   0.3191   0.3205   0.4729   0.6373   0.7888
     0.8670   1.1782   1.3387   1.3809   1.4937   1.5855   1.6546   1.8028
     2.1043   2.3173   2.7682   2.9294   3.1545   3.4951   4.1561   4.8104
     4.8246   5.5741   5.7338   5.8519   6.2338

          k = 0.0294 0.0976 0.0000 ( 33582 PWs)   bands (ev):

   -71.4161 -71.3918 -71.1669 -71.1432 -70.7260 -70.7014 -42.1116 -42.0812
   -41.3631 -41.1915 -41.1718 -41.1628 -41.0933 -41.0254 -41.0028 -40.9999
   -40.9801 -40.9273 -40.9140 -40.6898 -40.6621 -40.6609 -40.6110 -40.5844
    -8.2446  -8.0277  -8.0144  -7.9804  -7.8172  -7.7535  -7.7509  -7.6790
    -7.6373  -7.6099  -7.5979  -7.5661  -7.3720  -7.3336  -7.3216  -7.2242
    -7.2192  -7.2033  -7.1268  -7.1084  -7.0871  -7.0841  -7.0124  -6.9643
    -6.9539  -6.9437  -6.9378  -6.8353  -6.7832  -6.5333  -4.7585  -4.0137
    -2.9251  -2.8529  -2.7556  -2.5687  -2.0464  -1.9095  -1.8697  -1.8599
    -1.6968  -1.4016  -1.2139  -1.0453  -1.0310  -0.9332  -0.6650  -0.5879
    -0.5516  -0.3803  -0.2029   0.2941   0.3079   0.4673   0.6115   0.7856
     0.8558   1.1778   1.3453   1.3689   1.5003   1.6304   1.6575   1.7809
     2.1019   2.3447   2.7736   2.8428   3.1523   3.6254   4.2352   4.6638
     4.9021   5.6900   6.0496   6.0834   6.3808

          k = 0.0294-0.0813 0.0000 ( 33621 PWs)   bands (ev):

   -71.4161 -71.3918 -71.1669 -71.1432 -70.7260 -70.7014 -42.1116 -42.0813
   -41.3631 -41.1914 -41.1718 -41.1628 -41.0933 -41.0254 -41.0028 -40.9999
   -40.9801 -40.9273 -40.9140 -40.6898 -40.6621 -40.6609 -40.6110 -40.5844
    -8.2460  -8.0320  -8.0151  -7.9807  -7.8270  -7.7554  -7.7537  -7.6860
    -7.6380  -7.6186  -7.5990  -7.5697  -7.3728  -7.3337  -7.3217  -7.2263
    -7.2204  -7.2038  -7.1245  -7.1112  -7.0921  -7.0868  -7.0135  -6.9647
    -6.9553  -6.9444  -6.9384  -6.8354  -6.7840  -6.5332  -4.9457  -3.9130
    -2.9441  -2.8383  -2.7344  -2.5177  -2.1353  -1.9531  -1.8258  -1.7129
    -1.6879  -1.3792  -1.2034  -1.0213  -1.0145  -0.8718  -0.6430  -0.5499
    -0.5056  -0.3469  -0.1525   0.3191   0.3205   0.4729   0.6373   0.7888
     0.8670   1.1782   1.3387   1.3809   1.4937   1.5855   1.6546   1.8028
     2.1043   2.3173   2.7682   2.9294   3.1545   3.4950   4.1561   4.8104
     4.8246   5.5741   5.7338   5.8517   6.2339

          k = 0.0294-0.0650 0.0000 ( 33587 PWs)   bands (ev):

   -71.4161 -71.3918 -71.1669 -71.1432 -70.7260 -70.7014 -42.1116 -42.0812
   -41.3630 -41.1913 -41.1718 -41.1628 -41.0933 -41.0254 -41.0028 -40.9999
   -40.9800 -40.9273 -40.9140 -40.6896 -40.6621 -40.6609 -40.6110 -40.5844
    -8.2500  -8.0437  -8.0170  -7.9813  -7.8525  -7.7677  -7.7542  -7.7048
    -7.6456  -7.6359  -7.6026  -7.5798  -7.3746  -7.3345  -7.3221  -7.2307
    -7.2228  -7.2069  -7.1221  -7.1136  -7.1114  -7.0880  -7.0170  -6.9659
    -6.9603  -6.9463  -6.9401  -6.8355  -6.7858  -6.5329  -5.2725  -3.9056
    -2.8702  -2.8074  -2.6800  -2.4121  -2.2090  -1.9960  -1.7705  -1.6524
    -1.5161  -1.3179  -1.1478  -0.9776  -0.9689  -0.6819  -0.5851  -0.4403
    -0.3930  -0.2617   0.0239   0.3519   0.3957   0.4760   0.6960   0.8289
     0.8782   1.1771   1.3175   1.4011   1.4741   1.5658   1.6396   1.8258
     2.1139   2.2790   2.7436   3.0075   3.1543   3.3720   3.8425   4.5653
     5.0373   5.1217   5.6904   5.7000   5.9844

          k = 0.0294-0.0488 0.0000 ( 33598 PWs)   bands (ev):

   -71.4161 -71.3918 -71.1669 -71.1432 -70.7260 -70.7014 -42.1116 -42.0812
   -41.3629 -41.1911 -41.1717 -41.1628 -41.0933 -41.0254 -41.0028 -40.9998
   -40.9800 -40.9272 -40.9140 -40.6895 -40.6620 -40.6609 -40.6110 -40.5844
    -8.2553  -8.0602  -8.0194  -7.9823  -7.8851  -7.7845  -7.7551  -7.7298
    -7.6712  -7.6456  -7.6065  -7.5933  -7.3765  -7.3375  -7.3220  -7.2351
    -7.2268  -7.2136  -7.1325  -7.1272  -7.1070  -7.0925  -7.0237  -6.9682
    -6.9677  -6.9491  -6.9423  -6.8356  -6.7875  -6.5324  -5.5724  -4.0471
    -2.8314  -2.7781  -2.6253  -2.2442  -2.1664  -2.0038  -1.7548  -1.5406
    -1.3759  -1.2486  -1.0442  -0.9048  -0.9025  -0.5143  -0.4384  -0.3180
    -0.2472  -0.0442   0.2904   0.3866   0.4788   0.5086   0.7159   0.8280
     0.9613   1.1760   1.3163   1.4365   1.5013   1.5933   1.6041   1.8893
     2.1329   2.2607   2.6704   2.7554   3.0738   3.3580   3.6407   4.2259
     4.8511   5.0315   5.4968   5.7396   5.8884

          k = 0.0294-0.0325 0.0000 ( 33568 PWs)   bands (ev):

   -71.4161 -71.3918 -71.1669 -71.1432 -70.7260 -70.7014 -42.1115 -42.0812
   -41.3629 -41.1908 -41.1717 -41.1628 -41.0932 -41.0254 -41.0027 -40.9998
   -40.9800 -40.9272 -40.9140 -40.6893 -40.6619 -40.6609 -40.6110 -40.5844
    -8.2607  -8.0774  -8.0216  -7.9834  -7.9154  -7.8014  -7.7567  -7.7541
    -7.6964  -7.6564  -7.6135  -7.6020  -7.3779  -7.3419  -7.3213  -7.2385
    -7.2380  -7.2155  -7.1487  -7.1308  -7.1043  -7.0955  -7.0336  -6.9758
    -6.9696  -6.9525  -6.9442  -6.8356  -6.7886  -6.5319  -5.8012  -4.1992
    -2.8734  -2.7597  -2.5911  -2.2380  -1.9873  -1.9106  -1.7660  -1.3698
    -1.2951  -1.1725  -0.9790  -0.8226  -0.7321  -0.4664  -0.2747  -0.2486
     0.0672   0.2289   0.4294   0.4817   0.4908   0.5989   0.7194   0.8206
     1.0648   1.2226   1.3231   1.4798   1.4931   1.5286   1.7723   2.0889
     2.1247   2.2725   2.4576   2.4880   2.7695   3.1146   3.9327   3.9585
     4.6696   4.8884   5.3394   5.6002   5.8190

          k = 0.0294-0.0163 0.0000 ( 33530 PWs)   bands (ev):

   -71.4161 -71.3918 -71.1669 -71.1432 -70.7260 -70.7014 -42.1115 -42.0812
   -41.3628 -41.1907 -41.1717 -41.1627 -41.0932 -41.0254 -41.0027 -40.9998
   -40.9800 -40.9271 -40.9140 -40.6892 -40.6618 -40.6609 -40.6110 -40.5844
    -8.2646  -8.0904  -8.0231  -7.9842  -7.9362  -7.8138  -7.7714  -7.7586
    -7.7132  -7.6655  -7.6229  -7.6036  -7.3787  -7.3454  -7.3207  -7.2507
    -7.2406  -7.2124  -7.1593  -7.1297  -7.1134  -7.0908  -7.0434  -6.9804
    -6.9710  -6.9556  -6.9453  -6.8354  -6.7891  -6.5315  -5.9429  -4.3027
    -2.9173  -2.7535  -2.5723  -2.2348  -1.9705  -1.7792  -1.7419  -1.2691
    -1.2117  -1.0984  -0.9734  -0.7517  -0.4638  -0.4624  -0.1891  -0.1379
     0.2710   0.2929   0.4813   0.4951   0.6176   0.7387   0.7959   0.9226
     1.0521   1.2352   1.3249   1.4454   1.4510   1.5107   1.8457   2.1013
     2.1920   2.3041   2.3438   2.5808   2.6006   2.9243   3.8091   3.9019
     4.5288   4.7538   5.2462   5.4186   5.7013

          k = 0.0294-0.0000 0.0000 ( 33513 PWs)   bands (ev):

   -71.4161 -71.3918 -71.1669 -71.1432 -70.7260 -70.7014 -42.1115 -42.0812
   -41.3628 -41.1906 -41.1717 -41.1627 -41.0932 -41.0254 -41.0027 -40.9997
   -40.9800 -40.9271 -40.9140 -40.6891 -40.6618 -40.6609 -40.6110 -40.5844
    -8.2661  -8.0953  -8.0236  -7.9846  -7.9436  -7.8183  -7.7776  -7.7597
    -7.7188  -7.6691  -7.6266  -7.6038  -7.3789  -7.3467  -7.3204  -7.2558
    -7.2412  -7.2104  -7.1634  -7.1248  -7.1217  -7.0887  -7.0475  -6.9818
    -6.9715  -6.9568  -6.9456  -6.8354  -6.7892  -6.5313  -5.9908  -4.3387
    -2.9340  -2.7528  -2.5657  -2.2335  -1.9642  -1.7846  -1.6862  -1.2645
    -1.1401  -1.0701  -0.9854  -0.7190  -0.4701  -0.3046  -0.1529  -0.0520
     0.1915   0.2620   0.4925   0.5688   0.6771   0.8579   0.9016   0.9583
     1.0118   1.3146   1.3259   1.3854   1.3886   1.5124   1.6036   2.0879
     2.2500   2.3743   2.4838   2.5362   2.8066   2.8509   3.4706   3.9200
     4.4609   4.7064   5.2141   5.3889   5.5425

          k = 0.0440 0.0244 0.0000 ( 33544 PWs)   bands (ev):

   -71.4139 -71.3940 -71.1647 -71.1454 -70.7237 -70.7037 -42.1087 -42.0840
   -41.3384 -41.1882 -41.1654 -41.1484 -41.1184 -41.0230 -41.0021 -41.0007
   -40.9821 -40.9379 -40.9030 -40.6868 -40.6856 -40.6644 -40.6086 -40.5868
    -8.1696  -8.0207  -7.9091  -7.8705  -7.8641  -7.7765  -7.7682  -7.7433
    -7.6547  -7.6286  -7.5902  -7.5507  -7.3588  -7.3341  -7.3235  -7.2840
    -7.2616  -7.2224  -7.1948  -7.1751  -7.1040  -7.0850  -7.0526  -7.0359
    -7.0257  -7.0208  -7.0113  -6.8881  -6.8869  -6.6483  -5.7084  -4.1043
    -3.0845  -2.8221  -2.5322  -2.1811  -2.1802  -1.9216  -1.6771  -1.3517
    -1.1862  -0.9474  -0.9181  -0.6828  -0.5566  -0.5560  -0.2141  -0.1802
     0.1562   0.2124   0.3431   0.4397   0.4804   0.5749   0.6704   0.7429
     0.8885   1.0735   1.1603   1.2955   1.4011   1.5442   1.8756   1.9311
     2.0982   2.2402   2.3546   2.5410   2.6296   2.8008   3.6970   4.2693
     4.7097   4.9665   5.6115   5.6270   5.8986

          k = 0.0440 0.0407 0.0000 ( 33522 PWs)   bands (ev):

   -71.4139 -71.3940 -71.1647 -71.1454 -70.7237 -70.7037 -42.1088 -42.0840
   -41.3385 -41.1884 -41.1654 -41.1484 -41.1183 -41.0230 -41.0021 -41.0007
   -40.9821 -40.9379 -40.9031 -40.6869 -40.6856 -40.6645 -40.6085 -40.5868
    -8.1656  -8.0061  -7.9075  -7.8703  -7.8400  -7.7757  -7.7529  -7.7257
    -7.6368  -7.6127  -7.5841  -7.5492  -7.3601  -7.3329  -7.3224  -7.2815
    -7.2490  -7.2240  -7.1978  -7.1683  -7.0996  -7.0896  -7.0394  -7.0349
    -7.0217  -7.0187  -7.0113  -6.8884  -6.8874  -6.6497  -5.5245  -3.9784
    -3.1413  -2.7692  -2.5781  -2.1881  -2.1803  -1.9098  -1.8826  -1.5252
    -1.2465  -1.0201  -0.9333  -0.7828  -0.7237  -0.5515  -0.3133  -0.2702
    -0.1834   0.0703   0.2761   0.3483   0.4919   0.4928   0.6758   0.7488
     0.8546   1.0866   1.1533   1.3761   1.4688   1.5781   1.7855   1.8741
     2.1298   2.2598   2.3138   2.6307   2.8554   2.8852   3.8881   4.0703
     4.9517   5.1300   5.4828   5.8581   5.8824

          k = 0.0440 0.0569 0.0000 ( 33567 PWs)   bands (ev):

   -71.4139 -71.3940 -71.1647 -71.1454 -70.7237 -70.7037 -42.1088 -42.0840
   -41.3386 -41.1886 -41.1654 -41.1484 -41.1184 -41.0230 -41.0022 -41.0007
   -40.9821 -40.9379 -40.9031 -40.6871 -40.6856 -40.6645 -40.6085 -40.5868
    -8.1610  -7.9897  -7.9053  -7.8702  -7.8101  -7.7749  -7.7356  -7.7044
    -7.6159  -7.5962  -7.5761  -7.5464  -7.3626  -7.3313  -7.3229  -7.2756
    -7.2387  -7.2217  -7.1985  -7.1593  -7.1042  -7.0876  -7.0338  -7.0301
    -7.0181  -7.0129  -7.0110  -6.8887  -6.8875  -6.6513  -5.2653  -3.8323
    -3.2271  -2.7395  -2.6325  -2.2333  -2.1628  -2.0822  -1.9040  -1.6722
    -1.3509  -1.0888  -1.0594  -0.8668  -0.7848  -0.5636  -0.5227  -0.3889
    -0.3347  -0.1204   0.1474   0.2589   0.4349   0.4866   0.6680   0.7960
     0.7997   1.1067   1.1373   1.3397   1.5286   1.5671   1.5987   1.8577
     1.9823   2.2317   2.3619   2.7732   3.1653   3.4641   3.6765   4.4075
     5.0247   5.2401   5.3999   5.8879   5.9396

          k = 0.0440 0.0732 0.0000 ( 33569 PWs)   bands (ev):

   -71.4138 -71.3940 -71.1647 -71.1454 -70.7237 -70.7037 -42.1088 -42.0840
   -41.3386 -41.1887 -41.1654 -41.1485 -41.1184 -41.0230 -41.0022 -41.0008
   -40.9821 -40.9379 -40.9032 -40.6872 -40.6856 -40.6646 -40.6085 -40.5868
    -8.1569  -7.9757  -7.9030  -7.8702  -7.7835  -7.7726  -7.7207  -7.6848
    -7.6029  -7.5816  -7.5648  -7.5438  -7.3659  -7.3295  -7.3246  -7.2677
    -7.2339  -7.2175  -7.1975  -7.1490  -7.1115  -7.0841  -7.0331  -7.0257
    -7.0187  -7.0107  -7.0030  -6.8888  -6.8872  -6.6528  -4.9604  -3.7584
    -3.3170  -2.7781  -2.6788  -2.3548  -2.1243  -2.0802  -1.9256  -1.7593
    -1.5114  -1.1897  -1.1527  -0.9021  -0.8472  -0.7047  -0.5770  -0.4521
    -0.4380  -0.2610  -0.0309   0.2479   0.3834   0.4845   0.6438   0.7693
     0.7782   1.1158   1.1299   1.3137   1.3928   1.6135   1.6246   1.8484
     1.8880   2.2917   2.4268   2.7200   3.2526   3.5767   4.2624   4.7946
     5.1216   5.1388   5.4883   5.9049   6.0442

          k = 0.0440 0.0894 0.0000 ( 33602 PWs)   bands (ev):

   -71.4138 -71.3940 -71.1647 -71.1454 -70.7237 -70.7037 -42.1089 -42.0840
   -41.3387 -41.1888 -41.1654 -41.1485 -41.1184 -41.0230 -41.0022 -41.0007
   -40.9821 -40.9379 -40.9032 -40.6873 -40.6857 -40.6646 -40.6085 -40.5869
    -8.1546  -7.9677  -7.9015  -7.8703  -7.7768  -7.7615  -7.7122  -7.6730
    -7.6004  -7.5700  -7.5559  -7.5432  -7.3684  -7.3282  -7.3260  -7.2616
    -7.2318  -7.2156  -7.1964  -7.1418  -7.1164  -7.0821  -7.0329  -7.0235
    -7.0194  -7.0105  -6.9976  -6.8889  -6.8868  -6.6536  -4.6959  -3.8338
    -3.3743  -2.7827  -2.7049  -2.4244  -2.0755  -1.9861  -1.9787  -1.7833
    -1.7010  -1.2633  -1.1967  -0.9279  -0.8721  -0.7810  -0.5663  -0.5151
    -0.4995  -0.3295  -0.1280   0.2372   0.3575   0.4870   0.6206   0.7372
     0.7638   1.1168   1.1336   1.2825   1.3467   1.6310   1.6844   1.8316
     1.8455   2.3664   2.4686   2.6715   3.0601   3.8212   4.6421   4.8750
     5.1476   5.3586   5.6823   6.1299   6.3629

          k = 0.0440 0.1057 0.0000 ( 33602 PWs)   bands (ev):

   -71.4138 -71.3940 -71.1647 -71.1454 -70.7237 -70.7037 -42.1089 -42.0840
   -41.3387 -41.1888 -41.1654 -41.1485 -41.1184 -41.0230 -41.0022 -41.0007
   -40.9821 -40.9379 -40.9032 -40.6873 -40.6857 -40.6646 -40.6085 -40.5869
    -8.1546  -7.9677  -7.9015  -7.8703  -7.7768  -7.7615  -7.7122  -7.6730
    -7.6004  -7.5700  -7.5559  -7.5432  -7.3684  -7.3282  -7.3260  -7.2616
    -7.2318  -7.2156  -7.1964  -7.1418  -7.1164  -7.0821  -7.0329  -7.0235
    -7.0194  -7.0105  -6.9976  -6.8889  -6.8868  -6.6536  -4.6959  -3.8338
    -3.3743  -2.7827  -2.7049  -2.4244  -2.0755  -1.9861  -1.9787  -1.7833
    -1.7010  -1.2633  -1.1967  -0.9279  -0.8721  -0.7810  -0.5663  -0.5151
    -0.4995  -0.3295  -0.1280   0.2372   0.3575   0.4870   0.6206   0.7372
     0.7638   1.1168   1.1336   1.2825   1.3467   1.6310   1.6844   1.8316
     1.8455   2.3664   2.4686   2.6715   3.0601   3.8212   4.6421   4.8750
     5.1476   5.3586   5.6824   6.1299   6.3634

          k = 0.0440-0.0732 0.0000 ( 33569 PWs)   bands (ev):

   -71.4138 -71.3940 -71.1647 -71.1454 -70.7237 -70.7037 -42.1088 -42.0840
   -41.3386 -41.1887 -41.1654 -41.1485 -41.1184 -41.0230 -41.0022 -41.0008
   -40.9821 -40.9379 -40.9032 -40.6872 -40.6856 -40.6646 -40.6085 -40.5868
    -8.1569  -7.9757  -7.9030  -7.8702  -7.7835  -7.7726  -7.7207  -7.6848
    -7.6029  -7.5816  -7.5648  -7.5438  -7.3659  -7.3295  -7.3246  -7.2677
    -7.2339  -7.2175  -7.1975  -7.1490  -7.1115  -7.0841  -7.0331  -7.0257
    -7.0187  -7.0107  -7.0030  -6.8888  -6.8872  -6.6528  -4.9604  -3.7584
    -3.3170  -2.7781  -2.6788  -2.3548  -2.1243  -2.0802  -1.9256  -1.7593
    -1.5114  -1.1897  -1.1527  -0.9021  -0.8472  -0.7047  -0.5770  -0.4521
    -0.4380  -0.2610  -0.0309   0.2479   0.3834   0.4845   0.6438   0.7693
     0.7782   1.1158   1.1299   1.3137   1.3928   1.6135   1.6246   1.8484
     1.8880   2.2917   2.4268   2.7200   3.2526   3.5768   4.2624   4.7946
     5.1216   5.1388   5.4883   5.9049   6.0442

          k = 0.0440-0.0569 0.0000 ( 33567 PWs)   bands (ev):

   -71.4139 -71.3940 -71.1647 -71.1454 -70.7237 -70.7037 -42.1088 -42.0840
   -41.3386 -41.1886 -41.1654 -41.1484 -41.1184 -41.0230 -41.0022 -41.0007
   -40.9821 -40.9379 -40.9031 -40.6871 -40.6856 -40.6645 -40.6085 -40.5868
    -8.1610  -7.9897  -7.9053  -7.8702  -7.8101  -7.7749  -7.7356  -7.7044
    -7.6159  -7.5962  -7.5761  -7.5464  -7.3626  -7.3313  -7.3229  -7.2756
    -7.2387  -7.2217  -7.1985  -7.1593  -7.1042  -7.0876  -7.0338  -7.0301
    -7.0181  -7.0129  -7.0110  -6.8887  -6.8875  -6.6513  -5.2653  -3.8323
    -3.2271  -2.7395  -2.6325  -2.2333  -2.1628  -2.0822  -1.9040  -1.6722
    -1.3509  -1.0888  -1.0594  -0.8668  -0.7848  -0.5636  -0.5227  -0.3889
    -0.3347  -0.1204   0.1474   0.2589   0.4349   0.4866   0.6680   0.7961
     0.7997   1.1067   1.1373   1.3397   1.5286   1.5671   1.5987   1.8577
     1.9823   2.2317   2.3619   2.7732   3.1653   3.4641   3.6765   4.4075
     5.0247   5.2401   5.3999   5.8880   5.9396

          k = 0.0440-0.0407 0.0000 ( 33522 PWs)   bands (ev):

   -71.4139 -71.3940 -71.1647 -71.1454 -70.7237 -70.7037 -42.1088 -42.0840
   -41.3385 -41.1884 -41.1654 -41.1484 -41.1183 -41.0230 -41.0021 -41.0007
   -40.9821 -40.9379 -40.9031 -40.6869 -40.6856 -40.6645 -40.6085 -40.5868
    -8.1656  -8.0061  -7.9075  -7.8703  -7.8400  -7.7757  -7.7529  -7.7257
    -7.6368  -7.6127  -7.5841  -7.5492  -7.3601  -7.3329  -7.3224  -7.2815
    -7.2490  -7.2240  -7.1978  -7.1683  -7.0996  -7.0896  -7.0394  -7.0349
    -7.0217  -7.0187  -7.0113  -6.8884  -6.8874  -6.6497  -5.5245  -3.9784
    -3.1413  -2.7692  -2.5781  -2.1881  -2.1803  -1.9098  -1.8826  -1.5252
    -1.2465  -1.0201  -0.9333  -0.7828  -0.7237  -0.5515  -0.3133  -0.2702
    -0.1834   0.0703   0.2761   0.3483   0.4919   0.4928   0.6757   0.7488
     0.8546   1.0866   1.1533   1.3761   1.4688   1.5781   1.7855   1.8741
     2.1298   2.2598   2.3138   2.6307   2.8554   2.8852   3.8881   4.0703
     4.9517   5.1300   5.4830   5.8583   5.8827

          k = 0.0440-0.0244 0.0000 ( 33544 PWs)   bands (ev):

   -71.4139 -71.3940 -71.1647 -71.1454 -70.7237 -70.7037 -42.1087 -42.0840
   -41.3384 -41.1882 -41.1654 -41.1484 -41.1184 -41.0230 -41.0021 -41.0007
   -40.9821 -40.9379 -40.9030 -40.6868 -40.6856 -40.6644 -40.6086 -40.5868
    -8.1696  -8.0207  -7.9091  -7.8705  -7.8641  -7.7765  -7.7682  -7.7433
    -7.6547  -7.6286  -7.5902  -7.5507  -7.3588  -7.3341  -7.3235  -7.2840
    -7.2616  -7.2224  -7.1948  -7.1751  -7.1040  -7.0850  -7.0526  -7.0359
    -7.0257  -7.0208  -7.0113  -6.8881  -6.8869  -6.6483  -5.7084  -4.1043
    -3.0845  -2.8221  -2.5322  -2.1811  -2.1802  -1.9216  -1.6771  -1.3517
    -1.1862  -0.9474  -0.9181  -0.6828  -0.5566  -0.5560  -0.2141  -0.1802
     0.1562   0.2124   0.3431   0.4397   0.4804   0.5749   0.6704   0.7429
     0.8885   1.0735   1.1603   1.2955   1.4011   1.5442   1.8756   1.9311
     2.0982   2.2402   2.3546   2.5410   2.6296   2.8008   3.6970   4.2693
     4.7097   4.9664   5.6117   5.6270   5.8990

          k = 0.0440-0.0081 0.0000 ( 33515 PWs)   bands (ev):

   -71.4139 -71.3940 -71.1647 -71.1454 -70.7237 -70.7037 -42.1087 -42.0840
   -41.3384 -41.1881 -41.1654 -41.1484 -41.1184 -41.0230 -41.0021 -41.0007
   -40.9821 -40.9379 -40.9030 -40.6867 -40.6856 -40.6644 -40.6086 -40.5868
    -8.1719  -8.0293  -7.9098  -7.8772  -7.8706  -7.7770  -7.7770  -7.7531
    -7.6645  -7.6383  -7.5941  -7.5511  -7.3583  -7.3348  -7.3248  -7.2844
    -7.2697  -7.2198  -7.1915  -7.1792  -7.1091  -7.0809  -7.0617  -7.0364
    -7.0272  -7.0227  -7.0111  -6.8879  -6.8865  -6.6476  -5.8035  -4.1733
    -3.0589  -2.8557  -2.5070  -2.1782  -2.1752  -1.9296  -1.5702  -1.2096
    -1.1590  -0.9536  -0.8981  -0.6582  -0.5711  -0.3079  -0.1402  -0.1116
     0.2070   0.2466   0.4313   0.4555   0.6123   0.6678   0.6991   0.7822
     0.8985   1.0790   1.1493   1.1659   1.4021   1.4447   1.5020   1.9070
     2.1361   2.3047   2.3688   2.4116   2.7897   3.2076   3.7695   3.8638
     4.4385   4.8677   5.5413   5.7118   5.7514

          k = 0.0440 0.0081 0.0000 ( 33515 PWs)   bands (ev):

   -71.4139 -71.3940 -71.1647 -71.1454 -70.7237 -70.7037 -42.1087 -42.0840
   -41.3384 -41.1881 -41.1654 -41.1484 -41.1184 -41.0230 -41.0021 -41.0007
   -40.9821 -40.9379 -40.9030 -40.6867 -40.6856 -40.6644 -40.6086 -40.5868
    -8.1719  -8.0293  -7.9098  -7.8772  -7.8706  -7.7770  -7.7770  -7.7531
    -7.6645  -7.6383  -7.5941  -7.5511  -7.3583  -7.3348  -7.3248  -7.2844
    -7.2697  -7.2198  -7.1915  -7.1792  -7.1091  -7.0809  -7.0617  -7.0364
    -7.0272  -7.0227  -7.0111  -6.8879  -6.8865  -6.6476  -5.8035  -4.1733
    -3.0589  -2.8557  -2.5070  -2.1782  -2.1752  -1.9296  -1.5702  -1.2096
    -1.1590  -0.9536  -0.8981  -0.6582  -0.5711  -0.3079  -0.1402  -0.1116
     0.2070   0.2466   0.4313   0.4555   0.6123   0.6678   0.6991   0.7822
     0.8985   1.0790   1.1493   1.1659   1.4021   1.4447   1.5020   1.9070
     2.1361   2.3047   2.3688   2.4116   2.7897   3.2076   3.7695   3.8638
     4.4385   4.8677   5.5413   5.7173   5.7517

          k = 0.0587 0.0325 0.0000 ( 33545 PWs)   bands (ev):

   -71.4110 -71.3969 -71.1619 -71.1482 -70.7208 -70.7066 -42.1051 -42.0876
   -41.3065 -41.1849 -41.1688 -41.1510 -41.1179 -41.0200 -41.0052 -40.9982
   -40.9848 -40.9689 -40.8715 -40.7179 -40.6836 -40.6677 -40.6054 -40.5900
    -8.0622  -7.9298  -7.8048  -7.7707  -7.7682  -7.7465  -7.7112  -7.6659
    -7.6377  -7.5539  -7.5169  -7.4831  -7.4440  -7.3268  -7.2969  -7.2904
    -7.2758  -7.2673  -7.2310  -7.2032  -7.1313  -7.1131  -7.0988  -7.0946
    -7.0803  -7.0678  -7.0588  -7.0006  -6.9549  -6.7921  -5.3870  -3.8402
    -3.5277  -2.6931  -2.5650  -2.3727  -2.1269  -2.0023  -1.6399  -1.5342
    -1.1816  -0.8932  -0.8127  -0.6466  -0.5947  -0.3837  -0.2933  -0.1822
    -0.0643   0.0719   0.2102   0.2936   0.4443   0.4651   0.5094   0.7060
     0.7315   0.9206   1.0191   1.2571   1.3462   1.5179   1.6381   1.8859
     1.9821   2.0869   2.2643   2.4634   2.8624   3.0208   3.4288   4.5944
     4.6981   5.2725   5.4170   5.9666   6.2217

          k = 0.0587 0.0488 0.0000 ( 33536 PWs)   bands (ev):

   -71.4110 -71.3969 -71.1619 -71.1482 -70.7208 -70.7066 -42.1052 -42.0876
   -41.3066 -41.1851 -41.1688 -41.1509 -41.1180 -41.0200 -41.0052 -40.9982
   -40.9848 -40.9689 -40.8716 -40.7179 -40.6837 -40.6678 -40.6054 -40.5900
    -8.0588  -7.9154  -7.8049  -7.7679  -7.7438  -7.7431  -7.6978  -7.6545
    -7.6270  -7.5343  -7.5113  -7.4800  -7.4484  -7.3333  -7.2867  -7.2857
    -7.2762  -7.2705  -7.2318  -7.2031  -7.1338  -7.1150  -7.0987  -7.0822
    -7.0764  -7.0654  -7.0594  -7.0033  -6.9554  -6.7940  -5.1714  -3.7102
    -3.6573  -2.6389  -2.6332  -2.3407  -2.1443  -1.9916  -1.8129  -1.6947
    -1.2644  -0.9628  -0.8443  -0.7661  -0.6307  -0.4384  -0.3764  -0.3162
    -0.2021  -0.0123   0.1475   0.1892   0.4287   0.4418   0.5360   0.7200
     0.7393   0.9703   0.9933   1.2724   1.4235   1.5813   1.6419   1.7798
     1.9490   2.0463   2.4442   2.4552   2.7862   3.2917   3.8214   4.1669
     4.7823   5.4233   5.5689   6.0776   6.1403

          k = 0.0587 0.0650 0.0000 ( 33522 PWs)   bands (ev):

   -71.4110 -71.3969 -71.1619 -71.1482 -70.7208 -70.7066 -42.1052 -42.0876
   -41.3067 -41.1853 -41.1687 -41.1509 -41.1180 -41.0200 -41.0052 -40.9982
   -40.9848 -40.9689 -40.8717 -40.7179 -40.6838 -40.6678 -40.6054 -40.5900
    -8.0555  -7.9008  -7.8049  -7.7642  -7.7413  -7.7165  -7.6825  -7.6423
    -7.6182  -7.5171  -7.5027  -7.4759  -7.4545  -7.3398  -7.2796  -7.2781
    -7.2737  -7.2727  -7.2314  -7.2033  -7.1362  -7.1154  -7.0987  -7.0799
    -7.0708  -7.0690  -7.0512  -7.0057  -6.9560  -6.7959  -4.9019  -3.7906
    -3.6032  -2.6991  -2.6199  -2.3025  -2.1898  -2.0053  -1.9251  -1.8103
    -1.3696  -1.0910  -0.8936  -0.7857  -0.6704  -0.5506  -0.4970  -0.3265
    -0.2876  -0.0977   0.0806   0.1275   0.4023   0.4460   0.5479   0.7060
     0.7318   0.9434   0.9963   1.1986   1.4713   1.5141   1.6113   1.6898
     1.9390   1.9801   2.3581   2.4416   3.5210   3.5885   3.7703   4.4667
     4.7033   5.4588   5.6451   6.0875   6.3410

          k = 0.0587 0.0813 0.0000 ( 33576 PWs)   bands (ev):

   -71.4110 -71.3969 -71.1619 -71.1482 -70.7208 -70.7066 -42.1052 -42.0877
   -41.3067 -41.1854 -41.1687 -41.1509 -41.1180 -41.0200 -41.0053 -40.9982
   -40.9848 -40.9689 -40.8717 -40.7179 -40.6839 -40.6679 -40.6054 -40.5900
    -8.0531  -7.8901  -7.8049  -7.7608  -7.7410  -7.6936  -7.6698  -7.6331
    -7.6145  -7.5095  -7.4902  -7.4728  -7.4602  -7.3441  -7.2782  -7.2761
    -7.2683  -7.2680  -7.2308  -7.2038  -7.1385  -7.1150  -7.0986  -7.0868
    -7.0700  -7.0622  -7.0465  -7.0071  -6.9563  -6.7975  -4.6310  -3.8892
    -3.6055  -2.7473  -2.6246  -2.2633  -2.2437  -2.0591  -1.8999  -1.8543
    -1.5085  -1.1730  -0.9472  -0.7922  -0.7129  -0.6438  -0.5019  -0.3566
    -0.3537  -0.1520  -0.0020   0.1197   0.4076   0.4604   0.5467   0.6556
     0.7005   0.9148   1.0048   1.1598   1.2797   1.5616   1.6170   1.7179
     1.8562   2.0099   2.3887   2.4385   3.3655   3.9959   4.3615   4.5153
     5.2257   5.3723   5.5938   6.2174   6.2521

          k = 0.0587 0.0976 0.0000 ( 33563 PWs)   bands (ev):

   -71.4110 -71.3969 -71.1619 -71.1482 -70.7208 -70.7066 -42.1052 -42.0876
   -41.3067 -41.1854 -41.1687 -41.1509 -41.1180 -41.0200 -41.0053 -40.9982
   -40.9848 -40.9689 -40.8717 -40.7179 -40.6839 -40.6679 -40.6054 -40.5900
    -8.0522  -7.8862  -7.8049  -7.7594  -7.7411  -7.6841  -7.6648  -7.6297
    -7.6141  -7.5074  -7.4844  -7.4718  -7.4627  -7.3456  -7.2778  -7.2766
    -7.2657  -7.2650  -7.2306  -7.2040  -7.1395  -7.1147  -7.0987  -7.0898
    -7.0705  -7.0587  -7.0453  -7.0075  -6.9565  -6.7981  -4.4947  -3.9254
    -3.6577  -2.7651  -2.6134  -2.2678  -2.2410  -2.0951  -1.8610  -1.8412
    -1.6053  -1.1994  -0.9752  -0.7939  -0.7227  -0.6725  -0.4841  -0.3849
    -0.3829  -0.1681  -0.0312   0.1166   0.4247   0.4683   0.5442   0.6023
     0.7000   0.9094   1.0060   1.1460   1.2113   1.5785   1.6146   1.7525
     1.8130   2.0229   2.3664   2.4975   3.2327   4.1703   4.4212   5.0507
     5.2762   5.4343   5.5359   6.0434   6.3864

          k = 0.0587 0.1138 0.0000 ( 33576 PWs)   bands (ev):

   -71.4110 -71.3969 -71.1619 -71.1482 -70.7208 -70.7066 -42.1052 -42.0877
   -41.3067 -41.1854 -41.1687 -41.1509 -41.1180 -41.0200 -41.0053 -40.9982
   -40.9848 -40.9689 -40.8717 -40.7179 -40.6839 -40.6679 -40.6054 -40.5900
    -8.0531  -7.8901  -7.8049  -7.7608  -7.7410  -7.6936  -7.6698  -7.6331
    -7.6145  -7.5095  -7.4902  -7.4728  -7.4602  -7.3441  -7.2782  -7.2761
    -7.2683  -7.2680  -7.2308  -7.2038  -7.1385  -7.1150  -7.0986  -7.0868
    -7.0700  -7.0622  -7.0465  -7.0071  -6.9563  -6.7975  -4.6310  -3.8892
    -3.6055  -2.7473  -2.6246  -2.2633  -2.2437  -2.0591  -1.8999  -1.8543
    -1.5085  -1.1730  -0.9472  -0.7922  -0.7129  -0.6438  -0.5019  -0.3566
    -0.3537  -0.1520  -0.0020   0.1197   0.4076   0.4604   0.5467   0.6556
     0.7005   0.9148   1.0048   1.1598   1.2797   1.5616   1.6170   1.7179
     1.8562   2.0099   2.3887   2.4385   3.3655   3.9959   4.3615   4.5153
     5.2257   5.3723   5.5938   6.2176   6.2530

          k = 0.0587-0.0650 0.0000 ( 33522 PWs)   bands (ev):

   -71.4110 -71.3969 -71.1619 -71.1482 -70.7208 -70.7066 -42.1052 -42.0876
   -41.3067 -41.1853 -41.1687 -41.1509 -41.1180 -41.0200 -41.0052 -40.9982
   -40.9848 -40.9689 -40.8717 -40.7179 -40.6838 -40.6678 -40.6054 -40.5900
    -8.0555  -7.9008  -7.8049  -7.7642  -7.7413  -7.7165  -7.6825  -7.6423
    -7.6182  -7.5171  -7.5027  -7.4759  -7.4545  -7.3398  -7.2796  -7.2781
    -7.2737  -7.2727  -7.2314  -7.2033  -7.1362  -7.1154  -7.0987  -7.0799
    -7.0708  -7.0690  -7.0512  -7.0057  -6.9560  -6.7959  -4.9019  -3.7906
    -3.6032  -2.6991  -2.6199  -2.3025  -2.1898  -2.0053  -1.9251  -1.8103
    -1.3696  -1.0910  -0.8936  -0.7857  -0.6704  -0.5506  -0.4970  -0.3265
    -0.2876  -0.0977   0.0806   0.1275   0.4023   0.4460   0.5479   0.7060
     0.7318   0.9434   0.9963   1.1986   1.4713   1.5141   1.6113   1.6898
     1.9390   1.9801   2.3581   2.4416   3.5210   3.5886   3.7703   4.4667
     4.7033   5.4588   5.6452   6.0877   6.3410

          k = 0.0587-0.0488 0.0000 ( 33536 PWs)   bands (ev):

   -71.4110 -71.3969 -71.1619 -71.1482 -70.7208 -70.7066 -42.1052 -42.0876
   -41.3066 -41.1851 -41.1688 -41.1509 -41.1180 -41.0200 -41.0052 -40.9982
   -40.9848 -40.9689 -40.8716 -40.7179 -40.6837 -40.6678 -40.6054 -40.5900
    -8.0588  -7.9154  -7.8049  -7.7679  -7.7438  -7.7431  -7.6978  -7.6545
    -7.6270  -7.5343  -7.5113  -7.4800  -7.4484  -7.3333  -7.2867  -7.2857
    -7.2762  -7.2705  -7.2318  -7.2031  -7.1338  -7.1150  -7.0987  -7.0822
    -7.0764  -7.0654  -7.0594  -7.0033  -6.9554  -6.7940  -5.1714  -3.7102
    -3.6573  -2.6389  -2.6332  -2.3407  -2.1443  -1.9916  -1.8129  -1.6947
    -1.2644  -0.9628  -0.8443  -0.7661  -0.6307  -0.4384  -0.3764  -0.3162
    -0.2021  -0.0123   0.1475   0.1892   0.4287   0.4418   0.5360   0.7200
     0.7393   0.9703   0.9933   1.2724   1.4235   1.5813   1.6419   1.7797
     1.9490   2.0463   2.4442   2.4552   2.7862   3.2917   3.8214   4.1669
     4.7823   5.4233   5.5689   6.0776   6.1402

          k = 0.0587-0.0325 0.0000 ( 33545 PWs)   bands (ev):

   -71.4110 -71.3969 -71.1619 -71.1482 -70.7208 -70.7066 -42.1051 -42.0876
   -41.3065 -41.1849 -41.1688 -41.1510 -41.1179 -41.0200 -41.0052 -40.9982
   -40.9848 -40.9689 -40.8715 -40.7179 -40.6836 -40.6677 -40.6054 -40.5900
    -8.0622  -7.9298  -7.8048  -7.7707  -7.7682  -7.7465  -7.7112  -7.6659
    -7.6377  -7.5539  -7.5169  -7.4831  -7.4440  -7.3268  -7.2969  -7.2904
    -7.2758  -7.2673  -7.2310  -7.2032  -7.1313  -7.1131  -7.0988  -7.0946
    -7.0803  -7.0678  -7.0588  -7.0006  -6.9549  -6.7921  -5.3870  -3.8402
    -3.5277  -2.6931  -2.5650  -2.3727  -2.1269  -2.0023  -1.6399  -1.5342
    -1.1816  -0.8932  -0.8127  -0.6466  -0.5947  -0.3837  -0.2933  -0.1822
    -0.0643   0.0719   0.2102   0.2936   0.4443   0.4651   0.5094   0.7060
     0.7315   0.9206   1.0191   1.2571   1.3462   1.5179   1.6381   1.8859
     1.9821   2.0869   2.2643   2.4634   2.8624   3.0207   3.4288   4.5944
     4.6981   5.2725   5.4170   5.9665   6.2219

          k = 0.0587-0.0163 0.0000 ( 33508 PWs)   bands (ev):

   -71.4110 -71.3969 -71.1619 -71.1482 -70.7208 -70.7066 -42.1051 -42.0876
   -41.3065 -41.1848 -41.1688 -41.1510 -41.1179 -41.0200 -41.0051 -40.9982
   -40.9848 -40.9689 -40.8715 -40.7179 -40.6835 -40.6677 -40.6054 -40.5900
    -8.0646  -7.9402  -7.8043  -7.7850  -7.7721  -7.7501  -7.7200  -7.6736
    -7.6461  -7.5684  -7.5212  -7.4846  -7.4416  -7.3234  -7.3050  -7.2909
    -7.2750  -7.2640  -7.2294  -7.2037  -7.1294  -7.1097  -7.1051  -7.0993
    -7.0868  -7.0734  -7.0540  -6.9986  -6.9544  -6.7909  -5.5248  -3.9344
    -3.4369  -2.7412  -2.5100  -2.3959  -2.1201  -2.0162  -1.5230  -1.3693
    -1.1081  -0.9355  -0.8209  -0.5443  -0.4093  -0.3628  -0.2513  -0.1349
     0.1220   0.2272   0.3265   0.3494   0.3999   0.4941   0.5070   0.6887
     0.7059   0.8729   1.0327   1.0329   1.3992   1.4257   1.5389   1.5961
     1.9640   2.0120   2.2435   2.7041   2.8898   3.4291   3.4754   4.3441
     4.4975   5.1125   5.5950   5.7496   5.9773

          k = 0.0587-0.0000 0.0000 ( 33529 PWs)   bands (ev):

   -71.4110 -71.3969 -71.1619 -71.1482 -70.7208 -70.7066 -42.1051 -42.0876
   -41.3065 -41.1848 -41.1688 -41.1510 -41.1179 -41.0200 -41.0051 -40.9982
   -40.9848 -40.9689 -40.8715 -40.7179 -40.6834 -40.6677 -40.6054 -40.5900
    -8.0655  -7.9440  -7.8038  -7.7912  -7.7725  -7.7518  -7.7231  -7.6763
    -7.6493  -7.5736  -7.5229  -7.4850  -7.4409  -7.3226  -7.3081  -7.2903
    -7.2747  -7.2624  -7.2284  -7.2041  -7.1286  -7.1094  -7.1075  -7.0996
    -7.0904  -7.0754  -7.0524  -6.9979  -6.9543  -6.7905  -5.5722  -3.9680
    -3.4049  -2.7594  -2.4869  -2.4061  -2.1181  -2.0223  -1.4862  -1.2811
    -1.0719  -0.9816  -0.8357  -0.5208  -0.3575  -0.2721  -0.2275  -0.0731
     0.1353   0.1924   0.3543   0.3958   0.4666   0.5104   0.5666   0.6772
[...]
    -7.1403  -7.0789  -7.0573  -7.0426  -7.0312  -6.9224  -4.4201  -4.3227
    -3.4013  -3.0416  -2.4688  -2.3447  -2.1301  -2.0545  -1.9211  -1.7190
    -1.4218  -1.0569  -0.8233  -0.6793  -0.5643  -0.4900  -0.2654  -0.2416
    -0.1801  -0.0376   0.0451   0.1086   0.3902   0.4508   0.4964   0.5245
     0.5604   0.7221   0.8247   0.9917   1.1666   1.3359   1.5640   1.7144
     1.7305   1.8694   2.1355   2.6667   3.4862   3.9272   4.4255   4.4701
     5.3131   5.3675   5.3812   6.0248   6.3684

          k = 0.0734 0.1057 0.0000 ( 33559 PWs)   bands (ev):

   -71.4076 -71.4003 -71.1587 -71.1515 -70.7174 -70.7101 -42.1010 -42.0918
   -41.2694 -41.1887 -41.1814 -41.1726 -41.0824 -41.0165 -41.0088 -41.0059
   -40.9941 -40.9879 -40.8349 -40.7552 -40.6800 -40.6716 -40.6017 -40.5937
    -7.9603  -7.8484  -7.7852  -7.6749  -7.6424  -7.6337  -7.6009  -7.5941
    -7.5506  -7.4850  -7.4472  -7.4466  -7.4053  -7.3898  -7.3454  -7.2890
    -7.2682  -7.2605  -7.2442  -7.2392  -7.2065  -7.2043  -7.1888  -7.1793
    -7.1403  -7.0789  -7.0573  -7.0426  -7.0312  -6.9224  -4.4201  -4.3227
    -3.4013  -3.0416  -2.4688  -2.3447  -2.1301  -2.0545  -1.9211  -1.7190
    -1.4218  -1.0569  -0.8233  -0.6793  -0.5643  -0.4900  -0.2654  -0.2416
    -0.1801  -0.0376   0.0451   0.1086   0.3902   0.4508   0.4964   0.5245
     0.5604   0.7221   0.8247   0.9917   1.1666   1.3359   1.5640   1.7144
     1.7305   1.8694   2.1355   2.6667   3.4862   3.9272   4.4255   4.4701
     5.3131   5.3675   5.3812   6.0251   6.3689

          k = 0.0734 0.1220 0.0000 ( 33561 PWs)   bands (ev):

   -71.4076 -71.4003 -71.1587 -71.1515 -70.7174 -70.7101 -42.1010 -42.0918
   -41.2694 -41.1887 -41.1814 -41.1726 -41.0824 -41.0165 -41.0088 -41.0059
   -40.9941 -40.9879 -40.8349 -40.7552 -40.6799 -40.6716 -40.6017 -40.5937
    -7.9615  -7.8483  -7.7928  -7.6832  -7.6468  -7.6364  -7.6032  -7.5979
    -7.5474  -7.4879  -7.4484  -7.4401  -7.4136  -7.3957  -7.3454  -7.2886
    -7.2681  -7.2674  -7.2381  -7.2353  -7.2062  -7.2057  -7.1892  -7.1806
    -7.1432  -7.0753  -7.0560  -7.0423  -7.0296  -6.9232  -4.5103  -4.3413
    -3.3717  -2.9983  -2.4824  -2.3382  -2.1160  -2.0399  -1.9012  -1.7510
    -1.3678  -1.0437  -0.7565  -0.6807  -0.5308  -0.4854  -0.3262  -0.2106
    -0.1596  -0.0204   0.0493   0.1428   0.3530   0.3940   0.4992   0.5268
     0.6361   0.7818   0.8204   1.0492   1.3201   1.3918   1.5182   1.7230
     1.7372   1.9056   2.1678   2.5790   3.5394   3.7455   4.0512   4.1915
     4.5413   5.6565   6.0222   6.1541   6.4881

          k = 0.0734-0.0569 0.0000 ( 33549 PWs)   bands (ev):

   -71.4076 -71.4003 -71.1587 -71.1515 -70.7174 -70.7101 -42.1010 -42.0919
   -41.2694 -41.1887 -41.1813 -41.1726 -41.0824 -41.0165 -41.0087 -41.0059
   -40.9941 -40.9879 -40.8348 -40.7552 -40.6799 -40.6716 -40.6017 -40.5937
    -7.9636  -7.8481  -7.8045  -7.6937  -7.6560  -7.6420  -7.6174  -7.5951
    -7.5428  -7.4921  -7.4515  -7.4287  -7.4271  -7.4045  -7.3450  -7.2882
    -7.2722  -7.2663  -7.2364  -7.2284  -7.2079  -7.2049  -7.1897  -7.1833
    -7.1486  -7.0721  -7.0524  -7.0423  -7.0269  -6.9246  -4.7585  -4.1994
    -3.4200  -2.9282  -2.4984  -2.3380  -2.0968  -2.0325  -1.8322  -1.7476
    -1.2802  -1.0117  -0.7019  -0.6771  -0.4720  -0.4561  -0.3456  -0.1577
    -0.1480   0.0205   0.0575   0.1598   0.3026   0.3922   0.4910   0.5377
     0.6603   0.8055   0.8971   1.1764   1.2746   1.4236   1.6486   1.7464
     1.7894   1.9976   2.2046   2.6166   2.7886   3.7611   3.7632   4.2580
     4.2698   5.5888   5.7531   6.3429   6.5977

          k = 0.0734-0.0407 0.0000 ( 33566 PWs)   bands (ev):

   -71.4076 -71.4003 -71.1587 -71.1515 -70.7174 -70.7100 -42.1010 -42.0919
   -41.2693 -41.1888 -41.1811 -41.1727 -41.0824 -41.0166 -41.0087 -41.0059
   -40.9941 -40.9879 -40.8348 -40.7552 -40.6798 -40.6716 -40.6017 -40.5937
    -7.9661  -7.8487  -7.8157  -7.7020  -7.6683  -7.6487  -7.6321  -7.5941
    -7.5390  -7.4960  -7.4599  -7.4362  -7.4146  -7.4141  -7.3445  -7.2869
    -7.2726  -7.2654  -7.2345  -7.2245  -7.2099  -7.2027  -7.1899  -7.1869
    -7.1556  -7.0723  -7.0465  -7.0430  -7.0241  -6.9263  -4.9873  -4.0246
    -3.5279  -2.8602  -2.5416  -2.3440  -2.0773  -2.0455  -1.7071  -1.7007
    -1.1680  -0.9792  -0.6855  -0.6412  -0.4745  -0.3456  -0.3007  -0.1416
    -0.0759   0.0679   0.0868   0.1868   0.2681   0.4113   0.4715   0.5510
     0.6563   0.7702   0.9685   1.1861   1.2612   1.3137   1.7109   1.7427
     1.9177   2.0459   2.2586   2.3242   2.9974   3.2305   3.4602   4.4360
     4.7722   5.0692   5.6331   6.3672   6.4453

          k = 0.0734-0.0244 0.0000 ( 33543 PWs)   bands (ev):

   -71.4076 -71.4003 -71.1587 -71.1515 -70.7174 -70.7100 -42.1009 -42.0919
   -41.2692 -41.1888 -41.1810 -41.1728 -41.0824 -41.0166 -41.0087 -41.0059
   -40.9941 -40.9879 -40.8347 -40.7552 -40.6797 -40.6716 -40.6017 -40.5937
    -7.9682  -7.8504  -7.8230  -7.7067  -7.6797  -7.6546  -7.6440  -7.5945
    -7.5368  -7.4987  -7.4717  -7.4376  -7.4231  -7.4013  -7.3446  -7.2853
    -7.2705  -7.2646  -7.2321  -7.2225  -7.2113  -7.2007  -7.1907  -7.1897
    -7.1628  -7.0747  -7.0438  -7.0412  -7.0220  -6.9277  -5.1577  -3.8599
    -3.6319  -2.8222  -2.5955  -2.3408  -2.0695  -2.0645  -1.6538  -1.5579
    -1.0485  -0.9965  -0.7020  -0.5334  -0.4663  -0.2422  -0.2338  -0.1402
     0.0639   0.0728   0.1447   0.2302   0.2993   0.4231   0.4361   0.5604
     0.6420   0.6943   0.9986   1.0173   1.0820   1.4002   1.5903   1.7012
     1.7518   1.9210   2.1430   2.8250   3.0929   3.2153   3.6239   4.2559
     5.0410   5.1138   5.4511   6.0428   6.3362

          k = 0.0734-0.0081 0.0000 ( 33546 PWs)   bands (ev):

   -71.4076 -71.4003 -71.1587 -71.1515 -70.7174 -70.7100 -42.1009 -42.0919
   -41.2692 -41.1888 -41.1809 -41.1728 -41.0823 -41.0166 -41.0087 -41.0059
   -40.9941 -40.9879 -40.8347 -40.7553 -40.6797 -40.6716 -40.6017 -40.5937
    -7.9695  -7.8521  -7.8260  -7.7085  -7.6862  -7.6581  -7.6509  -7.5951
    -7.5360  -7.5000  -7.4790  -7.4360  -7.4294  -7.3932  -7.3449  -7.2845
    -7.2681  -7.2642  -7.2300  -7.2213  -7.2119  -7.2001  -7.1934  -7.1891
    -7.1676  -7.0769  -7.0443  -7.0381  -7.0211  -6.9285  -5.2482  -3.7566
    -3.6922  -2.8147  -2.6301  -2.3283  -2.0902  -2.0589  -1.6297  -1.4360
    -1.0533  -0.9602  -0.7346  -0.4519  -0.4160  -0.1949  -0.1480  -0.1026
     0.0738   0.0874   0.2148   0.2619   0.3378   0.4262   0.4514   0.5525
     0.6276   0.6424   0.8603   1.0090   1.0098   1.2086   1.4499   1.6760
     1.7139   1.9188   2.0578   3.0418   3.1804   3.5791   3.9532   4.2333
     4.5503   5.2825   5.3345   6.0176   6.0634

          k = 0.0734 0.0081 0.0000 ( 33546 PWs)   bands (ev):

   -71.4076 -71.4003 -71.1587 -71.1515 -70.7174 -70.7100 -42.1009 -42.0919
   -41.2692 -41.1888 -41.1809 -41.1728 -41.0823 -41.0166 -41.0087 -41.0059
   -40.9941 -40.9879 -40.8347 -40.7553 -40.6797 -40.6716 -40.6017 -40.5937
    -7.9695  -7.8521  -7.8260  -7.7085  -7.6862  -7.6581  -7.6509  -7.5951
    -7.5360  -7.5000  -7.4790  -7.4360  -7.4294  -7.3932  -7.3449  -7.2845
    -7.2681  -7.2642  -7.2300  -7.2213  -7.2119  -7.2001  -7.1934  -7.1891
    -7.1676  -7.0769  -7.0443  -7.0381  -7.0211  -6.9285  -5.2482  -3.7566
    -3.6922  -2.8147  -2.6301  -2.3283  -2.0902  -2.0589  -1.6297  -1.4360
    -1.0533  -0.9602  -0.7346  -0.4519  -0.4160  -0.1949  -0.1480  -0.1026
     0.0738   0.0874   0.2148   0.2619   0.3378   0.4262   0.4514   0.5525
     0.6276   0.6424   0.8603   1.0090   1.0098   1.2086   1.4499   1.6760
     1.7139   1.9187   2.0578   3.0418   3.1804   3.5791   3.9532   4.2333
     4.5503   5.2825   5.3345   6.0174   6.0634

          k = 0.0734 0.0244 0.0000 ( 33543 PWs)   bands (ev):

   -71.4076 -71.4003 -71.1587 -71.1515 -70.7174 -70.7100 -42.1009 -42.0919
   -41.2692 -41.1888 -41.1810 -41.1728 -41.0824 -41.0166 -41.0087 -41.0059
   -40.9941 -40.9879 -40.8347 -40.7552 -40.6797 -40.6716 -40.6017 -40.5937
    -7.9682  -7.8504  -7.8230  -7.7067  -7.6797  -7.6546  -7.6440  -7.5945
    -7.5368  -7.4987  -7.4717  -7.4376  -7.4231  -7.4013  -7.3446  -7.2853
    -7.2705  -7.2646  -7.2321  -7.2225  -7.2113  -7.2007  -7.1907  -7.1897
    -7.1628  -7.0747  -7.0438  -7.0412  -7.0220  -6.9277  -5.1577  -3.8599
    -3.6319  -2.8222  -2.5955  -2.3408  -2.0695  -2.0645  -1.6538  -1.5579
    -1.0485  -0.9965  -0.7020  -0.5334  -0.4663  -0.2422  -0.2338  -0.1402
     0.0639   0.0728   0.1447   0.2302   0.2993   0.4231   0.4361   0.5604
     0.6420   0.6943   0.9986   1.0173   1.0820   1.4002   1.5903   1.7012
     1.7518   1.9210   2.1430   2.8250   3.0929   3.2153   3.6239   4.2559
     5.0410   5.1138   5.4511   6.0427   6.3362

          k =-0.0881-0.0488 0.0000 ( 33534 PWs)   bands (ev):

   -71.4045 -71.4034 -71.1557 -71.1545 -70.7137 -70.7137 -42.0970 -42.0959
   -41.2296 -41.2286 -41.1775 -41.1764 -41.0446 -41.0435 -41.0131 -41.0120
   -40.9918 -40.9907 -40.7951 -40.7951 -40.6758 -40.6757 -40.5977 -40.5977
    -7.8946  -7.8946  -7.7173  -7.7172  -7.6513  -7.6513  -7.5397  -7.5396
    -7.5116  -7.5116  -7.3965  -7.3964  -7.3455  -7.3455  -7.3274  -7.3274
    -7.3183  -7.3182  -7.2836  -7.2836  -7.2508  -7.2508  -7.2401  -7.2401
    -7.1134  -7.1134  -7.0568  -7.0568  -7.0031  -7.0031  -4.5246  -4.5245
    -3.1927  -3.1927  -2.4009  -2.4006  -2.0444  -2.0439  -1.7774  -1.7770
    -1.0946  -1.0944  -0.5778  -0.5778  -0.4911  -0.4908  -0.1663  -0.1661
    -0.0044  -0.0043   0.1897   0.1899   0.2762   0.2764   0.4727   0.4729
     0.6108   0.6110   1.0104   1.0106   1.2884   1.2885   1.7025   1.7029
     1.9869   1.9870   2.2565   2.2566   3.0993   3.0994   3.9645   3.9645
     4.8982   4.8983   6.0311   6.0314   6.7709

          k =-0.0881-0.0325 0.0000 ( 33566 PWs)   bands (ev):

   -71.4045 -71.4034 -71.1557 -71.1545 -70.7137 -70.7137 -42.0970 -42.0959
   -41.2296 -41.2286 -41.1775 -41.1764 -41.0446 -41.0435 -41.0131 -41.0120
   -40.9918 -40.9907 -40.7951 -40.7951 -40.6758 -40.6757 -40.5977 -40.5977
    -7.8964  -7.8928  -7.7221  -7.7079  -7.6535  -7.6526  -7.5542  -7.5306
    -7.5115  -7.5057  -7.3968  -7.3967  -7.3538  -7.3359  -7.3320  -7.3261
    -7.3214  -7.3087  -7.2857  -7.2814  -7.2524  -7.2503  -7.2446  -7.2379
    -7.1141  -7.1121  -7.0579  -7.0572  -7.0102  -6.9965  -4.7102  -4.3106
    -3.2851  -3.1255  -2.4377  -2.3805  -2.0677  -2.0223  -1.8231  -1.6966
    -1.1642  -1.0178  -0.5963  -0.5946  -0.5243  -0.4007  -0.1902  -0.1304
    -0.0198   0.0114   0.1891   0.2342   0.2796   0.2929   0.4385   0.4826
     0.5970   0.6200   0.8832   1.0816   1.0883   1.4136   1.6238   1.7111
     1.7506   2.0009   2.0497   2.8115   2.8222   3.6881   3.7315   4.1191
     4.5270   5.4415   5.8981   6.0789   6.5445

          k =-0.0881-0.0163 0.0000 ( 33534 PWs)   bands (ev):

   -71.4045 -71.4034 -71.1557 -71.1545 -70.7137 -70.7137 -42.0970 -42.0959
   -41.2296 -41.2286 -41.1775 -41.1764 -41.0446 -41.0435 -41.0131 -41.0120
   -40.9918 -40.9907 -40.7951 -40.7950 -40.6758 -40.6757 -40.5977 -40.5977
    -7.8977  -7.8915  -7.7231  -7.6962  -7.6596  -7.6553  -7.5657  -7.5289
    -7.5102  -7.4957  -7.3974  -7.3972  -7.3580  -7.3363  -7.3303  -7.3297
    -7.3153  -7.2986  -7.2856  -7.2800  -7.2569  -7.2490  -7.2488  -7.2380
    -7.1142  -7.1104  -7.0594  -7.0585  -7.0156  -6.9920  -4.8345  -4.1226
    -3.3587  -3.1156  -2.4761  -2.3628  -2.0906  -2.0071  -1.8418  -1.6070
    -1.2109  -0.9547  -0.6324  -0.6206  -0.5325  -0.2715  -0.1968  -0.1018
    -0.0356   0.0393   0.2013   0.2578   0.3175   0.3311   0.3913   0.4839
     0.5807   0.6221   0.7423   0.9199   1.1092   1.2977   1.4818   1.6796
     1.7061   1.9673   1.9690   2.8568   3.4676   3.6234   3.8340   4.4466
     4.7348   5.3565   5.7068   5.8420   6.3042

          k =-0.0881 0.0000 0.0000 ( 33535 PWs)   bands (ev):

   -71.4045 -71.4034 -71.1557 -71.1545 -70.7137 -70.7137 -42.0970 -42.0959
   -41.2296 -41.2286 -41.1775 -41.1764 -41.0446 -41.0435 -41.0131 -41.0120
   -40.9918 -40.9907 -40.7952 -40.7950 -40.6758 -40.6756 -40.5977 -40.5977
    -7.8982  -7.8910  -7.7230  -7.6893  -7.6643  -7.6567  -7.5700  -7.5289
    -7.5096  -7.4912  -7.3977  -7.3975  -7.3590  -7.3384  -7.3315  -7.3277
    -7.3135  -7.2932  -7.2841  -7.2796  -7.2608  -7.2506  -7.2479  -7.2387
    -7.1143  -7.1096  -7.0602  -7.0593  -7.0176  -6.9904  -4.8781  -4.0422
    -3.3861  -3.1278  -2.4920  -2.3511  -2.1023  -2.0019  -1.8464  -1.5661
    -1.2263  -0.9294  -0.6541  -0.6295  -0.5354  -0.1965  -0.1952  -0.0788
    -0.0426   0.0659   0.1954   0.2065   0.2980   0.3302   0.4837   0.4863
     0.5650   0.6211   0.6999   0.8622   1.0974   1.1148   1.5055   1.6664
     1.7017   1.9503   1.9548   2.9246   3.4455   3.6687   4.3123   4.5971
     4.9179   4.9540   5.6077   5.6454   6.2511

          k =-0.0881 0.0163 0.0000 ( 33534 PWs)   bands (ev):

   -71.4045 -71.4034 -71.1557 -71.1545 -70.7137 -70.7137 -42.0970 -42.0959
   -41.2296 -41.2286 -41.1775 -41.1764 -41.0446 -41.0435 -41.0131 -41.0120
   -40.9918 -40.9907 -40.7951 -40.7950 -40.6758 -40.6757 -40.5977 -40.5977
    -7.8977  -7.8915  -7.7231  -7.6962  -7.6596  -7.6553  -7.5657  -7.5289
    -7.5102  -7.4957  -7.3974  -7.3972  -7.3580  -7.3363  -7.3303  -7.3297
    -7.3153  -7.2986  -7.2856  -7.2800  -7.2569  -7.2490  -7.2488  -7.2380
    -7.1142  -7.1104  -7.0594  -7.0585  -7.0156  -6.9920  -4.8345  -4.1226
    -3.3587  -3.1156  -2.4761  -2.3628  -2.0906  -2.0071  -1.8418  -1.6070
    -1.2109  -0.9547  -0.6324  -0.6206  -0.5325  -0.2715  -0.1968  -0.1018
    -0.0356   0.0393   0.2013   0.2578   0.3175   0.3311   0.3913   0.4839
     0.5807   0.6221   0.7423   0.9199   1.1092   1.2977   1.4818   1.6796
     1.7061   1.9673   1.9690   2.8568   3.4676   3.6234   3.8340   4.4466
     4.7348   5.3565   5.7068   5.8422   6.3040

          k =-0.0881 0.0325 0.0000 ( 33566 PWs)   bands (ev):

   -71.4045 -71.4034 -71.1557 -71.1545 -70.7137 -70.7137 -42.0970 -42.0959
   -41.2296 -41.2286 -41.1775 -41.1764 -41.0446 -41.0435 -41.0131 -41.0120
   -40.9918 -40.9907 -40.7951 -40.7951 -40.6758 -40.6757 -40.5977 -40.5977
    -7.8964  -7.8928  -7.7221  -7.7079  -7.6535  -7.6526  -7.5542  -7.5306
    -7.5115  -7.5057  -7.3968  -7.3967  -7.3538  -7.3359  -7.3320  -7.3261
    -7.3214  -7.3087  -7.2857  -7.2814  -7.2524  -7.2503  -7.2446  -7.2379
    -7.1141  -7.1121  -7.0579  -7.0572  -7.0102  -6.9965  -4.7102  -4.3106
    -3.2851  -3.1255  -2.4377  -2.3804  -2.0677  -2.0223  -1.8231  -1.6966
    -1.1642  -1.0178  -0.5963  -0.5946  -0.5243  -0.4007  -0.1902  -0.1304
    -0.0198   0.0114   0.1891   0.2342   0.2796   0.2929   0.4385   0.4826
     0.5970   0.6200   0.8832   1.0816   1.0883   1.4136   1.6238   1.7111
     1.7506   2.0009   2.0497   2.8115   2.8222   3.6881   3.7315   4.1191
     4.5270   5.4415   5.8981   6.0789   6.5443

          k =-0.0881-0.1463 0.0000 ( 33534 PWs)   bands (ev):

   -71.4045 -71.4034 -71.1557 -71.1545 -70.7137 -70.7137 -42.0970 -42.0959
   -41.2296 -41.2286 -41.1775 -41.1764 -41.0446 -41.0435 -41.0131 -41.0120
   -40.9918 -40.9907 -40.7951 -40.7951 -40.6758 -40.6757 -40.5977 -40.5977
    -7.8946  -7.8946  -7.7173  -7.7172  -7.6513  -7.6512  -7.5397  -7.5397
    -7.5116  -7.5116  -7.3965  -7.3964  -7.3455  -7.3455  -7.3274  -7.3274
    -7.3183  -7.3182  -7.2836  -7.2836  -7.2508  -7.2508  -7.2402  -7.2401
    -7.1134  -7.1134  -7.0568  -7.0568  -7.0031  -7.0031  -4.5246  -4.5245
    -3.1927  -3.1927  -2.4009  -2.4006  -2.0445  -2.0439  -1.7774  -1.7770
    -1.0946  -1.0944  -0.5778  -0.5778  -0.4911  -0.4908  -0.1663  -0.1661
    -0.0044  -0.0043   0.1897   0.1899   0.2762   0.2764   0.4727   0.4729
     0.6108   0.6110   1.0104   1.0106   1.2884   1.2885   1.7025   1.7029
     1.9869   1.9870   2.2565   2.2566   3.0993   3.0994   3.9645   3.9646
     4.8982   4.8982   6.0312   6.0313   6.7708

     the Fermi energy is     1.3610 ev

!    total energy              =   -1795.31527451 Ry
     estimated scf accuracy    <       0.00000864 Ry
     smearing contrib. (-TS)   =      -0.06705635 Ry
     internal energy E=F+TS    =   -1795.24821816 Ry

     The total energy is F=E-TS. E is the sum of the following terms:
     one-electron contribution =  -14298.65679952 Ry
     hartree contribution      =    7191.69275746 Ry
     xc contribution           =    -322.73646593 Ry
     ewald contribution        =    5634.45225199 Ry
     electric field correction =       0.00003785 Ry

     convergence has been achieved in  16 iterations

     negative rho (up, down):  3.221E-03 0.000E+00

     Forces acting on atoms (cartesian axes, Ry/au):

     atom    1 type  1   force =    -0.00000501    0.01673626    0.03108665
     atom    2 type  1   force =    -0.00000039    0.01663328    0.03105377
     atom    3 type  2   force =     0.00012507   -0.00771490   -0.03339358
     atom    4 type  2   force =    -0.00011849   -0.00773441   -0.03339655
     atom    5 type  1   force =    -0.00000468   -0.02324319   -0.00409201
     atom    6 type  1   force =    -0.00000812   -0.02317384   -0.00396680
     atom    7 type  2   force =    -0.00009534    0.01406528    0.00495188
     atom    8 type  2   force =     0.00011241    0.01404701    0.00495093
     atom    9 type  1   force =     0.00000379   -0.00023465    0.00061457
     atom   10 type  1   force =    -0.00000919   -0.00012878    0.00067176
     atom   11 type  2   force =    -0.00005798    0.00039275    0.00075917
     atom   12 type  2   force =     0.00005792    0.00035520    0.00076020

     Total force =     0.079960     Total SCF correction =     0.009120
     SCF correction compared to forces is large: reduce conv_thr to get better values

     Writing output data file ./Ru2Cd2/Ru2Cd2_beef.save/

     init_run     :     94.19s CPU     94.75s WALL (       1 calls)
     electrons    :   3763.05s CPU   3778.84s WALL (       1 calls)
     forces       :     68.54s CPU     68.80s WALL (       1 calls)

     Called by init_run:
     wfcinit      :     82.29s CPU     82.57s WALL (       1 calls)
     potinit      :      8.02s CPU      8.10s WALL (       1 calls)
     hinit0       :      2.08s CPU      2.09s WALL (       1 calls)

     Called by electrons:
     c_bands      :   3341.08s CPU   3349.78s WALL (      16 calls)
     sum_band     :    383.92s CPU    387.49s WALL (      16 calls)
     v_of_rho     :     27.05s CPU     28.35s WALL (      17 calls)
     newd         :     17.68s CPU     19.96s WALL (      17 calls)
     mix_rho      :      0.78s CPU      0.79s WALL (      16 calls)
     vdW_kernel   :      5.69s CPU      5.70s WALL (       1 calls)

     Called by c_bands:
     init_us_2    :     12.76s CPU     12.85s WALL (    2516 calls)
     cegterg      :   3313.84s CPU   3321.45s WALL (    1184 calls)

     Called by *egterg:
     cdiaghg      :    167.63s CPU    167.68s WALL (    6048 calls)
     h_psi        :   1553.67s CPU   1560.18s WALL (    6122 calls)
     s_psi        :    541.00s CPU    541.12s WALL (    6122 calls)
     g_psi        :      1.02s CPU      1.03s WALL (    4864 calls)

     Called by h_psi:
     h_psi:calbec :    540.22s CPU    540.96s WALL (    6122 calls)
     vloc_psi     :    453.74s CPU    459.34s WALL (    6122 calls)
     add_vuspsi   :    553.06s CPU    553.21s WALL (    6122 calls)

     General routines
     calbec       :    839.44s CPU    840.54s WALL (    7602 calls)
     fft          :     15.84s CPU     16.31s WALL (    1130 calls)
     ffts         :      0.07s CPU      0.08s WALL (      33 calls)
     fftw         :    528.15s CPU    534.97s WALL (  656954 calls)
     interpolate  :      0.28s CPU      0.29s WALL (      17 calls)

     Parallel routines
     fft_scatt_xy :     46.93s CPU     47.50s WALL (  658117 calls)
     fft_scatt_yz :     80.74s CPU     81.94s WALL (  658117 calls)

     PWSCF        :      1h 5m CPU      1h 6m WALL


   This run was terminated on:  21:41:55  10Jul2022            

=------------------------------------------------------------------------------=
   JOB DONE.
=------------------------------------------------------------------------------=
