
     Program PWSCF v.6.6 starts on 24Jun2022 at 17:40:36 

     This program is part of the open-source Quantum ESPRESSO suite
     for quantum simulation of materials; please cite
         "P. Giannozzi et al., J. Phys.:Condens. Matter 21 395502 (2009);
         "P. Giannozzi et al., J. Phys.:Condens. Matter 29 465901 (2017);
          URL http://www.quantum-espresso.org", 
     in publications or presentations arising from this work. More details at
     http://www.quantum-espresso.org/quote

     Parallel version (MPI), running on    37 processors

     MPI processes distributed on     1 nodes
     R & G space division:  proc/nbgrp/npool/nimage =      37
     Fft bands division:     nmany     =       1
     Reading input from Ru2Ir2.in
Warning: card &CELL ignored
Warning: card / ignored

     Current dimensions of program PWSCF are:
     Max number of different atomic species (ntypx) = 10
     Max number of k-points (npk) =  40000
     Max angular momentum in pseudopotentials (lmaxx) =  3
     Presently stress not available with electric field and gates

     Message from routine cell_base_init:
     DEPRECATED: use true lattice parameter, not A to a.u. conversion factor
     file Ir.pbe-n-rrkjus_psl.0.2.3.UPF: wavefunction(s)  5D renormalized

     **************************************************************************
     Initializing libbeef V0.1.2 with the BEEF-vdW functional.
     Citation: Wellendorff et al., PRB 85, 235149 (2012).
     **************************************************************************


     IMPORTANT: XC functional enforced from input :
     Exchange-correlation= BEEF-VDW
                           (   1   4  43  14   2   0   0)
     Any further DFT definition will be discarded
     Please, verify this is what you really want


     Subspace diagonalization in iterative solution of the eigenvalue problem:
     a serial algorithm will be used

     Found symmetry operation: I + ( -0.5000  0.0000  0.0000)
     This is a supercell, fractional translations are disabled

     Parallelization info
     --------------------
     sticks:   dense  smooth     PW     G-vecs:    dense   smooth      PW
     Min         108      43     12                24984     6313     996
     Max         109      44     13                25009     6328    1011
     Sum        4029    1615    475               925045   233893   37109



     bravais-lattice index     =            0
     lattice parameter (alat)  =       1.8897  a.u.
     unit-cell volume          =    4230.7845 (a.u.)^3
     number of atoms/cell      =           12
     number of atomic types    =            2
     number of electrons       =       150.00
     number of Kohn-Sham states=           90
     kinetic-energy cutoff     =      55.1240  Ry
     charge density cutoff     =     551.2396  Ry
     convergence threshold     =      1.0E-05
     mixing beta               =       0.1000
     number of iterations used =           10  plain     mixing
     Exchange-correlation= BEEF-VDW
                           (   1   4  43  14   2   0   0)

     celldm(1)=   1.889726  celldm(2)=   0.000000  celldm(3)=   0.000000
     celldm(4)=   0.000000  celldm(5)=   0.000000  celldm(6)=   0.000000

     crystal axes: (cart. coord. in units of alat)
               a(1) = (   5.436231   0.000000   0.000000 )  
               a(2) = (  -2.718116   4.718069   0.000000 )  
               a(3) = (   0.000000   0.000000  24.443433 )  

     reciprocal axes: (cart. coord. in units 2 pi/alat)
               b(1) = (  0.183951  0.105976 -0.000000 )  
               b(2) = (  0.000000  0.211951  0.000000 )  
               b(3) = (  0.000000 -0.000000  0.040911 )  


     PseudoPot. # 1 for Ru read from file:
     ../pseudo/Ru.pbe-spn-rrkjus_psl.1.0.0.UPF
     MD5 check sum: fbaca725316a1a65f98761fd4ac95971
     Pseudo is Ultrasoft + core correction, Zval = 16.0
     Generated using "atomic" code by A. Dal Corso v.6.2.2
     Using radial grid of 1233 points,  6 beta functions with: 
                l(1) =   0
                l(2) =   0
                l(3) =   1
                l(4) =   1
                l(5) =   2
                l(6) =   2
     Q(r) pseudized with 0 coefficients 


     PseudoPot. # 2 for Ir read from file:
     ../pseudo/Ir.pbe-n-rrkjus_psl.0.2.3.UPF
     MD5 check sum: a93e608e8ddc29ee62145620b5f41564
     Pseudo is Ultrasoft + core correction, Zval =  9.0
     Generated using "atomic" code by A. Dal Corso v.5.0.2 svn rev. 9415
     Using radial grid of 1277 points,  6 beta functions with: 
                l(1) =   0
                l(2) =   0
                l(3) =   1
                l(4) =   1
                l(5) =   2
                l(6) =   2
     Q(r) pseudized with 0 coefficients 


     atomic species   valence    mass     pseudopotential
        Ru            16.00   101.07000     Ru( 1.00)
        Ir             9.00   192.21700     Ir( 1.00)

     No symmetry found



   Cartesian axes

     site n.     atom                  positions (alat units)
         1           Ru  tau(   1) = (   0.0000000   0.0000000  10.0000000  )
         2           Ru  tau(   2) = (   2.7181156   0.0000000  10.0000000  )
         3           Ir  tau(   3) = (   1.3590578   2.3590344  10.0000000  )
         4           Ir  tau(   4) = (  -1.3590578   2.3590344  10.0000000  )
         5           Ru  tau(   5) = (   2.7181156   1.5659272  12.2217165  )
         6           Ru  tau(   6) = (   0.0000000   1.5659272  12.2217165  )
         7           Ir  tau(   7) = (  -1.3590578   3.9249616  12.2217165  )
         8           Ir  tau(   8) = (   1.3590578   3.9249616  12.2217165  )
         9           Ru  tau(   9) = (  -0.0000004   3.1137769  14.3740738  )
        10           Ru  tau(  10) = (   2.7181163   3.1137726  14.3740693  )
        11           Ir  tau(  11) = (   4.0771712   0.7970495  14.3578939  )
        12           Ir  tau(  12) = (   1.3590611   0.7970500  14.3578933  )

     number of k points=    74  Fermi-Dirac smearing, width (Ry)=  0.0100
                       cart. coord. in units 2pi/alat
        k(    1) = (   0.0000000   0.0000000   0.0000000), wk =   0.0138889
        k(    2) = (   0.0000000   0.0176626   0.0000000), wk =   0.0277778
        k(    3) = (   0.0000000   0.0353252   0.0000000), wk =   0.0277778
        k(    4) = (   0.0000000   0.0529878   0.0000000), wk =   0.0277778
        k(    5) = (   0.0000000   0.0706504   0.0000000), wk =   0.0277778
        k(    6) = (   0.0000000   0.0883130   0.0000000), wk =   0.0277778
        k(    7) = (   0.0000000  -0.1059756   0.0000000), wk =   0.0138889
        k(    8) = (   0.0153292   0.0088313   0.0000000), wk =   0.0277778
        k(    9) = (   0.0153292   0.0264939   0.0000000), wk =   0.0277778
        k(   10) = (   0.0153292   0.0441565   0.0000000), wk =   0.0277778
        k(   11) = (   0.0153292   0.0618191   0.0000000), wk =   0.0277778
        k(   12) = (   0.0153292   0.0794817   0.0000000), wk =   0.0277778
        k(   13) = (   0.0153292   0.0971443   0.0000000), wk =   0.0277778
        k(   14) = (   0.0153292  -0.0971443   0.0000000), wk =   0.0277778
        k(   15) = (   0.0153292  -0.0794817   0.0000000), wk =   0.0277778
        k(   16) = (   0.0153292  -0.0618191   0.0000000), wk =   0.0277778
        k(   17) = (   0.0153292  -0.0441565   0.0000000), wk =   0.0277778
        k(   18) = (   0.0153292  -0.0264939   0.0000000), wk =   0.0277778
        k(   19) = (   0.0153292  -0.0088313   0.0000000), wk =   0.0277778
        k(   20) = (   0.0306585   0.0176626   0.0000000), wk =   0.0277778
        k(   21) = (   0.0306585   0.0353252   0.0000000), wk =   0.0277778
        k(   22) = (   0.0306585   0.0529878   0.0000000), wk =   0.0277778
        k(   23) = (   0.0306585   0.0706504   0.0000000), wk =   0.0277778
        k(   24) = (   0.0306585   0.0883130   0.0000000), wk =   0.0277778
        k(   25) = (   0.0306585   0.1059756   0.0000000), wk =   0.0277778
        k(   26) = (   0.0306585  -0.0883130   0.0000000), wk =   0.0277778
        k(   27) = (   0.0306585  -0.0706504   0.0000000), wk =   0.0277778
        k(   28) = (   0.0306585  -0.0529878   0.0000000), wk =   0.0277778
        k(   29) = (   0.0306585  -0.0353252   0.0000000), wk =   0.0277778
        k(   30) = (   0.0306585  -0.0176626   0.0000000), wk =   0.0277778
        k(   31) = (   0.0306585   0.0000000   0.0000000), wk =   0.0277778
        k(   32) = (   0.0459877   0.0264939   0.0000000), wk =   0.0277778
        k(   33) = (   0.0459877   0.0441565   0.0000000), wk =   0.0277778
        k(   34) = (   0.0459877   0.0618191   0.0000000), wk =   0.0277778
        k(   35) = (   0.0459877   0.0794817   0.0000000), wk =   0.0277778
        k(   36) = (   0.0459877   0.0971443   0.0000000), wk =   0.0277778
        k(   37) = (   0.0459877   0.1148069   0.0000000), wk =   0.0277778
        k(   38) = (   0.0459877  -0.0794817   0.0000000), wk =   0.0277778
        k(   39) = (   0.0459877  -0.0618191   0.0000000), wk =   0.0277778
        k(   40) = (   0.0459877  -0.0441565   0.0000000), wk =   0.0277778
        k(   41) = (   0.0459877  -0.0264939   0.0000000), wk =   0.0277778
        k(   42) = (   0.0459877  -0.0088313   0.0000000), wk =   0.0277778
        k(   43) = (   0.0459877   0.0088313   0.0000000), wk =   0.0277778
        k(   44) = (   0.0613170   0.0353252   0.0000000), wk =   0.0277778
        k(   45) = (   0.0613170   0.0529878   0.0000000), wk =   0.0277778
        k(   46) = (   0.0613170   0.0706504   0.0000000), wk =   0.0277778
        k(   47) = (   0.0613170   0.0883130   0.0000000), wk =   0.0277778
        k(   48) = (   0.0613170   0.1059756   0.0000000), wk =   0.0277778
        k(   49) = (   0.0613170   0.1236382   0.0000000), wk =   0.0277778
        k(   50) = (   0.0613170  -0.0706504   0.0000000), wk =   0.0277778
        k(   51) = (   0.0613170  -0.0529878   0.0000000), wk =   0.0277778
        k(   52) = (   0.0613170  -0.0353252   0.0000000), wk =   0.0277778
        k(   53) = (   0.0613170  -0.0176626   0.0000000), wk =   0.0277778
        k(   54) = (   0.0613170   0.0000000   0.0000000), wk =   0.0277778
        k(   55) = (   0.0613170   0.0176626   0.0000000), wk =   0.0277778
        k(   56) = (   0.0766462   0.0441565   0.0000000), wk =   0.0277778
        k(   57) = (   0.0766462   0.0618191   0.0000000), wk =   0.0277778
        k(   58) = (   0.0766462   0.0794817   0.0000000), wk =   0.0277778
        k(   59) = (   0.0766462   0.0971443   0.0000000), wk =   0.0277778
        k(   60) = (   0.0766462   0.1148069   0.0000000), wk =   0.0277778
        k(   61) = (   0.0766462   0.1324695   0.0000000), wk =   0.0277778
        k(   62) = (   0.0766462  -0.0618191   0.0000000), wk =   0.0277778
        k(   63) = (   0.0766462  -0.0441565   0.0000000), wk =   0.0277778
        k(   64) = (   0.0766462  -0.0264939   0.0000000), wk =   0.0277778
        k(   65) = (   0.0766462  -0.0088313   0.0000000), wk =   0.0277778
        k(   66) = (   0.0766462   0.0088313   0.0000000), wk =   0.0277778
        k(   67) = (   0.0766462   0.0264939   0.0000000), wk =   0.0277778
        k(   68) = (  -0.0919755  -0.0529878   0.0000000), wk =   0.0138889
        k(   69) = (  -0.0919755  -0.0353252   0.0000000), wk =   0.0277778
        k(   70) = (  -0.0919755  -0.0176626   0.0000000), wk =   0.0277778
        k(   71) = (  -0.0919755  -0.0000000   0.0000000), wk =   0.0277778
        k(   72) = (  -0.0919755   0.0176626   0.0000000), wk =   0.0277778
        k(   73) = (  -0.0919755   0.0353252   0.0000000), wk =   0.0277778
        k(   74) = (  -0.0919755  -0.1589633   0.0000000), wk =   0.0138889

     Dense  grid:   925045 G-vectors     FFT dimensions: (  80,  80, 360)

     Smooth grid:   233893 G-vectors     FFT dimensions: (  50,  50, 225)

     Estimated max dynamical RAM per process >     181.93 MB

     Estimated total dynamical RAM >       6.57 GB

     Initial potential from superposition of free atoms

     starting charge  149.99528, renormalised to  150.00000

     negative rho (up, down):  1.400E-03 0.000E+00


     %%%%%%%%%%%%%%%%%%%%%%%%%%%%%%%%%%%%%%%%%%%%%%%%%%%%%%%%%%%%%%%%%%%%%%%%
     %                                                                      %
     % You are using vdW-DF, which was implemented by the Thonhauser group. %
     % Please cite the following two papers that made this development      %
     % possible and the two reviews that describe the various versions:     %
     %                                                                      %
     %   T. Thonhauser et al., PRL 115, 136402 (2015).                      %
     %   T. Thonhauser et al., PRB 76, 125112 (2007).                       %
     %   K. Berland et al., Rep. Prog. Phys. 78, 066501 (2015).             %
     %   D.C. Langreth et al., J. Phys.: Condens. Matter 21, 084203 (2009). %
     %                                                                      %
     %                                                                      %
     % If you are calculating the stress with vdW-DF, please also cite:     %
     %                                                                      %
     %   R. Sabatini et al., J. Phys.: Condens. Matter 24, 424209 (2012).   %
     %                                                                      %
     %%%%%%%%%%%%%%%%%%%%%%%%%%%%%%%%%%%%%%%%%%%%%%%%%%%%%%%%%%%%%%%%%%%%%%%%



     Adding external electric field

     Computed dipole along edir(3) : 
        Dipole                0.0000 Ry au,          0.0000 Debye
        Dipole field          0.0000 Ry au, 

        Potential amp.       -0.0000 Ry
        Total length         45.0366 bohr

     Starting wfcs are  114 randomized atomic wfcs

     total cpu time spent up to now is       87.3 secs

     Self-consistent Calculation

     iteration #  1     ecut=    55.12 Ry     beta= 0.10
     Davidson diagonalization with overlap
     ethr =  1.00E-02,  avg # of iterations =  2.0

     negative rho (up, down):  1.308E-03 0.000E+00

     Adding external electric field

     Computed dipole along edir(3) : 
        Dipole                0.0617 Ry au,          0.1568 Debye
        Dipole field          0.0002 Ry au, 

        Potential amp.       -0.0165 Ry
        Total length         45.0366 bohr


     total cpu time spent up to now is      275.3 secs

     total energy              =   -1566.39154383 Ry
     estimated scf accuracy    <       2.93802583 Ry

     iteration #  2     ecut=    55.12 Ry     beta= 0.10
     Davidson diagonalization with overlap
     ethr =  1.96E-03,  avg # of iterations =  2.0

     negative rho (up, down):  1.291E-03 0.000E+00

     Adding external electric field

     Computed dipole along edir(3) : 
        Dipole               -0.2569 Ry au,         -0.6529 Debye
        Dipole field         -0.0008 Ry au, 

        Potential amp.        0.0687 Ry
        Total length         45.0366 bohr


     total cpu time spent up to now is      444.0 secs

     total energy              =   -1566.60809146 Ry
     estimated scf accuracy    <       0.70191092 Ry

     iteration #  3     ecut=    55.12 Ry     beta= 0.10
     Davidson diagonalization with overlap
     ethr =  4.68E-04,  avg # of iterations =  2.4

     negative rho (up, down):  1.297E-03 0.000E+00

     Adding external electric field

     Computed dipole along edir(3) : 
        Dipole                0.0749 Ry au,          0.1903 Debye
        Dipole field          0.0002 Ry au, 

        Potential amp.       -0.0200 Ry
        Total length         45.0366 bohr


     total cpu time spent up to now is      619.4 secs

     total energy              =   -1566.55014367 Ry
     estimated scf accuracy    <       8.46435362 Ry

     iteration #  4     ecut=    55.12 Ry     beta= 0.10
     Davidson diagonalization with overlap
     ethr =  4.68E-04,  avg # of iterations =  1.4

     negative rho (up, down):  1.297E-03 0.000E+00

     Adding external electric field

     Computed dipole along edir(3) : 
        Dipole                0.0187 Ry au,          0.0474 Debye
        Dipole field          0.0001 Ry au, 

        Potential amp.       -0.0050 Ry
        Total length         45.0366 bohr


     total cpu time spent up to now is      773.3 secs

     total energy              =   -1566.65094572 Ry
     estimated scf accuracy    <       0.47527285 Ry

     iteration #  5     ecut=    55.12 Ry     beta= 0.10
     Davidson diagonalization with overlap
     ethr =  3.17E-04,  avg # of iterations =  1.7

     negative rho (up, down):  1.301E-03 0.000E+00

     Adding external electric field

     Computed dipole along edir(3) : 
        Dipole                0.0232 Ry au,          0.0591 Debye
        Dipole field          0.0001 Ry au, 

        Potential amp.       -0.0062 Ry
        Total length         45.0366 bohr


     total cpu time spent up to now is      933.3 secs

     total energy              =   -1566.65162458 Ry
     estimated scf accuracy    <       0.12128651 Ry

     iteration #  6     ecut=    55.12 Ry     beta= 0.10
     Davidson diagonalization with overlap
     ethr =  8.09E-05,  avg # of iterations =  3.2

     negative rho (up, down):  1.325E-03 0.000E+00

     Adding external electric field

     Computed dipole along edir(3) : 
        Dipole                0.0191 Ry au,          0.0484 Debye
        Dipole field          0.0001 Ry au, 

        Potential amp.       -0.0051 Ry
        Total length         45.0366 bohr


     total cpu time spent up to now is     1109.3 secs

     total energy              =   -1566.65871189 Ry
     estimated scf accuracy    <       0.02769959 Ry

     iteration #  7     ecut=    55.12 Ry     beta= 0.10
     Davidson diagonalization with overlap
     ethr =  1.85E-05,  avg # of iterations =  6.5

     negative rho (up, down):  1.381E-03 0.000E+00

     Adding external electric field

     Computed dipole along edir(3) : 
        Dipole                0.0057 Ry au,          0.0144 Debye
        Dipole field          0.0000 Ry au, 

        Potential amp.       -0.0015 Ry
        Total length         45.0366 bohr


     total cpu time spent up to now is     1305.9 secs

     total energy              =   -1566.65993605 Ry
     estimated scf accuracy    <       0.01660193 Ry

     iteration #  8     ecut=    55.12 Ry     beta= 0.10
     Davidson diagonalization with overlap
     ethr =  1.11E-05,  avg # of iterations =  2.1

     negative rho (up, down):  1.511E-03 0.000E+00

     Adding external electric field

     Computed dipole along edir(3) : 
        Dipole               -0.0000 Ry au,         -0.0001 Debye
        Dipole field         -0.0000 Ry au, 

        Potential amp.        0.0000 Ry
        Total length         45.0366 bohr


     total cpu time spent up to now is     1476.5 secs

     total energy              =   -1566.66165855 Ry
     estimated scf accuracy    <       0.00448533 Ry

     iteration #  9     ecut=    55.12 Ry     beta= 0.10
     Davidson diagonalization with overlap
     c_bands:  1 eigenvalues not converged
     c_bands:  1 eigenvalues not converged
     ethr =  2.99E-06,  avg # of iterations =  5.0

     negative rho (up, down):  1.539E-03 0.000E+00

     Adding external electric field

     Computed dipole along edir(3) : 
        Dipole                0.0123 Ry au,          0.0313 Debye
        Dipole field          0.0000 Ry au, 

        Potential amp.       -0.0033 Ry
        Total length         45.0366 bohr


     total cpu time spent up to now is     1696.2 secs

     total energy              =   -1566.66145554 Ry
     estimated scf accuracy    <       0.00269253 Ry

     iteration # 10     ecut=    55.12 Ry     beta= 0.10
     Davidson diagonalization with overlap
     ethr =  1.80E-06,  avg # of iterations =  5.4

     negative rho (up, down):  1.513E-03 0.000E+00

     Adding external electric field

     Computed dipole along edir(3) : 
        Dipole                0.0076 Ry au,          0.0193 Debye
        Dipole field          0.0000 Ry au, 

        Potential amp.       -0.0020 Ry
        Total length         45.0366 bohr


     total cpu time spent up to now is     1965.2 secs

     total energy              =   -1566.66059251 Ry
     estimated scf accuracy    <       0.01180277 Ry

     iteration # 11     ecut=    55.12 Ry     beta= 0.10
     Davidson diagonalization with overlap
     ethr =  1.80E-06,  avg # of iterations =  4.4

     negative rho (up, down):  1.484E-03 0.000E+00

     Adding external electric field

     Computed dipole along edir(3) : 
        Dipole                0.0092 Ry au,          0.0233 Debye
        Dipole field          0.0000 Ry au, 

        Potential amp.       -0.0025 Ry
        Total length         45.0366 bohr


     total cpu time spent up to now is     2194.3 secs

     total energy              =   -1566.66222980 Ry
     estimated scf accuracy    <       0.00039706 Ry

     iteration # 12     ecut=    55.12 Ry     beta= 0.10
     Davidson diagonalization with overlap
     ethr =  2.65E-07,  avg # of iterations =  2.1

     negative rho (up, down):  1.450E-03 0.000E+00

     Adding external electric field

     Computed dipole along edir(3) : 
        Dipole                0.0077 Ry au,          0.0196 Debye
        Dipole field          0.0000 Ry au, 

        Potential amp.       -0.0021 Ry
        Total length         45.0366 bohr


     total cpu time spent up to now is     2391.6 secs

     total energy              =   -1566.66229706 Ry
     estimated scf accuracy    <       0.00006347 Ry

     iteration # 13     ecut=    55.12 Ry     beta= 0.10
     Davidson diagonalization with overlap
     ethr =  4.23E-08,  avg # of iterations =  4.4

     negative rho (up, down):  1.424E-03 0.000E+00

     Adding external electric field

     Computed dipole along edir(3) : 
        Dipole                0.0066 Ry au,          0.0168 Debye
        Dipole field          0.0000 Ry au, 

        Potential amp.       -0.0018 Ry
        Total length         45.0366 bohr


     total cpu time spent up to now is     2643.4 secs

     total energy              =   -1566.66226691 Ry
     estimated scf accuracy    <       0.00027242 Ry

     iteration # 14     ecut=    55.12 Ry     beta= 0.10
     Davidson diagonalization with overlap
     ethr =  4.23E-08,  avg # of iterations =  4.0

     negative rho (up, down):  1.269E-03 0.000E+00

     Adding external electric field

     Computed dipole along edir(3) : 
        Dipole                0.0118 Ry au,          0.0299 Debye
        Dipole field          0.0000 Ry au, 

        Potential amp.       -0.0032 Ry
        Total length         45.0366 bohr


     total cpu time spent up to now is     2866.7 secs

     End of self-consistent calculation

          k = 0.0000 0.0000 0.0000 ( 29117 PWs)   bands (ev):

   -71.7429 -71.6943 -71.2670 -71.2185 -71.1929 -71.1444 -41.8874 -41.7826
   -41.7307 -41.6954 -41.6460 -41.4295 -41.4123 -41.3617 -41.2324 -41.1835
   -41.1827 -41.1538 -41.1345 -41.1050 -41.0846 -41.0383 -40.9582 -40.8915
    -6.8635  -5.1306  -5.0267  -4.8317  -4.8060  -4.6646  -4.4805  -4.3655
    -4.3156  -4.0949  -4.0475  -4.0310  -3.6274  -3.5750  -3.5033  -2.4939
    -2.3250  -2.1392  -1.7772  -1.6824  -1.6758  -1.4137  -1.3856  -1.2843
    -1.2274  -1.1284  -1.0324  -0.9356  -0.8939  -0.7635  -0.5803  -0.5646
    -0.5292  -0.1162   0.0680   0.7889   0.8318   0.8884   1.0218   1.0242
     1.0281   1.0535   1.0671   1.1529   1.7138   1.7632   2.2031   2.3715
     2.4125   2.4278   2.4670   2.4849   2.5460   2.6604   2.6663   2.8529
     2.9008   2.9577   3.2495   3.3585   3.3949   3.4308   3.4311   3.4756
     3.4974   3.5261

          k = 0.0000 0.0177 0.0000 ( 29197 PWs)   bands (ev):

   -71.7429 -71.6943 -71.2670 -71.2185 -71.1929 -71.1444 -41.8876 -41.7828
   -41.7308 -41.6959 -41.6463 -41.4297 -41.4124 -41.3619 -41.2328 -41.1837
   -41.1828 -41.1541 -41.1346 -41.1052 -41.0847 -41.0383 -40.9582 -40.8916
    -6.8039  -5.0877  -4.9756  -4.7833  -4.7528  -4.6292  -4.4330  -4.3273
    -4.2788  -4.0721  -4.0171  -3.9938  -3.5704  -3.5081  -3.4705  -2.4935
    -2.3076  -2.1402  -1.7712  -1.6620  -1.6427  -1.4682  -1.3660  -1.3539
    -1.1999  -1.1731  -1.0113  -0.9057  -0.8808  -0.8014  -0.5775  -0.5563
    -0.5143  -0.1730   0.0217   0.6965   0.7472   0.8202   0.9218   0.9490
     0.9924   1.0137   1.0855   1.0994   1.7643   1.8656   1.9894   2.1960
     2.3022   2.3486   2.3827   2.4602   2.4816   2.5477   2.6119   2.6633
     2.8347   3.0213   3.0590   3.1147   3.2623   3.2708   3.3177   3.3415
     3.4087   3.9298

          k = 0.0000 0.0353 0.0000 ( 29219 PWs)   bands (ev):

   -71.7428 -71.6942 -71.2669 -71.2184 -71.1928 -71.1444 -41.8882 -41.7831
   -41.7310 -41.6972 -41.6468 -41.4302 -41.4125 -41.3624 -41.2338 -41.1843
   -41.1830 -41.1548 -41.1347 -41.1056 -41.0850 -41.0385 -40.9584 -40.8917
    -6.6303  -4.9826  -4.8238  -4.6448  -4.5980  -4.5221  -4.2968  -4.2156
    -4.1677  -4.0042  -3.9236  -3.8857  -3.4047  -3.3733  -3.3118  -2.4964
    -2.2623  -2.1533  -1.7790  -1.6811  -1.6021  -1.5589  -1.3690  -1.3638
    -1.2262  -1.1981  -0.9553  -0.9026  -0.8623  -0.8154  -0.6185  -0.5987
    -0.3653  -0.3308  -0.1317   0.4285   0.4885   0.7122   0.7235   0.7798
     0.8452   0.9990   1.0283   1.0343   1.4069   1.7587   1.8074   1.8251
     2.0084   2.0967   2.3000   2.3086   2.3132   2.3530   2.4649   2.5551
     2.6217   2.6670   2.6817   2.6995   3.0592   3.0859   3.1761   3.1881
     3.7166   3.9162

          k = 0.0000 0.0530 0.0000 ( 29247 PWs)   bands (ev):

   -71.7427 -71.6942 -71.2668 -71.2184 -71.1927 -71.1444 -41.8890 -41.7837
   -41.7312 -41.6990 -41.6477 -41.4309 -41.4127 -41.3631 -41.2351 -41.1851
   -41.1833 -41.1558 -41.1349 -41.1062 -41.0853 -41.0387 -40.9585 -40.8919
    -6.3605  -4.8727  -4.5888  -4.4394  -4.3587  -4.3481  -4.0944  -4.0352
    -3.9838  -3.8902  -3.7594  -3.7230  -3.2174  -3.1515  -3.0005  -2.5029
    -2.2320  -2.2105  -1.9223  -1.8084  -1.6189  -1.5156  -1.4050  -1.3818
    -1.2443  -1.0387  -1.0085  -0.9114  -0.8733  -0.6774  -0.6623  -0.6590
    -0.5463  -0.4006  -0.1233   0.1206   0.2194   0.3860   0.4585   0.5875
     0.7191   0.7607   0.9009   0.9957   1.0812   1.1343   1.2418   1.3648
     1.7210   1.8195   1.9838   1.9869   2.0241   2.1195   2.1935   2.3513
     2.4746   2.5365   2.6791   2.7209   2.7606   2.9416   2.9461   2.9630
     3.1095   4.6017

          k = 0.0000 0.0707 0.0000 ( 29277 PWs)   bands (ev):

   -71.7426 -71.6942 -71.2667 -71.2184 -71.1927 -71.1443 -41.8898 -41.7842
   -41.7314 -41.7007 -41.6485 -41.4316 -41.4129 -41.3639 -41.2365 -41.1860
   -41.1837 -41.1567 -41.1351 -41.1068 -41.0856 -41.0389 -40.9587 -40.8920
    -6.0302  -4.8160  -4.3237  -4.2122  -4.1354  -4.0745  -3.8676  -3.7938
    -3.7864  -3.6903  -3.5489  -3.5122  -3.0249  -2.8851  -2.6349  -2.4598
    -2.3513  -2.3126  -1.9832  -1.9447  -1.8448  -1.4891  -1.4604  -1.2963
    -1.2281  -1.1397  -0.9972  -0.8017  -0.7624  -0.7391  -0.7274  -0.7006
    -0.6416  -0.5098  -0.1138  -0.0997   0.0194   0.1279   0.1988   0.2810
     0.4040   0.4121   0.5122   0.5969   0.6633   0.7873   0.9940   1.3174
     1.3450   1.4859   1.5688   1.5900   1.6950   1.8911   1.9605   2.1512
     2.2921   2.2923   2.3321   2.5140   2.7099   2.8361   2.9327   3.1070
     3.3177   5.1416

          k = 0.0000 0.0883 0.0000 ( 29245 PWs)   bands (ev):

   -71.7426 -71.6941 -71.2667 -71.2183 -71.1926 -71.1443 -41.8903 -41.7846
   -41.7316 -41.7020 -41.6491 -41.4321 -41.4130 -41.3644 -41.2375 -41.1866
   -41.1840 -41.1572 -41.1352 -41.1072 -41.0858 -41.0390 -40.9588 -40.8921
    -5.7102  -4.8427  -4.1107  -4.0227  -3.9299  -3.8308  -3.6824  -3.6629
    -3.5546  -3.4150  -3.3878  -3.1910  -2.8971  -2.7599  -2.5889  -2.5032
    -2.3362  -2.2570  -2.1022  -1.9968  -1.8563  -1.6456  -1.4812  -1.2924
    -1.1581  -1.0999  -1.0862  -0.8613  -0.8105  -0.7877  -0.6993  -0.6176
    -0.5861  -0.4423  -0.3680  -0.3615  -0.2941  -0.2543  -0.2178  -0.0710
     0.0510   0.2496   0.3416   0.5010   0.6272   0.7585   0.8864   0.9394
     1.0228   1.2553   1.4039   1.4864   1.5291   1.6765   1.7939   1.8175
     1.9682   1.9891   2.3275   2.5102   2.7291   2.7849   2.9486   3.1199
     3.7852   4.7498

          k = 0.0000-0.1060 0.0000 ( 29270 PWs)   bands (ev):

   -71.7426 -71.6941 -71.2667 -71.2183 -71.1926 -71.1443 -41.8906 -41.7847
   -41.7317 -41.7024 -41.6493 -41.4323 -41.4130 -41.3646 -41.2378 -41.1868
   -41.1841 -41.1574 -41.1353 -41.1073 -41.0859 -41.0391 -40.9588 -40.8922
    -5.5537  -4.8892  -4.0289  -3.9424  -3.8138  -3.7364  -3.6778  -3.5628
    -3.4846  -3.3237  -3.1517  -2.9907  -2.9533  -2.7420  -2.6318  -2.5622
    -2.4760  -2.2098  -2.1126  -2.0413  -1.7527  -1.5334  -1.3822  -1.2785
    -1.1750  -1.1333  -1.1033  -0.9566  -0.8348  -0.7879  -0.6561  -0.6478
    -0.6250  -0.5681  -0.5397  -0.5082  -0.4718  -0.3874  -0.3371  -0.1836
    -0.0407   0.3083   0.3764   0.4605   0.5970   0.6629   0.7860   0.8723
     1.0846   1.1196   1.3059   1.4033   1.4716   1.6502   1.6818   1.7603
     1.7689   1.9055   2.3272   2.5102   2.7414   2.7666   2.9570   3.1261
     4.2329   4.2957

          k = 0.0153 0.0088 0.0000 ( 29189 PWs)   bands (ev):

   -71.7421 -71.6951 -71.2662 -71.2193 -71.1921 -71.1452 -41.8796 -41.7818
   -41.7317 -41.6948 -41.6471 -41.4217 -41.4207 -41.3539 -41.2318 -41.1845
   -41.1819 -41.1531 -41.1354 -41.1060 -41.0839 -41.0391 -40.9665 -40.8998
    -6.7988  -5.0662  -4.9611  -4.8000  -4.7682  -4.6108  -4.4468  -4.3271
    -4.2781  -4.0597  -4.0236  -3.9986  -3.5854  -3.5259  -3.4454  -2.4777
    -2.3227  -2.1327  -1.7533  -1.6634  -1.6474  -1.5095  -1.3894  -1.2997
    -1.2064  -1.1462  -1.0792  -0.9020  -0.8623  -0.8065  -0.5852  -0.5758
    -0.4848  -0.1417  -0.0007   0.6744   0.7384   0.8011   0.9595   0.9731
     0.9892   1.0138   1.0728   1.1111   1.7296   1.8685   2.0044   2.1620
     2.3518   2.3547   2.4017   2.4194   2.4804   2.5609   2.5806   2.6688
     2.8433   2.9946   3.0348   3.1814   3.2260   3.2794   3.3056   3.3477
     3.4172   4.0151

          k = 0.0153 0.0265 0.0000 ( 29193 PWs)   bands (ev):

   -71.7420 -71.6951 -71.2661 -71.2193 -71.1920 -71.1452 -41.8800 -41.7821
   -41.7318 -41.6957 -41.6474 -41.4221 -41.4208 -41.3543 -41.2325 -41.1849
   -41.1821 -41.1536 -41.1355 -41.1063 -41.0841 -41.0392 -40.9665 -40.8999
    -6.6817  -4.9860  -4.8609  -4.7258  -4.6497  -4.5397  -4.3554  -4.2497
    -4.2053  -4.0155  -3.9689  -3.9176  -3.4924  -3.3811  -3.3760  -2.4805
    -2.2915  -2.1375  -1.7603  -1.6325  -1.6198  -1.5903  -1.3771  -1.2932
    -1.2861  -1.1724  -1.0546  -0.8477  -0.8386  -0.8376  -0.6101  -0.6052
    -0.4057  -0.2477  -0.0959   0.4960   0.5628   0.7268   0.7976   0.8551
     0.9063   0.9934   1.0524   1.0601   1.4687   1.8341   1.9386   2.0857
     2.0880   2.1755   2.2296   2.3038   2.3070   2.4177   2.4833   2.4899
     2.6920   2.7027   2.8692   2.8764   3.0923   3.1172   3.1853   3.6167
     3.6348   3.7512

          k = 0.0153 0.0442 0.0000 ( 29207 PWs)   bands (ev):

   -71.7420 -71.6950 -71.2660 -71.2192 -71.1920 -71.1452 -41.8807 -41.7825
   -41.7320 -41.6972 -41.6481 -41.4227 -41.4209 -41.3549 -41.2336 -41.1856
   -41.1823 -41.1545 -41.1356 -41.1068 -41.0843 -41.0394 -40.9667 -40.9000
    -6.4581  -4.8697  -4.6662  -4.5611  -4.4549  -4.3973  -4.1854  -4.0966
    -4.0583  -3.9277  -3.8512  -3.7689  -3.2919  -3.2556  -3.1130  -2.4913
    -2.2467  -2.1672  -1.8745  -1.7663  -1.5598  -1.5335  -1.4144  -1.3926
    -1.2642  -1.0718  -1.0237  -0.9506  -0.8385  -0.7553  -0.6495  -0.6442
    -0.4306  -0.3037  -0.2136   0.2282   0.3282   0.5094   0.5341   0.7237
     0.7258   0.8975   0.9558   1.0112   1.1729   1.3633   1.3963   1.5240
     1.8262   1.9552   2.0524   2.0639   2.2426   2.2934   2.3318   2.3629
     2.4526   2.5575   2.5961   2.7930   2.8543   2.9279   3.0665   3.2132
     3.6503   3.9449

          k = 0.0153 0.0618 0.0000 ( 29238 PWs)   bands (ev):

   -71.7419 -71.6950 -71.2660 -71.2192 -71.1919 -71.1452 -41.8814 -41.7831
   -41.7322 -41.6990 -41.6489 -41.4234 -41.4211 -41.3557 -41.2350 -41.1864
   -41.1827 -41.1554 -41.1358 -41.1073 -41.0847 -41.0396 -40.9668 -40.9002
    -6.1530  -4.7804  -4.4090  -4.3314  -4.2180  -4.1978  -3.9680  -3.8728
    -3.8475  -3.7895  -3.6656  -3.5741  -3.0809  -3.0150  -2.7861  -2.4829
    -2.2840  -2.2485  -2.0067  -1.8856  -1.7349  -1.4826  -1.4456  -1.3070
    -1.3018  -1.0824  -1.0220  -0.8758  -0.8482  -0.7447  -0.7181  -0.5996
    -0.5933  -0.5493   0.0052   0.0399   0.0454   0.2073   0.2355   0.4622
     0.5214   0.6263   0.6900   0.7641   0.7967   0.8491   1.0098   1.2101
     1.4898   1.5850   1.7127   1.7984   1.9067   2.0132   2.0894   2.2968
     2.3094   2.4784   2.4970   2.5931   2.8686   2.8838   2.9402   3.0390
     3.2049   4.1891

          k = 0.0153 0.0795 0.0000 ( 29266 PWs)   bands (ev):

   -71.7418 -71.6950 -71.2659 -71.2192 -71.1918 -71.1451 -41.8821 -41.7835
   -41.7324 -41.7005 -41.6496 -41.4240 -41.4212 -41.3563 -41.2361 -41.1871
   -41.1830 -41.1561 -41.1360 -41.1078 -41.0850 -41.0397 -40.9670 -40.9003
    -5.8153  -4.7674  -4.1583  -4.0969  -3.9818  -3.9815  -3.7448  -3.6892
    -3.6153  -3.5272  -3.4663  -3.3241  -2.9068  -2.8151  -2.5831  -2.4628
    -2.3393  -2.2728  -2.0326  -2.0141  -1.9306  -1.5647  -1.5145  -1.3753
    -1.1712  -1.0996  -1.0562  -0.8857  -0.8591  -0.8408  -0.7491  -0.7279
    -0.5212  -0.4010  -0.2711  -0.2212  -0.1949  -0.0663  -0.0566   0.1065
     0.2301   0.2692   0.3595   0.4670   0.6224   0.7715   1.0125   1.0329
     1.1053   1.3212   1.3669   1.5792   1.6551   1.8519   1.9099   2.0304
     2.1285   2.2985   2.3319   2.4844   2.6476   2.7820   2.8707   3.0475
     3.6236   4.3498

          k = 0.0153 0.0971 0.0000 ( 29264 PWs)   bands (ev):

   -71.7417 -71.6950 -71.2659 -71.2192 -71.1918 -71.1451 -41.8825 -41.7838
   -41.7325 -41.7014 -41.6501 -41.4244 -41.4213 -41.3567 -41.2368 -41.1876
   -41.1832 -41.1565 -41.1361 -41.1081 -41.0851 -41.0398 -40.9670 -40.9004
    -5.5483  -4.8260  -4.0020  -3.9404  -3.8206  -3.7993  -3.6387  -3.5783
    -3.4473  -3.3346  -3.2203  -3.0150  -2.9168  -2.7999  -2.6129  -2.5320
    -2.4517  -2.1399  -2.1355  -2.0865  -1.7299  -1.6389  -1.4579  -1.2961
    -1.2160  -1.1944  -1.0710  -0.9853  -0.8992  -0.8310  -0.7599  -0.6883
    -0.6880  -0.5078  -0.5013  -0.4534  -0.4281  -0.3512  -0.2280  -0.1461
    -0.0363   0.2662   0.4165   0.4598   0.6755   0.6869   0.7966   0.9063
     1.1057   1.1216   1.3149   1.4931   1.5147   1.6548   1.8055   1.8179
     1.9216   1.9700   2.2970   2.4824   2.6813   2.7270   2.8823   3.0583
     4.0827   4.4284

          k = 0.0153-0.0971 0.0000 ( 29264 PWs)   bands (ev):

   -71.7417 -71.6950 -71.2659 -71.2192 -71.1918 -71.1451 -41.8825 -41.7838
   -41.7325 -41.7014 -41.6501 -41.4244 -41.4213 -41.3567 -41.2368 -41.1876
   -41.1832 -41.1565 -41.1361 -41.1081 -41.0851 -41.0398 -40.9670 -40.9004
    -5.5483  -4.8260  -4.0020  -3.9404  -3.8206  -3.7993  -3.6387  -3.5783
    -3.4473  -3.3346  -3.2203  -3.0150  -2.9168  -2.7999  -2.6129  -2.5320
    -2.4517  -2.1399  -2.1355  -2.0865  -1.7299  -1.6389  -1.4579  -1.2961
    -1.2160  -1.1944  -1.0710  -0.9853  -0.8992  -0.8310  -0.7599  -0.6883
    -0.6880  -0.5078  -0.5013  -0.4534  -0.4281  -0.3512  -0.2280  -0.1461
    -0.0363   0.2662   0.4165   0.4598   0.6755   0.6869   0.7966   0.9063
     1.1057   1.1216   1.3149   1.4931   1.5147   1.6548   1.8055   1.8179
     1.9216   1.9700   2.2970   2.4824   2.6813   2.7270   2.8823   3.0583
     4.0827   4.4284

          k = 0.0153-0.0795 0.0000 ( 29266 PWs)   bands (ev):

   -71.7418 -71.6950 -71.2659 -71.2192 -71.1918 -71.1451 -41.8821 -41.7835
   -41.7324 -41.7005 -41.6496 -41.4240 -41.4212 -41.3563 -41.2361 -41.1871
   -41.1830 -41.1561 -41.1360 -41.1078 -41.0850 -41.0397 -40.9670 -40.9003
    -5.8153  -4.7674  -4.1583  -4.0969  -3.9818  -3.9815  -3.7448  -3.6892
    -3.6153  -3.5272  -3.4663  -3.3241  -2.9068  -2.8151  -2.5831  -2.4628
    -2.3393  -2.2728  -2.0326  -2.0141  -1.9306  -1.5647  -1.5145  -1.3753
    -1.1712  -1.0996  -1.0562  -0.8857  -0.8591  -0.8408  -0.7491  -0.7279
    -0.5212  -0.4010  -0.2711  -0.2212  -0.1949  -0.0663  -0.0566   0.1065
     0.2301   0.2692   0.3595   0.4670   0.6224   0.7715   1.0125   1.0329
     1.1053   1.3212   1.3669   1.5792   1.6551   1.8519   1.9099   2.0304
     2.1285   2.2985   2.3320   2.4844   2.6476   2.7820   2.8707   3.0475
     3.6236   4.3498

          k = 0.0153-0.0618 0.0000 ( 29238 PWs)   bands (ev):

   -71.7419 -71.6950 -71.2660 -71.2192 -71.1919 -71.1452 -41.8814 -41.7831
   -41.7322 -41.6990 -41.6489 -41.4234 -41.4211 -41.3557 -41.2350 -41.1864
   -41.1827 -41.1554 -41.1358 -41.1073 -41.0847 -41.0396 -40.9668 -40.9002
    -6.1530  -4.7804  -4.4090  -4.3314  -4.2180  -4.1978  -3.9680  -3.8728
    -3.8475  -3.7895  -3.6656  -3.5741  -3.0809  -3.0150  -2.7861  -2.4829
    -2.2840  -2.2485  -2.0067  -1.8856  -1.7349  -1.4826  -1.4456  -1.3070
    -1.3018  -1.0824  -1.0220  -0.8758  -0.8482  -0.7447  -0.7181  -0.5996
    -0.5933  -0.5493   0.0052   0.0399   0.0454   0.2073   0.2355   0.4622
     0.5214   0.6263   0.6900   0.7641   0.7967   0.8491   1.0098   1.2101
     1.4898   1.5850   1.7127   1.7984   1.9067   2.0132   2.0894   2.2968
     2.3094   2.4784   2.4970   2.5931   2.8686   2.8838   2.9402   3.0390
     3.2049   4.1891

          k = 0.0153-0.0442 0.0000 ( 29207 PWs)   bands (ev):

   -71.7420 -71.6950 -71.2660 -71.2192 -71.1920 -71.1452 -41.8807 -41.7825
   -41.7320 -41.6972 -41.6481 -41.4227 -41.4209 -41.3549 -41.2336 -41.1856
   -41.1823 -41.1545 -41.1356 -41.1068 -41.0843 -41.0394 -40.9667 -40.9000
    -6.4581  -4.8697  -4.6662  -4.5611  -4.4549  -4.3973  -4.1854  -4.0966
    -4.0583  -3.9277  -3.8512  -3.7689  -3.2919  -3.2556  -3.1130  -2.4913
    -2.2467  -2.1672  -1.8745  -1.7663  -1.5598  -1.5335  -1.4144  -1.3926
    -1.2642  -1.0718  -1.0237  -0.9506  -0.8385  -0.7553  -0.6495  -0.6442
    -0.4306  -0.3037  -0.2136   0.2282   0.3282   0.5094   0.5341   0.7237
     0.7258   0.8975   0.9558   1.0112   1.1729   1.3633   1.3963   1.5240
     1.8262   1.9552   2.0524   2.0639   2.2426   2.2934   2.3318   2.3629
     2.4526   2.5575   2.5961   2.7930   2.8543   2.9279   3.0665   3.2132
     3.6503   3.9449

          k = 0.0153-0.0265 0.0000 ( 29193 PWs)   bands (ev):

   -71.7420 -71.6951 -71.2661 -71.2193 -71.1920 -71.1452 -41.8800 -41.7821
   -41.7318 -41.6957 -41.6474 -41.4221 -41.4208 -41.3543 -41.2325 -41.1849
   -41.1821 -41.1536 -41.1355 -41.1063 -41.0841 -41.0392 -40.9665 -40.8999
    -6.6817  -4.9860  -4.8609  -4.7258  -4.6497  -4.5397  -4.3554  -4.2497
    -4.2053  -4.0155  -3.9689  -3.9176  -3.4924  -3.3811  -3.3760  -2.4805
    -2.2915  -2.1375  -1.7603  -1.6325  -1.6198  -1.5903  -1.3771  -1.2932
    -1.2861  -1.1724  -1.0546  -0.8477  -0.8386  -0.8376  -0.6101  -0.6052
    -0.4057  -0.2477  -0.0959   0.4960   0.5628   0.7268   0.7976   0.8551
     0.9063   0.9934   1.0524   1.0601   1.4687   1.8341   1.9386   2.0857
     2.0880   2.1755   2.2296   2.3038   2.3070   2.4177   2.4833   2.4899
     2.6920   2.7027   2.8692   2.8764   3.0923   3.1172   3.1853   3.6167
     3.6348   3.7512

          k = 0.0153-0.0088 0.0000 ( 29189 PWs)   bands (ev):

   -71.7421 -71.6951 -71.2662 -71.2193 -71.1921 -71.1452 -41.8796 -41.7818
   -41.7317 -41.6948 -41.6471 -41.4217 -41.4207 -41.3539 -41.2318 -41.1845
   -41.1819 -41.1531 -41.1354 -41.1060 -41.0839 -41.0391 -40.9665 -40.8998
    -6.7988  -5.0662  -4.9611  -4.8000  -4.7682  -4.6108  -4.4468  -4.3271
    -4.2781  -4.0597  -4.0236  -3.9986  -3.5854  -3.5259  -3.4454  -2.4777
    -2.3227  -2.1327  -1.7533  -1.6634  -1.6474  -1.5095  -1.3894  -1.2997
    -1.2064  -1.1462  -1.0792  -0.9020  -0.8623  -0.8065  -0.5852  -0.5758
    -0.4848  -0.1417  -0.0007   0.6744   0.7384   0.8011   0.9595   0.9731
     0.9892   1.0138   1.0728   1.1111   1.7296   1.8685   2.0044   2.1620
     2.3518   2.3547   2.4017   2.4194   2.4804   2.5609   2.5806   2.6688
     2.8433   2.9946   3.0348   3.1813   3.2260   3.2794   3.3056   3.3477
     3.4172   4.0156

          k = 0.0307 0.0177 0.0000 ( 29219 PWs)   bands (ev):

   -71.7396 -71.6975 -71.2637 -71.2217 -71.1896 -71.1477 -41.8566 -41.7793
   -41.7344 -41.6928 -41.6500 -41.4452 -41.3989 -41.3312 -41.2297 -41.1873
   -41.1796 -41.1510 -41.1379 -41.1087 -41.0817 -41.0415 -40.9908 -40.9240
    -6.6090  -4.8783  -4.7713  -4.7435  -4.6343  -4.4545  -4.3493  -4.2113
    -4.1706  -3.9582  -3.9549  -3.8974  -3.4892  -3.3551  -3.2768  -2.4376
    -2.3236  -2.1158  -1.7547  -1.6768  -1.6192  -1.5582  -1.4424  -1.3273
    -1.2266  -1.2244  -1.1139  -0.8530  -0.8448  -0.7720  -0.6448  -0.6073
    -0.3378  -0.2312  -0.2047   0.3506   0.5566   0.5954   0.7466   0.8741
     0.9140   0.9695   1.0044   1.0183   1.4027   1.7326   1.7343   1.8176
     2.0291   2.1950   2.2198   2.3137   2.3459   2.3852   2.4344   2.5342
     2.6383   2.6693   2.6812   2.6923   3.0554   3.1149   3.1313   3.1941
     3.6829   3.9063

          k = 0.0307 0.0353 0.0000 ( 29211 PWs)   bands (ev):

   -71.7396 -71.6975 -71.2637 -71.2217 -71.1896 -71.1476 -41.8571 -41.7797
   -41.7345 -41.6940 -41.6505 -41.4453 -41.3993 -41.3316 -41.2306 -41.1878
   -41.1798 -41.1516 -41.1380 -41.1091 -41.0819 -41.0417 -40.9908 -40.9241
    -6.4402  -4.7702  -4.6589  -4.6318  -4.4744  -4.3473  -4.2238  -4.0863
    -4.0664  -3.8943  -3.8841  -3.7686  -3.3733  -3.1860  -3.1271  -2.4559
    -2.2886  -2.1268  -1.8985  -1.7438  -1.5708  -1.5028  -1.4282  -1.3832
    -1.3162  -1.2129  -1.0300  -0.8421  -0.8189  -0.7467  -0.6968  -0.6566
    -0.3676  -0.3387  -0.2061   0.1922   0.3464   0.4770   0.5276   0.7558
     0.7775   0.8783   0.9711   1.0094   1.1384   1.3274   1.3775   1.5637
     1.8312   2.0107   2.0145   2.0528   2.2314   2.2927   2.3137   2.3924
     2.4325   2.5508   2.6095   2.8025   2.8362   2.9804   3.0063   3.2094
     3.6213   3.9470

          k = 0.0307 0.0530 0.0000 ( 29196 PWs)   bands (ev):

   -71.7395 -71.6975 -71.2636 -71.2217 -71.1895 -71.1476 -41.8578 -41.7802
   -41.7347 -41.6955 -41.6511 -41.4454 -41.4000 -41.3323 -41.2318 -41.1885
   -41.1801 -41.1525 -41.1381 -41.1095 -41.0822 -41.0418 -40.9909 -40.9242
    -6.1762  -4.6587  -4.4915  -4.4106  -4.2759  -4.1713  -4.0380  -3.8899
    -3.8779  -3.7924  -3.7436  -3.5832  -3.1490  -3.0436  -2.8457  -2.4694
    -2.2768  -2.1712  -2.0623  -1.8633  -1.6602  -1.4901  -1.4691  -1.3688
    -1.3302  -1.1493  -0.9812  -0.8914  -0.8520  -0.8048  -0.7273  -0.5762
    -0.5612  -0.5151  -0.0189   0.0718   0.1279   0.2155   0.2740   0.5619
     0.5675   0.6917   0.7561   0.7854   0.8609   0.9292   0.9945   1.1037
     1.5491   1.5750   1.7949   1.9180   2.0294   2.0449   2.1939   2.2745
     2.3840   2.4376   2.4783   2.7576   2.7745   2.9109   3.1471   3.3726
     3.4077   3.7660

          k = 0.0307 0.0707 0.0000 ( 29240 PWs)   bands (ev):

   -71.7394 -71.6974 -71.2635 -71.2216 -71.1894 -71.1476 -41.8585 -41.7807
   -41.7349 -41.6971 -41.6518 -41.4455 -41.4006 -41.3330 -41.2330 -41.1892
   -41.1804 -41.1533 -41.1383 -41.1100 -41.0825 -41.0420 -40.9910 -40.9243
    -5.8493  -4.6079  -4.2709  -4.1522  -4.0713  -3.9553  -3.8148  -3.6691
    -3.6466  -3.6260  -3.5157  -3.3675  -2.8860  -2.8800  -2.7057  -2.4207
    -2.3115  -2.2374  -2.1106  -1.9890  -1.8665  -1.5469  -1.5354  -1.5134
    -1.2092  -1.0828  -1.0492  -0.9650  -0.9066  -0.8558  -0.8197  -0.7369
    -0.4971  -0.4581  -0.1521  -0.1345  -0.0993  -0.0356   0.0460   0.2136
     0.2961   0.3547   0.4399   0.4720   0.6412   0.8112   0.9811   1.0623
     1.0892   1.2574   1.4783   1.7649   1.7943   1.9822   2.0664   2.2308
     2.2419   2.4081   2.4683   2.5392   2.7116   2.8787   2.8877   3.0525
     3.5300   3.5859

          k = 0.0307 0.0883 0.0000 ( 29249 PWs)   bands (ev):

   -71.7394 -71.6974 -71.2635 -71.2216 -71.1894 -71.1476 -41.8591 -41.7810
   -41.7351 -41.6982 -41.6522 -41.4455 -41.4011 -41.3335 -41.2339 -41.1897
   -41.1806 -41.1538 -41.1384 -41.1103 -41.0827 -41.0421 -40.9911 -40.9243
    -5.5258  -4.6498  -4.0634  -3.9378  -3.9029  -3.7450  -3.6014  -3.5487
    -3.4155  -3.3436  -3.3247  -3.0985  -2.8777  -2.8045  -2.6010  -2.5870
    -2.2759  -2.2192  -2.2025  -2.0193  -1.8101  -1.6627  -1.6064  -1.5185
    -1.2265  -1.1848  -1.0750  -1.0199  -1.0052  -0.9985  -0.8018  -0.7548
    -0.6584  -0.5743  -0.4098  -0.3957  -0.3205  -0.3010  -0.1733  -0.0699
     0.0204   0.3266   0.3871   0.4901   0.7068   0.7979   0.8389   0.9188
     1.0467   1.1730   1.3525   1.5685   1.5996   1.9499   1.9617   2.0365
     2.1860   2.2197   2.3728   2.4048   2.5298   2.6888   2.6965   2.8784
     3.6334   3.9531

          k = 0.0307 0.1060 0.0000 ( 29268 PWs)   bands (ev):

   -71.7393 -71.6974 -71.2635 -71.2216 -71.1894 -71.1476 -41.8593 -41.7812
   -41.7351 -41.6987 -41.6524 -41.4456 -41.4013 -41.3336 -41.2342 -41.1899
   -41.1807 -41.1540 -41.1384 -41.1104 -41.0828 -41.0421 -40.9911 -40.9244
    -5.3624  -4.7089  -3.9733  -3.8546  -3.8320  -3.6085  -3.5483  -3.4962
    -3.3468  -3.2377  -3.0707  -2.9876  -2.9369  -2.7749  -2.7244  -2.6400
    -2.4342  -2.2859  -2.0321  -2.0123  -1.7641  -1.4711  -1.4694  -1.4134
    -1.4033  -1.3857  -1.2003  -1.1700  -1.0954  -0.9373  -0.9352  -0.8596
    -0.6680  -0.5595  -0.5207  -0.4927  -0.4707  -0.3380  -0.3020  -0.0891
     0.0174   0.2202   0.4864   0.5513   0.6062   0.6827   0.8508   1.0193
     1.0300   1.1728   1.4420   1.5150   1.5522   1.8562   1.9029   1.9050
     2.0405   2.0572   2.2190   2.4051   2.5725   2.6034   2.6946   2.8813
     3.6690   3.9762

          k = 0.0307-0.0883 0.0000 ( 29249 PWs)   bands (ev):

   -71.7394 -71.6974 -71.2635 -71.2216 -71.1894 -71.1476 -41.8591 -41.7810
   -41.7351 -41.6982 -41.6522 -41.4455 -41.4011 -41.3335 -41.2339 -41.1897
   -41.1806 -41.1538 -41.1384 -41.1103 -41.0827 -41.0421 -40.9911 -40.9243
    -5.5258  -4.6498  -4.0634  -3.9378  -3.9029  -3.7450  -3.6014  -3.5487
    -3.4155  -3.3436  -3.3247  -3.0985  -2.8777  -2.8045  -2.6010  -2.5870
    -2.2759  -2.2192  -2.2025  -2.0193  -1.8101  -1.6627  -1.6064  -1.5185
    -1.2265  -1.1848  -1.0750  -1.0199  -1.0052  -0.9985  -0.8018  -0.7548
    -0.6584  -0.5743  -0.4098  -0.3957  -0.3205  -0.3010  -0.1733  -0.0699
     0.0204   0.3266   0.3871   0.4901   0.7068   0.7979   0.8389   0.9188
     1.0467   1.1730   1.3525   1.5685   1.5996   1.9499   1.9617   2.0365
     2.1860   2.2197   2.3728   2.4048   2.5298   2.6888   2.6965   2.8784
     3.6334   3.9531

          k = 0.0307-0.0707 0.0000 ( 29240 PWs)   bands (ev):

   -71.7394 -71.6974 -71.2635 -71.2216 -71.1894 -71.1476 -41.8585 -41.7807
   -41.7349 -41.6971 -41.6518 -41.4455 -41.4006 -41.3330 -41.2330 -41.1892
   -41.1804 -41.1533 -41.1383 -41.1100 -41.0825 -41.0420 -40.9910 -40.9243
    -5.8493  -4.6079  -4.2709  -4.1522  -4.0713  -3.9553  -3.8148  -3.6691
    -3.6466  -3.6260  -3.5157  -3.3675  -2.8860  -2.8800  -2.7057  -2.4207
    -2.3115  -2.2374  -2.1106  -1.9890  -1.8665  -1.5469  -1.5354  -1.5134
    -1.2092  -1.0828  -1.0492  -0.9650  -0.9066  -0.8558  -0.8197  -0.7369
    -0.4971  -0.4581  -0.1521  -0.1345  -0.0993  -0.0356   0.0460   0.2136
     0.2961   0.3547   0.4399   0.4720   0.6412   0.8112   0.9811   1.0623
     1.0892   1.2574   1.4783   1.7649   1.7943   1.9822   2.0664   2.2308
     2.2419   2.4081   2.4683   2.5392   2.7116   2.8787   2.8877   3.0525
     3.5300   3.5859

          k = 0.0307-0.0530 0.0000 ( 29196 PWs)   bands (ev):

   -71.7395 -71.6975 -71.2636 -71.2217 -71.1895 -71.1476 -41.8578 -41.7802
   -41.7347 -41.6955 -41.6511 -41.4454 -41.4000 -41.3323 -41.2318 -41.1885
   -41.1801 -41.1525 -41.1381 -41.1095 -41.0822 -41.0418 -40.9909 -40.9242
    -6.1762  -4.6587  -4.4915  -4.4106  -4.2759  -4.1713  -4.0380  -3.8899
    -3.8779  -3.7924  -3.7436  -3.5832  -3.1490  -3.0436  -2.8457  -2.4694
    -2.2768  -2.1712  -2.0623  -1.8633  -1.6602  -1.4901  -1.4691  -1.3688
    -1.3302  -1.1493  -0.9812  -0.8913  -0.8520  -0.8048  -0.7273  -0.5762
    -0.5612  -0.5151  -0.0189   0.0717   0.1279   0.2155   0.2740   0.5619
     0.5675   0.6917   0.7561   0.7854   0.8609   0.9292   0.9945   1.1037
     1.5491   1.5750   1.7949   1.9180   2.0294   2.0449   2.1939   2.2745
     2.3840   2.4376   2.4783   2.7576   2.7745   2.9109   3.1471   3.3726
     3.4077   3.7660

          k = 0.0307-0.0353 0.0000 ( 29211 PWs)   bands (ev):

   -71.7396 -71.6975 -71.2637 -71.2217 -71.1896 -71.1476 -41.8571 -41.7797
   -41.7345 -41.6940 -41.6505 -41.4453 -41.3993 -41.3316 -41.2306 -41.1878
   -41.1798 -41.1516 -41.1380 -41.1091 -41.0819 -41.0417 -40.9908 -40.9241
    -6.4402  -4.7702  -4.6589  -4.6318  -4.4744  -4.3473  -4.2238  -4.0863
    -4.0664  -3.8943  -3.8841  -3.7686  -3.3733  -3.1860  -3.1271  -2.4559
    -2.2886  -2.1268  -1.8985  -1.7438  -1.5708  -1.5028  -1.4282  -1.3832
    -1.3162  -1.2129  -1.0300  -0.8421  -0.8189  -0.7467  -0.6968  -0.6566
    -0.3676  -0.3387  -0.2061   0.1922   0.3464   0.4770   0.5276   0.7558
     0.7775   0.8783   0.9711   1.0094   1.1384   1.3274   1.3775   1.5637
     1.8312   2.0107   2.0145   2.0528   2.2314   2.2927   2.3137   2.3924
     2.4325   2.5508   2.6095   2.8025   2.8362   2.9804   3.0063   3.2094
     3.6213   3.9470

          k = 0.0307-0.0177 0.0000 ( 29219 PWs)   bands (ev):

   -71.7396 -71.6975 -71.2637 -71.2217 -71.1896 -71.1477 -41.8566 -41.7793
   -41.7344 -41.6928 -41.6500 -41.4452 -41.3989 -41.3312 -41.2297 -41.1873
   -41.1796 -41.1510 -41.1379 -41.1087 -41.0817 -41.0415 -40.9908 -40.9240
    -6.6090  -4.8783  -4.7713  -4.7435  -4.6343  -4.4545  -4.3493  -4.2113
    -4.1706  -3.9582  -3.9549  -3.8974  -3.4892  -3.3551  -3.2768  -2.4376
    -2.3236  -2.1158  -1.7547  -1.6768  -1.6192  -1.5582  -1.4424  -1.3273
    -1.2266  -1.2244  -1.1139  -0.8530  -0.8448  -0.7720  -0.6448  -0.6073
    -0.3378  -0.2312  -0.2047   0.3506   0.5566   0.5954   0.7466   0.8741
     0.9140   0.9695   1.0044   1.0183   1.4027   1.7326   1.7343   1.8176
     2.0291   2.1950   2.2198   2.3137   2.3459   2.3852   2.4344   2.5342
     2.6383   2.6693   2.6813   2.6923   3.0554   3.1149   3.1313   3.1941
     3.6829   3.9063

          k = 0.0307 0.0000 0.0000 ( 29212 PWs)   bands (ev):

   -71.7397 -71.6975 -71.2637 -71.2217 -71.1897 -71.1477 -41.8564 -41.7792
   -41.7344 -41.6924 -41.6498 -41.4452 -41.3987 -41.3310 -41.2294 -41.1871
   -41.1795 -41.1508 -41.1378 -41.1086 -41.0816 -41.0415 -40.9907 -40.9240
    -6.6669  -4.9216  -4.8184  -4.7487  -4.7153  -4.4897  -4.3927  -4.2524
    -4.2050  -3.9770  -3.9751  -3.9474  -3.4991  -3.4641  -3.3077  -2.4324
    -2.3371  -2.1150  -1.6883  -1.6781  -1.6451  -1.5806  -1.4438  -1.3360
    -1.2288  -1.1365  -1.1120  -0.9225  -0.8640  -0.7899  -0.6364  -0.5544
    -0.3729  -0.1808  -0.1630   0.4123   0.6456   0.6710   0.8305   0.8620
     0.9059   1.0233   1.0279   1.0687   1.4582   1.8186   1.9073   1.9641
     2.1719   2.1729   2.2427   2.3402   2.3494   2.3801   2.4193   2.5790
     2.6888   2.7184   2.7742   2.9354   3.0795   3.1595   3.1605   3.5604
     3.7152   3.7235

          k = 0.0460 0.0265 0.0000 ( 29249 PWs)   bands (ev):

   -71.7358 -71.7014 -71.2599 -71.2255 -71.1858 -71.1515 -41.8198 -41.7754
   -41.7387 -41.6895 -41.6546 -41.4840 -41.3624 -41.2948 -41.2264 -41.1918
   -41.1759 -41.1475 -41.1418 -41.1130 -41.0782 -41.0454 -41.0292 -40.9624
    -6.3081  -4.6911  -4.5852  -4.4824  -4.4344  -4.2151  -4.1968  -4.0163
    -4.0019  -3.8554  -3.7880  -3.7341  -3.3485  -3.0748  -3.0160  -2.3998
    -2.3437  -2.0881  -2.0053  -1.7550  -1.5897  -1.5016  -1.4445  -1.4029
    -1.3461  -1.3355  -0.9354  -0.8564  -0.8470  -0.7058  -0.6965  -0.6300
    -0.4998  -0.3956  -0.0970   0.0512   0.2050   0.3290   0.4760   0.7251
     0.7368   0.7944   0.8963   0.9250   0.9991   1.0984   1.2015   1.4624
     1.7307   1.8527   1.9425   2.0168   2.0691   2.0987   2.1381   2.4179
     2.4389   2.4958   2.6936   2.7055   2.8056   2.8356   2.9606   3.0290
     3.0466   4.5786

          k = 0.0460 0.0442 0.0000 ( 29260 PWs)   bands (ev):

   -71.7357 -71.7013 -71.2598 -71.2255 -71.1857 -71.1515 -41.8204 -41.7758
   -41.7389 -41.6908 -41.6550 -41.4840 -41.3629 -41.2953 -41.2273 -41.1922
   -41.1761 -41.1482 -41.1419 -41.1133 -41.0784 -41.0455 -41.0292 -40.9624
    -6.0985  -4.6225  -4.4636  -4.3293  -4.2704  -4.0715  -4.0559  -3.8794
    -3.8306  -3.7610  -3.7172  -3.5690  -3.2108  -2.9111  -2.8290  -2.4263
    -2.3168  -2.1443  -2.1025  -1.8953  -1.6598  -1.5736  -1.4719  -1.4238
    -1.2984  -1.2290  -0.8840  -0.8739  -0.8377  -0.7795  -0.7794  -0.6148
    -0.5496  -0.5014  -0.0536   0.0083   0.0330   0.2383   0.2462   0.5320
     0.5681   0.5976   0.6166   0.7340   0.8883   0.9224   0.9457   1.1342
     1.5513   1.5780   1.7044   1.8163   1.9483   1.9700   2.0525   2.2211
     2.4067   2.4489   2.5013   2.5938   2.8458   2.9208   2.9459   2.9937
     3.1714   4.2030

          k = 0.0460 0.0618 0.0000 ( 29243 PWs)   bands (ev):

   -71.7356 -71.7013 -71.2597 -71.2255 -71.1856 -71.1515 -41.8211 -41.7762
   -41.7390 -41.6922 -41.6554 -41.4840 -41.3635 -41.2959 -41.2284 -41.1927
   -41.1764 -41.1489 -41.1420 -41.1137 -41.0786 -41.0456 -41.0292 -40.9624
    -5.8079  -4.4939  -4.3800  -4.1114  -4.0791  -3.8712  -3.8674  -3.6916
    -3.6433  -3.6004  -3.5377  -3.3683  -2.9738  -2.7789  -2.7518  -2.4011
    -2.2785  -2.2163  -2.1686  -2.0355  -1.8068  -1.7060  -1.5440  -1.5123
    -1.1984  -1.1184  -1.0039  -0.9724  -0.9174  -0.8412  -0.8185  -0.7649
    -0.4937  -0.4370  -0.2070  -0.1751  -0.0464  -0.0195   0.0712   0.1920
     0.2826   0.3267   0.4864   0.4940   0.6831   0.8281   0.9292   1.0429
     1.0948   1.2712   1.4712   1.7825   1.8096   1.9638   2.0445   2.1733
     2.3159   2.3832   2.4764   2.5403   2.7691   2.8111   2.8894   3.0293
     3.4437   3.6587

          k = 0.0460 0.0795 0.0000 ( 29262 PWs)   bands (ev):

   -71.7356 -71.7013 -71.2597 -71.2255 -71.1856 -71.1514 -41.8217 -41.7766
   -41.7391 -41.6934 -41.6558 -41.4840 -41.3640 -41.2965 -41.2293 -41.1932
   -41.1766 -41.1495 -41.1421 -41.1140 -41.0789 -41.0457 -41.0292 -40.9624
    -5.4768  -4.3933  -4.3445  -3.8835  -3.8808  -3.6483  -3.6461  -3.4645
    -3.4593  -3.4199  -3.3035  -3.1308  -2.9139  -2.6943  -2.6277  -2.5851
    -2.3259  -2.3033  -2.1413  -2.0556  -1.8371  -1.7619  -1.6423  -1.6196
    -1.2715  -1.1461  -1.1367  -1.0517  -1.0391  -0.9724  -0.8140  -0.7671
    -0.7007  -0.6074  -0.4031  -0.3371  -0.3005  -0.2263  -0.1830  -0.0446
     0.0473   0.3743   0.4063   0.5381   0.6689   0.8288   0.8835   0.8989
     0.9962   1.2147   1.3965   1.6056   1.6639   2.0600   2.0784   2.1390
     2.2538   2.2752   2.3995   2.5287   2.5467   2.7084   2.9299   2.9343
     3.0888   3.1274

          k = 0.0460 0.0971 0.0000 ( 29239 PWs)   bands (ev):

   -71.7355 -71.7013 -71.2597 -71.2255 -71.1856 -71.1514 -41.8220 -41.7768
   -41.7392 -41.6941 -41.6561 -41.4841 -41.3643 -41.2968 -41.2298 -41.1935
   -41.1768 -41.1499 -41.1422 -41.1141 -41.0790 -41.0458 -41.0293 -40.9624
    -5.2007  -4.4882  -4.2396  -3.7394  -3.7272  -3.4580  -3.4501  -3.3662
    -3.2490  -3.2117  -3.1387  -3.0792  -2.8596  -2.7934  -2.7170  -2.6399
    -2.4980  -2.3397  -2.0925  -1.8649  -1.7631  -1.6711  -1.6559  -1.6030
    -1.4688  -1.3884  -1.3330  -1.2210  -1.1636  -1.1605  -0.9279  -0.8357
    -0.6908  -0.5976  -0.5535  -0.4347  -0.4129  -0.3752  -0.3074  -0.1122
    -0.0065   0.3059   0.3503   0.6099   0.7142   0.8336   0.8910   0.9593
     0.9943   1.2304   1.4701   1.5119   1.8397   2.0256   2.0511   2.1249
     2.1543   2.2653   2.2850   2.3910   2.4608   2.4902   2.5862   2.6676
     2.9690   3.1176

          k = 0.0460 0.1148 0.0000 ( 29239 PWs)   bands (ev):

   -71.7355 -71.7013 -71.2597 -71.2255 -71.1856 -71.1514 -41.8220 -41.7768
   -41.7392 -41.6941 -41.6561 -41.4841 -41.3643 -41.2968 -41.2298 -41.1935
   -41.1768 -41.1499 -41.1422 -41.1141 -41.0790 -41.0458 -41.0293 -40.9624
    -5.2007  -4.4882  -4.2396  -3.7394  -3.7272  -3.4580  -3.4501  -3.3662
    -3.2490  -3.2117  -3.1387  -3.0792  -2.8596  -2.7934  -2.7170  -2.6399
    -2.4980  -2.3397  -2.0925  -1.8649  -1.7631  -1.6711  -1.6559  -1.6030
    -1.4688  -1.3884  -1.3330  -1.2210  -1.1636  -1.1605  -0.9279  -0.8357
    -0.6908  -0.5976  -0.5535  -0.4347  -0.4129  -0.3752  -0.3074  -0.1122
    -0.0065   0.3059   0.3503   0.6099   0.7142   0.8336   0.8910   0.9593
     0.9943   1.2304   1.4701   1.5119   1.8397   2.0256   2.0511   2.1249
     2.1543   2.2653   2.2850   2.3910   2.4608   2.4902   2.5862   2.6676
     2.9690   3.1176

          k = 0.0460-0.0795 0.0000 ( 29262 PWs)   bands (ev):

   -71.7356 -71.7013 -71.2597 -71.2255 -71.1856 -71.1514 -41.8217 -41.7766
   -41.7391 -41.6934 -41.6558 -41.4840 -41.3640 -41.2965 -41.2293 -41.1932
   -41.1766 -41.1495 -41.1421 -41.1140 -41.0789 -41.0457 -41.0292 -40.9624
    -5.4768  -4.3933  -4.3445  -3.8835  -3.8808  -3.6483  -3.6461  -3.4645
    -3.4593  -3.4199  -3.3035  -3.1308  -2.9139  -2.6943  -2.6277  -2.5851
    -2.3259  -2.3033  -2.1413  -2.0556  -1.8371  -1.7619  -1.6423  -1.6196
    -1.2715  -1.1461  -1.1367  -1.0517  -1.0391  -0.9724  -0.8140  -0.7671
    -0.7007  -0.6074  -0.4031  -0.3371  -0.3005  -0.2263  -0.1830  -0.0446
     0.0473   0.3743   0.4063   0.5381   0.6689   0.8288   0.8835   0.8989
     0.9962   1.2147   1.3965   1.6056   1.6639   2.0600   2.0784   2.1390
     2.2538   2.2752   2.3995   2.5287   2.5467   2.7084   2.9299   2.9343
     3.0888   3.1274

          k = 0.0460-0.0618 0.0000 ( 29243 PWs)   bands (ev):

   -71.7356 -71.7013 -71.2597 -71.2255 -71.1856 -71.1515 -41.8211 -41.7762
   -41.7390 -41.6922 -41.6554 -41.4840 -41.3635 -41.2959 -41.2284 -41.1927
   -41.1764 -41.1489 -41.1420 -41.1137 -41.0786 -41.0456 -41.0292 -40.9624
    -5.8079  -4.4939  -4.3800  -4.1114  -4.0791  -3.8712  -3.8674  -3.6916
    -3.6433  -3.6004  -3.5377  -3.3683  -2.9738  -2.7789  -2.7518  -2.4011
    -2.2785  -2.2163  -2.1686  -2.0355  -1.8068  -1.7060  -1.5440  -1.5123
    -1.1984  -1.1184  -1.0039  -0.9724  -0.9174  -0.8412  -0.8185  -0.7649
    -0.4937  -0.4370  -0.2070  -0.1751  -0.0464  -0.0195   0.0712   0.1920
     0.2826   0.3267   0.4864   0.4940   0.6831   0.8281   0.9292   1.0429
     1.0948   1.2712   1.4712   1.7825   1.8096   1.9638   2.0445   2.1733
     2.3159   2.3832   2.4764   2.5403   2.7691   2.8111   2.8894   3.0293
     3.4437   3.6587

          k = 0.0460-0.0442 0.0000 ( 29260 PWs)   bands (ev):

   -71.7357 -71.7013 -71.2598 -71.2255 -71.1857 -71.1515 -41.8204 -41.7758
   -41.7389 -41.6908 -41.6550 -41.4840 -41.3629 -41.2953 -41.2273 -41.1922
   -41.1761 -41.1482 -41.1419 -41.1133 -41.0784 -41.0455 -41.0292 -40.9624
    -6.0985  -4.6225  -4.4636  -4.3293  -4.2704  -4.0715  -4.0559  -3.8794
    -3.8306  -3.7610  -3.7172  -3.5690  -3.2108  -2.9111  -2.8290  -2.4263
    -2.3168  -2.1443  -2.1025  -1.8953  -1.6598  -1.5736  -1.4719  -1.4238
    -1.2984  -1.2290  -0.8840  -0.8739  -0.8377  -0.7795  -0.7794  -0.6148
    -0.5496  -0.5014  -0.0536   0.0083   0.0330   0.2383   0.2462   0.5320
     0.5681   0.5976   0.6166   0.7340   0.8883   0.9224   0.9457   1.1342
     1.5513   1.5780   1.7044   1.8163   1.9483   1.9700   2.0525   2.2211
     2.4067   2.4489   2.5013   2.5938   2.8458   2.9208   2.9459   2.9937
     3.1714   4.2030

          k = 0.0460-0.0265 0.0000 ( 29249 PWs)   bands (ev):

   -71.7358 -71.7014 -71.2599 -71.2255 -71.1858 -71.1515 -41.8198 -41.7754
   -41.7387 -41.6895 -41.6546 -41.4840 -41.3624 -41.2948 -41.2264 -41.1918
   -41.1759 -41.1475 -41.1418 -41.1130 -41.0782 -41.0454 -41.0292 -40.9624
    -6.3081  -4.6911  -4.5852  -4.4824  -4.4344  -4.2151  -4.1968  -4.0163
    -4.0019  -3.8554  -3.7880  -3.7341  -3.3485  -3.0748  -3.0160  -2.3998
    -2.3437  -2.0881  -2.0053  -1.7550  -1.5897  -1.5016  -1.4445  -1.4029
    -1.3461  -1.3355  -0.9354  -0.8564  -0.8470  -0.7058  -0.6965  -0.6300
    -0.4998  -0.3956  -0.0970   0.0512   0.2050   0.3290   0.4760   0.7251
     0.7368   0.7944   0.8963   0.9250   0.9991   1.0984   1.2015   1.4624
     1.7307   1.8527   1.9425   2.0168   2.0691   2.0987   2.1381   2.4179
     2.4389   2.4958   2.6936   2.7055   2.8056   2.8356   2.9606   3.0290
     3.0466   4.5787

          k = 0.0460-0.0088 0.0000 ( 29207 PWs)   bands (ev):

   -71.7358 -71.7014 -71.2599 -71.2256 -71.1858 -71.1515 -41.8195 -41.7752
   -41.7387 -41.6888 -41.6544 -41.4840 -41.3621 -41.2945 -41.2259 -41.1915
   -41.1758 -41.1471 -41.1417 -41.1128 -41.0780 -41.0453 -41.0292 -40.9624
    -6.4171  -4.6917  -4.6647  -4.5627  -4.5593  -4.2858  -4.2746  -4.1050
    -4.0619  -3.8900  -3.8362  -3.8221  -3.3708  -3.2716  -3.0716  -2.3729
    -2.3653  -2.0922  -1.9180  -1.6372  -1.6096  -1.5399  -1.4637  -1.4173
    -1.3851  -1.1871  -1.0057  -0.9838  -0.8555  -0.7476  -0.6264  -0.5630
    -0.4461  -0.3163  -0.1630   0.1343   0.3354   0.4135   0.6291   0.7749
     0.7756   0.8930   0.9478   0.9922   1.1547   1.1832   1.3789   1.6865
     1.8150   1.8972   2.1150   2.1183   2.2117   2.2720   2.3198   2.3681
     2.4860   2.5229   2.6159   2.7957   2.8257   2.9769   3.0119   3.2001
     3.6124   3.9601

          k = 0.0460 0.0088 0.0000 ( 29207 PWs)   bands (ev):

   -71.7358 -71.7014 -71.2599 -71.2256 -71.1858 -71.1515 -41.8195 -41.7752
   -41.7387 -41.6888 -41.6544 -41.4840 -41.3621 -41.2945 -41.2259 -41.1915
   -41.1758 -41.1471 -41.1417 -41.1128 -41.0780 -41.0453 -41.0292 -40.9624
    -6.4171  -4.6917  -4.6647  -4.5627  -4.5593  -4.2858  -4.2746  -4.1050
    -4.0619  -3.8900  -3.8362  -3.8221  -3.3708  -3.2716  -3.0716  -2.3729
    -2.3653  -2.0922  -1.9180  -1.6372  -1.6096  -1.5399  -1.4637  -1.4173
    -1.3851  -1.1871  -1.0057  -0.9838  -0.8555  -0.7476  -0.6264  -0.5630
    -0.4461  -0.3163  -0.1630   0.1343   0.3354   0.4135   0.6291   0.7749
     0.7756   0.8930   0.9478   0.9922   1.1547   1.1832   1.3789   1.6866
     1.8150   1.8972   2.1150   2.1183   2.2117   2.2720   2.3198   2.3681
     2.4860   2.5229   2.6159   2.7957   2.8257   2.9769   3.0119   3.2001
     3.6124   3.9600

          k = 0.0613 0.0353 0.0000 ( 29273 PWs)   bands (ev):

   -71.7307 -71.7064 -71.2548 -71.2305 -71.1807 -71.1565 -41.7717 -41.7703
   -41.7443 -41.6851 -41.6604 -41.5342 -41.3146 -41.2471 -41.2219 -41.1974
   -41.1711 -41.1469 -41.1429 -41.1185 -41.0790 -41.0735 -41.0503 -41.0120
    -5.9230  -4.6969  -4.2430  -4.2170  -4.1409  -4.0086  -3.9450  -3.7690
    -3.7504  -3.7169  -3.5810  -3.5336  -3.1663  -2.7599  -2.7272  -2.3663
    -2.3568  -2.2605  -2.0631  -1.9826  -1.7473  -1.7345  -1.4570  -1.4436
    -1.2400  -1.2068  -0.9385  -0.8894  -0.8504  -0.8470  -0.6812  -0.6465
    -0.6057  -0.4125  -0.2733  -0.1264   0.0060   0.1386   0.2543   0.2747
     0.4036   0.4327   0.5330   0.6619   0.7659   0.8625   0.8886   1.2145
     1.4054   1.5098   1.5360   1.7185   1.7634   1.8451   1.8537   2.1348
     2.2130   2.2783   2.4262   2.4755   2.7131   2.8325   3.0138   3.0187
     3.2922   4.9427

          k = 0.0613 0.0530 0.0000 ( 29259 PWs)   bands (ev):

   -71.7306 -71.7064 -71.2548 -71.2305 -71.1807 -71.1565 -41.7722 -41.7706
   -41.7444 -41.6862 -41.6605 -41.5341 -41.3151 -41.2476 -41.2227 -41.1976
   -41.1712 -41.1470 -41.1434 -41.1186 -41.0789 -41.0737 -41.0504 -41.0119
    -5.6907  -4.6835  -4.1320  -4.0668  -4.0254  -3.8770  -3.7863  -3.6466
    -3.6183  -3.5186  -3.5016  -3.3558  -3.0154  -2.7063  -2.6412  -2.4309
    -2.2723  -2.2241  -2.1284  -2.1251  -1.8860  -1.8546  -1.5172  -1.4595
    -1.1307  -1.1250  -1.0525  -0.9304  -0.9219  -0.8439  -0.7489  -0.7133
    -0.5408  -0.3850  -0.3376  -0.2770  -0.1541  -0.0378   0.0086   0.0350
     0.2517   0.2690   0.4681   0.5256   0.6775   0.7899   0.9501   1.0321
     1.0770   1.3301   1.3598   1.6296   1.7495   1.8021   1.8396   1.9876
     2.0973   2.3020   2.3906   2.4347   2.6436   2.7810   2.9543   2.9595
     3.5872   4.3802

          k = 0.0613 0.0707 0.0000 ( 29264 PWs)   bands (ev):

   -71.7306 -71.7064 -71.2547 -71.2305 -71.1806 -71.1565 -41.7728 -41.7709
   -41.7444 -41.6873 -41.6607 -41.5340 -41.3156 -41.2481 -41.2235 -41.1979
   -41.1714 -41.1471 -41.1440 -41.1188 -41.0788 -41.0739 -41.0505 -41.0119
    -5.3948  -4.6335  -4.1103  -3.8765  -3.8566  -3.7089  -3.5897  -3.4769
    -3.4743  -3.3678  -3.3190  -3.1266  -2.8646  -2.7281  -2.6168  -2.5472
    -2.3265  -2.3099  -2.2024  -2.1116  -1.9656  -1.8024  -1.5971  -1.5209
    -1.2929  -1.1098  -1.0894  -1.0662  -1.0057  -0.9406  -0.8277  -0.7611
    -0.6992  -0.5972  -0.4206  -0.3693  -0.3050  -0.2174  -0.1795  -0.0916
     0.0476   0.3172   0.3360   0.6599   0.6829   0.7726   0.8640   0.9466
     1.0208   1.1468   1.4163   1.4692   1.6851   1.9115   1.9667   1.9846
     2.1527   2.2872   2.3564   2.3785   2.5181   2.6883   2.7812   2.7930
     3.6060   3.9489

          k = 0.0613 0.0883 0.0000 ( 29248 PWs)   bands (ev):

   -71.7305 -71.7064 -71.2547 -71.2305 -71.1806 -71.1565 -41.7732 -41.7712
   -41.7444 -41.6881 -41.6608 -41.5340 -41.3159 -41.2485 -41.2241 -41.1981
   -41.1716 -41.1471 -41.1443 -41.1189 -41.0788 -41.0740 -41.0505 -41.0118
    -5.0868  -4.5783  -4.2063  -3.6866  -3.6848  -3.5035  -3.3745  -3.2971
    -3.2962  -3.2308  -3.2113  -3.0779  -2.8370  -2.7731  -2.6581  -2.5924
    -2.4144  -2.3729  -2.2574  -2.1330  -1.8780  -1.6697  -1.5853  -1.5569
    -1.5014  -1.3934  -1.3592  -1.2477  -1.1758  -1.0836  -0.9233  -0.8334
    -0.6433  -0.6247  -0.5287  -0.4719  -0.4339  -0.3608  -0.2337  -0.1591
     0.0327   0.2107   0.4546   0.6258   0.6904   0.8499   0.8921   0.9650
     0.9734   1.3148   1.3983   1.5201   1.8681   1.9786   2.0326   2.1448
     2.1601   2.2649   2.2712   2.3970   2.4198   2.5491   2.5741   2.6166
     2.9786   3.1608

          k = 0.0613 0.1060 0.0000 ( 29252 PWs)   bands (ev):

   -71.7305 -71.7064 -71.2547 -71.2305 -71.1806 -71.1565 -41.7733 -41.7713
   -41.7445 -41.6884 -41.6609 -41.5339 -41.3161 -41.2486 -41.2243 -41.1982
   -41.1716 -41.1472 -41.1445 -41.1190 -41.0788 -41.0740 -41.0505 -41.0118
    -4.9189  -4.5543  -4.3002  -3.6116  -3.5901  -3.3648  -3.2468  -3.2203
    -3.2145  -3.1793  -3.1122  -3.0743  -2.9657  -2.9617  -2.7168  -2.5420
    -2.4278  -2.4174  -2.0424  -1.9920  -1.7747  -1.7523  -1.7136  -1.6749
    -1.6687  -1.5261  -1.5245  -1.3304  -1.1900  -1.1202  -0.8662  -0.7858
    -0.7278  -0.6703  -0.5865  -0.4311  -0.4019  -0.3593  -0.3226  -0.3008
     0.1193   0.1685   0.3601   0.7007   0.8247   0.8322   0.8635   0.9664
     1.1622   1.1975   1.2241   1.9481   1.9952   2.0734   2.0906   2.1314
     2.2431   2.2855   2.3213   2.4096   2.4423   2.4645   2.4875   2.4941
     2.5398   2.5834

          k = 0.0613 0.1236 0.0000 ( 29248 PWs)   bands (ev):

   -71.7305 -71.7064 -71.2547 -71.2305 -71.1806 -71.1565 -41.7732 -41.7712
   -41.7444 -41.6881 -41.6608 -41.5340 -41.3159 -41.2485 -41.2241 -41.1981
   -41.1716 -41.1471 -41.1443 -41.1189 -41.0788 -41.0740 -41.0505 -41.0118
    -5.0868  -4.5783  -4.2063  -3.6866  -3.6848  -3.5035  -3.3745  -3.2971
    -3.2962  -3.2308  -3.2113  -3.0779  -2.8370  -2.7731  -2.6581  -2.5924
    -2.4144  -2.3729  -2.2574  -2.1330  -1.8780  -1.6697  -1.5853  -1.5569
    -1.5014  -1.3934  -1.3592  -1.2477  -1.1758  -1.0836  -0.9233  -0.8334
    -0.6433  -0.6247  -0.5287  -0.4719  -0.4339  -0.3608  -0.2337  -0.1591
     0.0327   0.2107   0.4546   0.6258   0.6904   0.8499   0.8921   0.9650
     0.9734   1.3148   1.3983   1.5201   1.8681   1.9786   2.0326   2.1448
     2.1602   2.2649   2.2712   2.3970   2.4198   2.5491   2.5741   2.6166
     2.9786   3.1608

          k = 0.0613-0.0707 0.0000 ( 29264 PWs)   bands (ev):

   -71.7306 -71.7064 -71.2547 -71.2305 -71.1806 -71.1565 -41.7728 -41.7709
   -41.7444 -41.6873 -41.6607 -41.5340 -41.3156 -41.2481 -41.2235 -41.1979
   -41.1714 -41.1471 -41.1440 -41.1188 -41.0788 -41.0739 -41.0505 -41.0119
    -5.3948  -4.6335  -4.1103  -3.8765  -3.8566  -3.7089  -3.5897  -3.4769
    -3.4744  -3.3678  -3.3190  -3.1266  -2.8646  -2.7281  -2.6168  -2.5472
    -2.3265  -2.3099  -2.2024  -2.1116  -1.9656  -1.8024  -1.5971  -1.5209
    -1.2929  -1.1098  -1.0894  -1.0662  -1.0057  -0.9406  -0.8277  -0.7611
    -0.6992  -0.5972  -0.4206  -0.3693  -0.3050  -0.2174  -0.1794  -0.0916
     0.0476   0.3172   0.3360   0.6599   0.6829   0.7726   0.8640   0.9466
     1.0208   1.1468   1.4163   1.4692   1.6851   1.9115   1.9667   1.9846
     2.1527   2.2872   2.3564   2.3785   2.5181   2.6883   2.7812   2.7930
     3.6060   3.9489

          k = 0.0613-0.0530 0.0000 ( 29259 PWs)   bands (ev):

   -71.7306 -71.7064 -71.2548 -71.2305 -71.1807 -71.1565 -41.7722 -41.7706
   -41.7444 -41.6862 -41.6605 -41.5341 -41.3151 -41.2476 -41.2227 -41.1976
   -41.1712 -41.1470 -41.1434 -41.1186 -41.0789 -41.0737 -41.0504 -41.0119
    -5.6907  -4.6835  -4.1320  -4.0668  -4.0254  -3.8770  -3.7863  -3.6466
    -3.6183  -3.5186  -3.5016  -3.3558  -3.0154  -2.7063  -2.6412  -2.4309
    -2.2723  -2.2241  -2.1284  -2.1251  -1.8860  -1.8546  -1.5172  -1.4595
    -1.1307  -1.1250  -1.0525  -0.9304  -0.9219  -0.8439  -0.7489  -0.7133
    -0.5408  -0.3850  -0.3376  -0.2770  -0.1541  -0.0378   0.0086   0.0350
     0.2517   0.2690   0.4681   0.5256   0.6775   0.7899   0.9501   1.0321
     1.0770   1.3301   1.3598   1.6296   1.7495   1.8021   1.8396   1.9876
     2.0973   2.3020   2.3906   2.4347   2.6436   2.7810   2.9543   2.9595
     3.5872   4.3802

          k = 0.0613-0.0353 0.0000 ( 29273 PWs)   bands (ev):

   -71.7307 -71.7064 -71.2548 -71.2305 -71.1807 -71.1565 -41.7717 -41.7703
   -41.7443 -41.6851 -41.6604 -41.5342 -41.3146 -41.2471 -41.2219 -41.1974
   -41.1711 -41.1469 -41.1429 -41.1185 -41.0790 -41.0735 -41.0503 -41.0120
    -5.9230  -4.6969  -4.2430  -4.2170  -4.1409  -4.0086  -3.9450  -3.7690
    -3.7504  -3.7169  -3.5810  -3.5336  -3.1663  -2.7599  -2.7272  -2.3663
    -2.3568  -2.2605  -2.0631  -1.9826  -1.7473  -1.7345  -1.4570  -1.4436
    -1.2400  -1.2068  -0.9385  -0.8894  -0.8504  -0.8470  -0.6812  -0.6465
    -0.6057  -0.4125  -0.2733  -0.1264   0.0060   0.1386   0.2543   0.2747
     0.4036   0.4327   0.5330   0.6619   0.7659   0.8625   0.8886   1.2145
     1.4054   1.5098   1.5360   1.7185   1.7634   1.8451   1.8537   2.1348
     2.2130   2.2783   2.4262   2.4755   2.7131   2.8325   3.0138   3.0187
     3.2922   4.9427

          k = 0.0613-0.0177 0.0000 ( 29255 PWs)   bands (ev):

   -71.7308 -71.7064 -71.2549 -71.2305 -71.1808 -71.1565 -41.7713 -41.7700
   -41.7443 -41.6842 -41.6602 -41.5343 -41.3142 -41.2467 -41.2213 -41.1971
   -41.1709 -41.1469 -41.1425 -41.1183 -41.0791 -41.0733 -41.0503 -41.0121
    -6.0692  -4.6621  -4.3408  -4.3303  -4.2270  -4.1037  -4.0458  -3.8915
    -3.8369  -3.7719  -3.6710  -3.6204  -3.2092  -2.9666  -2.7925  -2.3966
    -2.3330  -2.1785  -2.0659  -1.8568  -1.6510  -1.6372  -1.4664  -1.4282
    -1.3686  -1.2430  -1.0042  -0.9192  -0.8578  -0.7743  -0.7250  -0.5985
    -0.5797  -0.4485  -0.1386  -0.0316   0.1264   0.1631   0.3214   0.4225
     0.5031   0.6729   0.6993   0.7570   0.8824   0.8844   1.0011   1.1883
     1.4782   1.6358   1.7289   1.8551   1.9094   1.9780   2.0409   2.2554
     2.3531   2.4543   2.4830   2.6106   2.8650   2.9075   2.9504   2.9836
     3.1664   4.1874

          k = 0.0613 0.0000 0.0000 ( 29200 PWs)   bands (ev):

   -71.7308 -71.7064 -71.2549 -71.2305 -71.1808 -71.1565 -41.7711 -41.7699
   -41.7443 -41.6839 -41.6602 -41.5343 -41.3140 -41.2465 -41.2211 -41.1970
   -41.1709 -41.1468 -41.1423 -41.1183 -41.0791 -41.0732 -41.0502 -41.0121
    -6.1190  -4.6213  -4.4140  -4.3601  -4.2610  -4.1370  -4.0794  -3.9346
    -3.8590  -3.7770  -3.7352  -3.6323  -3.1573  -3.1164  -2.8158  -2.4107
    -2.3098  -2.1469  -2.0773  -1.7911  -1.6284  -1.6058  -1.4896  -1.4282
    -1.4033  -1.2060  -1.1130  -0.9162  -0.8897  -0.7518  -0.7422  -0.5700
    -0.5320  -0.4765  -0.0879   0.0069   0.1074   0.2255   0.3883   0.4752
     0.5150   0.7313   0.7324   0.8615   0.8668   0.9276   1.0499   1.1314
     1.4909   1.6437   1.8305   1.9460   1.9788   2.0552   2.2000   2.2780
     2.3031   2.4836   2.4955   2.7646   2.7722   2.8809   3.1573   3.2952
     3.4504   3.7275

          k = 0.0613 0.0177 0.0000 ( 29255 PWs)   bands (ev):

   -71.7308 -71.7064 -71.2549 -71.2305 -71.1808 -71.1565 -41.7713 -41.7700
   -41.7443 -41.6842 -41.6602 -41.5343 -41.3142 -41.2467 -41.2213 -41.1971
   -41.1709 -41.1469 -41.1425 -41.1183 -41.0791 -41.0733 -41.0503 -41.0121
    -6.0692  -4.6621  -4.3408  -4.3303  -4.2270  -4.1037  -4.0458  -3.8915
    -3.8369  -3.7719  -3.6710  -3.6204  -3.2092  -2.9666  -2.7925  -2.3966
    -2.3330  -2.1785  -2.0659  -1.8568  -1.6510  -1.6372  -1.4664  -1.4282
    -1.3686  -1.2430  -1.0042  -0.9192  -0.8578  -0.7743  -0.7250  -0.5985
    -0.5797  -0.4485  -0.1386  -0.0316   0.1264   0.1631   0.3214   0.4225
     0.5031   0.6729   0.6993   0.7570   0.8824   0.8844   1.0011   1.1883
     1.4782   1.6358   1.7289   1.8551   1.9094   1.9780   2.0409   2.2554
     2.3531   2.4543   2.4830   2.6106   2.8650   2.9075   2.9504   2.9836
     3.1664   4.1874

          k = 0.0766 0.0442 0.0000 ( 29280 PWs)   bands (ev):

   -71.7248 -71.7122 -71.2490 -71.2364 -71.1749 -71.1623 -41.7642 -41.7507
   -41.7151 -41.6796 -41.6668 -41.5922 -41.2585 -41.2165 -41.2036 -41.1911
   -41.1654 -41.1528 -41.1378 -41.1359 -41.1246 -41.0698 -41.0676 -41.0560
    -5.4997  -4.8265  -4.0297  -3.9965  -3.8258  -3.7980  -3.7415  -3.6017
    -3.5072  -3.4706  -3.3476  -3.3081  -2.9572  -2.6462  -2.6275  -2.5356
    -2.2173  -2.2027  -2.1499  -2.1354  -2.0070  -1.9498  -1.4761  -1.4180
    -1.1245  -1.0853  -1.0471  -1.0103  -0.9269  -0.8063  -0.7627  -0.7187
    -0.6374  -0.5481  -0.5089  -0.3064  -0.2085  -0.1419  -0.0984  -0.0237
     0.1313   0.2792   0.4505   0.6104   0.6767   0.6790   0.9204   0.9769
     1.0815   1.1003   1.4799   1.4864   1.6447   1.6778   1.7022   1.7352
     1.9225   1.9383   2.4251   2.4374   2.7332   2.7805   3.0294   3.0301
     3.7501   4.6422

          k = 0.0766 0.0618 0.0000 ( 29268 PWs)   bands (ev):

   -71.7248 -71.7122 -71.2490 -71.2364 -71.1749 -71.1623 -41.7644 -41.7507
   -41.7156 -41.6804 -41.6666 -41.5920 -41.2589 -41.2170 -41.2037 -41.1916
   -41.1655 -41.1528 -41.1380 -41.1359 -41.1246 -41.0697 -41.0676 -41.0560
    -5.2740  -4.8932  -3.9468  -3.9059  -3.7786  -3.7264  -3.6378  -3.5002
    -3.4125  -3.3627  -3.2626  -3.1115  -2.8208  -2.7137  -2.6649  -2.6050
    -2.3455  -2.3123  -2.1335  -2.1333  -2.0291  -1.8058  -1.4757  -1.4402
    -1.2847  -1.1023  -1.0625  -0.9834  -0.9810  -0.9094  -0.8664  -0.8363
    -0.5843  -0.5771  -0.4914  -0.4276  -0.3372  -0.2628  -0.2046  -0.1202
     0.0907   0.2851   0.3188   0.6720   0.6896   0.6935   0.8153   0.9831
     1.0151   1.1300   1.3388   1.4824   1.5349   1.6706   1.7436   1.8187
     1.8660   1.9008   2.3733   2.4307   2.6818   2.7256   2.9588   2.9744
     4.0095   4.4952

          k = 0.0766 0.0795 0.0000 ( 29270 PWs)   bands (ev):

   -71.7247 -71.7123 -71.2489 -71.2364 -71.1748 -71.1623 -41.7646 -41.7507
   -41.7160 -41.6811 -41.6665 -41.5918 -41.2593 -41.2175 -41.2037 -41.1919
   -41.1656 -41.1528 -41.1382 -41.1359 -41.1246 -41.0697 -41.0676 -41.0560
    -5.0056  -4.9259  -3.9816  -3.7345  -3.7281  -3.6149  -3.5173  -3.3878
    -3.3280  -3.2924  -3.1608  -2.9775  -2.8411  -2.8379  -2.6354  -2.5816
    -2.4632  -2.4153  -2.2018  -2.0524  -1.9820  -1.6141  -1.5751  -1.4946
    -1.4665  -1.3885  -1.2984  -1.1613  -1.0894  -0.9384  -0.8924  -0.8784
    -0.6003  -0.5463  -0.4948  -0.4645  -0.4488  -0.3752  -0.2074  -0.1219
     0.0914   0.1910   0.5412   0.5809   0.6607   0.7640   0.7947   0.9231
     1.1484   1.1879   1.4653   1.5146   1.5297   1.8413   1.8648   1.8742
     2.0002   2.0156   2.2783   2.3785   2.5818   2.5959   2.7844   2.7884
     3.6626   4.0026

          k = 0.0766 0.0971 0.0000 ( 29252 PWs)   bands (ev):

   -71.7247 -71.7123 -71.2489 -71.2364 -71.1748 -71.1623 -41.7648 -41.7506
   -41.7162 -41.6815 -41.6665 -41.5917 -41.2595 -41.2177 -41.2037 -41.1921
   -41.1657 -41.1528 -41.1383 -41.1359 -41.1246 -41.0697 -41.0676 -41.0560
    -4.9371  -4.7674  -4.1120  -3.6504  -3.5726  -3.5221  -3.3963  -3.3044
    -3.3012  -3.2317  -3.1487  -3.0745  -2.9393  -2.7982  -2.7739  -2.5421
    -2.3671  -2.2561  -2.2024  -2.0930  -1.8889  -1.7347  -1.7232  -1.6716
    -1.5432  -1.5082  -1.4787  -1.2829  -1.1625  -0.9554  -0.8610  -0.8307
    -0.7442  -0.5822  -0.5207  -0.4387  -0.3694  -0.3632  -0.2427  -0.1241
    -0.0184   0.2692   0.4999   0.6367   0.7796   0.7957   0.8358   0.8786
     1.0870   1.2650   1.4525   1.5228   1.8406   2.0064   2.0158   2.0967
     2.2020   2.2035   2.2810   2.4137   2.4513   2.5219   2.5983   2.6060
     2.9870   3.1596

          k = 0.0766 0.1148 0.0000 ( 29252 PWs)   bands (ev):

   -71.7247 -71.7123 -71.2489 -71.2364 -71.1748 -71.1623 -41.7648 -41.7506
   -41.7162 -41.6815 -41.6665 -41.5917 -41.2595 -41.2177 -41.2037 -41.1921
   -41.1657 -41.1528 -41.1383 -41.1359 -41.1246 -41.0697 -41.0676 -41.0560
    -4.9371  -4.7674  -4.1120  -3.6504  -3.5726  -3.5221  -3.3963  -3.3044
    -3.3012  -3.2316  -3.1487  -3.0745  -2.9393  -2.7982  -2.7739  -2.5421
    -2.3671  -2.2561  -2.2024  -2.0930  -1.8889  -1.7347  -1.7232  -1.6716
    -1.5432  -1.5082  -1.4787  -1.2829  -1.1625  -0.9554  -0.8610  -0.8307
    -0.7442  -0.5822  -0.5207  -0.4387  -0.3694  -0.3632  -0.2427  -0.1241
    -0.0184   0.2692   0.4999   0.6367   0.7796   0.7957   0.8358   0.8786
     1.0870   1.2650   1.4525   1.5228   1.8406   2.0064   2.0158   2.0967
     2.2020   2.2035   2.2810   2.4137   2.4513   2.5219   2.5983   2.6060
     2.9870   3.1596

          k = 0.0766 0.1325 0.0000 ( 29270 PWs)   bands (ev):

   -71.7247 -71.7123 -71.2489 -71.2364 -71.1748 -71.1623 -41.7646 -41.7507
   -41.7160 -41.6811 -41.6665 -41.5918 -41.2593 -41.2175 -41.2037 -41.1919
   -41.1656 -41.1528 -41.1382 -41.1359 -41.1246 -41.0697 -41.0676 -41.0560
    -5.0056  -4.9259  -3.9816  -3.7345  -3.7281  -3.6149  -3.5173  -3.3878
    -3.3280  -3.2924  -3.1608  -2.9775  -2.8411  -2.8379  -2.6354  -2.5816
    -2.4632  -2.4153  -2.2018  -2.0524  -1.9820  -1.6141  -1.5751  -1.4946
    -1.4665  -1.3885  -1.2984  -1.1613  -1.0894  -0.9384  -0.8924  -0.8784
    -0.6003  -0.5463  -0.4948  -0.4645  -0.4488  -0.3752  -0.2074  -0.1219
     0.0914   0.1910   0.5412   0.5809   0.6607   0.7640   0.7947   0.9231
     1.1484   1.1879   1.4653   1.5146   1.5297   1.8413   1.8648   1.8742
     2.0002   2.0156   2.2783   2.3785   2.5818   2.5959   2.7844   2.7884
     3.6626   4.0026

          k = 0.0766-0.0618 0.0000 ( 29268 PWs)   bands (ev):

   -71.7248 -71.7122 -71.2490 -71.2364 -71.1749 -71.1623 -41.7644 -41.7507
   -41.7156 -41.6804 -41.6666 -41.5920 -41.2589 -41.2170 -41.2037 -41.1916
   -41.1655 -41.1528 -41.1380 -41.1359 -41.1246 -41.0697 -41.0676 -41.0560
    -5.2740  -4.8932  -3.9468  -3.9059  -3.7786  -3.7264  -3.6378  -3.5002
    -3.4125  -3.3627  -3.2626  -3.1115  -2.8208  -2.7137  -2.6649  -2.6050
    -2.3455  -2.3123  -2.1335  -2.1333  -2.0291  -1.8058  -1.4757  -1.4402
    -1.2847  -1.1023  -1.0625  -0.9834  -0.9810  -0.9094  -0.8664  -0.8363
    -0.5843  -0.5771  -0.4914  -0.4276  -0.3372  -0.2628  -0.2046  -0.1202
     0.0907   0.2851   0.3188   0.6720   0.6896   0.6935   0.8153   0.9831
     1.0151   1.1300   1.3388   1.4824   1.5349   1.6706   1.7436   1.8187
     1.8660   1.9008   2.3733   2.4307   2.6818   2.7256   2.9588   2.9744
     4.0094   4.4951

          k = 0.0766-0.0442 0.0000 ( 29280 PWs)   bands (ev):

   -71.7248 -71.7122 -71.2490 -71.2364 -71.1749 -71.1623 -41.7642 -41.7507
   -41.7151 -41.6796 -41.6668 -41.5922 -41.2585 -41.2165 -41.2036 -41.1911
   -41.1654 -41.1528 -41.1378 -41.1359 -41.1246 -41.0698 -41.0676 -41.0560
    -5.4997  -4.8265  -4.0297  -3.9965  -3.8258  -3.7980  -3.7415  -3.6017
    -3.5072  -3.4706  -3.3476  -3.3082  -2.9572  -2.6462  -2.6275  -2.5356
    -2.2173  -2.2027  -2.1499  -2.1354  -2.0070  -1.9498  -1.4761  -1.4180
    -1.1245  -1.0853  -1.0471  -1.0103  -0.9269  -0.8063  -0.7627  -0.7187
    -0.6374  -0.5481  -0.5089  -0.3064  -0.2085  -0.1419  -0.0984  -0.0237
     0.1313   0.2792   0.4505   0.6104   0.6767   0.6790   0.9204   0.9769
     1.0815   1.1003   1.4799   1.4864   1.6447   1.6778   1.7022   1.7352
     1.9225   1.9383   2.4251   2.4374   2.7332   2.7805   3.0294   3.0301
     3.7501   4.6422

          k = 0.0766-0.0265 0.0000 ( 29275 PWs)   bands (ev):

   -71.7249 -71.7122 -71.2490 -71.2364 -71.1749 -71.1623 -41.7639 -41.7508
   -41.7147 -41.6789 -41.6669 -41.5924 -41.2581 -41.2160 -41.2036 -41.1907
   -41.1653 -41.1528 -41.1376 -41.1360 -41.1246 -41.0699 -41.0676 -41.0560
    -5.6583  -4.7220  -4.1199  -4.0247  -3.9090  -3.8538  -3.8214  -3.6802
    -3.5910  -3.5566  -3.4677  -3.3947  -3.0112  -2.6962  -2.6728  -2.4417
    -2.2784  -2.2181  -2.1080  -2.1046  -1.8938  -1.8734  -1.5065  -1.4906
    -1.1845  -1.0794  -1.0545  -1.0046  -0.9330  -0.9284  -0.7909  -0.7597
    -0.5150  -0.5150  -0.3924  -0.3446  -0.1338  -0.0440   0.1641   0.1670
     0.2767   0.3314   0.5312   0.5815   0.5963   0.7375   0.9193   1.0942
     1.1156   1.2550   1.4488   1.5944   1.7183   1.7954   1.8523   1.9949
     2.1033   2.2669   2.3580   2.4751   2.6558   2.7765   2.9508   2.9605
     3.5881   4.3217

          k = 0.0766-0.0088 0.0000 ( 29256 PWs)   bands (ev):

   -71.7249 -71.7122 -71.2491 -71.2363 -71.1750 -71.1623 -41.7638 -41.7508
   -41.7145 -41.6784 -41.6670 -41.5925 -41.2579 -41.2157 -41.2036 -41.1905
   -41.1652 -41.1528 -41.1375 -41.1359 -41.1246 -41.0699 -41.0676 -41.0560
    -5.7395  -4.6095  -4.2154  -4.0174  -3.9549  -3.9175  -3.8623  -3.7232
    -3.6402  -3.5774  -3.5738  -3.4105  -2.9639  -2.8144  -2.7477  -2.3977
    -2.3119  -2.2560  -2.0850  -2.0050  -1.7967  -1.7792  -1.5990  -1.5624
    -1.2651  -1.1067  -1.0586  -1.0506  -1.0113  -0.9398  -0.8134  -0.6911
    -0.5405  -0.4567  -0.4212  -0.3207  -0.0676   0.1363   0.2442   0.2707
     0.3567   0.3926   0.5042   0.6034   0.6834   0.7625   0.8674   1.0829
     1.1139   1.2559   1.5384   1.7163   1.8261   1.9508   2.0564   2.2001
     2.2498   2.3885   2.5022   2.5298   2.7575   2.8125   2.8797   3.0395
     3.5398   3.5479

          k = 0.0766 0.0088 0.0000 ( 29256 PWs)   bands (ev):

   -71.7249 -71.7122 -71.2491 -71.2363 -71.1750 -71.1623 -41.7638 -41.7508
   -41.7145 -41.6784 -41.6670 -41.5925 -41.2579 -41.2157 -41.2036 -41.1905
   -41.1652 -41.1528 -41.1375 -41.1359 -41.1246 -41.0699 -41.0676 -41.0560
    -5.7395  -4.6095  -4.2154  -4.0174  -3.9549  -3.9175  -3.8623  -3.7232
    -3.6402  -3.5774  -3.5738  -3.4105  -2.9639  -2.8144  -2.7477  -2.3977
    -2.3119  -2.2560  -2.0850  -2.0050  -1.7967  -1.7792  -1.5990  -1.5624
    -1.2651  -1.1067  -1.0586  -1.0506  -1.0113  -0.9398  -0.8134  -0.6911
    -0.5405  -0.4567  -0.4212  -0.3207  -0.0676   0.1363   0.2442   0.2707
     0.3567   0.3926   0.5042   0.6034   0.6834   0.7625   0.8674   1.0829
     1.1139   1.2559   1.5384   1.7163   1.8261   1.9508   2.0564   2.2001
     2.2498   2.3885   2.5022   2.5298   2.7575   2.8125   2.8797   3.0395
     3.5398   3.5479

          k = 0.0766 0.0265 0.0000 ( 29275 PWs)   bands (ev):

   -71.7249 -71.7122 -71.2490 -71.2364 -71.1749 -71.1623 -41.7639 -41.7508
   -41.7147 -41.6789 -41.6669 -41.5924 -41.2581 -41.2160 -41.2036 -41.1907
   -41.1653 -41.1528 -41.1376 -41.1360 -41.1246 -41.0699 -41.0676 -41.0560
    -5.6583  -4.7220  -4.1199  -4.0247  -3.9090  -3.8538  -3.8214  -3.6802
    -3.5910  -3.5566  -3.4677  -3.3947  -3.0112  -2.6962  -2.6728  -2.4417
    -2.2784  -2.2181  -2.1080  -2.1046  -1.8938  -1.8734  -1.5065  -1.4906
    -1.1845  -1.0794  -1.0545  -1.0046  -0.9330  -0.9284  -0.7909  -0.7597
    -0.5150  -0.5150  -0.3924  -0.3446  -0.1338  -0.0440   0.1641   0.1670
     0.2767   0.3314   0.5312   0.5815   0.5963   0.7375   0.9193   1.0942
     1.1156   1.2550   1.4488   1.5944   1.7183   1.7954   1.8523   1.9949
     2.1033   2.2669   2.3580   2.4751   2.6557   2.7765   2.9508   2.9605
     3.5881   4.3217

          k =-0.0920-0.0530 0.0000 ( 29286 PWs)   bands (ev):

   -71.7186 -71.7184 -71.2434 -71.2419 -71.1691 -71.1681 -41.7576 -41.7574
   -41.6736 -41.6734 -41.6539 -41.6537 -41.2111 -41.2098 -41.1982 -41.1969
   -41.1596 -41.1587 -41.1328 -41.1323 -41.1293 -41.1287 -41.0624 -41.0617
    -5.1080  -5.1079  -3.9316  -3.9314  -3.7160  -3.7159  -3.5829  -3.5828
    -3.3881  -3.3880  -3.1440  -3.1439  -2.7515  -2.7515  -2.6764  -2.6763
    -2.3432  -2.3431  -2.1622  -2.1622  -1.8559  -1.8559  -1.3886  -1.3885
    -1.1971  -1.1970  -1.0341  -1.0340  -0.9449  -0.9448  -0.8719  -0.8719
    -0.5698  -0.5696  -0.4508  -0.4506  -0.3112  -0.3109  -0.2004  -0.2003
     0.2013   0.2014   0.4765   0.4765   0.6757   0.6758   0.8865   0.8865
     1.1247   1.1252   1.2744   1.2745   1.6048   1.6050   1.7041   1.7042
     1.7588   1.7592   2.4288   2.4289   2.7537   2.7539   3.0367   3.0367
     4.2068   4.2068

          k =-0.0920-0.0353 0.0000 ( 29252 PWs)   bands (ev):

   -71.7186 -71.7184 -71.2434 -71.2419 -71.1691 -71.1681 -41.7577 -41.7573
   -41.6739 -41.6730 -41.6542 -41.6535 -41.2111 -41.2097 -41.1983 -41.1968
   -41.1596 -41.1586 -41.1327 -41.1323 -41.1293 -41.1288 -41.0624 -41.0617
    -5.2408  -4.9279  -3.9636  -3.8719  -3.7611  -3.6895  -3.5963  -3.5554
    -3.4046  -3.3815  -3.2148  -3.1353  -2.8082  -2.7372  -2.7040  -2.6343
    -2.3407  -2.2830  -2.1530  -2.1174  -1.9583  -1.8204  -1.4714  -1.4144
    -1.2341  -1.2088  -1.1426  -1.0528  -0.9616  -0.9567  -0.9061  -0.8949
    -0.6932  -0.4523  -0.4474  -0.3843  -0.3222  -0.2378  -0.2038  -0.0737
     0.0198   0.3940   0.4171   0.5590   0.6392   0.7325   0.8762   0.9319
     0.9919   1.1917   1.3161   1.5055   1.5670   1.5875   1.7401   1.8216
     1.8657   1.9136   2.3662   2.4363   2.6902   2.7198   2.9581   2.9743
     4.0363   4.3100

          k =-0.0920-0.0177 0.0000 ( 29250 PWs)   bands (ev):

   -71.7186 -71.7184 -71.2434 -71.2419 -71.1691 -71.1681 -41.7578 -41.7572
   -41.6742 -41.6726 -41.6545 -41.6533 -41.2111 -41.2095 -41.1985 -41.1968
   -41.1596 -41.1586 -41.1326 -41.1322 -41.1294 -41.1290 -41.0624 -41.0617
    -5.3204  -4.7272  -4.0394  -3.7835  -3.7800  -3.6810  -3.5767  -3.5515
    -3.4489  -3.3547  -3.3355  -3.1449  -2.8445  -2.7561  -2.7044  -2.5994
    -2.3137  -2.2501  -2.1218  -2.0860  -1.9794  -1.7994  -1.6042  -1.5915
    -1.3148  -1.2573  -1.1552  -1.1540  -1.0453  -1.0270  -0.9433  -0.8457
    -0.7680  -0.4357  -0.3866  -0.3737  -0.2150  -0.2065  -0.1179  -0.0425
     0.0453   0.4096   0.5187   0.6103   0.6316   0.7808   0.8774   0.8978
     0.9597   1.2417   1.4233   1.4989   1.6076   1.9201   1.9577   1.9863
     2.1600   2.2630   2.2976   2.4337   2.5394   2.6786   2.7851   2.7889
     3.6395   3.9770

          k =-0.0920-0.0000 0.0000 ( 29262 PWs)   bands (ev):

   -71.7186 -71.7184 -71.2434 -71.2419 -71.1691 -71.1681 -41.7578 -41.7572
   -41.6743 -41.6724 -41.6546 -41.6533 -41.2111 -41.2095 -41.1986 -41.1968
   -41.1596 -41.1586 -41.1325 -41.1321 -41.1294 -41.1291 -41.0624 -41.0617
    -5.3468  -4.6118  -4.1197  -3.7755  -3.7181  -3.6786  -3.5751  -3.5404
    -3.4851  -3.4049  -3.3299  -3.1511  -2.8983  -2.7039  -2.6696  -2.6138
    -2.4041  -2.1707  -2.1489  -2.0536  -1.8606  -1.7822  -1.7349  -1.7277
    -1.3418  -1.2913  -1.1809  -1.1563  -1.0998  -1.0490  -0.9566  -0.8011
    -0.7851  -0.4862  -0.3612  -0.3597  -0.1962  -0.1763  -0.0804  -0.0340
     0.0887   0.4719   0.5795   0.6011   0.6073   0.8069   0.8279   0.8579
     0.9543   1.3048   1.4776   1.5182   1.6397   2.0305   2.1064   2.1495
     2.1996   2.2685   2.4368   2.5281   2.5444   2.6791   2.8669   2.9925
     3.0715   3.1800

          k =-0.0920 0.0177 0.0000 ( 29250 PWs)   bands (ev):

   -71.7186 -71.7184 -71.2434 -71.2419 -71.1691 -71.1681 -41.7578 -41.7572
   -41.6742 -41.6726 -41.6545 -41.6533 -41.2111 -41.2095 -41.1985 -41.1968
   -41.1596 -41.1586 -41.1326 -41.1322 -41.1294 -41.1290 -41.0624 -41.0617
    -5.3204  -4.7272  -4.0394  -3.7835  -3.7800  -3.6810  -3.5767  -3.5515
    -3.4489  -3.3547  -3.3355  -3.1449  -2.8445  -2.7561  -2.7044  -2.5994
    -2.3137  -2.2501  -2.1218  -2.0860  -1.9794  -1.7994  -1.6042  -1.5915
    -1.3148  -1.2573  -1.1552  -1.1540  -1.0453  -1.0270  -0.9433  -0.8457
    -0.7680  -0.4357  -0.3866  -0.3737  -0.2150  -0.2065  -0.1179  -0.0425
     0.0453   0.4096   0.5187   0.6103   0.6316   0.7808   0.8774   0.8978
     0.9597   1.2417   1.4233   1.4989   1.6076   1.9201   1.9577   1.9863
     2.1600   2.2630   2.2976   2.4337   2.5394   2.6786   2.7851   2.7889
     3.6395   3.9770

          k =-0.0920 0.0353 0.0000 ( 29252 PWs)   bands (ev):

   -71.7186 -71.7184 -71.2434 -71.2419 -71.1691 -71.1681 -41.7577 -41.7573
   -41.6739 -41.6730 -41.6542 -41.6535 -41.2111 -41.2097 -41.1983 -41.1968
   -41.1596 -41.1586 -41.1327 -41.1323 -41.1293 -41.1288 -41.0624 -41.0617
    -5.2408  -4.9279  -3.9636  -3.8719  -3.7611  -3.6895  -3.5963  -3.5554
    -3.4046  -3.3815  -3.2148  -3.1353  -2.8082  -2.7372  -2.7040  -2.6343
    -2.3407  -2.2830  -2.1530  -2.1174  -1.9583  -1.8204  -1.4714  -1.4144
    -1.2341  -1.2088  -1.1426  -1.0528  -0.9616  -0.9567  -0.9061  -0.8949
    -0.6932  -0.4523  -0.4474  -0.3843  -0.3222  -0.2378  -0.2038  -0.0737
     0.0198   0.3940   0.4171   0.5590   0.6392   0.7325   0.8762   0.9319
     0.9919   1.1917   1.3161   1.5055   1.5670   1.5875   1.7401   1.8216
     1.8657   1.9136   2.3662   2.4363   2.6902   2.7198   2.9581   2.9743
     4.0363   4.3098

          k =-0.0920-0.1590 0.0000 ( 29286 PWs)   bands (ev):

   -71.7186 -71.7184 -71.2434 -71.2419 -71.1691 -71.1681 -41.7576 -41.7574
   -41.6736 -41.6734 -41.6539 -41.6537 -41.2111 -41.2098 -41.1982 -41.1969
   -41.1596 -41.1587 -41.1328 -41.1323 -41.1293 -41.1287 -41.0624 -41.0617
    -5.1080  -5.1079  -3.9316  -3.9314  -3.7160  -3.7159  -3.5829  -3.5828
    -3.3881  -3.3880  -3.1440  -3.1439  -2.7515  -2.7515  -2.6764  -2.6763
    -2.3432  -2.3431  -2.1622  -2.1622  -1.8559  -1.8559  -1.3886  -1.3885
    -1.1971  -1.1970  -1.0341  -1.0340  -0.9449  -0.9448  -0.8719  -0.8719
    -0.5698  -0.5696  -0.4508  -0.4506  -0.3112  -0.3109  -0.2004  -0.2003
     0.2013   0.2014   0.4765   0.4765   0.6757   0.6758   0.8865   0.8865
     1.1247   1.1252   1.2744   1.2745   1.6048   1.6050   1.7041   1.7042
     1.7588   1.7592   2.4288   2.4289   2.7537   2.7539   3.0367   3.0367
     4.2068   4.2068

     the Fermi energy is     1.7042 ev

!    total energy              =   -1566.66230206 Ry
     estimated scf accuracy    <       0.00000901 Ry
     smearing contrib. (-TS)   =      -0.06834596 Ry
     internal energy E=F+TS    =   -1566.59395611 Ry

     The total energy is F=E-TS. E is the sum of the following terms:
     one-electron contribution =  -13238.21251843 Ry
     hartree contribution      =    6651.59238641 Ry
     xc contribution           =    -374.98388713 Ry
     ewald contribution        =    5395.01006263 Ry
     electric field correction =       0.00000041 Ry

     convergence has been achieved in  14 iterations

     negative rho (up, down):  1.269E-03 0.000E+00

     Forces acting on atoms (cartesian axes, Ry/au):

     atom    1 type  1   force =    -0.00000078    0.00718986    0.01621162
     atom    2 type  1   force =    -0.00000015    0.00720628    0.01626894
     atom    3 type  2   force =    -0.00001185   -0.00931449    0.02137738
     atom    4 type  2   force =     0.00001104   -0.00931332    0.02137616
     atom    5 type  1   force =     0.00000152    0.00116728   -0.02233390
     atom    6 type  1   force =    -0.00000038    0.00097111   -0.02251819
     atom    7 type  2   force =     0.00010111   -0.00051491   -0.02054822
     atom    8 type  2   force =    -0.00010359   -0.00051028   -0.02054564
     atom    9 type  1   force =     0.00000469    0.00022706    0.00057666
     atom   10 type  1   force =    -0.00000508    0.00023401    0.00063771
     atom   11 type  2   force =     0.00000923    0.00132854    0.00474856
     atom   12 type  2   force =    -0.00000576    0.00132887    0.00474892

     Total force =     0.060176     Total SCF correction =     0.017386
     SCF correction compared to forces is large: reduce conv_thr to get better values

     Writing output data file ./Ru2Ir2/Ru2Ir2_beef.save/

     init_run     :     84.42s CPU     84.94s WALL (       1 calls)
     electrons    :   2766.80s CPU   2779.50s WALL (       1 calls)
     forces       :     57.63s CPU     57.88s WALL (       1 calls)

     Called by init_run:
     wfcinit      :     73.24s CPU     73.52s WALL (       1 calls)
     potinit      :      7.72s CPU      7.80s WALL (       1 calls)
     hinit0       :      1.86s CPU      1.87s WALL (       1 calls)

     Called by electrons:
     c_bands      :   2460.84s CPU   2468.00s WALL (      14 calls)
     sum_band     :    277.09s CPU    279.85s WALL (      14 calls)
     v_of_rho     :     21.27s CPU     22.29s WALL (      15 calls)
     newd         :     14.31s CPU     16.15s WALL (      15 calls)
     mix_rho      :      0.59s CPU      0.59s WALL (      14 calls)
     vdW_kernel   :      5.69s CPU      5.71s WALL (       1 calls)

     Called by c_bands:
     init_us_2    :     10.05s CPU     10.13s WALL (    2220 calls)
     cegterg      :   2438.44s CPU   2444.39s WALL (    1036 calls)

     Called by *egterg:
     cdiaghg      :    103.46s CPU    103.51s WALL (    4494 calls)
     h_psi        :   1236.27s CPU   1241.61s WALL (    4568 calls)
     s_psi        :    433.39s CPU    433.51s WALL (    4568 calls)
     g_psi        :      0.89s CPU      0.90s WALL (    3458 calls)

     Called by h_psi:
     h_psi:calbec :    427.46s CPU    428.13s WALL (    4568 calls)
     vloc_psi     :    367.40s CPU    371.90s WALL (    4568 calls)
     add_vuspsi   :    436.83s CPU    436.94s WALL (    4568 calls)

     General routines
     calbec       :    649.73s CPU    650.70s WALL (    5900 calls)
     fft          :     11.69s CPU     12.04s WALL (    1004 calls)
     ffts         :      0.05s CPU      0.05s WALL (      29 calls)
     fftw         :    420.68s CPU    425.71s WALL (  561998 calls)
     interpolate  :      0.23s CPU      0.24s WALL (      15 calls)

     Parallel routines
     fft_scatt_xy :     34.63s CPU     35.00s WALL (  563031 calls)
     fft_scatt_yz :     74.67s CPU     75.98s WALL (  563031 calls)

     PWSCF        :  48m38.11s CPU  49m 6.79s WALL


   This run was terminated on:  18:29:43  24Jun2022            

=------------------------------------------------------------------------------=
   JOB DONE.
=------------------------------------------------------------------------------=
