
     Program PWSCF v.6.6 starts on 10Jul2022 at 23: 1: 5 

     This program is part of the open-source Quantum ESPRESSO suite
     for quantum simulation of materials; please cite
         "P. Giannozzi et al., J. Phys.:Condens. Matter 21 395502 (2009);
         "P. Giannozzi et al., J. Phys.:Condens. Matter 29 465901 (2017);
          URL http://www.quantum-espresso.org", 
     in publications or presentations arising from this work. More details at
     http://www.quantum-espresso.org/quote

     Parallel version (MPI), running on    37 processors

     MPI processes distributed on     1 nodes
     R & G space division:  proc/nbgrp/npool/nimage =      37
     Fft bands division:     nmany     =       1
     Reading input from Ru2Os2.in
Warning: card &CELL ignored
Warning: card / ignored

     Current dimensions of program PWSCF are:
     Max number of different atomic species (ntypx) = 10
     Max number of k-points (npk) =  40000
     Max angular momentum in pseudopotentials (lmaxx) =  3
     Presently stress not available with electric field and gates

     Message from routine cell_base_init:
     DEPRECATED: use true lattice parameter, not A to a.u. conversion factor

     **************************************************************************
     Initializing libbeef V0.1.2 with the BEEF-vdW functional.
     Citation: Wellendorff et al., PRB 85, 235149 (2012).
     **************************************************************************


     IMPORTANT: XC functional enforced from input :
     Exchange-correlation= BEEF-VDW
                           (   1   4  43  14   2   0   0)
     Any further DFT definition will be discarded
     Please, verify this is what you really want


     Subspace diagonalization in iterative solution of the eigenvalue problem:
     a serial algorithm will be used

     Found symmetry operation: I + ( -0.5000  0.0000  0.0000)
     This is a supercell, fractional translations are disabled

     Parallelization info
     --------------------
     sticks:   dense  smooth     PW     G-vecs:    dense   smooth      PW
     Min         108      43     12                24864     6285     992
     Max         109      44     14                24877     6295    1003
     Sum        4021    1607    475               920253   232733   36885



     bravais-lattice index     =            0
     lattice parameter (alat)  =       1.8897  a.u.
     unit-cell volume          =    4209.7258 (a.u.)^3
     number of atoms/cell      =           12
     number of atomic types    =            2
     number of electrons       =       192.00
     number of Kohn-Sham states=          115
     kinetic-energy cutoff     =      55.1240  Ry
     charge density cutoff     =     551.2396  Ry
     convergence threshold     =      1.0E-05
     mixing beta               =       0.1000
     number of iterations used =           10  plain     mixing
     Exchange-correlation= BEEF-VDW
                           (   1   4  43  14   2   0   0)

     celldm(1)=   1.889726  celldm(2)=   0.000000  celldm(3)=   0.000000
     celldm(4)=   0.000000  celldm(5)=   0.000000  celldm(6)=   0.000000

     crystal axes: (cart. coord. in units of alat)
               a(1) = (   5.425733   0.000000   0.000000 )  
               a(2) = (  -2.712867   4.705621   0.000000 )  
               a(3) = (   0.000000   0.000000  24.433289 )  

     reciprocal axes: (cart. coord. in units 2 pi/alat)
               b(1) = (  0.184307  0.106256 -0.000000 )  
               b(2) = (  0.000000  0.212512  0.000000 )  
               b(3) = (  0.000000 -0.000000  0.040928 )  


     PseudoPot. # 1 for Ru read from file:
     ../pseudo/Ru.pbe-spn-rrkjus_psl.1.0.0.UPF
     MD5 check sum: fbaca725316a1a65f98761fd4ac95971
     Pseudo is Ultrasoft + core correction, Zval = 16.0
     Generated using "atomic" code by A. Dal Corso v.6.2.2
     Using radial grid of 1233 points,  6 beta functions with: 
                l(1) =   0
                l(2) =   0
                l(3) =   1
                l(4) =   1
                l(5) =   2
                l(6) =   2
     Q(r) pseudized with 0 coefficients 


     PseudoPot. # 2 for Os read from file:
     ../pseudo/Os.pbe-spn-rrkjus_psl.1.0.0.UPF
     MD5 check sum: 3e7416ed594f6513d36e5cb31ba709d9
     Pseudo is Ultrasoft + core correction, Zval = 16.0
     Generated using "atomic" code by A. Dal Corso v.6.2.2
     Using radial grid of 1275 points,  6 beta functions with: 
                l(1) =   0
                l(2) =   0
                l(3) =   1
                l(4) =   1
                l(5) =   2
                l(6) =   2
     Q(r) pseudized with 0 coefficients 


     atomic species   valence    mass     pseudopotential
        Ru            16.00   101.07000     Ru( 1.00)
        Os            16.00   190.23000     Os( 1.00)

     No symmetry found



   Cartesian axes

     site n.     atom                  positions (alat units)
         1           Ru  tau(   1) = (   0.0000000   0.0000000  10.0000000  )
         2           Ru  tau(   2) = (   2.7128667   0.0000000  10.0000000  )
         3           Os  tau(   3) = (   1.3564333   2.3528104  10.0000000  )
         4           Os  tau(   4) = (  -1.3564333   2.3528104  10.0000000  )
         5           Ru  tau(   5) = (   2.7128667   1.5640116  12.2166446  )
         6           Ru  tau(   6) = (  -0.0000000   1.5640116  12.2166446  )
         7           Os  tau(   7) = (  -1.3564333   3.9168221  12.2166446  )
         8           Os  tau(   8) = (   1.3564333   3.9168221  12.2166446  )
         9           Ru  tau(   9) = (  -0.0000005   3.1466236  14.3399804  )
        10           Ru  tau(  10) = (   2.7128660   3.1466250  14.3399803  )
        11           Os  tau(  11) = (   4.0692975   0.7587100  14.3300035  )
        12           Os  tau(  12) = (   1.3564276   0.7587075  14.3300050  )

     number of k points=    74  Fermi-Dirac smearing, width (Ry)=  0.0100
                       cart. coord. in units 2pi/alat
        k(    1) = (   0.0000000   0.0000000   0.0000000), wk =   0.0138889
        k(    2) = (   0.0000000   0.0177093   0.0000000), wk =   0.0277778
        k(    3) = (   0.0000000   0.0354186   0.0000000), wk =   0.0277778
        k(    4) = (   0.0000000   0.0531280   0.0000000), wk =   0.0277778
        k(    5) = (   0.0000000   0.0708373   0.0000000), wk =   0.0277778
        k(    6) = (   0.0000000   0.0885466   0.0000000), wk =   0.0277778
        k(    7) = (   0.0000000  -0.1062559   0.0000000), wk =   0.0138889
        k(    8) = (   0.0153589   0.0088547   0.0000000), wk =   0.0277778
        k(    9) = (   0.0153589   0.0265640   0.0000000), wk =   0.0277778
        k(   10) = (   0.0153589   0.0442733   0.0000000), wk =   0.0277778
        k(   11) = (   0.0153589   0.0619826   0.0000000), wk =   0.0277778
        k(   12) = (   0.0153589   0.0796919   0.0000000), wk =   0.0277778
        k(   13) = (   0.0153589   0.0974012   0.0000000), wk =   0.0277778
        k(   14) = (   0.0153589  -0.0974012   0.0000000), wk =   0.0277778
        k(   15) = (   0.0153589  -0.0796919   0.0000000), wk =   0.0277778
        k(   16) = (   0.0153589  -0.0619826   0.0000000), wk =   0.0277778
        k(   17) = (   0.0153589  -0.0442733   0.0000000), wk =   0.0277778
        k(   18) = (   0.0153589  -0.0265640   0.0000000), wk =   0.0277778
        k(   19) = (   0.0153589  -0.0088547   0.0000000), wk =   0.0277778
        k(   20) = (   0.0307178   0.0177093   0.0000000), wk =   0.0277778
        k(   21) = (   0.0307178   0.0354186   0.0000000), wk =   0.0277778
        k(   22) = (   0.0307178   0.0531280   0.0000000), wk =   0.0277778
        k(   23) = (   0.0307178   0.0708373   0.0000000), wk =   0.0277778
        k(   24) = (   0.0307178   0.0885466   0.0000000), wk =   0.0277778
        k(   25) = (   0.0307178   0.1062559   0.0000000), wk =   0.0277778
        k(   26) = (   0.0307178  -0.0885466   0.0000000), wk =   0.0277778
        k(   27) = (   0.0307178  -0.0708373   0.0000000), wk =   0.0277778
        k(   28) = (   0.0307178  -0.0531279   0.0000000), wk =   0.0277778
        k(   29) = (   0.0307178  -0.0354186   0.0000000), wk =   0.0277778
        k(   30) = (   0.0307178  -0.0177093   0.0000000), wk =   0.0277778
        k(   31) = (   0.0307178   0.0000000   0.0000000), wk =   0.0277778
        k(   32) = (   0.0460767   0.0265640   0.0000000), wk =   0.0277778
        k(   33) = (   0.0460767   0.0442733   0.0000000), wk =   0.0277778
        k(   34) = (   0.0460767   0.0619826   0.0000000), wk =   0.0277778
        k(   35) = (   0.0460767   0.0796919   0.0000000), wk =   0.0277778
        k(   36) = (   0.0460767   0.0974012   0.0000000), wk =   0.0277778
        k(   37) = (   0.0460767   0.1151106   0.0000000), wk =   0.0277778
        k(   38) = (   0.0460767  -0.0796919   0.0000000), wk =   0.0277778
        k(   39) = (   0.0460767  -0.0619826   0.0000000), wk =   0.0277778
        k(   40) = (   0.0460767  -0.0442733   0.0000000), wk =   0.0277778
        k(   41) = (   0.0460767  -0.0265640   0.0000000), wk =   0.0277778
        k(   42) = (   0.0460767  -0.0088547   0.0000000), wk =   0.0277778
        k(   43) = (   0.0460767   0.0088547   0.0000000), wk =   0.0277778
        k(   44) = (   0.0614356   0.0354186   0.0000000), wk =   0.0277778
        k(   45) = (   0.0614356   0.0531280   0.0000000), wk =   0.0277778
        k(   46) = (   0.0614356   0.0708373   0.0000000), wk =   0.0277778
        k(   47) = (   0.0614356   0.0885466   0.0000000), wk =   0.0277778
        k(   48) = (   0.0614356   0.1062559   0.0000000), wk =   0.0277778
        k(   49) = (   0.0614356   0.1239652   0.0000000), wk =   0.0277778
        k(   50) = (   0.0614356  -0.0708373   0.0000000), wk =   0.0277778
        k(   51) = (   0.0614356  -0.0531279   0.0000000), wk =   0.0277778
        k(   52) = (   0.0614356  -0.0354186   0.0000000), wk =   0.0277778
        k(   53) = (   0.0614356  -0.0177093   0.0000000), wk =   0.0277778
        k(   54) = (   0.0614356   0.0000000   0.0000000), wk =   0.0277778
        k(   55) = (   0.0614356   0.0177093   0.0000000), wk =   0.0277778
        k(   56) = (   0.0767945   0.0442733   0.0000000), wk =   0.0277778
        k(   57) = (   0.0767945   0.0619826   0.0000000), wk =   0.0277778
        k(   58) = (   0.0767945   0.0796919   0.0000000), wk =   0.0277778
        k(   59) = (   0.0767945   0.0974013   0.0000000), wk =   0.0277778
        k(   60) = (   0.0767945   0.1151106   0.0000000), wk =   0.0277778
        k(   61) = (   0.0767945   0.1328199   0.0000000), wk =   0.0277778
        k(   62) = (   0.0767945  -0.0619826   0.0000000), wk =   0.0277778
        k(   63) = (   0.0767945  -0.0442733   0.0000000), wk =   0.0277778
        k(   64) = (   0.0767945  -0.0265640   0.0000000), wk =   0.0277778
        k(   65) = (   0.0767945  -0.0088547   0.0000000), wk =   0.0277778
        k(   66) = (   0.0767945   0.0088547   0.0000000), wk =   0.0277778
        k(   67) = (   0.0767945   0.0265640   0.0000000), wk =   0.0277778
        k(   68) = (  -0.0921534  -0.0531280   0.0000000), wk =   0.0138889
        k(   69) = (  -0.0921534  -0.0354186   0.0000000), wk =   0.0277778
        k(   70) = (  -0.0921534  -0.0177093   0.0000000), wk =   0.0277778
        k(   71) = (  -0.0921534  -0.0000000   0.0000000), wk =   0.0277778
        k(   72) = (  -0.0921534   0.0177093   0.0000000), wk =   0.0277778
        k(   73) = (  -0.0921534   0.0354186   0.0000000), wk =   0.0277778
        k(   74) = (  -0.0921534  -0.1593839   0.0000000), wk =   0.0138889

     Dense  grid:   920253 G-vectors     FFT dimensions: (  80,  80, 360)

     Smooth grid:   232733 G-vectors     FFT dimensions: (  50,  50, 225)

     Estimated max dynamical RAM per process >     203.57 MB

     Estimated total dynamical RAM >       7.36 GB

     Initial potential from superposition of free atoms

     starting charge  191.99471, renormalised to  192.00000

     negative rho (up, down):  1.398E-03 0.000E+00


     %%%%%%%%%%%%%%%%%%%%%%%%%%%%%%%%%%%%%%%%%%%%%%%%%%%%%%%%%%%%%%%%%%%%%%%%
     %                                                                      %
     % You are using vdW-DF, which was implemented by the Thonhauser group. %
     % Please cite the following two papers that made this development      %
     % possible and the two reviews that describe the various versions:     %
     %                                                                      %
     %   T. Thonhauser et al., PRL 115, 136402 (2015).                      %
     %   T. Thonhauser et al., PRB 76, 125112 (2007).                       %
     %   K. Berland et al., Rep. Prog. Phys. 78, 066501 (2015).             %
     %   D.C. Langreth et al., J. Phys.: Condens. Matter 21, 084203 (2009). %
     %                                                                      %
     %                                                                      %
     % If you are calculating the stress with vdW-DF, please also cite:     %
     %                                                                      %
     %   R. Sabatini et al., J. Phys.: Condens. Matter 24, 424209 (2012).   %
     %                                                                      %
     %%%%%%%%%%%%%%%%%%%%%%%%%%%%%%%%%%%%%%%%%%%%%%%%%%%%%%%%%%%%%%%%%%%%%%%%



     Adding external electric field

     Computed dipole along edir(3) : 
        Dipole                0.0000 Ry au,          0.0000 Debye
        Dipole field          0.0000 Ry au, 

        Potential amp.       -0.0000 Ry
        Total length         45.0179 bohr

     Starting wfcs are  120 randomized atomic wfcs

     total cpu time spent up to now is       90.0 secs

     Self-consistent Calculation

     iteration #  1     ecut=    55.12 Ry     beta= 0.10
     Davidson diagonalization with overlap
     ethr =  1.00E-02,  avg # of iterations =  3.1

     negative rho (up, down):  1.318E-03 0.000E+00

     Adding external electric field

     Computed dipole along edir(3) : 
        Dipole               -0.0213 Ry au,         -0.0541 Debye
        Dipole field         -0.0001 Ry au, 

        Potential amp.        0.0057 Ry
        Total length         45.0179 bohr


     total cpu time spent up to now is      383.4 secs

     total energy              =   -2391.59191007 Ry
     estimated scf accuracy    <       4.46531056 Ry

     iteration #  2     ecut=    55.12 Ry     beta= 0.10
     Davidson diagonalization with overlap
     ethr =  2.33E-03,  avg # of iterations =  2.1

     negative rho (up, down):  1.292E-03 0.000E+00

     Adding external electric field

     Computed dipole along edir(3) : 
        Dipole                0.2488 Ry au,          0.6323 Debye
        Dipole field          0.0007 Ry au, 

        Potential amp.       -0.0669 Ry
        Total length         45.0179 bohr


     total cpu time spent up to now is      619.2 secs

     total energy              =   -2391.90533392 Ry
     estimated scf accuracy    <       1.08768880 Ry

     iteration #  3     ecut=    55.12 Ry     beta= 0.10
     Davidson diagonalization with overlap
     ethr =  5.67E-04,  avg # of iterations =  1.6

     negative rho (up, down):  1.288E-03 0.000E+00

     Adding external electric field

     Computed dipole along edir(3) : 
        Dipole               -0.0904 Ry au,         -0.2299 Debye
        Dipole field         -0.0003 Ry au, 

        Potential amp.        0.0243 Ry
        Total length         45.0179 bohr


     total cpu time spent up to now is      831.9 secs

     total energy              =   -2391.86195296 Ry
     estimated scf accuracy    <       5.19478604 Ry

     iteration #  4     ecut=    55.12 Ry     beta= 0.10
     Davidson diagonalization with overlap
     ethr =  5.67E-04,  avg # of iterations =  1.1

     negative rho (up, down):  1.282E-03 0.000E+00

     Adding external electric field

     Computed dipole along edir(3) : 
        Dipole                0.0425 Ry au,          0.1081 Debye
        Dipole field          0.0001 Ry au, 

        Potential amp.       -0.0114 Ry
        Total length         45.0179 bohr


     total cpu time spent up to now is     1024.2 secs

     total energy              =   -2391.92693971 Ry
     estimated scf accuracy    <       1.54181772 Ry

     iteration #  5     ecut=    55.12 Ry     beta= 0.10
     Davidson diagonalization with overlap
     ethr =  5.67E-04,  avg # of iterations =  1.1

     negative rho (up, down):  1.276E-03 0.000E+00

     Adding external electric field

     Computed dipole along edir(3) : 
        Dipole                0.0365 Ry au,          0.0929 Debye
        Dipole field          0.0001 Ry au, 

        Potential amp.       -0.0098 Ry
        Total length         45.0179 bohr


     total cpu time spent up to now is     1216.6 secs

     total energy              =   -2391.93146864 Ry
     estimated scf accuracy    <       0.14397944 Ry

     iteration #  6     ecut=    55.12 Ry     beta= 0.10
     Davidson diagonalization with overlap
     ethr =  7.50E-05,  avg # of iterations =  3.7

     negative rho (up, down):  1.275E-03 0.000E+00

     Adding external electric field

     Computed dipole along edir(3) : 
        Dipole                0.0322 Ry au,          0.0819 Debye
        Dipole field          0.0001 Ry au, 

        Potential amp.       -0.0087 Ry
        Total length         45.0179 bohr


     total cpu time spent up to now is     1455.0 secs

     total energy              =   -2391.93798426 Ry
     estimated scf accuracy    <       0.03830489 Ry

     iteration #  7     ecut=    55.12 Ry     beta= 0.10
     Davidson diagonalization with overlap
     ethr =  2.00E-05,  avg # of iterations =  2.4

     negative rho (up, down):  1.348E-03 0.000E+00

     Adding external electric field

     Computed dipole along edir(3) : 
        Dipole                0.0210 Ry au,          0.0533 Debye
        Dipole field          0.0001 Ry au, 

        Potential amp.       -0.0056 Ry
        Total length         45.0179 bohr


     total cpu time spent up to now is     1676.4 secs

     total energy              =   -2391.93585141 Ry
     estimated scf accuracy    <       0.02199836 Ry

     iteration #  8     ecut=    55.12 Ry     beta= 0.10
     Davidson diagonalization with overlap
     ethr =  1.15E-05,  avg # of iterations =  2.7

     negative rho (up, down):  1.360E-03 0.000E+00

     Adding external electric field

     Computed dipole along edir(3) : 
        Dipole                0.0223 Ry au,          0.0567 Debye
        Dipole field          0.0001 Ry au, 

        Potential amp.       -0.0060 Ry
        Total length         45.0179 bohr


     total cpu time spent up to now is     1934.0 secs

     total energy              =   -2391.93843421 Ry
     estimated scf accuracy    <       0.00301581 Ry

     iteration #  9     ecut=    55.12 Ry     beta= 0.10
     Davidson diagonalization with overlap
     ethr =  1.57E-06,  avg # of iterations =  4.0

     negative rho (up, down):  1.425E-03 0.000E+00

     Adding external electric field

     Computed dipole along edir(3) : 
        Dipole                0.0288 Ry au,          0.0732 Debye
        Dipole field          0.0001 Ry au, 

        Potential amp.       -0.0077 Ry
        Total length         45.0179 bohr


     total cpu time spent up to now is     2171.2 secs

     total energy              =   -2391.93863459 Ry
     estimated scf accuracy    <       0.00176413 Ry

     iteration # 10     ecut=    55.12 Ry     beta= 0.10
     Davidson diagonalization with overlap
     ethr =  9.19E-07,  avg # of iterations =  3.4

     negative rho (up, down):  1.394E-03 0.000E+00

     Adding external electric field

     Computed dipole along edir(3) : 
        Dipole                0.0261 Ry au,          0.0663 Debye
        Dipole field          0.0001 Ry au, 

        Potential amp.       -0.0070 Ry
        Total length         45.0179 bohr


     total cpu time spent up to now is     2429.3 secs

     total energy              =   -2391.93875630 Ry
     estimated scf accuracy    <       0.00035895 Ry

     iteration # 11     ecut=    55.12 Ry     beta= 0.10
     Davidson diagonalization with overlap
     ethr =  1.87E-07,  avg # of iterations =  2.2

     negative rho (up, down):  1.367E-03 0.000E+00

     Adding external electric field

     Computed dipole along edir(3) : 
        Dipole                0.0222 Ry au,          0.0565 Debye
        Dipole field          0.0001 Ry au, 

        Potential amp.       -0.0060 Ry
        Total length         45.0179 bohr


     total cpu time spent up to now is     2697.6 secs

     total energy              =   -2391.93884245 Ry
     estimated scf accuracy    <       0.00009853 Ry

     iteration # 12     ecut=    55.12 Ry     beta= 0.10
     Davidson diagonalization with overlap
     ethr =  5.13E-08,  avg # of iterations =  2.7

     negative rho (up, down):  1.339E-03 0.000E+00

     Adding external electric field

     Computed dipole along edir(3) : 
        Dipole                0.0240 Ry au,          0.0611 Debye
        Dipole field          0.0001 Ry au, 

        Potential amp.       -0.0065 Ry
        Total length         45.0179 bohr


     total cpu time spent up to now is     2970.8 secs

     total energy              =   -2391.93882951 Ry
     estimated scf accuracy    <       0.00008564 Ry

     iteration # 13     ecut=    55.12 Ry     beta= 0.10
     Davidson diagonalization with overlap
     ethr =  4.46E-08,  avg # of iterations =  2.3

     negative rho (up, down):  1.316E-03 0.000E+00

     Adding external electric field

     Computed dipole along edir(3) : 
        Dipole                0.0250 Ry au,          0.0634 Debye
        Dipole field          0.0001 Ry au, 

        Potential amp.       -0.0067 Ry
        Total length         45.0179 bohr


     total cpu time spent up to now is     3237.5 secs

     total energy              =   -2391.93884870 Ry
     estimated scf accuracy    <       0.00001737 Ry

     iteration # 14     ecut=    55.12 Ry     beta= 0.10
     Davidson diagonalization with overlap
     ethr =  9.05E-09,  avg # of iterations =  2.0

     negative rho (up, down):  1.192E-03 0.000E+00

     Adding external electric field

     Computed dipole along edir(3) : 
        Dipole                0.0272 Ry au,          0.0691 Debye
        Dipole field          0.0001 Ry au, 

        Potential amp.       -0.0073 Ry
        Total length         45.0179 bohr


     total cpu time spent up to now is     3472.2 secs

     End of self-consistent calculation

          k = 0.0000 0.0000 0.0000 ( 28965 PWs)   bands (ev):

   -84.3814 -84.3503 -83.8930 -83.8619 -83.8067 -83.7757 -70.7281 -70.6780
   -70.2378 -70.1879 -70.1624 -70.1127 -43.9246 -43.7964 -43.7245 -43.6800
   -43.6054 -43.4460 -43.3696 -43.3557 -43.1982 -43.1528 -43.1173 -43.0936
   -43.0912 -43.0358 -43.0211 -42.9771 -42.8959 -42.8113 -40.8497 -40.7061
   -40.6749 -40.6548 -40.6361 -40.3973 -40.3749 -40.2922 -40.1869 -40.1584
   -40.1407 -40.1033 -40.1020 -40.0771 -40.0497 -40.0106 -39.9161 -39.8337
    -5.8541  -4.0642  -3.9630  -3.8071  -3.7583  -3.6156  -3.4342  -3.2232
    -3.2208  -2.9640  -2.9597  -2.9077  -2.4892  -2.4669  -2.3635  -1.2603
    -1.1406  -1.0217  -0.3596  -0.3385  -0.3273  -0.1336  -0.1270  -0.0984
     0.0964   0.2506   0.2944   0.2945   0.3238   0.3344   0.7579   0.7796
     0.9123   1.0399   1.1021   2.0249   2.2089   2.2331   2.2713   2.3496
     2.3818   2.4758   2.4777   2.4778   3.1593   3.2385   3.4087   3.6676
     3.8149   3.8269   3.9079   4.0980   4.2428   4.2675   4.2745   4.2990
     4.3583   4.5394   4.5633   4.6985   4.7497   4.7822   4.8732   5.0620
     5.1770   5.2938   5.4374

          k = 0.0000 0.0177 0.0000 ( 28991 PWs)   bands (ev):

   -84.3814 -84.3503 -83.8930 -83.8619 -83.8067 -83.7757 -70.7282 -70.6780
   -70.2378 -70.1879 -70.1624 -70.1127 -43.9236 -43.7949 -43.7238 -43.6783
   -43.6044 -43.4450 -43.3695 -43.3547 -43.1961 -43.1525 -43.1167 -43.0922
   -43.0912 -43.0351 -43.0204 -42.9769 -42.8958 -42.8111 -40.8512 -40.7076
   -40.6756 -40.6578 -40.6375 -40.3976 -40.3764 -40.2938 -40.1885 -40.1594
   -40.1419 -40.1046 -40.1037 -40.0780 -40.0503 -40.0108 -39.9163 -39.8339
    -5.7923  -4.0167  -3.9090  -3.7558  -3.7024  -3.5783  -3.3849  -3.1843
    -3.1811  -2.9385  -2.9282  -2.8664  -2.4210  -2.4048  -2.3296  -1.2586
    -1.1185  -1.0165  -0.3447  -0.3152  -0.2996  -0.2551  -0.1045  -0.0764
     0.0568   0.1670   0.2513   0.3122   0.3707   0.3859   0.7306   0.8329
     0.9073   0.9780   1.0717   1.8853   2.0667   2.2400   2.2541   2.2668
     2.2692   2.4404   2.4539   2.4888   3.0669   3.2360   3.3440   3.6328
     3.6926   3.7550   3.8519   3.8817   4.0402   4.0755   4.2624   4.2661
     4.2682   4.3113   4.4950   4.6563   4.6678   4.8025   4.9808   5.0764
     5.1505   5.2006   5.7497

          k = 0.0000 0.0354 0.0000 ( 29059 PWs)   bands (ev):

   -84.3814 -84.3503 -83.8930 -83.8620 -83.8067 -83.7757 -70.7282 -70.6780
   -70.2378 -70.1879 -70.1625 -70.1127 -43.9206 -43.7910 -43.7218 -43.6734
   -43.6016 -43.4425 -43.3690 -43.3520 -43.1907 -43.1517 -43.1151 -43.0911
   -43.0878 -43.0334 -43.0185 -42.9765 -42.8955 -42.8108 -40.8556 -40.7120
   -40.6777 -40.6656 -40.6411 -40.3983 -40.3806 -40.2981 -40.1936 -40.1621
   -40.1448 -40.1114 -40.1049 -40.0802 -40.0520 -40.0112 -39.9169 -39.8345
    -5.6123  -3.9001  -3.7469  -3.6088  -3.5400  -3.4656  -3.2437  -3.0745
    -3.0578  -2.8620  -2.8321  -2.7461  -2.2293  -2.2241  -2.2213  -1.2588
    -1.0562  -1.0106  -0.5103  -0.3064  -0.2507  -0.2242  -0.1831  -0.0373
    -0.0082   0.0713   0.1417   0.3646   0.4583   0.4734   0.6756   0.8090
     0.8578   0.9644   0.9911   1.5867   1.8264   1.9710   2.0180   2.1595
     2.2527   2.3642   2.3853   2.4053   2.6064   3.0427   3.2171   3.2316
     3.3733   3.4942   3.6634   3.7910   3.8594   3.8739   3.9382   3.9623
     4.0678   4.2382   4.3004   4.3519   4.4192   4.7328   4.8373   5.0639
     5.0806   5.2664   5.6082

          k = 0.0000 0.0531 0.0000 ( 29103 PWs)   bands (ev):

   -84.3814 -84.3503 -83.8930 -83.8620 -83.8067 -83.7758 -70.7283 -70.6781
   -70.2379 -70.1879 -70.1625 -70.1127 -43.9165 -43.7857 -43.7192 -43.6665
   -43.5978 -43.4390 -43.3685 -43.3483 -43.1842 -43.1502 -43.1134 -43.0905
   -43.0813 -43.0310 -43.0158 -42.9759 -42.8951 -42.8103 -40.8616 -40.7192
   -40.6807 -40.6752 -40.6459 -40.3992 -40.3863 -40.3040 -40.2020 -40.1660
   -40.1490 -40.1191 -40.1071 -40.0826 -40.0542 -40.0118 -39.9177 -39.8353
    -5.3326  -3.7786  -3.4907  -3.3888  -3.2890  -3.2814  -3.0336  -2.8943
    -2.8581  -2.7324  -2.6657  -2.5645  -2.0683  -1.9490  -1.9067  -1.2610
    -1.0322  -0.9789  -0.7811  -0.4727  -0.3266  -0.1927  -0.1734  -0.0804
    -0.0730   0.0331   0.2976   0.4326   0.4530   0.5841   0.6235   0.6621
     0.7275   0.7567   1.2488   1.2901   1.5444   1.6337   1.6375   1.9934
     2.0225   2.1821   2.2073   2.3303   2.3721   2.4444   2.4771   2.6533
     3.1515   3.2066   3.4132   3.4233   3.5203   3.7144   3.7994   3.8300
     4.0255   4.0558   4.1557   4.1938   4.2572   4.2682   4.3792   4.6205
     5.0337   5.8810   5.9939

          k = 0.0000 0.0708 0.0000 ( 29135 PWs)   bands (ev):

   -84.3814 -84.3503 -83.8930 -83.8620 -83.8067 -83.7758 -70.7284 -70.6781
   -70.2380 -70.1879 -70.1626 -70.1127 -43.9125 -43.7807 -43.7166 -43.6593
   -43.5939 -43.4354 -43.3679 -43.3446 -43.1795 -43.1473 -43.1123 -43.0894
   -43.0742 -43.0285 -43.0131 -42.9752 -42.8947 -42.8099 -40.8675 -40.7277
   -40.6839 -40.6836 -40.6504 -40.4001 -40.3920 -40.3099 -40.2116 -40.1701
   -40.1551 -40.1240 -40.1098 -40.0842 -40.0564 -40.0124 -39.9184 -39.8361
    -4.9899  -3.7170  -3.1938  -3.1386  -3.0541  -2.9913  -2.7988  -2.6842
    -2.5923  -2.5266  -2.4202  -2.3699  -1.8647  -1.6722  -1.5349  -1.1867
    -1.1068  -1.0870  -0.8709  -0.7317  -0.6209  -0.3456  -0.1918  -0.1101
     0.0871   0.1219   0.3454   0.4331   0.4787   0.5024   0.5213   0.6141
     0.6300   0.8156   1.1080   1.1927   1.2548   1.2836   1.5949   1.6274
     1.6480   1.6562   1.8400   1.8546   2.0216   2.1390   2.3565   2.5806
     2.7585   2.8944   3.0019   3.0324   3.0857   3.4529   3.5398   3.6181
     3.6863   3.8284   3.8648   3.9865   4.2391   4.3565   4.5032   4.6184
     5.0507   6.2661   6.3008

          k = 0.0000 0.0885 0.0000 ( 29125 PWs)   bands (ev):

   -84.3814 -84.3503 -83.8930 -83.8620 -83.8067 -83.7758 -70.7285 -70.6781
   -70.2381 -70.1879 -70.1627 -70.1127 -43.9095 -43.7772 -43.7148 -43.6537
   -43.5909 -43.4329 -43.3674 -43.3419 -43.1774 -43.1439 -43.1120 -43.0882
   -43.0689 -43.0266 -43.0110 -42.9747 -42.8944 -42.8095 -40.8719 -40.7348
   -40.6889 -40.6865 -40.6535 -40.4007 -40.3962 -40.3142 -40.2190 -40.1732
   -40.1611 -40.1255 -40.1122 -40.0849 -40.0581 -40.0128 -39.9190 -39.8366
    -4.6566  -3.7481  -2.9449  -2.9193  -2.8392  -2.7354  -2.5942  -2.5533
    -2.3553  -2.2155  -2.1959  -2.1108  -1.7020  -1.5538  -1.3849  -1.3162
    -1.1115  -0.9897  -0.9108  -0.8993  -0.7426  -0.6143  -0.2048  -0.0644
     0.2145   0.2307   0.2727   0.3352   0.3418   0.4832   0.5477   0.6198
     0.7309   0.8095   0.8499   0.8783   0.9742   1.0375   1.1019   1.1151
     1.1372   1.5918   1.8319   1.9340   1.9766   2.0118   2.2839   2.3357
     2.4205   2.6288   2.7590   2.8374   2.9067   3.1544   3.2762   3.2902
     3.3724   3.5873   3.8294   3.9773   4.2478   4.3828   4.4494   5.0810
     5.0815   6.0052   6.4229

          k = 0.0000-0.1063 0.0000 ( 29114 PWs)   bands (ev):

   -84.3814 -84.3503 -83.8930 -83.8620 -83.8067 -83.7758 -70.7285 -70.6781
   -70.2381 -70.1879 -70.1627 -70.1127 -43.9084 -43.7760 -43.7141 -43.6516
   -43.5898 -43.4319 -43.3673 -43.3409 -43.1770 -43.1424 -43.1119 -43.0877
   -43.0669 -43.0259 -43.0103 -42.9745 -42.8943 -42.8094 -40.8735 -40.7376
   -40.6907 -40.6875 -40.6546 -40.4009 -40.3977 -40.3158 -40.2218 -40.1743
   -40.1636 -40.1257 -40.1132 -40.0851 -40.0587 -40.0130 -39.9192 -39.8368
    -4.4924  -3.8003  -2.8442  -2.8213  -2.7309  -2.6356  -2.5315  -2.5008
    -2.3161  -2.0510  -1.9326  -1.9031  -1.8124  -1.5388  -1.4184  -1.2799
    -1.2789  -1.1275  -1.0142  -0.7747  -0.6694  -0.5385  -0.1419  -0.0230
     0.2145   0.2726   0.2931   0.3393   0.3442   0.3566   0.5831   0.6340
     0.6411   0.6849   0.6915   0.7343   0.7667   0.7708   0.8523   0.8705
     1.4665   1.6494   1.7648   1.9041   1.9233   2.0216   2.0973   2.3111
     2.4359   2.5114   2.7481   2.8460   2.8557   2.8904   3.1071   3.1153
     3.3148   3.5134   3.8305   3.9760   4.2540   4.4034   4.4241   5.0942
     5.5183   5.5815   6.4736

          k = 0.0154 0.0089 0.0000 ( 28996 PWs)   bands (ev):

   -84.3809 -84.3508 -83.8925 -83.8625 -83.8062 -83.7763 -70.7273 -70.6789
   -70.2369 -70.1887 -70.1615 -70.1136 -43.9153 -43.7947 -43.7252 -43.6780
   -43.6059 -43.4367 -43.3791 -43.3465 -43.1961 -43.1516 -43.1179 -43.0921
   -43.0920 -43.0346 -43.0218 -42.9779 -42.9053 -42.8206 -40.8427 -40.7060
   -40.6759 -40.6555 -40.6375 -40.4058 -40.3678 -40.2852 -40.1868 -40.1595
   -40.1405 -40.1042 -40.1025 -40.0784 -40.0493 -40.0115 -39.9246 -39.8421
    -5.7870  -3.9973  -3.8952  -3.7691  -3.7215  -3.5595  -3.3987  -3.1838
    -3.1790  -2.9328  -2.9265  -2.8752  -2.4511  -2.4090  -2.3015  -1.2455
    -1.1372  -1.0095  -0.3351  -0.3131  -0.3047  -0.2599  -0.1054  -0.0802
     0.0601   0.2044   0.2356   0.2945   0.3624   0.3961   0.7449   0.8178
     0.8801   1.0155   1.0535   1.8828   2.1015   2.1509   2.2072   2.3344
     2.3520   2.4397   2.4486   2.4549   3.0623   3.1811   3.3914   3.6134
     3.7416   3.7946   3.8477   3.8948   3.8997   4.1166   4.1918   4.2497
     4.2816   4.4090   4.5660   4.6589   4.6670   4.6953   4.9576   5.0239
     5.1959   5.4655   5.5331

          k = 0.0154 0.0266 0.0000 ( 29021 PWs)   bands (ev):

   -84.3809 -84.3508 -83.8925 -83.8625 -83.8062 -83.7763 -70.7273 -70.6789
   -70.2370 -70.1887 -70.1616 -70.1136 -43.9132 -43.7919 -43.7238 -43.6748
   -43.6041 -43.4349 -43.3788 -43.3446 -43.1922 -43.1511 -43.1168 -43.0921
   -43.0891 -43.0334 -43.0205 -42.9776 -42.9052 -42.8204 -40.8458 -40.7089
   -40.6772 -40.6610 -40.6399 -40.4062 -40.3707 -40.2882 -40.1901 -40.1613
   -40.1425 -40.1074 -40.1050 -40.0799 -40.0504 -40.0118 -39.9249 -39.8425
    -5.6655  -3.9082  -3.7891  -3.6872  -3.5996  -3.4846  -3.3042  -3.1068
    -3.0986  -2.8768  -2.8735  -2.7884  -2.3527  -2.2524  -2.2346  -1.2472
    -1.0963  -1.0000  -0.4404  -0.2991  -0.2699  -0.2527  -0.1618   0.0005
     0.0278   0.0281   0.2509   0.2615   0.4347   0.4569   0.6925   0.8440
     0.8989   0.9383   0.9969   1.6761   1.8902   2.0623   2.0791   2.2214
     2.2632   2.3618   2.4214   2.4505   2.6856   3.2513   3.2725   3.4423
     3.4433   3.5450   3.6521   3.7666   3.7973   3.8882   4.0411   4.0538
     4.1715   4.2934   4.3963   4.5015   4.5378   4.7450   4.9227   5.0350
     5.1640   5.2273   5.9079

          k = 0.0154 0.0443 0.0000 ( 29049 PWs)   bands (ev):

   -84.3809 -84.3508 -83.8925 -83.8625 -83.8062 -83.7763 -70.7274 -70.6789
   -70.2370 -70.1887 -70.1617 -70.1136 -43.9096 -43.7872 -43.7216 -43.6689
   -43.6008 -43.4318 -43.3784 -43.3414 -43.1861 -43.1500 -43.1152 -43.0918
   -43.0836 -43.0313 -43.0183 -42.9771 -42.9049 -42.8200 -40.8510 -40.7147
   -40.6797 -40.6699 -40.6440 -40.4069 -40.3757 -40.2933 -40.1969 -40.1646
   -40.1459 -40.1149 -40.1066 -40.0822 -40.0524 -40.0123 -39.9255 -39.8431
    -5.4338  -3.7794  -3.5796  -3.5126  -3.3928  -3.3343  -3.1278  -2.9617
    -2.9310  -2.7775  -2.7501  -2.6266  -2.1344  -2.1042  -1.9856  -1.2564
    -1.0244  -1.0014  -0.6899  -0.3835  -0.2318  -0.2024  -0.1923  -0.1246
    -0.0612   0.1215   0.2043   0.3081   0.4810   0.5348   0.6666   0.7189
     0.7611   0.8490   1.1519   1.4113   1.6245   1.7702   1.7719   2.0850
     2.1528   2.2229   2.2754   2.3458   2.4756   2.6013   2.7460   2.8217
     3.2590   3.3519   3.4892   3.5400   3.7267   3.8395   3.8689   3.9168
     3.9210   4.0719   4.0723   4.3022   4.3131   4.4602   4.8006   4.9367
     5.1060   5.3981   5.6851

          k = 0.0154 0.0620 0.0000 ( 29097 PWs)   bands (ev):

   -84.3809 -84.3508 -83.8925 -83.8625 -83.8062 -83.7763 -70.7275 -70.6789
   -70.2371 -70.1887 -70.1617 -70.1136 -43.9055 -43.7820 -43.7190 -43.6617
   -43.5970 -43.4282 -43.3779 -43.3376 -43.1803 -43.1480 -43.1139 -43.0911
   -43.0766 -43.0288 -43.0156 -42.9765 -42.9045 -42.8196 -40.8570 -40.7226
   -40.6828 -40.6790 -40.6485 -40.4077 -40.3815 -40.2993 -40.2061 -40.1685
   -40.1510 -40.1214 -40.1089 -40.0841 -40.0546 -40.0128 -39.9262 -39.8438
    -5.1176  -3.6814  -3.2959  -3.2691  -3.1367  -3.1218  -2.9005  -2.7542
    -2.6885  -2.6211  -2.5533  -2.4207  -1.9206  -1.8264  -1.6701  -1.2355
    -1.0403  -1.0160  -0.8941  -0.6210  -0.4795  -0.2527  -0.2034  -0.1223
    -0.0043   0.0920   0.2862   0.4249   0.4736   0.5564   0.5766   0.5921
     0.6330   0.7717   1.2243   1.3522   1.3668   1.4238   1.4718   1.7822
     1.8299   1.9331   2.0234   2.0431   2.1166   2.1610   2.3061   2.5618
     2.9068   2.9882   3.1297   3.2226   3.3802   3.5484   3.6591   3.7684
     3.8092   3.9694   4.0292   4.1447   4.2085   4.4026   4.5391   4.5967
     4.9447   5.6682   6.2219

          k = 0.0154 0.0797 0.0000 ( 29120 PWs)   bands (ev):

   -84.3809 -84.3508 -83.8925 -83.8625 -83.8061 -83.7763 -70.7276 -70.6790
   -70.2372 -70.1887 -70.1618 -70.1136 -43.9019 -43.7777 -43.7169 -43.6552
   -43.5937 -43.4251 -43.3775 -43.3343 -43.1770 -43.1447 -43.1132 -43.0900
   -43.0703 -43.0266 -43.0133 -42.9759 -42.9043 -42.8193 -40.8623 -40.7305
   -40.6858 -40.6857 -40.6522 -40.4085 -40.3865 -40.3044 -40.2147 -40.1720
   -40.1573 -40.1244 -40.1115 -40.0852 -40.0566 -40.0133 -39.9268 -39.8445
    -4.7668  -3.6685  -3.0123  -3.0099  -2.8905  -2.8816  -2.6719  -2.5663
    -2.4114  -2.3648  -2.3050  -2.2025  -1.7207  -1.6153  -1.4299  -1.2474
    -1.0680  -1.0217  -0.9322  -0.8567  -0.7365  -0.4898  -0.2600  -0.1571
     0.1640   0.2418   0.2507   0.3151   0.3832   0.4313   0.4330   0.5437
     0.7750   0.9345   0.9856   1.0222   1.0898   1.1724   1.2074   1.2948
     1.3878   1.5666   1.8292   1.8642   1.9987   2.0556   2.3274   2.4500
     2.4770   2.6891   2.7658   2.9605   3.0693   3.3298   3.4658   3.5237
     3.6010   3.7996   3.8334   3.9504   4.1906   4.2523   4.4289   4.9568
     4.9765   5.8608   6.3297

          k = 0.0154 0.0974 0.0000 ( 29129 PWs)   bands (ev):

   -84.3808 -84.3508 -83.8925 -83.8625 -83.8061 -83.7763 -70.7276 -70.6790
   -70.2372 -70.1887 -70.1619 -70.1136 -43.8998 -43.7754 -43.7156 -43.6513
   -43.5917 -43.4233 -43.3772 -43.3324 -43.1759 -43.1420 -43.1131 -43.0891
   -43.0667 -43.0252 -43.0120 -42.9756 -42.9041 -42.8191 -40.8653 -40.7356
   -40.6893 -40.6875 -40.6543 -40.4089 -40.3894 -40.3074 -40.2199 -40.1741
   -40.1618 -40.1250 -40.1131 -40.0857 -40.0577 -40.0136 -39.9272 -39.8448
    -4.4879  -3.7342  -2.8275  -2.8210  -2.7141  -2.7083  -2.5082  -2.4942
    -2.2784  -2.0948  -2.0330  -1.9229  -1.7040  -1.5931  -1.4331  -1.3187
    -1.1752  -1.0855  -1.0358  -0.7632  -0.7161  -0.5453  -0.2102  -0.0586
     0.0818   0.1231   0.2962   0.3289   0.3409   0.3788   0.4297   0.5091
     0.5883   0.7331   0.7595   0.7984   0.8597   0.9194   0.9441   0.9769
     1.3656   1.6587   1.7750   1.8931   2.0152   2.0253   2.1468   2.3027
     2.4550   2.4669   2.7352   2.8560   2.9058   3.0844   3.2453   3.2814
     3.3608   3.5627   3.7989   3.9470   4.1944   4.3065   4.3731   5.0009
     5.3911   5.8542   5.9591

          k = 0.0154-0.0974 0.0000 ( 29129 PWs)   bands (ev):

   -84.3808 -84.3508 -83.8925 -83.8625 -83.8061 -83.7763 -70.7276 -70.6790
   -70.2372 -70.1887 -70.1619 -70.1136 -43.8998 -43.7754 -43.7156 -43.6513
   -43.5917 -43.4233 -43.3772 -43.3324 -43.1759 -43.1420 -43.1131 -43.0891
   -43.0667 -43.0252 -43.0120 -42.9756 -42.9041 -42.8191 -40.8653 -40.7356
   -40.6893 -40.6875 -40.6543 -40.4089 -40.3894 -40.3074 -40.2199 -40.1741
   -40.1618 -40.1250 -40.1131 -40.0857 -40.0577 -40.0136 -39.9272 -39.8448
    -4.4879  -3.7342  -2.8275  -2.8210  -2.7141  -2.7083  -2.5082  -2.4942
    -2.2784  -2.0948  -2.0330  -1.9229  -1.7040  -1.5931  -1.4331  -1.3187
    -1.1752  -1.0855  -1.0358  -0.7632  -0.7161  -0.5453  -0.2102  -0.0586
     0.0818   0.1231   0.2963   0.3289   0.3409   0.3788   0.4297   0.5091
     0.5883   0.7331   0.7595   0.7984   0.8597   0.9194   0.9441   0.9769
     1.3656   1.6587   1.7750   1.8931   2.0152   2.0253   2.1468   2.3027
     2.4550   2.4669   2.7352   2.8560   2.9058   3.0844   3.2453   3.2814
     3.3608   3.5627   3.7989   3.9470   4.1944   4.3065   4.3731   5.0009
     5.3911   5.8542   5.9591

          k = 0.0154-0.0797 0.0000 ( 29120 PWs)   bands (ev):

   -84.3809 -84.3508 -83.8925 -83.8625 -83.8061 -83.7763 -70.7276 -70.6790
   -70.2372 -70.1887 -70.1618 -70.1136 -43.9019 -43.7777 -43.7169 -43.6552
   -43.5937 -43.4251 -43.3775 -43.3343 -43.1770 -43.1447 -43.1132 -43.0900
   -43.0703 -43.0266 -43.0133 -42.9759 -42.9043 -42.8193 -40.8623 -40.7305
   -40.6858 -40.6857 -40.6522 -40.4085 -40.3865 -40.3044 -40.2147 -40.1720
   -40.1573 -40.1244 -40.1115 -40.0852 -40.0566 -40.0133 -39.9268 -39.8445
    -4.7668  -3.6685  -3.0123  -3.0099  -2.8905  -2.8816  -2.6719  -2.5663
    -2.4114  -2.3648  -2.3050  -2.2025  -1.7207  -1.6153  -1.4299  -1.2474
    -1.0680  -1.0217  -0.9322  -0.8567  -0.7365  -0.4898  -0.2600  -0.1571
     0.1640   0.2418   0.2507   0.3151   0.3832   0.4313   0.4330   0.5437
     0.7750   0.9345   0.9856   1.0222   1.0898   1.1724   1.2074   1.2948
     1.3878   1.5666   1.8292   1.8642   1.9987   2.0556   2.3274   2.4500
     2.4770   2.6891   2.7658   2.9605   3.0693   3.3298   3.4658   3.5237
     3.6010   3.7996   3.8334   3.9504   4.1906   4.2523   4.4289   4.9568
     4.9765   5.8608   6.3297

          k = 0.0154-0.0620 0.0000 ( 29097 PWs)   bands (ev):

   -84.3809 -84.3508 -83.8925 -83.8625 -83.8062 -83.7763 -70.7275 -70.6789
   -70.2371 -70.1887 -70.1617 -70.1136 -43.9055 -43.7820 -43.7190 -43.6617
   -43.5970 -43.4282 -43.3779 -43.3376 -43.1803 -43.1480 -43.1139 -43.0911
   -43.0766 -43.0288 -43.0156 -42.9765 -42.9045 -42.8196 -40.8570 -40.7226
   -40.6828 -40.6790 -40.6485 -40.4077 -40.3815 -40.2993 -40.2061 -40.1685
   -40.1510 -40.1214 -40.1089 -40.0841 -40.0546 -40.0128 -39.9262 -39.8438
    -5.1176  -3.6814  -3.2959  -3.2691  -3.1367  -3.1218  -2.9005  -2.7542
    -2.6885  -2.6211  -2.5533  -2.4207  -1.9206  -1.8264  -1.6701  -1.2355
    -1.0403  -1.0160  -0.8941  -0.6210  -0.4795  -0.2527  -0.2034  -0.1223
    -0.0043   0.0920   0.2862   0.4249   0.4736   0.5564   0.5766   0.5921
     0.6330   0.7717   1.2243   1.3522   1.3668   1.4238   1.4718   1.7822
     1.8299   1.9331   2.0234   2.0431   2.1166   2.1610   2.3061   2.5618
     2.9068   2.9882   3.1297   3.2226   3.3802   3.5484   3.6591   3.7684
     3.8092   3.9694   4.0292   4.1447   4.2085   4.4026   4.5391   4.5967
     4.9447   5.6682   6.2218

          k = 0.0154-0.0443 0.0000 ( 29049 PWs)   bands (ev):

   -84.3809 -84.3508 -83.8925 -83.8625 -83.8062 -83.7763 -70.7274 -70.6789
   -70.2370 -70.1887 -70.1617 -70.1136 -43.9096 -43.7872 -43.7216 -43.6689
   -43.6008 -43.4318 -43.3784 -43.3414 -43.1861 -43.1500 -43.1152 -43.0918
   -43.0836 -43.0313 -43.0183 -42.9771 -42.9049 -42.8200 -40.8510 -40.7147
   -40.6797 -40.6699 -40.6440 -40.4069 -40.3757 -40.2933 -40.1969 -40.1646
   -40.1459 -40.1149 -40.1066 -40.0822 -40.0524 -40.0123 -39.9255 -39.8431
    -5.4338  -3.7794  -3.5796  -3.5126  -3.3928  -3.3343  -3.1278  -2.9617
    -2.9310  -2.7775  -2.7501  -2.6266  -2.1344  -2.1042  -1.9856  -1.2564
    -1.0244  -1.0014  -0.6899  -0.3835  -0.2318  -0.2024  -0.1923  -0.1246
    -0.0612   0.1215   0.2043   0.3081   0.4810   0.5348   0.6666   0.7189
     0.7611   0.8490   1.1519   1.4113   1.6245   1.7702   1.7719   2.0850
     2.1528   2.2229   2.2754   2.3458   2.4756   2.6013   2.7460   2.8217
     3.2590   3.3519   3.4892   3.5400   3.7267   3.8395   3.8689   3.9168
     3.9210   4.0719   4.0723   4.3022   4.3131   4.4602   4.8006   4.9367
     5.1060   5.3981   5.6851

          k = 0.0154-0.0266 0.0000 ( 29021 PWs)   bands (ev):

   -84.3809 -84.3508 -83.8925 -83.8625 -83.8062 -83.7763 -70.7273 -70.6789
   -70.2370 -70.1887 -70.1616 -70.1136 -43.9132 -43.7919 -43.7238 -43.6748
   -43.6041 -43.4349 -43.3788 -43.3446 -43.1922 -43.1511 -43.1168 -43.0921
   -43.0891 -43.0334 -43.0205 -42.9776 -42.9052 -42.8204 -40.8458 -40.7089
   -40.6772 -40.6610 -40.6399 -40.4062 -40.3707 -40.2882 -40.1901 -40.1613
   -40.1425 -40.1074 -40.1050 -40.0799 -40.0504 -40.0118 -39.9249 -39.8425
    -5.6655  -3.9082  -3.7891  -3.6872  -3.5996  -3.4846  -3.3042  -3.1068
    -3.0986  -2.8768  -2.8735  -2.7884  -2.3527  -2.2524  -2.2346  -1.2472
    -1.0963  -1.0000  -0.4404  -0.2991  -0.2699  -0.2527  -0.1618   0.0005
     0.0278   0.0280   0.2509   0.2615   0.4347   0.4569   0.6925   0.8440
     0.8989   0.9383   0.9969   1.6761   1.8902   2.0623   2.0791   2.2214
     2.2632   2.3618   2.4214   2.4505   2.6856   3.2513   3.2725   3.4423
     3.4433   3.5450   3.6521   3.7666   3.7973   3.8882   4.0411   4.0538
     4.1715   4.2934   4.3963   4.5015   4.5378   4.7450   4.9227   5.0350
     5.1640   5.2273   5.9079

          k = 0.0154-0.0089 0.0000 ( 28996 PWs)   bands (ev):

   -84.3809 -84.3508 -83.8925 -83.8625 -83.8062 -83.7763 -70.7273 -70.6789
   -70.2369 -70.1887 -70.1615 -70.1136 -43.9153 -43.7947 -43.7252 -43.6780
   -43.6059 -43.4367 -43.3791 -43.3465 -43.1961 -43.1516 -43.1179 -43.0921
   -43.0920 -43.0346 -43.0218 -42.9779 -42.9053 -42.8206 -40.8427 -40.7060
   -40.6759 -40.6555 -40.6375 -40.4058 -40.3678 -40.2852 -40.1868 -40.1595
   -40.1405 -40.1042 -40.1025 -40.0784 -40.0493 -40.0115 -39.9246 -39.8421
    -5.7870  -3.9973  -3.8952  -3.7691  -3.7215  -3.5595  -3.3987  -3.1838
    -3.1790  -2.9328  -2.9265  -2.8752  -2.4511  -2.4090  -2.3015  -1.2455
    -1.1372  -1.0095  -0.3351  -0.3131  -0.3047  -0.2599  -0.1054  -0.0802
     0.0601   0.2044   0.2356   0.2945   0.3624   0.3961   0.7449   0.8178
     0.8801   1.0155   1.0535   1.8828   2.1015   2.1509   2.2072   2.3344
     2.3520   2.4397   2.4486   2.4549   3.0623   3.1811   3.3914   3.6134
     3.7417   3.7945   3.8477   3.8948   3.8997   4.1166   4.1918   4.2497
     4.2816   4.4090   4.5660   4.6589   4.6670   4.6953   4.9576   5.0239
     5.1959   5.4655   5.5330

          k = 0.0307 0.0177 0.0000 ( 29069 PWs)   bands (ev):

   -84.3793 -84.3524 -83.8909 -83.8640 -83.8046 -83.7778 -70.7248 -70.6814
   -70.2345 -70.1912 -70.1591 -70.1161 -43.8877 -43.7895 -43.7272 -43.6725
   -43.6075 -43.4096 -43.4069 -43.3196 -43.1901 -43.1482 -43.1200 -43.0950
   -43.0872 -43.0312 -43.0237 -42.9803 -42.9329 -42.8478 -40.8223 -40.7059
   -40.6788 -40.6574 -40.6411 -40.4304 -40.3468 -40.2643 -40.1867 -40.1628
   -40.1396 -40.1069 -40.1039 -40.0818 -40.0480 -40.0140 -39.9493 -39.8669
    -5.5902  -3.8022  -3.6994  -3.6969  -3.5872  -3.3972  -3.2965  -3.0650
    -3.0585  -2.8577  -2.8148  -2.7743  -2.3582  -2.2206  -2.1206  -1.2114
    -1.1349  -0.9733  -0.5124  -0.2718  -0.2502  -0.2378  -0.2057  -0.0047
     0.0514   0.0526   0.0996   0.3401   0.4646   0.4807   0.6887   0.7536
     0.9218   0.9289   0.9778   1.5852   1.8467   1.9036   2.0233   2.2573
     2.2584   2.3566   2.3649   2.3778   2.5913   3.1037   3.1525   3.1951
     3.3329   3.6172   3.7046   3.7490   3.7803   3.8300   3.9469   3.9633
     4.1587   4.2058   4.2855   4.3353   4.5618   4.7562   4.7613   4.9325
     5.0451   5.2617   5.9676

          k = 0.0307 0.0354 0.0000 ( 29082 PWs)   bands (ev):

   -84.3793 -84.3524 -83.8909 -83.8640 -83.8046 -83.7778 -70.7249 -70.6814
   -70.2345 -70.1912 -70.1591 -70.1161 -43.8850 -43.7860 -43.7256 -43.6681
   -43.6053 -43.4072 -43.4067 -43.3171 -43.1852 -43.1476 -43.1189 -43.0948
   -43.0831 -43.0296 -43.0223 -42.9800 -42.9328 -42.8477 -40.8264 -40.7099
   -40.6805 -40.6644 -40.6438 -40.4307 -40.3507 -40.2684 -40.1916 -40.1649
   -40.1422 -40.1100 -40.1078 -40.0833 -40.0495 -40.0143 -39.9495 -39.8671
    -5.4155  -3.6824  -3.6065  -3.5518  -3.4168  -3.2840  -3.1671  -2.9547
    -2.9294  -2.7776  -2.7463  -2.6359  -2.2346  -2.0245  -1.9854  -1.2319
    -1.0851  -0.9588  -0.6939  -0.3716  -0.2229  -0.2082  -0.1966  -0.1075
    -0.0536   0.0870   0.2328   0.2825   0.4892   0.5318   0.6728   0.6893
     0.7793   0.8447   1.1461   1.4109   1.6132   1.7515   1.7855   2.1443
     2.1468   2.1863   2.3041   2.3149   2.4591   2.6402   2.6999   2.8327
     3.2766   3.4204   3.4645   3.5268   3.7038   3.7557   3.8011   3.9288
     3.9872   4.0475   4.1112   4.3422   4.3549   4.5690   4.6218   4.8929
     5.0830   5.4222   5.7436

          k = 0.0307 0.0531 0.0000 ( 29050 PWs)   bands (ev):

   -84.3793 -84.3524 -83.8909 -83.8640 -83.8046 -83.7778 -70.7250 -70.6814
   -70.2346 -70.1912 -70.1592 -70.1161 -43.8812 -43.7812 -43.7236 -43.6619
   -43.6022 -43.4065 -43.4038 -43.3136 -43.1793 -43.1462 -43.1177 -43.0944
   -43.0771 -43.0273 -43.0202 -42.9796 -42.9327 -42.8476 -40.8319 -40.7163
   -40.6829 -40.6730 -40.6475 -40.4312 -40.3560 -40.2738 -40.1993 -40.1679
   -40.1460 -40.1169 -40.1094 -40.0851 -40.0515 -40.0147 -39.9498 -39.8675
    -5.1422  -3.5596  -3.4284  -3.3117  -3.2024  -3.0973  -2.9708  -2.7794
    -2.7085  -2.6306  -2.6284  -2.4359  -1.9936  -1.8716  -1.7060  -1.2375
    -1.0274  -0.9703  -0.9213  -0.5684  -0.3950  -0.2535  -0.2087  -0.1404
    -0.0388   0.1409   0.1638   0.4047   0.4729   0.5106   0.6107   0.6115
     0.6788   0.7571   1.2988   1.3496   1.4109   1.4738   1.4749   1.8308
     1.9317   2.0111   2.0317   2.1325   2.1635   2.2137   2.2270   2.5491
     2.9692   3.0033   3.2218   3.3434   3.5018   3.5280   3.6693   3.8103
     3.9199   3.9310   3.9852   4.2274   4.3598   4.6173   4.6493   4.9357
     4.9419   5.2460   5.2752

          k = 0.0307 0.0708 0.0000 ( 29114 PWs)   bands (ev):

   -84.3793 -84.3524 -83.8909 -83.8641 -83.8046 -83.7778 -70.7250 -70.6815
   -70.2347 -70.1912 -70.1593 -70.1161 -43.8773 -43.7767 -43.7216 -43.6553
   -43.5991 -43.4063 -43.4005 -43.3101 -43.1748 -43.1437 -43.1169 -43.0938
   -43.0706 -43.0251 -43.0182 -42.9792 -42.9326 -42.8475 -40.8373 -40.7239
   -40.6856 -40.6806 -40.6511 -40.4317 -40.3612 -40.2791 -40.2079 -40.1712
   -40.1514 -40.1214 -40.1115 -40.0865 -40.0535 -40.0151 -39.9502 -39.8679
    -4.8036  -3.5048  -3.1945  -3.0226  -2.9764  -2.8642  -2.7383  -2.5532
    -2.4765  -2.4531  -2.3631  -2.2153  -1.7035  -1.6830  -1.5683  -1.1987
    -1.0597  -1.0166  -0.9746  -0.7857  -0.6174  -0.4021  -0.3744  -0.2632
     0.0816   0.2297   0.2387   0.2645   0.3617   0.3787   0.4740   0.5089
     0.7784   0.8579   1.0811   1.1507   1.1756   1.2684   1.2857   1.3974
     1.5438   1.6196   1.8262   1.8637   2.0653   2.0822   2.2087   2.4596
     2.4949   2.6791   2.8848   3.1671   3.2534   3.4459   3.5762   3.7443
     3.7578   3.8659   4.0154   4.1011   4.1139   4.4751   4.5227   4.7046
     4.9600   5.0728   5.3580

          k = 0.0307 0.0885 0.0000 ( 29104 PWs)   bands (ev):

   -84.3793 -84.3524 -83.8909 -83.8641 -83.8046 -83.7778 -70.7251 -70.6815
   -70.2347 -70.1912 -70.1594 -70.1161 -43.8745 -43.7735 -43.7201 -43.6503
   -43.5969 -43.4062 -43.3980 -43.3075 -43.1728 -43.1407 -43.1166 -43.0930
   -43.0657 -43.0233 -43.0167 -42.9788 -42.9326 -42.8474 -40.8412 -40.7301
   -40.6876 -40.6854 -40.6536 -40.4321 -40.3649 -40.2830 -40.2146 -40.1736
   -40.1566 -40.1229 -40.1133 -40.0872 -40.0550 -40.0154 -39.9505 -39.8682
    -4.4673  -3.5517  -2.9740  -2.7844  -2.7702  -2.6395  -2.5233  -2.4021
    -2.2211  -2.1784  -2.1600  -1.9473  -1.6898  -1.5542  -1.4319  -1.3922
    -1.1100  -1.0164  -0.9561  -0.9445  -0.6547  -0.5216  -0.3897  -0.2682
     0.0296   0.0362   0.1691   0.2284   0.2786   0.3878   0.4362   0.4599
     0.4913   0.6721   0.8760   0.8829   1.0095   1.0456   1.0933   1.0986
     1.2910   1.6433   1.8480   1.8619   2.0054   2.1634   2.1691   2.2720
     2.3440   2.5480   2.7786   2.9632   3.0269   3.3914   3.4742   3.5491
     3.6743   3.7228   3.8611   3.8671   4.0644   4.0923   4.2897   4.7385
     5.1842   5.3535   5.4157

          k = 0.0307 0.1063 0.0000 ( 29118 PWs)   bands (ev):

   -84.3793 -84.3524 -83.8909 -83.8641 -83.8046 -83.7778 -70.7251 -70.6815
   -70.2347 -70.1912 -70.1594 -70.1161 -43.8734 -43.7724 -43.7196 -43.6484
   -43.5960 -43.4062 -43.3971 -43.3065 -43.1723 -43.1393 -43.1165 -43.0927
   -43.0640 -43.0227 -43.0162 -42.9787 -42.9326 -42.8474 -40.8427 -40.7325
   -40.6884 -40.6871 -40.6545 -40.4322 -40.3663 -40.2844 -40.2171 -40.1745
   -40.1588 -40.1232 -40.1140 -40.0874 -40.0556 -40.0155 -39.9506 -39.8683
    -4.2962  -3.6168  -2.8781  -2.6998  -2.6646  -2.5164  -2.4225  -2.3805
    -2.1935  -2.0044  -1.9053  -1.7924  -1.6844  -1.6520  -1.5741  -1.3741
    -1.2299  -1.1437  -1.0323  -0.7189  -0.6668  -0.3499  -0.2994  -0.1626
    -0.1588  -0.0243   0.0361   0.0440   0.1633   0.2397   0.3388   0.4078
     0.6730   0.7115   0.7223   0.7751   0.7929   0.8243   1.0564   1.0925
     1.4502   1.5369   1.9186   1.9494   1.9621   1.9962   2.1101   2.3475
     2.4159   2.4805   2.8466   2.9294   2.9852   3.3226   3.3697   3.4216
     3.4305   3.6138   3.7195   3.8641   4.0516   4.1368   4.2219   4.7514
     5.2263   5.4320   5.7283

          k = 0.0307-0.0885 0.0000 ( 29104 PWs)   bands (ev):

   -84.3793 -84.3524 -83.8909 -83.8641 -83.8046 -83.7778 -70.7251 -70.6815
   -70.2347 -70.1912 -70.1594 -70.1161 -43.8745 -43.7735 -43.7201 -43.6503
   -43.5969 -43.4062 -43.3980 -43.3075 -43.1728 -43.1407 -43.1166 -43.0930
   -43.0657 -43.0233 -43.0167 -42.9788 -42.9326 -42.8474 -40.8412 -40.7301
   -40.6876 -40.6854 -40.6536 -40.4321 -40.3649 -40.2830 -40.2146 -40.1736
   -40.1566 -40.1229 -40.1133 -40.0872 -40.0550 -40.0154 -39.9505 -39.8682
    -4.4673  -3.5517  -2.9740  -2.7844  -2.7702  -2.6395  -2.5233  -2.4021
    -2.2211  -2.1784  -2.1600  -1.9473  -1.6898  -1.5542  -1.4319  -1.3922
    -1.1101  -1.0164  -0.9561  -0.9445  -0.6547  -0.5216  -0.3897  -0.2682
     0.0296   0.0362   0.1691   0.2284   0.2786   0.3878   0.4362   0.4599
     0.4913   0.6721   0.8760   0.8829   1.0095   1.0456   1.0933   1.0986
     1.2910   1.6433   1.8480   1.8619   2.0054   2.1634   2.1691   2.2720
     2.3440   2.5480   2.7786   2.9632   3.0269   3.3914   3.4742   3.5491
     3.6743   3.7228   3.8611   3.8671   4.0644   4.0923   4.2897   4.7385
     5.1842   5.3535   5.4157

          k = 0.0307-0.0708 0.0000 ( 29114 PWs)   bands (ev):

   -84.3793 -84.3524 -83.8909 -83.8641 -83.8046 -83.7778 -70.7250 -70.6815
   -70.2347 -70.1912 -70.1593 -70.1161 -43.8773 -43.7767 -43.7216 -43.6553
   -43.5991 -43.4063 -43.4005 -43.3101 -43.1748 -43.1437 -43.1169 -43.0938
   -43.0706 -43.0251 -43.0182 -42.9792 -42.9326 -42.8475 -40.8373 -40.7239
   -40.6856 -40.6806 -40.6511 -40.4317 -40.3612 -40.2791 -40.2079 -40.1712
   -40.1514 -40.1214 -40.1115 -40.0865 -40.0535 -40.0151 -39.9502 -39.8679
    -4.8036  -3.5048  -3.1945  -3.0226  -2.9764  -2.8642  -2.7383  -2.5532
    -2.4765  -2.4531  -2.3631  -2.2153  -1.7035  -1.6830  -1.5683  -1.1987
    -1.0597  -1.0166  -0.9746  -0.7857  -0.6174  -0.4021  -0.3744  -0.2632
     0.0816   0.2297   0.2387   0.2645   0.3617   0.3787   0.4740   0.5089
     0.7784   0.8579   1.0811   1.1507   1.1756   1.2684   1.2857   1.3974
     1.5438   1.6196   1.8262   1.8637   2.0653   2.0822   2.2087   2.4596
     2.4949   2.6791   2.8848   3.1671   3.2534   3.4459   3.5762   3.7443
     3.7578   3.8659   4.0154   4.1011   4.1139   4.4751   4.5227   4.7046
     4.9600   5.0728   5.3580

          k = 0.0307-0.0531 0.0000 ( 29050 PWs)   bands (ev):

   -84.3793 -84.3524 -83.8909 -83.8640 -83.8046 -83.7778 -70.7250 -70.6814
   -70.2346 -70.1912 -70.1592 -70.1161 -43.8812 -43.7812 -43.7236 -43.6619
   -43.6022 -43.4065 -43.4038 -43.3136 -43.1793 -43.1462 -43.1177 -43.0944
   -43.0771 -43.0273 -43.0202 -42.9796 -42.9327 -42.8476 -40.8319 -40.7163
   -40.6829 -40.6730 -40.6475 -40.4312 -40.3560 -40.2738 -40.1993 -40.1679
   -40.1460 -40.1169 -40.1094 -40.0851 -40.0515 -40.0147 -39.9498 -39.8675
    -5.1422  -3.5596  -3.4284  -3.3117  -3.2024  -3.0973  -2.9708  -2.7794
    -2.7085  -2.6306  -2.6284  -2.4359  -1.9936  -1.8716  -1.7060  -1.2375
    -1.0274  -0.9703  -0.9213  -0.5684  -0.3950  -0.2535  -0.2087  -0.1404
    -0.0388   0.1409   0.1638   0.4047   0.4729   0.5106   0.6107   0.6115
     0.6788   0.7571   1.2988   1.3496   1.4109   1.4738   1.4749   1.8308
     1.9317   2.0111   2.0317   2.1325   2.1635   2.2137   2.2270   2.5491
     2.9692   3.0033   3.2218   3.3434   3.5018   3.5280   3.6693   3.8103
     3.9199   3.9310   3.9852   4.2274   4.3598   4.6173   4.6493   4.9357
     4.9419   5.2460   5.2752

          k = 0.0307-0.0354 0.0000 ( 29082 PWs)   bands (ev):

   -84.3793 -84.3524 -83.8909 -83.8640 -83.8046 -83.7778 -70.7249 -70.6814
   -70.2345 -70.1912 -70.1591 -70.1161 -43.8850 -43.7860 -43.7256 -43.6681
   -43.6053 -43.4072 -43.4067 -43.3171 -43.1852 -43.1476 -43.1189 -43.0948
   -43.0831 -43.0296 -43.0223 -42.9800 -42.9328 -42.8477 -40.8264 -40.7099
   -40.6805 -40.6644 -40.6438 -40.4307 -40.3507 -40.2684 -40.1916 -40.1649
   -40.1422 -40.1100 -40.1078 -40.0833 -40.0495 -40.0143 -39.9495 -39.8671
    -5.4155  -3.6824  -3.6065  -3.5518  -3.4168  -3.2840  -3.1671  -2.9547
    -2.9294  -2.7776  -2.7463  -2.6359  -2.2346  -2.0245  -1.9854  -1.2319
    -1.0851  -0.9588  -0.6939  -0.3716  -0.2229  -0.2082  -0.1966  -0.1075
    -0.0536   0.0870   0.2328   0.2825   0.4892   0.5318   0.6728   0.6893
     0.7793   0.8447   1.1461   1.4109   1.6132   1.7515   1.7855   2.1443
     2.1468   2.1863   2.3041   2.3149   2.4591   2.6402   2.6999   2.8327
     3.2766   3.4204   3.4645   3.5268   3.7038   3.7557   3.8011   3.9288
     3.9872   4.0475   4.1112   4.3422   4.3549   4.5690   4.6218   4.8929
     5.0830   5.4222   5.7436

          k = 0.0307-0.0177 0.0000 ( 29069 PWs)   bands (ev):

   -84.3793 -84.3524 -83.8909 -83.8640 -83.8046 -83.7778 -70.7248 -70.6814
   -70.2345 -70.1912 -70.1591 -70.1161 -43.8877 -43.7895 -43.7272 -43.6725
   -43.6075 -43.4096 -43.4069 -43.3196 -43.1901 -43.1482 -43.1200 -43.0950
   -43.0872 -43.0312 -43.0237 -42.9803 -42.9329 -42.8478 -40.8223 -40.7059
   -40.6788 -40.6574 -40.6411 -40.4304 -40.3468 -40.2643 -40.1867 -40.1628
   -40.1396 -40.1069 -40.1039 -40.0818 -40.0480 -40.0140 -39.9493 -39.8669
    -5.5902  -3.8022  -3.6994  -3.6969  -3.5872  -3.3972  -3.2965  -3.0650
    -3.0585  -2.8577  -2.8148  -2.7743  -2.3582  -2.2206  -2.1206  -1.2114
    -1.1349  -0.9733  -0.5124  -0.2718  -0.2502  -0.2378  -0.2057  -0.0047
     0.0514   0.0526   0.0996   0.3401   0.4646   0.4807   0.6887   0.7536
     0.9218   0.9289   0.9778   1.5852   1.8467   1.9036   2.0233   2.2573
     2.2584   2.3566   2.3649   2.3778   2.5913   3.1037   3.1525   3.1951
     3.3329   3.6172   3.7046   3.7490   3.7803   3.8300   3.9469   3.9633
     4.1587   4.2058   4.2855   4.3353   4.5618   4.7562   4.7613   4.9325
     5.0451   5.2617   5.9750

          k = 0.0307 0.0000 0.0000 ( 29042 PWs)   bands (ev):

   -84.3793 -84.3524 -83.8909 -83.8640 -83.8046 -83.7778 -70.7248 -70.6814
   -70.2344 -70.1912 -70.1591 -70.1161 -43.8887 -43.7909 -43.7278 -43.6740
   -43.6083 -43.4105 -43.4070 -43.3205 -43.1920 -43.1485 -43.1204 -43.0950
   -43.0885 -43.0318 -43.0243 -42.9804 -42.9329 -42.8479 -40.8208 -40.7045
   -40.6782 -40.6547 -40.6401 -40.4303 -40.3454 -40.2629 -40.1851 -40.1620
   -40.1386 -40.1066 -40.1016 -40.0811 -40.0474 -40.0139 -39.9492 -39.8669
    -5.6501  -3.8500  -3.7488  -3.6994  -3.6763  -3.4346  -3.3408  -3.1101
    -3.0928  -2.8813  -2.8376  -2.8250  -2.3682  -2.3350  -2.1532  -1.2047
    -1.1525  -0.9823  -0.4414  -0.2778  -0.2718  -0.2596  -0.1712   0.0075
     0.0196   0.0768   0.2290   0.2420   0.4286   0.4645   0.7053   0.8142
     0.9202   0.9366   0.9786   1.6729   1.9322   1.9577   2.1021   2.3064
     2.3151   2.3373   2.3550   2.4555   2.6670   3.2234   3.3343   3.3690
     3.4290   3.5988   3.6349   3.7699   3.8033   3.8589   3.9529   4.1638
     4.2636   4.2886   4.3174   4.4587   4.5998   4.8120   4.8620   5.0967
     5.1345   5.1921   5.8569

          k = 0.0461 0.0266 0.0000 ( 29103 PWs)   bands (ev):

   -84.3769 -84.3548 -83.8885 -83.8665 -83.8022 -83.7803 -70.7209 -70.6855
   -70.2305 -70.1952 -70.1552 -70.1201 -43.8439 -43.7818 -43.7308 -43.6640
   -43.6105 -43.4511 -43.3663 -43.2767 -43.1811 -43.1430 -43.1237 -43.0993
   -43.0796 -43.0272 -43.0260 -42.9843 -42.9765 -42.8911 -40.7894 -40.7054
   -40.6832 -40.6596 -40.6460 -40.4691 -40.3131 -40.2309 -40.1868 -40.1674
   -40.1379 -40.1109 -40.1055 -40.0865 -40.0458 -40.0179 -39.9879 -39.9058
    -5.2791  -3.6321  -3.4999  -3.4024  -3.3759  -3.1506  -3.1370  -2.8678
    -2.8671  -2.7414  -2.6363  -2.6085  -2.2118  -1.9251  -1.8415  -1.1861
    -1.1481  -0.9137  -0.7994  -0.4576  -0.2510  -0.2231  -0.1679  -0.0880
    -0.0456  -0.0340   0.3075   0.4170   0.4781   0.5444   0.6137   0.6658
     0.7427   0.7459   1.2338   1.2895   1.4826   1.5990   1.7073   2.0170
     2.0894   2.0900   2.2850   2.2890   2.3453   2.3854   2.5210   2.6406
     3.1851   3.2971   3.3931   3.4310   3.5373   3.6166   3.6602   3.8995
     3.9461   4.0888   4.1562   4.1781   4.2683   4.3004   4.5306   4.6747
     4.7134   5.8927   6.3437

          k = 0.0461 0.0443 0.0000 ( 29115 PWs)   bands (ev):

   -84.3769 -84.3548 -83.8885 -83.8665 -83.8022 -83.7803 -70.7209 -70.6855
   -70.2306 -70.1952 -70.1552 -70.1201 -43.8409 -43.7780 -43.7295 -43.6592
   -43.6086 -43.4512 -43.3636 -43.2739 -43.1761 -43.1422 -43.1231 -43.0992
   -43.0750 -43.0261 -43.0242 -42.9841 -42.9767 -42.8913 -40.7940 -40.7100
   -40.6847 -40.6667 -40.6481 -40.4690 -40.3175 -40.2354 -40.1926 -40.1692
   -40.1407 -40.1117 -40.1114 -40.0875 -40.0473 -40.0181 -39.9877 -39.9056
    -5.0626  -3.5579  -3.3661  -3.2395  -3.1997  -2.9997  -2.9877  -2.7444
    -2.6731  -2.6379  -2.5554  -2.4302  -2.0666  -1.7260  -1.6794  -1.2054
    -1.0962  -0.9725  -0.9022  -0.6215  -0.4046  -0.3246  -0.1746  -0.1513
    -0.0044   0.0721   0.3066   0.4138   0.4850   0.5566   0.5686   0.5786
     0.6351   0.7721   1.2200   1.2523   1.3859   1.4595   1.4899   1.7777
     1.8769   1.8950   2.0000   2.0383   2.1287   2.2304   2.2510   2.5441
     2.9747   2.9938   3.1491   3.2618   3.4200   3.4346   3.4932   3.7446
     3.8710   3.9623   4.0198   4.1437   4.3619   4.4282   4.5039   4.6424
     4.6864   5.7166   6.2543

          k = 0.0461 0.0620 0.0000 ( 29093 PWs)   bands (ev):

   -84.3768 -84.3549 -83.8885 -83.8665 -83.8022 -83.7803 -70.7210 -70.6855
   -70.2307 -70.1952 -70.1553 -70.1200 -43.8372 -43.7738 -43.7280 -43.6534
   -43.6064 -43.4515 -43.3604 -43.2705 -43.1712 -43.1406 -43.1226 -43.0989
   -43.0692 -43.0249 -43.0220 -42.9840 -42.9771 -42.8916 -40.7990 -40.7162
   -40.6866 -40.6740 -40.6507 -40.4689 -40.3223 -40.2404 -40.2001 -40.1713
   -40.1447 -40.1166 -40.1129 -40.0886 -40.0492 -40.0182 -39.9876 -39.9055
    -4.7623  -3.4203  -3.2755  -2.9988  -2.9931  -2.7907  -2.7840  -2.5523
    -2.5029  -2.4269  -2.3707  -2.2147  -1.8155  -1.6084  -1.5716  -1.1899
    -1.0467  -1.0388  -0.9579  -0.8008  -0.5588  -0.4942  -0.3295  -0.2933
     0.0827   0.2128   0.2546   0.2749   0.3465   0.4044   0.4617   0.5079
     0.7757   0.8562   1.0593   1.1302   1.2170   1.2631   1.2717   1.3955
     1.5388   1.6334   1.8298   1.8780   2.0366   2.1083   2.1974   2.4808
     2.4827   2.6831   2.8973   3.2297   3.2475   3.4045   3.4754   3.6811
     3.8007   3.8946   4.0275   4.0717   4.3195   4.3708   4.4570   4.6268
     4.9159   5.1273   5.3894

          k = 0.0461 0.0797 0.0000 ( 29086 PWs)   bands (ev):

   -84.3768 -84.3549 -83.8884 -83.8665 -83.8021 -83.7803 -70.7211 -70.6855
   -70.2307 -70.1952 -70.1554 -70.1200 -43.8340 -43.7703 -43.7268 -43.6481
   -43.6045 -43.4518 -43.3576 -43.2676 -43.1682 -43.1380 -43.1224 -43.0986
   -43.0640 -43.0238 -43.0202 -42.9838 -42.9774 -42.8919 -40.8032 -40.7223
   -40.6884 -40.6795 -40.6529 -40.4690 -40.3264 -40.2445 -40.2069 -40.1734
   -40.1494 -40.1192 -40.1142 -40.0894 -40.0508 -40.0184 -39.9876 -39.9055
    -4.4196  -3.2899  -3.2615  -2.7766  -2.7351  -2.5593  -2.5412  -2.3138
    -2.3038  -2.2483  -2.1183  -1.9633  -1.7546  -1.4652  -1.4472  -1.3917
    -1.1544  -1.1127  -0.8970  -0.8933  -0.5750  -0.5576  -0.4837  -0.4333
    -0.0057   0.0844   0.0870   0.1823   0.2194   0.4102   0.4383   0.4564
     0.5468   0.5661   0.9018   0.9145   1.0649   1.0934   1.0977   1.1893
     1.2736   1.7030   1.8319   1.9117   1.9722   2.1628   2.1848   2.1949
     2.3501   2.6161   2.8436   3.0379   3.0853   3.5026   3.5149   3.6512
     3.7427   3.7640   3.9502   4.0183   4.1308   4.3252   4.4837   4.5145
     4.5759   4.5782   5.3577

          k = 0.0461 0.0974 0.0000 ( 29099 PWs)   bands (ev):

   -84.3768 -84.3549 -83.8884 -83.8665 -83.8021 -83.7803 -70.7211 -70.6855
   -70.2308 -70.1952 -70.1554 -70.1200 -43.8320 -43.7684 -43.7261 -43.6450
   -43.6034 -43.4520 -43.3559 -43.2658 -43.1671 -43.1360 -43.1223 -43.0984
   -43.0609 -43.0232 -43.0191 -42.9837 -42.9776 -42.8922 -40.8056 -40.7261
   -40.6894 -40.6824 -40.6543 -40.4691 -40.3286 -40.2468 -40.2110 -40.1746
   -40.1527 -40.1200 -40.1152 -40.0898 -40.0518 -40.0185 -39.9876 -39.9055
    -4.1325  -3.3921  -3.1505  -2.6107  -2.5468  -2.3666  -2.3330  -2.2047
    -2.0937  -2.0303  -1.9775  -1.8828  -1.6381  -1.5886  -1.5506  -1.4472
    -1.3567  -1.0953  -0.8531  -0.8233  -0.6120  -0.5299  -0.3761  -0.2755
    -0.2443  -0.1872  -0.1086  -0.0456   0.0322   0.0649   0.3158   0.4266
     0.6538   0.6817   0.6926   0.7919   0.8933   0.9460   1.0533   1.0986
     1.3352   1.6080   1.7561   2.0230   2.0579   2.1440   2.1493   2.2557
     2.3595   2.5949   2.8915   2.9268   3.3045   3.5105   3.5132   3.6254
     3.6278   3.7408   3.7740   3.8988   3.9358   3.9788   4.1339   4.3772
     4.5321   4.5599   5.7722

          k = 0.0461 0.1151 0.0000 ( 29099 PWs)   bands (ev):

   -84.3768 -84.3549 -83.8884 -83.8665 -83.8021 -83.7803 -70.7211 -70.6855
   -70.2308 -70.1952 -70.1554 -70.1200 -43.8320 -43.7684 -43.7261 -43.6450
   -43.6034 -43.4520 -43.3559 -43.2658 -43.1671 -43.1360 -43.1223 -43.0984
   -43.0609 -43.0232 -43.0191 -42.9837 -42.9776 -42.8922 -40.8056 -40.7261
   -40.6894 -40.6824 -40.6543 -40.4691 -40.3286 -40.2468 -40.2110 -40.1746
   -40.1527 -40.1200 -40.1152 -40.0898 -40.0518 -40.0185 -39.9876 -39.9055
    -4.1325  -3.3921  -3.1505  -2.6107  -2.5468  -2.3666  -2.3330  -2.2047
    -2.0937  -2.0303  -1.9775  -1.8828  -1.6381  -1.5886  -1.5506  -1.4472
    -1.3567  -1.0953  -0.8531  -0.8233  -0.6120  -0.5299  -0.3761  -0.2755
    -0.2443  -0.1872  -0.1086  -0.0456   0.0322   0.0649   0.3158   0.4266
     0.6538   0.6817   0.6926   0.7919   0.8933   0.9460   1.0533   1.0986
     1.3352   1.6080   1.7561   2.0230   2.0579   2.1440   2.1493   2.2557
     2.3595   2.5949   2.8915   2.9268   3.3045   3.5105   3.5132   3.6254
     3.6278   3.7408   3.7740   3.8988   3.9358   3.9788   4.1339   4.3772
     4.5321   4.5599   5.7722

          k = 0.0461-0.0797 0.0000 ( 29086 PWs)   bands (ev):

   -84.3768 -84.3549 -83.8884 -83.8665 -83.8021 -83.7803 -70.7211 -70.6855
   -70.2307 -70.1952 -70.1554 -70.1200 -43.8340 -43.7703 -43.7268 -43.6481
   -43.6045 -43.4518 -43.3576 -43.2676 -43.1682 -43.1380 -43.1224 -43.0986
   -43.0640 -43.0238 -43.0202 -42.9838 -42.9774 -42.8919 -40.8032 -40.7223
   -40.6884 -40.6795 -40.6529 -40.4690 -40.3264 -40.2445 -40.2069 -40.1734
   -40.1494 -40.1192 -40.1142 -40.0894 -40.0508 -40.0184 -39.9876 -39.9055
    -4.4196  -3.2899  -3.2615  -2.7766  -2.7351  -2.5593  -2.5412  -2.3138
    -2.3038  -2.2483  -2.1183  -1.9633  -1.7546  -1.4652  -1.4472  -1.3917
    -1.1544  -1.1127  -0.8970  -0.8933  -0.5750  -0.5576  -0.4837  -0.4333
    -0.0058   0.0844   0.0870   0.1823   0.2194   0.4102   0.4383   0.4564
     0.5468   0.5661   0.9018   0.9145   1.0649   1.0934   1.0977   1.1893
     1.2736   1.7030   1.8319   1.9117   1.9722   2.1628   2.1848   2.1949
     2.3501   2.6161   2.8437   3.0379   3.0853   3.5026   3.5149   3.6512
     3.7427   3.7640   3.9502   4.0183   4.1308   4.3252   4.4837   4.5145
     4.5759   4.5782   5.3577

          k = 0.0461-0.0620 0.0000 ( 29093 PWs)   bands (ev):

   -84.3768 -84.3549 -83.8885 -83.8665 -83.8022 -83.7803 -70.7210 -70.6855
   -70.2307 -70.1952 -70.1553 -70.1200 -43.8372 -43.7738 -43.7280 -43.6534
   -43.6064 -43.4515 -43.3604 -43.2705 -43.1712 -43.1406 -43.1226 -43.0989
   -43.0692 -43.0249 -43.0220 -42.9840 -42.9771 -42.8916 -40.7990 -40.7162
   -40.6866 -40.6740 -40.6507 -40.4689 -40.3223 -40.2404 -40.2001 -40.1713
   -40.1447 -40.1166 -40.1129 -40.0886 -40.0492 -40.0182 -39.9876 -39.9055
    -4.7623  -3.4203  -3.2755  -2.9988  -2.9931  -2.7907  -2.7840  -2.5523
    -2.5029  -2.4269  -2.3707  -2.2147  -1.8155  -1.6084  -1.5716  -1.1899
    -1.0467  -1.0388  -0.9579  -0.8008  -0.5588  -0.4942  -0.3295  -0.2933
     0.0828   0.2128   0.2546   0.2749   0.3465   0.4044   0.4617   0.5079
     0.7757   0.8562   1.0593   1.1302   1.2170   1.2631   1.2717   1.3955
     1.5388   1.6334   1.8298   1.8780   2.0366   2.1083   2.1974   2.4808
     2.4827   2.6831   2.8973   3.2297   3.2475   3.4045   3.4754   3.6812
     3.8006   3.8946   4.0275   4.0717   4.3195   4.3708   4.4570   4.6268
     4.9159   5.1273   5.3894

          k = 0.0461-0.0443 0.0000 ( 29115 PWs)   bands (ev):

   -84.3769 -84.3548 -83.8885 -83.8665 -83.8022 -83.7803 -70.7209 -70.6855
   -70.2306 -70.1952 -70.1552 -70.1201 -43.8409 -43.7780 -43.7295 -43.6592
   -43.6086 -43.4512 -43.3636 -43.2739 -43.1761 -43.1422 -43.1231 -43.0992
   -43.0750 -43.0261 -43.0242 -42.9841 -42.9767 -42.8913 -40.7940 -40.7100
   -40.6847 -40.6667 -40.6481 -40.4690 -40.3175 -40.2354 -40.1926 -40.1692
   -40.1407 -40.1117 -40.1114 -40.0875 -40.0473 -40.0181 -39.9877 -39.9056
    -5.0626  -3.5579  -3.3661  -3.2395  -3.1997  -2.9997  -2.9877  -2.7444
    -2.6731  -2.6379  -2.5554  -2.4302  -2.0666  -1.7260  -1.6794  -1.2054
    -1.0962  -0.9725  -0.9022  -0.6215  -0.4046  -0.3246  -0.1746  -0.1513
    -0.0044   0.0721   0.3066   0.4138   0.4850   0.5566   0.5686   0.5786
     0.6351   0.7721   1.2200   1.2523   1.3859   1.4595   1.4899   1.7777
     1.8769   1.8950   2.0000   2.0383   2.1287   2.2304   2.2510   2.5441
     2.9747   2.9938   3.1491   3.2618   3.4200   3.4346   3.4932   3.7446
     3.8710   3.9623   4.0198   4.1437   4.3619   4.4282   4.5039   4.6424
     4.6864   5.7166   6.2543

          k = 0.0461-0.0266 0.0000 ( 29103 PWs)   bands (ev):

   -84.3769 -84.3548 -83.8885 -83.8665 -83.8022 -83.7803 -70.7209 -70.6855
   -70.2305 -70.1952 -70.1552 -70.1201 -43.8439 -43.7818 -43.7308 -43.6640
   -43.6105 -43.4511 -43.3663 -43.2767 -43.1811 -43.1430 -43.1237 -43.0993
   -43.0796 -43.0272 -43.0260 -42.9843 -42.9765 -42.8911 -40.7894 -40.7054
   -40.6832 -40.6596 -40.6460 -40.4691 -40.3131 -40.2309 -40.1868 -40.1674
   -40.1379 -40.1109 -40.1055 -40.0865 -40.0458 -40.0179 -39.9879 -39.9058
    -5.2791  -3.6321  -3.4999  -3.4024  -3.3759  -3.1506  -3.1370  -2.8678
    -2.8671  -2.7414  -2.6363  -2.6085  -2.2118  -1.9251  -1.8415  -1.1861
    -1.1481  -0.9137  -0.7994  -0.4576  -0.2510  -0.2230  -0.1679  -0.0880
    -0.0456  -0.0340   0.3075   0.4170   0.4781   0.5444   0.6137   0.6658
     0.7427   0.7459   1.2338   1.2895   1.4826   1.5990   1.7073   2.0170
     2.0894   2.0900   2.2850   2.2890   2.3453   2.3854   2.5210   2.6406
     3.1851   3.2971   3.3931   3.4310   3.5373   3.6166   3.6602   3.8995
     3.9461   4.0888   4.1562   4.1781   4.2683   4.3004   4.5306   4.6747
     4.7134   5.8928   6.3437

          k = 0.0461-0.0089 0.0000 ( 29084 PWs)   bands (ev):

   -84.3769 -84.3548 -83.8885 -83.8665 -83.8022 -83.7803 -70.7208 -70.6855
   -70.2305 -70.1952 -70.1551 -70.1201 -43.8457 -43.7840 -43.7315 -43.6667
   -43.6117 -43.4510 -43.3679 -43.2783 -43.1842 -43.1433 -43.1241 -43.0994
   -43.0821 -43.0278 -43.0271 -42.9843 -42.9764 -42.8911 -40.7867 -40.7030
   -40.6823 -40.6552 -40.6448 -40.4692 -40.3105 -40.2282 -40.1837 -40.1665
   -40.1363 -40.1106 -40.1016 -40.0858 -40.0449 -40.0178 -39.9881 -39.9060
    -5.3917  -3.6310  -3.5869  -3.5119  -3.4865  -3.2254  -3.2159  -2.9632
    -2.9281  -2.7820  -2.7157  -2.6754  -2.2367  -2.1277  -1.9019  -1.1771
    -1.1537  -0.9398  -0.6985  -0.3553  -0.2181  -0.1948  -0.1865  -0.1073
    -0.0579   0.0765   0.2168   0.2779   0.4938   0.5298   0.6741   0.6872
     0.7783   0.8418   1.1366   1.4090   1.6195   1.6622   1.8707   2.1497
     2.1687   2.1750   2.2746   2.2968   2.4862   2.6065   2.7047   2.8198
     3.2482   3.3438   3.5557   3.6417   3.6707   3.7789   3.8066   3.8705
     3.9657   4.0292   4.0966   4.3540   4.3969   4.5547   4.6620   4.7889
     5.0647   5.4561   5.6875

          k = 0.0461 0.0089 0.0000 ( 29084 PWs)   bands (ev):

   -84.3769 -84.3548 -83.8885 -83.8665 -83.8022 -83.7803 -70.7208 -70.6855
   -70.2305 -70.1952 -70.1551 -70.1201 -43.8457 -43.7840 -43.7315 -43.6667
   -43.6117 -43.4510 -43.3679 -43.2783 -43.1842 -43.1433 -43.1241 -43.0994
   -43.0821 -43.0278 -43.0271 -42.9843 -42.9764 -42.8911 -40.7867 -40.7030
   -40.6823 -40.6552 -40.6448 -40.4692 -40.3105 -40.2282 -40.1837 -40.1665
   -40.1363 -40.1106 -40.1016 -40.0858 -40.0449 -40.0178 -39.9881 -39.9060
    -5.3917  -3.6310  -3.5869  -3.5119  -3.4865  -3.2254  -3.2159  -2.9632
    -2.9281  -2.7820  -2.7157  -2.6754  -2.2367  -2.1277  -1.9019  -1.1771
    -1.1537  -0.9398  -0.6985  -0.3553  -0.2181  -0.1948  -0.1865  -0.1073
    -0.0579   0.0766   0.2168   0.2779   0.4938   0.5298   0.6741   0.6872
     0.7783   0.8418   1.1366   1.4090   1.6195   1.6622   1.8707   2.1497
     2.1687   2.1750   2.2746   2.2968   2.4862   2.6065   2.7047   2.8198
     3.2482   3.3438   3.5557   3.6417   3.6707   3.7789   3.8066   3.8705
     3.9657   4.0292   4.0966   4.3540   4.3969   4.5547   4.6620   4.7889
     5.0647   5.4561   5.6875

          k = 0.0614 0.0354 0.0000 ( 29119 PWs)   bands (ev):

   -84.3737 -84.3581 -83.8853 -83.8697 -83.7990 -83.7835 -70.7157 -70.6907
   -70.2254 -70.2005 -70.1501 -70.1252 -43.7869 -43.7723 -43.7360 -43.6537
   -43.6153 -43.5085 -43.3099 -43.2209 -43.1704 -43.1364 -43.1294 -43.1050
   -43.0705 -43.0337 -43.0324 -43.0187 -42.9896 -42.9474 -40.7460 -40.7043
   -40.6884 -40.6613 -40.6509 -40.5185 -40.2687 -40.1876 -40.1867 -40.1718
   -40.1353 -40.1156 -40.1063 -40.0915 -40.0440 -40.0360 -40.0227 -39.9556
    -4.8824  -3.6292  -3.1524  -3.1440  -3.0497  -2.9359  -2.8709  -2.6209
    -2.6121  -2.5687  -2.4135  -2.4019  -2.0198  -1.6040  -1.5489  -1.1406
    -1.1321  -1.0828  -0.8631  -0.7420  -0.5036  -0.4705  -0.1666  -0.1515
     0.0993   0.1034   0.3763   0.4208   0.4925   0.4962   0.5272   0.5807
     0.6391   0.8013   1.0483   1.1041   1.2704   1.3763   1.5490   1.5884
     1.6441   1.6954   1.8484   1.9350   1.9557   2.1972   2.2968   2.5722
     2.8509   2.8774   2.9259   3.1838   3.2003   3.2942   3.3502   3.6071
     3.6410   3.7605   3.9139   3.9536   4.3256   4.4502   4.6022   4.6607
     4.6821   6.3657   6.4440

          k = 0.0614 0.0531 0.0000 ( 29127 PWs)   bands (ev):

   -84.3736 -84.3581 -83.8853 -83.8697 -83.7990 -83.7835 -70.7158 -70.6907
   -70.2255 -70.2004 -70.1501 -70.1252 -43.7839 -43.7690 -43.7354 -43.6493
   -43.6143 -43.5092 -43.3072 -43.2181 -43.1662 -43.1356 -43.1296 -43.1050
   -43.0661 -43.0339 -43.0322 -43.0173 -42.9898 -42.9480 -40.7503 -40.7088
   -40.6892 -40.6674 -40.6518 -40.5177 -40.2728 -40.1925 -40.1917 -40.1726
   -40.1382 -40.1158 -40.1110 -40.0917 -40.0448 -40.0358 -40.0226 -39.9547
    -4.6430  -3.6133  -3.0320  -2.9839  -2.9229  -2.7927  -2.7071  -2.4877
    -2.4869  -2.3556  -2.3222  -2.2070  -1.8643  -1.5552  -1.4558  -1.2361
    -1.0474  -0.9914  -0.9167  -0.8994  -0.6477  -0.6330  -0.2377  -0.2023
     0.1682   0.2249   0.2724   0.3381   0.3816   0.4242   0.4338   0.5355
     0.7722   0.9028   0.9140   1.0256   1.1601   1.1602   1.1907   1.2479
     1.4654   1.5479   1.8616   1.8764   1.9553   2.0860   2.3104   2.4626
     2.5065   2.6813   2.7537   3.0402   3.2098   3.2471   3.2569   3.4535
     3.5629   3.7360   3.8762   3.9230   4.2334   4.3694   4.5831   4.6220
     4.9543   5.9172   6.2730

          k = 0.0614 0.0708 0.0000 ( 29111 PWs)   bands (ev):

   -84.3736 -84.3581 -83.8852 -83.8697 -83.7990 -83.7835 -70.7159 -70.6907
   -70.2255 -70.2004 -70.1502 -70.1252 -43.7807 -43.7657 -43.7349 -43.6446
   -43.6135 -43.5101 -43.3044 -43.2152 -43.1627 -43.1338 -43.1299 -43.1052
   -43.0614 -43.0345 -43.0321 -43.0155 -42.9900 -42.9489 -40.7542 -40.7137
   -40.6901 -40.6727 -40.6529 -40.5171 -40.2766 -40.1984 -40.1954 -40.1736
   -40.1417 -40.1163 -40.1143 -40.0921 -40.0462 -40.0352 -40.0225 -39.9541
    -4.3377  -3.5591  -3.0065  -2.7793  -2.7328  -2.6143  -2.5050  -2.3316
    -2.3021  -2.1835  -2.1507  -1.9531  -1.7187  -1.5611  -1.4286  -1.3831
    -1.1168  -1.0783  -0.9641  -0.8977  -0.7481  -0.5264  -0.3521  -0.3293
    -0.0009   0.1226   0.2011   0.2012   0.2321   0.3854   0.4408   0.4656
     0.5058   0.6442   0.8650   0.8906   1.0172   1.0603   1.0712   1.1261
     1.2837   1.6423   1.7840   1.9618   1.9681   2.1671   2.1809   2.2765
     2.3789   2.5616   2.8451   2.8532   3.1250   3.3413   3.3925   3.4484
     3.6264   3.7506   3.8141   3.8629   4.0874   4.2174   4.3883   4.4824
     5.1440   5.4000   5.4602

          k = 0.0614 0.0885 0.0000 ( 29117 PWs)   bands (ev):

   -84.3736 -84.3581 -83.8852 -83.8697 -83.7989 -83.7835 -70.7159 -70.6907
   -70.2256 -70.2004 -70.1502 -70.1252 -43.7782 -43.7634 -43.7346 -43.6410
   -43.6129 -43.5109 -43.3022 -43.2129 -43.1607 -43.1318 -43.1302 -43.1053
   -43.0579 -43.0353 -43.0321 -43.0141 -42.9901 -42.9497 -40.7568 -40.7177
   -40.6909 -40.6761 -40.6540 -40.5168 -40.2791 -40.2028 -40.1979 -40.1745
   -40.1448 -40.1170 -40.1156 -40.0925 -40.0476 -40.0348 -40.0224 -39.9538
    -4.0189  -3.5003  -3.1065  -2.5688  -2.5367  -2.4014  -2.2856  -2.1431
    -2.1016  -2.0404  -2.0390  -1.9368  -1.6027  -1.5950  -1.5277  -1.4605
    -1.1976  -1.1137  -1.0393  -0.9116  -0.6463  -0.4444  -0.4421  -0.2868
    -0.2112  -0.1486  -0.1017  -0.0314  -0.0159   0.0996   0.3177   0.4262
     0.6625   0.6656   0.7032   0.7943   0.9003   0.9503   1.0694   1.0715
     1.3364   1.5961   1.7621   2.0117   2.0523   2.1506   2.1550   2.2738
     2.3669   2.6915   2.7962   2.9367   3.3516   3.4434   3.4767   3.5580
     3.6508   3.7374   3.7596   3.8377   3.9713   4.0430   4.1388   4.3241
     4.5128   4.5940   5.7875

          k = 0.0614 0.1063 0.0000 ( 29092 PWs)   bands (ev):

   -84.3736 -84.3581 -83.8852 -83.8697 -83.7989 -83.7835 -70.7159 -70.6907
   -70.2256 -70.2004 -70.1503 -70.1252 -43.7772 -43.7626 -43.7345 -43.6396
   -43.6127 -43.5112 -43.3014 -43.2121 -43.1602 -43.1309 -43.1303 -43.1054
   -43.0565 -43.0356 -43.0321 -43.0135 -42.9901 -42.9500 -40.7577 -40.7192
   -40.6912 -40.6773 -40.6544 -40.5167 -40.2800 -40.2045 -40.1987 -40.1748
   -40.1461 -40.1173 -40.1159 -40.0926 -40.0482 -40.0346 -40.0224 -39.9537
    -3.8443  -3.4749  -3.2055  -2.4625  -2.4459  -2.2585  -2.1731  -2.0893
    -1.9938  -1.9857  -1.9272  -1.9186  -1.7894  -1.7508  -1.6259  -1.3582
    -1.2427  -1.0699  -0.8193  -0.7947  -0.5782  -0.5668  -0.5096  -0.4617
    -0.4329  -0.3719  -0.1532  -0.1233  -0.0228   0.0140   0.4193   0.4717
     0.5424   0.5554   0.8302   0.8802   0.8945   0.9209   0.9319   0.9498
     1.5312   1.5369   1.5521   2.1054   2.1565   2.1707   2.1918   2.2680
     2.5006   2.5549   2.6077   3.4065   3.4733   3.5172   3.5778   3.6134
     3.7240   3.7723   3.8181   3.8609   3.8762   3.9491   3.9710   4.0372
     4.0520   4.2503   6.1699

          k = 0.0614 0.1240 0.0000 ( 29117 PWs)   bands (ev):

   -84.3736 -84.3581 -83.8852 -83.8697 -83.7989 -83.7835 -70.7159 -70.6907
   -70.2256 -70.2004 -70.1502 -70.1252 -43.7782 -43.7634 -43.7346 -43.6410
   -43.6129 -43.5109 -43.3022 -43.2129 -43.1607 -43.1318 -43.1302 -43.1053
   -43.0579 -43.0353 -43.0321 -43.0141 -42.9901 -42.9497 -40.7568 -40.7177
   -40.6909 -40.6761 -40.6540 -40.5168 -40.2791 -40.2028 -40.1979 -40.1745
   -40.1448 -40.1170 -40.1156 -40.0925 -40.0476 -40.0348 -40.0224 -39.9538
    -4.0189  -3.5003  -3.1065  -2.5688  -2.5367  -2.4014  -2.2856  -2.1431
    -2.1016  -2.0404  -2.0390  -1.9368  -1.6027  -1.5950  -1.5277  -1.4605
    -1.1976  -1.1137  -1.0393  -0.9116  -0.6463  -0.4444  -0.4421  -0.2868
    -0.2112  -0.1486  -0.1017  -0.0314  -0.0159   0.0996   0.3177   0.4262
     0.6625   0.6656   0.7032   0.7943   0.9003   0.9503   1.0694   1.0715
     1.3364   1.5961   1.7621   2.0117   2.0523   2.1506   2.1550   2.2738
     2.3669   2.6915   2.7962   2.9367   3.3516   3.4434   3.4767   3.5580
     3.6508   3.7374   3.7596   3.8377   3.9713   4.0430   4.1388   4.3241
     4.5128   4.5940   5.7875

          k = 0.0614-0.0708 0.0000 ( 29111 PWs)   bands (ev):

   -84.3736 -84.3581 -83.8852 -83.8697 -83.7990 -83.7835 -70.7159 -70.6907
   -70.2255 -70.2004 -70.1502 -70.1252 -43.7807 -43.7657 -43.7349 -43.6446
   -43.6135 -43.5101 -43.3044 -43.2152 -43.1627 -43.1338 -43.1299 -43.1052
   -43.0614 -43.0345 -43.0321 -43.0155 -42.9900 -42.9489 -40.7542 -40.7137
   -40.6901 -40.6727 -40.6529 -40.5171 -40.2766 -40.1984 -40.1954 -40.1736
   -40.1417 -40.1163 -40.1143 -40.0921 -40.0462 -40.0352 -40.0225 -39.9541
    -4.3377  -3.5591  -3.0065  -2.7793  -2.7328  -2.6143  -2.5050  -2.3316
    -2.3021  -2.1835  -2.1507  -1.9531  -1.7187  -1.5611  -1.4286  -1.3831
    -1.1168  -1.0783  -0.9641  -0.8977  -0.7481  -0.5264  -0.3521  -0.3293
    -0.0009   0.1226   0.2011   0.2012   0.2321   0.3854   0.4408   0.4656
     0.5058   0.6442   0.8650   0.8906   1.0172   1.0603   1.0712   1.1261
     1.2837   1.6423   1.7840   1.9618   1.9681   2.1671   2.1809   2.2765
     2.3789   2.5616   2.8451   2.8532   3.1250   3.3413   3.3925   3.4484
     3.6264   3.7506   3.8141   3.8629   4.0874   4.2174   4.3883   4.4824
     5.1440   5.4000   5.4602

          k = 0.0614-0.0531 0.0000 ( 29127 PWs)   bands (ev):

[...]
   -43.1015 -43.0527 -43.0416 -43.0157 -43.0081 -42.9972 -40.7088 -40.7014
   -40.6921 -40.6692 -40.6538 -40.5721 -40.2219 -40.1942 -40.1765 -40.1407
   -40.1368 -40.1186 -40.1113 -40.0950 -40.0908 -40.0402 -40.0271 -40.0097
    -3.9381  -3.8587  -2.8801  -2.6324  -2.6117  -2.5062  -2.4132  -2.2475
    -2.1713  -2.1473  -1.9841  -1.8189  -1.6690  -1.6339  -1.4446  -1.4115
    -1.2506  -1.2401  -1.0194  -0.8372  -0.6716  -0.3278  -0.3266  -0.2402
    -0.2105  -0.0932   0.0127   0.1304   0.1859   0.2815   0.3461   0.4117
     0.6889   0.6953   0.7632   0.7690   0.7976   0.8168   1.0709   1.0773
     1.4832   1.4884   1.8963   1.8997   1.9870   2.0665   2.1183   2.3499
     2.4971   2.5012   2.8839   2.8991   2.9361   3.2529   3.3291   3.3383
     3.4351   3.4713   3.7398   3.8479   4.1595   4.1712   4.3926   4.4357
     5.2163   5.4444   5.7405

          k = 0.0768-0.0620 0.0000 ( 29136 PWs)   bands (ev):

   -84.3699 -84.3618 -83.8815 -83.8735 -83.7952 -83.7872 -70.7098 -70.6967
   -70.2195 -70.2065 -70.1442 -70.1312 -43.7598 -43.7445 -43.7168 -43.6397
   -43.6225 -43.5765 -43.2419 -43.1568 -43.1548 -43.1369 -43.1291 -43.1119
   -43.1000 -43.0562 -43.0405 -43.0151 -43.0085 -42.9967 -40.7057 -40.7006
   -40.6911 -40.6662 -40.6536 -40.5730 -40.2200 -40.1906 -40.1764 -40.1399
   -40.1347 -40.1175 -40.1101 -40.0950 -40.0909 -40.0394 -40.0275 -40.0106
    -4.2155  -3.8263  -2.8444  -2.8134  -2.6750  -2.6269  -2.5352  -2.3638
    -2.2604  -2.2195  -2.0747  -1.9427  -1.6723  -1.5391  -1.4872  -1.4311
    -1.1055  -1.1020  -0.9615  -0.9255  -0.7400  -0.5463  -0.1855  -0.1612
     0.0288   0.2460   0.2764   0.2800   0.3463   0.3726   0.4156   0.4639
     0.6158   0.6720   0.7801   0.8250   0.8872   0.8968   0.9701   1.0171
     1.3669   1.6600   1.7047   1.9802   1.9860   2.0222   2.2030   2.3797
     2.4066   2.5113   2.7035   2.8340   2.9376   3.1244   3.1363   3.2531
     3.2893   3.3804   3.8452   3.9061   4.2860   4.3322   4.6034   4.6125
     5.3708   5.8164   6.0323

          k = 0.0768-0.0443 0.0000 ( 29121 PWs)   bands (ev):

   -84.3699 -84.3618 -83.8815 -83.8735 -83.7952 -83.7872 -70.7097 -70.6968
   -70.2194 -70.2065 -70.1441 -70.1313 -43.7622 -43.7442 -43.7194 -43.6430
   -43.6221 -43.5751 -43.2443 -43.1598 -43.1571 -43.1359 -43.1297 -43.1115
   -43.0991 -43.0597 -43.0394 -43.0150 -43.0088 -42.9962 -40.7023 -40.6987
   -40.6901 -40.6620 -40.6541 -40.5745 -40.2169 -40.1861 -40.1771 -40.1373
   -40.1324 -40.1173 -40.1076 -40.0956 -40.0919 -40.0382 -40.0280 -40.0121
    -4.4479  -3.7583  -2.9439  -2.9010  -2.7360  -2.7016  -2.6444  -2.4720
    -2.3519  -2.3269  -2.1639  -2.1558  -1.8035  -1.4820  -1.4724  -1.3391
    -0.9993  -0.9679  -0.9177  -0.9078  -0.7564  -0.7381  -0.1853  -0.1188
     0.1962   0.2526   0.3066   0.3160   0.3315   0.5021   0.5433   0.6166
     0.6632   0.7148   0.8218   0.8704   0.9927   1.0560   1.1012   1.1342
     1.2261   1.5757   1.8488   1.9095   1.9986   2.0294   2.2681   2.4040
     2.4817   2.5176   2.7308   2.8940   3.0592   3.1271   3.1460   3.2128
     3.3085   3.4270   3.9032   3.9076   4.3522   4.4062   4.6719   4.6759
     5.0766   5.9782   6.7348

          k = 0.0768-0.0266 0.0000 ( 29125 PWs)   bands (ev):

   -84.3699 -84.3618 -83.8815 -83.8735 -83.7953 -83.7872 -70.7097 -70.6968
   -70.2194 -70.2065 -70.1441 -70.1313 -43.7644 -43.7437 -43.7217 -43.6455
   -43.6219 -43.5742 -43.2463 -43.1626 -43.1589 -43.1352 -43.1297 -43.1113
   -43.0989 -43.0624 -43.0386 -43.0153 -43.0090 -42.9957 -40.6996 -40.6964
   -40.6890 -40.6576 -40.6555 -40.5763 -40.2132 -40.1822 -40.1786 -40.1334
   -40.1303 -40.1185 -40.1046 -40.0967 -40.0935 -40.0371 -40.0284 -40.0139
    -4.6107  -3.6498  -3.0393  -2.9336  -2.8268  -2.7589  -2.7330  -2.5609
    -2.4436  -2.3929  -2.3311  -2.2200  -1.8563  -1.5438  -1.5095  -1.2405
    -1.0545  -0.9782  -0.8992  -0.8803  -0.6636  -0.6184  -0.2376  -0.2037
     0.1693   0.2245   0.2735   0.2940   0.4056   0.4136   0.4458   0.5372
     0.7687   0.8479   0.9317   0.9756   1.0827   1.1723   1.2207   1.4034
     1.4089   1.5434   1.8579   1.8945   1.9382   2.0823   2.2893   2.4539
     2.4912   2.6787   2.8024   3.0241   3.1304   3.2213   3.3635   3.4643
     3.5295   3.7587   3.8281   3.9316   4.2523   4.3915   4.5756   4.6002
     4.9332   5.8645   6.2202

          k = 0.0768-0.0089 0.0000 ( 29095 PWs)   bands (ev):

   -84.3699 -84.3618 -83.8815 -83.8735 -83.7953 -83.7872 -70.7097 -70.6968
   -70.2193 -70.2065 -70.1440 -70.1313 -43.7656 -43.7432 -43.7231 -43.6469
   -43.6219 -43.5738 -43.2473 -43.1642 -43.1599 -43.1347 -43.1296 -43.1113
   -43.0989 -43.0638 -43.0382 -43.0155 -43.0091 -42.9954 -40.6982 -40.6949
   -40.6880 -40.6568 -40.6548 -40.5776 -40.2105 -40.1799 -40.1798 -40.1294
   -40.1289 -40.1206 -40.1028 -40.0976 -40.0944 -40.0364 -40.0286 -40.0151
    -4.6940  -3.5295  -3.1442  -2.9293  -2.8720  -2.8178  -2.7823  -2.6125
    -2.4925  -2.4485  -2.4043  -2.2418  -1.8047  -1.6526  -1.5997  -1.1964
    -1.0918  -1.0065  -0.9071  -0.7825  -0.5174  -0.5068  -0.3490  -0.3272
     0.0824   0.1894   0.2637   0.2741   0.3572   0.3917   0.4731   0.4985
     0.7710   0.8533   0.9866   1.0436   1.1463   1.3167   1.3700   1.4647
     1.5216   1.6166   1.8255   1.8935   2.0178   2.1062   2.1688   2.4630
     2.4807   2.6719   2.9842   3.1579   3.2201   3.3778   3.5584   3.6990
     3.7062   3.8401   4.0755   4.0987   4.3402   4.4311   4.4510   4.4952
     4.9193   5.0805   5.3418

          k = 0.0768 0.0089 0.0000 ( 29095 PWs)   bands (ev):

   -84.3699 -84.3618 -83.8815 -83.8735 -83.7953 -83.7872 -70.7097 -70.6968
   -70.2193 -70.2065 -70.1440 -70.1313 -43.7656 -43.7432 -43.7231 -43.6469
   -43.6219 -43.5738 -43.2473 -43.1642 -43.1599 -43.1347 -43.1296 -43.1113
   -43.0989 -43.0638 -43.0382 -43.0155 -43.0091 -42.9954 -40.6982 -40.6949
   -40.6880 -40.6568 -40.6548 -40.5776 -40.2105 -40.1799 -40.1798 -40.1294
   -40.1289 -40.1206 -40.1028 -40.0976 -40.0944 -40.0364 -40.0286 -40.0151
    -4.6940  -3.5295  -3.1442  -2.9293  -2.8720  -2.8178  -2.7823  -2.6125
    -2.4925  -2.4485  -2.4043  -2.2418  -1.8047  -1.6526  -1.5997  -1.1964
    -1.0918  -1.0065  -0.9071  -0.7825  -0.5174  -0.5068  -0.3490  -0.3272
     0.0824   0.1894   0.2637   0.2741   0.3572   0.3917   0.4731   0.4985
     0.7710   0.8533   0.9866   1.0436   1.1463   1.3167   1.3700   1.4647
     1.5216   1.6166   1.8255   1.8935   2.0178   2.1062   2.1688   2.4630
     2.4807   2.6719   2.9842   3.1579   3.2201   3.3778   3.5584   3.6990
     3.7062   3.8401   4.0755   4.0987   4.3402   4.4311   4.4510   4.4952
     4.9193   5.0805   5.3418

          k = 0.0768 0.0266 0.0000 ( 29125 PWs)   bands (ev):

   -84.3699 -84.3618 -83.8815 -83.8735 -83.7953 -83.7872 -70.7097 -70.6968
   -70.2194 -70.2065 -70.1441 -70.1313 -43.7644 -43.7437 -43.7217 -43.6455
   -43.6219 -43.5742 -43.2463 -43.1626 -43.1589 -43.1352 -43.1297 -43.1113
   -43.0989 -43.0624 -43.0386 -43.0153 -43.0090 -42.9957 -40.6996 -40.6964
   -40.6890 -40.6576 -40.6555 -40.5763 -40.2132 -40.1822 -40.1786 -40.1334
   -40.1303 -40.1185 -40.1046 -40.0967 -40.0935 -40.0371 -40.0284 -40.0139
    -4.6107  -3.6498  -3.0393  -2.9336  -2.8268  -2.7589  -2.7330  -2.5609
    -2.4436  -2.3929  -2.3311  -2.2200  -1.8563  -1.5438  -1.5095  -1.2405
    -1.0545  -0.9782  -0.8992  -0.8803  -0.6636  -0.6184  -0.2376  -0.2037
     0.1693   0.2245   0.2735   0.2940   0.4056   0.4136   0.4458   0.5372
     0.7687   0.8479   0.9317   0.9756   1.0827   1.1723   1.2207   1.4034
     1.4089   1.5434   1.8579   1.8945   1.9382   2.0823   2.2893   2.4539
     2.4912   2.6787   2.8024   3.0241   3.1304   3.2213   3.3635   3.4643
     3.5295   3.7587   3.8281   3.9316   4.2523   4.3915   4.5756   4.6002
     4.9332   5.8645   6.2202

          k =-0.0922-0.0531 0.0000 ( 29104 PWs)   bands (ev):

   -84.3659 -84.3659 -83.8775 -83.8775 -83.7912 -83.7912 -70.7033 -70.7032
   -70.2130 -70.2129 -70.1379 -70.1375 -43.7525 -43.7525 -43.6505 -43.6505
   -43.6288 -43.6288 -43.1757 -43.1757 -43.1456 -43.1456 -43.1199 -43.1199
   -43.0847 -43.0847 -43.0473 -43.0473 -43.0035 -43.0035 -40.6992 -40.6991
   -40.6626 -40.6625 -40.6315 -40.6314 -40.1858 -40.1857 -40.1544 -40.1543
   -40.1278 -40.1276 -40.1024 -40.1020 -40.0707 -40.0702 -40.0334 -40.0330
    -4.0463  -4.0463  -2.8366  -2.8365  -2.6148  -2.6148  -2.4661  -2.4660
    -2.2435  -2.2435  -1.9766  -1.9766  -1.5912  -1.5911  -1.4833  -1.4833
    -1.0870  -1.0870  -1.0069  -1.0069  -0.5938  -0.5937  -0.0935  -0.0934
     0.1591   0.1591   0.2905   0.2906   0.4193   0.4193   0.4955   0.4956
     0.6993   0.6994   0.7294   0.7294   0.7905   0.7906   0.9113   0.9113
     1.5343   1.5344   1.8145   1.8145   1.9972   1.9972   2.2648   2.2649
     2.5234   2.5235   2.6812   2.6813   2.9066   2.9067   3.1442   3.1442
     3.2385   3.2385   3.9018   3.9019   4.3776   4.3776   4.6821   4.6821
     5.5324   5.5325   6.8230

          k =-0.0922-0.0354 0.0000 ( 29137 PWs)   bands (ev):

   -84.3659 -84.3659 -83.8775 -83.8775 -83.7913 -83.7912 -70.7033 -70.7032
   -70.2130 -70.2129 -70.1379 -70.1375 -43.7538 -43.7510 -43.6516 -43.6484
   -43.6308 -43.6278 -43.1770 -43.1737 -43.1477 -43.1442 -43.1206 -43.1193
   -43.0862 -43.0830 -43.0498 -43.0453 -43.0045 -43.0026 -40.7009 -40.6973
   -40.6638 -40.6599 -40.6341 -40.6302 -40.1874 -40.1830 -40.1567 -40.1527
   -40.1291 -40.1262 -40.1033 -40.1005 -40.0732 -40.0689 -40.0340 -40.0323
    -4.1825  -3.8604  -2.8682  -2.7753  -2.6638  -2.5870  -2.4790  -2.4432
    -2.2607  -2.2320  -2.0614  -1.9584  -1.6449  -1.5815  -1.5037  -1.4377
    -1.1060  -1.0614  -0.9699  -0.9287  -0.7162  -0.5505  -0.1872  -0.1199
     0.0211   0.1309   0.2182   0.3081   0.3413   0.4011   0.4287   0.4763
     0.6002   0.7468   0.7672   0.8267   0.8514   0.8973   1.0011   1.0041
     1.3602   1.6661   1.7308   1.9469   1.9522   2.0667   2.2078   2.3412
     2.3934   2.5249   2.7144   2.9037   2.9400   2.9728   3.1810   3.2879
     3.3098   3.3703   3.8359   3.9034   4.2981   4.3326   4.5988   4.6083
     5.3658   5.7575   6.0972

          k =-0.0922-0.0177 0.0000 ( 29117 PWs)   bands (ev):

   -84.3659 -84.3658 -83.8775 -83.8775 -83.7913 -83.7912 -70.7033 -70.7032
   -70.2130 -70.2129 -70.1380 -70.1374 -43.7548 -43.7500 -43.6519 -43.6457
   -43.6335 -43.6277 -43.1776 -43.1715 -43.1498 -43.1433 -43.1211 -43.1188
   -43.0870 -43.0814 -43.0521 -43.0442 -43.0051 -43.0019 -40.7021 -40.6960
   -40.6641 -40.6565 -40.6376 -40.6299 -40.1881 -40.1798 -40.1592 -40.1517
   -40.1300 -40.1250 -40.1040 -40.0984 -40.0763 -40.0683 -40.0346 -40.0317
    -4.2638  -3.6508  -2.9493  -2.6832  -2.6808  -2.5782  -2.4716  -2.4434
    -2.2987  -2.1944  -2.1910  -1.9669  -1.6930  -1.5950  -1.4936  -1.3981
    -1.0989  -1.0462  -0.9198  -0.8589  -0.7606  -0.5275  -0.3581  -0.3324
    -0.0683   0.0478   0.1862   0.2071   0.2719   0.3357   0.3930   0.4588
     0.5162   0.7815   0.8509   0.9012   0.9638   1.0517   1.0994   1.1340
     1.2865   1.6346   1.8289   1.9223   1.9672   2.1584   2.2070   2.2476
     2.3269   2.6161   2.8230   2.9105   3.0018   3.3322   3.4631   3.4667
     3.5943   3.7165   3.7984   3.8788   4.1259   4.2562   4.3759   4.4280
     5.1888   5.3104   5.4114

          k =-0.0922-0.0000 0.0000 ( 29086 PWs)   bands (ev):

   -84.3659 -84.3658 -83.8775 -83.8775 -83.7913 -83.7912 -70.7033 -70.7032
   -70.2130 -70.2129 -70.1380 -70.1374 -43.7551 -43.7496 -43.6519 -43.6441
   -43.6351 -43.6277 -43.1777 -43.1705 -43.1508 -43.1430 -43.1212 -43.1186
   -43.0873 -43.0807 -43.0530 -43.0438 -43.0054 -43.0016 -40.7025 -40.6955
   -40.6641 -40.6545 -40.6396 -40.6300 -40.1882 -40.1783 -40.1605 -40.1514
   -40.1303 -40.1246 -40.1042 -40.0972 -40.0779 -40.0682 -40.0348 -40.0315
    -4.2906  -3.5280  -3.0375  -2.6709  -2.6252  -2.5643  -2.4723  -2.4568
    -2.3139  -2.2671  -2.1605  -1.9773  -1.7509  -1.5349  -1.4666  -1.4150
    -1.1667  -1.0073  -0.9489  -0.8011  -0.5812  -0.5496  -0.5243  -0.4860
    -0.0797  -0.0076   0.1717   0.1908   0.2145   0.3100   0.4187   0.4656
     0.4794   0.7648   0.8694   0.9344   1.0208   1.0655   1.1705   1.1867
     1.2672   1.6925   1.8961   1.9136   1.9168   2.1466   2.1671   2.2155
     2.3099   2.6958   2.9157   2.9515   2.9998   3.4671   3.5796   3.5958
     3.6910   3.7393   4.0229   4.0723   4.1407   4.3108   4.3895   4.4693
     4.5192   4.6433   5.3018

          k =-0.0922 0.0177 0.0000 ( 29117 PWs)   bands (ev):

   -84.3659 -84.3658 -83.8775 -83.8775 -83.7913 -83.7912 -70.7033 -70.7032
   -70.2130 -70.2129 -70.1380 -70.1374 -43.7548 -43.7500 -43.6519 -43.6457
   -43.6335 -43.6277 -43.1776 -43.1715 -43.1498 -43.1433 -43.1211 -43.1188
   -43.0870 -43.0814 -43.0521 -43.0442 -43.0051 -43.0019 -40.7021 -40.6960
   -40.6641 -40.6565 -40.6376 -40.6299 -40.1881 -40.1798 -40.1592 -40.1517
   -40.1300 -40.1250 -40.1040 -40.0984 -40.0763 -40.0683 -40.0346 -40.0317
    -4.2638  -3.6508  -2.9493  -2.6832  -2.6808  -2.5782  -2.4716  -2.4434
    -2.2987  -2.1944  -2.1910  -1.9669  -1.6930  -1.5950  -1.4936  -1.3981
    -1.0989  -1.0462  -0.9198  -0.8589  -0.7606  -0.5275  -0.3581  -0.3324
    -0.0683   0.0478   0.1862   0.2071   0.2719   0.3357   0.3930   0.4588
     0.5162   0.7815   0.8509   0.9012   0.9638   1.0517   1.0994   1.1340
     1.2865   1.6346   1.8289   1.9223   1.9672   2.1584   2.2070   2.2476
     2.3269   2.6161   2.8230   2.9105   3.0018   3.3322   3.4631   3.4667
     3.5943   3.7165   3.7984   3.8788   4.1259   4.2562   4.3759   4.4280
     5.1888   5.3104   5.4114

          k =-0.0922 0.0354 0.0000 ( 29137 PWs)   bands (ev):

   -84.3659 -84.3659 -83.8775 -83.8775 -83.7913 -83.7912 -70.7033 -70.7032
   -70.2130 -70.2129 -70.1379 -70.1375 -43.7538 -43.7510 -43.6516 -43.6484
   -43.6308 -43.6278 -43.1770 -43.1737 -43.1477 -43.1442 -43.1206 -43.1193
   -43.0862 -43.0830 -43.0498 -43.0453 -43.0045 -43.0026 -40.7009 -40.6973
   -40.6638 -40.6599 -40.6341 -40.6302 -40.1874 -40.1830 -40.1567 -40.1527
   -40.1291 -40.1262 -40.1033 -40.1005 -40.0732 -40.0689 -40.0340 -40.0323
    -4.1825  -3.8604  -2.8682  -2.7753  -2.6638  -2.5870  -2.4790  -2.4432
    -2.2607  -2.2320  -2.0614  -1.9584  -1.6449  -1.5815  -1.5037  -1.4377
    -1.1060  -1.0614  -0.9699  -0.9287  -0.7162  -0.5505  -0.1872  -0.1199
     0.0211   0.1309   0.2182   0.3081   0.3413   0.4011   0.4287   0.4763
     0.6002   0.7468   0.7672   0.8267   0.8514   0.8973   1.0011   1.0041
     1.3602   1.6661   1.7308   1.9469   1.9522   2.0667   2.2078   2.3412
     2.3934   2.5249   2.7144   2.9037   2.9400   2.9728   3.1810   3.2879
     3.3098   3.3703   3.8359   3.9034   4.2981   4.3326   4.5988   4.6083
     5.3658   5.7575   6.0972

          k =-0.0922-0.1594 0.0000 ( 29104 PWs)   bands (ev):

   -84.3659 -84.3659 -83.8775 -83.8775 -83.7912 -83.7912 -70.7033 -70.7032
   -70.2130 -70.2129 -70.1379 -70.1375 -43.7525 -43.7525 -43.6505 -43.6505
   -43.6288 -43.6287 -43.1757 -43.1757 -43.1456 -43.1456 -43.1199 -43.1199
   -43.0847 -43.0847 -43.0473 -43.0473 -43.0035 -43.0035 -40.6992 -40.6991
   -40.6626 -40.6625 -40.6315 -40.6314 -40.1858 -40.1857 -40.1544 -40.1543
   -40.1278 -40.1276 -40.1024 -40.1020 -40.0707 -40.0702 -40.0334 -40.0330
    -4.0463  -4.0463  -2.8366  -2.8365  -2.6148  -2.6148  -2.4661  -2.4660
    -2.2435  -2.2435  -1.9766  -1.9766  -1.5912  -1.5911  -1.4833  -1.4833
    -1.0870  -1.0870  -1.0069  -1.0069  -0.5938  -0.5937  -0.0935  -0.0934
     0.1590   0.1591   0.2905   0.2906   0.4193   0.4193   0.4955   0.4956
     0.6993   0.6994   0.7294   0.7294   0.7905   0.7906   0.9113   0.9113
     1.5343   1.5344   1.8145   1.8146   1.9972   1.9972   2.2648   2.2649
     2.5234   2.5235   2.6812   2.6813   2.9066   2.9067   3.1442   3.1442
     3.2385   3.2385   3.9018   3.9019   4.3776   4.3776   4.6821   4.6821
     5.5324   5.5325   6.8230

     the Fermi energy is     2.6271 ev

!    total energy              =   -2391.93884520 Ry
     estimated scf accuracy    <       0.00000684 Ry
     smearing contrib. (-TS)   =      -0.05856271 Ry
     internal energy E=F+TS    =   -2391.88028249 Ry

     The total energy is F=E-TS. E is the sum of the following terms:
     one-electron contribution =  -21936.70332932 Ry
     hartree contribution      =   10959.65977765 Ry
     xc contribution           =    -415.90220112 Ry
     ewald contribution        =    9001.06546810 Ry
     electric field correction =       0.00000220 Ry

     convergence has been achieved in  14 iterations

     negative rho (up, down):  1.192E-03 0.000E+00

     Forces acting on atoms (cartesian axes, Ry/au):

     atom    1 type  1   force =    -0.00000006   -0.00711684    0.01879095
     atom    2 type  1   force =     0.00000096   -0.00712358    0.01882296
     atom    3 type  2   force =    -0.00000586    0.00724087    0.02816583
     atom    4 type  2   force =     0.00000626    0.00723961    0.02816700
     atom    5 type  1   force =     0.00000002    0.00113556   -0.02457840
     atom    6 type  1   force =    -0.00000109    0.00111406   -0.02460891
     atom    7 type  2   force =    -0.00002486   -0.00136406   -0.02720822
     atom    8 type  2   force =     0.00002439   -0.00136298   -0.02720867
     atom    9 type  1   force =    -0.00000165    0.00015268    0.00386150
     atom   10 type  1   force =     0.00000048    0.00016031    0.00386370
     atom   11 type  2   force =     0.00000632   -0.00003715    0.00096624
     atom   12 type  2   force =    -0.00000490   -0.00003848    0.00096602

     Total force =     0.072309     Total SCF correction =     0.014042
     SCF correction compared to forces is large: reduce conv_thr to get better values

     Writing output data file ./Ru2Os2/Ru2Os2_beef.save/

     init_run     :     87.10s CPU     87.65s WALL (       1 calls)
     electrons    :   3366.78s CPU   3382.38s WALL (       1 calls)
     forces       :     65.52s CPU     65.79s WALL (       1 calls)

     Called by init_run:
     wfcinit      :     76.03s CPU     76.37s WALL (       1 calls)
     potinit      :      7.70s CPU      7.77s WALL (       1 calls)
     hinit0       :      1.82s CPU      1.84s WALL (       1 calls)

     Called by electrons:
     c_bands      :   3011.59s CPU   3021.54s WALL (      14 calls)
     sum_band     :    327.84s CPU    330.94s WALL (      14 calls)
     v_of_rho     :     20.58s CPU     21.46s WALL (      15 calls)
     newd         :     13.49s CPU     15.14s WALL (      15 calls)
     mix_rho      :      0.52s CPU      0.53s WALL (      14 calls)
     vdW_kernel   :      5.70s CPU      5.71s WALL (       1 calls)

     Called by c_bands:
     init_us_2    :      9.41s CPU      9.47s WALL (    2220 calls)
     cegterg      :   2981.46s CPU   2990.08s WALL (    1036 calls)

     Called by *egterg:
     cdiaghg      :    142.81s CPU    142.90s WALL (    3593 calls)
     h_psi        :   1349.11s CPU   1355.94s WALL (    3667 calls)
     s_psi        :    458.73s CPU    459.04s WALL (    3667 calls)
     g_psi        :      0.90s CPU      0.91s WALL (    2557 calls)

     Called by h_psi:
     h_psi:calbec :    468.31s CPU    469.20s WALL (    3667 calls)
     vloc_psi     :    411.63s CPU    417.15s WALL (    3667 calls)
     add_vuspsi   :    463.14s CPU    463.51s WALL (    3667 calls)

     General routines
     calbec       :    730.29s CPU    731.67s WALL (    4999 calls)
     fft          :     10.62s CPU     10.96s WALL (    1004 calls)
     ffts         :      0.05s CPU      0.05s WALL (      29 calls)
     fftw         :    479.23s CPU    485.55s WALL (  661698 calls)
     interpolate  :      0.27s CPU      0.27s WALL (      15 calls)

     Parallel routines
     fft_scatt_xy :     40.08s CPU     40.56s WALL (  662731 calls)
     fft_scatt_yz :     77.40s CPU     78.79s WALL (  662731 calls)

     PWSCF        :  58m49.26s CPU  59m26.72s WALL


   This run was terminated on:   0: 0:31  11Jul2022            

=------------------------------------------------------------------------------=
   JOB DONE.
=------------------------------------------------------------------------------=
