
     Program PWSCF v.6.6 starts on 24Jun2022 at 19:52:41 

     This program is part of the open-source Quantum ESPRESSO suite
     for quantum simulation of materials; please cite
         "P. Giannozzi et al., J. Phys.:Condens. Matter 21 395502 (2009);
         "P. Giannozzi et al., J. Phys.:Condens. Matter 29 465901 (2017);
          URL http://www.quantum-espresso.org", 
     in publications or presentations arising from this work. More details at
     http://www.quantum-espresso.org/quote

     Parallel version (MPI), running on    37 processors

     MPI processes distributed on     1 nodes
     R & G space division:  proc/nbgrp/npool/nimage =      37
     Fft bands division:     nmany     =       1
     Reading input from Ru2Pt2.in
Warning: card &CELL ignored
Warning: card / ignored

     Current dimensions of program PWSCF are:
     Max number of different atomic species (ntypx) = 10
     Max number of k-points (npk) =  40000
     Max angular momentum in pseudopotentials (lmaxx) =  3
     Presently stress not available with electric field and gates

     Message from routine cell_base_init:
     DEPRECATED: use true lattice parameter, not A to a.u. conversion factor
     file Pt.pbe-n-rrkjus_psl.1.0.0.UPF: wavefunction(s)  6S renormalized

     **************************************************************************
     Initializing libbeef V0.1.2 with the BEEF-vdW functional.
     Citation: Wellendorff et al., PRB 85, 235149 (2012).
     **************************************************************************


     IMPORTANT: XC functional enforced from input :
     Exchange-correlation= BEEF-VDW
                           (   1   4  43  14   2   0   0)
     Any further DFT definition will be discarded
     Please, verify this is what you really want


     Subspace diagonalization in iterative solution of the eigenvalue problem:
     a serial algorithm will be used

     Found symmetry operation: I + (  0.5000  0.0000  0.0000)
     This is a supercell, fractional translations are disabled

     Parallelization info
     --------------------
     sticks:   dense  smooth     PW     G-vecs:    dense   smooth      PW
     Min         111      44     13                25705     6496    1017
     Max         112      45     14                25718     6523    1031
     Sum        4117    1651    483               951227   240753   37977



     bravais-lattice index     =            0
     lattice parameter (alat)  =       1.8897  a.u.
     unit-cell volume          =    4353.5088 (a.u.)^3
     number of atoms/cell      =           12
     number of atomic types    =            2
     number of electrons       =       156.00
     number of Kohn-Sham states=           94
     kinetic-energy cutoff     =      55.1240  Ry
     charge density cutoff     =     551.2396  Ry
     convergence threshold     =      1.0E-05
     mixing beta               =       0.1000
     number of iterations used =           10  plain     mixing
     Exchange-correlation= BEEF-VDW
                           (   1   4  43  14   2   0   0)

     celldm(1)=   1.889726  celldm(2)=   0.000000  celldm(3)=   0.000000
     celldm(4)=   0.000000  celldm(5)=   0.000000  celldm(6)=   0.000000

     crystal axes: (cart. coord. in units of alat)
               a(1) = (   5.493030   0.000000   0.000000 )  
               a(2) = (  -2.746515   4.793269   0.000000 )  
               a(3) = (   0.000000   0.000000  24.501865 )  

     reciprocal axes: (cart. coord. in units 2 pi/alat)
               b(1) = (  0.182049  0.104313 -0.000000 )  
               b(2) = (  0.000000  0.208626  0.000000 )  
               b(3) = (  0.000000 -0.000000  0.040813 )  


     PseudoPot. # 1 for Ru read from file:
     ../pseudo/Ru.pbe-spn-rrkjus_psl.1.0.0.UPF
     MD5 check sum: fbaca725316a1a65f98761fd4ac95971
     Pseudo is Ultrasoft + core correction, Zval = 16.0
     Generated using "atomic" code by A. Dal Corso v.6.2.2
     Using radial grid of 1233 points,  6 beta functions with: 
                l(1) =   0
                l(2) =   0
                l(3) =   1
                l(4) =   1
                l(5) =   2
                l(6) =   2
     Q(r) pseudized with 0 coefficients 


     PseudoPot. # 2 for Pt read from file:
     ../pseudo/Pt.pbe-n-rrkjus_psl.1.0.0.UPF
     MD5 check sum: 6bc887cfe28d63a5fc1f72d35a7d3ef7
     Pseudo is Ultrasoft + core correction, Zval = 10.0
     Generated using "atomic" code by A. Dal Corso v.6.3
     Using radial grid of 1277 points,  6 beta functions with: 
                l(1) =   0
                l(2) =   0
                l(3) =   1
                l(4) =   1
                l(5) =   2
                l(6) =   2
     Q(r) pseudized with 0 coefficients 


     atomic species   valence    mass     pseudopotential
        Ru            16.00   101.07000     Ru( 1.00)
        Pt            10.00   195.08400     Pt( 1.00)

     No symmetry found



   Cartesian axes

     site n.     atom                  positions (alat units)
         1           Ru  tau(   1) = (   0.0000000   0.0000000  10.0000000  )
         2           Ru  tau(   2) = (   2.7465149   0.0000000  10.0000000  )
         3           Pt  tau(   3) = (   1.3732575   2.3966344  10.0000000  )
         4           Pt  tau(   4) = (  -1.3732575   2.3966344  10.0000000  )
         5           Ru  tau(   5) = (   2.7465149   1.5737369  12.2509323  )
         6           Ru  tau(   6) = (  -0.0000000   1.5737369  12.2509323  )
         7           Pt  tau(   7) = (  -1.3732575   3.9703714  12.2509323  )
         8           Pt  tau(   8) = (   1.3732575   3.9703714  12.2509323  )
         9           Ru  tau(   9) = (   0.0000009   3.1210365  14.4179605  )
        10           Ru  tau(  10) = (   2.7465145   3.1210320  14.4180104  )
        11           Pt  tau(  11) = (   4.1197762   0.7931768  14.5005312  )
        12           Pt  tau(  12) = (   1.3732536   0.7931768  14.5005312  )

     number of k points=    74  Fermi-Dirac smearing, width (Ry)=  0.0100
                       cart. coord. in units 2pi/alat
        k(    1) = (   0.0000000   0.0000000   0.0000000), wk =   0.0138889
        k(    2) = (   0.0000000   0.0173855   0.0000000), wk =   0.0277778
        k(    3) = (   0.0000000   0.0347710   0.0000000), wk =   0.0277778
        k(    4) = (   0.0000000   0.0521565   0.0000000), wk =   0.0277778
        k(    5) = (   0.0000000   0.0695420   0.0000000), wk =   0.0277778
        k(    6) = (   0.0000000   0.0869275   0.0000000), wk =   0.0277778
        k(    7) = (   0.0000000  -0.1043129   0.0000000), wk =   0.0138889
        k(    8) = (   0.0151707   0.0086927   0.0000000), wk =   0.0277778
        k(    9) = (   0.0151707   0.0260782   0.0000000), wk =   0.0277778
        k(   10) = (   0.0151707   0.0434637   0.0000000), wk =   0.0277778
        k(   11) = (   0.0151707   0.0608492   0.0000000), wk =   0.0277778
        k(   12) = (   0.0151707   0.0782347   0.0000000), wk =   0.0277778
        k(   13) = (   0.0151707   0.0956202   0.0000000), wk =   0.0277778
        k(   14) = (   0.0151707  -0.0956202   0.0000000), wk =   0.0277778
        k(   15) = (   0.0151707  -0.0782347   0.0000000), wk =   0.0277778
        k(   16) = (   0.0151707  -0.0608492   0.0000000), wk =   0.0277778
        k(   17) = (   0.0151707  -0.0434637   0.0000000), wk =   0.0277778
        k(   18) = (   0.0151707  -0.0260782   0.0000000), wk =   0.0277778
        k(   19) = (   0.0151707  -0.0086927   0.0000000), wk =   0.0277778
        k(   20) = (   0.0303415   0.0173855   0.0000000), wk =   0.0277778
        k(   21) = (   0.0303415   0.0347710   0.0000000), wk =   0.0277778
        k(   22) = (   0.0303415   0.0521565   0.0000000), wk =   0.0277778
        k(   23) = (   0.0303415   0.0695420   0.0000000), wk =   0.0277778
        k(   24) = (   0.0303415   0.0869275   0.0000000), wk =   0.0277778
        k(   25) = (   0.0303415   0.1043129   0.0000000), wk =   0.0277778
        k(   26) = (   0.0303415  -0.0869275   0.0000000), wk =   0.0277778
        k(   27) = (   0.0303415  -0.0695420   0.0000000), wk =   0.0277778
        k(   28) = (   0.0303415  -0.0521565   0.0000000), wk =   0.0277778
        k(   29) = (   0.0303415  -0.0347710   0.0000000), wk =   0.0277778
        k(   30) = (   0.0303415  -0.0173855   0.0000000), wk =   0.0277778
        k(   31) = (   0.0303415  -0.0000000   0.0000000), wk =   0.0277778
        k(   32) = (   0.0455122   0.0260782   0.0000000), wk =   0.0277778
        k(   33) = (   0.0455122   0.0434637   0.0000000), wk =   0.0277778
        k(   34) = (   0.0455122   0.0608492   0.0000000), wk =   0.0277778
        k(   35) = (   0.0455122   0.0782347   0.0000000), wk =   0.0277778
        k(   36) = (   0.0455122   0.0956202   0.0000000), wk =   0.0277778
        k(   37) = (   0.0455122   0.1130057   0.0000000), wk =   0.0277778
        k(   38) = (   0.0455122  -0.0782347   0.0000000), wk =   0.0277778
        k(   39) = (   0.0455122  -0.0608492   0.0000000), wk =   0.0277778
        k(   40) = (   0.0455122  -0.0434637   0.0000000), wk =   0.0277778
        k(   41) = (   0.0455122  -0.0260782   0.0000000), wk =   0.0277778
        k(   42) = (   0.0455122  -0.0086927   0.0000000), wk =   0.0277778
        k(   43) = (   0.0455122   0.0086927   0.0000000), wk =   0.0277778
        k(   44) = (   0.0606830   0.0347710   0.0000000), wk =   0.0277778
        k(   45) = (   0.0606830   0.0521565   0.0000000), wk =   0.0277778
        k(   46) = (   0.0606830   0.0695420   0.0000000), wk =   0.0277778
        k(   47) = (   0.0606830   0.0869275   0.0000000), wk =   0.0277778
        k(   48) = (   0.0606830   0.1043129   0.0000000), wk =   0.0277778
        k(   49) = (   0.0606830   0.1216984   0.0000000), wk =   0.0277778
        k(   50) = (   0.0606830  -0.0695420   0.0000000), wk =   0.0277778
        k(   51) = (   0.0606830  -0.0521565   0.0000000), wk =   0.0277778
        k(   52) = (   0.0606830  -0.0347710   0.0000000), wk =   0.0277778
        k(   53) = (   0.0606830  -0.0173855   0.0000000), wk =   0.0277778
        k(   54) = (   0.0606830   0.0000000   0.0000000), wk =   0.0277778
        k(   55) = (   0.0606830   0.0173855   0.0000000), wk =   0.0277778
        k(   56) = (   0.0758537   0.0434637   0.0000000), wk =   0.0277778
        k(   57) = (   0.0758537   0.0608492   0.0000000), wk =   0.0277778
        k(   58) = (   0.0758537   0.0782347   0.0000000), wk =   0.0277778
        k(   59) = (   0.0758537   0.0956202   0.0000000), wk =   0.0277778
        k(   60) = (   0.0758537   0.1130057   0.0000000), wk =   0.0277778
        k(   61) = (   0.0758537   0.1303912   0.0000000), wk =   0.0277778
        k(   62) = (   0.0758537  -0.0608492   0.0000000), wk =   0.0277778
        k(   63) = (   0.0758537  -0.0434637   0.0000000), wk =   0.0277778
        k(   64) = (   0.0758537  -0.0260782   0.0000000), wk =   0.0277778
        k(   65) = (   0.0758537  -0.0086927   0.0000000), wk =   0.0277778
        k(   66) = (   0.0758537   0.0086927   0.0000000), wk =   0.0277778
        k(   67) = (   0.0758537   0.0260782   0.0000000), wk =   0.0277778
        k(   68) = (  -0.0910244  -0.0521565   0.0000000), wk =   0.0138889
        k(   69) = (  -0.0910244  -0.0347710   0.0000000), wk =   0.0277778
        k(   70) = (  -0.0910244  -0.0173855   0.0000000), wk =   0.0277778
        k(   71) = (  -0.0910244   0.0000000   0.0000000), wk =   0.0277778
        k(   72) = (  -0.0910244   0.0173855   0.0000000), wk =   0.0277778
        k(   73) = (  -0.0910244   0.0347710   0.0000000), wk =   0.0277778
        k(   74) = (  -0.0910244  -0.1564694   0.0000000), wk =   0.0138889

     Dense  grid:   951227 G-vectors     FFT dimensions: (  80,  80, 360)

     Smooth grid:   240753 G-vectors     FFT dimensions: (  50,  50, 225)

     Estimated max dynamical RAM per process >     190.66 MB

     Estimated total dynamical RAM >       6.89 GB

     Initial potential from superposition of free atoms

     starting charge  155.99516, renormalised to  156.00000

     negative rho (up, down):  1.521E-03 0.000E+00


     %%%%%%%%%%%%%%%%%%%%%%%%%%%%%%%%%%%%%%%%%%%%%%%%%%%%%%%%%%%%%%%%%%%%%%%%
     %                                                                      %
     % You are using vdW-DF, which was implemented by the Thonhauser group. %
     % Please cite the following two papers that made this development      %
     % possible and the two reviews that describe the various versions:     %
     %                                                                      %
     %   T. Thonhauser et al., PRL 115, 136402 (2015).                      %
     %   T. Thonhauser et al., PRB 76, 125112 (2007).                       %
     %   K. Berland et al., Rep. Prog. Phys. 78, 066501 (2015).             %
     %   D.C. Langreth et al., J. Phys.: Condens. Matter 21, 084203 (2009). %
     %                                                                      %
     %                                                                      %
     % If you are calculating the stress with vdW-DF, please also cite:     %
     %                                                                      %
     %   R. Sabatini et al., J. Phys.: Condens. Matter 24, 424209 (2012).   %
     %                                                                      %
     %%%%%%%%%%%%%%%%%%%%%%%%%%%%%%%%%%%%%%%%%%%%%%%%%%%%%%%%%%%%%%%%%%%%%%%%



     Adding external electric field

     Computed dipole along edir(3) : 
        Dipole               -0.0000 Ry au,         -0.0001 Debye
        Dipole field         -0.0000 Ry au, 

        Potential amp.        0.0000 Ry
        Total length         45.1443 bohr

     Starting wfcs are  114 randomized atomic wfcs

     total cpu time spent up to now is       97.3 secs

     Self-consistent Calculation

     iteration #  1     ecut=    55.12 Ry     beta= 0.10
     Davidson diagonalization with overlap
     ethr =  1.00E-02,  avg # of iterations =  3.2

     negative rho (up, down):  1.390E-03 0.000E+00

     Adding external electric field

     Computed dipole along edir(3) : 
        Dipole                0.1111 Ry au,          0.2824 Debye
        Dipole field          0.0003 Ry au, 

        Potential amp.       -0.0290 Ry
        Total length         45.1443 bohr


     total cpu time spent up to now is      294.1 secs

     total energy              =   -1583.53243363 Ry
     estimated scf accuracy    <      15.37062552 Ry

     iteration #  2     ecut=    55.12 Ry     beta= 0.10
     Davidson diagonalization with overlap
     ethr =  9.85E-03,  avg # of iterations =  1.0

     negative rho (up, down):  1.335E-03 0.000E+00

     Adding external electric field

     Computed dipole along edir(3) : 
        Dipole               -0.5402 Ry au,         -1.3731 Debye
        Dipole field         -0.0016 Ry au, 

        Potential amp.        0.1408 Ry
        Total length         45.1443 bohr


     total cpu time spent up to now is      438.0 secs

     total energy              =   -1584.94163680 Ry
     estimated scf accuracy    <       1.26246074 Ry

     iteration #  3     ecut=    55.12 Ry     beta= 0.10
     Davidson diagonalization with overlap
     ethr =  8.09E-04,  avg # of iterations =  2.1

     negative rho (up, down):  1.336E-03 0.000E+00

     Adding external electric field

     Computed dipole along edir(3) : 
        Dipole                0.0428 Ry au,          0.1087 Debye
        Dipole field          0.0001 Ry au, 

        Potential amp.       -0.0111 Ry
        Total length         45.1443 bohr


     total cpu time spent up to now is      606.2 secs

     total energy              =   -1584.73338496 Ry
     estimated scf accuracy    <      33.50736491 Ry

     iteration #  4     ecut=    55.12 Ry     beta= 0.10
     Davidson diagonalization with overlap
     ethr =  8.09E-04,  avg # of iterations =  1.0

     negative rho (up, down):  1.342E-03 0.000E+00

     Adding external electric field

     Computed dipole along edir(3) : 
        Dipole                0.0186 Ry au,          0.0472 Debye
        Dipole field          0.0001 Ry au, 

        Potential amp.       -0.0048 Ry
        Total length         45.1443 bohr


     total cpu time spent up to now is      772.9 secs

     total energy              =   -1585.10250197 Ry
     estimated scf accuracy    <       0.24340874 Ry

     iteration #  5     ecut=    55.12 Ry     beta= 0.10
     Davidson diagonalization with overlap
     ethr =  1.56E-04,  avg # of iterations =  2.3

     negative rho (up, down):  1.359E-03 0.000E+00

     Adding external electric field

     Computed dipole along edir(3) : 
        Dipole                0.0138 Ry au,          0.0350 Debye
        Dipole field          0.0000 Ry au, 

        Potential amp.       -0.0036 Ry
        Total length         45.1443 bohr


     total cpu time spent up to now is      941.6 secs

     total energy              =   -1585.08057415 Ry
     estimated scf accuracy    <       0.15576196 Ry

     iteration #  6     ecut=    55.12 Ry     beta= 0.10
     Davidson diagonalization with overlap
     ethr =  9.98E-05,  avg # of iterations =  2.4

     negative rho (up, down):  1.403E-03 0.000E+00

     Adding external electric field

     Computed dipole along edir(3) : 
        Dipole                0.0073 Ry au,          0.0184 Debye
        Dipole field          0.0000 Ry au, 

        Potential amp.       -0.0019 Ry
        Total length         45.1443 bohr


     total cpu time spent up to now is     1106.1 secs

     total energy              =   -1585.08256400 Ry
     estimated scf accuracy    <       0.07156556 Ry

     iteration #  7     ecut=    55.12 Ry     beta= 0.10
     Davidson diagonalization with overlap
     c_bands:  1 eigenvalues not converged
     c_bands:  1 eigenvalues not converged
     ethr =  4.59E-05,  avg # of iterations =  5.2

     negative rho (up, down):  1.435E-03 0.000E+00

     Adding external electric field

     Computed dipole along edir(3) : 
        Dipole                0.0051 Ry au,          0.0129 Debye
        Dipole field          0.0000 Ry au, 

        Potential amp.       -0.0013 Ry
        Total length         45.1443 bohr


     total cpu time spent up to now is     1294.8 secs

     total energy              =   -1585.08601256 Ry
     estimated scf accuracy    <       0.01968109 Ry

     iteration #  8     ecut=    55.12 Ry     beta= 0.10
     Davidson diagonalization with overlap
     c_bands:  1 eigenvalues not converged
     c_bands:  1 eigenvalues not converged
     ethr =  1.26E-05,  avg # of iterations =  7.4

     negative rho (up, down):  1.550E-03 0.000E+00

     Adding external electric field

     Computed dipole along edir(3) : 
        Dipole               -0.0014 Ry au,         -0.0034 Debye
        Dipole field         -0.0000 Ry au, 

        Potential amp.        0.0004 Ry
        Total length         45.1443 bohr


     total cpu time spent up to now is     1492.6 secs

     total energy              =   -1585.08630876 Ry
     estimated scf accuracy    <       0.00962403 Ry

     iteration #  9     ecut=    55.12 Ry     beta= 0.10
     Davidson diagonalization with overlap
     ethr =  6.17E-06,  avg # of iterations =  3.2

     negative rho (up, down):  1.563E-03 0.000E+00

     Adding external electric field

     Computed dipole along edir(3) : 
        Dipole               -0.0003 Ry au,         -0.0007 Debye
        Dipole field         -0.0000 Ry au, 

        Potential amp.        0.0001 Ry
        Total length         45.1443 bohr


     total cpu time spent up to now is     1687.3 secs

     total energy              =   -1585.08730913 Ry
     estimated scf accuracy    <       0.00279017 Ry

     iteration # 10     ecut=    55.12 Ry     beta= 0.10
     Davidson diagonalization with overlap
     c_bands:  2 eigenvalues not converged
     ethr =  1.79E-06,  avg # of iterations =  5.9

     negative rho (up, down):  1.635E-03 0.000E+00

     Adding external electric field

     Computed dipole along edir(3) : 
        Dipole                0.0006 Ry au,          0.0016 Debye
        Dipole field          0.0000 Ry au, 

        Potential amp.       -0.0002 Ry
        Total length         45.1443 bohr


     total cpu time spent up to now is     1870.2 secs

     total energy              =   -1585.08743782 Ry
     estimated scf accuracy    <       0.00218406 Ry

     iteration # 11     ecut=    55.12 Ry     beta= 0.10
     Davidson diagonalization with overlap
     c_bands:  1 eigenvalues not converged
     ethr =  1.40E-06,  avg # of iterations =  3.3

     negative rho (up, down):  1.617E-03 0.000E+00

     Adding external electric field

     Computed dipole along edir(3) : 
        Dipole               -0.0009 Ry au,         -0.0022 Debye
        Dipole field         -0.0000 Ry au, 

        Potential amp.        0.0002 Ry
        Total length         45.1443 bohr


     total cpu time spent up to now is     2056.2 secs

     total energy              =   -1585.08727213 Ry
     estimated scf accuracy    <       0.00186417 Ry

     iteration # 12     ecut=    55.12 Ry     beta= 0.10
     Davidson diagonalization with overlap
     ethr =  1.19E-06,  avg # of iterations =  1.3

     negative rho (up, down):  1.580E-03 0.000E+00

     Adding external electric field

     Computed dipole along edir(3) : 
        Dipole               -0.0005 Ry au,         -0.0012 Debye
        Dipole field         -0.0000 Ry au, 

        Potential amp.        0.0001 Ry
        Total length         45.1443 bohr


     total cpu time spent up to now is     2203.2 secs

     total energy              =   -1585.08742170 Ry
     estimated scf accuracy    <       0.00015021 Ry

     iteration # 13     ecut=    55.12 Ry     beta= 0.10
     Davidson diagonalization with overlap
     ethr =  9.63E-08,  avg # of iterations =  4.1

     negative rho (up, down):  1.549E-03 0.000E+00

     Adding external electric field

     Computed dipole along edir(3) : 
        Dipole               -0.0005 Ry au,         -0.0013 Debye
        Dipole field         -0.0000 Ry au, 

        Potential amp.        0.0001 Ry
        Total length         45.1443 bohr


     total cpu time spent up to now is     2439.8 secs

     total energy              =   -1585.08746389 Ry
     estimated scf accuracy    <       0.00005993 Ry

     iteration # 14     ecut=    55.12 Ry     beta= 0.10
     Davidson diagonalization with overlap
     ethr =  3.84E-08,  avg # of iterations =  1.1

     negative rho (up, down):  1.524E-03 0.000E+00

     Adding external electric field

     Computed dipole along edir(3) : 
        Dipole                0.0002 Ry au,          0.0006 Debye
        Dipole field          0.0000 Ry au, 

        Potential amp.       -0.0001 Ry
        Total length         45.1443 bohr


     total cpu time spent up to now is     2578.8 secs

     total energy              =   -1585.08746122 Ry
     estimated scf accuracy    <       0.00003711 Ry

     iteration # 15     ecut=    55.12 Ry     beta= 0.10
     Davidson diagonalization with overlap
     ethr =  2.38E-08,  avg # of iterations =  2.0

     negative rho (up, down):  1.502E-03 0.000E+00

     Adding external electric field

     Computed dipole along edir(3) : 
        Dipole               -0.0001 Ry au,         -0.0003 Debye
        Dipole field         -0.0000 Ry au, 

        Potential amp.        0.0000 Ry
        Total length         45.1443 bohr


     total cpu time spent up to now is     2777.0 secs

     total energy              =   -1585.08746457 Ry
     estimated scf accuracy    <       0.00005121 Ry

     iteration # 16     ecut=    55.12 Ry     beta= 0.10
     Davidson diagonalization with overlap
     ethr =  2.38E-08,  avg # of iterations =  2.0

     negative rho (up, down):  1.389E-03 0.000E+00

     Adding external electric field

     Computed dipole along edir(3) : 
        Dipole                0.0102 Ry au,          0.0260 Debye
        Dipole field          0.0000 Ry au, 

        Potential amp.       -0.0027 Ry
        Total length         45.1443 bohr


     total cpu time spent up to now is     2934.8 secs

     End of self-consistent calculation

          k = 0.0000 0.0000 0.0000 ( 30157 PWs)   bands (ev):

   -71.7606 -71.7182 -71.3579 -71.3152 -71.2730 -71.2303 -41.8389 -41.8143
   -41.7679 -41.7247 -41.6808 -41.5365 -41.4669 -41.4126 -41.3255 -41.2814
   -41.2467 -41.2291 -41.2031 -41.1858 -41.1345 -41.1114 -41.0924 -41.0426
    -6.8074  -5.1927  -5.1320  -4.8480  -4.7251  -4.6723  -4.5537  -4.4611
    -4.3661  -4.1967  -4.1359  -4.1023  -3.8893  -3.7386  -3.6971  -2.8212
    -2.5595  -2.3734  -2.3197  -2.1669  -2.1591  -1.8225  -1.8086  -1.6945
    -1.5918  -1.5308  -1.4553  -1.2687  -1.1457  -1.1270  -1.1098  -0.9474
    -0.8876  -0.2953  -0.0467  -0.0300   0.1062   0.1522   0.3343   0.4178
     0.4214   0.7519   0.8004   0.9502   1.1451   1.2008   1.3741   1.4706
     1.7548   1.7702   1.7773   1.9543   2.0225   2.1219   2.1420   2.1460
     2.2149   2.2921   2.2965   2.4940   2.5956   2.6771   2.8336   2.9455
     3.0059   3.0954   3.2700   4.9089   4.9289   4.9921

          k = 0.0000 0.0174 0.0000 ( 30155 PWs)   bands (ev):

   -71.7606 -71.7182 -71.3579 -71.3152 -71.2730 -71.2303 -41.8390 -41.8144
   -41.7680 -41.7250 -41.6809 -41.5366 -41.4670 -41.4126 -41.3257 -41.2816
   -41.2469 -41.2291 -41.2033 -41.1858 -41.1345 -41.1115 -41.0924 -41.0426
    -6.7520  -5.1538  -5.0871  -4.8041  -4.6778  -4.6404  -4.5228  -4.4151
    -4.3353  -4.1767  -4.1039  -4.0751  -3.8398  -3.7081  -3.6363  -2.8215
    -2.5513  -2.3607  -2.3364  -2.1453  -2.1204  -1.8568  -1.7698  -1.7357
    -1.5839  -1.5725  -1.4280  -1.2452  -1.1525  -1.1114  -1.1054  -0.9723
    -0.9200  -0.3614  -0.1073  -0.0462   0.0442   0.1595   0.2682   0.3778
     0.3842   0.6468   0.7264   0.8245   1.1836   1.3571   1.4107   1.4352
     1.5242   1.6021   1.7876   1.7946   1.8784   1.9981   2.0785   2.1064
     2.1259   2.1638   2.1643   2.5404   2.6013   2.6059   2.7434   2.8304
     2.8577   3.4138   3.4945   4.0516   4.6001   4.9293

          k = 0.0000 0.0348 0.0000 ( 30113 PWs)   bands (ev):

   -71.7606 -71.7182 -71.3578 -71.3152 -71.2730 -71.2303 -41.8394 -41.8148
   -41.7682 -41.7258 -41.6812 -41.5369 -41.4674 -41.4127 -41.3263 -41.2820
   -41.2476 -41.2290 -41.2037 -41.1858 -41.1346 -41.1115 -41.0925 -41.0427
    -6.5910  -5.0614  -4.9507  -4.6791  -4.5450  -4.5412  -4.4329  -4.2813
    -4.2448  -4.1148  -4.0104  -3.9922  -3.6962  -3.6169  -3.4571  -2.8263
    -2.5325  -2.3748  -2.3290  -2.1038  -2.0123  -1.9963  -1.7588  -1.7087
    -1.6580  -1.5192  -1.4033  -1.2267  -1.1750  -1.1344  -1.0377  -1.0105
    -0.9875  -0.5432  -0.2946  -0.1009  -0.0898   0.0798   0.1805   0.2036
     0.2123   0.4551   0.5968   0.7827   1.0413   1.0660   1.1675   1.3374
     1.3782   1.4144   1.5022   1.5701   1.8055   1.8169   1.8866   1.9003
     1.9495   2.0140   2.0742   2.2238   2.2535   2.3828   2.4301   2.8429
     3.1166   3.4331   3.5779   4.0242   4.5321   5.0265

          k = 0.0000 0.0522 0.0000 ( 30079 PWs)   bands (ev):

   -71.7605 -71.7181 -71.3578 -71.3152 -71.2729 -71.2303 -41.8400 -41.8153
   -41.7684 -41.7268 -41.6816 -41.5374 -41.4679 -41.4128 -41.3273 -41.2825
   -41.2485 -41.2290 -41.2042 -41.1858 -41.1348 -41.1116 -41.0926 -41.0427
    -6.3416  -4.9629  -4.7427  -4.4985  -4.3931  -4.3352  -4.2865  -4.1087
    -4.0760  -3.9971  -3.8681  -3.8458  -3.4759  -3.4680  -3.1705  -2.8400
    -2.5269  -2.4547  -2.3079  -2.1537  -2.0366  -1.9224  -1.8067  -1.7778
    -1.5003  -1.4303  -1.4064  -1.3541  -1.1840  -1.1510  -1.1149  -1.0654
    -0.8025  -0.7953  -0.5842  -0.2746  -0.1477  -0.1407  -0.0966  -0.0921
     0.1870   0.2141   0.4247   0.5248   0.6857   0.7809   0.8285   0.8961
     0.9827   1.1596   1.1729   1.4018   1.5608   1.5844   1.6804   1.7536
     1.7612   1.8740   1.9551   2.1107   2.1482   2.1716   2.2886   2.5084
     2.8400   3.6750   4.0816   4.4591   4.6300   5.2049

          k = 0.0000 0.0695 0.0000 ( 30028 PWs)   bands (ev):

   -71.7604 -71.7181 -71.3577 -71.3151 -71.2729 -71.2303 -41.8405 -41.8159
   -41.7687 -41.7279 -41.6820 -41.5378 -41.4684 -41.4129 -41.3282 -41.2831
   -41.2495 -41.2289 -41.2047 -41.1858 -41.1350 -41.1117 -41.0927 -41.0428
    -6.0393  -4.9038  -4.5188  -4.3184  -4.2110  -4.1042  -4.0781  -3.9681
    -3.8391  -3.7997  -3.7134  -3.6088  -3.2786  -3.2222  -2.8476  -2.8349
    -2.6006  -2.5658  -2.3446  -2.1801  -2.0788  -1.9545  -1.8189  -1.6801
    -1.5535  -1.4140  -1.4013  -1.3550  -1.2415  -1.2098  -1.1964  -1.0147
    -0.9434  -0.8651  -0.5741  -0.5156  -0.4321  -0.4043  -0.2910  -0.1993
    -0.1622  -0.1105   0.0773   0.2598   0.2819   0.2843   0.5611   0.6109
     0.8027   0.8257   0.9390   1.1244   1.3033   1.4106   1.5769   1.5976
     1.6135   1.6742   1.7475   1.7909   2.0701   2.0788   2.2174   2.8213
     2.8528   3.7417   4.5680   4.7308   4.7634   4.8753

          k = 0.0000 0.0869 0.0000 ( 30054 PWs)   bands (ev):

   -71.7604 -71.7181 -71.3577 -71.3151 -71.2728 -71.2302 -41.8409 -41.8163
   -41.7688 -41.7286 -41.6823 -41.5382 -41.4687 -41.4130 -41.3289 -41.2835
   -41.2502 -41.2289 -41.2051 -41.1858 -41.1351 -41.1118 -41.0928 -41.0429
    -5.7538  -4.9106  -4.3500  -4.1897  -4.0400  -3.9221  -3.8615  -3.8447
    -3.6153  -3.6121  -3.5768  -3.2677  -3.1078  -3.0458  -2.8642  -2.7865
    -2.7589  -2.5028  -2.3048  -2.1545  -2.1345  -1.8780  -1.8652  -1.6945
    -1.6047  -1.5362  -1.4782  -1.3733  -1.3454  -1.2193  -1.0602  -1.0321
    -1.0131  -0.8602  -0.8596  -0.7714  -0.6942  -0.4923  -0.4102  -0.3790
    -0.3572  -0.2981  -0.2208  -0.1386  -0.1137   0.1560   0.3111   0.5796
     0.5919   0.6625   0.7006   1.0163   1.1062   1.3435   1.4132   1.4389
     1.4976   1.5543   1.6113   1.6429   2.0716   2.0848   2.1804   2.8672
     3.2370   3.7825   4.1942   4.7921   4.9356   5.4965

          k = 0.0000-0.1043 0.0000 ( 30074 PWs)   bands (ev):

   -71.7604 -71.7181 -71.3577 -71.3151 -71.2728 -71.2302 -41.8410 -41.8164
   -41.7689 -41.7289 -41.6824 -41.5383 -41.4689 -41.4130 -41.3291 -41.2837
   -41.2505 -41.2289 -41.2052 -41.1858 -41.1351 -41.1118 -41.0928 -41.0429
    -5.6205  -4.9378  -4.2883  -4.1411  -3.9521  -3.8542  -3.8329  -3.7165
    -3.6005  -3.4924  -3.4685  -3.0274  -3.0061  -2.9972  -2.9008  -2.8596
    -2.7894  -2.7157  -2.2602  -2.1553  -1.8080  -1.8057  -1.7646  -1.7186
    -1.7146  -1.6222  -1.5809  -1.5192  -1.3459  -1.3248  -1.0829  -1.0468
    -1.0331  -0.9186  -0.8716  -0.8526  -0.8009  -0.6284  -0.4967  -0.4810
    -0.3780  -0.3139  -0.2686  -0.2084  -0.1684  -0.0533   0.3379   0.4210
     0.5909   0.6013   0.6087   1.0254   1.0621   1.2285   1.3374   1.4146
     1.4587   1.4655   1.6147   1.6162   2.0706   2.0976   2.1652   2.8731
     3.5469   3.7962   3.8761   4.8119   4.9904   5.5391

          k = 0.0152 0.0087 0.0000 ( 30147 PWs)   bands (ev):

   -71.7599 -71.7189 -71.3572 -71.3159 -71.2723 -71.2310 -41.8318 -41.8136
   -41.7688 -41.7241 -41.6816 -41.5294 -41.4599 -41.4201 -41.3248 -41.2823
   -41.2460 -41.2283 -41.2040 -41.1866 -41.1338 -41.1189 -41.0931 -41.0500
    -6.7456  -5.1311  -5.0698  -4.8123  -4.7002  -4.6239  -4.5184  -4.4314
    -4.3299  -4.1695  -4.1075  -4.0794  -3.8460  -3.6878  -3.6576  -2.8050
    -2.5595  -2.3517  -2.3227  -2.1542  -2.1240  -1.8752  -1.8182  -1.7313
    -1.6141  -1.5428  -1.4211  -1.2765  -1.1629  -1.1497  -1.0981  -0.9124
    -0.8821  -0.3329  -0.1468  -0.1163   0.0851   0.1328   0.2898   0.3874
     0.4156   0.6485   0.7807   0.8335   1.1663   1.2108   1.3304   1.4427
     1.6010   1.6376   1.7584   1.8664   1.8997   2.0172   2.0308   2.0680
     2.1254   2.1361   2.3638   2.3648   2.5182   2.7265   2.7698   2.7959
     2.8574   3.4441   3.4715   4.1072   4.6904   4.7139

          k = 0.0152 0.0261 0.0000 ( 30116 PWs)   bands (ev):

   -71.7599 -71.7189 -71.3571 -71.3159 -71.2723 -71.2310 -41.8321 -41.8138
   -41.7689 -41.7246 -41.6818 -41.5297 -41.4601 -41.4201 -41.3253 -41.2825
   -41.2465 -41.2283 -41.2042 -41.1866 -41.1338 -41.1189 -41.0932 -41.0500
    -6.6366  -5.0591  -4.9805  -4.7357  -4.6079  -4.5603  -4.4527  -4.3429
    -4.2695  -4.1308  -4.0461  -4.0209  -3.7558  -3.6282  -3.5315  -2.8078
    -2.5461  -2.3526  -2.3335  -2.1110  -2.0567  -1.9634  -1.7740  -1.7230
    -1.6457  -1.5997  -1.3896  -1.2377  -1.1457  -1.1369  -1.1154  -0.9489
    -0.9251  -0.4527  -0.2679  -0.1534  -0.0302   0.1054   0.2103   0.2976
     0.3184   0.5014   0.6458   0.7732   1.0998   1.1155   1.2880   1.3583
     1.4023   1.5526   1.6543   1.6746   1.7307   1.7495   1.9302   1.9547
     2.0124   2.0662   2.0935   2.2644   2.3794   2.3795   2.7434   2.9902
     2.9912   3.2559   3.8222   3.8232   4.1920   5.3910

          k = 0.0152 0.0435 0.0000 ( 30119 PWs)   bands (ev):

   -71.7598 -71.7189 -71.3571 -71.3159 -71.2722 -71.2310 -41.8326 -41.8143
   -41.7691 -41.7255 -41.6822 -41.5301 -41.4606 -41.4202 -41.3261 -41.2830
   -41.2473 -41.2283 -41.2047 -41.1866 -41.1340 -41.1190 -41.0933 -41.0501
    -6.4293  -4.9569  -4.8048  -4.5860  -4.4531  -4.4349  -4.3184  -4.1743
    -4.1540  -4.0473  -3.9319  -3.8981  -3.5794  -3.5109  -3.2934  -2.8193
    -2.5320  -2.4082  -2.3104  -2.1182  -2.0565  -1.9387  -1.7818  -1.7712
    -1.6226  -1.5676  -1.3556  -1.2453  -1.1761  -1.1431  -1.0990  -1.0676
    -0.8573  -0.6580  -0.5064  -0.2436  -0.1925  -0.0052   0.0572   0.0841
     0.1719   0.2694   0.5426   0.7041   0.8009   0.8053   0.9122   1.0886
     1.1068   1.3187   1.3196   1.3743   1.6206   1.6390   1.7318   1.8037
     1.8987   1.9089   1.9938   2.1211   2.1621   2.3115   2.5255   2.7564
     3.0165   3.1536   3.8588   3.8737   4.7701   5.4794

          k = 0.0152 0.0608 0.0000 ( 30069 PWs)   bands (ev):

   -71.7597 -71.7189 -71.3570 -71.3159 -71.2722 -71.2310 -41.8331 -41.8148
   -41.7694 -41.7266 -41.6825 -41.5305 -41.4611 -41.4203 -41.3270 -41.2836
   -41.2482 -41.2283 -41.2052 -41.1866 -41.1342 -41.1191 -41.0934 -41.0502
    -6.1480  -4.8729  -4.5806  -4.3918  -4.2725  -4.2632  -4.1200  -4.0122
    -3.9498  -3.8924  -3.7688  -3.7143  -3.3445  -3.3375  -2.9803  -2.8309
    -2.5605  -2.5117  -2.3337  -2.2130  -1.9926  -1.9798  -1.8053  -1.7469
    -1.6053  -1.4863  -1.3477  -1.2904  -1.2530  -1.2106  -1.1741  -1.0333
    -0.8662  -0.7945  -0.7081  -0.3779  -0.3551  -0.2713  -0.2327  -0.0645
    -0.0477   0.1439   0.1686   0.2701   0.4304   0.5258   0.6308   0.7726
     0.7745   0.9268   1.0597   1.2980   1.3503   1.4578   1.5930   1.6282
     1.7151   1.8030   1.9101   1.9470   2.0573   2.2390   2.3169   2.7171
     2.7735   3.2855   3.9899   4.4754   5.0220   5.1460

          k = 0.0152 0.0782 0.0000 ( 30073 PWs)   bands (ev):

   -71.7597 -71.7188 -71.3570 -71.3159 -71.2721 -71.2310 -41.8336 -41.8153
   -41.7696 -41.7275 -41.6829 -41.5309 -41.4615 -41.4204 -41.3278 -41.2841
   -41.2491 -41.2282 -41.2056 -41.1866 -41.1343 -41.1191 -41.0935 -41.0503
    -5.8414  -4.8480  -4.3748  -4.2240  -4.0832  -4.0725  -3.9006  -3.8797
    -3.7199  -3.6682  -3.6144  -3.4345  -3.1688  -3.1057  -2.8724  -2.7439
    -2.6924  -2.4955  -2.3398  -2.2025  -2.1893  -1.9033  -1.8696  -1.7171
    -1.6104  -1.4823  -1.4816  -1.3622  -1.3258  -1.2319  -1.1475  -1.0016
    -0.9949  -0.9092  -0.7164  -0.6654  -0.6006  -0.4670  -0.4117  -0.3006
    -0.2902  -0.2071  -0.0564  -0.0278   0.0305   0.2999   0.3527   0.5978
     0.7019   0.7295   0.7812   1.0411   1.2155   1.4016   1.4710   1.5139
     1.6017   1.6161   1.6813   1.8019   2.0321   2.0421   2.1640   2.7927
     3.0913   3.3738   4.0853   4.4690   5.1861   5.3346

          k = 0.0152 0.0956 0.0000 ( 30071 PWs)   bands (ev):

   -71.7597 -71.7188 -71.3570 -71.3159 -71.2721 -71.2310 -41.8339 -41.8156
   -41.7697 -41.7281 -41.6831 -41.5312 -41.4617 -41.4204 -41.3282 -41.2843
   -41.2496 -41.2282 -41.2059 -41.1866 -41.1344 -41.1192 -41.0935 -41.0503
    -5.6081  -4.8809  -4.2546  -4.1293  -3.9469  -3.9293  -3.7971  -3.7238
    -3.5717  -3.5068  -3.4791  -3.1047  -3.0494  -3.0340  -2.8959  -2.8539
    -2.7128  -2.6455  -2.2492  -2.2089  -1.9396  -1.8901  -1.8290  -1.7381
    -1.7191  -1.5896  -1.5303  -1.5149  -1.3546  -1.3272  -1.1010  -1.0778
    -1.0024  -0.9751  -0.9488  -0.8297  -0.7675  -0.6342  -0.6237  -0.4228
    -0.3769  -0.3324  -0.1754  -0.1238  -0.0145   0.0371   0.2755   0.5636
     0.5883   0.6087   0.6467   1.0213   1.0777   1.3302   1.3993   1.4059
     1.4707   1.5401   1.5756   1.6319   2.0388   2.0515   2.1242   2.8051
     3.4174   3.4880   4.0437   4.1356   5.4117   6.1035

          k = 0.0152-0.0956 0.0000 ( 30071 PWs)   bands (ev):

   -71.7597 -71.7188 -71.3570 -71.3159 -71.2721 -71.2310 -41.8339 -41.8156
   -41.7697 -41.7281 -41.6831 -41.5312 -41.4617 -41.4204 -41.3282 -41.2843
   -41.2496 -41.2282 -41.2059 -41.1866 -41.1344 -41.1192 -41.0935 -41.0503
    -5.6081  -4.8809  -4.2546  -4.1293  -3.9469  -3.9293  -3.7971  -3.7238
    -3.5717  -3.5068  -3.4791  -3.1047  -3.0494  -3.0340  -2.8959  -2.8539
    -2.7128  -2.6455  -2.2492  -2.2089  -1.9396  -1.8901  -1.8290  -1.7381
    -1.7191  -1.5896  -1.5303  -1.5149  -1.3546  -1.3272  -1.1010  -1.0778
    -1.0024  -0.9751  -0.9488  -0.8297  -0.7675  -0.6342  -0.6237  -0.4228
    -0.3769  -0.3324  -0.1754  -0.1238  -0.0145   0.0371   0.2755   0.5636
     0.5883   0.6087   0.6467   1.0213   1.0777   1.3302   1.3993   1.4059
     1.4707   1.5401   1.5756   1.6319   2.0388   2.0515   2.1242   2.8051
     3.4174   3.4880   4.0437   4.1355   5.4114   5.8091

          k = 0.0152-0.0782 0.0000 ( 30073 PWs)   bands (ev):

   -71.7597 -71.7188 -71.3570 -71.3159 -71.2721 -71.2310 -41.8336 -41.8153
   -41.7696 -41.7275 -41.6829 -41.5309 -41.4615 -41.4204 -41.3278 -41.2841
   -41.2491 -41.2282 -41.2056 -41.1866 -41.1343 -41.1191 -41.0935 -41.0503
    -5.8414  -4.8480  -4.3748  -4.2240  -4.0832  -4.0725  -3.9006  -3.8797
    -3.7199  -3.6682  -3.6144  -3.4345  -3.1688  -3.1057  -2.8724  -2.7439
    -2.6924  -2.4955  -2.3398  -2.2025  -2.1893  -1.9033  -1.8696  -1.7171
    -1.6104  -1.4823  -1.4816  -1.3622  -1.3258  -1.2319  -1.1475  -1.0016
    -0.9949  -0.9092  -0.7164  -0.6654  -0.6006  -0.4670  -0.4117  -0.3006
    -0.2902  -0.2071  -0.0564  -0.0278   0.0305   0.2999   0.3527   0.5978
     0.7019   0.7295   0.7812   1.0411   1.2155   1.4016   1.4710   1.5139
     1.6017   1.6161   1.6813   1.8019   2.0321   2.0421   2.1640   2.7927
     3.0913   3.3738   4.0853   4.4690   5.1861   5.3345

          k = 0.0152-0.0608 0.0000 ( 30069 PWs)   bands (ev):

   -71.7597 -71.7189 -71.3570 -71.3159 -71.2722 -71.2310 -41.8331 -41.8148
   -41.7694 -41.7266 -41.6825 -41.5305 -41.4611 -41.4203 -41.3270 -41.2836
   -41.2482 -41.2283 -41.2052 -41.1866 -41.1342 -41.1191 -41.0934 -41.0502
    -6.1480  -4.8729  -4.5806  -4.3918  -4.2725  -4.2632  -4.1200  -4.0122
    -3.9498  -3.8924  -3.7688  -3.7143  -3.3445  -3.3375  -2.9803  -2.8309
    -2.5605  -2.5117  -2.3337  -2.2130  -1.9926  -1.9798  -1.8053  -1.7469
    -1.6053  -1.4863  -1.3477  -1.2904  -1.2530  -1.2106  -1.1741  -1.0333
    -0.8662  -0.7945  -0.7081  -0.3779  -0.3551  -0.2713  -0.2327  -0.0645
    -0.0477   0.1439   0.1686   0.2701   0.4304   0.5258   0.6308   0.7726
     0.7745   0.9268   1.0597   1.2980   1.3503   1.4578   1.5930   1.6282
     1.7151   1.8030   1.9101   1.9470   2.0573   2.2390   2.3169   2.7171
     2.7735   3.2855   3.9899   4.4754   5.0220   5.1460

          k = 0.0152-0.0435 0.0000 ( 30119 PWs)   bands (ev):

   -71.7598 -71.7189 -71.3571 -71.3159 -71.2722 -71.2310 -41.8326 -41.8143
   -41.7691 -41.7255 -41.6822 -41.5301 -41.4606 -41.4202 -41.3261 -41.2830
   -41.2473 -41.2283 -41.2047 -41.1866 -41.1340 -41.1190 -41.0933 -41.0501
    -6.4293  -4.9569  -4.8048  -4.5860  -4.4531  -4.4349  -4.3184  -4.1743
    -4.1540  -4.0473  -3.9319  -3.8981  -3.5794  -3.5109  -3.2934  -2.8193
    -2.5320  -2.4082  -2.3104  -2.1182  -2.0565  -1.9387  -1.7818  -1.7712
    -1.6226  -1.5676  -1.3556  -1.2453  -1.1761  -1.1431  -1.0990  -1.0676
    -0.8573  -0.6580  -0.5064  -0.2436  -0.1925  -0.0052   0.0572   0.0841
     0.1719   0.2694   0.5426   0.7041   0.8009   0.8053   0.9122   1.0886
     1.1068   1.3187   1.3196   1.3743   1.6206   1.6390   1.7318   1.8037
     1.8987   1.9089   1.9938   2.1211   2.1621   2.3115   2.5255   2.7564
     3.0165   3.1536   3.8588   3.8737   4.7701   5.4793

          k = 0.0152-0.0261 0.0000 ( 30116 PWs)   bands (ev):

   -71.7599 -71.7189 -71.3571 -71.3159 -71.2723 -71.2310 -41.8321 -41.8138
   -41.7689 -41.7246 -41.6818 -41.5297 -41.4601 -41.4201 -41.3253 -41.2825
   -41.2465 -41.2283 -41.2042 -41.1866 -41.1338 -41.1189 -41.0932 -41.0500
    -6.6366  -5.0591  -4.9805  -4.7357  -4.6079  -4.5603  -4.4527  -4.3429
    -4.2695  -4.1308  -4.0461  -4.0209  -3.7558  -3.6282  -3.5315  -2.8078
    -2.5461  -2.3526  -2.3335  -2.1110  -2.0567  -1.9634  -1.7740  -1.7230
    -1.6457  -1.5997  -1.3896  -1.2377  -1.1457  -1.1369  -1.1154  -0.9489
    -0.9251  -0.4527  -0.2679  -0.1534  -0.0302   0.1054   0.2103   0.2976
     0.3184   0.5014   0.6458   0.7732   1.0998   1.1155   1.2880   1.3583
     1.4023   1.5526   1.6543   1.6746   1.7307   1.7495   1.9302   1.9547
     2.0124   2.0662   2.0935   2.2644   2.3794   2.3795   2.7434   2.9902
     2.9912   3.2559   3.8222   3.8232   4.1920   5.3923

          k = 0.0152-0.0087 0.0000 ( 30147 PWs)   bands (ev):

   -71.7599 -71.7189 -71.3572 -71.3159 -71.2723 -71.2310 -41.8318 -41.8136
   -41.7688 -41.7241 -41.6816 -41.5294 -41.4599 -41.4201 -41.3248 -41.2823
   -41.2460 -41.2283 -41.2040 -41.1866 -41.1338 -41.1189 -41.0931 -41.0500
    -6.7456  -5.1311  -5.0698  -4.8123  -4.7002  -4.6239  -4.5184  -4.4314
    -4.3299  -4.1695  -4.1075  -4.0794  -3.8460  -3.6878  -3.6576  -2.8050
    -2.5595  -2.3517  -2.3227  -2.1542  -2.1240  -1.8752  -1.8182  -1.7313
    -1.6141  -1.5428  -1.4211  -1.2765  -1.1629  -1.1497  -1.0981  -0.9124
    -0.8821  -0.3329  -0.1468  -0.1163   0.0851   0.1328   0.2898   0.3874
     0.4156   0.6485   0.7807   0.8335   1.1663   1.2108   1.3304   1.4427
     1.6010   1.6376   1.7584   1.8664   1.8997   2.0172   2.0308   2.0680
     2.1254   2.1361   2.3638   2.3648   2.5182   2.7265   2.7698   2.7959
     2.8574   3.4441   3.4715   4.1072   4.6904   4.7139

          k = 0.0303 0.0174 0.0000 ( 30094 PWs)   bands (ev):

   -71.7578 -71.7210 -71.3550 -71.3181 -71.2702 -71.2332 -41.8114 -41.8111
   -41.7713 -41.7221 -41.6841 -41.5087 -41.4419 -41.4392 -41.3229 -41.2847
   -41.2441 -41.2262 -41.2064 -41.1887 -41.1407 -41.1317 -41.0953 -41.0718
    -6.5638  -4.9506  -4.8890  -4.7309  -4.6198  -4.4833  -4.4094  -4.3453
    -4.2276  -4.0877  -4.0308  -4.0030  -3.7322  -3.5400  -3.5296  -2.7624
    -2.5671  -2.3306  -2.2988  -2.1132  -2.0463  -2.0288  -1.8467  -1.7801
    -1.7030  -1.5929  -1.3505  -1.2964  -1.2289  -1.2025  -1.0153  -0.8864
    -0.7957  -0.4552  -0.4457  -0.3079   0.0114   0.0331   0.2043   0.3049
     0.3624   0.3917   0.6706   0.7022   0.9176   1.0469   1.2046   1.2100
     1.3417   1.3435   1.6320   1.6795   1.7713   1.8251   1.9090   1.9938
     2.0049   2.0337   2.1143   2.1329   2.2382   2.3816   2.4509   2.6132
     3.1634   3.4347   3.8516   3.8536   4.6694   4.7210

          k = 0.0303 0.0348 0.0000 ( 30089 PWs)   bands (ev):

   -71.7577 -71.7210 -71.3550 -71.3181 -71.2701 -71.2332 -41.8117 -41.8115
   -41.7714 -41.7229 -41.6843 -41.5091 -41.4420 -41.4396 -41.3235 -41.2851
   -41.2447 -41.2262 -41.2067 -41.1887 -41.1407 -41.1318 -41.0954 -41.0718
    -6.4065  -4.8542  -4.7614  -4.6532  -4.4971  -4.3891  -4.2973  -4.2217
    -4.1420  -4.0355  -3.9512  -3.8980  -3.6219  -3.4584  -3.3322  -2.7748
    -2.5557  -2.3736  -2.3053  -2.1523  -2.0500  -1.9480  -1.7993  -1.7473
    -1.7345  -1.7128  -1.3148  -1.2638  -1.2123  -1.1769  -1.0441  -0.9892
    -0.7786  -0.5988  -0.5881  -0.3656  -0.1436  -0.0643   0.1430   0.1568
     0.1967   0.2441   0.5895   0.6468   0.7392   0.7678   0.9813   1.0342
     1.1280   1.3380   1.3705   1.4172   1.5289   1.6175   1.6538   1.8694
     1.8811   1.9861   2.0205   2.1242   2.2509   2.3372   2.3623   2.6386
     3.0359   3.2544   3.8607   3.9210   4.7085   5.2883

          k = 0.0303 0.0522 0.0000 ( 30073 PWs)   bands (ev):

   -71.7577 -71.7210 -71.3549 -71.3180 -71.2701 -71.2331 -41.8122 -41.8120
   -41.7716 -41.7238 -41.6846 -41.5095 -41.4421 -41.4400 -41.3243 -41.2855
   -41.2455 -41.2261 -41.2071 -41.1887 -41.1408 -41.1320 -41.0954 -41.0718
    -6.1614  -4.7536  -4.5604  -4.5039  -4.3520  -4.2371  -4.1303  -4.0209
    -4.0122  -3.9325  -3.8116  -3.7367  -3.4268  -3.3297  -3.0605  -2.7944
    -2.5644  -2.4469  -2.3328  -2.2736  -1.9926  -1.9278  -1.8180  -1.7751
    -1.7634  -1.6316  -1.2929  -1.2621  -1.2533  -1.1929  -1.1496  -1.0471
    -0.8142  -0.7751  -0.7020  -0.4556  -0.3033  -0.1678  -0.1644  -0.0556
     0.0325   0.1246   0.3508   0.3712   0.4081   0.5612   0.6326   0.6923
     0.9232   1.0043   1.1281   1.2903   1.3612   1.3983   1.5760   1.6939
     1.8302   1.8767   1.9342   1.9898   2.0964   2.5013   2.5446   2.6730
     2.7602   3.1163   3.1574   4.4145   5.2616   5.4670

          k = 0.0303 0.0695 0.0000 ( 30101 PWs)   bands (ev):

   -71.7576 -71.7210 -71.3549 -71.3180 -71.2700 -71.2331 -41.8127 -41.8125
   -41.7718 -41.7248 -41.6849 -41.5099 -41.4421 -41.4405 -41.3251 -41.2860
   -41.2464 -41.2261 -41.2076 -41.1887 -41.1408 -41.1321 -41.0955 -41.0719
    -5.8604  -4.6986  -4.3378  -4.3094  -4.2056  -4.0585  -3.9289  -3.8723
    -3.7975  -3.7415  -3.6133  -3.5307  -3.1823  -3.1786  -2.9271  -2.6807
    -2.6541  -2.5192  -2.3886  -2.3056  -2.1239  -1.9179  -1.8782  -1.8470
    -1.6514  -1.5666  -1.4069  -1.3834  -1.2976  -1.2702  -1.1892  -1.0443
    -0.9995  -0.8416  -0.7457  -0.5816  -0.5193  -0.4535  -0.4161  -0.2446
    -0.1617  -0.0865  -0.0329   0.0551   0.1218   0.3581   0.4909   0.6132
     0.7277   0.7585   0.8259   1.1845   1.2647   1.3353   1.5130   1.5695
     1.7071   1.7884   1.8410   1.9348   1.9628   2.2222   2.4307   2.5785
     2.7341   3.0653   3.2079   4.8485   5.0900   5.3274

          k = 0.0303 0.0869 0.0000 ( 30055 PWs)   bands (ev):

   -71.7576 -71.7210 -71.3549 -71.3180 -71.2700 -71.2331 -41.8130 -41.8128
   -41.7719 -41.7255 -41.6851 -41.5102 -41.4422 -41.4408 -41.3257 -41.2863
   -41.2470 -41.2260 -41.2079 -41.1887 -41.1408 -41.1322 -41.0956 -41.0719
    -5.5694  -4.7182  -4.1672  -4.1326  -4.0880  -3.9076  -3.7284  -3.7262
    -3.5923  -3.5084  -3.4785  -3.2491  -3.0913  -3.0807  -2.8674  -2.8247
    -2.6780  -2.4790  -2.3777  -2.2727  -2.1639  -1.9580  -1.8694  -1.8659
    -1.6629  -1.6309  -1.5379  -1.5126  -1.3911  -1.3342  -1.2174  -1.1001
    -1.0802  -0.9099  -0.8956  -0.8143  -0.7339  -0.7035  -0.6600  -0.4108
    -0.3660  -0.3297  -0.0559   0.0068   0.1767   0.1886   0.3033   0.5547
     0.6353   0.6743   0.7561   1.0701   1.1726   1.3454   1.4118   1.4921
     1.5960   1.6326   1.7030   1.8150   1.9534   1.9552   2.0720   2.6102
     2.7923   3.2688   3.4426   4.4006   5.3490   5.6565

          k = 0.0303 0.1043 0.0000 ( 30110 PWs)   bands (ev):

   -71.7576 -71.7210 -71.3549 -71.3180 -71.2700 -71.2331 -41.8132 -41.8130
   -41.7720 -41.7257 -41.6852 -41.5103 -41.4422 -41.4409 -41.3259 -41.2865
   -41.2473 -41.2260 -41.2080 -41.1887 -41.1409 -41.1323 -41.0956 -41.0720
    -5.4289  -4.7566  -4.1052  -4.0587  -4.0416  -3.8419  -3.6565  -3.6177
    -3.4963  -3.4242  -3.3849  -3.1649  -3.0392  -3.0253  -2.9843  -2.7644
    -2.7365  -2.6243  -2.4219  -2.1163  -1.9631  -1.8808  -1.8379  -1.8185
    -1.8075  -1.7459  -1.6485  -1.6142  -1.5036  -1.3646  -1.2964  -1.1701
    -1.0426  -1.0322  -0.9678  -0.8479  -0.8075  -0.7371  -0.7084  -0.5341
    -0.4283  -0.3818  -0.0903   0.0534   0.1324   0.2234   0.2435   0.5101
     0.6351   0.6610   0.7747   1.0539   1.1084   1.3640   1.3789   1.4522
     1.4805   1.5591   1.6296   1.6447   1.9510   1.9551   2.0120   2.6195
     2.8140   3.2897   3.7459   4.0637   5.3561   6.2162

          k = 0.0303-0.0869 0.0000 ( 30055 PWs)   bands (ev):

   -71.7576 -71.7210 -71.3549 -71.3180 -71.2700 -71.2331 -41.8130 -41.8128
   -41.7719 -41.7255 -41.6851 -41.5102 -41.4422 -41.4408 -41.3257 -41.2863
   -41.2470 -41.2260 -41.2079 -41.1887 -41.1408 -41.1322 -41.0956 -41.0719
    -5.5694  -4.7182  -4.1672  -4.1326  -4.0880  -3.9076  -3.7284  -3.7262
    -3.5923  -3.5084  -3.4785  -3.2491  -3.0913  -3.0807  -2.8674  -2.8247
    -2.6780  -2.4790  -2.3777  -2.2727  -2.1639  -1.9580  -1.8694  -1.8659
    -1.6629  -1.6309  -1.5379  -1.5126  -1.3911  -1.3342  -1.2174  -1.1001
    -1.0802  -0.9099  -0.8956  -0.8143  -0.7339  -0.7035  -0.6600  -0.4108
    -0.3660  -0.3297  -0.0559   0.0068   0.1767   0.1886   0.3033   0.5547
     0.6353   0.6743   0.7561   1.0701   1.1726   1.3454   1.4118   1.4921
     1.5960   1.6326   1.7030   1.8150   1.9534   1.9552   2.0720   2.6102
     2.7923   3.2688   3.4426   4.4006   5.3490   5.6565

          k = 0.0303-0.0695 0.0000 ( 30101 PWs)   bands (ev):

   -71.7576 -71.7210 -71.3549 -71.3180 -71.2700 -71.2331 -41.8127 -41.8125
   -41.7718 -41.7248 -41.6849 -41.5099 -41.4421 -41.4405 -41.3251 -41.2860
   -41.2464 -41.2261 -41.2076 -41.1887 -41.1408 -41.1321 -41.0955 -41.0719
    -5.8604  -4.6986  -4.3378  -4.3094  -4.2056  -4.0585  -3.9289  -3.8723
    -3.7975  -3.7415  -3.6133  -3.5307  -3.1823  -3.1786  -2.9271  -2.6807
    -2.6541  -2.5192  -2.3886  -2.3056  -2.1239  -1.9179  -1.8782  -1.8470
    -1.6514  -1.5666  -1.4069  -1.3834  -1.2976  -1.2702  -1.1892  -1.0443
    -0.9995  -0.8416  -0.7457  -0.5816  -0.5193  -0.4535  -0.4161  -0.2446
    -0.1617  -0.0865  -0.0329   0.0551   0.1218   0.3581   0.4909   0.6132
     0.7277   0.7585   0.8259   1.1845   1.2647   1.3353   1.5130   1.5695
     1.7071   1.7884   1.8410   1.9348   1.9628   2.2222   2.4307   2.5785
     2.7341   3.0653   3.2079   4.8485   5.0900   5.3274

          k = 0.0303-0.0522 0.0000 ( 30073 PWs)   bands (ev):

   -71.7577 -71.7210 -71.3549 -71.3180 -71.2701 -71.2331 -41.8122 -41.8120
   -41.7716 -41.7238 -41.6846 -41.5095 -41.4421 -41.4400 -41.3243 -41.2855
   -41.2455 -41.2261 -41.2071 -41.1887 -41.1408 -41.1320 -41.0954 -41.0718
    -6.1614  -4.7536  -4.5604  -4.5039  -4.3520  -4.2371  -4.1303  -4.0209
    -4.0122  -3.9325  -3.8116  -3.7367  -3.4268  -3.3297  -3.0605  -2.7944
    -2.5644  -2.4469  -2.3328  -2.2736  -1.9926  -1.9278  -1.8180  -1.7751
    -1.7634  -1.6316  -1.2929  -1.2621  -1.2533  -1.1929  -1.1496  -1.0471
    -0.8142  -0.7751  -0.7020  -0.4556  -0.3033  -0.1678  -0.1644  -0.0556
     0.0325   0.1246   0.3508   0.3712   0.4081   0.5612   0.6326   0.6923
     0.9232   1.0043   1.1281   1.2903   1.3612   1.3983   1.5760   1.6939
     1.8302   1.8767   1.9342   1.9898   2.0964   2.5013   2.5446   2.6730
     2.7602   3.1163   3.1574   4.4145   5.2615   5.4670

          k = 0.0303-0.0348 0.0000 ( 30089 PWs)   bands (ev):

   -71.7577 -71.7210 -71.3550 -71.3181 -71.2701 -71.2332 -41.8117 -41.8115
   -41.7714 -41.7229 -41.6843 -41.5091 -41.4420 -41.4396 -41.3235 -41.2851
   -41.2447 -41.2262 -41.2067 -41.1887 -41.1407 -41.1318 -41.0954 -41.0718
    -6.4065  -4.8542  -4.7614  -4.6532  -4.4971  -4.3891  -4.2973  -4.2217
    -4.1420  -4.0355  -3.9512  -3.8980  -3.6219  -3.4584  -3.3322  -2.7748
    -2.5557  -2.3736  -2.3053  -2.1523  -2.0500  -1.9480  -1.7993  -1.7473
    -1.7345  -1.7128  -1.3148  -1.2638  -1.2123  -1.1769  -1.0441  -0.9892
    -0.7786  -0.5988  -0.5881  -0.3656  -0.1436  -0.0643   0.1430   0.1568
     0.1967   0.2441   0.5895   0.6468   0.7392   0.7678   0.9813   1.0342
     1.1280   1.3380   1.3705   1.4172   1.5289   1.6175   1.6538   1.8694
     1.8811   1.9861   2.0205   2.1242   2.2509   2.3372   2.3623   2.6386
     3.0359   3.2544   3.8607   3.9210   4.7085   5.2883

          k = 0.0303-0.0174 0.0000 ( 30094 PWs)   bands (ev):

   -71.7578 -71.7210 -71.3550 -71.3181 -71.2702 -71.2332 -41.8114 -41.8111
   -41.7713 -41.7221 -41.6841 -41.5087 -41.4419 -41.4392 -41.3229 -41.2847
   -41.2441 -41.2262 -41.2064 -41.1887 -41.1407 -41.1317 -41.0953 -41.0718
    -6.5638  -4.9506  -4.8890  -4.7309  -4.6198  -4.4833  -4.4094  -4.3453
    -4.2276  -4.0877  -4.0308  -4.0030  -3.7322  -3.5400  -3.5296  -2.7624
    -2.5671  -2.3306  -2.2988  -2.1132  -2.0463  -2.0288  -1.8467  -1.7801
    -1.7030  -1.5929  -1.3505  -1.2964  -1.2289  -1.2025  -1.0153  -0.8864
    -0.7957  -0.4552  -0.4457  -0.3079   0.0114   0.0331   0.2043   0.3049
     0.3624   0.3917   0.6706   0.7022   0.9176   1.0469   1.2046   1.2100
     1.3417   1.3435   1.6320   1.6795   1.7713   1.8251   1.9090   1.9938
     2.0049   2.0337   2.1143   2.1329   2.2382   2.3816   2.4509   2.6132
     3.1634   3.4347   3.8516   3.8536   4.6694   4.7210

          k = 0.0303-0.0000 0.0000 ( 30085 PWs)   bands (ev):

   -71.7578 -71.7210 -71.3550 -71.3181 -71.2702 -71.2332 -41.8113 -41.8110
   -41.7712 -41.7219 -41.6840 -41.5086 -41.4419 -41.4391 -41.3227 -41.2846
   -41.2439 -41.2262 -41.2063 -41.1887 -41.1406 -41.1317 -41.0953 -41.0717
    -6.6177  -4.9907  -4.9305  -4.7447  -4.6785  -4.5146  -4.4460  -4.3873
    -4.2565  -4.1046  -4.0578  -4.0379  -3.7636  -3.6042  -3.5677  -2.7594
    -2.5727  -2.3107  -2.2973  -2.1516  -2.0510  -2.0164  -1.8445  -1.8135
    -1.6930  -1.5188  -1.3616  -1.3137  -1.2589  -1.2204  -1.0036  -0.8486
    -0.7951  -0.3997  -0.3931  -0.3001   0.0848   0.0882   0.2097   0.3356
     0.4228   0.4284   0.7057   0.7997   0.9705   1.0114   1.2537   1.2789
     1.4498   1.4788   1.5985   1.7767   1.8813   1.9432   1.9674   1.9759
     1.9944   2.0057   2.0724   2.2109   2.4256   2.4656   2.6019   2.8272
     3.1112   3.2559   3.7529   3.9037   4.1649   5.4120

          k = 0.0455 0.0261 0.0000 ( 30093 PWs)   bands (ev):

   -71.7544 -71.7244 -71.3516 -71.3215 -71.2668 -71.2366 -41.8079 -41.7781
   -41.7751 -41.7190 -41.6880 -41.4766 -41.4757 -41.4063 -41.3198 -41.2886
   -41.2410 -41.2228 -41.2102 -41.1922 -41.1752 -41.1285 -41.1062 -41.0987
    -6.2746  -4.6746  -4.6667  -4.6103  -4.4718  -4.2675  -4.2302  -4.2011
    -4.0758  -3.9507  -3.9262  -3.8605  -3.5791  -3.3114  -3.3010  -2.7132
    -2.6009  -2.3387  -2.2940  -2.2538  -2.0600  -1.9123  -1.8848  -1.8605
    -1.7961  -1.6957  -1.3623  -1.3358  -1.3030  -1.1539  -0.9739  -0.9145
    -0.8244  -0.6510  -0.6024  -0.4633  -0.2339  -0.1787   0.0272   0.1286
     0.1609   0.2805   0.2919   0.5374   0.6424   0.6998   0.8189   0.9822
     1.1177   1.1741   1.3332   1.4147   1.4679   1.5405   1.6892   1.7474
     1.8038   1.9111   1.9888   2.0039   2.1725   2.3125   2.3170   2.4146
     2.4889   4.0854   4.0888   4.1550   4.7367   4.8933

          k = 0.0455 0.0435 0.0000 ( 30049 PWs)   bands (ev):

   -71.7543 -71.7244 -71.3516 -71.3214 -71.2667 -71.2365 -41.8083 -41.7785
   -41.7752 -41.7198 -41.6881 -41.4766 -41.4761 -41.4066 -41.3204 -41.2889
   -41.2417 -41.2227 -41.2105 -41.1922 -41.1752 -41.1286 -41.1062 -41.0988
    -6.0784  -4.6205  -4.5558  -4.4648  -4.3452  -4.1452  -4.1164  -4.0163
    -3.9761  -3.8927  -3.8225  -3.7191  -3.4560  -3.2229  -3.0650  -2.7386
    -2.5991  -2.3888  -2.3730  -2.3498  -2.0126  -1.9338  -1.8744  -1.8417
    -1.7529  -1.7365  -1.3611  -1.3183  -1.2992  -1.1637  -1.1362  -0.9538
    -0.8764  -0.7170  -0.6393  -0.5099  -0.4073  -0.2553  -0.1565  -0.0697
     0.0239   0.0713   0.1593   0.4046   0.5341   0.5431   0.5957   0.6326
     0.9404   1.0471   1.1101   1.1910   1.3042   1.4186   1.4641   1.6522
     1.8411   1.8499   1.9317   1.9970   2.0120   2.2415   2.3662   2.4398
     2.6682   3.4608   4.0666   4.5178   4.7240   5.2087

          k = 0.0455 0.0608 0.0000 ( 30077 PWs)   bands (ev):

   -71.7543 -71.7244 -71.3516 -71.3214 -71.2667 -71.2365 -41.8087 -41.7789
   -41.7754 -41.7207 -41.6883 -41.4766 -41.4765 -41.4071 -41.3211 -41.2893
   -41.2424 -41.2227 -41.2108 -41.1922 -41.1752 -41.1287 -41.1062 -41.0988
    -5.8077  -4.5116  -4.4746  -4.2642  -4.1970  -3.9762  -3.9587  -3.8396
    -3.8110  -3.7754  -3.6352  -3.5448  -3.2488  -3.1138  -2.9393  -2.6502
    -2.6458  -2.4668  -2.4632  -2.4234  -2.0768  -2.0331  -1.9333  -1.8581
    -1.6576  -1.6426  -1.4469  -1.4009  -1.3270  -1.3133  -1.1617  -1.0098
    -0.9821  -0.7998  -0.7157  -0.5883  -0.5783  -0.4095  -0.3546  -0.2892
    -0.2432  -0.1689  -0.0048   0.1683   0.2509   0.4021   0.5154   0.6371
     0.6524   0.8148   0.8478   1.1594   1.2717   1.2743   1.5078   1.5334
     1.8314   1.8343   1.8430   1.8809   2.0675   2.0846   2.4079   2.4514
     2.7449   3.0364   3.3210   4.7598   5.0216   5.4884

          k = 0.0455 0.0782 0.0000 ( 30077 PWs)   bands (ev):

   -71.7543 -71.7244 -71.3515 -71.3214 -71.2666 -71.2365 -41.8091 -41.7793
   -41.7755 -41.7214 -41.6885 -41.4768 -41.4766 -41.4074 -41.3217 -41.2896
   -41.2431 -41.2227 -41.2111 -41.1922 -41.1752 -41.1288 -41.1062 -41.0989
    -5.5026  -4.4722  -4.3843  -4.0686  -4.0485  -3.8246  -3.7515  -3.6660
    -3.6346  -3.5681  -3.4411  -3.3333  -3.0867  -3.0542  -2.9245  -2.7846
    -2.6012  -2.5546  -2.4331  -2.3843  -2.2500  -2.0695  -1.9371  -1.9036
    -1.6955  -1.6211  -1.5511  -1.5265  -1.4401  -1.3704  -1.2290  -1.1411
    -1.0696  -0.9058  -0.8568  -0.8001  -0.6930  -0.6634  -0.6222  -0.5353
    -0.3888  -0.3023  -0.0644   0.1315   0.2953   0.3369   0.4129   0.5125
     0.6411   0.6895   0.8186   1.1808   1.1899   1.1934   1.4156   1.5944
     1.7250   1.7587   1.7721   1.8355   1.9030   2.1472   2.2600   2.4001
     2.5023   2.5077   3.4573   4.7418   4.8825   5.6081

          k = 0.0455 0.0956 0.0000 ( 30075 PWs)   bands (ev):

   -71.7542 -71.7244 -71.3515 -71.3214 -71.2666 -71.2365 -41.8093 -41.7796
   -41.7756 -41.7219 -41.6886 -41.4770 -41.4766 -41.4077 -41.3221 -41.2898
   -41.2435 -41.2226 -41.2113 -41.1922 -41.1752 -41.1289 -41.1062 -41.0989
    -5.2561  -4.5402  -4.2957  -3.9513  -3.9483  -3.7273  -3.5446  -3.4944
    -3.4691  -3.3718  -3.3259  -3.2185  -3.1399  -3.1054  -2.9831  -2.7497
    -2.6642  -2.6010  -2.5321  -2.2555  -2.1069  -2.0021  -1.9588  -1.9329
    -1.8234  -1.7824  -1.6971  -1.6012  -1.5535  -1.5443  -1.3496  -1.1153
    -1.0560  -1.0352  -0.9461  -0.9288  -0.8474  -0.7516  -0.6987  -0.6821
    -0.4474  -0.4214   0.0183   0.1542   0.1742   0.3999   0.4467   0.4999
     0.6297   0.6685   0.9681   1.1224   1.2108   1.2262   1.3401   1.5853
     1.6364   1.6769   1.7303   1.7824   1.8247   1.8921   2.0170   2.1931
     2.4014   2.5267   3.8377   4.3879   4.7345   6.2008

          k = 0.0455 0.1130 0.0000 ( 30075 PWs)   bands (ev):

   -71.7542 -71.7244 -71.3515 -71.3214 -71.2666 -71.2365 -41.8093 -41.7796
   -41.7756 -41.7219 -41.6886 -41.4770 -41.4766 -41.4077 -41.3221 -41.2898
   -41.2435 -41.2226 -41.2113 -41.1922 -41.1752 -41.1289 -41.1062 -41.0989
    -5.2561  -4.5402  -4.2957  -3.9513  -3.9483  -3.7273  -3.5446  -3.4944
    -3.4691  -3.3718  -3.3259  -3.2185  -3.1399  -3.1054  -2.9831  -2.7497
    -2.6642  -2.6010  -2.5321  -2.2555  -2.1069  -2.0021  -1.9588  -1.9329
    -1.8234  -1.7824  -1.6971  -1.6012  -1.5535  -1.5443  -1.3496  -1.1153
    -1.0560  -1.0352  -0.9461  -0.9288  -0.8474  -0.7516  -0.6987  -0.6821
    -0.4474  -0.4214   0.0183   0.1542   0.1742   0.3999   0.4467   0.4999
     0.6297   0.6685   0.9681   1.1224   1.2108   1.2262   1.3401   1.5853
     1.6364   1.6769   1.7303   1.7824   1.8247   1.8921   2.0170   2.1931
     2.4014   2.5267   3.8377   4.3879   4.7345   6.2008

          k = 0.0455-0.0782 0.0000 ( 30077 PWs)   bands (ev):

   -71.7543 -71.7244 -71.3515 -71.3214 -71.2666 -71.2365 -41.8091 -41.7793
   -41.7755 -41.7214 -41.6885 -41.4768 -41.4766 -41.4074 -41.3217 -41.2896
   -41.2431 -41.2227 -41.2111 -41.1922 -41.1752 -41.1288 -41.1062 -41.0989
    -5.5026  -4.4722  -4.3843  -4.0686  -4.0485  -3.8246  -3.7515  -3.6660
    -3.6346  -3.5681  -3.4411  -3.3333  -3.0867  -3.0542  -2.9245  -2.7846
    -2.6012  -2.5546  -2.4331  -2.3843  -2.2500  -2.0695  -1.9371  -1.9036
    -1.6955  -1.6211  -1.5511  -1.5265  -1.4401  -1.3704  -1.2290  -1.1411
    -1.0696  -0.9058  -0.8568  -0.8001  -0.6930  -0.6634  -0.6222  -0.5353
    -0.3888  -0.3023  -0.0644   0.1315   0.2953   0.3369   0.4129   0.5125
     0.6411   0.6895   0.8186   1.1808   1.1899   1.1934   1.4156   1.5944
     1.7250   1.7587   1.7721   1.8355   1.9030   2.1472   2.2600   2.4001
     2.5023   2.5077   3.4573   4.7418   4.8825   5.6081

          k = 0.0455-0.0608 0.0000 ( 30077 PWs)   bands (ev):

   -71.7543 -71.7244 -71.3516 -71.3214 -71.2667 -71.2365 -41.8087 -41.7789
   -41.7754 -41.7207 -41.6883 -41.4766 -41.4765 -41.4071 -41.3211 -41.2893
   -41.2424 -41.2227 -41.2108 -41.1922 -41.1752 -41.1287 -41.1062 -41.0988
    -5.8077  -4.5116  -4.4746  -4.2642  -4.1970  -3.9762  -3.9587  -3.8396
    -3.8110  -3.7754  -3.6352  -3.5448  -3.2488  -3.1138  -2.9393  -2.6502
    -2.6458  -2.4668  -2.4632  -2.4234  -2.0768  -2.0331  -1.9333  -1.8581
    -1.6576  -1.6426  -1.4469  -1.4009  -1.3270  -1.3133  -1.1617  -1.0098
    -0.9821  -0.7998  -0.7157  -0.5883  -0.5783  -0.4095  -0.3546  -0.2892
    -0.2432  -0.1689  -0.0048   0.1683   0.2509   0.4021   0.5154   0.6371
     0.6524   0.8148   0.8478   1.1594   1.2717   1.2743   1.5078   1.5334
     1.8314   1.8343   1.8430   1.8809   2.0675   2.0846   2.4079   2.4514
     2.7449   3.0364   3.3210   4.7598   5.0216   5.4884

          k = 0.0455-0.0435 0.0000 ( 30049 PWs)   bands (ev):

   -71.7543 -71.7244 -71.3516 -71.3214 -71.2667 -71.2365 -41.8083 -41.7785
   -41.7752 -41.7198 -41.6881 -41.4766 -41.4761 -41.4066 -41.3204 -41.2889
   -41.2417 -41.2227 -41.2105 -41.1922 -41.1752 -41.1286 -41.1062 -41.0988
    -6.0784  -4.6205  -4.5558  -4.4648  -4.3452  -4.1452  -4.1164  -4.0163
    -3.9761  -3.8927  -3.8225  -3.7191  -3.4560  -3.2229  -3.0650  -2.7386
    -2.5991  -2.3888  -2.3730  -2.3498  -2.0126  -1.9338  -1.8744  -1.8417
    -1.7529  -1.7365  -1.3611  -1.3183  -1.2992  -1.1637  -1.1362  -0.9538
    -0.8764  -0.7170  -0.6393  -0.5099  -0.4073  -0.2553  -0.1565  -0.0697
     0.0239   0.0713   0.1593   0.4046   0.5341   0.5431   0.5957   0.6326
     0.9404   1.0471   1.1100   1.1910   1.3042   1.4186   1.4641   1.6522
     1.8411   1.8499   1.9317   1.9970   2.0120   2.2415   2.3662   2.4398
     2.6682   3.4608   4.0666   4.5178   4.7240   5.2086

          k = 0.0455-0.0261 0.0000 ( 30093 PWs)   bands (ev):

   -71.7544 -71.7244 -71.3516 -71.3215 -71.2668 -71.2366 -41.8079 -41.7781
   -41.7751 -41.7190 -41.6880 -41.4766 -41.4757 -41.4063 -41.3198 -41.2886
   -41.2410 -41.2228 -41.2102 -41.1922 -41.1752 -41.1285 -41.1062 -41.0987
    -6.2746  -4.6746  -4.6667  -4.6103  -4.4718  -4.2675  -4.2302  -4.2011
    -4.0758  -3.9507  -3.9262  -3.8605  -3.5791  -3.3114  -3.3010  -2.7132
    -2.6009  -2.3387  -2.2940  -2.2538  -2.0600  -1.9123  -1.8848  -1.8605
    -1.7961  -1.6957  -1.3623  -1.3358  -1.3030  -1.1539  -0.9739  -0.9145
    -0.8244  -0.6510  -0.6024  -0.4633  -0.2339  -0.1787   0.0272   0.1286
     0.1609   0.2805   0.2919   0.5374   0.6424   0.6998   0.8189   0.9822
     1.1177   1.1741   1.3332   1.4147   1.4679   1.5405   1.6892   1.7474
     1.8038   1.9111   1.9888   2.0039   2.1725   2.3125   2.3170   2.4146
     2.4889   4.0854   4.0888   4.1550   4.7368   4.8933

          k = 0.0455-0.0087 0.0000 ( 30113 PWs)   bands (ev):

   -71.7544 -71.7244 -71.3516 -71.3215 -71.2668 -71.2366 -41.8077 -41.7778
   -41.7751 -41.7186 -41.6879 -41.4766 -41.4755 -41.4061 -41.3194 -41.2885
   -41.2407 -41.2228 -41.2101 -41.1922 -41.1752 -41.1284 -41.1062 -41.0987
    -6.3768  -4.7420  -4.6830  -4.6601  -4.5822  -4.3281  -4.3053  -4.2844
    -4.1261  -3.9778  -3.9707  -3.9417  -3.6142  -3.4635  -3.3587  -2.6977
    -2.6085  -2.3069  -2.2337  -2.2004  -2.1199  -1.9767  -1.9241  -1.8496
    -1.8126  -1.5505  -1.3836  -1.3765  -1.3562  -1.1705  -0.9049  -0.8574
    -0.8029  -0.6330  -0.5408  -0.4637  -0.1204  -0.0439   0.0964   0.1465
     0.2425   0.3728   0.4210   0.6076   0.6677   0.7790   0.9607   1.0876
     1.2417   1.2779   1.4122   1.5380   1.6420   1.7141   1.7443   1.7603
     1.8782   2.0029   2.0358   2.1354   2.2490   2.2823   2.3501   2.4770
     2.9659   3.2518   3.8636   3.8853   4.7431   5.6243

          k = 0.0455 0.0087 0.0000 ( 30113 PWs)   bands (ev):

   -71.7544 -71.7244 -71.3516 -71.3215 -71.2668 -71.2366 -41.8077 -41.7778
   -41.7751 -41.7186 -41.6879 -41.4766 -41.4755 -41.4061 -41.3194 -41.2885
   -41.2407 -41.2228 -41.2101 -41.1922 -41.1752 -41.1284 -41.1062 -41.0987
    -6.3768  -4.7420  -4.6830  -4.6601  -4.5822  -4.3281  -4.3053  -4.2844
    -4.1261  -3.9778  -3.9707  -3.9417  -3.6142  -3.4635  -3.3587  -2.6977
    -2.6085  -2.3069  -2.2337  -2.2004  -2.1199  -1.9767  -1.9241  -1.8496
    -1.8126  -1.5505  -1.3836  -1.3765  -1.3562  -1.1705  -0.9049  -0.8574
    -0.8029  -0.6330  -0.5408  -0.4637  -0.1204  -0.0439   0.0964   0.1465
     0.2425   0.3728   0.4210   0.6076   0.6677   0.7790   0.9607   1.0876
     1.2417   1.2779   1.4122   1.5380   1.6420   1.7141   1.7443   1.7603
     1.8782   2.0029   2.0358   2.1354   2.2490   2.2823   2.3501   2.4770
     2.9659   3.2518   3.8636   3.8853   4.7431   5.6244

          k = 0.0607 0.0348 0.0000 ( 30056 PWs)   bands (ev):

   -71.7500 -71.7288 -71.3472 -71.3259 -71.2623 -71.2410 -41.8033 -41.7802
   -41.7347 -41.7149 -41.6929 -41.5215 -41.4325 -41.3631 -41.3156 -41.2935
   -41.2369 -41.2202 -41.2180 -41.2151 -41.1967 -41.1509 -41.1242 -41.1031
    -5.9026  -4.6925  -4.3339  -4.2927  -4.2693  -4.0617  -4.0177  -3.9420
    -3.8913  -3.7996  -3.7627  -3.6784  -3.3999  -3.0398  -3.0116  -2.6770
    -2.6725  -2.4966  -2.3898  -2.3504  -2.0810  -2.0636  -1.8801  -1.8278
    -1.8012  -1.6829  -1.4676  -1.4161  -1.3801  -1.3520  -1.1134  -0.9401
    -0.8753  -0.7505  -0.6316  -0.5803  -0.5079  -0.4641  -0.3146  -0.1041
     0.0066   0.0273   0.0763   0.3421   0.4588   0.4854   0.5262   0.6949
     0.8605   1.0169   1.0750   1.1111   1.1767   1.3345   1.4399   1.4983
     1.5534   1.7032   1.7256   1.9433   2.0211   2.0904   2.3153   2.3488
     2.8100   4.1699   4.3072   4.6502   4.7841   5.0663

          k = 0.0607 0.0522 0.0000 ( 30085 PWs)   bands (ev):

   -71.7499 -71.7288 -71.3472 -71.3259 -71.2623 -71.2410 -41.8037 -41.7802
   -41.7351 -41.7156 -41.6929 -41.5215 -41.4328 -41.3635 -41.3161 -41.2937
   -41.2375 -41.2202 -41.2180 -41.2153 -41.1967 -41.1509 -41.1243 -41.1032
    -5.6836  -4.6900  -4.2197  -4.1722  -4.1590  -3.9563  -3.8857  -3.7911
    -3.7669  -3.7035  -3.6486  -3.5286  -3.2672  -2.9687  -2.9054  -2.7037
    -2.5871  -2.5541  -2.5097  -2.4325  -2.1651  -2.1210  -1.9103  -1.8654
    -1.7111  -1.5987  -1.5373  -1.4553  -1.4237  -1.3643  -1.1531  -0.9625
    -0.9462  -0.8440  -0.7109  -0.6944  -0.6432  -0.4802  -0.4102  -0.3562
    -0.2210  -0.2029   0.0627   0.1856   0.3159   0.4518   0.4645   0.6035
     0.6572   0.8181   0.8717   1.0542   1.2055   1.2401   1.3789   1.3987
     1.5041   1.7157   1.7642   1.8788   1.9602   2.0489   2.2530   2.3332
     3.0488   3.6110   4.1907   4.3379   5.1765   5.2624

          k = 0.0607 0.0695 0.0000 ( 30091 PWs)   bands (ev):

   -71.7499 -71.7288 -71.3471 -71.3259 -71.2623 -71.2410 -41.8040 -41.7803
   -41.7354 -41.7163 -41.6930 -41.5214 -41.4331 -41.3638 -41.3167 -41.2939
   -41.2381 -41.2200 -41.2181 -41.2154 -41.1967 -41.1508 -41.1244 -41.1032
    -5.4061  -4.6522  -4.1887  -4.0185  -4.0029  -3.8071  -3.7402  -3.6315
    -3.6273  -3.5987  -3.4578  -3.3461  -3.0842  -2.9527  -2.9300  -2.7621
    -2.6728  -2.5804  -2.5797  -2.3745  -2.2197  -2.2050  -1.9770  -1.8968
    -1.7463  -1.6338  -1.5836  -1.5119  -1.5095  -1.3931  -1.2237  -1.0751
    -1.0048  -0.9996  -0.9064  -0.8130  -0.7781  -0.6024  -0.5540  -0.4746
    -0.3711  -0.2883  -0.1559   0.2897   0.3732   0.3961   0.4316   0.4844
     0.6374   0.7312   0.8125   1.0315   1.1337   1.2444   1.3362   1.4902
     1.5638   1.6967   1.7392   1.8486   1.8716   1.9786   2.0949   2.2770
     2.8576   3.2368   3.5849   4.2701   5.4920   5.6733

          k = 0.0607 0.0869 0.0000 ( 30084 PWs)   bands (ev):

   -71.7499 -71.7288 -71.3471 -71.3259 -71.2622 -71.2410 -41.8043 -41.7803
   -41.7357 -41.7168 -41.6930 -41.5214 -41.4334 -41.3641 -41.3171 -41.2941
   -41.2385 -41.2199 -41.2182 -41.2156 -41.1966 -41.1508 -41.1244 -41.1033
    -5.1211  -4.6073  -4.2651  -3.8717  -3.8569  -3.6136  -3.6061  -3.5065
    -3.4623  -3.4314  -3.3560  -3.2066  -3.1235  -3.0143  -2.8621  -2.7928
    -2.7756  -2.6972  -2.5260  -2.4131  -2.1738  -2.1639  -1.9925  -1.9524
    -1.8960  -1.8225  -1.8124  -1.5933  -1.4815  -1.4367  -1.3342  -1.2280
    -1.1252  -1.0163  -0.9235  -0.9233  -0.8382  -0.8038  -0.6267  -0.6084
    -0.4603  -0.3934   0.1027   0.1802   0.2469   0.3944   0.5213   0.5894
     0.6974   0.7399   0.9875   1.0062   1.1304   1.2964   1.3345   1.6132
     1.6154   1.6593   1.6947   1.7919   1.7961   1.9046   1.9464   2.2226
     2.2896   2.5474   3.8852   4.2291   4.8903   6.2118

          k = 0.0607 0.1043 0.0000 ( 30070 PWs)   bands (ev):

   -71.7499 -71.7288 -71.3471 -71.3259 -71.2622 -71.2410 -41.8043 -41.7803
   -41.7358 -41.7169 -41.6930 -41.5214 -41.4334 -41.3642 -41.3172 -41.2941
   -41.2386 -41.2198 -41.2182 -41.2156 -41.1966 -41.1508 -41.1245 -41.1033
    -4.9705  -4.5874  -4.3422  -3.8064  -3.7971  -3.5606  -3.4661  -3.3979
    -3.3571  -3.3533  -3.3107  -3.2331  -3.2022  -3.1511  -2.9258  -2.8314
    -2.7508  -2.5610  -2.4353  -2.4029  -2.2062  -2.1472  -2.0316  -2.0290
    -2.0086  -1.9649  -1.9032  -1.6191  -1.4565  -1.4166  -1.3948  -1.2841
    -1.1604  -1.0787  -0.9425  -0.8790  -0.8671  -0.8276  -0.6900  -0.6596
    -0.5265  -0.3758   0.1099   0.2326   0.2812   0.3479   0.5366   0.6128
     0.7218   0.7460   0.9504   1.1392   1.2694   1.2763   1.4738   1.6348
     1.6375   1.6644   1.7265   1.7601   1.8057   1.8389   1.9149   1.9509
     2.0871   2.1997   4.2168   4.2168   4.4768   6.8048

          k = 0.0607 0.1217 0.0000 ( 30084 PWs)   bands (ev):

   -71.7499 -71.7288 -71.3471 -71.3259 -71.2622 -71.2410 -41.8043 -41.7803
   -41.7357 -41.7168 -41.6930 -41.5214 -41.4334 -41.3641 -41.3171 -41.2941
   -41.2385 -41.2199 -41.2182 -41.2156 -41.1966 -41.1508 -41.1244 -41.1033
    -5.1211  -4.6073  -4.2651  -3.8717  -3.8569  -3.6136  -3.6061  -3.5065
    -3.4623  -3.4314  -3.3560  -3.2066  -3.1235  -3.0143  -2.8621  -2.7928
    -2.7756  -2.6972  -2.5260  -2.4131  -2.1738  -2.1639  -1.9925  -1.9524
    -1.8960  -1.8225  -1.8124  -1.5933  -1.4815  -1.4367  -1.3342  -1.2280
    -1.1252  -1.0163  -0.9235  -0.9233  -0.8382  -0.8038  -0.6267  -0.6084
    -0.4603  -0.3934   0.1027   0.1802   0.2469   0.3944   0.5213   0.5894
     0.6974   0.7399   0.9875   1.0062   1.1304   1.2964   1.3345   1.6132
     1.6154   1.6593   1.6947   1.7919   1.7961   1.9046   1.9464   2.2226
     2.2896   2.5474   3.8852   4.2291   4.8903   6.2118

          k = 0.0607-0.0695 0.0000 ( 30091 PWs)   bands (ev):

   -71.7499 -71.7288 -71.3471 -71.3259 -71.2623 -71.2410 -41.8040 -41.7803
   -41.7354 -41.7163 -41.6930 -41.5214 -41.4331 -41.3638 -41.3167 -41.2939
   -41.2381 -41.2200 -41.2181 -41.2154 -41.1967 -41.1508 -41.1244 -41.1032
    -5.4061  -4.6522  -4.1887  -4.0185  -4.0029  -3.8071  -3.7402  -3.6315
    -3.6273  -3.5987  -3.4578  -3.3461  -3.0842  -2.9527  -2.9300  -2.7621
    -2.6728  -2.5804  -2.5797  -2.3745  -2.2197  -2.2050  -1.9770  -1.8968
    -1.7463  -1.6338  -1.5836  -1.5119  -1.5095  -1.3931  -1.2237  -1.0751
    -1.0048  -0.9996  -0.9064  -0.8130  -0.7781  -0.6024  -0.5540  -0.4746
    -0.3711  -0.2883  -0.1559   0.2897   0.3732   0.3961   0.4316   0.4844
     0.6374   0.7312   0.8125   1.0315   1.1337   1.2444   1.3362   1.4902
     1.5638   1.6967   1.7392   1.8486   1.8716   1.9786   2.0949   2.2770
     2.8576   3.2368   3.5849   4.2701   5.4920   5.6733

          k = 0.0607-0.0522 0.0000 ( 30085 PWs)   bands (ev):

   -71.7499 -71.7288 -71.3472 -71.3259 -71.2623 -71.2410 -41.8037 -41.7802
   -41.7351 -41.7156 -41.6929 -41.5215 -41.4328 -41.3635 -41.3161 -41.2937
   -41.2375 -41.2202 -41.2180 -41.2153 -41.1967 -41.1509 -41.1243 -41.1032
    -5.6836  -4.6900  -4.2197  -4.1722  -4.1590  -3.9563  -3.8857  -3.7911
    -3.7669  -3.7035  -3.6486  -3.5286  -3.2672  -2.9687  -2.9054  -2.7037
    -2.5871  -2.5541  -2.5097  -2.4325  -2.1651  -2.1210  -1.9103  -1.8654
    -1.7111  -1.5987  -1.5373  -1.4553  -1.4237  -1.3643  -1.1531  -0.9625
    -0.9462  -0.8440  -0.7109  -0.6944  -0.6432  -0.4802  -0.4102  -0.3562
    -0.2210  -0.2029   0.0627   0.1856   0.3159   0.4518   0.4645   0.6035
     0.6572   0.8181   0.8717   1.0542   1.2055   1.2401   1.3789   1.3987
     1.5041   1.7157   1.7642   1.8788   1.9602   2.0489   2.2530   2.3332
     3.0488   3.6110   4.1907   4.3379   5.1765   5.2627

          k = 0.0607-0.0348 0.0000 ( 30056 PWs)   bands (ev):

   -71.7500 -71.7288 -71.3472 -71.3259 -71.2623 -71.2410 -41.8033 -41.7802
   -41.7347 -41.7149 -41.6929 -41.5215 -41.4325 -41.3631 -41.3156 -41.2935
   -41.2369 -41.2202 -41.2180 -41.2151 -41.1967 -41.1509 -41.1242 -41.1031
    -5.9026  -4.6925  -4.3339  -4.2927  -4.2693  -4.0617  -4.0177  -3.9420
    -3.8913  -3.7996  -3.7627  -3.6784  -3.3999  -3.0398  -3.0116  -2.6770
    -2.6725  -2.4966  -2.3898  -2.3504  -2.0810  -2.0636  -1.8801  -1.8278
    -1.8012  -1.6829  -1.4676  -1.4161  -1.3801  -1.3520  -1.1134  -0.9401
    -0.8753  -0.7505  -0.6316  -0.5803  -0.5079  -0.4641  -0.3146  -0.1041
     0.0066   0.0273   0.0763   0.3421   0.4588   0.4854   0.5262   0.6949
     0.8605   1.0169   1.0750   1.1111   1.1767   1.3345   1.4399   1.4983
     1.5534   1.7032   1.7256   1.9433   2.0211   2.0904   2.3153   2.3488
     2.8100   4.1699   4.3072   4.6502   4.7841   5.0663

          k = 0.0607-0.0174 0.0000 ( 30106 PWs)   bands (ev):

   -71.7500 -71.7288 -71.3472 -71.3259 -71.2623 -71.2410 -41.8031 -41.7801
   -41.7344 -41.7144 -41.6929 -41.5216 -41.4322 -41.3629 -41.3152 -41.2934
   -41.2365 -41.2203 -41.2180 -41.2150 -41.1967 -41.1510 -41.1241 -41.1031
    -6.0408  -4.6481  -4.4189  -4.3914  -4.3548  -4.1346  -4.1015  -4.0936
    -3.9436  -3.8613  -3.7941  -3.7931  -3.4420  -3.2132  -3.0920  -2.6838
    -2.6496  -2.4485  -2.3115  -2.2603  -2.1016  -2.0096  -1.9470  -1.8833
    -1.7693  -1.6808  -1.4703  -1.4358  -1.4294  -1.2847  -1.0893  -0.9217
    -0.8796  -0.7171  -0.6284  -0.4761  -0.3892  -0.3373  -0.2812   0.0062
     0.0732   0.1599   0.2956   0.4323   0.4819   0.5474   0.7132   0.7293
     0.9084   1.1531   1.1618   1.2257   1.3777   1.4771   1.5102   1.6287
     1.6693   1.7640   1.8783   2.0135   2.0896   2.1843   2.2782   2.4039
     2.6571   3.4114   3.9971   4.5106   5.0664   5.0771

          k = 0.0607 0.0000 0.0000 ( 30122 PWs)   bands (ev):

   -71.7500 -71.7288 -71.3472 -71.3259 -71.2624 -71.2410 -41.8030 -41.7801
   -41.7343 -41.7142 -41.6929 -41.5216 -41.4321 -41.3628 -41.3150 -41.2934
   -41.2363 -41.2203 -41.2180 -41.2150 -41.1967 -41.1510 -41.1241 -41.1031
    -6.0879  -4.5956  -4.4620  -4.4474  -4.3883  -4.1674  -4.1374  -4.1293
    -3.9607  -3.8759  -3.8403  -3.8040  -3.4140  -3.3318  -3.1106  -2.6891
    -2.6362  -2.4319  -2.2963  -2.1552  -2.1270  -2.0766  -1.9557  -1.9084
    -1.7761  -1.5731  -1.5235  -1.4773  -1.4517  -1.2580  -1.0824  -0.9077
    -0.8755  -0.7471  -0.5842  -0.4343  -0.3546  -0.3487  -0.1589  -0.0643
     0.1473   0.1998   0.3926   0.4823   0.5531   0.5824   0.5975   0.7821
     0.9034   1.1940   1.2809   1.2859   1.3974   1.5579   1.5688   1.5976
     1.6537   1.8928   1.9791   2.0339   2.0820   2.2291   2.5565   2.6184
     2.6976   2.9870   3.2267   4.4182   5.4986   5.5142

          k = 0.0607 0.0174 0.0000 ( 30106 PWs)   bands (ev):

   -71.7500 -71.7288 -71.3472 -71.3259 -71.2623 -71.2410 -41.8031 -41.7801
   -41.7344 -41.7144 -41.6929 -41.5216 -41.4322 -41.3629 -41.3152 -41.2934
   -41.2365 -41.2203 -41.2180 -41.2150 -41.1967 -41.1510 -41.1241 -41.1031
    -6.0408  -4.6481  -4.4189  -4.3914  -4.3548  -4.1346  -4.1015  -4.0936
    -3.9436  -3.8613  -3.7941  -3.7931  -3.4420  -3.2132  -3.0920  -2.6838
    -2.6496  -2.4485  -2.3115  -2.2603  -2.1016  -2.0096  -1.9470  -1.8833
    -1.7693  -1.6808  -1.4703  -1.4358  -1.4294  -1.2847  -1.0893  -0.9217
    -0.8796  -0.7171  -0.6284  -0.4761  -0.3892  -0.3373  -0.2812   0.0062
     0.0732   0.1599   0.2956   0.4323   0.4819   0.5474   0.7132   0.7293
     0.9084   1.1531   1.1618   1.2257   1.3777   1.4771   1.5102   1.6287
     1.6693   1.7640   1.8783   2.0135   2.0896   2.1843   2.2782   2.4039
     2.6571   3.4114   3.9971   4.5106   5.0664   5.0771

          k = 0.0759 0.0435 0.0000 ( 30087 PWs)   bands (ev):

   -71.7449 -71.7339 -71.3421 -71.3310 -71.2572 -71.2461 -41.7979 -41.7859
   -41.7099 -41.6985 -41.6838 -41.5735 -41.3818 -41.3125 -41.3106 -41.2991
   -41.2718 -41.2319 -41.2206 -41.2132 -41.2025 -41.2019 -41.1192 -41.1083
    -5.4914  -4.8294  -4.1306  -4.1039  -3.9045  -3.9040  -3.8286  -3.7020
    -3.6796  -3.6464  -3.5389  -3.4873  -3.2021  -2.8909  -2.8826  -2.8265
    -2.5730  -2.5136  -2.4978  -2.4973  -2.2448  -2.1941  -1.8812  -1.8678
    -1.6947  -1.6452  -1.5864  -1.5150  -1.5122  -1.3499  -1.2815  -1.2383
    -1.2139  -0.8703  -0.8231  -0.7685  -0.5930  -0.4573  -0.3555  -0.3307
    -0.1555  -0.1167   0.0050   0.2460   0.3384   0.3550   0.4498   0.5857
     0.6653   0.7171   0.9331   0.9767   0.9899   1.1136   1.1370   1.2979
     1.3662   1.4756   1.7052   1.7914   2.0367   2.0648   2.3219   2.3276
     3.2266   4.0017   4.4123   4.5124   5.1760   5.2136

          k = 0.0759 0.0608 0.0000 ( 30064 PWs)   bands (ev):

   -71.7448 -71.7339 -71.3420 -71.3310 -71.2571 -71.2461 -41.7982 -41.7859
   -41.7104 -41.6984 -41.6841 -41.5734 -41.3821 -41.3128 -41.3109 -41.2991
   -41.2716 -41.2323 -41.2206 -41.2131 -41.2024 -41.2019 -41.1192 -41.1083
    -5.2764  -4.8988  -4.0521  -4.0280  -3.8679  -3.8226  -3.7435  -3.6288
    -3.5913  -3.5075  -3.4885  -3.3222  -3.0849  -2.9560  -2.9155  -2.8717
    -2.6650  -2.6218  -2.4777  -2.3289  -2.2958  -2.2147  -1.9156  -1.8972
    -1.7537  -1.6925  -1.6109  -1.5532  -1.5012  -1.4249  -1.3573  -1.3054
    -1.1147  -0.9517  -0.8350  -0.8233  -0.6749  -0.6046  -0.4571  -0.3777
    -0.2699  -0.2537  -0.1313   0.3102   0.3798   0.4193   0.4397   0.5250
     0.6586   0.6762   0.8418   0.8704   1.0092   1.0398   1.2101   1.2554
     1.4000   1.4333   1.7219   1.7471   1.9910   2.0320   2.2614   2.2970
     3.3896   3.7459   3.9102   4.2730   5.2744   5.8361

          k = 0.0759 0.0782 0.0000 ( 30092 PWs)   bands (ev):

   -71.7448 -71.7339 -71.3420 -71.3310 -71.2571 -71.2461 -41.7984 -41.7858
   -41.7109 -41.6982 -41.6844 -41.5733 -41.3823 -41.3131 -41.3113 -41.2991
   -41.2716 -41.2327 -41.2206 -41.2131 -41.2024 -41.2019 -41.1193 -41.1083
    -5.0223  -4.9348  -4.0568  -3.8852  -3.8372  -3.7229  -3.6400  -3.5494
    -3.5021  -3.4247  -3.4219  -3.1700  -3.1236  -3.0566  -2.9068  -2.8558
    -2.7724  -2.6441  -2.4623  -2.3400  -2.2763  -2.1059  -2.0451  -1.9186
    -1.9102  -1.8275  -1.7897  -1.6197  -1.5645  -1.4473  -1.4116  -1.3385
    -1.0577  -1.0106  -0.8814  -0.8641  -0.7834  -0.6977  -0.5460  -0.4365
    -0.4285  -0.1817   0.0453   0.2386   0.2997   0.4162   0.4926   0.6089
     0.7026   0.8089   0.8628   0.9782   1.0231   1.0895   1.2393   1.3288
     1.4458   1.5412   1.6814   1.7024   1.9236   1.9476   2.1027   2.2047
     2.8961   3.2970   3.8177   3.9822   5.5159   6.0736

          k = 0.0759 0.0956 0.0000 ( 30082 PWs)   bands (ev):

   -71.7448 -71.7339 -71.3420 -71.3310 -71.2571 -71.2461 -41.7985 -41.7858
   -41.7111 -41.6981 -41.6846 -41.5732 -41.3824 -41.3132 -41.3115 -41.2991
   -41.2715 -41.2329 -41.2206 -41.2131 -41.2023 -41.2019 -41.1193 -41.1083
    -4.9484  -4.8000  -4.1598  -3.7792  -3.7526  -3.6392  -3.5306  -3.5045
    -3.4764  -3.3812  -3.3519  -3.2672  -3.1690  -3.1008  -2.9946  -2.7600
    -2.6408  -2.5880  -2.4871  -2.3606  -2.2847  -2.1690  -2.1421  -2.0096
    -2.0053  -1.9541  -1.8908  -1.7136  -1.5757  -1.4912  -1.3480  -1.3369
    -1.1388  -1.0677  -0.9016  -0.8581  -0.7755  -0.7020  -0.6145  -0.5204
    -0.4353  -0.1516   0.2220   0.2474   0.2752   0.3536   0.4950   0.6341
     0.7372   0.7780   0.9715   1.0388   1.1402   1.2199   1.3726   1.4592
     1.5823   1.6467   1.6945   1.7704   1.8478   1.8514   2.0250   2.1248
     2.2803   2.5559   3.7759   4.3541   4.9058   6.2039

          k = 0.0759 0.1130 0.0000 ( 30082 PWs)   bands (ev):

   -71.7448 -71.7339 -71.3420 -71.3310 -71.2571 -71.2461 -41.7985 -41.7858
   -41.7111 -41.6981 -41.6846 -41.5732 -41.3824 -41.3132 -41.3115 -41.2991
   -41.2715 -41.2329 -41.2206 -41.2131 -41.2023 -41.2019 -41.1193 -41.1083
    -4.9484  -4.8000  -4.1598  -3.7792  -3.7526  -3.6392  -3.5306  -3.5045
    -3.4764  -3.3812  -3.3519  -3.2672  -3.1690  -3.1008  -2.9946  -2.7600
    -2.6408  -2.5880  -2.4871  -2.3606  -2.2847  -2.1690  -2.1421  -2.0096
    -2.0053  -1.9541  -1.8908  -1.7136  -1.5757  -1.4912  -1.3480  -1.3369
    -1.1388  -1.0677  -0.9016  -0.8581  -0.7755  -0.7020  -0.6145  -0.5204
    -0.4353  -0.1516   0.2220   0.2474   0.2752   0.3536   0.4950   0.6341
     0.7372   0.7780   0.9715   1.0388   1.1402   1.2199   1.3726   1.4592
     1.5823   1.6467   1.6945   1.7704   1.8478   1.8514   2.0250   2.1248
     2.2803   2.5559   3.7759   4.3541   4.9058   6.2040

          k = 0.0759 0.1304 0.0000 ( 30092 PWs)   bands (ev):

   -71.7448 -71.7339 -71.3420 -71.3310 -71.2571 -71.2461 -41.7984 -41.7858
   -41.7109 -41.6982 -41.6844 -41.5733 -41.3823 -41.3131 -41.3113 -41.2991
   -41.2716 -41.2327 -41.2206 -41.2131 -41.2024 -41.2019 -41.1193 -41.1083
    -5.0223  -4.9348  -4.0568  -3.8852  -3.8372  -3.7229  -3.6400  -3.5494
    -3.5021  -3.4247  -3.4219  -3.1700  -3.1236  -3.0566  -2.9068  -2.8558
    -2.7724  -2.6441  -2.4623  -2.3400  -2.2763  -2.1059  -2.0451  -1.9186
    -1.9102  -1.8275  -1.7897  -1.6197  -1.5645  -1.4473  -1.4116  -1.3385
    -1.0577  -1.0106  -0.8814  -0.8641  -0.7834  -0.6977  -0.5460  -0.4365
    -0.4285  -0.1817   0.0453   0.2386   0.2997   0.4162   0.4926   0.6089
     0.7026   0.8089   0.8628   0.9782   1.0231   1.0895   1.2393   1.3288
     1.4458   1.5412   1.6814   1.7024   1.9236   1.9476   2.1027   2.2047
     2.8961   3.2970   3.8177   3.9822   5.5159   6.0735

          k = 0.0759-0.0608 0.0000 ( 30064 PWs)   bands (ev):

   -71.7448 -71.7339 -71.3420 -71.3310 -71.2571 -71.2461 -41.7982 -41.7859
   -41.7104 -41.6984 -41.6841 -41.5734 -41.3821 -41.3128 -41.3109 -41.2991
   -41.2716 -41.2323 -41.2206 -41.2131 -41.2024 -41.2019 -41.1192 -41.1083
    -5.2764  -4.8988  -4.0521  -4.0280  -3.8679  -3.8226  -3.7435  -3.6288
    -3.5913  -3.5075  -3.4885  -3.3222  -3.0849  -2.9560  -2.9155  -2.8717
    -2.6650  -2.6218  -2.4777  -2.3289  -2.2958  -2.2147  -1.9156  -1.8972
    -1.7537  -1.6925  -1.6109  -1.5532  -1.5012  -1.4249  -1.3573  -1.3054
    -1.1147  -0.9517  -0.8350  -0.8233  -0.6749  -0.6046  -0.4571  -0.3777
    -0.2699  -0.2537  -0.1313   0.3102   0.3798   0.4193   0.4397   0.5250
     0.6586   0.6762   0.8418   0.8704   1.0092   1.0398   1.2101   1.2554
     1.4000   1.4333   1.7219   1.7471   1.9910   2.0320   2.2614   2.2970
     3.3896   3.7459   3.9102   4.2731   5.2744   6.2077

          k = 0.0759-0.0435 0.0000 ( 30087 PWs)   bands (ev):

   -71.7449 -71.7339 -71.3421 -71.3310 -71.2572 -71.2461 -41.7979 -41.7859
   -41.7099 -41.6985 -41.6838 -41.5735 -41.3818 -41.3125 -41.3106 -41.2991
   -41.2718 -41.2319 -41.2206 -41.2132 -41.2025 -41.2019 -41.1192 -41.1083
    -5.4914  -4.8294  -4.1306  -4.1039  -3.9045  -3.9040  -3.8286  -3.7020
    -3.6796  -3.6464  -3.5389  -3.4873  -3.2021  -2.8909  -2.8826  -2.8265
    -2.5730  -2.5136  -2.4978  -2.4973  -2.2448  -2.1941  -1.8812  -1.8678
    -1.6947  -1.6452  -1.5864  -1.5150  -1.5122  -1.3499  -1.2815  -1.2383
    -1.2139  -0.8703  -0.8231  -0.7685  -0.5930  -0.4573  -0.3555  -0.3307
    -0.1555  -0.1167   0.0050   0.2460   0.3384   0.3550   0.4498   0.5857
     0.6653   0.7171   0.9331   0.9767   0.9899   1.1136   1.1370   1.2979
     1.3662   1.4756   1.7052   1.7914   2.0367   2.0648   2.3219   2.3276
     3.2266   4.0017   4.4123   4.5124   5.1759   5.2136

          k = 0.0759-0.0261 0.0000 ( 30086 PWs)   bands (ev):

   -71.7449 -71.7339 -71.3421 -71.3310 -71.2572 -71.2461 -41.7977 -41.7859
   -41.7094 -41.6986 -41.6835 -41.5736 -41.3816 -41.3123 -41.3102 -41.2991
   -41.2719 -41.2316 -41.2206 -41.2132 -41.2026 -41.2019 -41.1191 -41.1083
    -5.6429  -4.7237  -4.1989  -4.1312  -3.9809  -3.9651  -3.8890  -3.8238
    -3.7445  -3.7194  -3.6151  -3.5682  -3.2535  -2.9363  -2.9304  -2.7684
    -2.6290  -2.5386  -2.4622  -2.3960  -2.1841  -2.1525  -1.9303  -1.8353
    -1.7898  -1.6085  -1.6045  -1.5228  -1.5007  -1.4281  -1.2497  -1.2398
    -1.1334  -0.8782  -0.7909  -0.7505  -0.6028  -0.3614  -0.1384  -0.0986
    -0.0838   0.0052   0.1285   0.1969   0.3179   0.4087   0.4259   0.6913
     0.7196   0.7293   0.9957   1.0593   1.1366   1.1593   1.4049   1.4239
     1.5074   1.6026   1.6248   1.8489   2.0231   2.0649   2.2682   2.2758
     3.0623   3.5193   4.0621   4.6358   5.1194   5.2553

          k = 0.0759-0.0087 0.0000 ( 30107 PWs)   bands (ev):

   -71.7449 -71.7339 -71.3421 -71.3310 -71.2572 -71.2461 -41.7976 -41.7860
   -41.7091 -41.6987 -41.6834 -41.5737 -41.3814 -41.3121 -41.3100 -41.2991
   -41.2720 -41.2314 -41.2206 -41.2132 -41.2027 -41.2019 -41.1191 -41.1083
    -5.7207  -4.6094  -4.2726  -4.1227  -4.0508  -4.0083  -3.9229  -3.9153
    -3.7628  -3.7315  -3.7019  -3.5797  -3.2154  -3.0818  -2.9636  -2.7481
    -2.6498  -2.5648  -2.3454  -2.3205  -2.2139  -2.0839  -2.0121  -1.8848
    -1.7957  -1.6084  -1.6036  -1.5616  -1.5326  -1.4699  -1.2751  -1.1530
    -1.0841  -0.9561  -0.7972  -0.7514  -0.4989  -0.3096  -0.0794   0.0169
     0.0532   0.0881   0.0944   0.2666   0.3272   0.4412   0.4564   0.6545
     0.6801   0.7328   1.0244   1.1545   1.2738   1.3570   1.4872   1.5311
     1.5597   1.7179   1.8868   1.9677   2.0067   2.1431   2.1845   2.4376
     2.7850   2.9900   3.2250   4.9538   5.0257   5.5077

          k = 0.0759 0.0087 0.0000 ( 30107 PWs)   bands (ev):

   -71.7449 -71.7339 -71.3421 -71.3310 -71.2572 -71.2461 -41.7976 -41.7860
   -41.7091 -41.6987 -41.6834 -41.5737 -41.3814 -41.3121 -41.3100 -41.2991
   -41.2720 -41.2314 -41.2206 -41.2132 -41.2027 -41.2019 -41.1191 -41.1083
    -5.7207  -4.6094  -4.2726  -4.1227  -4.0508  -4.0083  -3.9229  -3.9153
    -3.7628  -3.7315  -3.7019  -3.5797  -3.2154  -3.0818  -2.9636  -2.7481
    -2.6498  -2.5648  -2.3454  -2.3205  -2.2139  -2.0839  -2.0121  -1.8848
    -1.7957  -1.6084  -1.6036  -1.5616  -1.5326  -1.4699  -1.2751  -1.1530
    -1.0841  -0.9561  -0.7972  -0.7514  -0.4989  -0.3096  -0.0794   0.0169
     0.0532   0.0881   0.0944   0.2666   0.3272   0.4412   0.4564   0.6545
     0.6801   0.7328   1.0244   1.1545   1.2738   1.3570   1.4872   1.5311
     1.5597   1.7179   1.8868   1.9677   2.0067   2.1431   2.1845   2.4376
     2.7850   2.9900   3.2250   4.9538   5.0257   5.5077

          k = 0.0759 0.0261 0.0000 ( 30086 PWs)   bands (ev):

   -71.7449 -71.7339 -71.3421 -71.3310 -71.2572 -71.2461 -41.7977 -41.7859
   -41.7094 -41.6986 -41.6835 -41.5736 -41.3816 -41.3123 -41.3102 -41.2991
   -41.2719 -41.2316 -41.2206 -41.2132 -41.2026 -41.2019 -41.1191 -41.1083
    -5.6429  -4.7237  -4.1989  -4.1312  -3.9809  -3.9651  -3.8890  -3.8238
    -3.7445  -3.7194  -3.6151  -3.5682  -3.2535  -2.9363  -2.9304  -2.7684
    -2.6290  -2.5386  -2.4622  -2.3960  -2.1841  -2.1525  -1.9303  -1.8353
    -1.7898  -1.6085  -1.6045  -1.5228  -1.5007  -1.4281  -1.2497  -1.2398
    -1.1334  -0.8782  -0.7909  -0.7505  -0.6028  -0.3614  -0.1384  -0.0986
    -0.0838   0.0052   0.1285   0.1969   0.3179   0.4087   0.4259   0.6913
     0.7196   0.7293   0.9957   1.0593   1.1366   1.1593   1.4049   1.4239
     1.5074   1.6026   1.6248   1.8489   2.0231   2.0649   2.2682   2.2758
     3.0623   3.5193   4.0621   4.6358   5.1194   5.2553

          k =-0.0910-0.0522 0.0000 ( 30046 PWs)   bands (ev):

   -71.7398 -71.7389 -71.3367 -71.3364 -71.2517 -71.2516 -41.7923 -41.7916
   -41.7047 -41.7039 -41.6293 -41.6285 -41.3272 -41.3269 -41.3050 -41.3047
   -41.2579 -41.2578 -41.2264 -41.2262 -41.2076 -41.2073 -41.1138 -41.1137
    -5.1083  -5.1082  -4.0446  -4.0445  -3.8134  -3.8133  -3.6675  -3.6674
    -3.5623  -3.5622  -3.3375  -3.3374  -3.0171  -3.0170  -2.9785  -2.9785
    -2.6502  -2.6501  -2.3232  -2.3231  -2.2478  -2.2478  -1.8350  -1.8350
    -1.7594  -1.7594  -1.6254  -1.6253  -1.5494  -1.5493  -1.4004  -1.4003
    -1.0539  -1.0539  -0.8051  -0.8048  -0.5702  -0.5701  -0.3996  -0.3996
    -0.2399  -0.2398   0.1278   0.1280   0.4232   0.4233   0.5023   0.5024
     0.6368   0.6368   0.7794   0.7795   0.9197   0.9198   1.1682   1.1682
     1.3715   1.3718   1.7269   1.7270   2.0500   2.0503   2.3256   2.3258
     3.6378   3.6378   4.4680   4.4681   5.2235   5.2236

          k =-0.0910-0.0348 0.0000 ( 30091 PWs)   bands (ev):

   -71.7398 -71.7389 -71.3367 -71.3364 -71.2517 -71.2516 -41.7924 -41.7915
   -41.7048 -41.7037 -41.6293 -41.6284 -41.3273 -41.3268 -41.3051 -41.3047
   -41.2581 -41.2576 -41.2265 -41.2261 -41.2076 -41.2073 -41.1138 -41.1137
    -5.2375  -4.9342  -4.0649  -3.9941  -3.8395  -3.7914  -3.6807  -3.6657
    -3.5956  -3.5400  -3.4073  -3.3205  -3.0596  -3.0237  -2.9877  -2.9233
    -2.6717  -2.5778  -2.4001  -2.3002  -2.2429  -2.2352  -1.8826  -1.8608
    -1.7731  -1.7624  -1.6809  -1.6308  -1.5763  -1.5550  -1.4118  -1.3941
    -1.2040  -0.9170  -0.8059  -0.7876  -0.7122  -0.4517  -0.4253  -0.3621
    -0.2803  -0.0445   0.1121   0.1641   0.3947   0.4131   0.4571   0.5150
     0.5559   0.7835   0.8087   0.9374   0.9711   1.0071   1.0938   1.2813
     1.3796   1.4765   1.6725   1.7323   2.0237   2.0284   2.2612   2.2829
     3.4830   3.5399   3.9613   4.3608   5.2493   5.8443

          k =-0.0910-0.0174 0.0000 ( 30094 PWs)   bands (ev):

   -71.7398 -71.7389 -71.3367 -71.3364 -71.2517 -71.2516 -41.7924 -41.7915
   -41.7050 -41.7036 -41.6294 -41.6284 -41.3274 -41.3267 -41.3053 -41.3046
   -41.2582 -41.2575 -41.2267 -41.2260 -41.2076 -41.2073 -41.1138 -41.1137
    -5.3155  -4.7414  -4.1090  -3.9107  -3.8618  -3.7858  -3.6955  -3.6814
    -3.6330  -3.5121  -3.5101  -3.3183  -3.0459  -3.0381  -3.0069  -2.9094
    -2.6501  -2.5691  -2.4008  -2.3204  -2.2524  -2.1786  -2.0137  -1.9272
    -1.7800  -1.7710  -1.7384  -1.7001  -1.6485  -1.5558  -1.4622  -1.3024
    -1.2881  -0.9859  -0.7881  -0.7514  -0.7080  -0.4134  -0.4132  -0.3598
    -0.1764   0.1283   0.1385   0.2376   0.3571   0.3820   0.4324   0.4813
     0.5246   0.8467   0.8598   1.0225   1.0920   1.1425   1.3819   1.4332
     1.5646   1.6018   1.6301   1.7831   1.9577   1.9831   2.1410   2.1778
     2.8691   3.2841   3.3922   4.4424   5.5164   5.6470

          k =-0.0910 0.0000 0.0000 ( 30128 PWs)   bands (ev):

   -71.7398 -71.7389 -71.3367 -71.3364 -71.2517 -71.2516 -41.7924 -41.7915
   -41.7050 -41.7035 -41.6295 -41.6283 -41.3274 -41.3266 -41.3053 -41.3045
   -41.2583 -41.2574 -41.2268 -41.2260 -41.2076 -41.2073 -41.1139 -41.1137
    -5.3414  -4.6313  -4.1708  -3.8625  -3.8341  -3.8151  -3.6984  -3.6961
    -3.6384  -3.5710  -3.4946  -3.3162  -3.0841  -3.0309  -2.9289  -2.9175
    -2.7700  -2.4723  -2.3591  -2.3333  -2.2696  -2.1640  -2.1101  -1.9471
    -1.7949  -1.7681  -1.7552  -1.7368  -1.6935  -1.5501  -1.4875  -1.3172
    -1.1778  -1.1243  -0.7764  -0.7187  -0.6903  -0.4238  -0.4068  -0.3254
    -0.1458   0.1771   0.2006   0.2958   0.3440   0.3495   0.3963   0.4842
     0.4881   0.8725   0.8780   1.0232   1.2006   1.2027   1.4550   1.5586
     1.5783   1.6094   1.8177   1.8773   1.9085   2.1170   2.1622   2.2705
     2.4060   2.6135   3.3652   4.8302   4.9825   5.5991

          k =-0.0910 0.0174 0.0000 ( 30094 PWs)   bands (ev):

   -71.7398 -71.7389 -71.3367 -71.3364 -71.2517 -71.2516 -41.7924 -41.7915
   -41.7050 -41.7036 -41.6294 -41.6284 -41.3274 -41.3267 -41.3053 -41.3046
   -41.2582 -41.2575 -41.2267 -41.2260 -41.2076 -41.2073 -41.1138 -41.1137
    -5.3155  -4.7414  -4.1090  -3.9107  -3.8618  -3.7858  -3.6955  -3.6814
    -3.6330  -3.5121  -3.5101  -3.3183  -3.0459  -3.0381  -3.0069  -2.9094
    -2.6501  -2.5691  -2.4008  -2.3204  -2.2524  -2.1786  -2.0137  -1.9272
    -1.7800  -1.7710  -1.7384  -1.7001  -1.6485  -1.5558  -1.4622  -1.3024
    -1.2881  -0.9859  -0.7881  -0.7514  -0.7080  -0.4134  -0.4132  -0.3598
    -0.1764   0.1283   0.1385   0.2376   0.3571   0.3820   0.4324   0.4813
     0.5246   0.8467   0.8598   1.0225   1.0920   1.1425   1.3819   1.4332
     1.5646   1.6018   1.6301   1.7831   1.9577   1.9831   2.1410   2.1778
     2.8691   3.2841   3.3922   4.4424   5.5164   5.6471

          k =-0.0910 0.0348 0.0000 ( 30091 PWs)   bands (ev):

   -71.7398 -71.7389 -71.3367 -71.3364 -71.2517 -71.2516 -41.7924 -41.7915
   -41.7048 -41.7037 -41.6293 -41.6284 -41.3273 -41.3268 -41.3051 -41.3047
   -41.2581 -41.2576 -41.2265 -41.2261 -41.2076 -41.2073 -41.1138 -41.1137
    -5.2375  -4.9342  -4.0649  -3.9941  -3.8395  -3.7914  -3.6807  -3.6657
    -3.5956  -3.5400  -3.4073  -3.3205  -3.0596  -3.0237  -2.9877  -2.9233
    -2.6717  -2.5778  -2.4001  -2.3002  -2.2429  -2.2352  -1.8826  -1.8608
    -1.7731  -1.7624  -1.6809  -1.6308  -1.5763  -1.5550  -1.4118  -1.3941
    -1.2040  -0.9170  -0.8059  -0.7876  -0.7122  -0.4517  -0.4253  -0.3621
    -0.2803  -0.0445   0.1121   0.1641   0.3947   0.4131   0.4571   0.5150
     0.5559   0.7835   0.8087   0.9374   0.9711   1.0071   1.0938   1.2813
     1.3796   1.4765   1.6725   1.7323   2.0237   2.0284   2.2612   2.2829
     3.4830   3.5399   3.9613   4.3608   5.2493   5.8443

          k =-0.0910-0.1565 0.0000 ( 30046 PWs)   bands (ev):

   -71.7398 -71.7389 -71.3367 -71.3364 -71.2517 -71.2516 -41.7923 -41.7916
   -41.7047 -41.7039 -41.6293 -41.6285 -41.3272 -41.3269 -41.3050 -41.3047
   -41.2579 -41.2578 -41.2264 -41.2262 -41.2076 -41.2073 -41.1138 -41.1137
    -5.1083  -5.1082  -4.0446  -4.0445  -3.8134  -3.8133  -3.6675  -3.6674
    -3.5623  -3.5622  -3.3375  -3.3374  -3.0171  -3.0170  -2.9785  -2.9785
    -2.6502  -2.6501  -2.3232  -2.3231  -2.2478  -2.2478  -1.8350  -1.8350
    -1.7594  -1.7594  -1.6254  -1.6253  -1.5494  -1.5493  -1.4004  -1.4003
    -1.0539  -1.0539  -0.8051  -0.8048  -0.5702  -0.5701  -0.3996  -0.3996
    -0.2399  -0.2398   0.1278   0.1280   0.4232   0.4233   0.5023   0.5025
     0.6368   0.6368   0.7794   0.7795   0.9197   0.9198   1.1682   1.1682
     1.3715   1.3718   1.7269   1.7270   2.0500   2.0503   2.3256   2.3258
     3.6378   3.6378   4.4680   4.4681   5.2235   5.2236

     the Fermi energy is     1.4595 ev

!    total energy              =   -1585.08746087 Ry
     estimated scf accuracy    <       0.00000759 Ry
     smearing contrib. (-TS)   =      -0.08964716 Ry
     internal energy E=F+TS    =   -1584.99781372 Ry

     The total energy is F=E-TS. E is the sum of the following terms:
     one-electron contribution =  -13834.73675904 Ry
     hartree contribution      =    6953.74821569 Ry
     xc contribution           =    -328.08795046 Ry
     ewald contribution        =    5624.07867980 Ry
     electric field correction =       0.00000030 Ry

     convergence has been achieved in  16 iterations

     negative rho (up, down):  1.389E-03 0.000E+00

     Forces acting on atoms (cartesian axes, Ry/au):

     atom    1 type  1   force =     0.00000097    0.01349059    0.01516867
     atom    2 type  1   force =     0.00000220    0.01343979    0.01516316
     atom    3 type  2   force =     0.00008257   -0.01995638   -0.00438620
     atom    4 type  2   force =    -0.00008489   -0.01996021   -0.00439908
     atom    5 type  1   force =     0.00000355   -0.00334444   -0.00828073
     atom    6 type  1   force =    -0.00000206   -0.00330009   -0.00825297
     atom    7 type  2   force =    -0.00004674    0.00777632   -0.00907409
     atom    8 type  2   force =     0.00004731    0.00777599   -0.00907785
     atom    9 type  1   force =     0.00000441    0.00110426    0.00476415
     atom   10 type  1   force =    -0.00000381    0.00117234    0.00483100
     atom   11 type  2   force =    -0.00008958    0.00090161    0.00178491
     atom   12 type  2   force =     0.00008607    0.00090022    0.00175902

     Total force =     0.046464     Total SCF correction =     0.022238
     SCF correction compared to forces is large: reduce conv_thr to get better values

     Writing output data file ./Ru2Pt2/Ru2Pt2_beef.save/

     init_run     :     87.76s CPU     88.40s WALL (       1 calls)
     electrons    :   2805.66s CPU   2837.63s WALL (       1 calls)
     forces       :     50.51s CPU     50.70s WALL (       1 calls)

     Called by init_run:
     wfcinit      :     71.05s CPU     71.47s WALL (       1 calls)
     potinit      :     11.03s CPU     11.12s WALL (       1 calls)
     hinit0       :      3.77s CPU      3.78s WALL (       1 calls)

     Called by electrons:
     c_bands      :   2447.56s CPU   2473.02s WALL (      16 calls)
     sum_band     :    325.16s CPU    329.24s WALL (      16 calls)
     v_of_rho     :     27.12s CPU     28.17s WALL (      17 calls)
     newd         :     15.02s CPU     16.44s WALL (      17 calls)
     mix_rho      :      0.58s CPU      0.60s WALL (      16 calls)
     vdW_kernel   :      7.40s CPU      7.41s WALL (       1 calls)

     Called by c_bands:
     init_us_2    :      7.22s CPU      7.27s WALL (    2516 calls)
     cegterg      :   2405.74s CPU   2429.61s WALL (    1184 calls)

     Called by *egterg:
     cdiaghg      :    114.06s CPU    114.35s WALL (    4701 calls)
     h_psi        :   1168.36s CPU   1188.15s WALL (    4775 calls)
     s_psi        :    195.15s CPU    195.57s WALL (    4775 calls)
     g_psi        :      0.97s CPU      0.98s WALL (    3517 calls)

     Called by h_psi:
     h_psi:calbec :    459.53s CPU    461.33s WALL (    4775 calls)
     vloc_psi     :    507.79s CPU    525.27s WALL (    4775 calls)
     add_vuspsi   :    197.44s CPU    197.92s WALL (    4775 calls)

     General routines
     calbec       :    700.29s CPU    702.69s WALL (    6255 calls)
     fft          :     17.37s CPU     17.85s WALL (    1130 calls)
     ffts         :      0.09s CPU      0.10s WALL (      33 calls)
     fftw         :    583.18s CPU    602.54s WALL (  623422 calls)
     interpolate  :      0.26s CPU      0.26s WALL (      17 calls)

     Parallel routines
     fft_scatt_xy :     39.05s CPU     39.48s WALL (  624585 calls)
     fft_scatt_yz :    213.54s CPU    228.96s WALL (  624585 calls)

     PWSCF        :  49m24.34s CPU  50m16.90s WALL


   This run was terminated on:  20:42:58  24Jun2022            

=------------------------------------------------------------------------------=
   JOB DONE.
=------------------------------------------------------------------------------=
