
     Program PWSCF v.6.6 starts on 24Jun2022 at 15:22:50 

     This program is part of the open-source Quantum ESPRESSO suite
     for quantum simulation of materials; please cite
         "P. Giannozzi et al., J. Phys.:Condens. Matter 21 395502 (2009);
         "P. Giannozzi et al., J. Phys.:Condens. Matter 29 465901 (2017);
          URL http://www.quantum-espresso.org", 
     in publications or presentations arising from this work. More details at
     http://www.quantum-espresso.org/quote

     Parallel version (MPI), running on    37 processors

     MPI processes distributed on     1 nodes
     R & G space division:  proc/nbgrp/npool/nimage =      37
     Fft bands division:     nmany     =       1
     Reading input from Ru2Pd2.in
Warning: card &CELL ignored
Warning: card / ignored

     Current dimensions of program PWSCF are:
     Max number of different atomic species (ntypx) = 10
     Max number of k-points (npk) =  40000
     Max angular momentum in pseudopotentials (lmaxx) =  3
     Presently stress not available with electric field and gates

     Message from routine cell_base_init:
     DEPRECATED: use true lattice parameter, not A to a.u. conversion factor
     file Pd.pbe-n-rrkjus_psl.1.0.0.UPF: wavefunction(s)  4D renormalized

     **************************************************************************
     Initializing libbeef V0.1.2 with the BEEF-vdW functional.
     Citation: Wellendorff et al., PRB 85, 235149 (2012).
     **************************************************************************


     IMPORTANT: XC functional enforced from input :
     Exchange-correlation= BEEF-VDW
                           (   1   4  43  14   2   0   0)
     Any further DFT definition will be discarded
     Please, verify this is what you really want


     Subspace diagonalization in iterative solution of the eigenvalue problem:
     a serial algorithm will be used


     Parallelization info
     --------------------
     sticks:   dense  smooth     PW     G-vecs:    dense   smooth      PW
     Min         111      44     13                25663     6486    1023
     Max         112      45     14                25671     6509    1029
     Sum        4123    1647    483               949639   240365   37969



     bravais-lattice index     =            0
     lattice parameter (alat)  =       1.8897  a.u.
     unit-cell volume          =    4345.8046 (a.u.)^3
     number of atoms/cell      =           12
     number of atomic types    =            2
     number of electrons       =       156.00
     number of Kohn-Sham states=           94
     kinetic-energy cutoff     =      55.1240  Ry
     charge density cutoff     =     551.2396  Ry
     convergence threshold     =      1.0E-05
     mixing beta               =       0.1000
     number of iterations used =           10  plain     mixing
     Exchange-correlation= BEEF-VDW
                           (   1   4  43  14   2   0   0)

     celldm(1)=   1.889726  celldm(2)=   0.000000  celldm(3)=   0.000000
     celldm(4)=   0.000000  celldm(5)=   0.000000  celldm(6)=   0.000000

     crystal axes: (cart. coord. in units of alat)
               a(1) = (   5.448683   0.000000   0.000000 )  
               a(2) = (  -2.724341   4.824706   0.000000 )  
               a(3) = (   0.000000   0.000000  24.496909 )  

     reciprocal axes: (cart. coord. in units 2 pi/alat)
               b(1) = (  0.183531  0.103633 -0.000000 )  
               b(2) = (  0.000000  0.207267  0.000000 )  
               b(3) = (  0.000000 -0.000000  0.040821 )  


     PseudoPot. # 1 for Ru read from file:
     ../pseudo/Ru.pbe-spn-rrkjus_psl.1.0.0.UPF
     MD5 check sum: fbaca725316a1a65f98761fd4ac95971
     Pseudo is Ultrasoft + core correction, Zval = 16.0
     Generated using "atomic" code by A. Dal Corso v.6.2.2
     Using radial grid of 1233 points,  6 beta functions with: 
                l(1) =   0
                l(2) =   0
                l(3) =   1
                l(4) =   1
                l(5) =   2
                l(6) =   2
     Q(r) pseudized with 0 coefficients 


     PseudoPot. # 2 for Pd read from file:
     ../pseudo/Pd.pbe-n-rrkjus_psl.1.0.0.UPF
     MD5 check sum: d9f693bf1c5b493397a6bd6f2231cfc3
     Pseudo is Ultrasoft + core correction, Zval = 10.0
     Generated using "atomic" code by A. Dal Corso v.6.3
     Using radial grid of 1235 points,  6 beta functions with: 
                l(1) =   0
                l(2) =   0
                l(3) =   1
                l(4) =   1
                l(5) =   2
                l(6) =   2
     Q(r) pseudized with 0 coefficients 


     atomic species   valence    mass     pseudopotential
        Ru            16.00   101.07000     Ru( 1.00)
        Pd            10.00   106.42000     Pd( 1.00)

     No symmetry found



   Cartesian axes

     site n.     atom                  positions (alat units)
         1           Ru  tau(   1) = (   0.0000000   0.0000000  10.0000000  )
         2           Ru  tau(   2) = (   2.7243415   0.0000000  10.0000000  )
         3           Pd  tau(   3) = (   1.3621707   2.4123530  10.0000000  )
         4           Pd  tau(   4) = (  -1.3621707   2.4123530  10.0000000  )
         5           Ru  tau(   5) = (   2.7243415   1.5383396  12.2484545  )
         6           Ru  tau(   6) = (  -0.0000000   1.5383396  12.2484545  )
         7           Pd  tau(   7) = (  -1.3621707   3.9506926  12.2484545  )
         8           Pd  tau(   8) = (   1.3621707   3.9506926  12.2484545  )
         9           Ru  tau(   9) = (   0.0000027   2.9470414  14.3560882  )
        10           Ru  tau(  10) = (   2.7243418   2.9474236  14.3565466  )
        11           Pd  tau(  11) = (   4.0864532   0.6086201  14.5373767  )
        12           Pd  tau(  12) = (   1.3622299   0.6086175  14.5373783  )

     number of k points=    74  Fermi-Dirac smearing, width (Ry)=  0.0100
                       cart. coord. in units 2pi/alat
        k(    1) = (   0.0000000   0.0000000   0.0000000), wk =   0.0138889
        k(    2) = (   0.0000000   0.0172722   0.0000000), wk =   0.0277778
        k(    3) = (   0.0000000   0.0345444   0.0000000), wk =   0.0277778
        k(    4) = (   0.0000000   0.0518166   0.0000000), wk =   0.0277778
        k(    5) = (   0.0000000   0.0690888   0.0000000), wk =   0.0277778
        k(    6) = (   0.0000000   0.0863610   0.0000000), wk =   0.0277778
        k(    7) = (   0.0000000  -0.1036333   0.0000000), wk =   0.0138889
        k(    8) = (   0.0152942   0.0086361   0.0000000), wk =   0.0277778
        k(    9) = (   0.0152942   0.0259083   0.0000000), wk =   0.0277778
        k(   10) = (   0.0152942   0.0431805   0.0000000), wk =   0.0277778
        k(   11) = (   0.0152942   0.0604527   0.0000000), wk =   0.0277778
        k(   12) = (   0.0152942   0.0777249   0.0000000), wk =   0.0277778
        k(   13) = (   0.0152942   0.0949972   0.0000000), wk =   0.0277778
        k(   14) = (   0.0152942  -0.0949972   0.0000000), wk =   0.0277778
        k(   15) = (   0.0152942  -0.0777249   0.0000000), wk =   0.0277778
        k(   16) = (   0.0152942  -0.0604527   0.0000000), wk =   0.0277778
        k(   17) = (   0.0152942  -0.0431805   0.0000000), wk =   0.0277778
        k(   18) = (   0.0152942  -0.0259083   0.0000000), wk =   0.0277778
        k(   19) = (   0.0152942  -0.0086361   0.0000000), wk =   0.0277778
        k(   20) = (   0.0305884   0.0172722   0.0000000), wk =   0.0277778
        k(   21) = (   0.0305884   0.0345444   0.0000000), wk =   0.0277778
        k(   22) = (   0.0305884   0.0518166   0.0000000), wk =   0.0277778
        k(   23) = (   0.0305884   0.0690888   0.0000000), wk =   0.0277778
        k(   24) = (   0.0305884   0.0863610   0.0000000), wk =   0.0277778
        k(   25) = (   0.0305884   0.1036333   0.0000000), wk =   0.0277778
        k(   26) = (   0.0305884  -0.0863611   0.0000000), wk =   0.0277778
        k(   27) = (   0.0305884  -0.0690888   0.0000000), wk =   0.0277778
        k(   28) = (   0.0305884  -0.0518166   0.0000000), wk =   0.0277778
        k(   29) = (   0.0305884  -0.0345444   0.0000000), wk =   0.0277778
        k(   30) = (   0.0305884  -0.0172722   0.0000000), wk =   0.0277778
        k(   31) = (   0.0305884  -0.0000000   0.0000000), wk =   0.0277778
        k(   32) = (   0.0458826   0.0259083   0.0000000), wk =   0.0277778
        k(   33) = (   0.0458826   0.0431805   0.0000000), wk =   0.0277778
        k(   34) = (   0.0458826   0.0604527   0.0000000), wk =   0.0277778
        k(   35) = (   0.0458826   0.0777249   0.0000000), wk =   0.0277778
        k(   36) = (   0.0458826   0.0949971   0.0000000), wk =   0.0277778
        k(   37) = (   0.0458826   0.1122694   0.0000000), wk =   0.0277778
        k(   38) = (   0.0458826  -0.0777249   0.0000000), wk =   0.0277778
        k(   39) = (   0.0458826  -0.0604527   0.0000000), wk =   0.0277778
        k(   40) = (   0.0458826  -0.0431805   0.0000000), wk =   0.0277778
        k(   41) = (   0.0458826  -0.0259083   0.0000000), wk =   0.0277778
        k(   42) = (   0.0458826  -0.0086361   0.0000000), wk =   0.0277778
        k(   43) = (   0.0458826   0.0086361   0.0000000), wk =   0.0277778
        k(   44) = (   0.0611769   0.0345444   0.0000000), wk =   0.0277778
        k(   45) = (   0.0611769   0.0518166   0.0000000), wk =   0.0277778
        k(   46) = (   0.0611769   0.0690888   0.0000000), wk =   0.0277778
        k(   47) = (   0.0611769   0.0863610   0.0000000), wk =   0.0277778
        k(   48) = (   0.0611769   0.1036333   0.0000000), wk =   0.0277778
        k(   49) = (   0.0611769   0.1209055   0.0000000), wk =   0.0277778
        k(   50) = (   0.0611769  -0.0690888   0.0000000), wk =   0.0277778
        k(   51) = (   0.0611769  -0.0518166   0.0000000), wk =   0.0277778
        k(   52) = (   0.0611769  -0.0345444   0.0000000), wk =   0.0277778
        k(   53) = (   0.0611769  -0.0172722   0.0000000), wk =   0.0277778
        k(   54) = (   0.0611769  -0.0000000   0.0000000), wk =   0.0277778
        k(   55) = (   0.0611769   0.0172722   0.0000000), wk =   0.0277778
        k(   56) = (   0.0764711   0.0431805   0.0000000), wk =   0.0277778
        k(   57) = (   0.0764711   0.0604527   0.0000000), wk =   0.0277778
        k(   58) = (   0.0764711   0.0777249   0.0000000), wk =   0.0277778
        k(   59) = (   0.0764711   0.0949971   0.0000000), wk =   0.0277778
        k(   60) = (   0.0764711   0.1122694   0.0000000), wk =   0.0277778
        k(   61) = (   0.0764711   0.1295416   0.0000000), wk =   0.0277778
        k(   62) = (   0.0764711  -0.0604527   0.0000000), wk =   0.0277778
        k(   63) = (   0.0764711  -0.0431805   0.0000000), wk =   0.0277778
        k(   64) = (   0.0764711  -0.0259083   0.0000000), wk =   0.0277778
        k(   65) = (   0.0764711  -0.0086361   0.0000000), wk =   0.0277778
        k(   66) = (   0.0764711   0.0086361   0.0000000), wk =   0.0277778
        k(   67) = (   0.0764711   0.0259083   0.0000000), wk =   0.0277778
        k(   68) = (  -0.0917653  -0.0518166   0.0000000), wk =   0.0138889
        k(   69) = (  -0.0917653  -0.0345444   0.0000000), wk =   0.0277778
        k(   70) = (  -0.0917653  -0.0172722   0.0000000), wk =   0.0277778
        k(   71) = (  -0.0917653   0.0000000   0.0000000), wk =   0.0277778
        k(   72) = (  -0.0917653   0.0172722   0.0000000), wk =   0.0277778
        k(   73) = (  -0.0917653   0.0345444   0.0000000), wk =   0.0277778
        k(   74) = (  -0.0917653  -0.1554499   0.0000000), wk =   0.0138889

     Dense  grid:   949639 G-vectors     FFT dimensions: (  80,  80, 360)

     Smooth grid:   240365 G-vectors     FFT dimensions: (  50,  50, 225)

     Estimated max dynamical RAM per process >     190.28 MB

     Estimated total dynamical RAM >       6.88 GB

     Initial potential from superposition of free atoms

     starting charge  155.99274, renormalised to  156.00000

     negative rho (up, down):  1.678E-03 0.000E+00


     %%%%%%%%%%%%%%%%%%%%%%%%%%%%%%%%%%%%%%%%%%%%%%%%%%%%%%%%%%%%%%%%%%%%%%%%
     %                                                                      %
     % You are using vdW-DF, which was implemented by the Thonhauser group. %
     % Please cite the following two papers that made this development      %
     % possible and the two reviews that describe the various versions:     %
     %                                                                      %
     %   T. Thonhauser et al., PRL 115, 136402 (2015).                      %
     %   T. Thonhauser et al., PRB 76, 125112 (2007).                       %
     %   K. Berland et al., Rep. Prog. Phys. 78, 066501 (2015).             %
     %   D.C. Langreth et al., J. Phys.: Condens. Matter 21, 084203 (2009). %
     %                                                                      %
     %                                                                      %
     % If you are calculating the stress with vdW-DF, please also cite:     %
     %                                                                      %
     %   R. Sabatini et al., J. Phys.: Condens. Matter 24, 424209 (2012).   %
     %                                                                      %
     %%%%%%%%%%%%%%%%%%%%%%%%%%%%%%%%%%%%%%%%%%%%%%%%%%%%%%%%%%%%%%%%%%%%%%%%



     Adding external electric field

     Computed dipole along edir(3) : 
        Dipole                0.0001 Ry au,          0.0002 Debye
        Dipole field          0.0000 Ry au, 

        Potential amp.       -0.0000 Ry
        Total length         45.1351 bohr

     Starting wfcs are  114 randomized atomic wfcs

     total cpu time spent up to now is       81.7 secs

     Self-consistent Calculation

     iteration #  1     ecut=    55.12 Ry     beta= 0.10
     Davidson diagonalization with overlap
     ethr =  1.00E-02,  avg # of iterations =  4.0

     negative rho (up, down):  1.585E-03 0.000E+00

     Adding external electric field

     Computed dipole along edir(3) : 
        Dipole                0.2104 Ry au,          0.5347 Debye
        Dipole field          0.0006 Ry au, 

        Potential amp.       -0.0549 Ry
        Total length         45.1351 bohr


     total cpu time spent up to now is      272.5 secs

     total energy              =   -1597.65818618 Ry
     estimated scf accuracy    <      13.13454409 Ry

     iteration #  2     ecut=    55.12 Ry     beta= 0.10
     Davidson diagonalization with overlap
     ethr =  8.42E-03,  avg # of iterations =  1.1

     negative rho (up, down):  1.568E-03 0.000E+00

     Adding external electric field

     Computed dipole along edir(3) : 
        Dipole               -0.7367 Ry au,         -1.8725 Debye
        Dipole field         -0.0021 Ry au, 

        Potential amp.        0.1923 Ry
        Total length         45.1351 bohr


     total cpu time spent up to now is      417.5 secs

     total energy              =   -1598.80671241 Ry
     estimated scf accuracy    <       3.79225199 Ry

     iteration #  3     ecut=    55.12 Ry     beta= 0.10
     Davidson diagonalization with overlap
     ethr =  2.43E-03,  avg # of iterations =  1.9

     negative rho (up, down):  1.604E-03 0.000E+00

     Adding external electric field

     Computed dipole along edir(3) : 
        Dipole                0.0734 Ry au,          0.1865 Debye
        Dipole field          0.0002 Ry au, 

        Potential amp.       -0.0191 Ry
        Total length         45.1351 bohr


     total cpu time spent up to now is      582.1 secs

     total energy              =   -1598.46911920 Ry
     estimated scf accuracy    <      58.89813247 Ry

     iteration #  4     ecut=    55.12 Ry     beta= 0.10
     Davidson diagonalization with overlap
     ethr =  2.43E-03,  avg # of iterations =  1.0

     negative rho (up, down):  1.656E-03 0.000E+00

     Adding external electric field

     Computed dipole along edir(3) : 
        Dipole                0.0199 Ry au,          0.0505 Debye
        Dipole field          0.0001 Ry au, 

        Potential amp.       -0.0052 Ry
        Total length         45.1351 bohr


     total cpu time spent up to now is      726.2 secs

     total energy              =   -1599.13526625 Ry
     estimated scf accuracy    <       0.53245509 Ry

     iteration #  5     ecut=    55.12 Ry     beta= 0.10
     Davidson diagonalization with overlap
     ethr =  3.41E-04,  avg # of iterations =  2.1

     negative rho (up, down):  1.621E-03 0.000E+00

     Adding external electric field

     Computed dipole along edir(3) : 
        Dipole               -0.0150 Ry au,         -0.0382 Debye
        Dipole field         -0.0000 Ry au, 

        Potential amp.        0.0039 Ry
        Total length         45.1351 bohr


     total cpu time spent up to now is      888.1 secs

     total energy              =   -1599.08988897 Ry
     estimated scf accuracy    <       0.20662125 Ry

     iteration #  6     ecut=    55.12 Ry     beta= 0.10
     Davidson diagonalization with overlap
     ethr =  1.32E-04,  avg # of iterations =  3.4

     negative rho (up, down):  1.595E-03 0.000E+00

     Adding external electric field

     Computed dipole along edir(3) : 
        Dipole                0.0073 Ry au,          0.0187 Debye
        Dipole field          0.0000 Ry au, 

        Potential amp.       -0.0019 Ry
        Total length         45.1351 bohr


     total cpu time spent up to now is     1072.5 secs

     total energy              =   -1599.11590187 Ry
     estimated scf accuracy    <       0.24429555 Ry

     iteration #  7     ecut=    55.12 Ry     beta= 0.10
     Davidson diagonalization with overlap
     ethr =  1.32E-04,  avg # of iterations =  1.0

     negative rho (up, down):  1.610E-03 0.000E+00

     Adding external electric field

     Computed dipole along edir(3) : 
        Dipole                0.0178 Ry au,          0.0452 Debye
        Dipole field          0.0001 Ry au, 

        Potential amp.       -0.0046 Ry
        Total length         45.1351 bohr


     total cpu time spent up to now is     1216.4 secs

     total energy              =   -1599.11391859 Ry
     estimated scf accuracy    <       0.04279566 Ry

     iteration #  8     ecut=    55.12 Ry     beta= 0.10
     Davidson diagonalization with overlap
     ethr =  2.74E-05,  avg # of iterations =  5.1

     negative rho (up, down):  2.322E-03 0.000E+00

     Adding external electric field

     Computed dipole along edir(3) : 
        Dipole                0.0109 Ry au,          0.0276 Debye
        Dipole field          0.0000 Ry au, 

        Potential amp.       -0.0028 Ry
        Total length         45.1351 bohr


     total cpu time spent up to now is     1403.6 secs

     total energy              =   -1599.10902430 Ry
     estimated scf accuracy    <       0.10013088 Ry

     iteration #  9     ecut=    55.12 Ry     beta= 0.10
     Davidson diagonalization with overlap
     ethr =  2.74E-05,  avg # of iterations =  2.0

     negative rho (up, down):  2.297E-03 0.000E+00

     Adding external electric field

     Computed dipole along edir(3) : 
        Dipole               -0.0031 Ry au,         -0.0079 Debye
        Dipole field         -0.0000 Ry au, 

        Potential amp.        0.0008 Ry
        Total length         45.1351 bohr


     total cpu time spent up to now is     1578.9 secs

     total energy              =   -1599.11872417 Ry
     estimated scf accuracy    <       0.05433087 Ry

     iteration # 10     ecut=    55.12 Ry     beta= 0.10
     Davidson diagonalization with overlap
     ethr =  2.74E-05,  avg # of iterations =  1.0

     negative rho (up, down):  2.502E-03 0.000E+00

     Adding external electric field

     Computed dipole along edir(3) : 
        Dipole               -0.0100 Ry au,         -0.0254 Debye
        Dipole field         -0.0000 Ry au, 

        Potential amp.        0.0026 Ry
        Total length         45.1351 bohr


     total cpu time spent up to now is     1725.4 secs

     total energy              =   -1599.11979445 Ry
     estimated scf accuracy    <       0.00262091 Ry

     iteration # 11     ecut=    55.12 Ry     beta= 0.10
     Davidson diagonalization with overlap
     c_bands:  1 eigenvalues not converged
     ethr =  1.68E-06,  avg # of iterations =  7.4

     negative rho (up, down):  2.384E-03 0.000E+00

     Adding external electric field

     Computed dipole along edir(3) : 
        Dipole               -0.0017 Ry au,         -0.0044 Debye
        Dipole field         -0.0000 Ry au, 

        Potential amp.        0.0004 Ry
        Total length         45.1351 bohr


     total cpu time spent up to now is     1924.7 secs

     total energy              =   -1599.11886969 Ry
     estimated scf accuracy    <       0.00931113 Ry

     iteration # 12     ecut=    55.12 Ry     beta= 0.10
     Davidson diagonalization with overlap
     ethr =  1.68E-06,  avg # of iterations =  2.0

     negative rho (up, down):  2.254E-03 0.000E+00

     Adding external electric field

     Computed dipole along edir(3) : 
        Dipole               -0.0012 Ry au,         -0.0030 Debye
        Dipole field         -0.0000 Ry au, 

        Potential amp.        0.0003 Ry
        Total length         45.1351 bohr


     total cpu time spent up to now is     2098.8 secs

     total energy              =   -1599.11948627 Ry
     estimated scf accuracy    <       0.00019918 Ry

     iteration # 13     ecut=    55.12 Ry     beta= 0.10
     Davidson diagonalization with overlap
     ethr =  1.28E-07,  avg # of iterations =  2.0

     negative rho (up, down):  2.203E-03 0.000E+00

     Adding external electric field

     Computed dipole along edir(3) : 
        Dipole               -0.0034 Ry au,         -0.0086 Debye
        Dipole field         -0.0000 Ry au, 

        Potential amp.        0.0009 Ry
        Total length         45.1351 bohr


     total cpu time spent up to now is     2273.8 secs

     total energy              =   -1599.11951602 Ry
     estimated scf accuracy    <       0.00007855 Ry

     iteration # 14     ecut=    55.12 Ry     beta= 0.10
     Davidson diagonalization with overlap
     ethr =  5.04E-08,  avg # of iterations =  2.0

     negative rho (up, down):  2.113E-03 0.000E+00

     Adding external electric field

     Computed dipole along edir(3) : 
        Dipole               -0.0029 Ry au,         -0.0073 Debye
        Dipole field         -0.0000 Ry au, 

        Potential amp.        0.0008 Ry
        Total length         45.1351 bohr


     total cpu time spent up to now is     2443.8 secs

     total energy              =   -1599.11951424 Ry
     estimated scf accuracy    <       0.00014464 Ry

     iteration # 15     ecut=    55.12 Ry     beta= 0.10
     Davidson diagonalization with overlap
     ethr =  5.04E-08,  avg # of iterations =  2.0

     negative rho (up, down):  2.019E-03 0.000E+00

     Adding external electric field

     Computed dipole along edir(3) : 
        Dipole               -0.0020 Ry au,         -0.0051 Debye
        Dipole field         -0.0000 Ry au, 

        Potential amp.        0.0005 Ry
        Total length         45.1351 bohr


     total cpu time spent up to now is     2614.5 secs

     total energy              =   -1599.11951326 Ry
     estimated scf accuracy    <       0.00005690 Ry

     iteration # 16     ecut=    55.12 Ry     beta= 0.10
     Davidson diagonalization with overlap
     ethr =  3.65E-08,  avg # of iterations =  1.0

     negative rho (up, down):  1.563E-03 0.000E+00

     Adding external electric field

     Computed dipole along edir(3) : 
        Dipole                0.0128 Ry au,          0.0325 Debye
        Dipole field          0.0000 Ry au, 

        Potential amp.       -0.0033 Ry
        Total length         45.1351 bohr


     total cpu time spent up to now is     2759.4 secs

     End of self-consistent calculation

          k = 0.0000 0.0000 0.0000 ( 30049 PWs)   bands (ev):

   -71.9934 -71.9468 -71.5913 -71.5442 -71.4644 -71.4171 -42.1233 -42.0734
   -42.0722 -41.9207 -41.8737 -41.7868 -41.7097 -41.6152 -41.5381 -41.4906
   -41.4577 -41.4118 -41.4056 -41.3582 -41.3284 -41.3144 -41.2690 -41.2508
    -5.4801  -4.2787  -4.2749  -4.2721  -4.1789  -4.0541  -4.0532  -3.9392
    -3.8629  -3.7546  -3.7330  -3.6855  -3.4575  -3.4228  -3.3322  -2.4905
    -2.3532  -2.3170  -2.3062  -2.0688  -1.9030  -1.8195  -1.7194  -1.6474
    -1.4899  -1.4098  -1.4060  -1.3482  -1.2793  -1.2168  -1.2035  -1.1405
    -0.8917  -0.4670  -0.2835  -0.2613  -0.1487  -0.0949  -0.0115   0.0937
     0.2054   0.5172   0.6234   0.6269   0.6991   0.7178   0.9594   1.1104
     1.1182   1.3075   1.3464   1.3597   1.4455   1.5381   1.7069   1.7145
     1.8051   1.9212   2.0763   2.1593   2.1895   2.3372   2.3768   2.7749
     3.2053   3.2347   3.2833   4.5958   4.8097   4.9115

          k = 0.0000 0.0173 0.0000 ( 30087 PWs)   bands (ev):

   -71.9934 -71.9468 -71.5913 -71.5442 -71.4644 -71.4171 -42.1235 -42.0735
   -42.0722 -41.9209 -41.8738 -41.7869 -41.7098 -41.6153 -41.5383 -41.4907
   -41.4577 -41.4119 -41.4057 -41.3583 -41.3284 -41.3144 -41.2690 -41.2508
    -5.4243  -4.2495  -4.2376  -4.2298  -4.1374  -4.0270  -4.0019  -3.9168
    -3.8271  -3.7234  -3.7051  -3.6667  -3.4130  -3.4000  -3.2818  -2.4867
    -2.3513  -2.3090  -2.2936  -2.0472  -1.8934  -1.8421  -1.6931  -1.6908
    -1.4707  -1.4594  -1.4367  -1.3111  -1.3088  -1.2165  -1.1984  -1.1100
    -0.9107  -0.5493  -0.2947  -0.2916  -0.1254  -0.0936  -0.0817   0.0520
     0.1579   0.4432   0.4813   0.5916   0.6412   0.7142   0.9879   1.0607
     1.1447   1.2561   1.3051   1.3837   1.4014   1.4134   1.5432   1.6837
     1.7414   1.8891   1.9087   2.0547   2.1423   2.2662   2.6368   2.7177
     2.9810   3.2642   3.5635   3.8689   4.7417   5.1489

          k = 0.0000 0.0345 0.0000 ( 29999 PWs)   bands (ev):

   -71.9934 -71.9468 -71.5913 -71.5442 -71.4644 -71.4171 -42.1238 -42.0738
   -42.0724 -41.9214 -41.8739 -41.7871 -41.7100 -41.6153 -41.5387 -41.4910
   -41.4577 -41.4119 -41.4061 -41.3585 -41.3284 -41.3145 -41.2690 -41.2508
    -5.2609  -4.1820  -4.1191  -4.1063  -4.0144  -3.9536  -3.8705  -3.8342
    -3.7227  -3.6307  -3.6217  -3.6100  -3.3328  -3.2848  -3.1338  -2.4800
    -2.3399  -2.3238  -2.2364  -1.9885  -1.9472  -1.8667  -1.7640  -1.6108
    -1.5347  -1.5117  -1.4160  -1.3886  -1.2932  -1.2485  -1.1437  -1.0213
    -0.9749  -0.7405  -0.3800  -0.3157  -0.2897  -0.1595  -0.0906  -0.0878
     0.0343   0.2499   0.2998   0.4860   0.6061   0.7162   0.7581   0.8566
     0.9343   0.9930   1.1842   1.2341   1.2406   1.4387   1.5024   1.6018
     1.6447   1.7016   1.7857   1.9827   1.9904   2.0446   2.2684   2.7410
     3.0114   3.2355   3.3674   4.0669   4.6493   5.2254

          k = 0.0000 0.0518 0.0000 ( 29992 PWs)   bands (ev):

   -71.9933 -71.9468 -71.5912 -71.5442 -71.4643 -71.4171 -42.1242 -42.0742
   -42.0726 -41.9221 -41.8741 -41.7874 -41.7103 -41.6154 -41.5393 -41.4914
   -41.4578 -41.4119 -41.4066 -41.3588 -41.3285 -41.3147 -41.2691 -41.2509
    -5.0036  -4.0879  -3.9398  -3.9138  -3.8451  -3.8308  -3.7710  -3.6171
    -3.5538  -3.5110  -3.4905  -3.4853  -3.2245  -3.0887  -2.9035  -2.4816
    -2.3612  -2.3296  -2.1740  -2.1133  -1.9136  -1.8291  -1.8286  -1.6064
    -1.5992  -1.5008  -1.4991  -1.3393  -1.3279  -1.2725  -1.0817  -1.0573
    -0.9823  -0.8847  -0.6024  -0.4959  -0.3564  -0.3526  -0.3251  -0.1397
    -0.0747   0.0925   0.1375   0.2272   0.3804   0.4993   0.5884   0.6922
     0.7322   0.7681   0.8016   0.8869   1.0415   1.3074   1.4282   1.4653
     1.5083   1.5801   1.6264   1.8218   1.8356   2.0000   2.0948   2.3284
     2.7637   3.4560   3.7771   4.5130   4.6965   5.3512

          k = 0.0000 0.0691 0.0000 ( 29988 PWs)   bands (ev):

   -71.9933 -71.9468 -71.5912 -71.5442 -71.4643 -71.4170 -42.1246 -42.0745
   -42.0728 -41.9229 -41.8743 -41.7877 -41.7107 -41.6154 -41.5399 -41.4918
   -41.4578 -41.4119 -41.4072 -41.3591 -41.3285 -41.3148 -41.2692 -41.2510
    -4.6810  -3.9938  -3.7371  -3.7309  -3.6868  -3.6606  -3.6255  -3.4112
    -3.3412  -3.3392  -3.3227  -3.2984  -3.0803  -2.8584  -2.6776  -2.4957
    -2.3690  -2.3526  -2.3138  -2.0598  -1.9191  -1.8975  -1.8026  -1.6790
    -1.6507  -1.6081  -1.4243  -1.4022  -1.2841  -1.2042  -1.2022  -1.1697
    -0.9573  -0.9412  -0.7220  -0.6623  -0.6187  -0.5625  -0.3927  -0.2882
    -0.2651  -0.1873  -0.0866  -0.0536   0.1421   0.2436   0.3452   0.4208
     0.4438   0.5435   0.5756   0.8273   0.9434   1.0656   1.1465   1.3020
     1.3441   1.4108   1.4556   1.7529   1.7656   1.7703   1.9698   2.5759
     2.7813   3.5258   4.2115   4.7806   4.8281   4.8373

          k = 0.0000 0.0864 0.0000 ( 30002 PWs)   bands (ev):

   -71.9933 -71.9467 -71.5912 -71.5442 -71.4643 -71.4170 -42.1250 -42.0748
   -42.0729 -41.9234 -41.8745 -41.7879 -41.7109 -41.6155 -41.5403 -41.4921
   -41.4579 -41.4119 -41.4075 -41.3594 -41.3286 -41.3149 -41.2692 -41.2510
    -4.3476  -3.9577  -3.6338  -3.6181  -3.5348  -3.4799  -3.4241  -3.2788
    -3.2286  -3.2228  -3.0982  -3.0087  -2.9196  -2.6749  -2.6623  -2.5320
    -2.4895  -2.3597  -2.1859  -2.0985  -2.0379  -1.8769  -1.8632  -1.7247
    -1.6421  -1.5757  -1.4700  -1.3811  -1.3414  -1.2407  -1.1955  -1.1929
    -1.0675  -0.9598  -0.8804  -0.8437  -0.7803  -0.5734  -0.5717  -0.4553
    -0.4224  -0.4146  -0.3671  -0.1185  -0.1033  -0.0760  -0.0281   0.2939
     0.3873   0.3977   0.4674   0.8077   0.8394   0.9228   1.0029   1.1550
     1.2678   1.2944   1.3671   1.4928   1.7269   1.7712   1.9463   2.7938
     3.0191   3.5713   3.9993   4.8435   5.0234   5.5639

          k = 0.0000-0.1036 0.0000 ( 30014 PWs)   bands (ev):

   -71.9933 -71.9467 -71.5912 -71.5441 -71.4643 -71.4170 -42.1251 -42.0749
   -42.0730 -41.9236 -41.8745 -41.7879 -41.7110 -41.6155 -41.5405 -41.4922
   -41.4579 -41.4119 -41.4077 -41.3594 -41.3286 -41.3149 -41.2692 -41.2511
    -4.1289  -4.0230  -3.5917  -3.5891  -3.4326  -3.4324  -3.3065  -3.2190
    -3.2160  -3.1877  -2.9982  -2.8576  -2.7905  -2.6777  -2.6306  -2.5378
    -2.4524  -2.4354  -2.3864  -2.2082  -1.9191  -1.8152  -1.7916  -1.6578
    -1.6458  -1.5419  -1.4722  -1.4081  -1.3480  -1.3209  -1.2715  -1.2189
    -1.1592  -1.0029  -0.9368  -0.8564  -0.8449  -0.6454  -0.5755  -0.5480
    -0.5035  -0.4976  -0.4366  -0.2580  -0.2139  -0.1745  -0.0139   0.2480
     0.3178   0.3601   0.3872   0.8030   0.8423   0.9215   0.9412   1.0896
     1.2018   1.2817   1.3433   1.3961   1.7203   1.7802   1.9363   2.7985
     3.3513   3.5871   3.6791   4.8657   5.0828   5.5970

          k = 0.0153 0.0086 0.0000 ( 30053 PWs)   bands (ev):

   -71.9926 -71.9476 -71.5905 -71.5450 -71.4636 -71.4179 -42.1225 -42.0731
   -42.0658 -41.9200 -41.8746 -41.7792 -41.7021 -41.6233 -41.5374 -41.4915
   -41.4569 -41.4126 -41.4048 -41.3591 -41.3364 -41.3137 -41.2697 -41.2588
    -5.4223  -4.2516  -4.2312  -4.2279  -4.1356  -4.0240  -3.9995  -3.9042
    -3.8345  -3.7349  -3.7061  -3.6586  -3.4209  -3.3735  -3.2954  -2.4793
    -2.3490  -2.2980  -2.2976  -2.0616  -1.8823  -1.8157  -1.7612  -1.6363
    -1.5379  -1.4137  -1.4059  -1.3239  -1.2875  -1.2226  -1.1837  -1.1383
    -0.9135  -0.5071  -0.3437  -0.2733  -0.1482  -0.1004  -0.0954   0.0811
     0.1779   0.4708   0.5612   0.6123   0.6219   0.6638   0.9012   1.0283
     1.0429   1.2610   1.3330   1.4148   1.4617   1.4630   1.5969   1.6490
     1.7672   1.8078   2.0031   2.0370   2.0498   2.3017   2.6448   2.6497
     2.9139   3.3936   3.4586   4.3476   4.4337   4.8536

          k = 0.0153 0.0259 0.0000 ( 30088 PWs)   bands (ev):

   -71.9926 -71.9476 -71.5905 -71.5450 -71.4636 -71.4179 -42.1227 -42.0732
   -42.0660 -41.9204 -41.8747 -41.7794 -41.7023 -41.6233 -41.5377 -41.4917
   -41.4569 -41.4127 -41.4051 -41.3593 -41.3364 -41.3137 -41.2698 -41.2589
    -5.3125  -4.1876  -4.1793  -4.1331  -4.0538  -3.9742  -3.9012  -3.8572
    -3.7664  -3.6816  -3.6390  -3.6216  -3.3401  -3.3286  -3.1911  -2.4753
    -2.3423  -2.3055  -2.2598  -2.0195  -1.8892  -1.8634  -1.7606  -1.6418
    -1.5493  -1.4800  -1.4117  -1.3317  -1.2969  -1.2244  -1.1864  -1.0624
    -0.9549  -0.6462  -0.3563  -0.3415  -0.2306  -0.1531  -0.1022  -0.0093
     0.1077   0.3522   0.3547   0.5101   0.6067   0.6802   0.8257   0.8382
     1.0721   1.1313   1.2289   1.3060   1.3262   1.3411   1.5562   1.6238
     1.6453   1.7313   1.8347   1.9038   2.0005   2.0781   2.6367   2.8730
     2.8808   3.0802   3.6540   3.9907   4.1444   5.4241

          k = 0.0153 0.0432 0.0000 ( 30037 PWs)   bands (ev):

   -71.9926 -71.9476 -71.5905 -71.5450 -71.4636 -71.4179 -42.1231 -42.0734
   -42.0663 -41.9210 -41.8749 -41.7796 -41.7026 -41.6233 -41.5381 -41.4921
   -41.4570 -41.4127 -41.4055 -41.3595 -41.3365 -41.3138 -41.2698 -41.2589
    -5.1013  -4.0955  -4.0454  -3.9688  -3.8975  -3.8823  -3.7905  -3.6986
    -3.6335  -3.5767  -3.5459  -3.5115  -3.2414  -3.1824  -2.9973  -2.4760
    -2.3318  -2.3298  -2.1981  -2.0469  -1.9489  -1.8299  -1.8006  -1.5987
    -1.5691  -1.5683  -1.4238  -1.3812  -1.3113  -1.2482  -1.1210  -1.0423
    -0.9497  -0.8508  -0.5111  -0.4212  -0.3991  -0.2573  -0.2046  -0.1325
    -0.0000   0.1672   0.2060   0.3661   0.4895   0.5647   0.6127   0.6897
     0.8076   0.8405   1.0029   1.0539   1.0975   1.3136   1.4083   1.4152
     1.5426   1.6709   1.7496   1.8530   1.9028   2.0619   2.2514   2.6646
     2.8832   2.9865   3.5956   4.0344   4.6698   5.3866

          k = 0.0153 0.0605 0.0000 ( 29989 PWs)   bands (ev):

   -71.9925 -71.9476 -71.5904 -71.5450 -71.4635 -71.4179 -42.1235 -42.0736
   -42.0667 -41.9217 -41.8750 -41.7799 -41.7029 -41.6234 -41.5388 -41.4924
   -41.4570 -41.4127 -41.4061 -41.3598 -41.3365 -41.3139 -41.2699 -41.2589
    -4.8081  -3.9954  -3.8426  -3.7817  -3.7424  -3.7107  -3.6829  -3.4731
    -3.4546  -3.4137  -3.4090  -3.3471  -3.1171  -2.9654  -2.7614  -2.4834
    -2.3634  -2.3388  -2.2480  -2.1107  -1.8937  -1.8682  -1.7929  -1.6508
    -1.6500  -1.5421  -1.5089  -1.4145  -1.2975  -1.2268  -1.1501  -1.1121
    -0.9933  -0.8273  -0.8147  -0.5664  -0.4942  -0.4492  -0.4356  -0.1553
    -0.1071  -0.0934  -0.0328   0.0564   0.2186   0.4054   0.4626   0.4816
     0.5411   0.5456   0.7571   0.8255   0.9304   1.0893   1.2531   1.3600
     1.3971   1.5208   1.6611   1.6962   1.7464   1.9683   2.2153   2.4517
     2.6926   3.0918   4.0932   4.1204   4.9978   5.1267

          k = 0.0153 0.0777 0.0000 ( 29984 PWs)   bands (ev):

   -71.9925 -71.9475 -71.5904 -71.5450 -71.4635 -71.4178 -42.1239 -42.0738
   -42.0670 -41.9223 -41.8752 -41.7801 -41.7032 -41.6235 -41.5393 -41.4928
   -41.4571 -41.4127 -41.4065 -41.3601 -41.3366 -41.3140 -41.2700 -41.2590
    -4.4716  -3.9193  -3.6616  -3.6177  -3.6165  -3.5182  -3.5106  -3.3170
    -3.3064  -3.2217  -3.1719  -3.1359  -2.9695  -2.7480  -2.6704  -2.4753
    -2.4696  -2.3285  -2.2308  -2.0708  -2.0107  -1.9170  -1.8164  -1.7496
    -1.6386  -1.6108  -1.4880  -1.4287  -1.3634  -1.2213  -1.2084  -1.1069
    -1.1046  -0.9596  -0.8118  -0.7885  -0.6824  -0.5951  -0.4868  -0.4711
    -0.3715  -0.2772  -0.1834  -0.0908  -0.0809   0.0879   0.1238   0.3260
     0.4138   0.5019   0.5530   0.8019   0.8245   0.8870   1.0893   1.2631
     1.3224   1.3850   1.4155   1.6649   1.7048   1.7812   1.9250   2.7130
     2.8637   3.1710   4.1607   4.2472   4.9687   5.3892

          k = 0.0153 0.0950 0.0000 ( 30002 PWs)   bands (ev):

   -71.9925 -71.9475 -71.5904 -71.5450 -71.4635 -71.4178 -42.1241 -42.0739
   -42.0672 -41.9227 -41.8753 -41.7803 -41.7034 -41.6235 -41.5396 -41.4930
   -41.4571 -41.4127 -41.4068 -41.3602 -41.3366 -41.3141 -41.2700 -41.2590
    -4.1653  -3.9434  -3.5815  -3.5647  -3.4427  -3.4042  -3.3230  -3.2358
    -3.2150  -3.1649  -2.9890  -2.8537  -2.8535  -2.7158  -2.6174  -2.5726
    -2.4500  -2.3777  -2.3072  -2.2212  -1.8974  -1.8711  -1.8471  -1.7045
    -1.6361  -1.5482  -1.5288  -1.4609  -1.3532  -1.3225  -1.2334  -1.2148
    -1.1246  -1.1073  -0.9695  -0.8615  -0.8350  -0.6416  -0.6239  -0.5852
    -0.5791  -0.3280  -0.3108  -0.2765  -0.1240  -0.1025  -0.0130   0.2489
     0.3740   0.3958   0.4485   0.7410   0.8285   0.8827   0.9751   1.1835
     1.2232   1.2936   1.3545   1.4903   1.6906   1.7223   1.9048   2.7240
     3.2128   3.2874   3.8609   4.2006   5.4676   5.4986

          k = 0.0153-0.0950 0.0000 ( 30002 PWs)   bands (ev):

   -71.9925 -71.9475 -71.5904 -71.5450 -71.4635 -71.4178 -42.1241 -42.0739
   -42.0672 -41.9227 -41.8753 -41.7803 -41.7034 -41.6235 -41.5396 -41.4930
   -41.4571 -41.4127 -41.4068 -41.3602 -41.3366 -41.3141 -41.2700 -41.2590
    -4.1653  -3.9434  -3.5815  -3.5647  -3.4427  -3.4042  -3.3230  -3.2358
    -3.2150  -3.1649  -2.9890  -2.8537  -2.8535  -2.7158  -2.6174  -2.5726
    -2.4500  -2.3777  -2.3072  -2.2212  -1.8974  -1.8711  -1.8471  -1.7045
    -1.6361  -1.5482  -1.5288  -1.4609  -1.3532  -1.3225  -1.2334  -1.2148
    -1.1246  -1.1073  -0.9695  -0.8615  -0.8350  -0.6416  -0.6239  -0.5852
    -0.5791  -0.3280  -0.3108  -0.2765  -0.1240  -0.1025  -0.0130   0.2489
     0.3740   0.3958   0.4485   0.7410   0.8285   0.8827   0.9751   1.1835
     1.2232   1.2936   1.3545   1.4903   1.6906   1.7223   1.9048   2.7240
     3.2128   3.2874   3.8609   4.2006   5.4676   5.4986

          k = 0.0153-0.0777 0.0000 ( 29984 PWs)   bands (ev):

   -71.9925 -71.9475 -71.5904 -71.5450 -71.4635 -71.4178 -42.1239 -42.0738
   -42.0670 -41.9223 -41.8752 -41.7801 -41.7032 -41.6235 -41.5393 -41.4928
   -41.4571 -41.4127 -41.4065 -41.3601 -41.3366 -41.3140 -41.2700 -41.2590
    -4.4716  -3.9193  -3.6616  -3.6177  -3.6165  -3.5182  -3.5106  -3.3170
    -3.3064  -3.2217  -3.1719  -3.1359  -2.9695  -2.7480  -2.6704  -2.4753
    -2.4696  -2.3285  -2.2308  -2.0708  -2.0107  -1.9170  -1.8164  -1.7496
    -1.6386  -1.6108  -1.4880  -1.4287  -1.3634  -1.2213  -1.2084  -1.1069
    -1.1046  -0.9596  -0.8118  -0.7885  -0.6824  -0.5951  -0.4868  -0.4711
    -0.3715  -0.2772  -0.1834  -0.0908  -0.0809   0.0879   0.1238   0.3260
     0.4138   0.5019   0.5530   0.8019   0.8245   0.8870   1.0893   1.2631
     1.3224   1.3850   1.4155   1.6649   1.7048   1.7812   1.9250   2.7130
     2.8637   3.1710   4.1607   4.2472   4.9687   5.3892

          k = 0.0153-0.0605 0.0000 ( 29989 PWs)   bands (ev):

   -71.9925 -71.9476 -71.5904 -71.5450 -71.4635 -71.4179 -42.1235 -42.0736
   -42.0667 -41.9217 -41.8750 -41.7799 -41.7029 -41.6234 -41.5388 -41.4924
   -41.4570 -41.4127 -41.4061 -41.3598 -41.3365 -41.3139 -41.2699 -41.2589
    -4.8081  -3.9954  -3.8426  -3.7817  -3.7424  -3.7107  -3.6829  -3.4731
    -3.4546  -3.4137  -3.4090  -3.3471  -3.1171  -2.9654  -2.7614  -2.4834
    -2.3634  -2.3388  -2.2480  -2.1107  -1.8937  -1.8682  -1.7929  -1.6508
    -1.6500  -1.5421  -1.5089  -1.4145  -1.2975  -1.2268  -1.1501  -1.1121
    -0.9933  -0.8273  -0.8147  -0.5664  -0.4942  -0.4492  -0.4356  -0.1553
    -0.1071  -0.0934  -0.0328   0.0564   0.2186   0.4054   0.4626   0.4816
     0.5411   0.5456   0.7571   0.8255   0.9304   1.0893   1.2531   1.3600
     1.3971   1.5208   1.6611   1.6962   1.7464   1.9683   2.2153   2.4517
     2.6926   3.0918   4.0932   4.1204   4.9978   5.1267

          k = 0.0153-0.0432 0.0000 ( 30037 PWs)   bands (ev):

   -71.9926 -71.9476 -71.5905 -71.5450 -71.4636 -71.4179 -42.1231 -42.0734
   -42.0663 -41.9210 -41.8749 -41.7796 -41.7026 -41.6233 -41.5381 -41.4921
   -41.4570 -41.4127 -41.4055 -41.3595 -41.3365 -41.3138 -41.2698 -41.2589
    -5.1013  -4.0955  -4.0454  -3.9688  -3.8975  -3.8823  -3.7905  -3.6986
    -3.6335  -3.5767  -3.5459  -3.5115  -3.2414  -3.1824  -2.9973  -2.4760
    -2.3318  -2.3298  -2.1981  -2.0469  -1.9489  -1.8299  -1.8006  -1.5987
    -1.5691  -1.5683  -1.4238  -1.3812  -1.3113  -1.2482  -1.1210  -1.0423
    -0.9497  -0.8508  -0.5111  -0.4212  -0.3991  -0.2573  -0.2046  -0.1326
    -0.0000   0.1672   0.2060   0.3661   0.4895   0.5647   0.6127   0.6897
     0.8076   0.8405   1.0029   1.0539   1.0975   1.3136   1.4083   1.4152
     1.5426   1.6709   1.7496   1.8530   1.9028   2.0619   2.2514   2.6646
     2.8832   2.9865   3.5956   4.0344   4.6698   5.3866

          k = 0.0153-0.0259 0.0000 ( 30088 PWs)   bands (ev):

   -71.9926 -71.9476 -71.5905 -71.5450 -71.4636 -71.4179 -42.1227 -42.0732
   -42.0660 -41.9204 -41.8747 -41.7794 -41.7023 -41.6233 -41.5377 -41.4917
   -41.4569 -41.4127 -41.4051 -41.3593 -41.3364 -41.3137 -41.2698 -41.2589
    -5.3125  -4.1876  -4.1793  -4.1331  -4.0538  -3.9742  -3.9012  -3.8572
    -3.7664  -3.6816  -3.6390  -3.6216  -3.3401  -3.3286  -3.1911  -2.4753
    -2.3423  -2.3055  -2.2598  -2.0195  -1.8892  -1.8634  -1.7606  -1.6418
    -1.5493  -1.4800  -1.4117  -1.3317  -1.2969  -1.2244  -1.1864  -1.0624
    -0.9549  -0.6462  -0.3563  -0.3415  -0.2306  -0.1531  -0.1022  -0.0093
     0.1077   0.3522   0.3547   0.5101   0.6067   0.6802   0.8257   0.8382
     1.0721   1.1313   1.2289   1.3060   1.3262   1.3411   1.5562   1.6238
     1.6453   1.7313   1.8347   1.9038   2.0005   2.0781   2.6367   2.8730
     2.8808   3.0802   3.6540   3.9907   4.1444   5.4241

          k = 0.0153-0.0086 0.0000 ( 30053 PWs)   bands (ev):

   -71.9926 -71.9476 -71.5905 -71.5450 -71.4636 -71.4179 -42.1225 -42.0731
   -42.0658 -41.9200 -41.8746 -41.7792 -41.7021 -41.6233 -41.5374 -41.4915
   -41.4569 -41.4126 -41.4048 -41.3591 -41.3364 -41.3137 -41.2697 -41.2588
    -5.4223  -4.2516  -4.2312  -4.2279  -4.1356  -4.0240  -3.9995  -3.9042
    -3.8345  -3.7349  -3.7061  -3.6586  -3.4209  -3.3735  -3.2954  -2.4793
    -2.3490  -2.2980  -2.2976  -2.0616  -1.8823  -1.8157  -1.7612  -1.6363
    -1.5379  -1.4137  -1.4059  -1.3239  -1.2875  -1.2226  -1.1837  -1.1383
    -0.9135  -0.5071  -0.3437  -0.2733  -0.1482  -0.1004  -0.0954   0.0811
     0.1779   0.4708   0.5612   0.6123   0.6219   0.6638   0.9012   1.0283
     1.0429   1.2610   1.3330   1.4148   1.4617   1.4630   1.5969   1.6490
     1.7672   1.8078   2.0031   2.0370   2.0498   2.3017   2.6448   2.6497
     2.9139   3.3936   3.4586   4.3477   4.4337   4.8536

          k = 0.0306 0.0173 0.0000 ( 30045 PWs)   bands (ev):

   -71.9903 -71.9499 -71.5882 -71.5474 -71.4612 -71.4203 -42.1201 -42.0758
   -42.0435 -41.9178 -41.8771 -41.7569 -41.6797 -41.6468 -41.5352 -41.4941
   -41.4546 -41.4149 -41.4026 -41.3616 -41.3599 -41.3114 -41.2823 -41.2721
    -5.2530  -4.1815  -4.1040  -4.0909  -4.0128  -3.9400  -3.8476  -3.7983
    -3.7570  -3.6783  -3.6206  -3.5778  -3.3239  -3.2299  -3.1790  -2.4545
    -2.3497  -2.2738  -2.2380  -2.0382  -1.9164  -1.8216  -1.7803  -1.6857
    -1.5604  -1.4547  -1.4053  -1.2896  -1.2846  -1.2270  -1.2122  -1.0319
    -0.9798  -0.6238  -0.4782  -0.3665  -0.2895  -0.1960  -0.1173   0.0293
     0.1216   0.3016   0.4142   0.4180   0.5238   0.5925   0.7142   0.8616
     0.8666   1.1066   1.1905   1.2824   1.3152   1.3941   1.4318   1.6460
     1.6495   1.7455   1.8184   1.8685   1.9887   2.0236   2.2430   2.4121
     3.1988   3.4576   3.6648   3.7302   4.4640   4.7551

          k = 0.0306 0.0345 0.0000 ( 30060 PWs)   bands (ev):

   -71.9903 -71.9499 -71.5881 -71.5474 -71.4612 -71.4203 -42.1204 -42.0759
   -42.0438 -41.9183 -41.8772 -41.7571 -41.6800 -41.6468 -41.5356 -41.4943
   -41.4546 -41.4150 -41.4030 -41.3618 -41.3599 -41.3115 -41.2824 -41.2721
    -5.0953  -4.0990  -4.0219  -3.9626  -3.8978  -3.8717  -3.7550  -3.6886
    -3.6713  -3.6005  -3.5244  -3.5085  -3.2236  -3.1652  -3.0199  -2.4638
    -2.3388  -2.2842  -2.2093  -2.0237  -1.9784  -1.7957  -1.7940  -1.6811
    -1.5880  -1.5537  -1.3569  -1.3349  -1.3214  -1.2370  -1.1637  -1.0460
    -0.9569  -0.7722  -0.5390  -0.5007  -0.3853  -0.2522  -0.2015  -0.1173
     0.0925   0.1434   0.2771   0.3407   0.4681   0.5296   0.5634   0.6618
     0.8369   0.8790   1.0398   1.1373   1.1623   1.1915   1.2584   1.4804
     1.5791   1.6315   1.7753   1.8182   1.8310   2.1255   2.1998   2.4724
     3.0245   3.2468   3.5886   3.7457   4.5095   5.5181

          k = 0.0306 0.0518 0.0000 ( 30013 PWs)   bands (ev):

   -71.9902 -71.9499 -71.5881 -71.5473 -71.4612 -71.4202 -42.1208 -42.0761
   -42.0441 -41.9189 -41.8773 -41.7573 -41.6803 -41.6468 -41.5361 -41.4946
   -41.4547 -41.4150 -41.4034 -41.3621 -41.3599 -41.3116 -41.2824 -41.2722
    -4.8457  -3.9394  -3.9239  -3.7935  -3.7525  -3.7235  -3.6597  -3.5389
    -3.4941  -3.4556  -3.4192  -3.3510  -3.0632  -3.0472  -2.8131  -2.4763
    -2.3424  -2.3093  -2.1875  -2.1686  -1.9106  -1.8465  -1.7575  -1.6565
    -1.6433  -1.6190  -1.4446  -1.4297  -1.3048  -1.2202  -1.1437  -1.1197
    -0.9480  -0.8443  -0.8091  -0.5468  -0.4978  -0.4129  -0.3486  -0.2269
    -0.0963   0.0202   0.1253   0.1514   0.2305   0.3888   0.4059   0.5383
     0.5601   0.6083   0.8422   0.8981   0.9478   0.9770   1.2297   1.3611
     1.4505   1.5828   1.6699   1.6935   1.7733   2.3090   2.3908   2.4340
     2.5234   2.9847   3.2331   4.1016   5.3052   5.3921

          k = 0.0306 0.0691 0.0000 ( 30015 PWs)   bands (ev):

   -71.9902 -71.9499 -71.5881 -71.5473 -71.4611 -71.4202 -42.1212 -42.0763
   -42.0445 -41.9196 -41.8775 -41.7576 -41.6806 -41.6469 -41.5366 -41.4950
   -41.4547 -41.4150 -41.4039 -41.3623 -41.3600 -41.3117 -41.2824 -41.2722
    -4.5295  -3.8243  -3.7220  -3.6570  -3.5762  -3.5644  -3.5187  -3.3918
    -3.3251  -3.2453  -3.2127  -3.1757  -2.9389  -2.8215  -2.7191  -2.4289
    -2.4172  -2.3009  -2.2956  -2.1245  -1.9281  -1.9198  -1.7819  -1.7751
    -1.6636  -1.5747  -1.5587  -1.4978  -1.3774  -1.2420  -1.1897  -1.1051
    -1.0766  -0.9994  -0.8505  -0.6720  -0.6123  -0.5758  -0.5145  -0.3965
    -0.2973  -0.2454  -0.0958  -0.0675  -0.0078   0.2248   0.2261   0.3379
     0.4721   0.5009   0.6769   0.7653   0.7920   0.8477   1.1933   1.2655
     1.3790   1.5083   1.5516   1.6301   1.6919   1.9587   2.3212   2.4101
     2.5622   2.8287   3.2806   4.5136   5.0103   5.4354

          k = 0.0306 0.0864 0.0000 ( 29974 PWs)   bands (ev):

   -71.9902 -71.9499 -71.5880 -71.5473 -71.4611 -71.4202 -42.1214 -42.0764
   -42.0447 -41.9201 -41.8776 -41.7578 -41.6808 -41.6469 -41.5370 -41.4952
   -41.4548 -41.4150 -41.4043 -41.3625 -41.3600 -41.3118 -41.2825 -41.2722
    -4.1958  -3.7898  -3.5549  -3.5005  -3.4841  -3.3697  -3.3553  -3.2697
    -3.1965  -3.1212  -2.9838  -2.9404  -2.8392  -2.7943  -2.5966  -2.5868
    -2.4334  -2.3245  -2.2034  -2.1750  -2.0065  -1.9337  -1.8500  -1.8222
    -1.6215  -1.6071  -1.5755  -1.5173  -1.4238  -1.3610  -1.2558  -1.1834
    -1.1639  -1.0489  -0.9954  -0.8838  -0.7972  -0.7193  -0.6432  -0.5649
    -0.5424  -0.3750  -0.2351  -0.1360   0.0021   0.0056   0.1087   0.2453
     0.4262   0.4796   0.5849   0.6950   0.7598   0.8331   1.0419   1.2320
     1.3330   1.3918   1.4630   1.5612   1.6063   1.8037   1.8636   2.4685
     2.5942   3.2415   3.3237   4.2399   5.3429   5.4321

          k = 0.0306 0.1036 0.0000 ( 30020 PWs)   bands (ev):

   -71.9902 -71.9499 -71.5880 -71.5473 -71.4611 -71.4202 -42.1216 -42.0764
   -42.0448 -41.9202 -41.8776 -41.7579 -41.6809 -41.6469 -41.5372 -41.4953
   -41.4548 -41.4150 -41.4044 -41.3626 -41.3600 -41.3118 -41.2825 -41.2723
    -3.9624  -3.8725  -3.5068  -3.4645  -3.3574  -3.2802  -3.2744  -3.2183
    -3.1580  -3.1217  -2.8492  -2.8433  -2.8141  -2.7217  -2.6395  -2.6049
    -2.4466  -2.3756  -2.3460  -2.2429  -1.9010  -1.8475  -1.8120  -1.7461
    -1.6364  -1.6200  -1.6030  -1.4885  -1.4520  -1.4474  -1.3288  -1.2848
    -1.2017  -1.1569  -1.1500  -0.8706  -0.8343  -0.7952  -0.7251  -0.6234
    -0.5852  -0.4890  -0.1974  -0.1373  -0.0862   0.0126   0.0712   0.2198
     0.4206   0.4454   0.5852   0.6924   0.7613   0.8381   0.9729   1.2075
     1.3064   1.3169   1.4006   1.5520   1.6005   1.6364   1.8176   2.4860
     2.6078   3.3399   3.5658   3.8997   5.4317   5.7807

          k = 0.0306-0.0864 0.0000 ( 29974 PWs)   bands (ev):

   -71.9902 -71.9499 -71.5880 -71.5473 -71.4611 -71.4202 -42.1214 -42.0764
   -42.0447 -41.9201 -41.8776 -41.7578 -41.6808 -41.6469 -41.5370 -41.4952
   -41.4548 -41.4150 -41.4043 -41.3625 -41.3600 -41.3118 -41.2825 -41.2722
    -4.1958  -3.7898  -3.5549  -3.5005  -3.4841  -3.3697  -3.3553  -3.2697
    -3.1965  -3.1212  -2.9838  -2.9404  -2.8392  -2.7943  -2.5966  -2.5868
    -2.4334  -2.3245  -2.2034  -2.1750  -2.0065  -1.9337  -1.8500  -1.8221
    -1.6215  -1.6071  -1.5755  -1.5173  -1.4238  -1.3610  -1.2558  -1.1834
    -1.1639  -1.0489  -0.9954  -0.8838  -0.7972  -0.7193  -0.6432  -0.5649
    -0.5424  -0.3750  -0.2351  -0.1360   0.0021   0.0056   0.1087   0.2453
     0.4262   0.4796   0.5849   0.6950   0.7598   0.8331   1.0419   1.2320
     1.3330   1.3918   1.4630   1.5612   1.6063   1.8037   1.8636   2.4685
     2.5942   3.2415   3.3237   4.2399   5.3429   5.4321

          k = 0.0306-0.0691 0.0000 ( 30015 PWs)   bands (ev):

   -71.9902 -71.9499 -71.5881 -71.5473 -71.4611 -71.4202 -42.1212 -42.0763
   -42.0445 -41.9196 -41.8775 -41.7576 -41.6806 -41.6469 -41.5366 -41.4950
   -41.4547 -41.4150 -41.4039 -41.3623 -41.3600 -41.3117 -41.2824 -41.2722
    -4.5295  -3.8243  -3.7220  -3.6570  -3.5762  -3.5644  -3.5187  -3.3918
    -3.3251  -3.2453  -3.2127  -3.1757  -2.9389  -2.8215  -2.7191  -2.4289
    -2.4172  -2.3009  -2.2956  -2.1245  -1.9281  -1.9198  -1.7819  -1.7751
    -1.6636  -1.5747  -1.5587  -1.4978  -1.3774  -1.2420  -1.1897  -1.1051
    -1.0766  -0.9994  -0.8505  -0.6720  -0.6123  -0.5758  -0.5145  -0.3965
    -0.2973  -0.2454  -0.0958  -0.0675  -0.0078   0.2248   0.2261   0.3379
     0.4721   0.5009   0.6769   0.7653   0.7920   0.8477   1.1933   1.2655
     1.3790   1.5083   1.5516   1.6301   1.6919   1.9587   2.3212   2.4101
     2.5622   2.8287   3.2806   4.5136   5.0103   5.4354

          k = 0.0306-0.0518 0.0000 ( 30013 PWs)   bands (ev):

   -71.9902 -71.9499 -71.5881 -71.5473 -71.4612 -71.4202 -42.1208 -42.0761
   -42.0441 -41.9189 -41.8773 -41.7573 -41.6803 -41.6468 -41.5361 -41.4946
   -41.4547 -41.4150 -41.4034 -41.3621 -41.3599 -41.3116 -41.2824 -41.2722
    -4.8457  -3.9394  -3.9239  -3.7935  -3.7525  -3.7235  -3.6597  -3.5389
    -3.4941  -3.4556  -3.4192  -3.3510  -3.0632  -3.0472  -2.8131  -2.4763
    -2.3424  -2.3093  -2.1875  -2.1686  -1.9106  -1.8465  -1.7575  -1.6565
    -1.6433  -1.6190  -1.4446  -1.4297  -1.3048  -1.2202  -1.1437  -1.1197
    -0.9480  -0.8443  -0.8091  -0.5468  -0.4978  -0.4129  -0.3486  -0.2269
    -0.0963   0.0202   0.1253   0.1514   0.2305   0.3888   0.4059   0.5383
     0.5601   0.6083   0.8422   0.8981   0.9478   0.9770   1.2297   1.3611
     1.4505   1.5828   1.6699   1.6935   1.7733   2.3090   2.3908   2.4340
     2.5234   2.9847   3.2331   4.1016   5.3051   5.3922

          k = 0.0306-0.0345 0.0000 ( 30060 PWs)   bands (ev):

   -71.9903 -71.9499 -71.5881 -71.5474 -71.4612 -71.4203 -42.1204 -42.0759
   -42.0438 -41.9183 -41.8772 -41.7571 -41.6800 -41.6468 -41.5356 -41.4943
   -41.4546 -41.4150 -41.4030 -41.3618 -41.3599 -41.3115 -41.2824 -41.2721
    -5.0953  -4.0990  -4.0219  -3.9626  -3.8978  -3.8717  -3.7550  -3.6886
    -3.6713  -3.6005  -3.5244  -3.5085  -3.2236  -3.1652  -3.0199  -2.4638
    -2.3388  -2.2842  -2.2093  -2.0237  -1.9784  -1.7957  -1.7940  -1.6811
    -1.5880  -1.5537  -1.3569  -1.3349  -1.3214  -1.2370  -1.1637  -1.0460
    -0.9569  -0.7722  -0.5390  -0.5007  -0.3853  -0.2522  -0.2015  -0.1173
     0.0925   0.1434   0.2771   0.3407   0.4681   0.5296   0.5634   0.6618
     0.8369   0.8790   1.0398   1.1373   1.1623   1.1915   1.2584   1.4804
     1.5791   1.6315   1.7753   1.8182   1.8310   2.1255   2.1998   2.4724
     3.0245   3.2468   3.5886   3.7457   4.5095   5.5181

          k = 0.0306-0.0173 0.0000 ( 30045 PWs)   bands (ev):

   -71.9903 -71.9499 -71.5882 -71.5474 -71.4612 -71.4203 -42.1201 -42.0758
   -42.0435 -41.9178 -41.8771 -41.7569 -41.6797 -41.6468 -41.5352 -41.4941
   -41.4546 -41.4149 -41.4026 -41.3616 -41.3599 -41.3114 -41.2823 -41.2721
    -5.2530  -4.1815  -4.1040  -4.0909  -4.0128  -3.9400  -3.8476  -3.7983
    -3.7570  -3.6783  -3.6206  -3.5778  -3.3239  -3.2299  -3.1790  -2.4545
    -2.3497  -2.2738  -2.2380  -2.0382  -1.9164  -1.8216  -1.7803  -1.6857
    -1.5604  -1.4547  -1.4053  -1.2896  -1.2846  -1.2270  -1.2122  -1.0319
    -0.9798  -0.6238  -0.4782  -0.3665  -0.2895  -0.1960  -0.1173   0.0293
     0.1216   0.3016   0.4142   0.4180   0.5238   0.5925   0.7142   0.8616
     0.8666   1.1066   1.1905   1.2824   1.3152   1.3941   1.4318   1.6460
     1.6495   1.7455   1.8184   1.8685   1.9887   2.0236   2.2430   2.4121
     3.1988   3.4576   3.6648   3.7302   4.4640   4.7551

          k = 0.0306-0.0000 0.0000 ( 30021 PWs)   bands (ev):

   -71.9903 -71.9499 -71.5882 -71.5474 -71.4613 -71.4203 -42.1200 -42.0758
   -42.0434 -41.9177 -41.8771 -41.7568 -41.6797 -41.6467 -41.5350 -41.4940
   -41.4546 -41.4149 -41.4025 -41.3616 -41.3599 -41.3114 -41.2823 -41.2721
    -5.3068  -4.1864  -4.1768  -4.1167  -4.0511  -3.9629  -3.8932  -3.8235
    -3.7857  -3.7019  -3.6624  -3.5952  -3.3528  -3.2520  -3.2398  -2.4524
    -2.3542  -2.2715  -2.2499  -2.0612  -1.8878  -1.8318  -1.7799  -1.6753
    -1.5328  -1.4423  -1.3997  -1.2928  -1.2755  -1.2298  -1.2210  -1.0588
    -0.9559  -0.5555  -0.4845  -0.3123  -0.2465  -0.1661  -0.1055   0.0736
     0.1348   0.3642   0.4224   0.5305   0.5769   0.6102   0.6627   0.8560
     0.9920   1.1533   1.2711   1.3581   1.3735   1.4202   1.5092   1.6230
     1.6755   1.7410   1.8183   1.8950   2.0176   2.1791   2.3112   2.8229
     2.8746   3.0412   3.9502   4.0621   4.0754   5.1018

          k = 0.0459 0.0259 0.0000 ( 30043 PWs)   bands (ev):

   -71.9866 -71.9536 -71.5844 -71.5511 -71.4575 -71.4240 -42.1162 -42.0801
   -42.0079 -41.9143 -41.8811 -41.7213 -41.6840 -41.6441 -41.5317 -41.4981
   -41.4510 -41.4186 -41.3991 -41.3971 -41.3656 -41.3196 -41.3079 -41.2757
    -4.9868  -4.0782  -3.9060  -3.8807  -3.8335  -3.8112  -3.6697  -3.6589
    -3.5868  -3.5709  -3.4810  -3.4450  -3.1887  -3.0071  -2.9821  -2.4417
    -2.3726  -2.2271  -2.1679  -2.0987  -1.9993  -1.8267  -1.7584  -1.7281
    -1.5896  -1.5352  -1.3490  -1.3368  -1.2781  -1.2724  -1.1014  -1.0898
    -0.8650  -0.7891  -0.7168  -0.6217  -0.3681  -0.3280  -0.2083  -0.0977
    -0.0027   0.0602   0.1324   0.2551   0.3568   0.4772   0.5264   0.6847
     0.6979   0.8015   0.9301   1.0764   1.1608   1.1979   1.3210   1.4039
     1.4582   1.5797   1.5939   1.6393   1.8044   1.9038   2.1121   2.2535
     2.6545   3.7841   3.8585   3.9461   4.6471   4.8068

          k = 0.0459 0.0432 0.0000 ( 30034 PWs)   bands (ev):

   -71.9866 -71.9536 -71.5844 -71.5511 -71.4575 -71.4240 -42.1165 -42.0802
   -42.0082 -41.9148 -41.8811 -41.7215 -41.6840 -41.6443 -41.5321 -41.4983
   -41.4510 -41.4186 -41.3995 -41.3971 -41.3658 -41.3196 -41.3080 -41.2758
    -4.7928  -3.9866  -3.7937  -3.7615  -3.7203  -3.7031  -3.5943  -3.5718
    -3.4492  -3.4485  -3.3643  -3.3398  -3.0748  -2.9283  -2.8074  -2.4613
    -2.3663  -2.2342  -2.2133  -2.1814  -1.9379  -1.8394  -1.7394  -1.6970
    -1.6475  -1.6362  -1.4056  -1.3398  -1.3214  -1.2368  -1.1685  -1.0881
    -0.8977  -0.8905  -0.8205  -0.6333  -0.4812  -0.4354  -0.3167  -0.2947
    -0.1913   0.0048   0.0488   0.2251   0.2498   0.2981   0.4135   0.5200
     0.5307   0.6530   0.8391   0.8577   0.9306   1.0485   1.0763   1.3389
     1.4446   1.5477   1.5904   1.6290   1.7166   1.8063   2.2036   2.4827
     2.5172   3.1620   3.8594   4.2169   4.7806   5.0175

          k = 0.0459 0.0605 0.0000 ( 30040 PWs)   bands (ev):

   -71.9865 -71.9536 -71.5844 -71.5511 -71.4574 -71.4240 -42.1169 -42.0803
   -42.0085 -41.9154 -41.8812 -41.7217 -41.6840 -41.6446 -41.5325 -41.4986
   -41.4511 -41.4186 -41.3999 -41.3971 -41.3660 -41.3197 -41.3081 -41.2758
    -4.5200  -3.8227  -3.6835  -3.6374  -3.5662  -3.5385  -3.4990  -3.4436
    -3.3192  -3.2609  -3.1910  -3.1756  -2.8857  -2.8245  -2.7340  -2.4275
    -2.3776  -2.3060  -2.2626  -2.1976  -1.9198  -1.9022  -1.8124  -1.7240
    -1.6576  -1.6338  -1.5005  -1.4726  -1.3845  -1.2485  -1.2095  -1.1045
    -1.1013  -0.9563  -0.8400  -0.6749  -0.6025  -0.5270  -0.5168  -0.4447
    -0.3811  -0.2322  -0.1476   0.0425   0.0939   0.2511   0.2565   0.3824
     0.4445   0.5153   0.6719   0.6783   0.8508   0.8875   1.1306   1.2097
     1.4198   1.5340   1.5406   1.6197   1.6756   1.7559   2.2518   2.4788
     2.5064   2.8443   3.1113   4.6632   4.8602   5.4258

          k = 0.0459 0.0777 0.0000 ( 30022 PWs)   bands (ev):

   -71.9865 -71.9536 -71.5843 -71.5511 -71.4574 -71.4240 -42.1172 -42.0804
   -42.0088 -41.9159 -41.8813 -41.7219 -41.6840 -41.6449 -41.5329 -41.4988
   -41.4511 -41.4186 -41.4003 -41.3971 -41.3661 -41.3197 -41.3081 -41.2759
    -4.1981  -3.6113  -3.6037  -3.5095  -3.4276  -3.4030  -3.3492  -3.3005
    -3.1591  -3.0951  -3.0276  -2.9749  -2.8358  -2.7285  -2.6336  -2.5742
    -2.3745  -2.3377  -2.2247  -2.1309  -2.0298  -1.9710  -1.9054  -1.8184
    -1.6651  -1.6121  -1.5702  -1.5583  -1.4273  -1.3460  -1.3159  -1.2054
    -1.1975  -0.9672  -0.9331  -0.8432  -0.7852  -0.7643  -0.6879  -0.5540
    -0.5178  -0.4644  -0.3099  -0.0171   0.1126   0.1719   0.2260   0.2356
     0.4497   0.4715   0.6372   0.6523   0.7804   0.8226   1.0720   1.2067
     1.3925   1.4586   1.4874   1.5080   1.6297   1.8431   1.9909   2.2685
     2.4106   2.5153   3.2577   4.7285   4.7895   5.3167

          k = 0.0459 0.0950 0.0000 ( 30027 PWs)   bands (ev):

   -71.9865 -71.9536 -71.5843 -71.5511 -71.4574 -71.4240 -42.1174 -42.0804
   -42.0090 -41.9163 -41.8813 -41.7220 -41.6840 -41.6450 -41.5332 -41.4989
   -41.4511 -41.4187 -41.4005 -41.3971 -41.3662 -41.3197 -41.3082 -41.2759
    -3.8857  -3.6559  -3.4361  -3.4085  -3.3423  -3.2649  -3.2107  -3.1599
    -3.0714  -3.0637  -2.9281  -2.9003  -2.8025  -2.7182  -2.6632  -2.5325
    -2.5126  -2.3566  -2.2426  -2.0946  -1.9592  -1.9334  -1.8740  -1.8548
    -1.7523  -1.6636  -1.6489  -1.5396  -1.5188  -1.4851  -1.4128  -1.2511
    -1.2188  -1.1283  -1.0796  -0.9403  -0.9257  -0.8524  -0.7925  -0.6790
    -0.6140  -0.5552  -0.1633  -0.0663  -0.0053   0.1569   0.2015   0.2904
     0.4442   0.4600   0.6544   0.7313   0.8214   0.8220   0.9578   1.2393
     1.3627   1.3715   1.4131   1.4682   1.6192   1.7210   1.8924   1.9140
     2.2750   2.5398   3.6699   4.2582   4.7592   5.8270

          k = 0.0459 0.1123 0.0000 ( 30027 PWs)   bands (ev):

   -71.9865 -71.9536 -71.5843 -71.5511 -71.4574 -71.4240 -42.1174 -42.0804
   -42.0090 -41.9163 -41.8813 -41.7220 -41.6840 -41.6450 -41.5332 -41.4989
   -41.4511 -41.4187 -41.4005 -41.3971 -41.3662 -41.3197 -41.3082 -41.2759
    -3.8857  -3.6559  -3.4361  -3.4085  -3.3423  -3.2649  -3.2107  -3.1599
    -3.0714  -3.0637  -2.9281  -2.9003  -2.8025  -2.7182  -2.6632  -2.5325
    -2.5126  -2.3566  -2.2426  -2.0946  -1.9592  -1.9334  -1.8740  -1.8548
    -1.7523  -1.6636  -1.6489  -1.5396  -1.5188  -1.4851  -1.4128  -1.2511
    -1.2188  -1.1283  -1.0796  -0.9403  -0.9257  -0.8524  -0.7925  -0.6790
    -0.6140  -0.5552  -0.1633  -0.0663  -0.0053   0.1569   0.2015   0.2904
     0.4442   0.4600   0.6544   0.7313   0.8214   0.8220   0.9578   1.2393
     1.3627   1.3715   1.4131   1.4682   1.6192   1.7210   1.8924   1.9140
     2.2750   2.5398   3.6699   4.2582   4.7592   5.8270

          k = 0.0459-0.0777 0.0000 ( 30022 PWs)   bands (ev):

   -71.9865 -71.9536 -71.5843 -71.5511 -71.4574 -71.4240 -42.1172 -42.0804
   -42.0088 -41.9159 -41.8813 -41.7219 -41.6840 -41.6449 -41.5329 -41.4988
   -41.4511 -41.4186 -41.4003 -41.3971 -41.3661 -41.3197 -41.3081 -41.2759
    -4.1981  -3.6113  -3.6037  -3.5095  -3.4276  -3.4030  -3.3492  -3.3005
    -3.1591  -3.0951  -3.0276  -2.9749  -2.8358  -2.7285  -2.6336  -2.5742
    -2.3745  -2.3377  -2.2247  -2.1309  -2.0298  -1.9710  -1.9054  -1.8184
    -1.6651  -1.6121  -1.5702  -1.5583  -1.4273  -1.3460  -1.3159  -1.2054
    -1.1975  -0.9672  -0.9331  -0.8432  -0.7852  -0.7643  -0.6879  -0.5540
    -0.5178  -0.4644  -0.3099  -0.0171   0.1126   0.1719   0.2260   0.2356
     0.4497   0.4715   0.6372   0.6523   0.7804   0.8226   1.0720   1.2067
     1.3925   1.4586   1.4874   1.5080   1.6297   1.8431   1.9909   2.2685
     2.4106   2.5153   3.2577   4.7285   4.7895   5.3167

          k = 0.0459-0.0605 0.0000 ( 30040 PWs)   bands (ev):

   -71.9865 -71.9536 -71.5844 -71.5511 -71.4574 -71.4240 -42.1169 -42.0803
   -42.0085 -41.9154 -41.8812 -41.7217 -41.6840 -41.6446 -41.5325 -41.4986
   -41.4511 -41.4186 -41.3999 -41.3971 -41.3660 -41.3197 -41.3081 -41.2758
    -4.5200  -3.8227  -3.6835  -3.6374  -3.5662  -3.5385  -3.4990  -3.4436
    -3.3192  -3.2609  -3.1910  -3.1756  -2.8857  -2.8245  -2.7340  -2.4275
    -2.3776  -2.3060  -2.2626  -2.1976  -1.9198  -1.9022  -1.8124  -1.7240
    -1.6576  -1.6338  -1.5005  -1.4726  -1.3845  -1.2485  -1.2095  -1.1045
    -1.1013  -0.9563  -0.8400  -0.6749  -0.6025  -0.5270  -0.5168  -0.4447
    -0.3811  -0.2322  -0.1476   0.0425   0.0939   0.2511   0.2565   0.3824
     0.4445   0.5153   0.6719   0.6783   0.8508   0.8875   1.1306   1.2097
     1.4198   1.5340   1.5406   1.6197   1.6756   1.7559   2.2518   2.4788
     2.5064   2.8443   3.1113   4.6632   4.8602   5.4258

          k = 0.0459-0.0432 0.0000 ( 30034 PWs)   bands (ev):

   -71.9866 -71.9536 -71.5844 -71.5511 -71.4575 -71.4240 -42.1165 -42.0802
   -42.0082 -41.9148 -41.8811 -41.7215 -41.6840 -41.6443 -41.5321 -41.4983
   -41.4510 -41.4186 -41.3995 -41.3971 -41.3658 -41.3196 -41.3080 -41.2758
    -4.7928  -3.9866  -3.7937  -3.7615  -3.7203  -3.7031  -3.5943  -3.5718
    -3.4492  -3.4485  -3.3643  -3.3398  -3.0748  -2.9283  -2.8074  -2.4613
    -2.3663  -2.2342  -2.2133  -2.1814  -1.9379  -1.8394  -1.7394  -1.6970
    -1.6475  -1.6362  -1.4056  -1.3398  -1.3214  -1.2368  -1.1685  -1.0881
    -0.8977  -0.8905  -0.8205  -0.6333  -0.4812  -0.4354  -0.3167  -0.2947
    -0.1913   0.0048   0.0488   0.2251   0.2498   0.2981   0.4135   0.5200
     0.5307   0.6530   0.8391   0.8577   0.9306   1.0485   1.0763   1.3389
     1.4446   1.5477   1.5904   1.6290   1.7166   1.8063   2.2036   2.4827
     2.5172   3.1620   3.8594   4.2169   4.7806   5.0175

          k = 0.0459-0.0259 0.0000 ( 30043 PWs)   bands (ev):

   -71.9866 -71.9536 -71.5844 -71.5511 -71.4575 -71.4240 -42.1162 -42.0801
   -42.0079 -41.9143 -41.8811 -41.7213 -41.6840 -41.6441 -41.5317 -41.4981
   -41.4510 -41.4186 -41.3991 -41.3971 -41.3656 -41.3196 -41.3079 -41.2757
    -4.9868  -4.0782  -3.9060  -3.8807  -3.8335  -3.8112  -3.6697  -3.6589
    -3.5868  -3.5709  -3.4810  -3.4450  -3.1887  -3.0071  -2.9821  -2.4417
    -2.3726  -2.2271  -2.1679  -2.0987  -1.9993  -1.8267  -1.7584  -1.7281
    -1.5896  -1.5352  -1.3490  -1.3368  -1.2781  -1.2724  -1.1014  -1.0898
    -0.8650  -0.7891  -0.7168  -0.6217  -0.3681  -0.3280  -0.2083  -0.0977
    -0.0027   0.0602   0.1324   0.2551   0.3568   0.4772   0.5264   0.6847
     0.6979   0.8015   0.9301   1.0764   1.1608   1.1979   1.3210   1.4039
     1.4582   1.5797   1.5939   1.6393   1.8044   1.9038   2.1121   2.2535
     2.6545   3.7841   3.8585   3.9461   4.6471   4.8068

          k = 0.0459-0.0086 0.0000 ( 30058 PWs)   bands (ev):

   -71.9866 -71.9536 -71.5844 -71.5511 -71.4575 -71.4240 -42.1160 -42.0800
   -42.0078 -41.9140 -41.8810 -41.7211 -41.6840 -41.6440 -41.5314 -41.4980
   -41.4510 -41.4186 -41.3989 -41.3971 -41.3655 -41.3196 -41.3078 -41.2757
    -5.0870  -4.0917  -4.0276  -3.9279  -3.9017  -3.8489  -3.7186  -3.6948
    -3.6611  -3.6285  -3.5700  -3.4770  -3.2253  -3.1081  -3.0489  -2.4213
    -2.3810  -2.2312  -2.1579  -2.0546  -2.0425  -1.8249  -1.7587  -1.7486
    -1.5364  -1.4278  -1.4135  -1.3202  -1.2984  -1.2900  -1.1189  -1.0323
    -0.8869  -0.7036  -0.6311  -0.6302  -0.2820  -0.2412  -0.1319   0.0135
     0.0499   0.0823   0.1639   0.3176   0.4030   0.5155   0.5554   0.7674
     0.8375   0.8745   1.1143   1.1197   1.2017   1.2811   1.3419   1.4325
     1.5931   1.6359   1.6373   1.8683   1.9544   1.9563   2.0971   2.1928
     2.9608   3.1622   3.5878   3.9284   4.5783   5.3246

          k = 0.0459 0.0086 0.0000 ( 30058 PWs)   bands (ev):

   -71.9866 -71.9536 -71.5844 -71.5511 -71.4575 -71.4240 -42.1160 -42.0800
   -42.0078 -41.9140 -41.8810 -41.7211 -41.6840 -41.6440 -41.5314 -41.4980
   -41.4510 -41.4186 -41.3989 -41.3971 -41.3655 -41.3196 -41.3078 -41.2757
    -5.0870  -4.0917  -4.0276  -3.9279  -3.9017  -3.8489  -3.7186  -3.6948
    -3.6611  -3.6285  -3.5700  -3.4770  -3.2253  -3.1081  -3.0489  -2.4213
    -2.3810  -2.2312  -2.1579  -2.0546  -2.0425  -1.8249  -1.7587  -1.7486
    -1.5364  -1.4278  -1.4135  -1.3202  -1.2984  -1.2900  -1.1189  -1.0323
    -0.8869  -0.7036  -0.6311  -0.6302  -0.2820  -0.2412  -0.1319   0.0135
     0.0499   0.0823   0.1639   0.3176   0.4030   0.5155   0.5554   0.7674
     0.8375   0.8745   1.1143   1.1197   1.2017   1.2811   1.3419   1.4325
     1.5931   1.6359   1.6373   1.8683   1.9544   1.9563   2.0971   2.1928
     2.9608   3.1622   3.5878   3.9284   4.5783   5.3246

          k = 0.0612 0.0345 0.0000 ( 30047 PWs)   bands (ev):

   -71.9818 -71.9585 -71.5795 -71.5560 -71.4526 -71.4289 -42.1111 -42.0855
   -41.9613 -41.9097 -41.8862 -41.7323 -41.6746 -41.5974 -41.5270 -41.5033
   -41.4463 -41.4454 -41.4234 -41.3944 -41.3708 -41.3679 -41.3032 -41.2805
    -4.6531  -3.9702  -3.6864  -3.6663  -3.6564  -3.6173  -3.5420  -3.4772
    -3.4017  -3.3397  -3.3177  -3.2599  -3.0273  -2.7527  -2.7525  -2.4270
    -2.4247  -2.2848  -2.1866  -2.1635  -1.9772  -1.8646  -1.7723  -1.6807
    -1.6617  -1.5633  -1.4189  -1.3803  -1.2974  -1.2262  -1.2150  -1.0829
    -1.0582  -0.8254  -0.7802  -0.6177  -0.5378  -0.5272  -0.4392  -0.3640
    -0.2845  -0.1035  -0.0498   0.1827   0.1999   0.2028   0.3703   0.5251
     0.5346   0.6707   0.6802   0.8088   0.8448   1.0292   1.0648   1.0938
     1.2103   1.3228   1.4399   1.6281   1.6322   1.8265   1.8942   2.1134
     2.6726   3.9951   4.0235   4.4569   4.6660   4.8321

          k = 0.0612 0.0518 0.0000 ( 30045 PWs)   bands (ev):

   -71.9817 -71.9585 -71.5795 -71.5560 -71.4526 -71.4289 -42.1114 -42.0856
   -41.9616 -41.9102 -41.8862 -41.7322 -41.6748 -41.5976 -41.5274 -41.5034
   -41.4464 -41.4453 -41.4234 -41.3948 -41.3708 -41.3679 -41.3033 -41.2805
    -4.4446  -3.8951  -3.5981  -3.5646  -3.5606  -3.5057  -3.4251  -3.4170
    -3.2667  -3.2421  -3.1811  -3.1306  -2.9046  -2.6989  -2.6817  -2.4626
    -2.3451  -2.3387  -2.2418  -2.1942  -1.9675  -1.9166  -1.7948  -1.7146
    -1.6321  -1.5772  -1.4979  -1.4146  -1.4083  -1.2732  -1.2115  -1.1379
    -1.0733  -0.8828  -0.7719  -0.6875  -0.6684  -0.5803  -0.5731  -0.5629
    -0.4543  -0.3123  -0.0735   0.0195   0.1398   0.2163   0.2448   0.4395
     0.4472   0.5153   0.6306   0.6389   0.8210   0.8830   1.0333   1.0568
     1.1509   1.3123   1.4677   1.5926   1.5973   1.8075   1.8399   2.0530
     2.9529   3.2589   3.9836   4.4270   4.8323   4.9412

          k = 0.0612 0.0691 0.0000 ( 30050 PWs)   bands (ev):

   -71.9817 -71.9585 -71.5795 -71.5560 -71.4525 -71.4289 -42.1116 -42.0856
   -41.9618 -41.9107 -41.8861 -41.7322 -41.6750 -41.5979 -41.5277 -41.5036
   -41.4464 -41.4453 -41.4234 -41.3951 -41.3709 -41.3679 -41.3034 -41.2806
    -4.1739  -3.7685  -3.4817  -3.4451  -3.4385  -3.3917  -3.3512  -3.2785
    -3.1795  -3.1030  -3.0038  -2.9960  -2.7818  -2.6946  -2.6498  -2.5332
    -2.3928  -2.3141  -2.2582  -2.1363  -2.0311  -2.0237  -1.8325  -1.7745
    -1.6325  -1.5870  -1.5791  -1.5259  -1.4693  -1.2953  -1.2672  -1.2317
    -1.1170  -1.0016  -0.8644  -0.8556  -0.7787  -0.7669  -0.7247  -0.5577
    -0.5533  -0.4483  -0.4154   0.0860   0.1483   0.2322   0.2487   0.2884
     0.4400   0.4924   0.5951   0.6136   0.7922   0.8405   0.9672   1.0881
     1.2129   1.3057   1.4838   1.5246   1.5328   1.6856   1.8591   2.0462
     2.5720   3.1470   3.3441   4.2783   5.2145   5.5074

          k = 0.0612 0.0864 0.0000 ( 30038 PWs)   bands (ev):

   -71.9817 -71.9585 -71.5795 -71.5560 -71.4525 -71.4289 -42.1118 -42.0857
   -41.9620 -41.9110 -41.8861 -41.7322 -41.6751 -41.5980 -41.5280 -41.5037
   -41.4464 -41.4453 -41.4234 -41.3953 -41.3710 -41.3679 -41.3034 -41.2806
    -3.8723  -3.6361  -3.4417  -3.3515  -3.2921  -3.2883  -3.1961  -3.1507
    -3.0750  -3.0446  -2.9759  -2.9281  -2.8042  -2.7542  -2.6068  -2.4854
    -2.4129  -2.3330  -2.2497  -2.1724  -2.0204  -1.9877  -1.8871  -1.8066
    -1.7499  -1.6840  -1.6780  -1.5456  -1.5299  -1.3916  -1.3692  -1.2166
    -1.1856  -1.0876  -1.0703  -0.9603  -0.8951  -0.8852  -0.8622  -0.7193
    -0.6322  -0.5474  -0.1930   0.0371   0.0591   0.1959   0.2746   0.3691
     0.4944   0.5053   0.5925   0.7575   0.7625   0.8843   0.9526   1.1553
     1.2496   1.3109   1.4136   1.4622   1.4684   1.6615   1.8797   2.0109
     2.0385   2.4672   3.7279   4.1972   4.7905   5.8492

          k = 0.0612 0.1036 0.0000 ( 30036 PWs)   bands (ev):

   -71.9817 -71.9585 -71.5795 -71.5560 -71.4525 -71.4289 -42.1119 -42.0857
   -41.9621 -41.9111 -41.8861 -41.7322 -41.6752 -41.5981 -41.5281 -41.5037
   -41.4464 -41.4453 -41.4234 -41.3954 -41.3710 -41.3679 -41.3035 -41.2806
    -3.6245  -3.5768  -3.5741  -3.2741  -3.2132  -3.1873  -3.1120  -3.1029
    -3.0285  -3.0215  -2.9805  -2.9608  -2.8843  -2.8500  -2.6642  -2.4228
    -2.3584  -2.2913  -2.1607  -2.1248  -2.0386  -2.0035  -1.9087  -1.8677
    -1.8212  -1.7785  -1.7420  -1.5817  -1.5037  -1.4734  -1.3872  -1.2612
    -1.1379  -1.1324  -1.1094  -1.0755  -0.9341  -0.9138  -0.8862  -0.7538
    -0.7122  -0.5306  -0.0709   0.0225   0.0315   0.1742   0.2306   0.3743
     0.5099   0.5497   0.5945   0.7759   0.8230   0.9228   1.0243   1.2549
     1.2668   1.3178   1.3494   1.4249   1.4384   1.6518   1.8656   1.8889
     2.0243   2.0339   4.0748   4.1720   4.3826   6.3050

          k = 0.0612 0.1209 0.0000 ( 30038 PWs)   bands (ev):

   -71.9817 -71.9585 -71.5795 -71.5560 -71.4525 -71.4289 -42.1118 -42.0857
   -41.9620 -41.9110 -41.8861 -41.7322 -41.6751 -41.5980 -41.5280 -41.5037
   -41.4464 -41.4453 -41.4234 -41.3953 -41.3710 -41.3679 -41.3034 -41.2806
    -3.8723  -3.6361  -3.4417  -3.3515  -3.2921  -3.2883  -3.1961  -3.1507
    -3.0750  -3.0446  -2.9759  -2.9281  -2.8042  -2.7542  -2.6068  -2.4854
    -2.4129  -2.3330  -2.2497  -2.1724  -2.0204  -1.9877  -1.8871  -1.8066
    -1.7499  -1.6840  -1.6780  -1.5456  -1.5299  -1.3916  -1.3692  -1.2166
    -1.1856  -1.0876  -1.0703  -0.9603  -0.8951  -0.8852  -0.8622  -0.7193
    -0.6322  -0.5474  -0.1930   0.0371   0.0591   0.1959   0.2746   0.3691
     0.4944   0.5053   0.5925   0.7575   0.7625   0.8843   0.9526   1.1553
     1.2496   1.3109   1.4136   1.4622   1.4684   1.6615   1.8797   2.0109
     2.0385   2.4672   3.7279   4.1972   4.7905   5.8492

          k = 0.0612-0.0691 0.0000 ( 30050 PWs)   bands (ev):

   -71.9817 -71.9585 -71.5795 -71.5560 -71.4525 -71.4289 -42.1116 -42.0856
   -41.9618 -41.9107 -41.8861 -41.7322 -41.6750 -41.5979 -41.5277 -41.5036
   -41.4464 -41.4453 -41.4234 -41.3951 -41.3709 -41.3679 -41.3034 -41.2806
    -4.1739  -3.7685  -3.4817  -3.4451  -3.4385  -3.3917  -3.3512  -3.2785
    -3.1795  -3.1030  -3.0038  -2.9960  -2.7818  -2.6946  -2.6498  -2.5332
    -2.3928  -2.3141  -2.2582  -2.1363  -2.0311  -2.0237  -1.8325  -1.7745
    -1.6325  -1.5869  -1.5791  -1.5259  -1.4693  -1.2953  -1.2672  -1.2317
    -1.1170  -1.0016  -0.8644  -0.8556  -0.7787  -0.7669  -0.7247  -0.5577
    -0.5533  -0.4483  -0.4154   0.0860   0.1483   0.2322   0.2487   0.2884
     0.4400   0.4924   0.5951   0.6136   0.7922   0.8405   0.9672   1.0881
     1.2129   1.3057   1.4838   1.5246   1.5328   1.6856   1.8591   2.0462
     2.5720   3.1470   3.3441   4.2783   5.2145   5.5074

          k = 0.0612-0.0518 0.0000 ( 30045 PWs)   bands (ev):

   -71.9817 -71.9585 -71.5795 -71.5560 -71.4526 -71.4289 -42.1114 -42.0856
   -41.9616 -41.9102 -41.8862 -41.7322 -41.6748 -41.5976 -41.5274 -41.5034
   -41.4464 -41.4453 -41.4234 -41.3948 -41.3708 -41.3679 -41.3033 -41.2805
    -4.4446  -3.8951  -3.5981  -3.5646  -3.5606  -3.5057  -3.4251  -3.4170
    -3.2667  -3.2421  -3.1811  -3.1306  -2.9046  -2.6989  -2.6817  -2.4626
    -2.3451  -2.3387  -2.2418  -2.1942  -1.9675  -1.9166  -1.7948  -1.7146
    -1.6321  -1.5772  -1.4979  -1.4146  -1.4083  -1.2732  -1.2115  -1.1379
    -1.0733  -0.8828  -0.7719  -0.6875  -0.6684  -0.5803  -0.5731  -0.5629
    -0.4543  -0.3123  -0.0735   0.0195   0.1398   0.2163   0.2448   0.4395
     0.4472   0.5153   0.6306   0.6389   0.8210   0.8830   1.0333   1.0568
     1.1509   1.3123   1.4677   1.5926   1.5973   1.8075   1.8399   2.0530
     2.9529   3.2589   3.9836   4.4270   4.8323   4.9413

          k = 0.0612-0.0345 0.0000 ( 30047 PWs)   bands (ev):

   -71.9818 -71.9585 -71.5795 -71.5560 -71.4526 -71.4289 -42.1111 -42.0855
   -41.9613 -41.9097 -41.8862 -41.7323 -41.6746 -41.5974 -41.5270 -41.5033
   -41.4463 -41.4454 -41.4234 -41.3944 -41.3708 -41.3679 -41.3032 -41.2805
    -4.6531  -3.9702  -3.6864  -3.6663  -3.6564  -3.6173  -3.5420  -3.4772
    -3.4017  -3.3397  -3.3177  -3.2599  -3.0273  -2.7527  -2.7525  -2.4270
    -2.4247  -2.2848  -2.1866  -2.1635  -1.9772  -1.8646  -1.7723  -1.6807
    -1.6617  -1.5633  -1.4189  -1.3803  -1.2974  -1.2262  -1.2150  -1.0829
    -1.0582  -0.8254  -0.7802  -0.6177  -0.5378  -0.5272  -0.4392  -0.3640
    -0.2845  -0.1035  -0.0498   0.1827   0.1999   0.2028   0.3703   0.5251
     0.5346   0.6707   0.6802   0.8088   0.8448   1.0292   1.0648   1.0938
     1.2103   1.3228   1.4399   1.6281   1.6322   1.8265   1.8942   2.1134
     2.6726   3.9951   4.0235   4.4569   4.6660   4.8321

          k = 0.0612-0.0173 0.0000 ( 30062 PWs)   bands (ev):

   -71.9818 -71.9585 -71.5796 -71.5560 -71.4526 -71.4289 -42.1109 -42.0855
   -41.9611 -41.9094 -41.8862 -41.7323 -41.6744 -41.5972 -41.5268 -41.5032
   -41.4463 -41.4454 -41.4233 -41.3942 -41.3707 -41.3680 -41.3032 -41.2805
    -4.7834  -3.9784  -3.8056  -3.7310  -3.6987  -3.6852  -3.5978  -3.5191
    -3.5021  -3.4324  -3.4133  -3.3156  -3.0701  -2.8944  -2.8053  -2.4319
    -2.4069  -2.2353  -2.1752  -2.0997  -2.0166  -1.9233  -1.7747  -1.6703
    -1.6300  -1.4932  -1.4043  -1.3746  -1.2932  -1.2690  -1.1455  -1.0713
    -1.0052  -0.8987  -0.6934  -0.5922  -0.4413  -0.4382  -0.3313  -0.2070
    -0.1605  -0.0608   0.0030   0.1829   0.2852   0.2994   0.4432   0.4982
     0.5879   0.7454   0.7600   0.9402   0.9762   1.1130   1.1551   1.2553
     1.3202   1.4333   1.5397   1.6183   1.6645   1.7945   1.9282   2.4393
     2.4846   3.1178   3.9687   4.1887   4.8483   5.0334

          k = 0.0612-0.0000 0.0000 ( 30110 PWs)   bands (ev):

   -71.9818 -71.9585 -71.5796 -71.5560 -71.4526 -71.4289 -42.1108 -42.0855
   -41.9611 -41.9092 -41.8862 -41.7323 -41.6744 -41.5972 -41.5267 -41.5031
   -41.4463 -41.4454 -41.4234 -41.3941 -41.3707 -41.3680 -41.3032 -41.2805
    -4.8276  -3.9305  -3.9065  -3.7530  -3.7077  -3.7064  -3.5988  -3.5408
    -3.5353  -3.4841  -3.4436  -3.3288  -3.0561  -2.9794  -2.8241  -2.4372
    -2.3866  -2.2202  -2.1904  -2.0355  -2.0337  -1.9779  -1.7843  -1.6741
    -1.6084  -1.4153  -1.4045  -1.3862  -1.3457  -1.2875  -1.1158  -1.0643
    -0.9841  -0.9157  -0.6550  -0.6092  -0.3969  -0.3786  -0.2895  -0.1560
    -0.1558  -0.0262   0.0335   0.2042   0.3105   0.3253   0.4450   0.4796
     0.5858   0.7290   0.8593   0.9591   1.0447   1.1380   1.2236   1.2802
     1.3275   1.4503   1.5869   1.5969   1.7385   1.9316   2.2679   2.3301
     2.4192   3.0416   3.2023   4.0987   5.3617   5.4286

          k = 0.0612 0.0173 0.0000 ( 30062 PWs)   bands (ev):

   -71.9818 -71.9585 -71.5796 -71.5560 -71.4526 -71.4289 -42.1109 -42.0855
   -41.9611 -41.9094 -41.8862 -41.7323 -41.6744 -41.5972 -41.5268 -41.5032
   -41.4463 -41.4454 -41.4233 -41.3942 -41.3707 -41.3680 -41.3032 -41.2805
    -4.7834  -3.9784  -3.8056  -3.7310  -3.6987  -3.6852  -3.5978  -3.5191
    -3.5021  -3.4324  -3.4133  -3.3156  -3.0701  -2.8944  -2.8053  -2.4319
    -2.4069  -2.2353  -2.1752  -2.0997  -2.0166  -1.9233  -1.7747  -1.6703
    -1.6300  -1.4932  -1.4043  -1.3746  -1.2932  -1.2690  -1.1455  -1.0713
    -1.0052  -0.8987  -0.6934  -0.5922  -0.4413  -0.4382  -0.3313  -0.2070
    -0.1605  -0.0608   0.0030   0.1829   0.2852   0.2994   0.4432   0.4982
     0.5879   0.7454   0.7600   0.9402   0.9762   1.1130   1.1551   1.2553
     1.3202   1.4333   1.5397   1.6183   1.6645   1.7945   1.9282   2.4393
     2.4846   3.1178   3.9687   4.1887   4.8483   5.0334

          k = 0.0765 0.0432 0.0000 ( 30041 PWs)   bands (ev):

   -71.9761 -71.9641 -71.5739 -71.5617 -71.4469 -71.4346 -42.1051 -42.0918
   -41.9067 -41.9042 -41.8920 -41.7881 -41.6199 -41.5427 -41.5215 -41.5092
   -41.5012 -41.4408 -41.4289 -41.4239 -41.3888 -41.3766 -41.2978 -41.2860
    -4.3075  -3.9257  -3.5617  -3.5232  -3.5064  -3.4552  -3.3336  -3.2827
    -3.2186  -3.1659  -3.1514  -3.0712  -2.8523  -2.6378  -2.6361  -2.5338
    -2.3747  -2.2752  -2.1966  -2.1816  -2.0209  -1.9734  -1.7348  -1.7090
    -1.6126  -1.5156  -1.4843  -1.4712  -1.4629  -1.2637  -1.2074  -1.1277
    -1.1256  -0.9315  -0.8700  -0.8591  -0.7484  -0.6464  -0.5889  -0.4889
    -0.3182  -0.2779  -0.1382   0.0094   0.1110   0.1443   0.2053   0.3852
     0.4759   0.5069   0.5774   0.5872   0.6602   0.7334   0.7857   0.8754
     1.1270   1.2233   1.3185   1.4909   1.6278   1.6350   1.8915   1.9445
     3.1276   4.0517   4.0963   4.1573   4.9371   4.9846

          k = 0.0765 0.0605 0.0000 ( 30007 PWs)   bands (ev):

   -71.9761 -71.9641 -71.5738 -71.5617 -71.4469 -71.4346 -42.1053 -42.0918
   -41.9069 -41.9046 -41.8919 -41.7880 -41.6201 -41.5429 -41.5217 -41.5092
   -41.5012 -41.4408 -41.4289 -41.4238 -41.3891 -41.3766 -41.2979 -41.2860
    -4.1216  -3.9175  -3.4935  -3.4603  -3.4377  -3.3998  -3.2783  -3.2151
    -3.1455  -3.1033  -3.0210  -3.0014  -2.7318  -2.6797  -2.6522  -2.5710
    -2.4075  -2.3242  -2.1454  -2.1127  -2.0698  -2.0413  -1.7443  -1.7317
    -1.5826  -1.5689  -1.5317  -1.5047  -1.4879  -1.2488  -1.2068  -1.2023
    -1.0996  -1.0623  -0.9251  -0.9190  -0.8269  -0.7650  -0.6501  -0.5077
    -0.4836  -0.3957  -0.3494   0.0895   0.1360   0.2190   0.2963   0.2995
     0.4427   0.4788   0.5301   0.5886   0.6020   0.7238   0.7831   0.8291
     1.1116   1.1737   1.3712   1.4722   1.5989   1.6009   1.8153   1.9514
     3.2890   3.4329   3.8909   4.0551   4.9937   5.4657

          k = 0.0765 0.0777 0.0000 ( 30026 PWs)   bands (ev):

   -71.9761 -71.9641 -71.5738 -71.5617 -71.4468 -71.4346 -42.1054 -42.0918
   -41.9071 -41.9049 -41.8918 -41.7879 -41.6202 -41.5430 -41.5219 -41.5092
   -41.5011 -41.4408 -41.4289 -41.4237 -41.3893 -41.3766 -41.2979 -41.2860
    -3.8914  -3.8832  -3.3885  -3.3820  -3.3505  -3.3349  -3.2689  -3.1254
    -3.0894  -3.0865  -3.0189  -2.8754  -2.7476  -2.7453  -2.5386  -2.5348
    -2.4983  -2.4212  -2.1504  -2.1171  -2.0881  -1.9387  -1.8301  -1.7379
    -1.6627  -1.6456  -1.6303  -1.5090  -1.4950  -1.3786  -1.2409  -1.2307
    -1.2022  -1.1009  -1.0295  -0.9800  -0.9161  -0.8493  -0.6495  -0.6417
    -0.5724  -0.4265  -0.2252   0.0413   0.1325   0.2392   0.2835   0.3945
     0.4181   0.5183   0.6048   0.6093   0.7146   0.7357   0.8386   0.9687
     1.1092   1.1139   1.4221   1.4782   1.5227   1.5517   1.7457   1.9331
     2.5842   3.2031   3.7432   3.8135   5.4261   5.8922

          k = 0.0765 0.0950 0.0000 ( 30065 PWs)   bands (ev):

   -71.9761 -71.9641 -71.5738 -71.5617 -71.4468 -71.4346 -42.1055 -42.0917
   -41.9072 -41.9051 -41.8917 -41.7879 -41.6203 -41.5431 -41.5221 -41.5092
   -41.5011 -41.4408 -41.4289 -41.4237 -41.3894 -41.3766 -41.2979 -41.2860
    -3.8528  -3.6449  -3.4354  -3.3128  -3.2987  -3.2010  -3.1951  -3.1357
    -3.0984  -3.0812  -3.0350  -2.8865  -2.7951  -2.7826  -2.6276  -2.5058
    -2.3487  -2.3219  -2.1866  -2.1171  -2.1133  -1.9347  -1.8949  -1.8080
    -1.7257  -1.7219  -1.6953  -1.5704  -1.5095  -1.4271  -1.3144  -1.2541
    -1.2468  -1.1510  -1.0747  -0.9705  -0.9274  -0.8988  -0.7163  -0.6498
    -0.6474  -0.3924  -0.0393   0.0405   0.0942   0.1813   0.3135   0.3321
     0.4281   0.5282   0.6187   0.7418   0.7543   0.8371   0.9367   1.0651
     1.1482   1.2933   1.3901   1.4721   1.4752   1.5232   1.8340   1.9094
     2.0525   2.4923   3.6731   4.2387   4.8394   5.8218

          k = 0.0765 0.1123 0.0000 ( 30065 PWs)   bands (ev):

   -71.9761 -71.9641 -71.5738 -71.5617 -71.4468 -71.4346 -42.1055 -42.0917
   -41.9072 -41.9051 -41.8917 -41.7879 -41.6203 -41.5431 -41.5221 -41.5092
   -41.5011 -41.4408 -41.4289 -41.4237 -41.3894 -41.3766 -41.2979 -41.2860
    -3.8528  -3.6449  -3.4354  -3.3128  -3.2987  -3.2010  -3.1951  -3.1357
    -3.0984  -3.0812  -3.0350  -2.8865  -2.7951  -2.7826  -2.6276  -2.5058
    -2.3487  -2.3219  -2.1866  -2.1171  -2.1133  -1.9347  -1.8949  -1.8080
    -1.7257  -1.7219  -1.6953  -1.5704  -1.5095  -1.4271  -1.3144  -1.2541
    -1.2468  -1.1510  -1.0747  -0.9705  -0.9274  -0.8988  -0.7163  -0.6498
    -0.6474  -0.3924  -0.0393   0.0405   0.0942   0.1813   0.3135   0.3321
     0.4281   0.5282   0.6187   0.7418   0.7543   0.8371   0.9367   1.0651
     1.1482   1.2933   1.3901   1.4721   1.4752   1.5232   1.8340   1.9094
     2.0524   2.4923   3.6731   4.2387   4.8394   5.8218

          k = 0.0765 0.1295 0.0000 ( 30026 PWs)   bands (ev):

   -71.9761 -71.9641 -71.5738 -71.5617 -71.4468 -71.4346 -42.1054 -42.0918
   -41.9071 -41.9049 -41.8918 -41.7879 -41.6202 -41.5430 -41.5219 -41.5092
   -41.5011 -41.4408 -41.4289 -41.4237 -41.3893 -41.3766 -41.2979 -41.2860
    -3.8914  -3.8832  -3.3885  -3.3820  -3.3505  -3.3349  -3.2689  -3.1254
    -3.0894  -3.0865  -3.0189  -2.8754  -2.7476  -2.7453  -2.5386  -2.5348
    -2.4983  -2.4212  -2.1504  -2.1171  -2.0881  -1.9387  -1.8301  -1.7379
    -1.6627  -1.6456  -1.6303  -1.5090  -1.4950  -1.3786  -1.2409  -1.2307
    -1.2022  -1.1009  -1.0295  -0.9800  -0.9161  -0.8493  -0.6495  -0.6417
    -0.5724  -0.4265  -0.2252   0.0413   0.1325   0.2392   0.2835   0.3945
     0.4181   0.5183   0.6048   0.6093   0.7146   0.7357   0.8386   0.9687
     1.1092   1.1139   1.4221   1.4782   1.5227   1.5517   1.7457   1.9331
     2.5842   3.2031   3.7432   3.8135   5.4261   5.8922

          k = 0.0765-0.0605 0.0000 ( 30007 PWs)   bands (ev):

   -71.9761 -71.9641 -71.5738 -71.5617 -71.4469 -71.4346 -42.1053 -42.0918
   -41.9069 -41.9046 -41.8919 -41.7880 -41.6201 -41.5429 -41.5217 -41.5092
   -41.5012 -41.4408 -41.4289 -41.4238 -41.3891 -41.3766 -41.2979 -41.2860
    -4.1216  -3.9175  -3.4935  -3.4603  -3.4377  -3.3998  -3.2783  -3.2151
    -3.1455  -3.1033  -3.0210  -3.0014  -2.7318  -2.6797  -2.6522  -2.5710
    -2.4075  -2.3242  -2.1454  -2.1127  -2.0698  -2.0413  -1.7443  -1.7317
    -1.5826  -1.5689  -1.5317  -1.5047  -1.4879  -1.2488  -1.2068  -1.2023
    -1.0996  -1.0623  -0.9251  -0.9190  -0.8269  -0.7650  -0.6501  -0.5077
    -0.4836  -0.3957  -0.3494   0.0895   0.1360   0.2190   0.2963   0.2995
     0.4427   0.4788   0.5301   0.5886   0.6020   0.7238   0.7831   0.8291
     1.1116   1.1737   1.3712   1.4722   1.5989   1.6009   1.8153   1.9514
     3.2890   3.4329   3.8909   4.0551   4.9937   5.4657

          k = 0.0765-0.0432 0.0000 ( 30041 PWs)   bands (ev):

   -71.9761 -71.9641 -71.5739 -71.5617 -71.4469 -71.4346 -42.1051 -42.0918
   -41.9067 -41.9042 -41.8920 -41.7881 -41.6199 -41.5427 -41.5215 -41.5092
   -41.5012 -41.4408 -41.4289 -41.4239 -41.3888 -41.3766 -41.2978 -41.2860
    -4.3075  -3.9257  -3.5617  -3.5232  -3.5064  -3.4552  -3.3336  -3.2827
    -3.2186  -3.1659  -3.1514  -3.0712  -2.8523  -2.6378  -2.6361  -2.5338
    -2.3747  -2.2752  -2.1966  -2.1816  -2.0209  -1.9734  -1.7348  -1.7090
    -1.6126  -1.5156  -1.4843  -1.4712  -1.4629  -1.2637  -1.2074  -1.1277
    -1.1256  -0.9315  -0.8700  -0.8591  -0.7484  -0.6464  -0.5889  -0.4889
    -0.3182  -0.2779  -0.1382   0.0094   0.1110   0.1443   0.2053   0.3852
     0.4759   0.5069   0.5774   0.5872   0.6602   0.7334   0.7857   0.8754
     1.1270   1.2233   1.3185   1.4909   1.6278   1.6350   1.8915   1.9445
     3.1276   4.0517   4.0963   4.1573   4.9371   4.9846

          k = 0.0765-0.0259 0.0000 ( 30055 PWs)   bands (ev):

   -71.9762 -71.9641 -71.5739 -71.5617 -71.4469 -71.4346 -42.1049 -42.0918
   -41.9065 -41.9039 -41.8921 -41.7882 -41.6198 -41.5425 -41.5213 -41.5092
   -41.5013 -41.4408 -41.4289 -41.4240 -41.3886 -41.3766 -41.2978 -41.2860
    -4.4361  -3.8896  -3.5795  -3.5681  -3.5590  -3.4804  -3.4526  -3.3292
    -3.2913  -3.2835  -3.1861  -3.1268  -2.9001  -2.6823  -2.6651  -2.4970
    -2.3706  -2.3042  -2.2030  -2.1478  -2.0398  -1.8991  -1.7409  -1.7258
    -1.6823  -1.4831  -1.4533  -1.4475  -1.4220  -1.2716  -1.2608  -1.1437
    -1.1415  -0.9587  -0.8553  -0.7692  -0.6942  -0.5430  -0.3778  -0.3424
    -0.2422  -0.1212  -0.1134   0.0053   0.0987   0.1477   0.1785   0.4488
     0.4777   0.4834   0.5662   0.6302   0.8202   0.8315   0.9852   1.1165
     1.1541   1.2549   1.2961   1.5442   1.6175   1.6291   1.9129   2.0066
     2.9192   3.2251   4.0214   4.4791   4.7999   4.9773

          k = 0.0765-0.0086 0.0000 ( 30083 PWs)   bands (ev):

   -71.9762 -71.9641 -71.5739 -71.5617 -71.4469 -71.4346 -42.1048 -42.0919
   -41.9064 -41.9037 -41.8922 -41.7883 -41.6197 -41.5424 -41.5212 -41.5091
   -41.5014 -41.4408 -41.4289 -41.4240 -41.3885 -41.3766 -41.2977 -41.2860
    -4.5016  -3.8053  -3.6787  -3.5935  -3.5417  -3.5014  -3.4803  -3.4109
    -3.3610  -3.3021  -3.2059  -3.1531  -2.8739  -2.7680  -2.7217  -2.4913
    -2.3673  -2.2655  -2.1580  -2.1552  -2.0630  -1.9252  -1.7792  -1.7080
    -1.7074  -1.4930  -1.4461  -1.4091  -1.3856  -1.3064  -1.2702  -1.1752
    -1.1335  -1.0510  -0.8116  -0.7062  -0.6336  -0.4773  -0.2687  -0.2273
    -0.1945  -0.1377  -0.0582   0.0356   0.0956   0.1944   0.2040   0.3415
     0.4076   0.5021   0.5650   0.7347   0.9135   1.0449   1.0583   1.1138
     1.2367   1.3182   1.4677   1.5863   1.5913   1.7551   1.9001   2.3416
     2.5198   2.8131   3.1703   4.6724   4.9019   5.5000

          k = 0.0765 0.0086 0.0000 ( 30083 PWs)   bands (ev):

   -71.9762 -71.9641 -71.5739 -71.5617 -71.4469 -71.4346 -42.1048 -42.0919
   -41.9064 -41.9037 -41.8922 -41.7883 -41.6197 -41.5424 -41.5212 -41.5091
   -41.5014 -41.4408 -41.4289 -41.4240 -41.3885 -41.3766 -41.2977 -41.2860
    -4.5016  -3.8053  -3.6787  -3.5935  -3.5417  -3.5014  -3.4803  -3.4109
    -3.3610  -3.3021  -3.2059  -3.1531  -2.8739  -2.7680  -2.7217  -2.4913
    -2.3673  -2.2655  -2.1580  -2.1552  -2.0630  -1.9252  -1.7792  -1.7080
    -1.7074  -1.4930  -1.4461  -1.4091  -1.3856  -1.3064  -1.2702  -1.1752
    -1.1335  -1.0510  -0.8116  -0.7062  -0.6336  -0.4773  -0.2687  -0.2273
    -0.1945  -0.1377  -0.0582   0.0356   0.0956   0.1944   0.2040   0.3415
     0.4076   0.5021   0.5650   0.7347   0.9135   1.0449   1.0583   1.1138
     1.2367   1.3182   1.4677   1.5863   1.5913   1.7551   1.9001   2.3416
     2.5198   2.8131   3.1703   4.6724   4.9019   5.5000

          k = 0.0765 0.0259 0.0000 ( 30055 PWs)   bands (ev):

   -71.9762 -71.9641 -71.5739 -71.5617 -71.4469 -71.4346 -42.1049 -42.0918
   -41.9065 -41.9039 -41.8921 -41.7882 -41.6198 -41.5425 -41.5213 -41.5092
   -41.5013 -41.4408 -41.4289 -41.4240 -41.3886 -41.3766 -41.2978 -41.2860
    -4.4361  -3.8896  -3.5795  -3.5681  -3.5590  -3.4804  -3.4526  -3.3292
    -3.2913  -3.2835  -3.1861  -3.1268  -2.9001  -2.6823  -2.6651  -2.4970
    -2.3706  -2.3042  -2.2030  -2.1478  -2.0398  -1.8991  -1.7409  -1.7258
    -1.6823  -1.4832  -1.4533  -1.4475  -1.4220  -1.2716  -1.2608  -1.1437
    -1.1415  -0.9587  -0.8553  -0.7692  -0.6942  -0.5430  -0.3778  -0.3424
    -0.2422  -0.1212  -0.1134   0.0053   0.0987   0.1477   0.1785   0.4488
     0.4777   0.4834   0.5662   0.6302   0.8202   0.8315   0.9852   1.1165
     1.1541   1.2549   1.2961   1.5442   1.6175   1.6291   1.9129   2.0066
     2.9192   3.2251   4.0214   4.4791   4.7999   4.9773

          k =-0.0918-0.0518 0.0000 ( 30050 PWs)   bands (ev):

   -71.9702 -71.9700 -71.5679 -71.5676 -71.4409 -71.4406 -42.0987 -42.0983
   -41.8983 -41.8980 -41.8478 -41.8474 -41.5609 -41.5607 -41.5155 -41.5153
   -41.4837 -41.4834 -41.4349 -41.4347 -41.3829 -41.3827 -41.2921 -41.2918
    -4.0370  -4.0369  -3.4951  -3.4948  -3.4197  -3.4197  -3.2140  -3.2139
    -3.1271  -3.1270  -2.9995  -2.9995  -2.6829  -2.6828  -2.6414  -2.6412
    -2.3729  -2.3727  -2.0998  -2.0997  -2.0496  -2.0494  -1.7186  -1.7185
    -1.5609  -1.5604  -1.4775  -1.4773  -1.3652  -1.3651  -1.2122  -1.2120
    -1.1219  -1.1215  -0.9737  -0.9737  -0.7620  -0.7619  -0.5227  -0.5220
    -0.4109  -0.4107  -0.0755  -0.0754   0.2256   0.2257   0.2734   0.2737
     0.3398   0.3400   0.5129   0.5132   0.5798   0.5801   0.7331   0.7333
     1.1948   1.1949   1.3080   1.3084   1.6269   1.6272   1.9006   1.9012
     3.6100   3.6101   4.1163   4.1167   4.9958   4.9960

          k =-0.0918-0.0345 0.0000 ( 30053 PWs)   bands (ev):

   -71.9702 -71.9700 -71.5679 -71.5676 -71.4409 -71.4406 -42.0987 -42.0983
   -41.8985 -41.8979 -41.8478 -41.8474 -41.5610 -41.5607 -41.5155 -41.5152
   -41.4837 -41.4833 -41.4349 -41.4347 -41.3830 -41.3826 -41.2921 -41.2918
    -4.1158  -3.9184  -3.4911  -3.4664  -3.4234  -3.3961  -3.2602  -3.1931
    -3.1790  -3.0933  -3.0768  -2.9572  -2.7268  -2.6872  -2.6253  -2.5880
    -2.4425  -2.3069  -2.1907  -2.0687  -2.0665  -1.9916  -1.7742  -1.6842
    -1.6078  -1.5630  -1.4882  -1.4485  -1.4478  -1.3377  -1.3010  -1.2292
    -1.1562  -1.0995  -1.0155  -0.9284  -0.8528  -0.6270  -0.5381  -0.4894
    -0.4568  -0.2753  -0.0742  -0.0510   0.1725   0.2162   0.2350   0.2429
     0.3127   0.4481   0.5236   0.5693   0.6304   0.6862   0.7314   0.8948
     1.1468   1.1872   1.2916   1.3912   1.6028   1.6109   1.8534   1.9166
     3.2859   3.3883   3.9045   4.0930   4.9949   5.4655

          k =-0.0918-0.0173 0.0000 ( 30081 PWs)   bands (ev):

   -71.9702 -71.9700 -71.5679 -71.5676 -71.4409 -71.4406 -42.0988 -42.0982
   -41.8987 -41.8977 -41.8479 -41.8473 -41.5611 -41.5606 -41.5156 -41.5152
   -41.4838 -41.4832 -41.4349 -41.4347 -41.3830 -41.3826 -41.2921 -41.2918
    -4.1589  -3.7634  -3.4538  -3.4487  -3.4399  -3.3338  -3.3297  -3.2632
    -3.1991  -3.1357  -3.0558  -2.9493  -2.7581  -2.7042  -2.6072  -2.6067
    -2.3573  -2.3426  -2.2230  -2.1004  -2.0535  -1.9353  -1.8197  -1.7596
    -1.6805  -1.5691  -1.5550  -1.4397  -1.4148  -1.3938  -1.3375  -1.2747
    -1.1937  -1.1830  -0.9874  -0.9462  -0.8093  -0.5895  -0.5343  -0.4758
    -0.3529  -0.1785  -0.0396   0.0279   0.1313   0.1637   0.1932   0.2388
     0.3158   0.4236   0.4894   0.6280   0.7879   0.8115   0.9439   1.0694
     1.1765   1.2844   1.3147   1.4667   1.5075   1.5715   1.8942   1.9471
     2.5462   3.2020   3.2556   4.3376   5.2811   5.4672

          k =-0.0918 0.0000 0.0000 ( 30076 PWs)   bands (ev):

   -71.9702 -71.9700 -71.5679 -71.5676 -71.4409 -71.4406 -42.0988 -42.0982
   -41.8987 -41.8977 -41.8480 -41.8473 -41.5611 -41.5606 -41.5156 -41.5152
   -41.4838 -41.4832 -41.4349 -41.4347 -41.3831 -41.3825 -41.2921 -41.2918
    -4.1724  -3.5991  -3.5749  -3.4462  -3.4099  -3.3400  -3.3072  -3.2778
    -3.2519  -3.1219  -3.0479  -2.9523  -2.8098  -2.6615  -2.6278  -2.6127
    -2.3922  -2.2620  -2.2076  -2.1307  -2.0044  -1.9973  -1.8343  -1.8339
    -1.6910  -1.5956  -1.5427  -1.4748  -1.4008  -1.3624  -1.3368  -1.3022
    -1.2423  -1.2157  -0.9967  -0.9183  -0.7925  -0.5886  -0.5353  -0.4544
    -0.3130  -0.1429  -0.0043   0.1075   0.1165   0.1372   0.1472   0.2460
     0.3068   0.3964   0.4625   0.6666   0.8203   0.9464   1.0205   1.0307
     1.2187   1.3287   1.3735   1.4684   1.5479   1.8090   1.8773   1.8830
     2.3975   2.5545   3.2124   4.7279   4.9730   5.2229

          k =-0.0918 0.0173 0.0000 ( 30081 PWs)   bands (ev):

   -71.9702 -71.9700 -71.5679 -71.5676 -71.4409 -71.4406 -42.0988 -42.0982
   -41.8987 -41.8977 -41.8479 -41.8473 -41.5611 -41.5606 -41.5156 -41.5152
   -41.4838 -41.4832 -41.4349 -41.4347 -41.3830 -41.3826 -41.2921 -41.2918
    -4.1589  -3.7634  -3.4538  -3.4487  -3.4399  -3.3338  -3.3297  -3.2632
    -3.1991  -3.1357  -3.0558  -2.9493  -2.7581  -2.7042  -2.6072  -2.6067
    -2.3573  -2.3426  -2.2230  -2.1004  -2.0535  -1.9353  -1.8197  -1.7596
    -1.6805  -1.5691  -1.5550  -1.4397  -1.4148  -1.3938  -1.3375  -1.2747
    -1.1937  -1.1830  -0.9874  -0.9462  -0.8093  -0.5895  -0.5343  -0.4758
    -0.3529  -0.1785  -0.0396   0.0279   0.1313   0.1637   0.1932   0.2388
     0.3158   0.4236   0.4894   0.6280   0.7879   0.8115   0.9439   1.0694
     1.1765   1.2844   1.3147   1.4667   1.5075   1.5715   1.8942   1.9471
     2.5462   3.2020   3.2556   4.3376   5.2811   5.4672

          k =-0.0918 0.0345 0.0000 ( 30053 PWs)   bands (ev):

   -71.9702 -71.9700 -71.5679 -71.5676 -71.4409 -71.4406 -42.0987 -42.0983
   -41.8985 -41.8979 -41.8478 -41.8474 -41.5610 -41.5607 -41.5155 -41.5152
   -41.4837 -41.4833 -41.4349 -41.4347 -41.3830 -41.3826 -41.2921 -41.2918
    -4.1158  -3.9184  -3.4911  -3.4664  -3.4234  -3.3961  -3.2602  -3.1931
    -3.1790  -3.0933  -3.0768  -2.9572  -2.7268  -2.6872  -2.6253  -2.5880
    -2.4425  -2.3069  -2.1907  -2.0687  -2.0665  -1.9916  -1.7742  -1.6842
    -1.6078  -1.5630  -1.4882  -1.4485  -1.4478  -1.3377  -1.3010  -1.2292
    -1.1562  -1.0995  -1.0155  -0.9284  -0.8528  -0.6270  -0.5381  -0.4894
    -0.4568  -0.2753  -0.0742  -0.0510   0.1725   0.2162   0.2350   0.2429
     0.3127   0.4481   0.5236   0.5693   0.6304   0.6862   0.7314   0.8948
     1.1468   1.1872   1.2916   1.3912   1.6028   1.6109   1.8534   1.9166
     3.2859   3.3883   3.9045   4.0930   4.9949   5.4655

          k =-0.0918-0.1554 0.0000 ( 30050 PWs)   bands (ev):

   -71.9702 -71.9700 -71.5679 -71.5676 -71.4409 -71.4406 -42.0987 -42.0983
   -41.8983 -41.8980 -41.8478 -41.8474 -41.5609 -41.5607 -41.5155 -41.5153
   -41.4837 -41.4834 -41.4349 -41.4347 -41.3829 -41.3827 -41.2921 -41.2918
    -4.0370  -4.0369  -3.4951  -3.4948  -3.4197  -3.4197  -3.2140  -3.2139
    -3.1271  -3.1270  -2.9995  -2.9995  -2.6829  -2.6828  -2.6414  -2.6412
    -2.3729  -2.3727  -2.0998  -2.0997  -2.0496  -2.0494  -1.7186  -1.7185
    -1.5609  -1.5604  -1.4775  -1.4773  -1.3652  -1.3651  -1.2122  -1.2120
    -1.1219  -1.1215  -0.9737  -0.9737  -0.7620  -0.7619  -0.5227  -0.5220
    -0.4109  -0.4107  -0.0755  -0.0754   0.2256   0.2257   0.2734   0.2737
     0.3398   0.3400   0.5129   0.5132   0.5798   0.5801   0.7331   0.7333
     1.1948   1.1949   1.3080   1.3084   1.6269   1.6272   1.9006   1.9012
     3.6100   3.6101   4.1164   4.1167   4.9958   4.9960

     the Fermi energy is     1.1011 ev

!    total energy              =   -1599.11949973 Ry
     estimated scf accuracy    <       0.00000464 Ry
     smearing contrib. (-TS)   =      -0.08567238 Ry
     internal energy E=F+TS    =   -1599.03382736 Ry

     The total energy is F=E-TS. E is the sum of the following terms:
     one-electron contribution =  -13960.51644844 Ry
     hartree contribution      =    7020.20638524 Ry
     xc contribution           =    -314.37993889 Ry
     ewald contribution        =    5655.65617426 Ry
     electric field correction =       0.00000047 Ry

     convergence has been achieved in  16 iterations

     negative rho (up, down):  1.563E-03 0.000E+00

     Forces acting on atoms (cartesian axes, Ry/au):

     atom    1 type  1   force =     0.00000123    0.01433408    0.02410592
     atom    2 type  1   force =    -0.00000183    0.01439410    0.02409850
     atom    3 type  2   force =    -0.00002554   -0.01436314   -0.01038502
     atom    4 type  2   force =     0.00002574   -0.01436404   -0.01038468
     atom    5 type  1   force =    -0.00000298   -0.00824534   -0.00124614
     atom    6 type  1   force =     0.00000197   -0.00832760   -0.00130169
     atom    7 type  2   force =    -0.00000847    0.00866465   -0.01471134
     atom    8 type  2   force =     0.00000949    0.00866567   -0.01471196
     atom    9 type  1   force =     0.00000243   -0.00008233   -0.00089668
     atom   10 type  1   force =    -0.00000263   -0.00026878   -0.00114589
     atom   11 type  2   force =     0.00004270   -0.00020341    0.00328971
     atom   12 type  2   force =    -0.00004210   -0.00020387    0.00328927

     Total force =     0.054317     Total SCF correction =     0.014652
     SCF correction compared to forces is large: reduce conv_thr to get better values

     Writing output data file ./Ru2Pd2/Ru2Pd2_beef.save/

     init_run     :     78.79s CPU     79.31s WALL (       1 calls)
     electrons    :   2663.49s CPU   2677.82s WALL (       1 calls)
     forces       :     54.83s CPU     55.09s WALL (       1 calls)

     Called by init_run:
     wfcinit      :     67.76s CPU     68.05s WALL (       1 calls)
     potinit      :      7.63s CPU      7.72s WALL (       1 calls)
     hinit0       :      1.88s CPU      1.89s WALL (       1 calls)

     Called by electrons:
     c_bands      :   2323.48s CPU   2331.56s WALL (      16 calls)
     sum_band     :    309.13s CPU    312.40s WALL (      16 calls)
     v_of_rho     :     22.12s CPU     23.21s WALL (      17 calls)
     newd         :     15.35s CPU     17.29s WALL (      17 calls)
     mix_rho      :      0.59s CPU      0.61s WALL (      16 calls)
     vdW_kernel   :      5.71s CPU      5.72s WALL (       1 calls)

     Called by c_bands:
     init_us_2    :     10.77s CPU     10.85s WALL (    2516 calls)
     cegterg      :   2298.13s CPU   2304.87s WALL (    1184 calls)

     Called by *egterg:
     cdiaghg      :     95.31s CPU     95.37s WALL (    4078 calls)
     h_psi        :   1227.55s CPU   1233.68s WALL (    4152 calls)
     s_psi        :    406.17s CPU    406.25s WALL (    4152 calls)
     g_psi        :      0.86s CPU      0.87s WALL (    2894 calls)

     Called by h_psi:
     h_psi:calbec :    415.57s CPU    416.19s WALL (    4152 calls)
     vloc_psi     :    386.52s CPU    391.90s WALL (    4152 calls)
     add_vuspsi   :    420.74s CPU    420.84s WALL (    4152 calls)

     General routines
     calbec       :    652.83s CPU    653.84s WALL (    5632 calls)
     fft          :     11.85s CPU     12.25s WALL (    1130 calls)
     ffts         :      0.07s CPU      0.07s WALL (      33 calls)
     fftw         :    453.49s CPU    459.83s WALL (  598932 calls)
     interpolate  :      0.21s CPU      0.22s WALL (      17 calls)

     Parallel routines
     fft_scatt_xy :     35.90s CPU     36.33s WALL (  600095 calls)
     fft_scatt_yz :     98.24s CPU     99.79s WALL (  600095 calls)

     PWSCF        :  46m45.78s CPU  47m15.49s WALL


   This run was terminated on:  16:10: 5  24Jun2022            

=------------------------------------------------------------------------------=
   JOB DONE.
=------------------------------------------------------------------------------=
