
     Program PWSCF v.6.6 starts on 25Jun2022 at 18:36: 8 

     This program is part of the open-source Quantum ESPRESSO suite
     for quantum simulation of materials; please cite
         "P. Giannozzi et al., J. Phys.:Condens. Matter 21 395502 (2009);
         "P. Giannozzi et al., J. Phys.:Condens. Matter 29 465901 (2017);
          URL http://www.quantum-espresso.org", 
     in publications or presentations arising from this work. More details at
     http://www.quantum-espresso.org/quote

     Parallel version (MPI), running on    37 processors

     MPI processes distributed on     1 nodes
     R & G space division:  proc/nbgrp/npool/nimage =      37
     Fft bands division:     nmany     =       1
     Reading input from Ru2Ta2.in
Warning: card &CELL ignored
Warning: card / ignored

     Current dimensions of program PWSCF are:
     Max number of different atomic species (ntypx) = 10
     Max number of k-points (npk) =  40000
     Max angular momentum in pseudopotentials (lmaxx) =  3
     Presently stress not available with electric field and gates

     Message from routine cell_base_init:
     DEPRECATED: use true lattice parameter, not A to a.u. conversion factor
     file Ta.pbe-spfn-rrkjus_psl.1.0.0.UPF: wavefunction(s)  5S 5P renormalized

     **************************************************************************
     Initializing libbeef V0.1.2 with the BEEF-vdW functional.
     Citation: Wellendorff et al., PRB 85, 235149 (2012).
     **************************************************************************


     IMPORTANT: XC functional enforced from input :
     Exchange-correlation= BEEF-VDW
                           (   1   4  43  14   2   0   0)
     Any further DFT definition will be discarded
     Please, verify this is what you really want


     Subspace diagonalization in iterative solution of the eigenvalue problem:
     a serial algorithm will be used

     Found symmetry operation: I + ( -0.5000 -0.5000  0.0000)
     This is a supercell, fractional translations are disabled

     Parallelization info
     --------------------
     sticks:   dense  smooth     PW     G-vecs:    dense   smooth      PW
     Min         118      47     13                27492     6953    1051
     Max         119      48     14                27521     6972    1064
     Sum        4391    1763    503              1017765   257605   39131



     bravais-lattice index     =            0
     lattice parameter (alat)  =       1.8897  a.u.
     unit-cell volume          =    4658.1264 (a.u.)^3
     number of atoms/cell      =           12
     number of atomic types    =            2
     number of electrons       =       258.00
     number of Kohn-Sham states=          155
     kinetic-energy cutoff     =      55.1240  Ry
     charge density cutoff     =     551.2396  Ry
     convergence threshold     =      1.0E-05
     mixing beta               =       0.1000
     number of iterations used =           10  plain     mixing
     Exchange-correlation= BEEF-VDW
                           (   1   4  43  14   2   0   0)

     celldm(1)=   1.889726  celldm(2)=   0.000000  celldm(3)=   0.000000
     celldm(4)=   0.000000  celldm(5)=   0.000000  celldm(6)=   0.000000

     crystal axes: (cart. coord. in units of alat)
               a(1) = (   5.518912   0.000000   0.000000 )  
               a(2) = (   2.129220   5.091641   0.000000 )  
               a(3) = (   0.000000   0.000000  24.564250 )  

     reciprocal axes: (cart. coord. in units 2 pi/alat)
               b(1) = (  0.181195 -0.075772  0.000000 )  
               b(2) = (  0.000000  0.196400  0.000000 )  
               b(3) = (  0.000000  0.000000  0.040710 )  


     PseudoPot. # 1 for Ru read from file:
     ../pseudo/Ru.pbe-spn-rrkjus_psl.1.0.0.UPF
     MD5 check sum: fbaca725316a1a65f98761fd4ac95971
     Pseudo is Ultrasoft + core correction, Zval = 16.0
     Generated using "atomic" code by A. Dal Corso v.6.2.2
     Using radial grid of 1233 points,  6 beta functions with: 
                l(1) =   0
                l(2) =   0
                l(3) =   1
                l(4) =   1
                l(5) =   2
                l(6) =   2
     Q(r) pseudized with 0 coefficients 


     PseudoPot. # 2 for Ta read from file:
     ../pseudo/Ta.pbe-spfn-rrkjus_psl.1.0.0.UPF
     MD5 check sum: 39d7d349fe394e56adf8454eb9315fbb
     Pseudo is Ultrasoft + core correction, Zval = 27.0
     Generated using "atomic" code by A. Dal Corso v.6.3
     Using radial grid of 1273 points,  8 beta functions with: 
                l(1) =   0
                l(2) =   0
                l(3) =   1
                l(4) =   1
                l(5) =   2
                l(6) =   2
                l(7) =   3
                l(8) =   3
     Q(r) pseudized with 0 coefficients 


     atomic species   valence    mass     pseudopotential
        Ru            16.00   101.07000     Ru( 1.00)
        Ta            27.00   180.94788     Ta( 1.00)

     No symmetry found



   Cartesian axes

     site n.     atom                  positions (alat units)
         1           Ru  tau(   1) = (   0.0000000   0.0000000  10.0000000  )
         2           Ru  tau(   2) = (   3.8240662   2.5458207  10.0000000  )
         3           Ta  tau(   3) = (   2.7594561   0.0000000  10.0000000  )
         4           Ta  tau(   4) = (   1.0646101   2.5458207  10.0000000  )
         5           Ru  tau(   5) = (   5.5189121   3.6741416  12.2821251  )
         6           Ru  tau(   6) = (   1.6948459   1.1283209  12.2821251  )
         7           Ta  tau(   7) = (   2.7594561   3.6741416  12.2821251  )
         8           Ta  tau(   8) = (   4.4543020   1.1283209  12.2821251  )
         9           Ru  tau(   9) = (   3.6267156   2.4144356  14.3738670  )
        10           Ru  tau(  10) = (   7.4507824   4.9602589  14.3738656  )
        11           Ta  tau(  11) = (   6.3816326   2.4114143  14.5475929  )
        12           Ta  tau(  12) = (   4.6867883   4.9572371  14.5475933  )

     number of k points=    74  Fermi-Dirac smearing, width (Ry)=  0.0100
                       cart. coord. in units 2pi/alat
        k(    1) = (   0.0000000   0.0000000   0.0000000), wk =   0.0138889
        k(    2) = (   0.0000000   0.0163667   0.0000000), wk =   0.0277778
        k(    3) = (   0.0000000   0.0327334   0.0000000), wk =   0.0277778
        k(    4) = (   0.0000000   0.0491001   0.0000000), wk =   0.0277778
        k(    5) = (   0.0000000   0.0654668   0.0000000), wk =   0.0277778
        k(    6) = (   0.0000000   0.0818335   0.0000000), wk =   0.0277778
        k(    7) = (   0.0000000  -0.0982002   0.0000000), wk =   0.0138889
        k(    8) = (   0.0150996  -0.0063143   0.0000000), wk =   0.0277778
        k(    9) = (   0.0150996   0.0100524   0.0000000), wk =   0.0277778
        k(   10) = (   0.0150996   0.0264190   0.0000000), wk =   0.0277778
        k(   11) = (   0.0150996   0.0427857   0.0000000), wk =   0.0277778
        k(   12) = (   0.0150996   0.0591524   0.0000000), wk =   0.0277778
        k(   13) = (   0.0150996   0.0755191   0.0000000), wk =   0.0277778
        k(   14) = (   0.0150996  -0.1045145   0.0000000), wk =   0.0277778
        k(   15) = (   0.0150996  -0.0881478   0.0000000), wk =   0.0277778
        k(   16) = (   0.0150996  -0.0717811   0.0000000), wk =   0.0277778
        k(   17) = (   0.0150996  -0.0554144   0.0000000), wk =   0.0277778
        k(   18) = (   0.0150996  -0.0390477   0.0000000), wk =   0.0277778
        k(   19) = (   0.0150996  -0.0226810   0.0000000), wk =   0.0277778
        k(   20) = (   0.0301992  -0.0126287   0.0000000), wk =   0.0277778
        k(   21) = (   0.0301992   0.0037380   0.0000000), wk =   0.0277778
        k(   22) = (   0.0301992   0.0201047   0.0000000), wk =   0.0277778
        k(   23) = (   0.0301992   0.0364714   0.0000000), wk =   0.0277778
        k(   24) = (   0.0301992   0.0528381   0.0000000), wk =   0.0277778
        k(   25) = (   0.0301992   0.0692048   0.0000000), wk =   0.0277778
        k(   26) = (   0.0301992  -0.1108289   0.0000000), wk =   0.0277778
        k(   27) = (   0.0301992  -0.0944622   0.0000000), wk =   0.0277778
        k(   28) = (   0.0301992  -0.0780955   0.0000000), wk =   0.0277778
        k(   29) = (   0.0301992  -0.0617288   0.0000000), wk =   0.0277778
        k(   30) = (   0.0301992  -0.0453621   0.0000000), wk =   0.0277778
        k(   31) = (   0.0301992  -0.0289954   0.0000000), wk =   0.0277778
        k(   32) = (   0.0452988  -0.0189430   0.0000000), wk =   0.0277778
        k(   33) = (   0.0452988  -0.0025763   0.0000000), wk =   0.0277778
        k(   34) = (   0.0452988   0.0137904   0.0000000), wk =   0.0277778
        k(   35) = (   0.0452988   0.0301571   0.0000000), wk =   0.0277778
        k(   36) = (   0.0452988   0.0465238   0.0000000), wk =   0.0277778
        k(   37) = (   0.0452988   0.0628904   0.0000000), wk =   0.0277778
        k(   38) = (   0.0452988  -0.1171432   0.0000000), wk =   0.0277778
        k(   39) = (   0.0452988  -0.1007765   0.0000000), wk =   0.0277778
        k(   40) = (   0.0452988  -0.0844098   0.0000000), wk =   0.0277778
        k(   41) = (   0.0452988  -0.0680431   0.0000000), wk =   0.0277778
        k(   42) = (   0.0452988  -0.0516764   0.0000000), wk =   0.0277778
        k(   43) = (   0.0452988  -0.0353097   0.0000000), wk =   0.0277778
        k(   44) = (   0.0603984  -0.0252574   0.0000000), wk =   0.0277778
        k(   45) = (   0.0603984  -0.0088907   0.0000000), wk =   0.0277778
        k(   46) = (   0.0603984   0.0074760   0.0000000), wk =   0.0277778
        k(   47) = (   0.0603984   0.0238427   0.0000000), wk =   0.0277778
        k(   48) = (   0.0603984   0.0402094   0.0000000), wk =   0.0277778
        k(   49) = (   0.0603984   0.0565761   0.0000000), wk =   0.0277778
        k(   50) = (   0.0603984  -0.1234575   0.0000000), wk =   0.0277778
        k(   51) = (   0.0603984  -0.1070908   0.0000000), wk =   0.0277778
        k(   52) = (   0.0603984  -0.0907241   0.0000000), wk =   0.0277778
        k(   53) = (   0.0603984  -0.0743574   0.0000000), wk =   0.0277778
        k(   54) = (   0.0603984  -0.0579908   0.0000000), wk =   0.0277778
        k(   55) = (   0.0603984  -0.0416241   0.0000000), wk =   0.0277778
        k(   56) = (   0.0754980  -0.0315717   0.0000000), wk =   0.0277778
        k(   57) = (   0.0754980  -0.0152050   0.0000000), wk =   0.0277778
        k(   58) = (   0.0754980   0.0011617   0.0000000), wk =   0.0277778
        k(   59) = (   0.0754980   0.0175284   0.0000000), wk =   0.0277778
        k(   60) = (   0.0754980   0.0338951   0.0000000), wk =   0.0277778
        k(   61) = (   0.0754980   0.0502618   0.0000000), wk =   0.0277778
        k(   62) = (   0.0754980  -0.1297719   0.0000000), wk =   0.0277778
        k(   63) = (   0.0754980  -0.1134052   0.0000000), wk =   0.0277778
        k(   64) = (   0.0754980  -0.0970385   0.0000000), wk =   0.0277778
        k(   65) = (   0.0754980  -0.0806718   0.0000000), wk =   0.0277778
        k(   66) = (   0.0754980  -0.0643051   0.0000000), wk =   0.0277778
        k(   67) = (   0.0754980  -0.0479384   0.0000000), wk =   0.0277778
        k(   68) = (  -0.0905976   0.0378860   0.0000000), wk =   0.0138889
        k(   69) = (  -0.0905976   0.0542527   0.0000000), wk =   0.0277778
        k(   70) = (  -0.0905976   0.0706194   0.0000000), wk =   0.0277778
        k(   71) = (  -0.0905976   0.0869861   0.0000000), wk =   0.0277778
        k(   72) = (  -0.0905976   0.1033528   0.0000000), wk =   0.0277778
        k(   73) = (  -0.0905976   0.1197195   0.0000000), wk =   0.0277778
        k(   74) = (  -0.0905976  -0.0603141   0.0000000), wk =   0.0138889

     Dense  grid:  1017765 G-vectors     FFT dimensions: (  80,  80, 360)

     Smooth grid:   257605 G-vectors     FFT dimensions: (  50,  50, 225)

     Estimated max dynamical RAM per process >     425.36 MB

     Estimated total dynamical RAM >      15.37 GB

     Initial potential from superposition of free atoms

     starting charge  257.99111, renormalised to  258.00000

     negative rho (up, down):  1.347E-03 0.000E+00


     %%%%%%%%%%%%%%%%%%%%%%%%%%%%%%%%%%%%%%%%%%%%%%%%%%%%%%%%%%%%%%%%%%%%%%%%
     %                                                                      %
     % You are using vdW-DF, which was implemented by the Thonhauser group. %
     % Please cite the following two papers that made this development      %
     % possible and the two reviews that describe the various versions:     %
     %                                                                      %
     %   T. Thonhauser et al., PRL 115, 136402 (2015).                      %
     %   T. Thonhauser et al., PRB 76, 125112 (2007).                       %
     %   K. Berland et al., Rep. Prog. Phys. 78, 066501 (2015).             %
     %   D.C. Langreth et al., J. Phys.: Condens. Matter 21, 084203 (2009). %
     %                                                                      %
     %                                                                      %
     % If you are calculating the stress with vdW-DF, please also cite:     %
     %                                                                      %
     %   R. Sabatini et al., J. Phys.: Condens. Matter 24, 424209 (2012).   %
     %                                                                      %
     %%%%%%%%%%%%%%%%%%%%%%%%%%%%%%%%%%%%%%%%%%%%%%%%%%%%%%%%%%%%%%%%%%%%%%%%



     Adding external electric field

     Computed dipole along edir(3) : 
        Dipole               -0.0001 Ry au,         -0.0001 Debye
        Dipole field         -0.0000 Ry au, 

        Potential amp.        0.0000 Ry
        Total length         45.2592 bohr

     Starting wfcs are  162 randomized atomic wfcs

     total cpu time spent up to now is      247.5 secs

     Self-consistent Calculation

     iteration #  1     ecut=    55.12 Ry     beta= 0.10
     Davidson diagonalization with overlap
     ethr =  1.00E-02,  avg # of iterations =  2.9

     negative rho (up, down):  1.287E-03 0.000E+00

     Adding external electric field

     Computed dipole along edir(3) : 
        Dipole                0.1314 Ry au,          0.3341 Debye
        Dipole field          0.0004 Ry au, 

        Potential amp.       -0.0321 Ry
        Total length         45.2592 bohr


     total cpu time spent up to now is      686.1 secs

     total energy              =   -5279.91163696 Ry
     estimated scf accuracy    <      10.17331432 Ry

     iteration #  2     ecut=    55.12 Ry     beta= 0.10
     Davidson diagonalization with overlap
     ethr =  3.94E-03,  avg # of iterations =  1.9

     negative rho (up, down):  1.255E-03 0.000E+00

     Adding external electric field

     Computed dipole along edir(3) : 
        Dipole               -0.2793 Ry au,         -0.7100 Debye
        Dipole field         -0.0008 Ry au, 

        Potential amp.        0.0682 Ry
        Total length         45.2592 bohr


     total cpu time spent up to now is     1068.3 secs

     total energy              =   -5280.47501005 Ry
     estimated scf accuracy    <       1.45674118 Ry

     iteration #  3     ecut=    55.12 Ry     beta= 0.10
     Davidson diagonalization with overlap
     ethr =  5.65E-04,  avg # of iterations =  2.2

     negative rho (up, down):  1.255E-03 0.000E+00

     Adding external electric field

     Computed dipole along edir(3) : 
        Dipole                0.2659 Ry au,          0.6757 Debye
        Dipole field          0.0007 Ry au, 

        Potential amp.       -0.0649 Ry
        Total length         45.2592 bohr


     total cpu time spent up to now is     1574.1 secs

     total energy              =   -5280.41772450 Ry
     estimated scf accuracy    <       5.19217155 Ry

     iteration #  4     ecut=    55.12 Ry     beta= 0.10
     Davidson diagonalization with overlap
     ethr =  5.65E-04,  avg # of iterations =  1.6

     negative rho (up, down):  1.254E-03 0.000E+00

     Adding external electric field

     Computed dipole along edir(3) : 
        Dipole                0.0647 Ry au,          0.1644 Debye
        Dipole field          0.0002 Ry au, 

        Potential amp.       -0.0158 Ry
        Total length         45.2592 bohr


     total cpu time spent up to now is     2349.7 secs

     total energy              =   -5280.52740861 Ry
     estimated scf accuracy    <       1.95912240 Ry

     iteration #  5     ecut=    55.12 Ry     beta= 0.10
     Davidson diagonalization with overlap
     ethr =  5.65E-04,  avg # of iterations =  1.4

     negative rho (up, down):  1.269E-03 0.000E+00

     Adding external electric field

     Computed dipole along edir(3) : 
        Dipole                0.0581 Ry au,          0.1477 Debye
        Dipole field          0.0002 Ry au, 

        Potential amp.       -0.0142 Ry
        Total length         45.2592 bohr


     total cpu time spent up to now is     2673.5 secs

     total energy              =   -5280.51192309 Ry
     estimated scf accuracy    <       0.20334166 Ry

     iteration #  6     ecut=    55.12 Ry     beta= 0.10
     Davidson diagonalization with overlap
     ethr =  7.88E-05,  avg # of iterations =  5.7

     negative rho (up, down):  1.338E-03 0.000E+00

     Adding external electric field

     Computed dipole along edir(3) : 
        Dipole                0.0849 Ry au,          0.2157 Debye
        Dipole field          0.0002 Ry au, 

        Potential amp.       -0.0207 Ry
        Total length         45.2592 bohr


     total cpu time spent up to now is     3318.7 secs

     total energy              =   -5280.51850800 Ry
     estimated scf accuracy    <       0.06475043 Ry

     iteration #  7     ecut=    55.12 Ry     beta= 0.10
     Davidson diagonalization with overlap
     c_bands:  1 eigenvalues not converged
     c_bands:  1 eigenvalues not converged
     ethr =  2.51E-05,  avg # of iterations =  7.3

     negative rho (up, down):  1.333E-03 0.000E+00

     Adding external electric field

     Computed dipole along edir(3) : 
        Dipole                0.0727 Ry au,          0.1847 Debye
        Dipole field          0.0002 Ry au, 

        Potential amp.       -0.0177 Ry
        Total length         45.2592 bohr


     total cpu time spent up to now is     3764.6 secs

     total energy              =   -5280.52235481 Ry
     estimated scf accuracy    <       0.06684343 Ry

     iteration #  8     ecut=    55.12 Ry     beta= 0.10
     Davidson diagonalization with overlap
     ethr =  2.51E-05,  avg # of iterations =  1.1

     negative rho (up, down):  1.426E-03 0.000E+00

     Adding external electric field

     Computed dipole along edir(3) : 
        Dipole                0.0651 Ry au,          0.1656 Debye
        Dipole field          0.0002 Ry au, 

        Potential amp.       -0.0159 Ry
        Total length         45.2592 bohr


     total cpu time spent up to now is     4079.9 secs

     total energy              =   -5280.52509806 Ry
     estimated scf accuracy    <       0.01179351 Ry

     iteration #  9     ecut=    55.12 Ry     beta= 0.10
     Davidson diagonalization with overlap
     c_bands:  1 eigenvalues not converged
     c_bands:  1 eigenvalues not converged
     c_bands:  1 eigenvalues not converged
     ethr =  4.57E-06,  avg # of iterations =  5.1

     negative rho (up, down):  1.369E-03 0.000E+00

     Adding external electric field

     Computed dipole along edir(3) : 
        Dipole                0.0644 Ry au,          0.1638 Debye
        Dipole field          0.0002 Ry au, 

        Potential amp.       -0.0157 Ry
        Total length         45.2592 bohr


     total cpu time spent up to now is     4693.5 secs

     total energy              =   -5280.52536846 Ry
     estimated scf accuracy    <       0.00282819 Ry

     iteration # 10     ecut=    55.12 Ry     beta= 0.10
     Davidson diagonalization with overlap
     ethr =  1.10E-06,  avg # of iterations =  4.0

     negative rho (up, down):  1.420E-03 0.000E+00

     Adding external electric field

     Computed dipole along edir(3) : 
        Dipole                0.0676 Ry au,          0.1719 Debye
        Dipole field          0.0002 Ry au, 

        Potential amp.       -0.0165 Ry
        Total length         45.2592 bohr


     total cpu time spent up to now is     5305.4 secs

     total energy              =   -5280.52583718 Ry
     estimated scf accuracy    <       0.00214915 Ry

     iteration # 11     ecut=    55.12 Ry     beta= 0.10
     Davidson diagonalization with overlap
     ethr =  8.33E-07,  avg # of iterations =  2.6

     negative rho (up, down):  1.386E-03 0.000E+00

     Adding external electric field

     Computed dipole along edir(3) : 
        Dipole                0.0688 Ry au,          0.1748 Debye
        Dipole field          0.0002 Ry au, 

        Potential amp.       -0.0168 Ry
        Total length         45.2592 bohr


     total cpu time spent up to now is     6075.4 secs

     total energy              =   -5280.52604699 Ry
     estimated scf accuracy    <       0.00048131 Ry

     iteration # 12     ecut=    55.12 Ry     beta= 0.10
     Davidson diagonalization with overlap
     ethr =  1.87E-07,  avg # of iterations =  2.6

     negative rho (up, down):  1.358E-03 0.000E+00

     Adding external electric field

     Computed dipole along edir(3) : 
        Dipole                0.0678 Ry au,          0.1723 Debye
        Dipole field          0.0002 Ry au, 

        Potential amp.       -0.0165 Ry
        Total length         45.2592 bohr


     total cpu time spent up to now is     6634.8 secs

     total energy              =   -5280.52596647 Ry
     estimated scf accuracy    <       0.00088487 Ry

     iteration # 13     ecut=    55.12 Ry     beta= 0.10
     Davidson diagonalization with overlap
     ethr =  1.87E-07,  avg # of iterations =  2.0

     negative rho (up, down):  1.333E-03 0.000E+00

     Adding external electric field

     Computed dipole along edir(3) : 
        Dipole                0.0669 Ry au,          0.1700 Debye
        Dipole field          0.0002 Ry au, 

        Potential amp.       -0.0163 Ry
        Total length         45.2592 bohr


     total cpu time spent up to now is     7184.1 secs

     total energy              =   -5280.52604449 Ry
     estimated scf accuracy    <       0.00001918 Ry

     iteration # 14     ecut=    55.12 Ry     beta= 0.10
     Davidson diagonalization with overlap
     ethr =  7.44E-09,  avg # of iterations =  4.6

     negative rho (up, down):  1.308E-03 0.000E+00

     Adding external electric field

     Computed dipole along edir(3) : 
        Dipole                0.0666 Ry au,          0.1694 Debye
        Dipole field          0.0002 Ry au, 

        Potential amp.       -0.0163 Ry
        Total length         45.2592 bohr


     total cpu time spent up to now is     7858.2 secs

     total energy              =   -5280.52604549 Ry
     estimated scf accuracy    <       0.00001233 Ry

     iteration # 15     ecut=    55.12 Ry     beta= 0.10
     Davidson diagonalization with overlap
     ethr =  4.78E-09,  avg # of iterations =  2.0

     negative rho (up, down):  1.210E-03 0.000E+00

     Adding external electric field

     Computed dipole along edir(3) : 
        Dipole                0.0645 Ry au,          0.1640 Debye
        Dipole field          0.0002 Ry au, 

        Potential amp.       -0.0158 Ry
        Total length         45.2592 bohr


     total cpu time spent up to now is     8239.9 secs

     End of self-consistent calculation

          k = 0.0000 0.0000 0.0000 ( 32245 PWs)   bands (ev):

   -70.2929 -70.2809 -69.8065 -69.7941 -69.6338 -69.6222 -66.2222 -66.2036
   -66.1400 -66.1213 -66.0755 -66.0572 -40.3998 -40.2687 -40.2548 -40.2529
   -40.2376 -40.2356 -39.8734 -39.8329 -39.8114 -39.7680 -39.7505 -39.7096
   -39.7001 -39.6788 -39.6678 -39.5473 -39.5315 -39.5105 -32.6222 -32.5935
   -32.5543 -32.5441 -32.5271 -32.5121 -32.4653 -32.4374 -32.3923 -32.3608
   -32.3271 -32.3093 -32.3041 -32.2482 -32.2035 -32.1732 -32.1488 -32.0875
   -17.9260 -17.9235 -17.9230 -17.9224 -17.9027 -17.8891 -17.8817 -17.8707
   -17.8670 -17.8663 -17.8377 -17.8346 -17.8338 -17.8331 -17.8311 -17.8290
   -17.8225 -17.8140 -17.8133 -17.8087 -17.8026 -17.7911 -17.7888 -17.7868
   -17.7556 -17.7537 -17.7387 -17.7379 -17.7266 -17.7219 -17.7051 -17.7047
   -17.7014 -17.6939 -17.6939 -17.6889 -17.6881 -17.6878 -17.6794 -17.6772
   -17.6693 -17.6680  -4.7424  -2.9609  -2.6974  -2.4968  -2.3370  -2.3242
    -2.2367  -2.0980  -1.9271  -1.8858  -1.3808  -1.1666  -1.1112  -0.7792
    -0.7784  -0.4084  -0.3416  -0.2192  -0.1886   0.0993   0.1459   0.1712
     0.7070   0.8111   1.0447   1.0860   1.1773   1.5214   1.7646   1.8982
     2.0994   2.1061   2.1476   2.4786   3.1149   3.2668   3.3082   3.4054
     3.5853   3.6350   3.6916   3.7094   3.9131   3.9575   4.1569   4.3308
     4.3416   4.3895   4.4262   4.5134   4.5670   4.9275   5.0569   5.1907
     5.2918   5.4007   5.4185   5.7632   5.7655   6.1831   6.1875   6.7465
     6.7877   6.9985   7.1170

          k = 0.0000 0.0164 0.0000 ( 32253 PWs)   bands (ev):

   -70.2927 -70.2811 -69.8063 -69.7943 -69.6336 -69.6224 -66.2219 -66.2039
   -66.1397 -66.1216 -66.0752 -66.0575 -40.3969 -40.2684 -40.2541 -40.2530
   -40.2403 -40.2355 -39.8705 -39.8322 -39.8114 -39.7678 -39.7508 -39.7122
   -39.6993 -39.6788 -39.6649 -39.5471 -39.5317 -39.5130 -32.6220 -32.5943
   -32.5486 -32.5440 -32.5214 -32.5128 -32.4595 -32.4373 -32.3936 -32.3623
   -32.3306 -32.3080 -32.3041 -32.2475 -32.2042 -32.1805 -32.1559 -32.0946
   -17.9260 -17.9236 -17.9231 -17.9223 -17.9024 -17.8893 -17.8814 -17.8706
   -17.8673 -17.8664 -17.8377 -17.8346 -17.8338 -17.8331 -17.8308 -17.8288
   -17.8223 -17.8144 -17.8136 -17.8090 -17.8024 -17.7910 -17.7891 -17.7869
   -17.7554 -17.7535 -17.7392 -17.7382 -17.7262 -17.7217 -17.7054 -17.7051
   -17.7012 -17.6940 -17.6938 -17.6891 -17.6881 -17.6878 -17.6793 -17.6771
   -17.6695 -17.6683  -4.6842  -2.9033  -2.6419  -2.4740  -2.2955  -2.2898
    -2.2044  -2.0704  -1.8963  -1.8448  -1.3527  -1.1179  -1.0805  -0.7578
    -0.7413  -0.3897  -0.3110  -0.2247  -0.1772   0.1049   0.1451   0.1700
     0.6995   0.8073   0.9599   1.1139   1.1259   1.5635   1.6317   1.8789
     2.0145   2.0751   2.1488   2.4552   3.0223   3.1316   3.2855   3.4152
     3.5222   3.5499   3.6513   3.6981   3.8556   3.9115   4.0942   4.2345
     4.2948   4.3471   4.4944   4.5420   4.5723   4.8626   5.0703   5.1370
     5.2788   5.3549   5.4178   5.7318   5.8774   6.0487   6.1274   6.5945
     6.7147   6.8281   6.9665

          k = 0.0000 0.0327 0.0000 ( 32219 PWs)   bands (ev):

   -70.2921 -70.2817 -69.8056 -69.7949 -69.6330 -69.6229 -66.2210 -66.2049
   -66.1389 -66.1226 -66.0743 -66.0585 -40.3884 -40.2673 -40.2536 -40.2522
   -40.2477 -40.2352 -39.8619 -39.8300 -39.8113 -39.7670 -39.7518 -39.7199
   -39.6971 -39.6787 -39.6566 -39.5463 -39.5325 -39.5203 -32.6211 -32.5964
   -32.5435 -32.5319 -32.5159 -32.5033 -32.4425 -32.4366 -32.3973 -32.3661
   -32.3389 -32.3063 -32.3044 -32.2452 -32.2065 -32.2016 -32.1763 -32.1153
   -17.9258 -17.9237 -17.9231 -17.9224 -17.9017 -17.8900 -17.8807 -17.8704
   -17.8680 -17.8666 -17.8375 -17.8348 -17.8338 -17.8332 -17.8303 -17.8281
   -17.8215 -17.8155 -17.8144 -17.8097 -17.8018 -17.7908 -17.7898 -17.7871
   -17.7549 -17.7528 -17.7403 -17.7391 -17.7253 -17.7210 -17.7063 -17.7063
   -17.7007 -17.6943 -17.6936 -17.6893 -17.6881 -17.6878 -17.6789 -17.6768
   -17.6701 -17.6690  -4.5134  -2.7365  -2.4810  -2.4323  -2.2153  -2.1504
    -2.0963  -1.9899  -1.8087  -1.7255  -1.2977  -0.9737  -0.9721  -0.6901
    -0.6365  -0.3345  -0.2366  -0.2271  -0.1601   0.0725   0.1069   0.2581
     0.6534   0.7497   0.8665   0.9812   1.1472   1.3084   1.6123   1.8257
     1.8700   1.9777   2.1076   2.3659   2.5462   3.1480   3.1529   3.1891
     3.3865   3.4672   3.4889   3.6635   3.7623   3.9070   3.9283   4.0002
     4.1304   4.1529   4.4216   4.5678   4.7148   4.8275   4.9758   5.1488
     5.2250   5.2496   5.4093   5.6336   5.6620   5.9355   6.0354   6.2451
     6.4496   6.6680   6.8697

          k = 0.0000 0.0491 0.0000 ( 32197 PWs)   bands (ev):

   -70.2911 -70.2826 -69.8046 -69.7959 -69.6320 -69.6238 -66.2196 -66.2064
   -66.1375 -66.1242 -66.0730 -66.0600 -40.3750 -40.2658 -40.2605 -40.2545
   -40.2485 -40.2351 -39.8485 -39.8269 -39.8115 -39.7659 -39.7533 -39.7322
   -39.6938 -39.6788 -39.6434 -39.5452 -39.5338 -39.5320 -32.6197 -32.5997
   -32.5424 -32.5201 -32.5043 -32.4759 -32.4352 -32.4153 -32.4026 -32.3705
   -32.3487 -32.3055 -32.3054 -32.2421 -32.2339 -32.2101 -32.2083 -32.1478
   -17.9256 -17.9239 -17.9231 -17.9225 -17.9006 -17.8910 -17.8796 -17.8701
   -17.8693 -17.8670 -17.8372 -17.8350 -17.8338 -17.8333 -17.8293 -17.8269
   -17.8204 -17.8172 -17.8157 -17.8107 -17.8008 -17.7910 -17.7905 -17.7875
   -17.7539 -17.7516 -17.7420 -17.7404 -17.7237 -17.7197 -17.7081 -17.7077
   -17.6999 -17.6947 -17.6932 -17.6898 -17.6881 -17.6879 -17.6782 -17.6765
   -17.6710 -17.6701  -4.2417  -2.4825  -2.4310  -2.2321  -2.0958  -1.9301
    -1.9069  -1.8610  -1.6814  -1.5398  -1.2544  -0.7911  -0.7417  -0.5846
    -0.4745  -0.2622  -0.2506  -0.1659  -0.1203  -0.0259   0.1250   0.4026
     0.5044   0.6787   0.7803   0.7972   0.9288   1.2010   1.5332   1.7449
     1.7996   1.8170   2.0092   2.0506   2.2009   2.6698   2.9968   3.0273
     3.0707   3.3713   3.4798   3.5234   3.6264   3.7131   3.8678   3.9055
     4.0262   4.0863   4.2927   4.4703   4.6268   4.8469   4.8841   5.0235
     5.0904   5.1249   5.1842   5.3680   5.4514   5.6396   5.8573   6.1187
     6.2608   6.5599   6.6680

          k = 0.0000 0.0655 0.0000 ( 32186 PWs)   bands (ev):

   -70.2898 -70.2838 -69.8033 -69.7971 -69.6308 -69.6250 -66.2178 -66.2084
   -66.1356 -66.1262 -66.0711 -66.0619 -40.3577 -40.2769 -40.2637 -40.2559
   -40.2450 -40.2354 -39.8315 -39.8233 -39.8119 -39.7647 -39.7551 -39.7480
   -39.6900 -39.6795 -39.6264 -39.5485 -39.5427 -39.5354 -32.6176 -32.6036
   -32.5406 -32.5246 -32.4683 -32.4405 -32.4328 -32.4082 -32.3797 -32.3741
   -32.3573 -32.3080 -32.3056 -32.2757 -32.2499 -32.2361 -32.2146 -32.1890
   -17.9253 -17.9241 -17.9231 -17.9227 -17.8992 -17.8924 -17.8782 -17.8708
   -17.8697 -17.8675 -17.8368 -17.8353 -17.8339 -17.8334 -17.8279 -17.8254
   -17.8193 -17.8190 -17.8175 -17.8121 -17.7994 -17.7925 -17.7901 -17.7880
   -17.7526 -17.7501 -17.7441 -17.7422 -17.7216 -17.7181 -17.7105 -17.7096
   -17.6990 -17.6953 -17.6928 -17.6903 -17.6882 -17.6880 -17.6772 -17.6759
   -17.6720 -17.6715  -3.8899  -2.5251  -2.1867  -1.9599  -1.9286  -1.7264
    -1.6712  -1.6195  -1.5471  -1.3142  -1.2188  -0.6113  -0.4763  -0.4497
    -0.3215  -0.3023  -0.2188  -0.1778  -0.1066  -0.0500   0.2108   0.3184
     0.4990   0.5877   0.5903   0.7365   0.7641   1.1948   1.4114   1.5142
     1.6118   1.6759   1.7946   1.8205   2.0082   2.1798   2.6514   2.6794
     2.9083   3.1430   3.3997   3.5368   3.5886   3.6332   3.8094   3.9007
     4.0368   4.0934   4.1518   4.3367   4.4751   4.5775   4.6372   4.7413
     4.8814   4.9255   4.9678   5.1234   5.3543   5.5088   5.6523   6.1888
     6.2691   6.5288   6.5456

          k = 0.0000 0.0818 0.0000 ( 32188 PWs)   bands (ev):

   -70.2883 -70.2852 -69.8018 -69.7986 -69.6293 -69.6263 -66.2156 -66.2108
   -66.1334 -66.1286 -66.0689 -66.0642 -40.3378 -40.2960 -40.2616 -40.2576
   -40.2414 -40.2365 -39.8198 -39.8166 -39.8083 -39.7698 -39.7601 -39.7572
   -39.6863 -39.6809 -39.6070 -39.5665 -39.5413 -39.5373 -32.6149 -32.6077
   -32.5378 -32.5295 -32.4293 -32.4257 -32.4196 -32.3914 -32.3754 -32.3678
   -32.3343 -32.3287 -32.3052 -32.3041 -32.2962 -32.2378 -32.2291 -32.2197
   -17.9250 -17.9244 -17.9230 -17.9228 -17.8975 -17.8940 -17.8764 -17.8726
   -17.8691 -17.8680 -17.8365 -17.8357 -17.8338 -17.8336 -17.8262 -17.8236
   -17.8217 -17.8194 -17.8173 -17.8138 -17.7978 -17.7942 -17.7896 -17.7885
   -17.7509 -17.7483 -17.7465 -17.7441 -17.7191 -17.7161 -17.7133 -17.7117
   -17.6980 -17.6961 -17.6922 -17.6909 -17.6882 -17.6881 -17.6760 -17.6752
   -17.6732 -17.6730  -3.4904  -2.7496  -1.9324  -1.8464  -1.6313  -1.5711
    -1.4770  -1.4479  -1.3047  -1.1797  -1.0962  -0.5706  -0.4463  -0.3852
    -0.3060  -0.2571  -0.2157  -0.1767  -0.0260  -0.0041   0.1439   0.3149
     0.3622   0.4575   0.7246   0.7522   0.9691   1.0907   1.1811   1.2861
     1.4151   1.4698   1.5500   1.7197   1.7352   1.9610   2.3055   2.5815
     2.7957   2.8004   3.4012   3.4923   3.6087   3.6865   3.7293   3.9446
     3.9616   4.0842   4.1180   4.1971   4.3466   4.3922   4.4468   4.5445
     4.6905   4.7937   4.8284   4.9145   5.1777   5.2197   5.9328   6.2594
     6.3034   6.4685   6.5371

          k = 0.0000-0.0982 0.0000 ( 32184 PWs)   bands (ev):

   -70.2868 -70.2867 -69.8002 -69.8001 -69.6280 -69.6277 -66.2132 -66.2132
   -66.1310 -66.1310 -66.0666 -66.0666 -40.3168 -40.3167 -40.2595 -40.2595
   -40.2385 -40.2385 -39.8170 -39.8169 -39.7892 -39.7892 -39.7593 -39.7592
   -39.6833 -39.6831 -39.5866 -39.5864 -39.5395 -39.5392 -32.6116 -32.6116
   -32.5340 -32.5340 -32.4247 -32.4247 -32.3793 -32.3792 -32.3707 -32.3707
   -32.3449 -32.3449 -32.3077 -32.3076 -32.2844 -32.2844 -32.2250 -32.2250
   -17.9247 -17.9247 -17.9230 -17.9230 -17.8958 -17.8958 -17.8746 -17.8746
   -17.8686 -17.8686 -17.8361 -17.8360 -17.8338 -17.8337 -17.8241 -17.8241
   -17.8215 -17.8215 -17.8155 -17.8155 -17.7960 -17.7960 -17.7891 -17.7891
   -17.7488 -17.7488 -17.7462 -17.7462 -17.7163 -17.7163 -17.7139 -17.7138
   -17.6970 -17.6970 -17.6916 -17.6916 -17.6882 -17.6882 -17.6747 -17.6747
   -17.6742 -17.6742  -3.0901  -3.0901  -1.8155  -1.8154  -1.4739  -1.4739
    -1.4298  -1.4298  -1.1496  -1.1496  -0.8381  -0.8381  -0.4213  -0.4213
    -0.3042  -0.3042  -0.1642  -0.1642   0.0076   0.0077   0.2776   0.2776
     0.3478   0.3478   0.8617   0.8617   0.9651   0.9651   1.2231   1.2232
     1.2829   1.2830   1.5533   1.5533   1.7145   1.7145   2.4097   2.4097
     2.7123   2.7123   3.4173   3.4173   3.6436   3.6437   3.8354   3.8354
     3.9428   3.9429   4.2379   4.2379   4.3820   4.3820   4.4050   4.4050
     4.5914   4.5914   4.8379   4.8379   5.1093   5.1094   6.2328   6.2328
     6.3124   6.3125   6.5679

          k = 0.0151-0.0063 0.0000 ( 32253 PWs)   bands (ev):

   -70.2927 -70.2811 -69.8063 -69.7943 -69.6336 -69.6224 -66.2219 -66.2039
   -66.1397 -66.1216 -66.0752 -66.0575 -40.3969 -40.2684 -40.2541 -40.2530
   -40.2403 -40.2355 -39.8705 -39.8322 -39.8114 -39.7678 -39.7508 -39.7122
   -39.6993 -39.6788 -39.6649 -39.5471 -39.5317 -39.5130 -32.6220 -32.5943
   -32.5486 -32.5440 -32.5214 -32.5128 -32.4595 -32.4373 -32.3936 -32.3623
   -32.3306 -32.3080 -32.3041 -32.2475 -32.2042 -32.1805 -32.1559 -32.0946
   -17.9260 -17.9236 -17.9231 -17.9223 -17.9024 -17.8893 -17.8814 -17.8706
   -17.8673 -17.8664 -17.8377 -17.8346 -17.8338 -17.8331 -17.8308 -17.8288
   -17.8223 -17.8144 -17.8136 -17.8090 -17.8024 -17.7910 -17.7891 -17.7869
   -17.7554 -17.7535 -17.7392 -17.7382 -17.7262 -17.7217 -17.7054 -17.7051
   -17.7012 -17.6940 -17.6938 -17.6891 -17.6881 -17.6878 -17.6793 -17.6771
   -17.6695 -17.6683  -4.6842  -2.9033  -2.6419  -2.4740  -2.2955  -2.2898
    -2.2044  -2.0704  -1.8963  -1.8448  -1.3527  -1.1179  -1.0805  -0.7578
    -0.7413  -0.3897  -0.3110  -0.2247  -0.1772   0.1049   0.1451   0.1700
     0.6995   0.8073   0.9599   1.1139   1.1259   1.5635   1.6317   1.8789
     2.0145   2.0751   2.1488   2.4552   3.0223   3.1316   3.2855   3.4152
     3.5222   3.5499   3.6513   3.6981   3.8556   3.9115   4.0942   4.2345
     4.2948   4.3471   4.4944   4.5420   4.5723   4.8626   5.0703   5.1370
     5.2788   5.3549   5.4178   5.7318   5.8774   6.0487   6.1274   6.5944
     6.7146   6.8281   6.9664

          k = 0.0151 0.0101 0.0000 ( 32239 PWs)   bands (ev):

   -70.2929 -70.2809 -69.8064 -69.7941 -69.6337 -69.6222 -66.2222 -66.2036
   -66.1401 -66.1213 -66.0756 -66.0572 -40.3992 -40.2686 -40.2538 -40.2526
   -40.2376 -40.2349 -39.8728 -39.8319 -39.8109 -39.7680 -39.7507 -39.7095
   -39.6989 -39.6782 -39.6671 -39.5473 -39.5315 -39.5104 -32.6235 -32.5934
   -32.5563 -32.5454 -32.5281 -32.5128 -32.4667 -32.4368 -32.3929 -32.3670
   -32.3355 -32.3055 -32.3029 -32.2467 -32.2049 -32.1736 -32.1492 -32.0879
   -17.9261 -17.9235 -17.9231 -17.9223 -17.9027 -17.8891 -17.8817 -17.8707
   -17.8670 -17.8663 -17.8378 -17.8346 -17.8339 -17.8331 -17.8311 -17.8291
   -17.8225 -17.8141 -17.8132 -17.8088 -17.8026 -17.7911 -17.7888 -17.7868
   -17.7557 -17.7538 -17.7389 -17.7379 -17.7267 -17.7220 -17.7050 -17.7049
   -17.7014 -17.6940 -17.6939 -17.6890 -17.6881 -17.6878 -17.6794 -17.6772
   -17.6693 -17.6680  -4.6710  -2.8952  -2.6458  -2.4503  -2.2986  -2.2750
    -2.1845  -2.0585  -1.8745  -1.8605  -1.3379  -1.1272  -1.0935  -0.7554
    -0.7202  -0.3882  -0.3063  -0.2154  -0.1299   0.1152   0.1800   0.1879
     0.7599   0.8121   1.0411   1.1297   1.1486   1.5104   1.7047   1.8381
     2.0460   2.0949   2.1556   2.4209   3.0669   3.1610   3.1708   3.3620
     3.4738   3.5623   3.6142   3.6558   3.8323   3.8570   3.8841   4.0640
     4.3469   4.3801   4.4742   4.5327   4.5727   4.8174   5.0280   5.1365
     5.3796   5.3867   5.5198   5.7029   5.8579   6.0764   6.1726   6.3792
     6.6715   6.8513   7.1441

          k = 0.0151 0.0264 0.0000 ( 32220 PWs)   bands (ev):

   -70.2926 -70.2811 -69.8062 -69.7943 -69.6335 -69.6224 -66.2220 -66.2039
   -66.1399 -66.1217 -66.0754 -66.0575 -40.3958 -40.2682 -40.2526 -40.2522
   -40.2400 -40.2342 -39.8693 -39.8302 -39.8104 -39.7677 -39.7512 -39.7121
   -39.6971 -39.6777 -39.6636 -39.5470 -39.5318 -39.5128 -32.6243 -32.5940
   -32.5525 -32.5462 -32.5232 -32.5141 -32.4623 -32.4363 -32.3952 -32.3730
   -32.3426 -32.3077 -32.2995 -32.2443 -32.2070 -32.1810 -32.1566 -32.0953
   -17.9260 -17.9236 -17.9232 -17.9224 -17.9024 -17.8894 -17.8814 -17.8707
   -17.8673 -17.8664 -17.8377 -17.8346 -17.8339 -17.8332 -17.8310 -17.8289
   -17.8223 -17.8146 -17.8135 -17.8090 -17.8024 -17.7911 -17.7890 -17.7869
   -17.7556 -17.7536 -17.7393 -17.7382 -17.7264 -17.7219 -17.7053 -17.7053
   -17.7012 -17.6941 -17.6939 -17.6890 -17.6881 -17.6878 -17.6793 -17.6772
   -17.6695 -17.6683  -4.5439  -2.7759  -2.5437  -2.3980  -2.2134  -2.2023
    -2.0915  -1.9935  -1.7958  -1.7944  -1.2897  -1.0402  -1.0300  -0.7109
    -0.6287  -0.3504  -0.2427  -0.2120  -0.0749   0.1219   0.1772   0.2523
     0.7813   0.7988   0.9729   1.0734   1.2008   1.5266   1.5358   1.7635
     1.9458   2.0510   2.1414   2.3453   2.8624   3.0156   3.0363   3.2851
     3.3773   3.3785   3.4738   3.5387   3.6832   3.7696   3.7863   3.9293
     4.1299   4.2376   4.4918   4.5034   4.6675   4.7510   4.9832   5.0774
     5.3476   5.4132   5.5503   5.5931   5.7386   6.0313   6.0715   6.1442
     6.5377   6.6480   7.0296

          k = 0.0151 0.0428 0.0000 ( 32192 PWs)   bands (ev):

   -70.2920 -70.2817 -69.8055 -69.7949 -69.6328 -69.6229 -66.2212 -66.2049
   -66.1390 -66.1227 -66.0746 -66.0584 -40.3869 -40.2671 -40.2530 -40.2505
   -40.2467 -40.2337 -39.8604 -39.8275 -39.8102 -39.7669 -39.7523 -39.7198
   -39.6942 -39.6775 -39.6548 -39.5462 -39.5326 -39.5202 -32.6245 -32.5958
   -32.5461 -32.5372 -32.5170 -32.5063 -32.4462 -32.4355 -32.4001 -32.3785
   -32.3502 -32.3107 -32.2980 -32.2408 -32.2103 -32.2019 -32.1771 -32.1160
   -17.9259 -17.9237 -17.9232 -17.9225 -17.9017 -17.8900 -17.8807 -17.8705
   -17.8681 -17.8666 -17.8375 -17.8348 -17.8340 -17.8332 -17.8305 -17.8283
   -17.8216 -17.8157 -17.8143 -17.8097 -17.8018 -17.7909 -17.7898 -17.7871
   -17.7551 -17.7530 -17.7405 -17.7390 -17.7255 -17.7212 -17.7066 -17.7062
   -17.7007 -17.6944 -17.6937 -17.6893 -17.6881 -17.6879 -17.6789 -17.6770
   -17.6701 -17.6690  -4.3116  -2.5614  -2.3735  -2.3485  -2.0891  -2.0375
    -1.9111  -1.8819  -1.6701  -1.6575  -1.2567  -0.8764  -0.8602  -0.6289
    -0.4796  -0.2788  -0.2180  -0.1381  -0.0503   0.1147   0.1319   0.3903
     0.6556   0.7580   0.9243   0.9250   1.1954   1.2883   1.5151   1.7110
     1.8154   1.9488   2.0950   2.2073   2.3752   2.8646   2.9072   2.9768
     3.1061   3.1747   3.3284   3.4683   3.5173   3.6573   3.7769   3.7847
     3.9302   3.9948   4.3918   4.5070   4.5887   4.8597   4.8655   5.0384
     5.2158   5.2437   5.2588   5.3943   5.5419   5.7994   5.9045   6.1413
     6.3097   6.6542   6.8783

          k = 0.0151 0.0592 0.0000 ( 32180 PWs)   bands (ev):

   -70.2910 -70.2826 -69.8045 -69.7959 -69.6319 -69.6238 -66.2198 -66.2065
   -66.1376 -66.1243 -66.0732 -66.0599 -40.3733 -40.2658 -40.2606 -40.2539
   -40.2457 -40.2336 -39.8469 -39.8242 -39.8104 -39.7657 -39.7539 -39.7322
   -39.6908 -39.6778 -39.6414 -39.5451 -39.5339 -39.5320 -32.6237 -32.5986
   -32.5449 -32.5219 -32.5093 -32.4792 -32.4343 -32.4195 -32.4065 -32.3819
   -32.3569 -32.3142 -32.2978 -32.2376 -32.2328 -32.2146 -32.2089 -32.1480
   -17.9257 -17.9238 -17.9232 -17.9226 -17.9007 -17.8910 -17.8796 -17.8702
   -17.8693 -17.8670 -17.8373 -17.8350 -17.8340 -17.8334 -17.8295 -17.8271
   -17.8205 -17.8174 -17.8156 -17.8107 -17.8008 -17.7910 -17.7906 -17.7875
   -17.7542 -17.7518 -17.7422 -17.7403 -17.7239 -17.7200 -17.7084 -17.7076
   -17.6999 -17.6948 -17.6933 -17.6898 -17.6882 -17.6880 -17.6782 -17.6766
   -17.6710 -17.6701  -3.9907  -2.4268  -2.2855  -2.0849  -1.9514  -1.7901
    -1.7291  -1.6746  -1.5295  -1.4635  -1.2283  -0.6981  -0.5978  -0.5312
    -0.3431  -0.2480  -0.1750  -0.0883  -0.0434   0.0211   0.2021   0.4625
     0.5554   0.6531   0.7554   0.8918   0.8972   1.3010   1.4000   1.6541
     1.7419   1.7700   1.8992   2.0243   2.0559   2.3161   2.5757   2.7333
     2.8719   3.0983   3.1582   3.3574   3.5068   3.5326   3.7542   3.7919
     3.8558   3.8638   4.2109   4.4114   4.5052   4.5586   4.7090   4.8515
     4.9747   4.9944   5.0547   5.3843   5.4823   5.5270   5.6881   6.1958
     6.2608   6.6381   6.6603

          k = 0.0151 0.0755 0.0000 ( 32151 PWs)   bands (ev):

   -70.2897 -70.2839 -69.8032 -69.7971 -69.6306 -69.6250 -66.2179 -66.2084
   -66.1358 -66.1263 -66.0714 -66.0618 -40.3561 -40.2772 -40.2638 -40.2552
   -40.2425 -40.2345 -39.8300 -39.8209 -39.8112 -39.7644 -39.7558 -39.7483
   -39.6874 -39.6790 -39.6245 -39.5488 -39.5426 -39.5356 -32.6218 -32.6019
   -32.5424 -32.5254 -32.4734 -32.4440 -32.4323 -32.4126 -32.3843 -32.3818
   -32.3607 -32.3180 -32.2983 -32.2747 -32.2495 -32.2310 -32.2195 -32.1886
   -17.9254 -17.9241 -17.9232 -17.9227 -17.8992 -17.8924 -17.8781 -17.8708
   -17.8697 -17.8674 -17.8369 -17.8353 -17.8340 -17.8335 -17.8281 -17.8256
   -17.8195 -17.8191 -17.8173 -17.8121 -17.7994 -17.7925 -17.7902 -17.7879
   -17.7528 -17.7503 -17.7443 -17.7420 -17.7217 -17.7183 -17.7108 -17.7094
   -17.6989 -17.6954 -17.6928 -17.6903 -17.6882 -17.6881 -17.6773 -17.6761
   -17.6720 -17.6715  -3.6076  -2.5995  -2.0121  -1.8187  -1.7940  -1.6053
    -1.4530  -1.4483  -1.4142  -1.2519  -1.1823  -0.5780  -0.4869  -0.3443
    -0.2604  -0.2426  -0.1650  -0.1561  -0.0665  -0.0030   0.2690   0.3406
     0.4748   0.5116   0.7483   0.8726   0.9681   1.1183   1.3227   1.3274
     1.5410   1.6307   1.7184   1.7223   1.8531   1.9441   2.3094   2.5309
     2.7494   2.7669   3.2451   3.4183   3.4535   3.5397   3.6969   3.8472
     3.8506   3.9143   4.0541   4.1720   4.2862   4.3921   4.5436   4.7491
     4.8012   4.8439   4.9026   5.1829   5.2625   5.4537   5.7558   6.2280
     6.2868   6.5023   6.5773

          k = 0.0151-0.1045 0.0000 ( 32169 PWs)   bands (ev):

   -70.2882 -70.2853 -69.8017 -69.7986 -69.6292 -69.6264 -66.2157 -66.2107
   -66.1335 -66.1285 -66.0692 -66.0640 -40.3365 -40.2966 -40.2619 -40.2570
   -40.2398 -40.2364 -39.8180 -39.8164 -39.8073 -39.7702 -39.7600 -39.7578
   -39.6844 -39.6811 -39.6055 -39.5672 -39.5412 -39.5375 -32.6188 -32.6053
   -32.5386 -32.5293 -32.4293 -32.4292 -32.4251 -32.3946 -32.3779 -32.3671
   -32.3367 -32.3303 -32.3107 -32.2984 -32.2955 -32.2362 -32.2249 -32.2244
   -17.9251 -17.9244 -17.9231 -17.9228 -17.8976 -17.8940 -17.8764 -17.8727
   -17.8692 -17.8680 -17.8365 -17.8356 -17.8339 -17.8336 -17.8262 -17.8237
   -17.8218 -17.8193 -17.8174 -17.8137 -17.7978 -17.7942 -17.7897 -17.7885
   -17.7510 -17.7484 -17.7466 -17.7440 -17.7191 -17.7163 -17.7135 -17.7115
   -17.6979 -17.6962 -17.6922 -17.6909 -17.6882 -17.6882 -17.6760 -17.6753
   -17.6731 -17.6730  -3.2014  -2.8992  -1.8382  -1.7398  -1.5551  -1.4879
    -1.4018  -1.3402  -1.1676  -1.1185  -1.0370  -0.6456  -0.5043  -0.3509
    -0.3018  -0.2503  -0.1620  -0.1517   0.0069   0.0840   0.1595   0.3325
     0.3669   0.4143   0.8549   0.8962   0.9535   0.9539   1.2264   1.2336
     1.2688   1.3100   1.4973   1.6024   1.6429   1.8127   2.3635   2.4399
     2.6236   2.7018   3.3668   3.3816   3.5643   3.6321   3.6433   3.8488
     3.8494   4.0305   4.0381   4.2077   4.2793   4.3659   4.4544   4.6000
     4.6428   4.7623   4.7703   5.0360   5.1058   5.2477   6.0518   6.2189
     6.3064   6.3822   6.5190

          k = 0.0151-0.0881 0.0000 ( 32183 PWs)   bands (ev):

   -70.2869 -70.2867 -69.8002 -69.8001 -69.6280 -69.6277 -66.2133 -66.2131
   -66.1311 -66.1309 -66.0668 -66.0664 -40.3177 -40.3157 -40.2599 -40.2591
   -40.2393 -40.2378 -39.8178 -39.8158 -39.7903 -39.7884 -39.7597 -39.7588
   -39.6842 -39.6821 -39.5876 -39.5855 -39.5395 -39.5392 -32.6147 -32.6087
   -32.5338 -32.5328 -32.4295 -32.4246 -32.3806 -32.3747 -32.3695 -32.3673
   -32.3463 -32.3439 -32.3167 -32.3015 -32.2861 -32.2833 -32.2303 -32.2202
   -17.9247 -17.9247 -17.9230 -17.9229 -17.8958 -17.8957 -17.8746 -17.8745
   -17.8686 -17.8686 -17.8361 -17.8360 -17.8338 -17.8337 -17.8241 -17.8240
   -17.8217 -17.8214 -17.8156 -17.8155 -17.7960 -17.7960 -17.7891 -17.7890
   -17.7488 -17.7488 -17.7463 -17.7461 -17.7163 -17.7162 -17.7141 -17.7137
   -17.6970 -17.6969 -17.6916 -17.6915 -17.6882 -17.6882 -17.6747 -17.6747
   -17.6742 -17.6741  -3.2834  -2.8273  -1.8188  -1.7872  -1.5162  -1.4949
    -1.4475  -1.4409  -1.1661  -1.1068  -0.8830  -0.7041  -0.4832  -0.3878
    -0.3800  -0.2083  -0.1695  -0.1336  -0.0325   0.0454   0.1753   0.2514
     0.3851   0.4315   0.6511   0.6599   0.9358   1.0219   1.0794   1.2407
     1.2412   1.3875   1.4043   1.5321   1.6880   1.9768   2.2797   2.6024
     2.7002   2.8122   3.4129   3.5175   3.6078   3.6723   3.8415   3.8429
     3.9269   4.0844   4.1864   4.2161   4.3617   4.4154   4.4971   4.5794
     4.6294   4.7080   4.8113   4.9200   5.1074   5.1947   6.0980   6.2430
     6.2523   6.3665   6.4849

          k = 0.0151-0.0718 0.0000 ( 32179 PWs)   bands (ev):

   -70.2884 -70.2852 -69.8019 -69.7985 -69.6294 -69.6263 -66.2155 -66.2108
   -66.1333 -66.1286 -66.0687 -66.0644 -40.3389 -40.2953 -40.2614 -40.2580
   -40.2430 -40.2366 -39.8212 -39.8159 -39.8100 -39.7696 -39.7603 -39.7567
   -39.6880 -39.6806 -39.6084 -39.5659 -39.5414 -39.5372 -32.6120 -32.6099
   -32.5357 -32.5284 -32.4335 -32.4228 -32.4171 -32.3910 -32.3667 -32.3602
   -32.3323 -32.3281 -32.3151 -32.3006 -32.2963 -32.2395 -32.2337 -32.2154
   -17.9250 -17.9244 -17.9229 -17.9228 -17.8975 -17.8940 -17.8764 -17.8726
   -17.8691 -17.8680 -17.8364 -17.8357 -17.8337 -17.8336 -17.8261 -17.8234
   -17.8216 -17.8196 -17.8172 -17.8138 -17.7978 -17.7942 -17.7895 -17.7885
   -17.7508 -17.7481 -17.7463 -17.7442 -17.7190 -17.7159 -17.7132 -17.7118
   -17.6980 -17.6960 -17.6921 -17.6909 -17.6882 -17.6880 -17.6760 -17.6751
   -17.6732 -17.6730  -3.6900  -2.5501  -2.0001  -1.9101  -1.7125  -1.6770
    -1.6427  -1.5107  -1.4249  -1.1196  -1.1132  -0.5238  -0.4299  -0.4263
    -0.3800  -0.2727  -0.1782  -0.1537  -0.1073  -0.0327   0.1884   0.2417
     0.2946   0.5010   0.5240   0.6138   0.7032   1.0662   1.2571   1.3161
     1.4499   1.5006   1.5850   1.7897   1.9116   1.9619   2.6339   2.6379
     2.8142   3.1569   3.4551   3.6467   3.6643   3.7420   3.7982   4.0022
     4.0528   4.1251   4.2326   4.3305   4.3473   4.5449   4.5792   4.6395
     4.8364   4.8665   4.9394   5.0999   5.2923   5.3406   5.8407   6.1780
     6.1864   6.4008   6.4016

          k = 0.0151-0.0554 0.0000 ( 32211 PWs)   bands (ev):

   -70.2899 -70.2838 -69.8034 -69.7971 -69.6309 -69.6249 -66.2176 -66.2085
   -66.1355 -66.1262 -66.0709 -66.0621 -40.3589 -40.2764 -40.2637 -40.2563
   -40.2469 -40.2361 -39.8324 -39.8250 -39.8125 -39.7650 -39.7547 -39.7479
   -39.6919 -39.6797 -39.6279 -39.5484 -39.5428 -39.5353 -32.6150 -32.6049
   -32.5381 -32.5232 -32.4644 -32.4372 -32.4360 -32.4092 -32.3758 -32.3637
   -32.3479 -32.3155 -32.3018 -32.2773 -32.2508 -32.2396 -32.2111 -32.1896
   -17.9253 -17.9241 -17.9230 -17.9227 -17.8991 -17.8924 -17.8782 -17.8708
   -17.8696 -17.8675 -17.8368 -17.8353 -17.8337 -17.8335 -17.8278 -17.8253
   -17.8192 -17.8189 -17.8175 -17.8122 -17.7994 -17.7925 -17.7901 -17.7880
   -17.7525 -17.7500 -17.7439 -17.7422 -17.7215 -17.7179 -17.7104 -17.7097
   -17.6990 -17.6953 -17.6927 -17.6903 -17.6882 -17.6880 -17.6772 -17.6758
   -17.6721 -17.6715  -4.0652  -2.4117  -2.3015  -2.0440  -2.0297  -1.8921
    -1.8081  -1.7261  -1.6350  -1.3591  -1.1591  -0.6860  -0.5518  -0.4983
    -0.4212  -0.3628  -0.2433  -0.1850  -0.0962  -0.0697   0.1515   0.3528
     0.3943   0.5534   0.5702   0.6449   0.7323   1.0926   1.4005   1.5834
     1.6583   1.7442   1.8002   1.9440   2.0211   2.4537   2.7636   2.9154
     3.1013   3.4653   3.5282   3.6181   3.7140   3.7504   3.8901   3.9495
     4.1435   4.2275   4.2561   4.2854   4.5470   4.7445   4.7581   4.8982
     4.9544   5.1286   5.2351   5.4132   5.4660   5.6322   5.7397   6.1115
     6.1542   6.3719   6.4562

          k = 0.0151-0.0390 0.0000 ( 32241 PWs)   bands (ev):

   -70.2912 -70.2826 -69.8047 -69.7959 -69.6321 -69.6238 -66.2195 -66.2064
   -66.1374 -66.1242 -66.0728 -66.0601 -40.3760 -40.2658 -40.2603 -40.2549
   -40.2503 -40.2360 -39.8494 -39.8285 -39.8121 -39.7660 -39.7529 -39.7322
   -39.6955 -39.6793 -39.6446 -39.5453 -39.5337 -39.5321 -32.6176 -32.6003
   -32.5403 -32.5187 -32.5013 -32.4738 -32.4373 -32.4126 -32.4028 -32.3611
   -32.3375 -32.3148 -32.3020 -32.2449 -32.2346 -32.2080 -32.2075 -32.1477
   -17.9256 -17.9239 -17.9230 -17.9225 -17.9005 -17.8910 -17.8796 -17.8701
   -17.8693 -17.8670 -17.8372 -17.8350 -17.8338 -17.8333 -17.8292 -17.8269
   -17.8204 -17.8171 -17.8158 -17.8107 -17.8008 -17.7910 -17.7905 -17.7875
   -17.7538 -17.7516 -17.7419 -17.7405 -17.7236 -17.7196 -17.7080 -17.7078
   -17.7000 -17.6947 -17.6932 -17.6897 -17.6881 -17.6879 -17.6782 -17.6764
   -17.6710 -17.6701  -4.3709  -2.5873  -2.3979  -2.3178  -2.1700  -2.0679
    -2.0044  -1.9284  -1.7631  -1.5819  -1.2206  -0.8833  -0.8182  -0.6225
    -0.5839  -0.3146  -0.2778  -0.1760  -0.1633  -0.0441   0.1312   0.2704
     0.5132   0.6478   0.8001   0.8250   0.9683   1.0734   1.5517   1.8138
     1.8160   1.8319   2.0859   2.0903   2.3164   2.8067   3.1273   3.2407
     3.2678   3.4501   3.5922   3.7589   3.7776   3.8236   3.9108   4.0659
     4.1636   4.2353   4.3240   4.3654   4.7214   4.8870   4.9028   5.0401
     5.1221   5.2906   5.3228   5.6122   5.6709   5.8024   6.1399   6.1452
     6.2639   6.4769   6.6573

          k = 0.0151-0.0227 0.0000 ( 32247 PWs)   bands (ev):

   -70.2921 -70.2817 -69.8056 -69.7949 -69.6330 -69.6229 -66.2209 -66.2049
   -66.1388 -66.1226 -66.0743 -66.0585 -40.3890 -40.2674 -40.2538 -40.2529
   -40.2480 -40.2358 -39.8625 -39.8310 -39.8118 -39.7671 -39.7516 -39.7200
   -39.6981 -39.6791 -39.6573 -39.5463 -39.5325 -39.5204 -32.6200 -32.5967
   -32.5422 -32.5299 -32.5155 -32.5022 -32.4411 -32.4375 -32.3971 -32.3603
   -32.3306 -32.3128 -32.3030 -32.2467 -32.2052 -32.2014 -32.1760 -32.1151
   -17.9258 -17.9237 -17.9230 -17.9224 -17.9017 -17.8900 -17.8808 -17.8704
   -17.8680 -17.8666 -17.8375 -17.8348 -17.8338 -17.8332 -17.8302 -17.8281
   -17.8215 -17.8154 -17.8144 -17.8096 -17.8018 -17.7908 -17.7898 -17.7871
   -17.7548 -17.7528 -17.7402 -17.7391 -17.7252 -17.7209 -17.7063 -17.7062
   -17.7007 -17.6943 -17.6936 -17.6893 -17.6881 -17.6878 -17.6789 -17.6768
   -17.6701 -17.6690  -4.5821  -2.7973  -2.5297  -2.4453  -2.2580  -2.1888
    -2.1686  -2.0269  -1.8568  -1.7494  -1.3020  -1.0156  -1.0129  -0.7144
    -0.6936  -0.3522  -0.2652  -0.2586  -0.1780   0.0588   0.1202   0.1906
     0.6257   0.7617   0.8625   1.0038   1.0854   1.3487   1.6281   1.8708
     1.8865   1.9811   2.1294   2.4317   2.6017   3.2119   3.2157   3.3377
     3.4018   3.5279   3.6249   3.7720   3.8324   3.9591   4.0178   4.1337
     4.2311   4.3381   4.4230   4.4714   4.7089   4.8716   5.0309   5.1286
     5.2026   5.2770   5.3189   5.7549   5.8284   5.9892   6.0903   6.5199
     6.5923   6.7103   6.8448

          k = 0.0302-0.0126 0.0000 ( 32219 PWs)   bands (ev):

   -70.2921 -70.2817 -69.8056 -69.7949 -69.6330 -69.6229 -66.2210 -66.2049
   -66.1389 -66.1226 -66.0743 -66.0585 -40.3884 -40.2673 -40.2536 -40.2522
   -40.2477 -40.2352 -39.8619 -39.8300 -39.8113 -39.7670 -39.7518 -39.7199
   -39.6971 -39.6787 -39.6566 -39.5463 -39.5325 -39.5203 -32.6211 -32.5964
   -32.5435 -32.5319 -32.5159 -32.5033 -32.4425 -32.4366 -32.3973 -32.3661
   -32.3389 -32.3063 -32.3044 -32.2452 -32.2065 -32.2016 -32.1763 -32.1153
   -17.9258 -17.9237 -17.9231 -17.9224 -17.9017 -17.8900 -17.8807 -17.8704
   -17.8680 -17.8666 -17.8375 -17.8348 -17.8338 -17.8332 -17.8303 -17.8281
   -17.8215 -17.8155 -17.8144 -17.8097 -17.8018 -17.7908 -17.7898 -17.7871
   -17.7549 -17.7528 -17.7403 -17.7391 -17.7253 -17.7210 -17.7063 -17.7063
   -17.7007 -17.6943 -17.6936 -17.6893 -17.6881 -17.6878 -17.6789 -17.6768
   -17.6701 -17.6690  -4.5134  -2.7365  -2.4810  -2.4323  -2.2153  -2.1504
    -2.0963  -1.9899  -1.8087  -1.7255  -1.2977  -0.9737  -0.9721  -0.6901
    -0.6365  -0.3345  -0.2366  -0.2271  -0.1601   0.0725   0.1069   0.2581
     0.6534   0.7497   0.8665   0.9812   1.1472   1.3084   1.6123   1.8257
     1.8700   1.9777   2.1076   2.3659   2.5462   3.1480   3.1529   3.1891
     3.3865   3.4672   3.4889   3.6635   3.7623   3.9070   3.9283   4.0002
     4.1304   4.1529   4.4216   4.5678   4.7148   4.8275   4.9758   5.1488
     5.2250   5.2496   5.4092   5.6336   5.6620   5.9355   6.0354   6.2451
     6.4496   6.6679   6.8697

          k = 0.0302 0.0037 0.0000 ( 32220 PWs)   bands (ev):

   -70.2926 -70.2811 -69.8062 -69.7943 -69.6335 -69.6224 -66.2220 -66.2039
   -66.1399 -66.1217 -66.0754 -66.0575 -40.3958 -40.2682 -40.2526 -40.2522
   -40.2400 -40.2342 -39.8693 -39.8302 -39.8104 -39.7677 -39.7512 -39.7121
   -39.6971 -39.6777 -39.6636 -39.5470 -39.5318 -39.5128 -32.6243 -32.5940
   -32.5525 -32.5462 -32.5232 -32.5141 -32.4623 -32.4363 -32.3952 -32.3730
   -32.3426 -32.3077 -32.2995 -32.2443 -32.2070 -32.1810 -32.1566 -32.0953
   -17.9260 -17.9236 -17.9232 -17.9224 -17.9024 -17.8894 -17.8814 -17.8707
   -17.8673 -17.8664 -17.8377 -17.8346 -17.8339 -17.8332 -17.8310 -17.8289
   -17.8223 -17.8146 -17.8135 -17.8090 -17.8024 -17.7911 -17.7890 -17.7869
   -17.7556 -17.7536 -17.7393 -17.7382 -17.7264 -17.7219 -17.7053 -17.7053
   -17.7012 -17.6941 -17.6939 -17.6890 -17.6881 -17.6878 -17.6793 -17.6772
   -17.6695 -17.6683  -4.5439  -2.7759  -2.5437  -2.3980  -2.2134  -2.2023
    -2.0915  -1.9935  -1.7958  -1.7944  -1.2897  -1.0402  -1.0300  -0.7109
    -0.6287  -0.3504  -0.2427  -0.2120  -0.0749   0.1219   0.1772   0.2523
     0.7813   0.7988   0.9729   1.0734   1.2008   1.5266   1.5358   1.7635
     1.9458   2.0510   2.1414   2.3453   2.8624   3.0156   3.0363   3.2851
     3.3773   3.3785   3.4738   3.5387   3.6832   3.7696   3.7863   3.9293
     4.1299   4.2376   4.4918   4.5034   4.6675   4.7510   4.9832   5.0774
     5.3476   5.4132   5.5503   5.5931   5.7386   6.0313   6.0715   6.1442
     6.5378   6.6480   7.0296

          k = 0.0302 0.0201 0.0000 ( 32227 PWs)   bands (ev):

   -70.2928 -70.2809 -69.8063 -69.7941 -69.6336 -69.6222 -66.2224 -66.2036
   -66.1403 -66.1214 -66.0758 -66.0571 -40.3975 -40.2684 -40.2519 -40.2510
   -40.2373 -40.2331 -39.8710 -39.8290 -39.8095 -39.7678 -39.7513 -39.7092
   -39.6958 -39.6767 -39.6653 -39.5472 -39.5316 -39.5101 -32.6270 -32.5931
   -32.5619 -32.5481 -32.5309 -32.5143 -32.4707 -32.4365 -32.3968 -32.3802
   -32.3472 -32.3121 -32.2951 -32.2422 -32.2087 -32.1745 -32.1503 -32.0890
   -17.9261 -17.9235 -17.9232 -17.9224 -17.9027 -17.8892 -17.8817 -17.8708
   -17.8670 -17.8663 -17.8378 -17.8346 -17.8340 -17.8332 -17.8314 -17.8293
   -17.8226 -17.8144 -17.8132 -17.8089 -17.8026 -17.7912 -17.7888 -17.7868
   -17.7560 -17.7540 -17.7391 -17.7378 -17.7269 -17.7223 -17.7051 -17.7050
   -17.7014 -17.6940 -17.6940 -17.6890 -17.6882 -17.6879 -17.6795 -17.6774
   -17.6694 -17.6680  -4.4617  -2.7060  -2.5066  -2.3156  -2.1849  -2.1329
    -2.0340  -1.9441  -1.7872  -1.7213  -1.2184  -1.0371  -1.0132  -0.6864
    -0.5588  -0.3272  -0.2035  -0.2034   0.0416   0.1551   0.2392   0.2800
     0.8065   0.9043   1.0192   1.0701   1.2453   1.4946   1.5370   1.6520
     1.9087   2.0376   2.1808   2.2878   2.8246   2.8784   2.9077   3.1306
     3.2590   3.2744   3.3258   3.4345   3.5177   3.6146   3.7107   3.9017
     4.0208   4.1989   4.3410   4.5273   4.6547   4.6559   4.9334   5.0155
     5.3746   5.4927   5.6177   5.6707   5.6959   5.8838   6.0856   6.1559
     6.3813   6.5232   6.8905

          k = 0.0302 0.0365 0.0000 ( 32206 PWs)   bands (ev):

   -70.2925 -70.2811 -69.8061 -69.7943 -69.6333 -69.6224 -66.2222 -66.2040
   -66.1401 -66.1218 -66.0757 -66.0574 -40.3937 -40.2680 -40.2518 -40.2489
   -40.2397 -40.2320 -39.8672 -39.8268 -39.8088 -39.7675 -39.7519 -39.7118
   -39.6934 -39.6759 -39.6613 -39.5469 -39.5319 -39.5125 -32.6289 -32.5935
   -32.5591 -32.5489 -32.5267 -32.5156 -32.4670 -32.4374 -32.4018 -32.3858
   -32.3518 -32.3173 -32.2931 -32.2390 -32.2116 -32.1820 -32.1578 -32.0965
   -17.9261 -17.9236 -17.9233 -17.9224 -17.9025 -17.8894 -17.8814 -17.8708
   -17.8673 -17.8664 -17.8378 -17.8347 -17.8341 -17.8332 -17.8314 -17.8292
   -17.8224 -17.8149 -17.8134 -17.8091 -17.8024 -17.7912 -17.7891 -17.7869
   -17.7560 -17.7539 -17.7397 -17.7381 -17.7266 -17.7222 -17.7057 -17.7052
   -17.7012 -17.6942 -17.6940 -17.6891 -17.6882 -17.6880 -17.6793 -17.6774
   -17.6696 -17.6683  -4.2729  -2.5393  -2.3791  -2.2494  -2.0637  -2.0244
    -1.8862  -1.8483  -1.7014  -1.6005  -1.1721  -0.9342  -0.8934  -0.6245
    -0.4335  -0.2675  -0.2000  -0.1146   0.1273   0.1685   0.2437   0.3866
     0.7576   0.8626   0.9850   1.0483   1.3241   1.3365   1.4574   1.5919
     1.8140   1.9654   2.1663   2.1933   2.5367   2.6630   2.7820   2.9454
     2.9700   3.0353   3.1799   3.3009   3.3755   3.5975   3.6492   3.6612
     3.8753   3.9940   4.3543   4.4655   4.5488   4.6990   4.8146   4.9667
     5.3216   5.3438   5.3457   5.5083   5.7059   5.7686   5.9235   6.1811
     6.2424   6.4887   6.7514

          k = 0.0302 0.0528 0.0000 ( 32192 PWs)   bands (ev):

   -70.2918 -70.2817 -69.8054 -69.7949 -69.6327 -69.6229 -66.2214 -66.2050
   -66.1393 -66.1228 -66.0749 -66.0583 -40.3848 -40.2670 -40.2521 -40.2489
   -40.2446 -40.2316 -39.8582 -39.8240 -39.8086 -39.7666 -39.7531 -39.7196
   -39.6904 -39.6758 -39.6524 -39.5461 -39.5328 -39.5200 -32.6297 -32.5951
   -32.5483 -32.5441 -32.5179 -32.5102 -32.4512 -32.4385 -32.4089 -32.3881
   -32.3557 -32.3226 -32.2926 -32.2351 -32.2154 -32.2026 -32.1782 -32.1170
   -17.9260 -17.9237 -17.9234 -17.9225 -17.9018 -17.8900 -17.8807 -17.8706
   -17.8681 -17.8666 -17.8377 -17.8348 -17.8342 -17.8333 -17.8308 -17.8286
   -17.8217 -17.8161 -17.8143 -17.8097 -17.8018 -17.7911 -17.7898 -17.7871
   -17.7555 -17.7533 -17.7409 -17.7389 -17.7257 -17.7216 -17.7069 -17.7061
   -17.7007 -17.6945 -17.6938 -17.6894 -17.6883 -17.6880 -17.6789 -17.6772
   -17.6702 -17.6690  -3.9901  -2.3028  -2.2590  -2.1792  -1.8879  -1.8562
    -1.7155  -1.6617  -1.5480  -1.4560  -1.1518  -0.7664  -0.6864  -0.5438
    -0.3204  -0.2170  -0.1602  -0.0114   0.1154   0.1912   0.2163   0.5450
     0.6001   0.7323   0.8641   1.0433   1.0865   1.2318   1.4569   1.6085
     1.7553   1.8421   2.0055   2.1118   2.1162   2.4190   2.4464   2.7010
     2.7168   2.8606   3.0067   3.1926   3.3667   3.3738   3.6204   3.6481
     3.7536   3.7904   4.3127   4.3523   4.4681   4.5204   4.6030   4.8156
     5.1378   5.1605   5.1789   5.4035   5.6130   5.6989   5.7056   6.0843
     6.2585   6.6434   6.7232

          k = 0.0302 0.0692 0.0000 ( 32180 PWs)   bands (ev):

   -70.2908 -70.2827 -69.8044 -69.7959 -69.6317 -69.6239 -66.2200 -66.2065
   -66.1378 -66.1243 -66.0735 -66.0597 -40.3713 -40.2658 -40.2606 -40.2531
   -40.2426 -40.2320 -39.8448 -39.8211 -39.8094 -39.7653 -39.7546 -39.7323
   -39.6874 -39.6766 -39.6392 -39.5449 -39.5341 -39.5321 -32.6289 -32.5975
   -32.5461 -32.5232 -32.5145 -32.4828 -32.4389 -32.4240 -32.4166 -32.3865
   -32.3584 -32.3270 -32.2931 -32.2353 -32.2298 -32.2198 -32.2095 -32.1485
   -17.9257 -17.9239 -17.9234 -17.9226 -17.9007 -17.8911 -17.8796 -17.8703
   -17.8693 -17.8670 -17.8374 -17.8350 -17.8342 -17.8334 -17.8298 -17.8274
   -17.8206 -17.8178 -17.8156 -17.8108 -17.8008 -17.7910 -17.7907 -17.7875
   -17.7545 -17.7521 -17.7426 -17.7403 -17.7241 -17.7203 -17.7087 -17.7075
   -17.6999 -17.6949 -17.6934 -17.6898 -17.6883 -17.6882 -17.6782 -17.6769
   -17.6710 -17.6701  -3.6341  -2.3810  -2.0426  -1.9412  -1.7427  -1.6072
    -1.5356  -1.4272  -1.3471  -1.3270  -1.1088  -0.6332  -0.4951  -0.4167
    -0.2610  -0.2492  -0.0674  -0.0043   0.0294   0.0996   0.3416   0.4016
     0.5916   0.6181   0.7586   0.9706   0.9926   1.0815   1.4216   1.4607
     1.5721   1.6892   1.7763   1.8258   1.9238   1.9374   2.2820   2.4571
     2.6214   2.6933   2.9255   3.2639   3.2763   3.4052   3.6276   3.6480
     3.7011   3.7664   4.0906   4.1560   4.2460   4.4078   4.5349   4.7285
     4.9591   4.9799   5.0765   5.4313   5.5095   5.5562   5.6183   6.0845
     6.2292   6.6193   6.6248

          k = 0.0302-0.1108 0.0000 ( 32167 PWs)   bands (ev):

   -70.2896 -70.2839 -69.8031 -69.7972 -69.6305 -69.6251 -66.2181 -66.2084
   -66.1359 -66.1263 -66.0716 -66.0616 -40.3544 -40.2773 -40.2639 -40.2546
   -40.2402 -40.2336 -39.8282 -39.8184 -39.8109 -39.7640 -39.7564 -39.7487
   -39.6847 -39.6784 -39.6228 -39.5491 -39.5425 -39.5357 -32.6265 -32.6004
   -32.5426 -32.5248 -32.4783 -32.4468 -32.4376 -32.4225 -32.3872 -32.3810
   -32.3591 -32.3302 -32.2940 -32.2744 -32.2495 -32.2261 -32.2247 -32.1884
   -17.9254 -17.9241 -17.9233 -17.9228 -17.8993 -17.8924 -17.8781 -17.8709
   -17.8698 -17.8674 -17.8370 -17.8353 -17.8341 -17.8336 -17.8283 -17.8258
   -17.8198 -17.8191 -17.8173 -17.8121 -17.7994 -17.7925 -17.7903 -17.7879
   -17.7530 -17.7505 -17.7445 -17.7420 -17.7218 -17.7186 -17.7110 -17.7093
   -17.6989 -17.6955 -17.6929 -17.6903 -17.6883 -17.6882 -17.6773 -17.6762
   -17.6720 -17.6715  -3.2357  -2.6355  -1.8321  -1.7358  -1.6249  -1.4586
    -1.2774  -1.2584  -1.2301  -1.1277  -1.0407  -0.6009  -0.5274  -0.3394
    -0.2008  -0.1825  -0.1349  -0.0360   0.0249   0.0421   0.2199   0.4079
     0.4373   0.4733   0.8025   0.9065   0.9796   0.9832   1.1712   1.2936
     1.3287   1.3337   1.4600   1.6324   1.6385   1.8864   2.3013   2.4149
     2.4981   2.5952   3.1169   3.2682   3.3875   3.5069   3.5503   3.7513
     3.7675   3.8517   4.0203   4.0723   4.2630   4.3574   4.5039   4.7187
     4.7789   4.8619   4.9570   5.2035   5.3297   5.4344   5.8689   6.1144
     6.1553   6.3964   6.5018

          k = 0.0302-0.0945 0.0000 ( 32164 PWs)   bands (ev):

   -70.2881 -70.2854 -69.8016 -69.7987 -69.6291 -69.6264 -66.2158 -66.2107
   -66.1336 -66.1285 -66.0694 -66.0638 -40.3352 -40.2970 -40.2621 -40.2566
   -40.2384 -40.2364 -39.8163 -39.8156 -39.8072 -39.7707 -39.7598 -39.7583
   -39.6826 -39.6813 -39.6043 -39.5679 -39.5410 -39.5376 -32.6224 -32.6036
   -32.5380 -32.5277 -32.4338 -32.4333 -32.4311 -32.3983 -32.3722 -32.3616
   -32.3393 -32.3347 -32.3168 -32.2952 -32.2949 -32.2349 -32.2296 -32.2209
   -17.9251 -17.9243 -17.9232 -17.9228 -17.8976 -17.8939 -17.8764 -17.8727
   -17.8693 -17.8680 -17.8365 -17.8356 -17.8340 -17.8336 -17.8263 -17.8239
   -17.8219 -17.8192 -17.8174 -17.8137 -17.7978 -17.7942 -17.7898 -17.7885
   -17.7510 -17.7486 -17.7467 -17.7439 -17.7191 -17.7165 -17.7136 -17.7113
   -17.6979 -17.6962 -17.6923 -17.6909 -17.6882 -17.6882 -17.6760 -17.6754
   -17.6731 -17.6730  -2.9956  -2.8407  -1.7626  -1.6563  -1.5983  -1.3897
    -1.3473  -1.2509  -1.0354  -1.0062  -0.8404  -0.6848  -0.5773  -0.3589
    -0.3212  -0.2891  -0.0880  -0.0294   0.0010   0.0414   0.2892   0.3424
     0.3668   0.4521   0.5803   0.5919   0.8680   0.9843   1.0026   1.1566
     1.1902   1.2827   1.3194   1.3783   1.6642   1.9953   2.2144   2.5208
     2.5563   2.7776   3.3472   3.3588   3.5305   3.5497   3.6569   3.8244
     3.8568   3.9229   4.1074   4.2744   4.3942   4.4839   4.5439   4.5915
     4.7350   4.8010   4.8976   5.1070   5.1432   5.3263   6.0303   6.0341
     6.2223   6.2663   6.3914

          k = 0.0302-0.0781 0.0000 ( 32160 PWs)   bands (ev):

   -70.2869 -70.2866 -69.8003 -69.8000 -69.6280 -69.6276 -66.2133 -66.2130
   -66.1311 -66.1309 -66.0669 -66.0662 -40.3182 -40.3149 -40.2602 -40.2589
   -40.2400 -40.2373 -39.8182 -39.8148 -39.7913 -39.7880 -39.7600 -39.7585
   -39.6849 -39.6812 -39.5885 -39.5848 -39.5396 -39.5391 -32.6172 -32.6070
   -32.5327 -32.5307 -32.4352 -32.4275 -32.3811 -32.3714 -32.3611 -32.3611
   -32.3480 -32.3433 -32.3280 -32.2977 -32.2885 -32.2826 -32.2344 -32.2170
   -17.9247 -17.9246 -17.9231 -17.9229 -17.8958 -17.8957 -17.8746 -17.8745
   -17.8687 -17.8685 -17.8361 -17.8360 -17.8339 -17.8336 -17.8241 -17.8240
   -17.8218 -17.8212 -17.8156 -17.8154 -17.7960 -17.7960 -17.7892 -17.7890
   -17.7488 -17.7487 -17.7465 -17.7459 -17.7163 -17.7161 -17.7142 -17.7135
   -17.6971 -17.6969 -17.6916 -17.6915 -17.6882 -17.6882 -17.6747 -17.6746
   -17.6743 -17.6740  -3.4007  -2.5146  -1.8354  -1.7428  -1.7336  -1.5118
    -1.4398  -1.4271  -1.2107  -0.9588  -0.8741  -0.5332  -0.5274  -0.4762
    -0.3745  -0.2188  -0.0980  -0.0848  -0.0144   0.0825   0.1030   0.1770
     0.2907   0.4219   0.4551   0.5492   0.6617   0.9584   1.0584   1.1812
     1.1958   1.2932   1.5063   1.5142   1.7864   1.9350   2.4785   2.6144
     2.6647   3.1179   3.4468   3.5762   3.5972   3.6972   3.8328   3.8507
     3.8952   4.1181   4.2462   4.3523   4.4081   4.5219   4.5435   4.6984
     4.8418   4.9597   4.9854   5.1267   5.3193   5.3206   5.8825   6.0384
     6.1688   6.2119   6.3343

          k = 0.0302-0.0617 0.0000 ( 32215 PWs)   bands (ev):

   -70.2885 -70.2851 -69.8019 -69.7985 -69.6295 -69.6262 -66.2154 -66.2108
   -66.1333 -66.1286 -66.0686 -66.0645 -40.3395 -40.2948 -40.2613 -40.2583
   -40.2439 -40.2368 -39.8220 -39.8143 -39.8121 -39.7695 -39.7604 -39.7564
   -39.6889 -39.6804 -39.6093 -39.5656 -39.5415 -39.5371 -32.6113 -32.6105
   -32.5337 -32.5274 -32.4372 -32.4215 -32.4164 -32.3913 -32.3592 -32.3494
   -32.3311 -32.3281 -32.3259 -32.3013 -32.2949 -32.2407 -32.2364 -32.2130
   -17.9250 -17.9244 -17.9229 -17.9229 -17.8974 -17.8941 -17.8765 -17.8726
   -17.8691 -17.8681 -17.8364 -17.8357 -17.8337 -17.8337 -17.8261 -17.8233
   -17.8215 -17.8196 -17.8172 -17.8138 -17.7978 -17.7942 -17.7895 -17.7886
   -17.7508 -17.7480 -17.7463 -17.7443 -17.7190 -17.7157 -17.7131 -17.7119
   -17.6981 -17.6960 -17.6921 -17.6909 -17.6882 -17.6881 -17.6760 -17.6750
   -17.6732 -17.6730  -3.7916  -2.3314  -2.0328  -1.9726  -1.8783  -1.7523
    -1.6825  -1.5398  -1.4886  -1.1284  -1.0040  -0.5607  -0.4745  -0.4261
    -0.4039  -0.2996  -0.2287  -0.1203  -0.0749  -0.0060   0.1769   0.2144
     0.2348   0.3772   0.4500   0.5097   0.6859   0.9874   1.2319   1.2759
     1.4172   1.5408   1.6904   1.7923   1.9862   2.0236   2.6574   2.7010
     2.9980   3.4545   3.4894   3.6953   3.7362   3.7400   3.8304   3.9521
     4.0638   4.1151   4.3107   4.3277   4.5074   4.5679   4.6035   4.8209
     5.0238   5.0566   5.2321   5.4217   5.5168   5.7028   5.7617   6.0596
     6.0915   6.1991   6.2213

          k = 0.0302-0.0454 0.0000 ( 32239 PWs)   bands (ev):

   -70.2899 -70.2838 -69.8034 -69.7971 -69.6309 -69.6249 -66.2176 -66.2085
   -66.1355 -66.1262 -66.0708 -66.0621 -40.3593 -40.2763 -40.2637 -40.2565
   -40.2476 -40.2364 -39.8327 -39.8257 -39.8128 -39.7651 -39.7545 -39.7478
   -39.6927 -39.6798 -39.6284 -39.5483 -39.5428 -39.5353 -32.6141 -32.6055
   -32.5370 -32.5226 -32.4629 -32.4377 -32.4358 -32.4104 -32.3745 -32.3589
   -32.3404 -32.3226 -32.3000 -32.2781 -32.2513 -32.2408 -32.2098 -32.1898
   -17.9253 -17.9241 -17.9230 -17.9227 -17.8991 -17.8925 -17.8782 -17.8708
   -17.8696 -17.8675 -17.8368 -17.8353 -17.8337 -17.8335 -17.8277 -17.8252
   -17.8192 -17.8189 -17.8176 -17.8122 -17.7994 -17.7925 -17.7900 -17.7880
   -17.7524 -17.7499 -17.7439 -17.7422 -17.7215 -17.7178 -17.7103 -17.7097
   -17.6991 -17.6953 -17.6927 -17.6903 -17.6882 -17.6880 -17.6773 -17.6757
   -17.6721 -17.6715  -4.1245  -2.3410  -2.3252  -2.0859  -2.0652  -2.0029
    -1.8367  -1.7621  -1.6662  -1.3764  -1.0977  -0.7516  -0.5883  -0.5147
    -0.4683  -0.3940  -0.2507  -0.1896  -0.0840  -0.0704   0.1685   0.3056
     0.3620   0.5376   0.5485   0.6189   0.7896   1.0126   1.3760   1.5905
     1.6646   1.7912   1.7991   1.9936   2.0554   2.5493   2.7841   2.9121
     3.2987   3.4502   3.6476   3.7355   3.7498   3.8212   3.9252   3.9595
     4.1229   4.1919   4.2606   4.3658   4.5154   4.8005   4.8276   4.8436
     5.1130   5.2633   5.4504   5.5712   5.6057   5.6424   5.9584   6.0676
     6.2571   6.3558   6.4800

          k = 0.0302-0.0290 0.0000 ( 32241 PWs)   bands (ev):

   -70.2912 -70.2826 -69.8047 -69.7959 -69.6321 -69.6238 -66.2195 -66.2064
   -66.1374 -66.1242 -66.0728 -66.0601 -40.3760 -40.2658 -40.2603 -40.2549
   -40.2503 -40.2360 -39.8494 -39.8285 -39.8121 -39.7660 -39.7529 -39.7322
   -39.6955 -39.6793 -39.6446 -39.5453 -39.5337 -39.5321 -32.6176 -32.6003
   -32.5403 -32.5187 -32.5013 -32.4738 -32.4373 -32.4126 -32.4028 -32.3611
   -32.3375 -32.3148 -32.3020 -32.2449 -32.2346 -32.2080 -32.2075 -32.1477
   -17.9256 -17.9239 -17.9230 -17.9225 -17.9005 -17.8910 -17.8796 -17.8701
   -17.8693 -17.8670 -17.8372 -17.8350 -17.8338 -17.8333 -17.8292 -17.8269
   -17.8204 -17.8171 -17.8158 -17.8107 -17.8008 -17.7910 -17.7905 -17.7875
   -17.7538 -17.7516 -17.7419 -17.7405 -17.7236 -17.7196 -17.7080 -17.7078
   -17.7000 -17.6947 -17.6932 -17.6897 -17.6881 -17.6879 -17.6782 -17.6764
   -17.6710 -17.6701  -4.3709  -2.5873  -2.3979  -2.3178  -2.1700  -2.0679
    -2.0044  -1.9284  -1.7631  -1.5819  -1.2206  -0.8833  -0.8182  -0.6225
    -0.5839  -0.3146  -0.2778  -0.1760  -0.1633  -0.0441   0.1312   0.2704
     0.5132   0.6478   0.8001   0.8250   0.9683   1.0734   1.5517   1.8138
     1.8160   1.8319   2.0859   2.0903   2.3164   2.8067   3.1273   3.2407
     3.2678   3.4501   3.5922   3.7589   3.7776   3.8236   3.9108   4.0659
     4.1636   4.2353   4.3240   4.3654   4.7214   4.8870   4.9028   5.0401
     5.1221   5.2906   5.3228   5.6122   5.6709   5.8024   6.1399   6.1452
     6.2639   6.4769   6.6574

          k = 0.0453-0.0189 0.0000 ( 32197 PWs)   bands (ev):

   -70.2911 -70.2826 -69.8046 -69.7959 -69.6320 -69.6238 -66.2196 -66.2064
   -66.1375 -66.1242 -66.0730 -66.0600 -40.3750 -40.2658 -40.2605 -40.2545
   -40.2485 -40.2351 -39.8485 -39.8269 -39.8115 -39.7659 -39.7533 -39.7322
   -39.6938 -39.6788 -39.6434 -39.5452 -39.5338 -39.5320 -32.6197 -32.5997
   -32.5424 -32.5201 -32.5043 -32.4759 -32.4352 -32.4153 -32.4026 -32.3705
   -32.3487 -32.3055 -32.3054 -32.2421 -32.2339 -32.2101 -32.2083 -32.1478
   -17.9256 -17.9239 -17.9231 -17.9225 -17.9006 -17.8910 -17.8796 -17.8701
   -17.8693 -17.8670 -17.8372 -17.8350 -17.8338 -17.8333 -17.8293 -17.8269
   -17.8204 -17.8172 -17.8157 -17.8107 -17.8008 -17.7910 -17.7905 -17.7875
   -17.7539 -17.7516 -17.7420 -17.7404 -17.7237 -17.7197 -17.7081 -17.7077
   -17.6999 -17.6947 -17.6932 -17.6898 -17.6881 -17.6879 -17.6782 -17.6765
   -17.6710 -17.6701  -4.2417  -2.4825  -2.4310  -2.2321  -2.0958  -1.9301
    -1.9069  -1.8610  -1.6814  -1.5398  -1.2544  -0.7911  -0.7417  -0.5846
    -0.4745  -0.2622  -0.2506  -0.1659  -0.1203  -0.0259   0.1250   0.4026
     0.5044   0.6787   0.7803   0.7972   0.9288   1.2010   1.5332   1.7449
     1.7996   1.8170   2.0092   2.0506   2.2009   2.6698   2.9968   3.0273
     3.0707   3.3713   3.4798   3.5234   3.6264   3.7131   3.8678   3.9055
     4.0262   4.0863   4.2927   4.4703   4.6268   4.8469   4.8841   5.0235
     5.0904   5.1249   5.1842   5.3680   5.4514   5.6396   5.8573   6.1187
     6.2608   6.5599   6.6680

          k = 0.0453-0.0026 0.0000 ( 32192 PWs)   bands (ev):

   -70.2920 -70.2817 -69.8055 -69.7949 -69.6328 -69.6229 -66.2212 -66.2049
   -66.1390 -66.1227 -66.0746 -66.0584 -40.3869 -40.2671 -40.2530 -40.2505
   -40.2467 -40.2337 -39.8604 -39.8275 -39.8102 -39.7669 -39.7523 -39.7198
   -39.6942 -39.6775 -39.6548 -39.5462 -39.5326 -39.5202 -32.6245 -32.5958
   -32.5461 -32.5372 -32.5170 -32.5063 -32.4462 -32.4355 -32.4001 -32.3785
   -32.3502 -32.3107 -32.2980 -32.2408 -32.2103 -32.2019 -32.1771 -32.1160
   -17.9259 -17.9237 -17.9232 -17.9225 -17.9017 -17.8900 -17.8807 -17.8705
   -17.8681 -17.8666 -17.8375 -17.8348 -17.8340 -17.8332 -17.8305 -17.8283
   -17.8216 -17.8157 -17.8143 -17.8097 -17.8018 -17.7909 -17.7898 -17.7871
   -17.7551 -17.7530 -17.7405 -17.7390 -17.7255 -17.7212 -17.7066 -17.7062
   -17.7007 -17.6944 -17.6937 -17.6893 -17.6881 -17.6879 -17.6789 -17.6770
   -17.6701 -17.6690  -4.3116  -2.5614  -2.3735  -2.3485  -2.0891  -2.0375
    -1.9111  -1.8819  -1.6701  -1.6575  -1.2567  -0.8764  -0.8602  -0.6289
    -0.4796  -0.2788  -0.2180  -0.1381  -0.0503   0.1147   0.1319   0.3903
     0.6556   0.7580   0.9243   0.9250   1.1954   1.2883   1.5151   1.7110
     1.8154   1.9488   2.0950   2.2073   2.3752   2.8646   2.9072   2.9768
     3.1061   3.1747   3.3284   3.4683   3.5173   3.6573   3.7769   3.7847
     3.9302   3.9948   4.3918   4.5070   4.5887   4.8597   4.8655   5.0384
     5.2158   5.2437   5.2588   5.3943   5.5419   5.7994   5.9045   6.1413
     6.3097   6.6542   6.8783

          k = 0.0453 0.0138 0.0000 ( 32206 PWs)   bands (ev):

   -70.2925 -70.2811 -69.8061 -69.7943 -69.6333 -69.6224 -66.2222 -66.2040
   -66.1401 -66.1218 -66.0757 -66.0574 -40.3937 -40.2680 -40.2518 -40.2489
   -40.2397 -40.2320 -39.8672 -39.8268 -39.8088 -39.7675 -39.7519 -39.7118
   -39.6934 -39.6759 -39.6613 -39.5469 -39.5319 -39.5125 -32.6289 -32.5935
   -32.5591 -32.5489 -32.5267 -32.5156 -32.4670 -32.4374 -32.4018 -32.3858
   -32.3518 -32.3173 -32.2931 -32.2390 -32.2116 -32.1820 -32.1578 -32.0965
   -17.9261 -17.9236 -17.9233 -17.9224 -17.9025 -17.8894 -17.8814 -17.8708
   -17.8673 -17.8664 -17.8378 -17.8347 -17.8341 -17.8332 -17.8314 -17.8292
   -17.8224 -17.8149 -17.8134 -17.8091 -17.8024 -17.7912 -17.7891 -17.7869
   -17.7560 -17.7539 -17.7397 -17.7381 -17.7266 -17.7222 -17.7057 -17.7052
   -17.7012 -17.6942 -17.6940 -17.6891 -17.6882 -17.6880 -17.6793 -17.6774
   -17.6696 -17.6683  -4.2729  -2.5393  -2.3791  -2.2494  -2.0637  -2.0244
    -1.8862  -1.8483  -1.7014  -1.6005  -1.1721  -0.9342  -0.8934  -0.6245
    -0.4335  -0.2675  -0.2000  -0.1146   0.1273   0.1685   0.2437   0.3866
     0.7576   0.8626   0.9850   1.0483   1.3241   1.3365   1.4574   1.5919
     1.8140   1.9654   2.1663   2.1933   2.5367   2.6630   2.7820   2.9454
     2.9700   3.0353   3.1799   3.3009   3.3755   3.5975   3.6492   3.6612
     3.8753   3.9940   4.3543   4.4655   4.5488   4.6990   4.8146   4.9667
     5.3216   5.3438   5.3457   5.5083   5.7059   5.7686   5.9235   6.1811
     6.2424   6.4887   6.7515

          k = 0.0453 0.0302 0.0000 ( 32203 PWs)   bands (ev):

   -70.2926 -70.2810 -69.8062 -69.7941 -69.6335 -69.6222 -66.2227 -66.2037
   -66.1405 -66.1215 -66.0762 -66.0570 -40.3952 -40.2682 -40.2510 -40.2471
   -40.2369 -40.2305 -39.8686 -39.8251 -39.8076 -39.7676 -39.7521 -39.7089
   -39.6916 -39.6745 -39.6627 -39.5471 -39.5317 -39.5097 -32.6326 -32.5927
   -32.5694 -32.5504 -32.5350 -32.5155 -32.4761 -32.4408 -32.4070 -32.3904
   -32.3533 -32.3247 -32.2905 -32.2365 -32.2138 -32.1758 -32.1518 -32.0905
   -17.9262 -17.9236 -17.9235 -17.9224 -17.9028 -17.8892 -17.8816 -17.8709
   -17.8670 -17.8663 -17.8380 -17.8346 -17.8343 -17.8332 -17.8317 -17.8297
   -17.8227 -17.8147 -17.8131 -17.8089 -17.8026 -17.7913 -17.7888 -17.7868
   -17.7564 -17.7544 -17.7395 -17.7378 -17.7271 -17.7228 -17.7056 -17.7049
   -17.7014 -17.6941 -17.6941 -17.6890 -17.6883 -17.6880 -17.6795 -17.6776
   -17.6694 -17.6681  -4.1297  -2.4354  -2.3236  -2.1085  -1.9997  -1.9152
    -1.8059  -1.7742  -1.6630  -1.4814  -1.0533  -0.9375  -0.8382  -0.5781
    -0.3347  -0.2204  -0.1831  -0.0484   0.2021   0.2874   0.3479   0.4344
     0.7645   0.9251   0.9647   1.0637   1.2954   1.3819   1.3926   1.5590
     1.7332   1.9051   2.1450   2.2259   2.4074   2.4593   2.5847   2.7638
     2.7828   2.8180   3.0800   3.0976   3.2520   3.5329   3.5341   3.5794
     3.7886   3.8731   4.2279   4.4696   4.4716   4.5918   4.7460   4.8352
     5.2819   5.3113   5.3527   5.4444   5.7043   5.7368   5.8770   5.9340
     6.2746   6.4079   7.0040

          k = 0.0453 0.0465 0.0000 ( 32167 PWs)   bands (ev):

   -70.2923 -70.2812 -69.8059 -69.7943 -69.6332 -69.6224 -66.2225 -66.2040
   -66.1403 -66.1219 -66.0760 -66.0572 -40.3914 -40.2678 -40.2508 -40.2449
   -40.2392 -40.2295 -39.8648 -39.8229 -39.8069 -39.7672 -39.7527 -39.7115
   -39.6891 -39.6738 -39.6588 -39.5467 -39.5321 -39.5121 -32.6350 -32.5931
   -32.5666 -32.5504 -32.5308 -32.5164 -32.4725 -32.4447 -32.4142 -32.3915
   -32.3547 -32.3317 -32.2897 -32.2335 -32.2168 -32.1832 -32.1593 -32.0979
   -17.9261 -17.9236 -17.9235 -17.9225 -17.9025 -17.8895 -17.8814 -17.8708
   -17.8673 -17.8664 -17.8379 -17.8347 -17.8344 -17.8333 -17.8317 -17.8296
   -17.8225 -17.8153 -17.8134 -17.8091 -17.8024 -17.7913 -17.7891 -17.7869
   -17.7563 -17.7543 -17.7401 -17.7381 -17.7269 -17.7227 -17.7061 -17.7052
   -17.7011 -17.6943 -17.6940 -17.6891 -17.6884 -17.6881 -17.6793 -17.6776
   -17.6696 -17.6683  -3.8917  -2.3000  -2.1663  -2.0469  -1.8485  -1.7837
    -1.6657  -1.6263  -1.5480  -1.3333  -1.0176  -0.8094  -0.6976  -0.5089
    -0.2444  -0.1822  -0.1237   0.0391   0.2416   0.3148   0.4043   0.5505
     0.6756   0.7872   0.8980   1.1005   1.1068   1.2616   1.4810   1.5950
     1.6975   1.8218   1.9934   2.1063   2.1915   2.2901   2.4078   2.4644
     2.5843   2.5980   2.8751   3.0615   3.1965   3.2360   3.4803   3.5317
     3.7046   3.7108   4.2159   4.3767   4.3851   4.4796   4.4855   4.6939
     5.1721   5.2520   5.2839   5.3547   5.3625   5.7377   5.8053   5.9058
     6.1495   6.3573   6.4032

          k = 0.0453 0.0629 0.0000 ( 32198 PWs)   bands (ev):

   -70.2917 -70.2818 -69.8053 -69.7949 -69.6325 -69.6230 -66.2216 -66.2050
   -66.1395 -66.1228 -66.0752 -66.0581 -40.3826 -40.2670 -40.2513 -40.2479
   -40.2418 -40.2294 -39.8560 -39.8205 -39.8072 -39.7663 -39.7538 -39.7195
   -39.6866 -39.6741 -39.6501 -39.5459 -39.5329 -39.5198 -32.6355 -32.5945
   -32.5507 -32.5488 -32.5180 -32.5140 -32.4562 -32.4475 -32.4217 -32.3888
   -32.3558 -32.3374 -32.2901 -32.2302 -32.2204 -32.2033 -32.1793 -32.1180
   -17.9260 -17.9237 -17.9236 -17.9226 -17.9019 -17.8901 -17.8807 -17.8707
   -17.8681 -17.8666 -17.8377 -17.8348 -17.8344 -17.8334 -17.8311 -17.8289
   -17.8218 -17.8164 -17.8142 -17.8098 -17.8018 -17.7912 -17.7898 -17.7872
   -17.7558 -17.7536 -17.7412 -17.7389 -17.7259 -17.7219 -17.7073 -17.7060
   -17.7006 -17.6946 -17.6938 -17.6894 -17.6884 -17.6882 -17.6789 -17.6774
   -17.6702 -17.6690  -3.5746  -2.1606  -2.1130  -1.9395  -1.6379  -1.6245
    -1.5211  -1.3997  -1.3775  -1.1892  -0.9821  -0.6752  -0.4844  -0.4611
    -0.2138  -0.2107  -0.0284   0.0862   0.2322   0.2929   0.3537   0.4906
     0.6679   0.6852   0.8096   0.9431   0.9812   1.2358   1.4953   1.5394
     1.5406   1.6787   1.7593   1.8994   1.9502   1.9755   2.2215   2.3471
     2.4194   2.5972   2.6377   3.0476   3.1209   3.2163   3.4510   3.5339
     3.6347   3.6435   4.1033   4.1316   4.2703   4.3182   4.4437   4.6015
     5.0786   5.1285   5.1640   5.3124   5.4347   5.6317   5.7423   5.8587
     6.1017   6.3196   6.3655

          k = 0.0453-0.1171 0.0000 ( 32184 PWs)   bands (ev):

[...]
    -1.1425  -1.0575  -0.9886  -0.9660  -0.7291  -0.6407  -0.4840  -0.4051
    -0.0893  -0.0715   0.0026   0.0413   0.0415   0.2432   0.3138   0.3277
     0.5166   0.6048   0.6164   0.8358   0.9102   0.9982   1.0963   1.1312
     1.2186   1.2593   1.3894   1.5896   1.6258   1.8667   1.9897   2.2428
     2.3226   2.4477   2.7578   2.9044   3.1673   3.3047   3.3874   3.6548
     3.6769   3.8371   3.9688   4.1231   4.2462   4.2871   4.4288   4.6048
     4.8829   5.0016   5.0426   5.2208   5.2579   5.3571   5.4694   5.8782
     5.8827   5.9914   6.1060

          k = 0.0755-0.0807 0.0000 ( 32167 PWs)   bands (ev):

   -70.2895 -70.2840 -69.8030 -69.7972 -69.6304 -69.6251 -66.2182 -66.2084
   -66.1360 -66.1263 -66.0718 -66.0615 -40.3532 -40.2774 -40.2641 -40.2542
   -40.2386 -40.2330 -39.8265 -39.8166 -39.8110 -39.7637 -39.7569 -39.7491
   -39.6827 -39.6779 -39.6216 -39.5494 -39.5424 -39.5359 -32.6301 -32.5994
   -32.5418 -32.5232 -32.4818 -32.4478 -32.4443 -32.4326 -32.3889 -32.3739
   -32.3562 -32.3426 -32.2923 -32.2745 -32.2497 -32.2284 -32.2228 -32.1885
   -17.9254 -17.9241 -17.9235 -17.9228 -17.8993 -17.8924 -17.8781 -17.8709
   -17.8699 -17.8674 -17.8370 -17.8353 -17.8343 -17.8335 -17.8284 -17.8260
   -17.8199 -17.8192 -17.8172 -17.8121 -17.7994 -17.7925 -17.7904 -17.7879
   -17.7531 -17.7507 -17.7447 -17.7419 -17.7219 -17.7188 -17.7112 -17.7092
   -17.6989 -17.6956 -17.6929 -17.6903 -17.6884 -17.6883 -17.6773 -17.6763
   -17.6720 -17.6715  -2.8062  -2.6472  -1.9716  -1.6327  -1.4147  -1.2999
    -1.1562  -1.1089  -1.0111  -0.9041  -0.8748  -0.6449  -0.5723  -0.4234
    -0.2169  -0.1529  -0.0745   0.0099   0.1224   0.1901   0.2310   0.3504
     0.4067   0.4787   0.5207   0.7341   0.8488   0.9786   0.9825   1.0914
     1.1505   1.2294   1.3151   1.4290   1.6496   1.9859   2.0998   2.3603
     2.4231   2.6596   3.0669   3.1502   3.3434   3.4589   3.5126   3.7322
     3.7525   3.8761   4.0522   4.2566   4.3423   4.4211   4.4781   4.7489
     4.7874   4.9779   4.9937   5.1959   5.2815   5.5300   5.6516   5.9168
     6.0429   6.1757   6.2307

          k = 0.0755-0.0643 0.0000 ( 32164 PWs)   bands (ev):

   -70.2881 -70.2854 -69.8016 -69.7987 -69.6291 -69.6264 -66.2158 -66.2107
   -66.1336 -66.1285 -66.0694 -66.0638 -40.3352 -40.2970 -40.2621 -40.2566
   -40.2384 -40.2364 -39.8163 -39.8156 -39.8072 -39.7707 -39.7598 -39.7583
   -39.6826 -39.6813 -39.6043 -39.5679 -39.5410 -39.5376 -32.6224 -32.6036
   -32.5380 -32.5277 -32.4338 -32.4333 -32.4311 -32.3983 -32.3722 -32.3616
   -32.3393 -32.3347 -32.3168 -32.2952 -32.2949 -32.2349 -32.2296 -32.2209
   -17.9251 -17.9243 -17.9232 -17.9228 -17.8976 -17.8939 -17.8764 -17.8727
   -17.8693 -17.8680 -17.8365 -17.8356 -17.8340 -17.8336 -17.8263 -17.8239
   -17.8219 -17.8192 -17.8174 -17.8137 -17.7978 -17.7942 -17.7898 -17.7885
   -17.7510 -17.7486 -17.7467 -17.7439 -17.7191 -17.7165 -17.7136 -17.7113
   -17.6979 -17.6962 -17.6923 -17.6909 -17.6882 -17.6882 -17.6760 -17.6754
   -17.6731 -17.6730  -2.9956  -2.8407  -1.7626  -1.6563  -1.5983  -1.3897
    -1.3473  -1.2509  -1.0354  -1.0062  -0.8404  -0.6848  -0.5773  -0.3589
    -0.3212  -0.2891  -0.0880  -0.0294   0.0010   0.0414   0.2892   0.3424
     0.3668   0.4521   0.5803   0.5919   0.8680   0.9843   1.0026   1.1565
     1.1902   1.2827   1.3194   1.3783   1.6642   1.9953   2.2144   2.5208
     2.5563   2.7776   3.3472   3.3588   3.5305   3.5497   3.6569   3.8244
     3.8568   3.9229   4.1074   4.2744   4.3942   4.4839   4.5439   4.5915
     4.7350   4.8010   4.8976   5.1070   5.1432   5.3263   6.0303   6.0341
     6.2223   6.2663   6.3914

          k = 0.0755-0.0479 0.0000 ( 32183 PWs)   bands (ev):

   -70.2869 -70.2867 -69.8002 -69.8001 -69.6280 -69.6277 -66.2133 -66.2131
   -66.1311 -66.1309 -66.0668 -66.0664 -40.3177 -40.3157 -40.2599 -40.2591
   -40.2393 -40.2378 -39.8178 -39.8158 -39.7903 -39.7884 -39.7597 -39.7588
   -39.6842 -39.6821 -39.5876 -39.5855 -39.5395 -39.5392 -32.6147 -32.6087
   -32.5338 -32.5328 -32.4295 -32.4246 -32.3806 -32.3747 -32.3695 -32.3673
   -32.3463 -32.3439 -32.3167 -32.3015 -32.2861 -32.2833 -32.2303 -32.2202
   -17.9247 -17.9247 -17.9230 -17.9229 -17.8958 -17.8957 -17.8746 -17.8745
   -17.8686 -17.8686 -17.8361 -17.8360 -17.8338 -17.8337 -17.8241 -17.8240
   -17.8217 -17.8214 -17.8156 -17.8155 -17.7960 -17.7960 -17.7891 -17.7890
   -17.7488 -17.7488 -17.7463 -17.7461 -17.7163 -17.7162 -17.7141 -17.7137
   -17.6970 -17.6969 -17.6916 -17.6915 -17.6882 -17.6882 -17.6747 -17.6747
   -17.6742 -17.6741  -3.2834  -2.8273  -1.8188  -1.7872  -1.5162  -1.4949
    -1.4475  -1.4409  -1.1661  -1.1068  -0.8830  -0.7041  -0.4832  -0.3878
    -0.3800  -0.2083  -0.1695  -0.1336  -0.0325   0.0454   0.1753   0.2514
     0.3851   0.4315   0.6511   0.6599   0.9358   1.0219   1.0794   1.2407
     1.2412   1.3875   1.4043   1.5321   1.6880   1.9768   2.2797   2.6024
     2.7002   2.8122   3.4129   3.5175   3.6078   3.6723   3.8415   3.8429
     3.9269   4.0844   4.1864   4.2161   4.3617   4.4154   4.4971   4.5794
     4.6294   4.7080   4.8113   4.9200   5.1074   5.1947   6.0980   6.2430
     6.2523   6.3665   6.4849

          k =-0.0906 0.0379 0.0000 ( 32184 PWs)   bands (ev):

   -70.2868 -70.2867 -69.8002 -69.8001 -69.6280 -69.6277 -66.2132 -66.2132
   -66.1310 -66.1310 -66.0666 -66.0666 -40.3168 -40.3167 -40.2595 -40.2595
   -40.2385 -40.2385 -39.8170 -39.8169 -39.7892 -39.7892 -39.7593 -39.7592
   -39.6833 -39.6831 -39.5866 -39.5864 -39.5395 -39.5392 -32.6116 -32.6116
   -32.5340 -32.5340 -32.4247 -32.4247 -32.3793 -32.3792 -32.3707 -32.3707
   -32.3449 -32.3449 -32.3077 -32.3076 -32.2844 -32.2844 -32.2250 -32.2250
   -17.9247 -17.9247 -17.9230 -17.9230 -17.8958 -17.8958 -17.8746 -17.8746
   -17.8686 -17.8686 -17.8361 -17.8360 -17.8338 -17.8337 -17.8241 -17.8241
   -17.8215 -17.8215 -17.8155 -17.8155 -17.7960 -17.7960 -17.7891 -17.7891
   -17.7488 -17.7488 -17.7462 -17.7462 -17.7163 -17.7163 -17.7139 -17.7138
   -17.6970 -17.6970 -17.6916 -17.6916 -17.6882 -17.6882 -17.6747 -17.6747
   -17.6742 -17.6742  -3.0901  -3.0901  -1.8155  -1.8154  -1.4739  -1.4739
    -1.4298  -1.4298  -1.1496  -1.1496  -0.8381  -0.8381  -0.4214  -0.4213
    -0.3042  -0.3042  -0.1642  -0.1642   0.0076   0.0077   0.2776   0.2776
     0.3478   0.3478   0.8617   0.8617   0.9651   0.9651   1.2231   1.2232
     1.2829   1.2830   1.5533   1.5533   1.7145   1.7145   2.4097   2.4097
     2.7123   2.7123   3.4173   3.4173   3.6436   3.6437   3.8354   3.8354
     3.9429   3.9429   4.2379   4.2379   4.3820   4.3820   4.4050   4.4050
     4.5914   4.5914   4.8379   4.8379   5.1093   5.1094   6.2327   6.2328
     6.3124   6.3125   6.5679

          k =-0.0906 0.0543 0.0000 ( 32169 PWs)   bands (ev):

   -70.2882 -70.2853 -69.8017 -69.7986 -69.6292 -69.6264 -66.2157 -66.2107
   -66.1335 -66.1285 -66.0692 -66.0640 -40.3365 -40.2966 -40.2619 -40.2570
   -40.2398 -40.2364 -39.8180 -39.8164 -39.8073 -39.7702 -39.7600 -39.7578
   -39.6844 -39.6811 -39.6055 -39.5672 -39.5412 -39.5375 -32.6188 -32.6053
   -32.5386 -32.5293 -32.4293 -32.4292 -32.4251 -32.3946 -32.3779 -32.3671
   -32.3367 -32.3303 -32.3107 -32.2984 -32.2955 -32.2362 -32.2249 -32.2244
   -17.9251 -17.9244 -17.9231 -17.9228 -17.8976 -17.8940 -17.8764 -17.8727
   -17.8692 -17.8680 -17.8365 -17.8356 -17.8339 -17.8336 -17.8262 -17.8237
   -17.8218 -17.8193 -17.8174 -17.8137 -17.7978 -17.7942 -17.7897 -17.7885
   -17.7510 -17.7484 -17.7466 -17.7440 -17.7191 -17.7163 -17.7135 -17.7115
   -17.6979 -17.6962 -17.6922 -17.6909 -17.6882 -17.6882 -17.6760 -17.6753
   -17.6731 -17.6730  -3.2014  -2.8992  -1.8382  -1.7398  -1.5551  -1.4879
    -1.4018  -1.3402  -1.1676  -1.1185  -1.0370  -0.6456  -0.5043  -0.3509
    -0.3018  -0.2503  -0.1620  -0.1517   0.0069   0.0840   0.1595   0.3325
     0.3669   0.4143   0.8549   0.8962   0.9535   0.9539   1.2264   1.2336
     1.2688   1.3100   1.4973   1.6024   1.6429   1.8127   2.3635   2.4399
     2.6236   2.7018   3.3668   3.3816   3.5643   3.6321   3.6433   3.8488
     3.8494   4.0305   4.0381   4.2077   4.2793   4.3659   4.4544   4.6000
     4.6428   4.7623   4.7703   5.0360   5.1058   5.2477   6.0518   6.2189
     6.3064   6.3822   6.5190

          k =-0.0906 0.0706 0.0000 ( 32167 PWs)   bands (ev):

   -70.2896 -70.2839 -69.8031 -69.7972 -69.6305 -69.6251 -66.2181 -66.2084
   -66.1359 -66.1263 -66.0716 -66.0616 -40.3544 -40.2773 -40.2639 -40.2546
   -40.2402 -40.2336 -39.8282 -39.8184 -39.8109 -39.7640 -39.7564 -39.7487
   -39.6847 -39.6784 -39.6228 -39.5491 -39.5425 -39.5357 -32.6265 -32.6004
   -32.5426 -32.5248 -32.4783 -32.4468 -32.4376 -32.4225 -32.3872 -32.3810
   -32.3591 -32.3302 -32.2940 -32.2744 -32.2495 -32.2261 -32.2247 -32.1884
   -17.9254 -17.9241 -17.9233 -17.9228 -17.8993 -17.8924 -17.8781 -17.8709
   -17.8698 -17.8674 -17.8370 -17.8353 -17.8341 -17.8336 -17.8283 -17.8258
   -17.8198 -17.8191 -17.8173 -17.8121 -17.7994 -17.7925 -17.7903 -17.7879
   -17.7530 -17.7505 -17.7445 -17.7420 -17.7218 -17.7186 -17.7110 -17.7093
   -17.6989 -17.6955 -17.6929 -17.6903 -17.6883 -17.6882 -17.6773 -17.6762
   -17.6720 -17.6715  -3.2357  -2.6355  -1.8321  -1.7358  -1.6249  -1.4586
    -1.2774  -1.2584  -1.2301  -1.1277  -1.0407  -0.6009  -0.5274  -0.3394
    -0.2008  -0.1825  -0.1349  -0.0360   0.0249   0.0421   0.2199   0.4079
     0.4373   0.4733   0.8025   0.9065   0.9796   0.9832   1.1712   1.2936
     1.3287   1.3337   1.4600   1.6324   1.6385   1.8864   2.3013   2.4149
     2.4981   2.5952   3.1169   3.2682   3.3875   3.5069   3.5503   3.7513
     3.7675   3.8517   4.0203   4.0723   4.2630   4.3574   4.5039   4.7187
     4.7789   4.8619   4.9570   5.2035   5.3297   5.4344   5.8689   6.1144
     6.1553   6.3964   6.5018

          k =-0.0906 0.0870 0.0000 ( 32184 PWs)   bands (ev):

   -70.2907 -70.2827 -69.8043 -69.7959 -69.6316 -69.6239 -66.2202 -66.2065
   -66.1380 -66.1244 -66.0738 -66.0596 -40.3696 -40.2658 -40.2604 -40.2525
   -40.2400 -40.2306 -39.8429 -39.8183 -39.8085 -39.7651 -39.7553 -39.7324
   -39.6844 -39.6754 -39.6374 -39.5448 -39.5342 -39.5321 -32.6339 -32.5967
   -32.5459 -32.5246 -32.5175 -32.4857 -32.4476 -32.4287 -32.4273 -32.3827
   -32.3563 -32.3411 -32.2910 -32.2351 -32.2261 -32.2243 -32.2102 -32.1490
   -17.9258 -17.9239 -17.9236 -17.9227 -17.9008 -17.8911 -17.8796 -17.8703
   -17.8693 -17.8670 -17.8374 -17.8350 -17.8344 -17.8335 -17.8300 -17.8277
   -17.8207 -17.8180 -17.8155 -17.8108 -17.8008 -17.7910 -17.7908 -17.7875
   -17.7547 -17.7524 -17.7428 -17.7402 -17.7242 -17.7206 -17.7090 -17.7074
   -17.6999 -17.6950 -17.6934 -17.6898 -17.6884 -17.6883 -17.6782 -17.6770
   -17.6710 -17.6702  -3.2011  -2.3187  -2.0350  -1.7315  -1.5004  -1.4015
    -1.3120  -1.2095  -1.1627  -1.1030  -0.9110  -0.6362  -0.4796  -0.3430
    -0.1609  -0.1410  -0.0168   0.0267   0.0279   0.2041   0.3278   0.4456
     0.5353   0.5634   0.7276   0.8759   1.0587   1.1195   1.1235   1.2956
     1.4072   1.4188   1.4686   1.6592   1.7176   1.8766   2.1847   2.3007
     2.4311   2.4366   2.7922   3.0404   3.2086   3.3326   3.4708   3.5879
     3.6711   3.7791   3.9889   4.0246   4.2130   4.3235   4.4751   4.6059
     4.9276   5.0027   5.1160   5.3108   5.3723   5.6128   5.7246   5.7886
     6.1112   6.1892   6.3217

          k =-0.0906 0.1034 0.0000 ( 32182 PWs)   bands (ev):

   -70.2916 -70.2818 -69.8052 -69.7949 -69.6324 -69.6230 -66.2218 -66.2050
   -66.1396 -66.1229 -66.0754 -66.0581 -40.3810 -40.2670 -40.2508 -40.2473
   -40.2395 -40.2279 -39.8543 -39.8179 -39.8061 -39.7661 -39.7544 -39.7194
   -39.6838 -39.6727 -39.6484 -39.5458 -39.5331 -39.5196 -32.6400 -32.5942
   -32.5554 -32.5483 -32.5180 -32.5159 -32.4597 -32.4568 -32.4326 -32.3833
   -32.3543 -32.3517 -32.2893 -32.2271 -32.2239 -32.2039 -32.1801 -32.1188
   -17.9260 -17.9237 -17.9237 -17.9227 -17.9019 -17.8901 -17.8807 -17.8707
   -17.8681 -17.8666 -17.8378 -17.8349 -17.8346 -17.8335 -17.8313 -17.8291
   -17.8218 -17.8167 -17.8142 -17.8098 -17.8018 -17.7912 -17.7898 -17.7872
   -17.7560 -17.7538 -17.7415 -17.7389 -17.7261 -17.7222 -17.7076 -17.7060
   -17.7006 -17.6946 -17.6939 -17.6894 -17.6885 -17.6883 -17.6789 -17.6776
   -17.6702 -17.6691  -3.1088  -2.2982  -1.9855  -1.6669  -1.4086  -1.4006
    -1.3278  -1.1874  -1.1743  -0.9202  -0.7986  -0.6144  -0.4083  -0.3389
    -0.1799  -0.1276  -0.0064   0.0763   0.2445   0.2787   0.3837   0.4755
     0.6590   0.7028   0.8126   0.8601   1.0575   1.2108   1.2178   1.3318
     1.4883   1.5139   1.5786   1.6348   1.7736   1.8690   2.0367   2.1502
     2.2325   2.4418   2.4925   2.7947   3.0520   3.1591   3.3881   3.3931
     3.5920   3.6061   3.9359   4.0191   4.2235   4.2298   4.3564   4.3908
     4.9476   4.9998   5.1286   5.1996   5.2573   5.3864   5.5375   5.7772
     5.9900   6.0593   6.3231

          k =-0.0906 0.1197 0.0000 ( 32199 PWs)   bands (ev):

   -70.2921 -70.2812 -69.8057 -69.7943 -69.6330 -69.6224 -66.2228 -66.2041
   -66.1407 -66.1220 -66.0764 -66.0571 -40.3881 -40.2678 -40.2497 -40.2393
   -40.2387 -40.2260 -39.8614 -39.8176 -39.8044 -39.7669 -39.7539 -39.7111
   -39.6833 -39.6709 -39.6553 -39.5465 -39.5323 -39.5116 -32.6441 -32.5927
   -32.5766 -32.5497 -32.5367 -32.5151 -32.4800 -32.4633 -32.4356 -32.3828
   -32.3597 -32.3534 -32.2885 -32.2274 -32.2236 -32.1848 -32.1613 -32.0999
   -17.9262 -17.9239 -17.9236 -17.9227 -17.9027 -17.8895 -17.8814 -17.8710
   -17.8673 -17.8664 -17.8380 -17.8348 -17.8347 -17.8335 -17.8322 -17.8301
   -17.8226 -17.8158 -17.8133 -17.8092 -17.8024 -17.7915 -17.7891 -17.7869
   -17.7569 -17.7548 -17.7407 -17.7380 -17.7272 -17.7233 -17.7068 -17.7051
   -17.7011 -17.6944 -17.6942 -17.6891 -17.6886 -17.6884 -17.6794 -17.6780
   -17.6697 -17.6683  -2.9712  -2.5420  -1.6932  -1.6172  -1.4559  -1.3444
    -1.3345  -1.2134  -1.1355  -0.8115  -0.7184  -0.4982  -0.3274  -0.3263
    -0.1865  -0.1579  -0.0778   0.1325   0.1663   0.4142   0.5266   0.5856
     0.6788   0.8441   0.8930   1.0428   1.0793   1.1742   1.3397   1.3889
     1.4753   1.5967   1.6435   1.7239   1.7815   1.8831   1.9125   2.0252
     2.1382   2.3117   2.4658   2.5957   2.9125   3.0128   3.1539   3.3040
     3.3695   3.5536   3.8756   3.9087   4.1393   4.1949   4.2167   4.3147
     4.7086   4.8703   4.9672   5.1408   5.2337   5.2600   5.5411   5.5936
     6.0647   6.1813   6.8473

          k =-0.0906-0.0603 0.0000 ( 32226 PWs)   bands (ev):

   -70.2923 -70.2810 -69.8059 -69.7941 -69.6331 -69.6222 -66.2232 -66.2038
   -66.1410 -66.1217 -66.0768 -66.0568 -40.3906 -40.2681 -40.2493 -40.2389
   -40.2360 -40.2253 -39.8639 -39.8174 -39.8038 -39.7671 -39.7537 -39.7082
   -39.6831 -39.6702 -39.6576 -39.5467 -39.5321 -39.5089 -32.6456 -32.5922
   -32.5838 -32.5502 -32.5435 -32.5145 -32.4870 -32.4656 -32.4366 -32.3822
   -32.3629 -32.3532 -32.2883 -32.2275 -32.2235 -32.1783 -32.1548 -32.0934
   -17.9263 -17.9239 -17.9236 -17.9227 -17.9029 -17.8893 -17.8816 -17.8710
   -17.8671 -17.8664 -17.8381 -17.8348 -17.8347 -17.8335 -17.8325 -17.8304
   -17.8228 -17.8155 -17.8131 -17.8090 -17.8026 -17.7916 -17.7889 -17.7869
   -17.7572 -17.7551 -17.7404 -17.7378 -17.7277 -17.7236 -17.7065 -17.7048
   -17.7013 -17.6944 -17.6942 -17.6891 -17.6886 -17.6884 -17.6795 -17.6781
   -17.6695 -17.6681  -2.8450  -2.7038  -1.5989  -1.5496  -1.4740  -1.3444
    -1.3241  -1.2626  -1.1110  -0.8024  -0.6456  -0.4238  -0.2835  -0.2709
    -0.2300  -0.1984  -0.1552   0.1288   0.1576   0.4798   0.5863   0.6703
     0.6724   0.8962   0.9019   1.0894   1.1621   1.2420   1.3078   1.4047
     1.4208   1.6204   1.7326   1.7433   1.7653   1.7985   1.9524   2.0330
     2.0684   2.3487   2.4784   2.5086   2.8354   2.8609   3.0821   3.2607
     3.2657   3.5308   3.7974   3.8489   4.1060   4.1593   4.1713   4.3669
     4.5688   4.8335   4.8546   5.1029   5.2299   5.3159   5.4957   5.5565
     6.0779   6.2779   6.9007

     the Fermi energy is     2.9004 ev

!    total energy              =   -5280.52604441 Ry
     estimated scf accuracy    <       0.00000302 Ry
     smearing contrib. (-TS)   =      -0.04580378 Ry
     internal energy E=F+TS    =   -5280.48024063 Ry

     The total energy is F=E-TS. E is the sum of the following terms:
     one-electron contribution =  -38032.11263251 Ry
     hartree contribution      =   19117.02368144 Ry
     xc contribution           =    -593.87264732 Ry
     ewald contribution        =   14228.48134653 Ry
     electric field correction =       0.00001123 Ry

     convergence has been achieved in  15 iterations

     negative rho (up, down):  1.210E-03 0.000E+00

     Forces acting on atoms (cartesian axes, Ry/au):

     atom    1 type  1   force =    -0.00098327   -0.00065389    0.04634321
     atom    2 type  1   force =    -0.00098356   -0.00065507    0.04635324
     atom    3 type  2   force =    -0.01663123   -0.01108848   -0.00916178
     atom    4 type  2   force =    -0.01664402   -0.01106347   -0.00916200
     atom    5 type  1   force =     0.00598778    0.00398645   -0.00269740
     atom    6 type  1   force =     0.00596961    0.00397441   -0.00270245
     atom    7 type  2   force =     0.01160598    0.00759521   -0.03300965
     atom    8 type  2   force =     0.01148405    0.00777683   -0.03301065
     atom    9 type  1   force =     0.00013613    0.00009066    0.00039348
     atom   10 type  1   force =     0.00013981    0.00009268    0.00039693
     atom   11 type  2   force =    -0.00005079   -0.00000954   -0.00187203
     atom   12 type  2   force =    -0.00003049   -0.00004579   -0.00187089

     Total force =     0.089192     Total SCF correction =     0.011185
     SCF correction compared to forces is large: reduce conv_thr to get better values

     Writing output data file ./Ru2Ta2/Ru2Ta2_beef.save/

     init_run     :    243.38s CPU    244.48s WALL (       1 calls)
     electrons    :   7969.67s CPU   7992.73s WALL (       1 calls)
     forces       :    105.17s CPU    105.56s WALL (       1 calls)

     Called by init_run:
     wfcinit      :    231.53s CPU    232.38s WALL (       1 calls)
     potinit      :      7.52s CPU      7.58s WALL (       1 calls)
     hinit0       :      2.21s CPU      2.23s WALL (       1 calls)

     Called by electrons:
     c_bands      :   7121.26s CPU   7135.51s WALL (      15 calls)
     sum_band     :    801.98s CPU    807.54s WALL (      15 calls)
     v_of_rho     :     25.53s CPU     26.35s WALL (      16 calls)
     newd         :     25.85s CPU     28.28s WALL (      16 calls)
     mix_rho      :      2.44s CPU      2.45s WALL (      15 calls)
     vdW_kernel   :      5.72s CPU      5.73s WALL (       1 calls)

     Called by c_bands:
     init_us_2    :     11.59s CPU     11.64s WALL (    2368 calls)
     cegterg      :   7056.46s CPU   7069.30s WALL (    1110 calls)

     Called by *egterg:
     cdiaghg      :    441.15s CPU    441.22s WALL (    4592 calls)
     h_psi        :   3949.59s CPU   3960.00s WALL (    4666 calls)
     s_psi        :    764.98s CPU    765.21s WALL (    4666 calls)
     g_psi        :      1.34s CPU      1.35s WALL (    3482 calls)

     Called by h_psi:
     h_psi:calbec :    866.68s CPU    868.48s WALL (    4666 calls)
     vloc_psi     :   2276.63s CPU   2284.90s WALL (    4666 calls)
     add_vuspsi   :    799.76s CPU    800.00s WALL (    4666 calls)

     General routines
     calbec       :   1326.94s CPU   1329.71s WALL (    6072 calls)
     fft          :     16.70s CPU     17.06s WALL (    1067 calls)
     ffts         :      0.33s CPU      0.33s WALL (      31 calls)
     fftw         :   2636.80s CPU   2646.87s WALL (  938490 calls)
     interpolate  :      0.40s CPU      0.41s WALL (      16 calls)

     Parallel routines
     fft_scatt_xy :     53.57s CPU     54.26s WALL (  939588 calls)
     fft_scatt_yz :   2081.99s CPU   2085.61s WALL (  939588 calls)

     PWSCF        :      2h18m CPU      2h19m WALL


   This run was terminated on:  20:55:42  25Jun2022            

=------------------------------------------------------------------------------=
   JOB DONE.
=------------------------------------------------------------------------------=
