
     Program PWSCF v.6.6 starts on 24Jun2022 at 16:10: 8 

     This program is part of the open-source Quantum ESPRESSO suite
     for quantum simulation of materials; please cite
         "P. Giannozzi et al., J. Phys.:Condens. Matter 21 395502 (2009);
         "P. Giannozzi et al., J. Phys.:Condens. Matter 29 465901 (2017);
          URL http://www.quantum-espresso.org", 
     in publications or presentations arising from this work. More details at
     http://www.quantum-espresso.org/quote

     Parallel version (MPI), running on    37 processors

     MPI processes distributed on     1 nodes
     R & G space division:  proc/nbgrp/npool/nimage =      37
     Fft bands division:     nmany     =       1
     Reading input from Ru2W2.in
Warning: card &CELL ignored
Warning: card / ignored

     Current dimensions of program PWSCF are:
     Max number of different atomic species (ntypx) = 10
     Max number of k-points (npk) =  40000
     Max angular momentum in pseudopotentials (lmaxx) =  3
     Presently stress not available with electric field and gates

     Message from routine cell_base_init:
     DEPRECATED: use true lattice parameter, not A to a.u. conversion factor
     Message from routine emend_upf/check:
     BEWARE !!! Possible out of bounds while fixing pseudo
     Message from routine emend_upf/check:
     BEWARE !!! Possible out of bounds while fixing pseudo
     Message from routine read_upf:
     Pseudo file W.pbe-spn-rrkjus_psl.0.2.3.UPF has been fixed on the fly.
     To avoid this message in the future, permanently fix 
     your pseudo files following these instructions: 
     https://gitlab.com/QEF/q-e/blob/master/upftools/how_to_fix_upf.md

     **************************************************************************
     Initializing libbeef V0.1.2 with the BEEF-vdW functional.
     Citation: Wellendorff et al., PRB 85, 235149 (2012).
     **************************************************************************


     IMPORTANT: XC functional enforced from input :
     Exchange-correlation= BEEF-VDW
                           (   1   4  43  14   2   0   0)
     Any further DFT definition will be discarded
     Please, verify this is what you really want


     Subspace diagonalization in iterative solution of the eigenvalue problem:
     a serial algorithm will be used

     Found symmetry operation: I + ( -0.5000  0.5000  0.0000)
     This is a supercell, fractional translations are disabled

     Parallelization info
     --------------------
     sticks:   dense  smooth     PW     G-vecs:    dense   smooth      PW
     Min         112      45     13                26008     6566    1013
     Max         113      46     14                26023     6591    1024
     Sum        4161    1667    487               962499   243581   37711



     bravais-lattice index     =            0
     lattice parameter (alat)  =       1.8897  a.u.
     unit-cell volume          =    4405.1293 (a.u.)^3
     number of atoms/cell      =           12
     number of atomic types    =            2
     number of electrons       =       180.00
     number of Kohn-Sham states=          108
     kinetic-energy cutoff     =      55.1240  Ry
     charge density cutoff     =     551.2396  Ry
     convergence threshold     =      1.0E-05
     mixing beta               =       0.1000
     number of iterations used =           10  plain     mixing
     Exchange-correlation= BEEF-VDW
                           (   1   4  43  14   2   0   0)

     celldm(1)=   1.889726  celldm(2)=   0.000000  celldm(3)=   0.000000
     celldm(4)=   0.000000  celldm(5)=   0.000000  celldm(6)=   0.000000

     crystal axes: (cart. coord. in units of alat)
               a(1) = (   5.516589   0.000000   0.000000 )  
               a(2) = (   2.674687   4.824811   0.000000 )  
               a(3) = (   0.000000   0.000000  24.525124 )  

     reciprocal axes: (cart. coord. in units 2 pi/alat)
               b(1) = (  0.181271 -0.100490  0.000000 )  
               b(2) = (  0.000000  0.207262  0.000000 )  
               b(3) = (  0.000000  0.000000  0.040775 )  


     PseudoPot. # 1 for Ru read from file:
     ../pseudo/Ru.pbe-spn-rrkjus_psl.1.0.0.UPF
     MD5 check sum: fbaca725316a1a65f98761fd4ac95971
     Pseudo is Ultrasoft + core correction, Zval = 16.0
     Generated using "atomic" code by A. Dal Corso v.6.2.2
     Using radial grid of 1233 points,  6 beta functions with: 
                l(1) =   0
                l(2) =   0
                l(3) =   1
                l(4) =   1
                l(5) =   2
                l(6) =   2
     Q(r) pseudized with 0 coefficients 


     PseudoPot. # 2 for W  read from file:
     ../pseudo/W.pbe-spn-rrkjus_psl.0.2.3.UPF
     MD5 check sum: 25b665cf2bbae626ad8d9f1bc024df95
     Pseudo is Ultrasoft + core correction, Zval = 14.0
     Generated using "atomic" code by A. Dal Corso v.5.0.2 svn rev. 10551
     Using radial grid of 1273 points,  6 beta functions with: 
                l(1) =   0
                l(2) =   0
                l(3) =   1
                l(4) =   1
                l(5) =   2
                l(6) =   2
     Q(r) pseudized with 0 coefficients 


     atomic species   valence    mass     pseudopotential
        Ru            16.00   101.07000     Ru( 1.00)
        W             14.00   183.84000     W ( 1.00)

     No symmetry found



   Cartesian axes

     site n.     atom                  positions (alat units)
         1           Ru  tau(   1) = (   0.0000000   0.0000000  10.0000000  )
         2           Ru  tau(   2) = (   4.0956381   2.4124053  10.0000000  )
         3           W   tau(   3) = (   2.7582944   0.0000000  10.0000000  )
         4           W   tau(   4) = (   1.3373437   2.4124053  10.0000000  )
         5           Ru  tau(   5) = (   5.5165887   3.2493711  12.2625622  )
         6           Ru  tau(   6) = (   1.4209506   0.8369658  12.2625622  )
         7           W   tau(   7) = (   2.7582944   3.2493711  12.2625622  )
         8           W   tau(   8) = (   4.1792450   0.8369658  12.2625622  )
         9           Ru  tau(   9) = (   2.8267228   1.6649918  14.4629572  )
        10           Ru  tau(  10) = (   6.9223615   4.0773954  14.4629568  )
        11           W   tau(  11) = (   5.5863465   1.6657743  14.3899551  )
        12           W   tau(  12) = (   4.1653948   4.0781791  14.3899543  )

     number of k points=    74  Fermi-Dirac smearing, width (Ry)=  0.0100
                       cart. coord. in units 2pi/alat
        k(    1) = (   0.0000000   0.0000000   0.0000000), wk =   0.0138889
        k(    2) = (   0.0000000   0.0172718   0.0000000), wk =   0.0277778
        k(    3) = (   0.0000000   0.0345437   0.0000000), wk =   0.0277778
        k(    4) = (   0.0000000   0.0518155   0.0000000), wk =   0.0277778
        k(    5) = (   0.0000000   0.0690873   0.0000000), wk =   0.0277778
        k(    6) = (   0.0000000   0.0863592   0.0000000), wk =   0.0277778
        k(    7) = (   0.0000000  -0.1036310   0.0000000), wk =   0.0138889
        k(    8) = (   0.0151060  -0.0083742   0.0000000), wk =   0.0277778
        k(    9) = (   0.0151060   0.0088977   0.0000000), wk =   0.0277778
        k(   10) = (   0.0151060   0.0261695   0.0000000), wk =   0.0277778
        k(   11) = (   0.0151060   0.0434414   0.0000000), wk =   0.0277778
        k(   12) = (   0.0151060   0.0607132   0.0000000), wk =   0.0277778
        k(   13) = (   0.0151060   0.0779850   0.0000000), wk =   0.0277778
        k(   14) = (   0.0151060  -0.1120052   0.0000000), wk =   0.0277778
        k(   15) = (   0.0151060  -0.0947333   0.0000000), wk =   0.0277778
        k(   16) = (   0.0151060  -0.0774615   0.0000000), wk =   0.0277778
        k(   17) = (   0.0151060  -0.0601897   0.0000000), wk =   0.0277778
        k(   18) = (   0.0151060  -0.0429178   0.0000000), wk =   0.0277778
        k(   19) = (   0.0151060  -0.0256460   0.0000000), wk =   0.0277778
        k(   20) = (   0.0302119  -0.0167483   0.0000000), wk =   0.0277778
        k(   21) = (   0.0302119   0.0005235   0.0000000), wk =   0.0277778
        k(   22) = (   0.0302119   0.0177954   0.0000000), wk =   0.0277778
        k(   23) = (   0.0302119   0.0350672   0.0000000), wk =   0.0277778
        k(   24) = (   0.0302119   0.0523390   0.0000000), wk =   0.0277778
        k(   25) = (   0.0302119   0.0696109   0.0000000), wk =   0.0277778
        k(   26) = (   0.0302119  -0.1203793   0.0000000), wk =   0.0277778
        k(   27) = (   0.0302119  -0.1031075   0.0000000), wk =   0.0277778
        k(   28) = (   0.0302119  -0.0858356   0.0000000), wk =   0.0277778
        k(   29) = (   0.0302119  -0.0685638   0.0000000), wk =   0.0277778
        k(   30) = (   0.0302119  -0.0512920   0.0000000), wk =   0.0277778
        k(   31) = (   0.0302119  -0.0340201   0.0000000), wk =   0.0277778
        k(   32) = (   0.0453179  -0.0251225   0.0000000), wk =   0.0277778
        k(   33) = (   0.0453179  -0.0078506   0.0000000), wk =   0.0277778
        k(   34) = (   0.0453179   0.0094212   0.0000000), wk =   0.0277778
        k(   35) = (   0.0453179   0.0266930   0.0000000), wk =   0.0277778
        k(   36) = (   0.0453179   0.0439649   0.0000000), wk =   0.0277778
        k(   37) = (   0.0453179   0.0612367   0.0000000), wk =   0.0277778
        k(   38) = (   0.0453179  -0.1287535   0.0000000), wk =   0.0277778
        k(   39) = (   0.0453179  -0.1114816   0.0000000), wk =   0.0277778
        k(   40) = (   0.0453179  -0.0942098   0.0000000), wk =   0.0277778
        k(   41) = (   0.0453179  -0.0769380   0.0000000), wk =   0.0277778
        k(   42) = (   0.0453179  -0.0596661   0.0000000), wk =   0.0277778
        k(   43) = (   0.0453179  -0.0423943   0.0000000), wk =   0.0277778
        k(   44) = (   0.0604238  -0.0334966   0.0000000), wk =   0.0277778
        k(   45) = (   0.0604238  -0.0162248   0.0000000), wk =   0.0277778
        k(   46) = (   0.0604238   0.0010471   0.0000000), wk =   0.0277778
        k(   47) = (   0.0604238   0.0183189   0.0000000), wk =   0.0277778
        k(   48) = (   0.0604238   0.0355907   0.0000000), wk =   0.0277778
        k(   49) = (   0.0604238   0.0528626   0.0000000), wk =   0.0277778
        k(   50) = (   0.0604238  -0.1371276   0.0000000), wk =   0.0277778
        k(   51) = (   0.0604238  -0.1198558   0.0000000), wk =   0.0277778
        k(   52) = (   0.0604238  -0.1025839   0.0000000), wk =   0.0277778
        k(   53) = (   0.0604238  -0.0853121   0.0000000), wk =   0.0277778
        k(   54) = (   0.0604238  -0.0680403   0.0000000), wk =   0.0277778
        k(   55) = (   0.0604238  -0.0507684   0.0000000), wk =   0.0277778
        k(   56) = (   0.0755298  -0.0418708   0.0000000), wk =   0.0277778
        k(   57) = (   0.0755298  -0.0245989   0.0000000), wk =   0.0277778
        k(   58) = (   0.0755298  -0.0073271   0.0000000), wk =   0.0277778
        k(   59) = (   0.0755298   0.0099447   0.0000000), wk =   0.0277778
        k(   60) = (   0.0755298   0.0272166   0.0000000), wk =   0.0277778
        k(   61) = (   0.0755298   0.0444884   0.0000000), wk =   0.0277778
        k(   62) = (   0.0755298  -0.1455018   0.0000000), wk =   0.0277778
        k(   63) = (   0.0755298  -0.1282299   0.0000000), wk =   0.0277778
        k(   64) = (   0.0755298  -0.1109581   0.0000000), wk =   0.0277778
        k(   65) = (   0.0755298  -0.0936863   0.0000000), wk =   0.0277778
        k(   66) = (   0.0755298  -0.0764144   0.0000000), wk =   0.0277778
        k(   67) = (   0.0755298  -0.0591426   0.0000000), wk =   0.0277778
        k(   68) = (  -0.0906357   0.0502449   0.0000000), wk =   0.0138889
        k(   69) = (  -0.0906357   0.0675167   0.0000000), wk =   0.0277778
        k(   70) = (  -0.0906357   0.0847886   0.0000000), wk =   0.0277778
        k(   71) = (  -0.0906357   0.1020604   0.0000000), wk =   0.0277778
        k(   72) = (  -0.0906357   0.1193322   0.0000000), wk =   0.0277778
        k(   73) = (  -0.0906357   0.1366041   0.0000000), wk =   0.0277778
        k(   74) = (  -0.0906357  -0.0533861   0.0000000), wk =   0.0138889

     Dense  grid:   962499 G-vectors     FFT dimensions: (  80,  80, 360)

     Smooth grid:   243581 G-vectors     FFT dimensions: (  50,  50, 225)

     Estimated max dynamical RAM per process >     205.94 MB

     Estimated total dynamical RAM >       7.44 GB

     Initial potential from superposition of free atoms

     starting charge  179.99283, renormalised to  180.00000

     negative rho (up, down):  1.561E-03 0.000E+00


     %%%%%%%%%%%%%%%%%%%%%%%%%%%%%%%%%%%%%%%%%%%%%%%%%%%%%%%%%%%%%%%%%%%%%%%%
     %                                                                      %
     % You are using vdW-DF, which was implemented by the Thonhauser group. %
     % Please cite the following two papers that made this development      %
     % possible and the two reviews that describe the various versions:     %
     %                                                                      %
     %   T. Thonhauser et al., PRL 115, 136402 (2015).                      %
     %   T. Thonhauser et al., PRB 76, 125112 (2007).                       %
     %   K. Berland et al., Rep. Prog. Phys. 78, 066501 (2015).             %
     %   D.C. Langreth et al., J. Phys.: Condens. Matter 21, 084203 (2009). %
     %                                                                      %
     %                                                                      %
     % If you are calculating the stress with vdW-DF, please also cite:     %
     %                                                                      %
     %   R. Sabatini et al., J. Phys.: Condens. Matter 24, 424209 (2012).   %
     %                                                                      %
     %%%%%%%%%%%%%%%%%%%%%%%%%%%%%%%%%%%%%%%%%%%%%%%%%%%%%%%%%%%%%%%%%%%%%%%%



     Adding external electric field

     Computed dipole along edir(3) : 
        Dipole                0.0000 Ry au,          0.0000 Debye
        Dipole field          0.0000 Ry au, 

        Potential amp.       -0.0000 Ry
        Total length         45.1871 bohr

     Starting wfcs are  138 randomized atomic wfcs

     total cpu time spent up to now is      111.9 secs

     Self-consistent Calculation

     iteration #  1     ecut=    55.12 Ry     beta= 0.10
     Davidson diagonalization with overlap
     ethr =  1.00E-02,  avg # of iterations =  2.0

     negative rho (up, down):  1.514E-03 0.000E+00

     Adding external electric field

     Computed dipole along edir(3) : 
        Dipole               -0.3484 Ry au,         -0.8855 Debye
        Dipole field         -0.0010 Ry au, 

        Potential amp.        0.0898 Ry
        Total length         45.1871 bohr


     total cpu time spent up to now is      364.6 secs

     total energy              =   -2142.77048833 Ry
     estimated scf accuracy    <       8.18646248 Ry

     iteration #  2     ecut=    55.12 Ry     beta= 0.10
     Davidson diagonalization with overlap
     ethr =  4.55E-03,  avg # of iterations =  1.5

     negative rho (up, down):  1.552E-03 0.000E+00

     Adding external electric field

     Computed dipole along edir(3) : 
        Dipole                0.8626 Ry au,          2.1925 Debye
        Dipole field          0.0025 Ry au, 

        Potential amp.       -0.2224 Ry
        Total length         45.1871 bohr


     total cpu time spent up to now is      560.7 secs

     total energy              =   -2142.81443575 Ry
     estimated scf accuracy    <       7.18374045 Ry

     iteration #  3     ecut=    55.12 Ry     beta= 0.10
     Davidson diagonalization with overlap
     ethr =  3.99E-03,  avg # of iterations =  1.9

     negative rho (up, down):  1.621E-03 0.000E+00

     Adding external electric field

     Computed dipole along edir(3) : 
        Dipole               -0.0206 Ry au,         -0.0523 Debye
        Dipole field         -0.0001 Ry au, 

        Potential amp.        0.0053 Ry
        Total length         45.1871 bohr


     total cpu time spent up to now is      767.2 secs

     total energy              =   -2142.74584166 Ry
     estimated scf accuracy    <      46.07399925 Ry

     iteration #  4     ecut=    55.12 Ry     beta= 0.10
     Davidson diagonalization with overlap
     ethr =  3.99E-03,  avg # of iterations =  1.0

     negative rho (up, down):  1.555E-03 0.000E+00

     Adding external electric field

     Computed dipole along edir(3) : 
        Dipole               -0.0089 Ry au,         -0.0227 Debye
        Dipole field         -0.0000 Ry au, 

        Potential amp.        0.0023 Ry
        Total length         45.1871 bohr


     total cpu time spent up to now is      946.6 secs

     total energy              =   -2143.34559729 Ry
     estimated scf accuracy    <       0.32635548 Ry

     iteration #  5     ecut=    55.12 Ry     beta= 0.10
     Davidson diagonalization with overlap
     ethr =  1.81E-04,  avg # of iterations =  4.8

     negative rho (up, down):  1.634E-03 0.000E+00

     Adding external electric field

     Computed dipole along edir(3) : 
        Dipole                0.0415 Ry au,          0.1055 Debye
        Dipole field          0.0001 Ry au, 

        Potential amp.       -0.0107 Ry
        Total length         45.1871 bohr


     total cpu time spent up to now is     1182.3 secs

     total energy              =   -2143.32985767 Ry
     estimated scf accuracy    <       0.16276573 Ry

     iteration #  6     ecut=    55.12 Ry     beta= 0.10
     Davidson diagonalization with overlap
     ethr =  9.04E-05,  avg # of iterations =  5.6

     negative rho (up, down):  1.839E-03 0.000E+00

     Adding external electric field

     Computed dipole along edir(3) : 
        Dipole                0.0372 Ry au,          0.0946 Debye
        Dipole field          0.0001 Ry au, 

        Potential amp.       -0.0096 Ry
        Total length         45.1871 bohr


     total cpu time spent up to now is     1431.1 secs

     total energy              =   -2143.34277660 Ry
     estimated scf accuracy    <       0.04735184 Ry

     iteration #  7     ecut=    55.12 Ry     beta= 0.10
     Davidson diagonalization with overlap
     ethr =  2.63E-05,  avg # of iterations = 10.1

     negative rho (up, down):  3.325E-03 0.000E+00

     Adding external electric field

     Computed dipole along edir(3) : 
        Dipole                0.0138 Ry au,          0.0350 Debye
        Dipole field          0.0000 Ry au, 

        Potential amp.       -0.0036 Ry
        Total length         45.1871 bohr


     total cpu time spent up to now is     1695.8 secs

     total energy              =   -2143.34081074 Ry
     estimated scf accuracy    <       0.02736317 Ry

     iteration #  8     ecut=    55.12 Ry     beta= 0.10
     Davidson diagonalization with overlap
     ethr =  1.52E-05,  avg # of iterations =  3.1

     negative rho (up, down):  3.563E-03 0.000E+00

     Adding external electric field

     Computed dipole along edir(3) : 
        Dipole                0.0271 Ry au,          0.0690 Debye
        Dipole field          0.0001 Ry au, 

        Potential amp.       -0.0070 Ry
        Total length         45.1871 bohr


     total cpu time spent up to now is     1945.2 secs

     total energy              =   -2143.34475618 Ry
     estimated scf accuracy    <       0.01360201 Ry

     iteration #  9     ecut=    55.12 Ry     beta= 0.10
     Davidson diagonalization with overlap
     ethr =  7.56E-06,  avg # of iterations =  2.9

     negative rho (up, down):  3.551E-03 0.000E+00

     Adding external electric field

     Computed dipole along edir(3) : 
        Dipole                0.0413 Ry au,          0.1050 Debye
        Dipole field          0.0001 Ry au, 

        Potential amp.       -0.0106 Ry
        Total length         45.1871 bohr


     total cpu time spent up to now is     2152.2 secs

     total energy              =   -2143.34503756 Ry
     estimated scf accuracy    <       0.00347149 Ry

     iteration # 10     ecut=    55.12 Ry     beta= 0.10
     Davidson diagonalization with overlap
     c_bands:  1 eigenvalues not converged
     c_bands:  1 eigenvalues not converged
     ethr =  1.93E-06,  avg # of iterations =  8.1

     negative rho (up, down):  3.247E-03 0.000E+00

     Adding external electric field

     Computed dipole along edir(3) : 
        Dipole                0.0350 Ry au,          0.0890 Debye
        Dipole field          0.0001 Ry au, 

        Potential amp.       -0.0090 Ry
        Total length         45.1871 bohr


     total cpu time spent up to now is     2481.3 secs

     total energy              =   -2143.34408717 Ry
     estimated scf accuracy    <       0.01334569 Ry

     iteration # 11     ecut=    55.12 Ry     beta= 0.10
     Davidson diagonalization with overlap
     ethr =  1.93E-06,  avg # of iterations =  3.3

     negative rho (up, down):  3.505E-03 0.000E+00

     Adding external electric field

     Computed dipole along edir(3) : 
        Dipole                0.0342 Ry au,          0.0870 Debye
        Dipole field          0.0001 Ry au, 

        Potential amp.       -0.0088 Ry
        Total length         45.1871 bohr


     total cpu time spent up to now is     2743.6 secs

     total energy              =   -2143.34557838 Ry
     estimated scf accuracy    <       0.00102198 Ry

     iteration # 12     ecut=    55.12 Ry     beta= 0.10
     Davidson diagonalization with overlap
     ethr =  5.68E-07,  avg # of iterations =  4.3

     negative rho (up, down):  3.283E-03 0.000E+00

     Adding external electric field

     Computed dipole along edir(3) : 
        Dipole                0.0341 Ry au,          0.0867 Debye
        Dipole field          0.0001 Ry au, 

        Potential amp.       -0.0088 Ry
        Total length         45.1871 bohr


     total cpu time spent up to now is     2991.6 secs

     total energy              =   -2143.34566761 Ry
     estimated scf accuracy    <       0.00066068 Ry

     iteration # 13     ecut=    55.12 Ry     beta= 0.10
     Davidson diagonalization with overlap
     ethr =  3.67E-07,  avg # of iterations =  1.9

     negative rho (up, down):  3.147E-03 0.000E+00

     Adding external electric field

     Computed dipole along edir(3) : 
        Dipole                0.0331 Ry au,          0.0842 Debye
        Dipole field          0.0001 Ry au, 

        Potential amp.       -0.0085 Ry
        Total length         45.1871 bohr


     total cpu time spent up to now is     3200.0 secs

     total energy              =   -2143.34568585 Ry
     estimated scf accuracy    <       0.00015493 Ry

     iteration # 14     ecut=    55.12 Ry     beta= 0.10
     Davidson diagonalization with overlap
     ethr =  8.61E-08,  avg # of iterations =  2.9

     negative rho (up, down):  3.042E-03 0.000E+00

     Adding external electric field

     Computed dipole along edir(3) : 
        Dipole                0.0325 Ry au,          0.0825 Debye
        Dipole field          0.0001 Ry au, 

        Potential amp.       -0.0084 Ry
        Total length         45.1871 bohr


     total cpu time spent up to now is     3430.0 secs

     total energy              =   -2143.34570161 Ry
     estimated scf accuracy    <       0.00003525 Ry

     iteration # 15     ecut=    55.12 Ry     beta= 0.10
     Davidson diagonalization with overlap
     ethr =  1.96E-08,  avg # of iterations =  5.4

     negative rho (up, down):  2.935E-03 0.000E+00

     Adding external electric field

     Computed dipole along edir(3) : 
        Dipole                0.0335 Ry au,          0.0852 Debye
        Dipole field          0.0001 Ry au, 

        Potential amp.       -0.0086 Ry
        Total length         45.1871 bohr


     total cpu time spent up to now is     3703.9 secs

     total energy              =   -2143.34570565 Ry
     estimated scf accuracy    <       0.00005466 Ry

     iteration # 16     ecut=    55.12 Ry     beta= 0.10
     Davidson diagonalization with overlap
     ethr =  1.96E-08,  avg # of iterations =  2.2

     negative rho (up, down):  2.081E-03 0.000E+00

     Adding external electric field

     Computed dipole along edir(3) : 
        Dipole                0.0519 Ry au,          0.1320 Debye
        Dipole field          0.0001 Ry au, 

        Potential amp.       -0.0134 Ry
        Total length         45.1871 bohr


     total cpu time spent up to now is     3935.9 secs

     End of self-consistent calculation

          k = 0.0000 0.0000 0.0000 ( 30509 PWs)   bands (ev):

   -72.0799 -72.0358 -71.9953 -71.9492 -71.9073 -71.8634 -70.4570 -70.4255
   -70.0702 -70.0574 -70.0377 -70.0251 -40.6087 -40.5230 -40.4774 -40.4723
   -40.4211 -40.2224 -40.1870 -40.1792 -40.0863 -40.0692 -40.0405 -40.0330
   -40.0113 -40.0103 -40.0001 -39.9700 -39.8108 -39.8067 -36.4026 -36.3429
   -36.3072 -36.2827 -36.1871 -36.1869 -36.1188 -36.0677 -36.0396 -36.0200
   -35.9906 -35.9658 -35.9175 -35.7381 -35.7109 -35.6551 -35.6509 -35.5295
    -5.2874  -3.5530  -3.2880  -3.0509  -3.0036  -2.9641  -2.8035  -2.5399
    -2.4218  -2.2181  -2.1993  -2.1768  -1.9689  -1.7946  -1.7889  -0.6251
    -0.5913  -0.5623   0.2056   0.2096   0.3058   0.4328   0.4449   0.6432
     0.6514   0.8304   1.0120   1.1597   1.1653   1.2072   1.4385   1.6969
     1.6975   1.7864   1.8038   1.9942   2.3230   2.5979   2.6186   2.6846
     2.8957   3.1997   3.3256   3.5935   3.6347   3.6836   4.0480   4.2728
     4.4304   4.5544   4.6351   4.6958   4.7104   4.7143   4.9510   4.9905
     5.3694   5.4171   5.4348   5.8619

          k = 0.0000 0.0173 0.0000 ( 30490 PWs)   bands (ev):

   -72.0791 -72.0366 -71.9945 -71.9500 -71.9065 -71.8642 -70.4565 -70.4261
   -70.0696 -70.0569 -70.0383 -70.0257 -40.6020 -40.5220 -40.4756 -40.4729
   -40.4211 -40.2289 -40.1805 -40.1727 -40.0846 -40.0675 -40.0401 -40.0331
   -40.0106 -40.0104 -40.0010 -39.9705 -39.8170 -39.8130 -36.3925 -36.3430
   -36.2970 -36.2847 -36.1853 -36.1769 -36.1195 -36.0683 -36.0395 -36.0220
   -35.9921 -35.9658 -35.9192 -35.7506 -35.7101 -35.6630 -35.6562 -35.5417
    -5.2215  -3.4867  -3.2244  -3.0227  -2.9582  -2.9119  -2.7717  -2.4959
    -2.3901  -2.1890  -2.1614  -2.1458  -1.9218  -1.7449  -1.7286  -0.6188
    -0.5801  -0.5456   0.2217   0.2369   0.2810   0.3419   0.4642   0.6152
     0.6626   0.8053   1.0125   1.1309   1.1654   1.2069   1.4600   1.6042
     1.7125   1.7861   1.7972   1.9045   2.3192   2.5257   2.5926   2.6577
     2.8801   3.0537   3.1931   3.5183   3.5619   3.6919   4.0680   4.1327
     4.2292   4.3367   4.3661   4.5569   4.7749   4.7798   4.8945   5.0149
     5.3862   5.4951   5.6084   5.7534

          k = 0.0000 0.0345 0.0000 ( 30505 PWs)   bands (ev):

   -72.0769 -72.0387 -71.9921 -71.9522 -71.9043 -71.8663 -70.4550 -70.4278
   -70.0681 -70.0554 -70.0400 -70.0274 -40.5825 -40.5189 -40.4749 -40.4706
   -40.4215 -40.2479 -40.1615 -40.1540 -40.0799 -40.0628 -40.0389 -40.0339
   -40.0117 -40.0078 -40.0033 -39.9721 -39.8352 -39.8314 -36.3625 -36.3431
   -36.2909 -36.2666 -36.1807 -36.1471 -36.1214 -36.0696 -36.0389 -36.0278
   -35.9964 -35.9657 -35.9239 -35.7869 -35.7080 -35.6980 -35.6594 -35.5772
    -5.0283  -3.2946  -3.0408  -2.9651  -2.8135  -2.7608  -2.6823  -2.3680
    -2.2980  -2.1061  -2.0482  -2.0458  -1.8029  -1.5820  -1.5521  -0.6065
    -0.5653  -0.4858   0.0775   0.2629   0.2881   0.3181   0.4510   0.5703
     0.6148   0.7096   1.0205   1.0617   1.0797   1.3012   1.4042   1.5078
     1.6476   1.7363   1.7466   1.8887   2.2555   2.3289   2.5135   2.5169
     2.7350   2.7736   2.9607   3.2099   3.4641   3.5039   3.6927   3.7752
     3.9908   4.1078   4.1085   4.4883   4.5760   4.7881   4.8091   5.0637
     5.2483   5.4052   5.4295   5.6144

          k = 0.0000 0.0518 0.0000 ( 30456 PWs)   bands (ev):

   -72.0733 -72.0422 -71.9884 -71.9558 -71.9008 -71.8698 -70.4526 -70.4304
   -70.0656 -70.0529 -70.0426 -70.0300 -40.5516 -40.5141 -40.4781 -40.4630
   -40.4226 -40.2781 -40.1315 -40.1242 -40.0729 -40.0557 -40.0366 -40.0355
   -40.0137 -40.0069 -40.0038 -39.9747 -39.8644 -39.8607 -36.3426 -36.3147
   -36.2992 -36.2181 -36.1738 -36.1267 -36.0973 -36.0709 -36.0376 -36.0361
   -36.0027 -35.9651 -35.9309 -35.8438 -35.7538 -35.7038 -35.6643 -35.6329
    -4.7222  -2.9994  -2.9204  -2.7609  -2.6039  -2.5366  -2.5303  -2.1658
    -2.1590  -1.9682  -1.8742  -1.8666  -1.6418  -1.3037  -1.2784  -0.6018
    -0.5590  -0.3926  -0.1804   0.1097   0.2960   0.3598   0.4453   0.5313
     0.5332   0.5797   0.9245   0.9773   1.0458   1.1621   1.3472   1.4870
     1.5530   1.6673   1.7750   1.9474   2.0176   2.1230   2.1628   2.3916
     2.4837   2.6324   2.6334   2.8378   3.0254   3.0757   3.3447   3.4385
     3.8176   3.9375   4.0743   4.2600   4.4475   4.6264   4.6796   4.8187
     4.8859   5.0625   5.2023   5.3473

          k = 0.0000 0.0691 0.0000 ( 30426 PWs)   bands (ev):

   -72.0687 -72.0467 -71.9835 -71.9605 -71.8963 -71.8744 -70.4495 -70.4337
   -70.0623 -70.0496 -70.0461 -70.0335 -40.5116 -40.5081 -40.4824 -40.4540
   -40.4250 -40.3177 -40.0927 -40.0856 -40.0649 -40.0474 -40.0381 -40.0331
   -40.0171 -40.0112 -39.9990 -39.9784 -39.9025 -39.8988 -36.3405 -36.3104
   -36.2495 -36.1654 -36.1543 -36.1317 -36.0713 -36.0463 -36.0352 -36.0329
   -36.0100 -35.9635 -35.9388 -35.9165 -35.8249 -35.7066 -35.6963 -35.6705
    -4.3290  -2.9564  -2.6536  -2.4307  -2.4292  -2.2976  -2.2617  -2.0044
    -1.9004  -1.7788  -1.6470  -1.6453  -1.4443  -0.9886  -0.9806  -0.5844
    -0.5158  -0.4225  -0.3085  -0.1477   0.1553   0.1607   0.3761   0.4450
     0.6249   0.6732   0.8379   0.8743   0.9254   0.9482   1.1721   1.4067
     1.5266   1.6411   1.6495   1.6970   1.7537   1.9183   1.9392   2.0964
     2.2009   2.4085   2.5057   2.5593   2.7183   2.8337   3.1642   3.3731
     3.6096   3.7513   3.8393   3.9927   4.1746   4.3723   4.4574   4.4594
     4.7128   4.7408   4.8692   4.9528

          k = 0.0000 0.0864 0.0000 ( 30429 PWs)   bands (ev):

   -72.0633 -72.0519 -71.9779 -71.9660 -71.8910 -71.8797 -70.4457 -70.4376
   -70.0584 -70.0500 -70.0458 -70.0374 -40.5014 -40.4884 -40.4650 -40.4450
   -40.4287 -40.3637 -40.0569 -40.0520 -40.0443 -40.0391 -40.0367 -40.0284
   -40.0207 -40.0153 -39.9936 -39.9828 -39.9471 -39.9432 -36.3362 -36.3206
   -36.1733 -36.1563 -36.1390 -36.0807 -36.0703 -36.0517 -36.0316 -36.0175
   -35.9986 -35.9612 -35.9602 -35.9426 -35.9060 -35.7864 -35.6917 -35.6775
    -3.8903  -3.1372  -2.3616  -2.2914  -2.1216  -2.0613  -2.0238  -1.8901
    -1.6332  -1.6114  -1.4348  -1.3930  -1.2143  -0.8474  -0.8401  -0.7118
    -0.4376  -0.3419  -0.2895  -0.2437  -0.0908  -0.0871   0.3462   0.4485
     0.6907   0.7084   0.7569   0.7914   0.8500   0.9585   0.9698   1.1034
     1.2566   1.2761   1.4073   1.4115   1.5875   1.7014   1.7976   1.8313
     2.0457   2.3164   2.3341   2.7898   2.9276   2.9647   3.0147   3.2043
     3.4121   3.5192   3.7007   3.8324   3.9958   4.0076   4.0955   4.2208
     4.4235   4.4943   4.7249   4.7269

          k = 0.0000-0.1036 0.0000 ( 30408 PWs)   bands (ev):

   -72.0576 -72.0576 -71.9719 -71.9719 -71.8853 -71.8853 -70.4417 -70.4417
   -70.0543 -70.0542 -70.0416 -70.0416 -40.4946 -40.4946 -40.4380 -40.4380
   -40.4123 -40.4123 -40.0502 -40.0502 -40.0324 -40.0324 -40.0231 -40.0231
   -39.9948 -39.9948 -39.9909 -39.9909 -39.9871 -39.9870 -36.3295 -36.3295
   -36.1474 -36.1474 -36.0918 -36.0918 -36.0607 -36.0607 -36.0263 -36.0263
   -35.9901 -35.9901 -35.9552 -35.9552 -35.8717 -35.8717 -35.6848 -35.6847
    -3.4678  -3.4678  -2.2408  -2.2408  -1.9463  -1.9463  -1.9064  -1.9064
    -1.5503  -1.5503  -1.2673  -1.2673  -0.9597  -0.9597  -0.8261  -0.8261
    -0.4807  -0.4807  -0.2471  -0.2471  -0.0342  -0.0342   0.4411   0.4411
     0.6767   0.6767   0.7700   0.7700   0.8329   0.8329   0.8905   0.8905
     1.1775   1.1775   1.2401   1.2401   1.4473   1.4473   1.7903   1.7903
     2.1760   2.1760   2.6084   2.6084   2.9345   2.9345   3.3035   3.3035
     3.4566   3.4566   3.5871   3.5871   3.7731   3.7731   4.0341   4.0341
     4.4092   4.4092   4.6666   4.6666

          k = 0.0151-0.0084 0.0000 ( 30490 PWs)   bands (ev):

   -72.0791 -72.0366 -71.9945 -71.9500 -71.9065 -71.8642 -70.4565 -70.4261
   -70.0696 -70.0569 -70.0383 -70.0257 -40.6020 -40.5220 -40.4756 -40.4729
   -40.4211 -40.2289 -40.1805 -40.1727 -40.0846 -40.0675 -40.0401 -40.0331
   -40.0106 -40.0104 -40.0010 -39.9705 -39.8170 -39.8130 -36.3925 -36.3430
   -36.2970 -36.2847 -36.1853 -36.1769 -36.1195 -36.0683 -36.0395 -36.0220
   -35.9921 -35.9658 -35.9192 -35.7506 -35.7101 -35.6630 -35.6562 -35.5417
    -5.2215  -3.4867  -3.2244  -3.0227  -2.9582  -2.9119  -2.7717  -2.4959
    -2.3901  -2.1890  -2.1614  -2.1458  -1.9218  -1.7449  -1.7286  -0.6188
    -0.5801  -0.5456   0.2217   0.2369   0.2810   0.3419   0.4642   0.6152
     0.6626   0.8053   1.0125   1.1309   1.1654   1.2069   1.4600   1.6042
     1.7125   1.7861   1.7972   1.9045   2.3192   2.5257   2.5926   2.6577
     2.8801   3.0537   3.1931   3.5183   3.5619   3.6919   4.0680   4.1327
     4.2292   4.3367   4.3661   4.5569   4.7749   4.7798   4.8945   5.0149
     5.3862   5.4949   5.6084   5.7527

          k = 0.0151 0.0089 0.0000 ( 30443 PWs)   bands (ev):

   -72.0798 -72.0358 -71.9952 -71.9492 -71.9072 -71.8634 -70.4571 -70.4255
   -70.0702 -70.0575 -70.0377 -70.0251 -40.6077 -40.5226 -40.4752 -40.4720
   -40.4199 -40.2223 -40.1861 -40.1782 -40.0843 -40.0674 -40.0411 -40.0321
   -40.0105 -40.0098 -40.0002 -39.9698 -39.8106 -39.8066 -36.4046 -36.3460
   -36.3086 -36.2843 -36.1886 -36.1857 -36.1182 -36.0716 -36.0413 -36.0215
   -35.9916 -35.9679 -35.9187 -35.7385 -35.7114 -35.6552 -35.6511 -35.5297
    -5.2227  -3.4942  -3.2358  -2.9978  -2.9493  -2.9312  -2.7578  -2.5101
    -2.3720  -2.1814  -2.1702  -2.1462  -1.9003  -1.7563  -1.7297  -0.6042
    -0.5835  -0.5515   0.2216   0.2354   0.3027   0.3793   0.4920   0.6583
     0.6631   0.7666   1.0434   1.1518   1.2016   1.2089   1.3723   1.5161
     1.6434   1.7558   1.8593   1.9482   2.3134   2.5005   2.6217   2.6386
     2.7931   3.0623   3.1927   3.5346   3.6189   3.6735   4.0320   4.1442
     4.2512   4.4010   4.4036   4.6098   4.6585   4.6600   4.9561   5.0060
     5.4393   5.4731   5.5043   5.7898

          k = 0.0151 0.0262 0.0000 ( 30485 PWs)   bands (ev):

   -72.0790 -72.0366 -71.9943 -71.9500 -71.9065 -71.8641 -70.4567 -70.4261
   -70.0698 -70.0571 -70.0383 -70.0257 -40.6002 -40.5212 -40.4724 -40.4715
   -40.4190 -40.2287 -40.1789 -40.1709 -40.0808 -40.0642 -40.0412 -40.0317
   -40.0098 -40.0090 -40.0009 -39.9703 -39.8168 -39.8128 -36.3963 -36.3489
   -36.2996 -36.2878 -36.1832 -36.1797 -36.1185 -36.0755 -36.0427 -36.0249
   -35.9940 -35.9698 -35.9213 -35.7512 -35.7111 -35.6633 -35.6562 -35.5420
    -5.0942  -3.3737  -3.1240  -2.9399  -2.8461  -2.8359  -2.6860  -2.4369
    -2.2915  -2.1223  -2.1045  -2.0737  -1.8024  -1.6641  -1.6052  -0.5802
    -0.5780  -0.5159   0.2163   0.2513   0.2859   0.3007   0.5489   0.6362
     0.6677   0.6792   1.0687   1.1518   1.1554   1.2333   1.3381   1.3636
     1.6329   1.7189   1.8244   1.8420   2.2902   2.3653   2.5290   2.5801
     2.6932   2.8385   2.9993   3.4504   3.4637   3.5726   3.7651   3.9551
     4.0009   4.1773   4.2354   4.4785   4.5401   4.6536   4.8862   5.0623
     5.4180   5.4423   5.5680   5.6805

          k = 0.0151 0.0434 0.0000 ( 30461 PWs)   bands (ev):

   -72.0767 -72.0387 -71.9918 -71.9523 -71.9043 -71.8663 -70.4553 -70.4277
   -70.0683 -70.0556 -70.0400 -70.0274 -40.5801 -40.5179 -40.4742 -40.4651
   -40.4190 -40.2477 -40.1594 -40.1515 -40.0750 -40.0587 -40.0398 -40.0322
   -40.0108 -40.0060 -40.0031 -39.9719 -39.8351 -39.8313 -36.3676 -36.3507
   -36.2944 -36.2702 -36.1781 -36.1510 -36.1202 -36.0790 -36.0432 -36.0311
   -35.9986 -35.9710 -35.9265 -35.7874 -35.7091 -35.6983 -35.6593 -35.5773
    -4.8450  -3.1390  -2.9042  -2.8805  -2.6612  -2.6371  -2.5673  -2.2834
    -2.1569  -2.0118  -1.9687  -1.9178  -1.6647  -1.4579  -1.3591  -0.5792
    -0.5602  -0.4372  -0.0247   0.1998   0.2945   0.3797   0.4891   0.5325
     0.5948   0.6568   1.0342   1.0617   1.1273   1.1930   1.2865   1.3160
     1.6336   1.6958   1.7169   1.8140   2.1317   2.1907   2.2722   2.4474
     2.5287   2.6182   2.7956   2.9885   3.1711   3.1916   3.4611   3.4975
     3.8137   3.9802   4.2036   4.2442   4.4888   4.6765   4.6965   4.8919
     4.9550   5.1862   5.4024   5.4178

          k = 0.0151 0.0607 0.0000 ( 30437 PWs)   bands (ev):

   -72.0731 -72.0422 -71.9881 -71.9559 -71.9008 -71.8698 -70.4529 -70.4303
   -70.0658 -70.0531 -70.0426 -70.0300 -40.5490 -40.5130 -40.4774 -40.4571
   -40.4204 -40.2782 -40.1291 -40.1215 -40.0679 -40.0517 -40.0369 -40.0341
   -40.0132 -40.0066 -40.0020 -39.9747 -39.8645 -39.8608 -36.3505 -36.3205
   -36.3020 -36.2221 -36.1713 -36.1262 -36.1012 -36.0810 -36.0421 -36.0387
   -36.0047 -35.9708 -35.9331 -35.8439 -35.7536 -35.7051 -35.6640 -35.6326
    -4.4939  -2.8672  -2.8232  -2.6121  -2.4528  -2.3974  -2.3621  -2.0648
    -1.9991  -1.8262  -1.7730  -1.6989  -1.4910  -1.1601  -1.0614  -0.5573
    -0.5568  -0.3438  -0.2942  -0.0175   0.2618   0.2881   0.3510   0.4908
     0.5328   0.7117   0.8952   0.9660   1.0127   1.0488   1.2148   1.3762
     1.5881   1.5905   1.6708   1.7980   1.8571   1.9239   2.1281   2.2212
     2.3798   2.3802   2.5182   2.5869   2.6596   2.7479   3.2802   3.3548
     3.6973   3.7916   3.8765   4.0914   4.2448   4.3903   4.4726   4.7121
     4.8998   4.9498   5.0663   5.2604

          k = 0.0151 0.0780 0.0000 ( 30435 PWs)   bands (ev):

   -72.0684 -72.0467 -71.9832 -71.9606 -71.8963 -71.8744 -70.4498 -70.4336
   -70.0625 -70.0499 -70.0460 -70.0334 -40.5091 -40.5072 -40.4819 -40.4487
   -40.4239 -40.3182 -40.0904 -40.0830 -40.0607 -40.0441 -40.0375 -40.0324
   -40.0170 -40.0112 -39.9973 -39.9786 -39.9031 -39.8995 -36.3474 -36.3123
   -36.2546 -36.1633 -36.1580 -36.1314 -36.0803 -36.0478 -36.0392 -36.0363
   -36.0111 -35.9686 -35.9398 -35.9157 -35.8241 -35.7064 -35.6969 -35.6700
    -4.0737  -2.9742  -2.4922  -2.3141  -2.3006  -2.1181  -2.1140  -1.8506
    -1.7981  -1.6184  -1.5506  -1.4437  -1.2827  -0.9103  -0.8736  -0.5991
    -0.4530  -0.3588  -0.3074  -0.2789   0.0297   0.0320   0.2844   0.4158
     0.6830   0.6981   0.8134   0.8272   0.9007   0.9322   1.0612   1.2407
     1.2539   1.4385   1.5696   1.6075   1.7135   1.7162   1.8270   1.9224
     2.0308   2.2513   2.2587   2.6537   2.7638   2.7997   3.0542   3.3170
     3.3426   3.6161   3.7287   3.8387   4.0961   4.1718   4.3947   4.4695
     4.5519   4.6561   4.8975   4.9126

          k = 0.0151-0.1120 0.0000 ( 30454 PWs)   bands (ev):

   -72.0631 -72.0521 -71.9776 -71.9662 -71.8910 -71.8797 -70.4460 -70.4375
   -70.0586 -70.0499 -70.0460 -70.0373 -40.5008 -40.4883 -40.4628 -40.4411
   -40.4292 -40.3649 -40.0540 -40.0510 -40.0424 -40.0368 -40.0361 -40.0271
   -40.0210 -40.0160 -39.9922 -39.9833 -39.9482 -39.9444 -36.3411 -36.3203
   -36.1776 -36.1549 -36.1388 -36.0834 -36.0768 -36.0509 -36.0344 -36.0175
   -35.9972 -35.9637 -35.9637 -35.9429 -35.9045 -35.7848 -35.6928 -35.6768
    -3.6349  -3.2387  -2.2607  -2.1935  -2.0986  -1.9313  -1.9253  -1.7785
    -1.5633  -1.5250  -1.3526  -1.2165  -1.0485  -0.8796  -0.8347  -0.8019
    -0.4945  -0.4472  -0.2434  -0.2007  -0.1397   0.0104   0.3374   0.4445
     0.5316   0.7019   0.7066   0.7374   0.8049   0.8730   0.8992   1.0270
     1.1100   1.1756   1.2939   1.3067   1.4444   1.5359   1.7959   1.8161
     2.0967   2.2236   2.4357   2.7379   2.7905   2.9900   3.0451   3.1975
     3.4097   3.5235   3.6904   3.7580   3.8326   3.9986   4.0930   4.1882
     4.3878   4.4561   4.6623   4.7714

          k = 0.0151-0.0947 0.0000 ( 30405 PWs)   bands (ev):

   -72.0578 -72.0574 -71.9721 -71.9717 -71.8853 -71.8853 -70.4419 -70.4415
   -70.0544 -70.0541 -70.0418 -70.0415 -40.4949 -40.4944 -40.4397 -40.4356
   -40.4141 -40.4112 -40.0517 -40.0484 -40.0334 -40.0311 -40.0236 -40.0221
   -39.9960 -39.9948 -39.9923 -39.9899 -39.9869 -39.9866 -36.3319 -36.3269
   -36.1483 -36.1466 -36.0929 -36.0890 -36.0642 -36.0581 -36.0273 -36.0249
   -35.9929 -35.9886 -35.9569 -35.9530 -35.8742 -35.8696 -35.6856 -35.6840
    -3.6276  -3.2485  -2.2248  -2.2165  -2.0561  -1.9364  -1.9004  -1.8788
    -1.5481  -1.5092  -1.3206  -1.2583  -1.0542  -0.8994  -0.8373  -0.8033
    -0.5392  -0.4427  -0.2390  -0.1803  -0.1146  -0.0180   0.3432   0.4261
     0.5633   0.6077   0.7156   0.7555   0.8239   0.8468   0.8666   0.8995
     1.1157   1.1398   1.2593   1.3488   1.5217   1.6521   1.7956   1.8376
     1.9936   2.4185   2.4250   2.7378   2.8824   2.9567   3.2312   3.2804
     3.3489   3.6075   3.6126   3.6790   3.8391   3.9702   3.9899   4.1896
     4.4383   4.5167   4.5993   4.6990

          k = 0.0151-0.0775 0.0000 ( 30373 PWs)   bands (ev):

   -72.0635 -72.0518 -71.9781 -71.9658 -71.8910 -71.8797 -70.4455 -70.4377
   -70.0583 -70.0501 -70.0456 -70.0375 -40.5019 -40.4885 -40.4664 -40.4483
   -40.4287 -40.3629 -40.0596 -40.0519 -40.0450 -40.0413 -40.0385 -40.0285
   -40.0207 -40.0150 -39.9949 -39.9824 -39.9462 -39.9423 -36.3319 -36.3208
   -36.1693 -36.1577 -36.1390 -36.0770 -36.0637 -36.0538 -36.0290 -36.0178
   -36.0008 -35.9575 -35.9569 -35.9438 -35.9075 -35.7879 -35.6909 -35.6780
    -4.0673  -2.9895  -2.4304  -2.3355  -2.2194  -2.1788  -2.1080  -1.9863
    -1.6836  -1.6531  -1.5520  -1.4799  -1.2864  -0.9301  -0.8925  -0.6356
    -0.4444  -0.3849  -0.3355  -0.2711  -0.0013   0.0329   0.3429   0.3452
     0.6749   0.7028   0.7485   0.7525   0.8103   0.8809   1.0419   1.1400
     1.3705   1.4081   1.5459   1.5727   1.7119   1.7963   1.9350   1.9482
     2.0782   2.3070   2.5491   2.7187   2.8815   2.9693   3.0051   3.3349
     3.4480   3.5122   3.7980   3.9307   4.0908   4.1170   4.4110   4.4307
     4.5059   4.6638   4.7182   4.8675

          k = 0.0151-0.0602 0.0000 ( 30422 PWs)   bands (ev):

   -72.0689 -72.0466 -71.9838 -71.9604 -71.8963 -71.8744 -70.4492 -70.4338
   -70.0621 -70.0494 -70.0461 -70.0335 -40.5133 -40.5087 -40.4828 -40.4578
   -40.4259 -40.3173 -40.0942 -40.0874 -40.0681 -40.0502 -40.0388 -40.0327
   -40.0172 -40.0112 -40.0003 -39.9782 -39.9022 -39.8984 -36.3354 -36.3090
   -36.2458 -36.1671 -36.1514 -36.1317 -36.0643 -36.0456 -36.0323 -36.0302
   -36.0093 -35.9598 -35.9382 -35.9172 -35.8257 -35.7066 -35.6961 -35.6708
    -4.4881  -2.8904  -2.7672  -2.5233  -2.5197  -2.4442  -2.3557  -2.1246
    -1.9564  -1.8662  -1.7882  -1.6962  -1.5002  -1.1927  -1.0592  -0.6186
    -0.5123  -0.3684  -0.3528  -0.0373   0.2320   0.2326   0.3981   0.4760
     0.5682   0.5893   0.7728   0.8889   0.9326   1.0012   1.2345   1.5085
     1.5186   1.6774   1.8101   1.8272   1.8813   2.0208   2.0985   2.1118
     2.4229   2.4277   2.6457   2.7242   2.8231   2.8746   3.1688   3.4770
     3.6338   3.9330   3.9908   4.0118   4.3159   4.3984   4.5806   4.6666
     4.9313   4.9574   5.0617   5.2384

          k = 0.0151-0.0429 0.0000 ( 30453 PWs)   bands (ev):

   -72.0734 -72.0421 -71.9886 -71.9557 -71.9008 -71.8698 -70.4524 -70.4304
   -70.0654 -70.0527 -70.0426 -70.0301 -40.5531 -40.5147 -40.4785 -40.4663
   -40.4239 -40.2781 -40.1328 -40.1257 -40.0759 -40.0583 -40.0363 -40.0359
   -40.0141 -40.0069 -40.0050 -39.9747 -39.8643 -39.8606 -36.3380 -36.3109
   -36.2979 -36.2157 -36.1754 -36.1270 -36.0951 -36.0649 -36.0351 -36.0348
   -36.0016 -35.9618 -35.9297 -35.8438 -35.7540 -35.7030 -35.6644 -35.6331
    -4.8401  -3.0996  -2.9112  -2.8457  -2.7372  -2.6089  -2.5976  -2.2559
    -2.2147  -2.0246  -1.9706  -1.9128  -1.6885  -1.4875  -1.3404  -0.6262
    -0.5200  -0.4554  -0.1196   0.1929   0.2747   0.3943   0.4158   0.4597
     0.5390   0.6991   0.8798   0.9707   1.0025   1.2640   1.3795   1.5198
     1.6520   1.6676   1.8007   2.0614   2.1518   2.1728   2.2590   2.3908
     2.6618   2.6816   2.7474   2.9066   3.2451   3.3394   3.4022   3.5160
     3.8738   4.0590   4.0724   4.3670   4.4693   4.6673   4.8865   4.9434
     4.9928   5.3901   5.4077   5.4947

          k = 0.0151-0.0256 0.0000 ( 30523 PWs)   bands (ev):

   -72.0769 -72.0387 -71.9922 -71.9522 -71.9043 -71.8664 -70.4549 -70.4278
   -70.0680 -70.0553 -70.0400 -70.0274 -40.5834 -40.5192 -40.4751 -40.4725
   -40.4225 -40.2480 -40.1623 -40.1548 -40.0817 -40.0644 -40.0383 -40.0345
   -40.0121 -40.0085 -40.0033 -39.9722 -39.8353 -39.8315 -36.3606 -36.3403
   -36.2897 -36.2653 -36.1817 -36.1457 -36.1218 -36.0661 -36.0374 -36.0267
   -35.9956 -35.9638 -35.9230 -35.7867 -35.7076 -35.6979 -35.6594 -35.5771
    -5.0909  -3.3508  -3.0898  -2.9783  -2.8921  -2.7944  -2.7202  -2.3957
    -2.3490  -2.1351  -2.0886  -2.0749  -1.8426  -1.6690  -1.5843  -0.6227
    -0.5473  -0.5192   0.1102   0.2421   0.3015   0.3402   0.3957   0.5628
     0.6030   0.7994   1.0011   1.0414   1.0555   1.3051   1.5104   1.5650
     1.6888   1.7175   1.7748   1.9124   2.2721   2.3951   2.5222   2.6145
     2.8106   2.9250   2.9538   3.2470   3.5450   3.5596   3.8544   3.9456
     4.0548   4.0552   4.1532   4.4529   4.7138   4.8795   4.8975   4.9782
     5.3420   5.4392   5.5840   5.7672

          k = 0.0302-0.0167 0.0000 ( 30505 PWs)   bands (ev):

   -72.0769 -72.0387 -71.9921 -71.9522 -71.9043 -71.8663 -70.4550 -70.4278
   -70.0681 -70.0554 -70.0400 -70.0274 -40.5825 -40.5189 -40.4749 -40.4706
   -40.4215 -40.2479 -40.1615 -40.1540 -40.0799 -40.0628 -40.0389 -40.0339
   -40.0117 -40.0078 -40.0033 -39.9721 -39.8352 -39.8314 -36.3625 -36.3431
   -36.2909 -36.2666 -36.1807 -36.1471 -36.1214 -36.0696 -36.0389 -36.0278
   -35.9964 -35.9657 -35.9239 -35.7869 -35.7080 -35.6980 -35.6594 -35.5772
    -5.0283  -3.2946  -3.0408  -2.9651  -2.8135  -2.7608  -2.6823  -2.3680
    -2.2980  -2.1061  -2.0482  -2.0458  -1.8029  -1.5820  -1.5521  -0.6065
    -0.5653  -0.4858   0.0775   0.2629   0.2881   0.3181   0.4510   0.5703
     0.6148   0.7096   1.0205   1.0617   1.0797   1.3012   1.4042   1.5078
     1.6476   1.7363   1.7466   1.8887   2.2555   2.3289   2.5135   2.5169
     2.7350   2.7736   2.9607   3.2099   3.4641   3.5039   3.6927   3.7752
     3.9908   4.1078   4.1085   4.4883   4.5760   4.7881   4.8092   5.0637
     5.2483   5.4052   5.4295   5.6144

          k = 0.0302 0.0005 0.0000 ( 30485 PWs)   bands (ev):

   -72.0790 -72.0366 -71.9943 -71.9500 -71.9065 -71.8641 -70.4567 -70.4261
   -70.0698 -70.0571 -70.0383 -70.0257 -40.6002 -40.5212 -40.4724 -40.4715
   -40.4190 -40.2287 -40.1789 -40.1709 -40.0808 -40.0642 -40.0412 -40.0317
   -40.0098 -40.0090 -40.0009 -39.9703 -39.8168 -39.8128 -36.3963 -36.3489
   -36.2996 -36.2878 -36.1832 -36.1797 -36.1185 -36.0755 -36.0427 -36.0249
   -35.9940 -35.9698 -35.9213 -35.7512 -35.7111 -35.6633 -35.6562 -35.5420
    -5.0942  -3.3737  -3.1240  -2.9399  -2.8461  -2.8359  -2.6860  -2.4369
    -2.2915  -2.1223  -2.1045  -2.0737  -1.8024  -1.6641  -1.6052  -0.5802
    -0.5780  -0.5159   0.2163   0.2513   0.2859   0.3007   0.5489   0.6362
     0.6677   0.6792   1.0687   1.1518   1.1554   1.2333   1.3381   1.3636
     1.6329   1.7189   1.8244   1.8420   2.2902   2.3653   2.5290   2.5801
     2.6932   2.8385   2.9993   3.4504   3.4637   3.5726   3.7651   3.9551
     4.0009   4.1773   4.2354   4.4785   4.5401   4.6536   4.8862   5.0623
     5.4181   5.4423   5.5679   5.6806

          k = 0.0302 0.0178 0.0000 ( 30467 PWs)   bands (ev):

   -72.0796 -72.0359 -71.9949 -71.9492 -71.9072 -71.8634 -70.4574 -70.4256
   -70.0704 -70.0578 -70.0377 -70.0251 -40.6052 -40.5215 -40.4711 -40.4692
   -40.4168 -40.2219 -40.1838 -40.1756 -40.0788 -40.0628 -40.0423 -40.0300
   -40.0087 -40.0086 -40.0000 -39.9695 -39.8104 -39.8063 -36.4100 -36.3545
   -36.3124 -36.2888 -36.1926 -36.1828 -36.1168 -36.0820 -36.0461 -36.0258
   -35.9943 -35.9738 -35.9218 -35.7394 -35.7128 -35.6552 -35.6516 -35.5302
    -5.0335  -3.3339  -3.0889  -2.8431  -2.8336  -2.7920  -2.6283  -2.4194
    -2.2283  -2.0840  -2.0716  -2.0483  -1.7050  -1.6609  -1.5407  -0.5662
    -0.5448  -0.5275   0.2127   0.2534   0.2999   0.3186   0.6116   0.6242
     0.6536   0.7225   1.0864   1.1343   1.1640   1.2088   1.2224   1.3525
     1.5101   1.6568   1.8209   1.8394   2.2754   2.2841   2.4632   2.5208
     2.6352   2.7387   2.8757   3.3863   3.4120   3.5124   3.6757   3.7948
     3.8675   4.1598   4.3375   4.3535   4.5181   4.5289   4.9058   4.9391
     5.4081   5.5436   5.6015   5.6047

          k = 0.0302 0.0351 0.0000 ( 30466 PWs)   bands (ev):

   -72.0787 -72.0366 -71.9939 -71.9500 -71.9065 -71.8641 -70.4571 -70.4261
   -70.0700 -70.0574 -70.0383 -70.0257 -40.5971 -40.5198 -40.4714 -40.4643
   -40.4153 -40.2283 -40.1760 -40.1677 -40.0745 -40.0592 -40.0418 -40.0294
   -40.0086 -40.0069 -40.0004 -39.9699 -39.8165 -39.8125 -36.4028 -36.3589
   -36.3042 -36.2929 -36.1846 -36.1800 -36.1169 -36.0879 -36.0484 -36.0298
   -35.9971 -35.9769 -35.9250 -35.7523 -35.7126 -35.6638 -35.6563 -35.5425
    -4.8495  -3.1849  -2.9399  -2.7648  -2.7158  -2.6236  -2.5271  -2.3154
    -2.1090  -1.9933  -1.9883  -1.9220  -1.5718  -1.5401  -1.3498  -0.5721
    -0.5100  -0.4825   0.0546   0.2337   0.2819   0.3782   0.5036   0.5964
     0.6691   0.7282   1.0353   1.0757   1.1240   1.1450   1.1769   1.3342
     1.5659   1.6569   1.7248   1.7459   2.0980   2.2008   2.2869   2.3840
     2.5023   2.5882   2.7090   3.0439   3.1532   3.1993   3.4804   3.5440
     3.6459   4.0248   4.1992   4.3018   4.4316   4.6262   4.6280   4.9203
     5.0438   5.2989   5.4410   5.4751

          k = 0.0302 0.0523 0.0000 ( 30458 PWs)   bands (ev):

   -72.0764 -72.0388 -71.9915 -71.9523 -71.9043 -71.8663 -70.4557 -70.4277
   -70.0685 -70.0559 -70.0399 -70.0273 -40.5769 -40.5165 -40.4732 -40.4576
   -40.4155 -40.2475 -40.1563 -40.1481 -40.0688 -40.0541 -40.0393 -40.0302
   -40.0100 -40.0040 -40.0024 -39.9716 -39.8350 -39.8312 -36.3744 -36.3608
   -36.2992 -36.2750 -36.1751 -36.1560 -36.1188 -36.0917 -36.0490 -36.0356
   -36.0016 -35.9784 -35.9300 -35.7882 -35.7105 -35.6986 -35.6592 -35.5776
    -4.5547  -2.9509  -2.7160  -2.6962  -2.4975  -2.4152  -2.3767  -2.1344
    -1.9633  -1.8392  -1.8278  -1.7158  -1.4188  -1.3092  -1.0870  -0.5647
    -0.4969  -0.4032  -0.1842   0.0691   0.2826   0.3134   0.4257   0.5050
     0.5056   0.7987   0.8799   1.0146   1.0291   1.0660   1.2011   1.3594
     1.5684   1.5826   1.6411   1.7556   1.8528   2.0170   2.1311   2.2303
     2.2877   2.4610   2.5630   2.5994   2.6141   2.7115   3.3349   3.3799
     3.5551   3.7723   3.9729   4.1348   4.3162   4.3661   4.4877   4.8065
     4.8258   5.1188   5.3471   5.3663

          k = 0.0302 0.0696 0.0000 ( 30468 PWs)   bands (ev):

   -72.0728 -72.0423 -71.9877 -71.9560 -71.9008 -71.8698 -70.4533 -70.4303
   -70.0660 -70.0534 -70.0426 -70.0299 -40.5458 -40.5118 -40.4766 -40.4503
   -40.4180 -40.2784 -40.1262 -40.1182 -40.0628 -40.0481 -40.0351 -40.0329
   -40.0129 -40.0060 -40.0002 -39.9746 -39.8647 -39.8611 -36.3593 -36.3266
   -36.3057 -36.2266 -36.1688 -36.1254 -36.1057 -36.0923 -36.0474 -36.0418
   -36.0069 -35.9774 -35.9356 -35.8440 -35.7534 -35.7065 -35.6638 -35.6324
    -4.1723  -2.7584  -2.6744  -2.4039  -2.2558  -2.2068  -2.1451  -1.8978
    -1.8158  -1.6317  -1.5955  -1.4656  -1.2342  -0.9986  -0.9714  -0.5370
    -0.4150  -0.3962  -0.3346  -0.1759   0.1216   0.1660   0.2022   0.3449
     0.6225   0.7018   0.8270   0.8852   0.9055   0.9992   1.0792   1.2538
     1.2962   1.4549   1.6598   1.6749   1.7280   1.8149   1.8661   1.9708
     2.0419   2.2287   2.2515   2.4867   2.6068   2.6754   3.1466   3.2973
     3.3223   3.5282   3.8122   3.8596   4.2060   4.2358   4.3418   4.6669
     4.8789   4.9600   5.0647   5.1814

          k = 0.0302-0.1204 0.0000 ( 30448 PWs)   bands (ev):

   -72.0682 -72.0468 -71.9829 -71.9607 -71.8963 -71.8743 -70.4501 -70.4335
   -70.0627 -70.0501 -70.0459 -70.0333 -40.5064 -40.5063 -40.4815 -40.4434
   -40.4230 -40.3189 -40.0878 -40.0801 -40.0571 -40.0416 -40.0373 -40.0300
   -40.0172 -40.0114 -39.9958 -39.9788 -39.9038 -39.9002 -36.3541 -36.3139
   -36.2597 -36.1614 -36.1614 -36.1308 -36.0889 -36.0497 -36.0431 -36.0394
   -36.0124 -35.9738 -35.9411 -35.9150 -35.8234 -35.7056 -35.6981 -35.6697
    -3.7408  -2.9536  -2.4205  -2.1560  -2.1110  -1.9351  -1.9269  -1.6812
    -1.6246  -1.4550  -1.4094  -1.1967  -1.0311  -0.9899  -0.8079  -0.6948
    -0.4570  -0.4337  -0.3412  -0.1973  -0.0697   0.0378   0.1854   0.2896
     0.4928   0.6581   0.6621   0.7155   0.7615   0.8666   0.8858   1.0791
     1.1903   1.2164   1.3033   1.4111   1.5880   1.6050   1.8117   1.8172
     2.0655   2.0722   2.4235   2.6414   2.7453   2.8240   2.9660   3.0797
     3.3262   3.4730   3.7701   3.7898   4.0993   4.1893   4.3319   4.4184
     4.5287   4.6943   4.8629   4.9250

          k = 0.0302-0.1031 0.0000 ( 30436 PWs)   bands (ev):

   -72.0629 -72.0522 -71.9774 -71.9663 -71.8910 -71.8796 -70.4463 -70.4373
   -70.0588 -70.0498 -70.0462 -70.0372 -40.5003 -40.4882 -40.4605 -40.4374
   -40.4302 -40.3661 -40.0517 -40.0487 -40.0408 -40.0360 -40.0351 -40.0250
   -40.0218 -40.0171 -39.9912 -39.9838 -39.9493 -39.9457 -36.3453 -36.3199
   -36.1811 -36.1537 -36.1385 -36.0846 -36.0817 -36.0512 -36.0366 -36.0178
   -35.9967 -35.9665 -35.9648 -35.9443 -35.9034 -35.7835 -35.6938 -35.6764
    -3.3199  -3.2969  -2.2761  -2.0600  -2.0476  -1.8253  -1.8207  -1.6656
    -1.4427  -1.4373  -1.2637  -1.0829  -0.9861  -0.9348  -0.8133  -0.8039
    -0.6380  -0.5855  -0.2451  -0.1759  -0.0477   0.1676   0.2593   0.2873
     0.3728   0.4661   0.4942   0.6160   0.6223   0.6619   0.8698   0.8915
     1.0711   1.2079   1.2965   1.3249   1.4682   1.5372   1.8275   1.8615
     1.9726   2.3354   2.5110   2.6280   2.7440   2.9121   2.9518   3.3398
     3.5206   3.5729   3.7624   3.7852   3.9567   3.9607   4.2343   4.2588
     4.4835   4.4994   4.5951   4.7934

          k = 0.0302-0.0858 0.0000 ( 30387 PWs)   bands (ev):

   -72.0579 -72.0573 -71.9723 -71.9715 -71.8853 -71.8853 -70.4421 -70.4413
   -70.0545 -70.0540 -70.0419 -70.0414 -40.4950 -40.4942 -40.4405 -40.4331
   -40.4163 -40.4108 -40.0526 -40.0470 -40.0341 -40.0300 -40.0237 -40.0208
   -39.9974 -39.9955 -39.9939 -39.9892 -39.9864 -39.9862 -36.3337 -36.3251
   -36.1490 -36.1460 -36.0929 -36.0850 -36.0684 -36.0564 -36.0277 -36.0234
   -35.9959 -35.9882 -35.9578 -35.9509 -35.8763 -35.8682 -35.6862 -35.6834
    -3.7233  -2.9900  -2.2978  -2.1640  -2.1320  -1.9506  -1.8962  -1.8666
    -1.5382  -1.4176  -1.4144  -1.2666  -1.0408  -1.0191  -0.8311  -0.7559
    -0.4852  -0.4790  -0.3423  -0.1015  -0.1002  -0.0054   0.2054   0.2351
     0.5045   0.5175   0.6368   0.7204   0.7429   0.8308   0.8578   0.9794
     1.0259   1.1159   1.3122   1.4706   1.6847   1.8016   1.8251   1.9032
     1.9955   2.3125   2.6157   2.7543   2.8324   2.9405   3.1219   3.2702
     3.3054   3.7145   3.7220   3.7710   3.9549   4.0254   4.3925   4.4110
     4.5210   4.6180   4.6788   4.9092

          k = 0.0302-0.0686 0.0000 ( 30428 PWs)   bands (ev):

   -72.0636 -72.0517 -71.9783 -71.9657 -71.8910 -71.8797 -70.4454 -70.4378
   -70.0582 -70.0502 -70.0455 -70.0376 -40.5022 -40.4886 -40.4672 -40.4501
   -40.4289 -40.3625 -40.0611 -40.0515 -40.0443 -40.0427 -40.0409 -40.0284
   -40.0207 -40.0150 -39.9957 -39.9821 -39.9458 -39.9419 -36.3294 -36.3209
   -36.1670 -36.1585 -36.1388 -36.0739 -36.0594 -36.0560 -36.0273 -36.0182
   -36.0027 -35.9549 -35.9538 -35.9461 -35.9084 -35.7889 -35.6904 -35.6784
    -4.1574  -2.8237  -2.4603  -2.4416  -2.2968  -2.2169  -2.1573  -2.0442
    -1.7141  -1.6625  -1.6559  -1.4877  -1.2561  -1.0326  -0.9917  -0.6187
    -0.4666  -0.3904  -0.3736  -0.1993   0.0714   0.1013   0.2207   0.3463
     0.5793   0.6899   0.7313   0.7538   0.7973   0.8219   1.1055   1.1740
     1.3451   1.4527   1.5810   1.7306   1.8250   1.8381   1.9282   2.0059
     2.2128   2.4431   2.6027   2.7560   2.8432   2.9653   2.9704   3.3428
     3.4180   3.6202   3.8817   4.0052   4.1214   4.1493   4.4882   4.6358
     4.7750   4.8036   5.1022   5.2724

          k = 0.0302-0.0513 0.0000 ( 30433 PWs)   bands (ev):

   -72.0689 -72.0466 -71.9838 -71.9604 -71.8963 -71.8744 -70.4491 -70.4338
   -70.0621 -70.0494 -70.0461 -70.0335 -40.5139 -40.5090 -40.4829 -40.4591
   -40.4263 -40.3172 -40.0947 -40.0880 -40.0694 -40.0513 -40.0391 -40.0324
   -40.0172 -40.0112 -40.0008 -39.9781 -39.9020 -39.8983 -36.3335 -36.3084
   -36.2444 -36.1677 -36.1504 -36.1316 -36.0616 -36.0455 -36.0312 -36.0291
   -36.0090 -35.9585 -35.9380 -35.9175 -35.8259 -35.7065 -35.6961 -35.6709
    -4.5421  -2.8271  -2.8065  -2.6099  -2.5578  -2.4727  -2.3876  -2.1717
    -1.9754  -1.8874  -1.8434  -1.7118  -1.4832  -1.3131  -1.0873  -0.6317
    -0.4626  -0.4321  -0.3283   0.0185   0.2396   0.2608   0.3475   0.5216
     0.5320   0.6533   0.6804   0.8865   0.9176   1.0320   1.2520   1.4983
     1.5262   1.6805   1.8774   1.9352   1.9469   2.0240   2.1385   2.1495
     2.3949   2.5108   2.6286   2.8144   2.8836   2.9636   3.1248   3.5365
     3.6503   3.9949   4.0283   4.0724   4.2104   4.4137   4.7052   4.7409
     5.0316   5.1113   5.2075   5.4251

          k = 0.0302-0.0340 0.0000 ( 30453 PWs)   bands (ev):

   -72.0734 -72.0421 -71.9886 -71.9557 -71.9008 -71.8698 -70.4524 -70.4304
   -70.0654 -70.0527 -70.0426 -70.0301 -40.5531 -40.5147 -40.4785 -40.4663
   -40.4239 -40.2781 -40.1328 -40.1257 -40.0759 -40.0583 -40.0363 -40.0359
   -40.0141 -40.0069 -40.0050 -39.9747 -39.8643 -39.8606 -36.3380 -36.3110
   -36.2979 -36.2157 -36.1754 -36.1270 -36.0951 -36.0649 -36.0351 -36.0348
   -36.0016 -35.9618 -35.9297 -35.8438 -35.7540 -35.7030 -35.6644 -35.6331
    -4.8401  -3.0996  -2.9112  -2.8457  -2.7372  -2.6089  -2.5976  -2.2559
    -2.2147  -2.0246  -1.9706  -1.9128  -1.6885  -1.4875  -1.3404  -0.6262
    -0.5200  -0.4554  -0.1196   0.1929   0.2747   0.3943   0.4158   0.4597
     0.5390   0.6991   0.8798   0.9707   1.0025   1.2640   1.3795   1.5198
     1.6520   1.6676   1.8007   2.0614   2.1518   2.1728   2.2590   2.3908
     2.6618   2.6816   2.7474   2.9066   3.2451   3.3394   3.4022   3.5160
     3.8738   4.0590   4.0724   4.3670   4.4693   4.6673   4.8865   4.9434
     4.9928   5.3899   5.4078   5.4799

          k = 0.0453-0.0251 0.0000 ( 30456 PWs)   bands (ev):

   -72.0733 -72.0422 -71.9884 -71.9558 -71.9008 -71.8698 -70.4526 -70.4304
   -70.0656 -70.0529 -70.0426 -70.0300 -40.5516 -40.5141 -40.4781 -40.4630
   -40.4226 -40.2781 -40.1315 -40.1242 -40.0729 -40.0557 -40.0366 -40.0355
   -40.0137 -40.0069 -40.0038 -39.9747 -39.8644 -39.8607 -36.3426 -36.3147
   -36.2992 -36.2181 -36.1738 -36.1267 -36.0973 -36.0709 -36.0376 -36.0361
   -36.0027 -35.9651 -35.9309 -35.8438 -35.7538 -35.7038 -35.6643 -35.6329
    -4.7222  -2.9994  -2.9204  -2.7609  -2.6039  -2.5366  -2.5303  -2.1658
    -2.1590  -1.9682  -1.8742  -1.8666  -1.6418  -1.3037  -1.2784  -0.6018
    -0.5590  -0.3926  -0.1804   0.1097   0.2961   0.3598   0.4453   0.5313
     0.5332   0.5797   0.9245   0.9773   1.0458   1.1621   1.3472   1.4870
     1.5530   1.6673   1.7750   1.9474   2.0176   2.1230   2.1628   2.3916
     2.4837   2.6324   2.6334   2.8378   3.0254   3.0757   3.3447   3.4385
     3.8176   3.9375   4.0743   4.2600   4.4475   4.6264   4.6796   4.8187
     4.8860   5.0625   5.2023   5.3836

          k = 0.0453-0.0079 0.0000 ( 30461 PWs)   bands (ev):

   -72.0767 -72.0387 -71.9918 -71.9523 -71.9043 -71.8663 -70.4553 -70.4277
   -70.0683 -70.0556 -70.0400 -70.0274 -40.5801 -40.5179 -40.4742 -40.4651
   -40.4190 -40.2477 -40.1594 -40.1515 -40.0750 -40.0587 -40.0398 -40.0322
   -40.0108 -40.0060 -40.0031 -39.9719 -39.8351 -39.8313 -36.3676 -36.3507
   -36.2944 -36.2702 -36.1781 -36.1510 -36.1202 -36.0790 -36.0432 -36.0311
   -35.9986 -35.9710 -35.9265 -35.7874 -35.7091 -35.6983 -35.6593 -35.5773
    -4.8450  -3.1390  -2.9042  -2.8805  -2.6612  -2.6371  -2.5673  -2.2834
    -2.1569  -2.0117  -1.9687  -1.9178  -1.6647  -1.4579  -1.3591  -0.5792
    -0.5602  -0.4372  -0.0247   0.1998   0.2945   0.3797   0.4891   0.5325
     0.5948   0.6568   1.0342   1.0617   1.1273   1.1930   1.2865   1.3160
     1.6336   1.6958   1.7169   1.8140   2.1317   2.1907   2.2722   2.4474
     2.5287   2.6182   2.7956   2.9885   3.1711   3.1916   3.4611   3.4975
     3.8137   3.9802   4.2036   4.2442   4.4888   4.6765   4.6965   4.8918
     4.9550   5.1862   5.4022   5.4177

          k = 0.0453 0.0094 0.0000 ( 30466 PWs)   bands (ev):

   -72.0787 -72.0366 -71.9939 -71.9500 -71.9065 -71.8641 -70.4571 -70.4261
   -70.0700 -70.0574 -70.0383 -70.0257 -40.5971 -40.5198 -40.4714 -40.4643
   -40.4153 -40.2283 -40.1760 -40.1677 -40.0745 -40.0592 -40.0418 -40.0294
   -40.0086 -40.0069 -40.0004 -39.9699 -39.8165 -39.8125 -36.4028 -36.3589
   -36.3042 -36.2929 -36.1846 -36.1800 -36.1169 -36.0879 -36.0484 -36.0298
   -35.9971 -35.9769 -35.9250 -35.7523 -35.7126 -35.6638 -35.6563 -35.5425
    -4.8495  -3.1849  -2.9399  -2.7648  -2.7158  -2.6236  -2.5271  -2.3154
    -2.1090  -1.9933  -1.9883  -1.9220  -1.5718  -1.5401  -1.3498  -0.5721
    -0.5100  -0.4825   0.0546   0.2337   0.2819   0.3782   0.5036   0.5964
     0.6691   0.7282   1.0353   1.0757   1.1240   1.1450   1.1769   1.3342
     1.5659   1.6569   1.7248   1.7459   2.0980   2.2008   2.2869   2.3840
     2.5023   2.5882   2.7090   3.0439   3.1532   3.1993   3.4804   3.5440
     3.6459   4.0248   4.1992   4.3018   4.4316   4.6262   4.6280   4.9203
     5.0438   5.2989   5.4410   5.4751

          k = 0.0453 0.0267 0.0000 ( 30503 PWs)   bands (ev):

   -72.0793 -72.0359 -71.9945 -71.9493 -71.9072 -71.8634 -70.4578 -70.4256
   -70.0707 -70.0581 -70.0377 -70.0251 -40.6016 -40.5200 -40.4700 -40.4609
   -40.4124 -40.2214 -40.1805 -40.1719 -40.0719 -40.0578 -40.0418 -40.0275
   -40.0075 -40.0064 -39.9989 -39.9690 -39.8100 -39.8059 -36.4174 -36.3658
   -36.3176 -36.2947 -36.1981 -36.1794 -36.1150 -36.0960 -36.0527 -36.0316
   -35.9980 -35.9820 -35.9262 -35.7407 -35.7144 -35.6553 -35.6522 -35.5309
    -4.7354  -3.1466  -2.8613  -2.6728  -2.6030  -2.5509  -2.4382  -2.2617
    -2.0117  -1.9462  -1.8880  -1.8797  -1.5097  -1.4062  -1.2521  -0.5527
    -0.5051  -0.4603   0.0020   0.2097   0.2843   0.3671   0.4872   0.5676
     0.7625   0.8733   0.8940   0.9015   1.0807   1.1125   1.2698   1.3685
     1.5598   1.5768   1.6545   1.6914   1.9646   2.1516   2.2184   2.2407
     2.3327   2.4895   2.6665   2.7955   2.9574   3.0285   3.4181   3.4616
     3.4974   3.8954   4.2080   4.2350   4.2930   4.5314   4.7402   4.8018
     5.0091   5.1735   5.2264   5.3508

          k = 0.0453 0.0440 0.0000 ( 30454 PWs)   bands (ev):

   -72.0784 -72.0366 -71.9935 -71.9501 -71.9064 -71.8641 -70.4575 -70.4261
   -70.0703 -70.0577 -70.0383 -70.0257 -40.5935 -40.5183 -40.4702 -40.4558
   -40.4111 -40.2279 -40.1727 -40.1640 -40.0681 -40.0548 -40.0397 -40.0271
   -40.0077 -40.0047 -39.9990 -39.9695 -39.8162 -39.8121 -36.4102 -36.3701
   -36.3094 -36.2988 -36.1902 -36.1769 -36.1152 -36.1018 -36.0551 -36.0355
   -36.0007 -35.9852 -35.9293 -35.7535 -35.7142 -35.6644 -35.6563 -35.5431
    -4.5088  -3.0381  -2.6747  -2.5270  -2.5149  -2.3581  -2.3190  -2.1230
    -1.8841  -1.8364  -1.7728  -1.7007  -1.3663  -1.2491  -1.0559  -0.5469
    -0.4540  -0.4345  -0.1542   0.0831   0.2477   0.2703   0.4502   0.5371
     0.6349   0.7716   0.9088   0.9315   1.0147   1.1191   1.2408   1.3727
     1.5321   1.5378   1.6138   1.6811   1.7725   2.0213   2.0315   2.1278
     2.2105   2.3173   2.4189   2.5573   2.5917   2.6861   3.3156   3.3692
     3.4044   3.6348   4.0608   4.1222   4.2171   4.3622   4.4857   4.7311
     4.8841   5.0678   5.2143   5.2383

          k = 0.0453 0.0612 0.0000 ( 30450 PWs)   bands (ev):

   -72.0761 -72.0388 -71.9911 -71.9524 -71.9042 -71.8663 -70.4561 -70.4277
   -70.0688 -70.0562 -70.0399 -70.0273 -40.5735 -40.5151 -40.4722 -40.4500
   -40.4121 -40.2474 -40.1532 -40.1447 -40.0640 -40.0505 -40.0360 -40.0286
   -40.0094 -40.0021 -40.0011 -39.9713 -39.8349 -39.8311 -36.3811 -36.3706
   -36.3040 -36.2798 -36.1726 -36.1610 -36.1176 -36.1041 -36.0550 -36.0402
   -36.0045 -35.9857 -35.9335 -35.7889 -35.7119 -35.6990 -35.6591 -35.5779
    -4.1847  -2.8787  -2.5024  -2.4097  -2.2879  -2.1935  -2.1212  -1.9128
    -1.7558  -1.6713  -1.5674  -1.4593  -1.1192  -1.0875  -0.9788  -0.4866
    -0.4367  -0.3382  -0.3340  -0.1137   0.0764   0.1697   0.2493   0.3870
     0.5918   0.7537   0.7621   0.9110   0.9533   1.0373   1.1385   1.2620
     1.3481   1.4861   1.5894   1.6117   1.7134   1.7533   1.8389   1.9833
     2.0914   2.1666   2.1955   2.3595   2.4122   2.6604   3.1395   3.2501
     3.3126   3.3961   3.8245   3.9459   4.2093   4.2225   4.2707   4.6752
     4.9393   4.9551   5.1684   5.2236

          k = 0.0453-0.1288 0.0000 ( 30443 PWs)   bands (ev):

   -72.0725 -72.0423 -71.9874 -71.9560 -71.9008 -71.8698 -70.4536 -70.4302
   -70.0662 -70.0536 -70.0425 -70.0299 -40.5431 -40.5108 -40.4760 -40.4443
   -40.4159 -40.2786 -40.1235 -40.1154 -40.0597 -40.0452 -40.0320 -40.0317
   -40.0127 -40.0054 -39.9987 -39.9746 -39.8650 -39.8614 -36.3669 -36.3316
   -36.3093 -36.2303 -36.1669 -36.1245 -36.1097 -36.1018 -36.0520 -36.0447
   -36.0090 -35.9832 -35.9379 -35.8441 -35.7533 -35.7077 -35.6636 -35.6324
    -3.7896  -2.7023  -2.6307  -2.1347  -2.0384  -1.9905  -1.8997  -1.6699
    -1.6130  -1.4520  -1.3762  -1.1958  -1.0815  -0.8919  -0.8201  -0.6630
    -0.4736  -0.4437  -0.3107  -0.1581  -0.0127   0.0581   0.0983   0.1636
     0.5260   0.5981   0.6887   0.7283   0.7496   0.8106   0.9647   1.0974
     1.2161   1.2363   1.3716   1.4430   1.6567   1.6665   1.7722   1.7910
     1.9343   2.0805   2.3932   2.4610   2.6219   2.7755   2.8482   3.0642
     3.2617   3.3752   3.7968   3.8365   4.1933   4.2121   4.2508   4.5523
     4.7545   4.9325   5.0982   5.1351

          k = 0.0453-0.1115 0.0000 ( 30467 PWs)   bands (ev):

   -72.0680 -72.0469 -71.9826 -71.9608 -71.8962 -71.8743 -70.4503 -70.4335
   -70.0629 -70.0503 -70.0459 -70.0333 -40.5056 -40.5042 -40.4812 -40.4393
   -40.4224 -40.3195 -40.0857 -40.0779 -40.0551 -40.0396 -40.0373 -40.0274
   -40.0174 -40.0116 -39.9948 -39.9789 -39.9043 -39.9009 -36.3590 -36.3150
   -36.2635 -36.1638 -36.1602 -36.1302 -36.0950 -36.0515 -36.0460 -36.0416
   -36.0135 -35.9776 -35.9422 -35.9145 -35.8229 -35.7045 -35.6996 -35.6694
    -3.3694  -2.9212  -2.5590  -1.9584  -1.9133  -1.7622  -1.7176  -1.5086
    -1.4169  -1.3544  -1.2392  -1.1547  -0.9564  -0.8814  -0.8070  -0.7241
    -0.6204  -0.4806  -0.2878  -0.2514  -0.0272   0.0768   0.0970   0.2403
     0.3151   0.3358   0.3659   0.4543   0.5740   0.6315   0.8665   0.9676
     1.1671   1.1963   1.2744   1.3906   1.4401   1.5478   1.7907   1.8576
     1.9718   2.1033   2.5096   2.6065   2.6498   2.8207   2.8918   3.0732
     3.4469   3.4646   3.8114   3.9695   4.1072   4.2963   4.3231   4.4153
     4.5257   4.7407   4.8556   4.8713

          k = 0.0453-0.0942 0.0000 ( 30418 PWs)   bands (ev):

   -72.0628 -72.0522 -71.9772 -71.9664 -71.8910 -71.8796 -70.4464 -70.4372
   -70.0589 -70.0498 -70.0463 -70.0371 -40.4999 -40.4880 -40.4588 -40.4352
   -40.4311 -40.3669 -40.0506 -40.0458 -40.0418 -40.0348 -40.0341 -40.0235
   -40.0229 -40.0178 -39.9906 -39.9839 -39.9501 -39.9466 -36.3477 -36.3197
   -36.1831 -36.1530 -36.1383 -36.0849 -36.0843 -36.0519 -36.0377 -36.0181
   -35.9967 -35.9679 -35.9650 -35.9456 -35.9029 -35.7828 -35.6944 -35.6761
    -3.3220  -3.0026  -2.4874  -1.9638  -1.9178  -1.7547  -1.7528  -1.5863
    -1.3501  -1.3197  -1.2452  -1.1431  -0.9898  -0.9792  -0.8678  -0.7104
    -0.6193  -0.5311  -0.2725  -0.2061  -0.0363   0.0313   0.1448   0.2512
     0.2940   0.3224   0.3626   0.4682   0.5262   0.5353   0.7976   0.9407
     1.0086   1.2037   1.2951   1.3822   1.5798   1.6406   1.7860   1.8283
     1.9645   2.4225   2.4457   2.6239   2.7520   2.7921   2.9449   3.4781
     3.5903   3.5993   3.7638   3.8239   3.9685   4.2766   4.2891   4.4458
     4.5810   4.6101   4.6872   4.9476

          k = 0.0453-0.0769 0.0000 ( 30411 PWs)   bands (ev):

   -72.0579 -72.0573 -71.9724 -71.9715 -71.8853 -71.8853 -70.4421 -70.4413
   -70.0545 -70.0540 -70.0419 -70.0413 -40.4951 -40.4941 -40.4408 -40.4319
   -40.4174 -40.4107 -40.0529 -40.0464 -40.0343 -40.0295 -40.0238 -40.0202
   -39.9980 -39.9958 -39.9947 -39.9890 -39.9862 -39.9860 -36.3344 -36.3244
   -36.1493 -36.1459 -36.0928 -36.0824 -36.0710 -36.0558 -36.0279 -36.0227
   -35.9973 -35.9882 -35.9580 -35.9500 -35.8772 -35.8678 -35.6865 -35.6832
    -3.7551  -2.8111  -2.4533  -2.1336  -2.1095  -1.9570  -1.8953  -1.8687
    -1.5274  -1.4745  -1.3421  -1.2775  -1.1016  -0.9905  -0.8133  -0.7749
    -0.5465  -0.4342  -0.3735  -0.0661  -0.0358  -0.0054   0.0591   0.1715
     0.4621   0.5197   0.6382   0.6491   0.6865   0.8266   0.8785   0.9934
     1.0942   1.0946   1.2278   1.5611   1.7660   1.8229   1.8231   1.9159
     2.0287   2.3568   2.6472   2.7211   2.8686   2.8996   3.0701   3.2783
     3.2914   3.7306   3.8084   3.8326   4.0000   4.0192   4.3982   4.5580
     4.6625   4.6724   5.1490   5.2092

          k = 0.0453-0.0597 0.0000 ( 30426 PWs)   bands (ev):

   -72.0636 -72.0517 -71.9783 -71.9657 -71.8910 -71.8797 -70.4454 -70.4378
   -70.0582 -70.0502 -70.0455 -70.0376 -40.5022 -40.4886 -40.4672 -40.4501
   -40.4289 -40.3625 -40.0611 -40.0515 -40.0443 -40.0427 -40.0409 -40.0284
   -40.0207 -40.0150 -39.9957 -39.9821 -39.9458 -39.9419 -36.3294 -36.3209
   -36.1670 -36.1585 -36.1388 -36.0739 -36.0594 -36.0560 -36.0273 -36.0182
   -36.0027 -35.9549 -35.9538 -35.9461 -35.9084 -35.7889 -35.6904 -35.6784
    -4.1574  -2.8237  -2.4603  -2.4416  -2.2968  -2.2169  -2.1573  -2.0442
    -1.7141  -1.6625  -1.6559  -1.4877  -1.2561  -1.0326  -0.9917  -0.6187
    -0.4666  -0.3904  -0.3736  -0.1993   0.0714   0.1013   0.2207   0.3463
     0.5793   0.6899   0.7313   0.7538   0.7973   0.8219   1.1055   1.1740
     1.3451   1.4527   1.5810   1.7306   1.8250   1.8381   1.9282   2.0059
     2.2128   2.4431   2.6027   2.7560   2.8432   2.9653   2.9704   3.3428
     3.4180   3.6202   3.8817   4.0052   4.1214   4.1493   4.4882   4.6358
     4.7750   4.8036   5.1021   5.2724

          k = 0.0453-0.0424 0.0000 ( 30422 PWs)   bands (ev):

   -72.0689 -72.0466 -71.9838 -71.9604 -71.8963 -71.8744 -70.4492 -70.4338
   -70.0621 -70.0494 -70.0461 -70.0335 -40.5133 -40.5087 -40.4828 -40.4578
   -40.4259 -40.3173 -40.0942 -40.0874 -40.0681 -40.0502 -40.0388 -40.0327
   -40.0172 -40.0112 -40.0003 -39.9782 -39.9022 -39.8984 -36.3354 -36.3090
   -36.2458 -36.1671 -36.1514 -36.1317 -36.0643 -36.0456 -36.0323 -36.0302
   -36.0093 -35.9598 -35.9382 -35.9172 -35.8257 -35.7066 -35.6961 -35.6708
    -4.4881  -2.8904  -2.7672  -2.5233  -2.5197  -2.4442  -2.3557  -2.1246
    -1.9564  -1.8662  -1.7882  -1.6962  -1.5002  -1.1927  -1.0592  -0.6186
    -0.5123  -0.3684  -0.3528  -0.0373   0.2320   0.2326   0.3981   0.4760
     0.5682   0.5893   0.7728   0.8889   0.9326   1.0012   1.2345   1.5085
     1.5186   1.6774   1.8101   1.8272   1.8813   2.0208   2.0985   2.1118
     2.4229   2.4277   2.6457   2.7242   2.8231   2.8746   3.1688   3.4770
     3.6338   3.9330   3.9908   4.0118   4.3158   4.3984   4.5806   4.6666
     4.9312   4.9575   5.0618   5.2384

          k = 0.0604-0.0335 0.0000 ( 30426 PWs)   bands (ev):

   -72.0687 -72.0467 -71.9835 -71.9605 -71.8963 -71.8744 -70.4495 -70.4337
   -70.0623 -70.0496 -70.0461 -70.0335 -40.5116 -40.5081 -40.4824 -40.4540
   -40.4250 -40.3177 -40.0927 -40.0856 -40.0649 -40.0474 -40.0381 -40.0331
   -40.0171 -40.0112 -39.9989 -39.9784 -39.9025 -39.8988 -36.3405 -36.3104
   -36.2495 -36.1654 -36.1543 -36.1317 -36.0713 -36.0463 -36.0352 -36.0329
   -36.0100 -35.9635 -35.9388 -35.9165 -35.8249 -35.7066 -35.6963 -35.6705
    -4.3290  -2.9563  -2.6536  -2.4307  -2.4292  -2.2976  -2.2617  -2.0044
    -1.9004  -1.7788  -1.6470  -1.6453  -1.4443  -0.9886  -0.9806  -0.5844
    -0.5158  -0.4225  -0.3085  -0.1477   0.1553   0.1607   0.3761   0.4450
     0.6249   0.6732   0.8379   0.8743   0.9254   0.9482   1.1721   1.4067
     1.5266   1.6411   1.6495   1.6970   1.7537   1.9183   1.9392   2.0964
     2.2009   2.4085   2.5057   2.5593   2.7183   2.8337   3.1642   3.3731
     3.6096   3.7513   3.8393   3.9927   4.1746   4.3723   4.4574   4.4594
     4.7128   4.7408   4.8689   4.9527

          k = 0.0604-0.0162 0.0000 ( 30437 PWs)   bands (ev):

   -72.0731 -72.0422 -71.9881 -71.9559 -71.9008 -71.8698 -70.4529 -70.4303
   -70.0658 -70.0531 -70.0426 -70.0300 -40.5490 -40.5130 -40.4774 -40.4571
   -40.4204 -40.2782 -40.1291 -40.1215 -40.0679 -40.0517 -40.0369 -40.0341
   -40.0132 -40.0066 -40.0020 -39.9747 -39.8645 -39.8608 -36.3505 -36.3205
   -36.3020 -36.2221 -36.1713 -36.1262 -36.1012 -36.0810 -36.0421 -36.0387
   -36.0047 -35.9708 -35.9331 -35.8439 -35.7536 -35.7051 -35.6640 -35.6326
    -4.4939  -2.8672  -2.8232  -2.6121  -2.4528  -2.3974  -2.3621  -2.0648
    -1.9991  -1.8262  -1.7730  -1.6989  -1.4910  -1.1601  -1.0614  -0.5573
    -0.5568  -0.3438  -0.2942  -0.0175   0.2618   0.2881   0.3510   0.4908
     0.5328   0.7117   0.8952   0.9660   1.0127   1.0488   1.2148   1.3762
     1.5881   1.5905   1.6708   1.7980   1.8571   1.9239   2.1281   2.2212
     2.3798   2.3802   2.5182   2.5869   2.6596   2.7479   3.2802   3.3548
     3.6973   3.7916   3.8765   4.0914   4.2448   4.3903   4.4726   4.7121
     4.8998   4.9498   5.0663   5.2604

          k = 0.0604 0.0010 0.0000 ( 30458 PWs)   bands (ev):

   -72.0764 -72.0388 -71.9915 -71.9523 -71.9043 -71.8663 -70.4557 -70.4277
   -70.0685 -70.0559 -70.0399 -70.0273 -40.5769 -40.5165 -40.4732 -40.4576
   -40.4155 -40.2475 -40.1563 -40.1481 -40.0688 -40.0541 -40.0393 -40.0302
   -40.0100 -40.0040 -40.0024 -39.9716 -39.8350 -39.8312 -36.3744 -36.3608
   -36.2992 -36.2750 -36.1751 -36.1560 -36.1188 -36.0917 -36.0490 -36.0356
   -36.0016 -35.9784 -35.9300 -35.7882 -35.7105 -35.6986 -35.6592 -35.5776
    -4.5547  -2.9509  -2.7160  -2.6962  -2.4975  -2.4152  -2.3767  -2.1344
    -1.9633  -1.8392  -1.8278  -1.7158  -1.4188  -1.3092  -1.0870  -0.5647
    -0.4969  -0.4032  -0.1842   0.0691   0.2826   0.3134   0.4257   0.5050
     0.5056   0.7987   0.8799   1.0146   1.0291   1.0660   1.2011   1.3594
     1.5684   1.5826   1.6411   1.7556   1.8528   2.0170   2.1311   2.2303
     2.2877   2.4610   2.5630   2.5994   2.6141   2.7115   3.3349   3.3799
     3.5551   3.7722   3.9729   4.1348   4.3162   4.3661   4.4877   4.8065
     4.8258   5.1188   5.3471   5.3663

          k = 0.0604 0.0183 0.0000 ( 30454 PWs)   bands (ev):

   -72.0784 -72.0366 -71.9935 -71.9501 -71.9064 -71.8641 -70.4575 -70.4261
   -70.0703 -70.0577 -70.0383 -70.0257 -40.5935 -40.5183 -40.4702 -40.4558
   -40.4111 -40.2279 -40.1727 -40.1640 -40.0681 -40.0548 -40.0397 -40.0271
   -40.0077 -40.0047 -39.9990 -39.9695 -39.8162 -39.8121 -36.4102 -36.3701
   -36.3094 -36.2988 -36.1902 -36.1769 -36.1152 -36.1018 -36.0551 -36.0355
   -36.0007 -35.9852 -35.9293 -35.7535 -35.7142 -35.6644 -35.6563 -35.5431
    -4.5088  -3.0381  -2.6747  -2.5270  -2.5148  -2.3581  -2.3190  -2.1230
    -1.8841  -1.8364  -1.7728  -1.7007  -1.3663  -1.2491  -1.0559  -0.5469
    -0.4540  -0.4345  -0.1542   0.0831   0.2477   0.2703   0.4502   0.5371
     0.6349   0.7716   0.9088   0.9315   1.0147   1.1191   1.2408   1.3727
     1.5321   1.5378   1.6138   1.6811   1.7725   2.0213   2.0315   2.1278
     2.2105   2.3173   2.4189   2.5573   2.5917   2.6861   3.3156   3.3692
     3.4044   3.6348   4.0608   4.1222   4.2171   4.3622   4.4857   4.7311
     4.8841   5.0678   5.2143   5.2383

          k = 0.0604 0.0356 0.0000 ( 30439 PWs)   bands (ev):

   -72.0789 -72.0359 -71.9940 -71.9493 -71.9072 -71.8633 -70.4582 -70.4256
   -70.0710 -70.0584 -70.0377 -70.0251 -40.5981 -40.5184 -40.4688 -40.4525
   -40.4080 -40.2209 -40.1773 -40.1683 -40.0666 -40.0537 -40.0382 -40.0254
   -40.0065 -40.0044 -39.9971 -39.9686 -39.8096 -39.8054 -36.4248 -36.3768
   -36.3228 -36.3006 -36.2036 -36.1767 -36.1134 -36.1097 -36.0594 -36.0375
   -36.0016 -35.9901 -35.9306 -35.7420 -35.7159 -35.6553 -35.6529 -35.5316
    -4.3585  -3.0726  -2.5580  -2.4685  -2.3155  -2.2611  -2.2236  -2.0352
    -1.7843  -1.7732  -1.6585  -1.6167  -1.3153  -1.0540  -0.9703  -0.5300
    -0.4228  -0.4062  -0.2166   0.0015   0.1382   0.2075   0.4122   0.6105
     0.6630   0.7251   0.8468   0.9797   1.0709   1.1262   1.2423   1.4149
     1.4391   1.4467   1.5522   1.6277   1.7562   1.8505   1.9243   1.9495
     2.1511   2.2046   2.2075   2.3106   2.3473   2.7148   3.1853   3.2915
     3.3972   3.4255   3.9413   3.9980   4.2053   4.3409   4.3460   4.5058
     4.9016   5.0541   5.0899   5.1199

          k = 0.0604 0.0529 0.0000 ( 30447 PWs)   bands (ev):

   -72.0781 -72.0367 -71.9931 -71.9501 -71.9064 -71.8641 -70.4579 -70.4261
   -70.0706 -70.0579 -70.0383 -70.0257 -40.5904 -40.5170 -40.4692 -40.4485
   -40.4073 -40.2275 -40.1698 -40.1608 -40.0647 -40.0510 -40.0355 -40.0256
   -40.0069 -40.0031 -39.9973 -39.9692 -39.8159 -39.8118 -36.4167 -36.3796
   -36.3140 -36.3038 -36.1950 -36.1747 -36.1140 -36.1137 -36.0611 -36.0405
   -36.0037 -35.9922 -35.9331 -35.7545 -35.7154 -35.6649 -35.6563 -35.5437
    -4.1118  -3.0510  -2.3655  -2.3193  -2.2391  -2.1328  -2.0550  -1.8722
    -1.6831  -1.6614  -1.5292  -1.4039  -1.1588  -0.9430  -0.9002  -0.4734
    -0.4602  -0.3098  -0.2635  -0.1522  -0.0228   0.0889   0.2990   0.5773
     0.6087   0.7037   0.8169   0.9140   1.0022   1.1249   1.1794   1.2574
     1.4091   1.4784   1.4812   1.5076   1.6073   1.7025   1.7473   1.8278
     1.9999   2.0860   2.1167   2.1885   2.2783   2.7016   3.0056   3.1888
     3.2839   3.3491   3.7027   3.9586   4.0967   4.1384   4.3004   4.4592
     4.8269   4.9584   4.9935   5.0449

          k = 0.0604-0.1371 0.0000 ( 30423 PWs)   bands (ev):

   -72.0758 -72.0389 -71.9908 -71.9524 -71.9042 -71.8663 -70.4563 -70.4277
   -70.0690 -70.0564 -70.0399 -70.0273 -40.5711 -40.5141 -40.4715 -40.4444
   -40.4095 -40.2472 -40.1510 -40.1422 -40.0621 -40.0473 -40.0323 -40.0276
   -40.0089 -40.0009 -40.0000 -39.9712 -39.8348 -39.8310 -36.3860 -36.3778
   -36.3076 -36.2833 -36.1710 -36.1645 -36.1169 -36.1129 -36.0595 -36.0437
   -36.0067 -35.9910 -35.9361 -35.7895 -35.7128 -35.6992 -35.6591 -35.5782
    -3.7867  -2.9843  -2.3059  -2.1354  -2.0889  -2.0084  -1.8525  -1.6545
    -1.5586  -1.5071  -1.3875  -1.1563  -1.0386  -0.9087  -0.7809  -0.6288
    -0.4303  -0.3927  -0.3356  -0.2153  -0.0748   0.0905   0.1437   0.3676
     0.5674   0.6035   0.7105   0.7911   0.7932   0.8244   1.0702   1.0895
     1.1973   1.2646   1.3813   1.4619   1.5553   1.6250   1.7228   1.7310
     1.8847   2.0980   2.1587   2.4285   2.5001   2.6569   2.7807   3.0227
     3.2474   3.3061   3.6807   3.9476   4.0218   4.1234   4.2634   4.4567
     4.8276   4.8692   4.9152   5.0210

          k = 0.0604-0.1199 0.0000 ( 30451 PWs)   bands (ev):

   -72.0724 -72.0424 -71.9872 -71.9561 -71.9008 -71.8698 -70.4538 -70.4302
   -70.0664 -70.0538 -70.0425 -70.0299 -40.5414 -40.5102 -40.4756 -40.4408
   -40.4147 -40.2788 -40.1220 -40.1137 -40.0586 -40.0431 -40.0316 -40.0292
   -40.0126 -40.0051 -39.9979 -39.9745 -39.8652 -39.8616 -36.3712 -36.3343
   -36.3114 -36.2324 -36.1659 -36.1237 -36.1123 -36.1072 -36.0547 -36.0465
   -36.0101 -35.9864 -35.9393 -35.8442 -35.7532 -35.7083 -35.6635 -35.6324
    -3.4219  -2.8878  -2.5415  -1.9344  -1.8848  -1.8280  -1.6548  -1.4704
    -1.4423  -1.2905  -1.2704  -1.2187  -0.9487  -0.8422  -0.7007  -0.6939
    -0.5352  -0.4645  -0.3900  -0.2302  -0.0811  -0.0005   0.1846   0.1881
     0.3118   0.3512   0.4766   0.5156   0.6335   0.6927   0.8190   1.0127
     1.1113   1.1947   1.3408   1.4028   1.4326   1.6173   1.7716   1.7800
     1.9392   2.0305   2.2938   2.5757   2.6459   2.7373   2.8747   2.8866
     3.2535   3.3767   3.8524   3.8992   4.2073   4.2517   4.2531   4.3889
     4.7010   4.8103   4.9340   5.0334

          k = 0.0604-0.1026 0.0000 ( 30460 PWs)   bands (ev):

   -72.0680 -72.0469 -71.9826 -71.9609 -71.8962 -71.8743 -70.4504 -70.4334
   -70.0629 -70.0503 -70.0459 -70.0332 -40.5054 -40.5034 -40.4811 -40.4378
   -40.4223 -40.3197 -40.0848 -40.0770 -40.0546 -40.0388 -40.0374 -40.0263
   -40.0176 -40.0117 -39.9945 -39.9790 -39.9046 -39.9012 -36.3608 -36.3154
   -36.2649 -36.1646 -36.1598 -36.1300 -36.0971 -36.0522 -36.0470 -36.0423
[...]
   -36.0037 -35.9922 -35.9331 -35.7545 -35.7154 -35.6649 -35.6563 -35.5437
    -4.1118  -3.0510  -2.3655  -2.3193  -2.2391  -2.1328  -2.0550  -1.8722
    -1.6831  -1.6614  -1.5292  -1.4039  -1.1588  -0.9430  -0.9002  -0.4734
    -0.4602  -0.3098  -0.2635  -0.1522  -0.0228   0.0889   0.2990   0.5773
     0.6087   0.7037   0.8169   0.9140   1.0022   1.1249   1.1794   1.2574
     1.4092   1.4784   1.4812   1.5076   1.6073   1.7025   1.7473   1.8278
     1.9999   2.0860   2.1167   2.1885   2.2783   2.7016   3.0056   3.1888
     3.2839   3.3491   3.7027   3.9586   4.0967   4.1384   4.3004   4.4592
     4.8269   4.9584   4.9935   5.0450

          k = 0.0755 0.0445 0.0000 ( 30454 PWs)   bands (ev):

   -72.0787 -72.0359 -71.9937 -71.9493 -71.9071 -71.8633 -70.4586 -70.4256
   -70.0712 -70.0586 -70.0377 -70.0251 -40.5954 -40.5173 -40.4680 -40.4464
   -40.4048 -40.2206 -40.1749 -40.1656 -40.0649 -40.0499 -40.0342 -40.0243
   -40.0057 -40.0031 -39.9955 -39.9683 -39.8093 -39.8051 -36.4302 -36.3847
   -36.3266 -36.3049 -36.2077 -36.1751 -36.1195 -36.1124 -36.0646 -36.0418
   -36.0042 -35.9960 -35.9338 -35.7430 -35.7169 -35.6553 -35.6534 -35.5321
    -3.9591  -3.1666  -2.2908  -2.2679  -2.0827  -2.0084  -1.9723  -1.7852
    -1.6609  -1.6105  -1.4521  -1.2605  -1.0978  -0.8970  -0.7949  -0.5364
    -0.3960  -0.3824  -0.2503  -0.1841  -0.0428  -0.0019   0.3318   0.6129
     0.6711   0.6918   0.9088   0.9270   0.9727   1.0777   1.2047   1.3007
     1.3090   1.3609   1.4135   1.4483   1.5186   1.5658   1.6297   1.7246
     1.8040   2.0216   2.0988   2.1021   2.2082   2.7611   2.8154   3.0912
     3.2604   3.3234   3.6110   3.7116   4.0251   4.2012   4.2394   4.3085
     4.5830   4.7571   4.9603   5.0246

          k = 0.0755-0.1455 0.0000 ( 30445 PWs)   bands (ev):

   -72.0779 -72.0367 -71.9929 -71.9501 -71.9064 -71.8641 -70.4581 -70.4261
   -70.0707 -70.0581 -70.0383 -70.0257 -40.5886 -40.5162 -40.4687 -40.4442
   -40.4052 -40.2273 -40.1682 -40.1590 -40.0640 -40.0481 -40.0325 -40.0249
   -40.0063 -40.0022 -39.9962 -39.9690 -39.8157 -39.8117 -36.4204 -36.3850
   -36.3167 -36.3067 -36.1978 -36.1736 -36.1204 -36.1133 -36.0647 -36.0434
   -36.0055 -35.9962 -35.9352 -35.7551 -35.7161 -35.6652 -35.6562 -35.5440
    -3.7445  -3.2097  -2.1791  -2.1449  -2.0389  -1.9942  -1.8075  -1.6477
    -1.6196  -1.5369  -1.3757  -1.0712  -0.9519  -0.9328  -0.7511  -0.6229
    -0.5042  -0.3892  -0.2845  -0.2728  -0.1290   0.2360   0.2918   0.5669
     0.6199   0.6729   0.7297   0.8107   0.8806   0.9589   1.0648   1.1706
     1.1837   1.2647   1.3078   1.4779   1.4913   1.5107   1.6300   1.6842
     1.7037   2.0213   2.1407   2.3074   2.3322   2.6424   2.6890   3.0001
     3.2770   3.2906   3.4927   3.7749   3.9893   4.0669   4.2728   4.3063
     4.5450   4.6909   4.9290   4.9804

          k = 0.0755-0.1282 0.0000 ( 30398 PWs)   bands (ev):

   -72.0758 -72.0389 -71.9907 -71.9524 -71.9042 -71.8663 -70.4565 -70.4277
   -70.0690 -70.0564 -70.0399 -70.0273 -40.5702 -40.5138 -40.4713 -40.4424
   -40.4086 -40.2472 -40.1501 -40.1413 -40.0618 -40.0458 -40.0308 -40.0273
   -40.0087 -40.0004 -39.9995 -39.9711 -39.8348 -39.8310 -36.3877 -36.3803
   -36.3089 -36.2846 -36.1705 -36.1658 -36.1166 -36.1161 -36.0612 -36.0450
   -36.0075 -35.9929 -35.9370 -35.7897 -35.7132 -35.6993 -35.6590 -35.5783
    -3.5324  -3.1371  -2.2226  -2.0161  -2.0069  -1.9298  -1.6797  -1.5379
    -1.5041  -1.4378  -1.3066  -1.1166  -0.8502  -0.8007  -0.7761  -0.6868
    -0.5659  -0.4587  -0.4333  -0.2012  -0.1226   0.1910   0.3233   0.3750
     0.4210   0.5149   0.6290   0.6888   0.6929   0.7572   0.8400   0.9963
     1.1487   1.2069   1.3617   1.4548   1.4710   1.5181   1.6395   1.7956
     1.8397   2.1222   2.1241   2.4876   2.5901   2.6045   2.6602   2.9187
     3.2103   3.3146   3.6636   3.9467   3.9719   4.0897   4.2898   4.3331
     4.6405   4.7350   4.8499   4.9684

          k = 0.0755-0.1110 0.0000 ( 30451 PWs)   bands (ev):

   -72.0724 -72.0424 -71.9872 -71.9561 -71.9008 -71.8698 -70.4538 -70.4302
   -70.0664 -70.0538 -70.0425 -70.0299 -40.5414 -40.5102 -40.4756 -40.4408
   -40.4147 -40.2788 -40.1220 -40.1137 -40.0586 -40.0431 -40.0316 -40.0292
   -40.0126 -40.0051 -39.9979 -39.9745 -39.8652 -39.8616 -36.3712 -36.3343
   -36.3114 -36.2324 -36.1659 -36.1237 -36.1123 -36.1072 -36.0547 -36.0465
   -36.0101 -35.9864 -35.9393 -35.8442 -35.7532 -35.7083 -35.6635 -35.6324
    -3.4219  -2.8878  -2.5415  -1.9344  -1.8848  -1.8280  -1.6548  -1.4704
    -1.4423  -1.2905  -1.2704  -1.2187  -0.9487  -0.8423  -0.7007  -0.6939
    -0.5352  -0.4645  -0.3900  -0.2302  -0.0811  -0.0005   0.1846   0.1881
     0.3118   0.3512   0.4766   0.5156   0.6335   0.6927   0.8190   1.0127
     1.1113   1.1947   1.3408   1.4028   1.4326   1.6173   1.7716   1.7800
     1.9392   2.0305   2.2938   2.5757   2.6459   2.7373   2.8747   2.8866
     3.2535   3.3767   3.8524   3.8992   4.2073   4.2517   4.2531   4.3889
     4.7010   4.8104   4.9340   5.0334

          k = 0.0755-0.0937 0.0000 ( 30467 PWs)   bands (ev):

   -72.0680 -72.0469 -71.9826 -71.9608 -71.8962 -71.8743 -70.4503 -70.4335
   -70.0629 -70.0503 -70.0459 -70.0333 -40.5056 -40.5042 -40.4812 -40.4393
   -40.4224 -40.3195 -40.0857 -40.0779 -40.0551 -40.0396 -40.0373 -40.0274
   -40.0174 -40.0116 -39.9948 -39.9789 -39.9043 -39.9009 -36.3590 -36.3150
   -36.2635 -36.1638 -36.1602 -36.1302 -36.0950 -36.0515 -36.0460 -36.0416
   -36.0135 -35.9776 -35.9422 -35.9145 -35.8229 -35.7045 -35.6996 -35.6694
    -3.3694  -2.9212  -2.5590  -1.9584  -1.9133  -1.7622  -1.7176  -1.5086
    -1.4169  -1.3544  -1.2392  -1.1547  -0.9564  -0.8814  -0.8070  -0.7241
    -0.6204  -0.4806  -0.2878  -0.2514  -0.0272   0.0768   0.0970   0.2403
     0.3151   0.3358   0.3659   0.4543   0.5740   0.6315   0.8665   0.9676
     1.1671   1.1963   1.2744   1.3906   1.4401   1.5478   1.7907   1.8576
     1.9718   2.1033   2.5096   2.6065   2.6498   2.8207   2.8918   3.0732
     3.4469   3.4646   3.8114   3.9695   4.1072   4.2963   4.3231   4.4153
     4.5257   4.7407   4.8556   4.8713

          k = 0.0755-0.0764 0.0000 ( 30436 PWs)   bands (ev):

   -72.0629 -72.0522 -71.9774 -71.9663 -71.8910 -71.8796 -70.4463 -70.4373
   -70.0588 -70.0498 -70.0462 -70.0372 -40.5003 -40.4882 -40.4605 -40.4374
   -40.4302 -40.3661 -40.0517 -40.0487 -40.0408 -40.0360 -40.0351 -40.0250
   -40.0218 -40.0171 -39.9912 -39.9838 -39.9493 -39.9457 -36.3453 -36.3199
   -36.1811 -36.1537 -36.1385 -36.0846 -36.0817 -36.0512 -36.0366 -36.0178
   -35.9967 -35.9665 -35.9648 -35.9443 -35.9034 -35.7835 -35.6938 -35.6764
    -3.3199  -3.2969  -2.2761  -2.0600  -2.0476  -1.8253  -1.8207  -1.6656
    -1.4427  -1.4373  -1.2637  -1.0829  -0.9861  -0.9348  -0.8133  -0.8039
    -0.6380  -0.5855  -0.2451  -0.1759  -0.0477   0.1676   0.2593   0.2873
     0.3728   0.4661   0.4942   0.6160   0.6223   0.6619   0.8698   0.8915
     1.0711   1.2079   1.2965   1.3249   1.4682   1.5372   1.8275   1.8615
     1.9726   2.3354   2.5110   2.6280   2.7440   2.9121   2.9518   3.3398
     3.5206   3.5729   3.7624   3.7852   3.9567   3.9607   4.2343   4.2588
     4.4835   4.4994   4.5950   4.7934

          k = 0.0755-0.0591 0.0000 ( 30405 PWs)   bands (ev):

   -72.0578 -72.0574 -71.9721 -71.9717 -71.8853 -71.8853 -70.4419 -70.4415
   -70.0544 -70.0541 -70.0418 -70.0415 -40.4949 -40.4944 -40.4397 -40.4357
   -40.4141 -40.4112 -40.0517 -40.0484 -40.0334 -40.0311 -40.0236 -40.0221
   -39.9960 -39.9948 -39.9923 -39.9899 -39.9869 -39.9866 -36.3319 -36.3269
   -36.1483 -36.1466 -36.0929 -36.0890 -36.0642 -36.0581 -36.0273 -36.0249
   -35.9929 -35.9886 -35.9569 -35.9530 -35.8742 -35.8696 -35.6856 -35.6840
    -3.6276  -3.2485  -2.2248  -2.2165  -2.0561  -1.9364  -1.9004  -1.8788
    -1.5481  -1.5092  -1.3206  -1.2583  -1.0542  -0.8994  -0.8373  -0.8033
    -0.5392  -0.4427  -0.2390  -0.1803  -0.1146  -0.0180   0.3432   0.4261
     0.5633   0.6077   0.7156   0.7555   0.8239   0.8468   0.8666   0.8995
     1.1157   1.1398   1.2593   1.3488   1.5217   1.6521   1.7956   1.8376
     1.9936   2.4185   2.4250   2.7378   2.8824   2.9567   3.2312   3.2804
     3.3489   3.6075   3.6126   3.6790   3.8391   3.9702   3.9899   4.1896
     4.4383   4.5167   4.5993   4.6989

          k =-0.0906 0.0502 0.0000 ( 30408 PWs)   bands (ev):

   -72.0576 -72.0576 -71.9719 -71.9719 -71.8853 -71.8853 -70.4417 -70.4417
   -70.0543 -70.0542 -70.0416 -70.0416 -40.4946 -40.4946 -40.4380 -40.4380
   -40.4123 -40.4123 -40.0502 -40.0502 -40.0324 -40.0324 -40.0231 -40.0231
   -39.9948 -39.9948 -39.9909 -39.9909 -39.9871 -39.9870 -36.3295 -36.3295
   -36.1474 -36.1474 -36.0918 -36.0918 -36.0607 -36.0607 -36.0263 -36.0263
   -35.9901 -35.9901 -35.9552 -35.9552 -35.8717 -35.8717 -35.6847 -35.6847
    -3.4678  -3.4678  -2.2408  -2.2408  -1.9463  -1.9463  -1.9064  -1.9064
    -1.5503  -1.5503  -1.2673  -1.2673  -0.9597  -0.9597  -0.8261  -0.8261
    -0.4807  -0.4807  -0.2471  -0.2471  -0.0342  -0.0342   0.4411   0.4411
     0.6767   0.6767   0.7700   0.7700   0.8329   0.8329   0.8905   0.8905
     1.1775   1.1775   1.2401   1.2401   1.4473   1.4473   1.7903   1.7903
     2.1760   2.1760   2.6084   2.6084   2.9345   2.9345   3.3035   3.3035
     3.4566   3.4566   3.5871   3.5871   3.7731   3.7731   4.0341   4.0341
     4.4092   4.4092   4.6666   4.6666

          k =-0.0906 0.0675 0.0000 ( 30454 PWs)   bands (ev):

   -72.0631 -72.0521 -71.9776 -71.9662 -71.8910 -71.8797 -70.4460 -70.4375
   -70.0586 -70.0499 -70.0460 -70.0373 -40.5008 -40.4883 -40.4628 -40.4411
   -40.4292 -40.3649 -40.0540 -40.0510 -40.0424 -40.0368 -40.0361 -40.0271
   -40.0210 -40.0160 -39.9922 -39.9833 -39.9482 -39.9444 -36.3411 -36.3203
   -36.1776 -36.1549 -36.1388 -36.0834 -36.0768 -36.0509 -36.0344 -36.0175
   -35.9972 -35.9637 -35.9637 -35.9429 -35.9045 -35.7848 -35.6928 -35.6768
    -3.6349  -3.2387  -2.2607  -2.1935  -2.0986  -1.9313  -1.9253  -1.7785
    -1.5633  -1.5250  -1.3526  -1.2165  -1.0485  -0.8796  -0.8347  -0.8019
    -0.4945  -0.4472  -0.2434  -0.2007  -0.1397   0.0104   0.3374   0.4445
     0.5316   0.7019   0.7066   0.7374   0.8049   0.8730   0.8992   1.0270
     1.1100   1.1756   1.2939   1.3067   1.4444   1.5359   1.7959   1.8161
     2.0967   2.2236   2.4357   2.7379   2.7905   2.9900   3.0451   3.1975
     3.4097   3.5235   3.6904   3.7580   3.8326   3.9986   4.0930   4.1882
     4.3878   4.4561   4.6623   4.7714

          k =-0.0906 0.0848 0.0000 ( 30448 PWs)   bands (ev):

   -72.0682 -72.0468 -71.9829 -71.9607 -71.8963 -71.8743 -70.4501 -70.4335
   -70.0627 -70.0501 -70.0459 -70.0333 -40.5064 -40.5063 -40.4815 -40.4434
   -40.4230 -40.3189 -40.0878 -40.0801 -40.0571 -40.0416 -40.0373 -40.0300
   -40.0172 -40.0114 -39.9958 -39.9788 -39.9038 -39.9002 -36.3541 -36.3139
   -36.2597 -36.1614 -36.1614 -36.1308 -36.0889 -36.0497 -36.0431 -36.0394
   -36.0124 -35.9738 -35.9411 -35.9150 -35.8234 -35.7056 -35.6981 -35.6697
    -3.7408  -2.9536  -2.4205  -2.1560  -2.1110  -1.9351  -1.9269  -1.6812
    -1.6246  -1.4550  -1.4094  -1.1967  -1.0311  -0.9899  -0.8079  -0.6948
    -0.4570  -0.4337  -0.3412  -0.1973  -0.0697   0.0378   0.1854   0.2896
     0.4928   0.6581   0.6621   0.7155   0.7615   0.8666   0.8858   1.0791
     1.1903   1.2164   1.3033   1.4111   1.5880   1.6050   1.8117   1.8172
     2.0655   2.0722   2.4235   2.6414   2.7453   2.8240   2.9660   3.0797
     3.3262   3.4730   3.7701   3.7898   4.0993   4.1893   4.3319   4.4184
     4.5287   4.6943   4.8629   4.9249

          k =-0.0906 0.1021 0.0000 ( 30443 PWs)   bands (ev):

   -72.0725 -72.0423 -71.9874 -71.9560 -71.9008 -71.8698 -70.4536 -70.4302
   -70.0662 -70.0536 -70.0425 -70.0299 -40.5431 -40.5108 -40.4760 -40.4443
   -40.4159 -40.2786 -40.1235 -40.1154 -40.0597 -40.0452 -40.0320 -40.0317
   -40.0127 -40.0054 -39.9987 -39.9746 -39.8650 -39.8614 -36.3669 -36.3316
   -36.3093 -36.2303 -36.1669 -36.1245 -36.1097 -36.1018 -36.0520 -36.0447
   -36.0090 -35.9832 -35.9379 -35.8441 -35.7533 -35.7077 -35.6636 -35.6324
    -3.7896  -2.7023  -2.6307  -2.1347  -2.0384  -1.9905  -1.8997  -1.6699
    -1.6131  -1.4520  -1.3762  -1.1958  -1.0815  -0.8919  -0.8201  -0.6630
    -0.4736  -0.4437  -0.3107  -0.1581  -0.0127   0.0581   0.0983   0.1636
     0.5260   0.5981   0.6887   0.7283   0.7496   0.8106   0.9647   1.0974
     1.2161   1.2363   1.3716   1.4430   1.6567   1.6665   1.7722   1.7910
     1.9343   2.0805   2.3932   2.4610   2.6219   2.7755   2.8482   3.0642
     3.2617   3.3752   3.7968   3.8365   4.1933   4.2121   4.2508   4.5523
     4.7545   4.9325   5.0981   5.1351

          k =-0.0906 0.1193 0.0000 ( 30423 PWs)   bands (ev):

   -72.0758 -72.0389 -71.9908 -71.9524 -71.9042 -71.8663 -70.4563 -70.4277
   -70.0690 -70.0564 -70.0399 -70.0273 -40.5711 -40.5141 -40.4715 -40.4444
   -40.4095 -40.2472 -40.1510 -40.1422 -40.0621 -40.0473 -40.0323 -40.0276
   -40.0089 -40.0009 -40.0000 -39.9712 -39.8348 -39.8310 -36.3860 -36.3778
   -36.3076 -36.2833 -36.1710 -36.1645 -36.1169 -36.1129 -36.0595 -36.0437
   -36.0067 -35.9910 -35.9361 -35.7895 -35.7128 -35.6992 -35.6591 -35.5782
    -3.7867  -2.9843  -2.3059  -2.1354  -2.0889  -2.0084  -1.8525  -1.6545
    -1.5586  -1.5071  -1.3875  -1.1563  -1.0386  -0.9087  -0.7809  -0.6288
    -0.4303  -0.3927  -0.3356  -0.2153  -0.0748   0.0905   0.1437   0.3676
     0.5674   0.6035   0.7105   0.7911   0.7932   0.8244   1.0702   1.0895
     1.1973   1.2646   1.3813   1.4619   1.5553   1.6250   1.7228   1.7310
     1.8847   2.0980   2.1587   2.4285   2.5001   2.6569   2.7807   3.0227
     3.2474   3.3061   3.6807   3.9476   4.0218   4.1234   4.2634   4.4567
     4.8276   4.8691   4.9152   5.0210

          k =-0.0906 0.1366 0.0000 ( 30445 PWs)   bands (ev):

   -72.0779 -72.0367 -71.9929 -71.9501 -71.9064 -71.8641 -70.4581 -70.4261
   -70.0707 -70.0581 -70.0383 -70.0257 -40.5886 -40.5162 -40.4687 -40.4442
   -40.4052 -40.2273 -40.1682 -40.1590 -40.0640 -40.0481 -40.0325 -40.0249
   -40.0063 -40.0022 -39.9962 -39.9690 -39.8157 -39.8117 -36.4204 -36.3850
   -36.3167 -36.3067 -36.1978 -36.1736 -36.1204 -36.1133 -36.0647 -36.0434
   -36.0055 -35.9962 -35.9352 -35.7551 -35.7161 -35.6652 -35.6562 -35.5440
    -3.7445  -3.2097  -2.1791  -2.1449  -2.0389  -1.9942  -1.8075  -1.6477
    -1.6196  -1.5369  -1.3757  -1.0712  -0.9519  -0.9328  -0.7511  -0.6229
    -0.5042  -0.3892  -0.2845  -0.2728  -0.1290   0.2360   0.2918   0.5669
     0.6199   0.6729   0.7297   0.8107   0.8806   0.9589   1.0648   1.1706
     1.1837   1.2647   1.3078   1.4779   1.4913   1.5107   1.6300   1.6842
     1.7037   2.0213   2.1407   2.3074   2.3322   2.6424   2.6890   3.0001
     3.2770   3.2906   3.4927   3.7749   3.9893   4.0669   4.2728   4.3063
     4.5450   4.6909   4.9290   4.9804

          k =-0.0906-0.0534 0.0000 ( 30422 PWs)   bands (ev):

   -72.0786 -72.0359 -71.9936 -71.9493 -71.9071 -71.8633 -70.4587 -70.4256
   -70.0713 -70.0587 -70.0377 -70.0251 -40.5945 -40.5169 -40.4677 -40.4441
   -40.4036 -40.2205 -40.1740 -40.1646 -40.0647 -40.0482 -40.0325 -40.0240
   -40.0054 -40.0026 -39.9948 -39.9682 -39.8092 -39.8050 -36.4322 -36.3876
   -36.3281 -36.3064 -36.2092 -36.1745 -36.1231 -36.1120 -36.0665 -36.0434
   -36.0051 -35.9981 -35.9350 -35.7434 -35.7173 -35.6553 -35.6536 -35.5323
    -3.7109  -3.3071  -2.2081  -2.1562  -2.0015  -1.8967  -1.7714  -1.7092
    -1.6558  -1.5393  -1.3651  -0.9912  -0.9440  -0.9097  -0.7209  -0.6729
    -0.5176  -0.4771  -0.2763  -0.2231  -0.1583   0.3448   0.3956   0.5799
     0.6394   0.7261   0.7668   0.9008   0.9327   0.9356   1.0967   1.1188
     1.2234   1.2908   1.2934   1.4109   1.4623   1.5512   1.5651   1.5781
     1.6409   1.9855   2.1801   2.1939   2.2465   2.5534   2.7769   3.0002
     3.2208   3.2705   3.5467   3.5860   3.9233   4.1275   4.1989   4.3055
     4.4442   4.6221   4.9075   5.0155

     the Fermi energy is     2.4727 ev

!    total energy              =   -2143.34569623 Ry
     estimated scf accuracy    <       0.00000725 Ry
     smearing contrib. (-TS)   =      -0.06087544 Ry
     internal energy E=F+TS    =   -2143.28482079 Ry

     The total energy is F=E-TS. E is the sum of the following terms:
     one-electron contribution =  -18364.80549470 Ry
     hartree contribution      =    9174.99703886 Ry
     xc contribution           =    -427.86480320 Ry
     ewald contribution        =    7474.38843056 Ry
     electric field correction =       0.00000769 Ry

     convergence has been achieved in  16 iterations

     negative rho (up, down):  2.081E-03 0.000E+00

     Forces acting on atoms (cartesian axes, Ry/au):

     atom    1 type  1   force =     0.00249841    0.00146663    0.00718270
     atom    2 type  1   force =     0.00249347    0.00147290    0.00718254
     atom    3 type  2   force =     0.00188814    0.00111228    0.03620559
     atom    4 type  2   force =     0.00188998    0.00111347    0.03620633
     atom    5 type  1   force =     0.00156490    0.00091767   -0.02582850
     atom    6 type  1   force =     0.00156465    0.00092347   -0.02582579
     atom    7 type  2   force =    -0.00371680   -0.00219000   -0.01796133
     atom    8 type  2   force =    -0.00371542   -0.00218525   -0.01795641
     atom    9 type  1   force =    -0.00156308   -0.00091829    0.00092072
     atom   10 type  1   force =    -0.00156307   -0.00092219    0.00092398
     atom   11 type  2   force =    -0.00066864   -0.00039545   -0.00052591
     atom   12 type  2   force =    -0.00067254   -0.00039524   -0.00052392

     Total force =     0.069168     Total SCF correction =     0.021070
     SCF correction compared to forces is large: reduce conv_thr to get better values

     Writing output data file ./Ru2W2/Ru2W2_beef.save/

     init_run     :    106.86s CPU    107.54s WALL (       1 calls)
     electrons    :   3803.09s CPU   3824.19s WALL (       1 calls)
     forces       :     60.05s CPU     60.34s WALL (       1 calls)

     Called by init_run:
     wfcinit      :     93.74s CPU     94.20s WALL (       1 calls)
     potinit      :      7.68s CPU      7.76s WALL (       1 calls)
     hinit0       :      3.36s CPU      3.37s WALL (       1 calls)

     Called by electrons:
     c_bands      :   3408.86s CPU   3422.74s WALL (      16 calls)
     sum_band     :    360.23s CPU    364.41s WALL (      16 calls)
     v_of_rho     :     23.11s CPU     24.29s WALL (      17 calls)
     newd         :     15.48s CPU     17.33s WALL (      17 calls)
     mix_rho      :      2.62s CPU      2.64s WALL (      16 calls)
     vdW_kernel   :      5.71s CPU      5.72s WALL (       1 calls)

     Called by c_bands:
     init_us_2    :     10.47s CPU     10.55s WALL (    2516 calls)
     cegterg      :   3378.65s CPU   3389.79s WALL (    1184 calls)

     Called by *egterg:
     cdiaghg      :    198.39s CPU    198.48s WALL (    5701 calls)
     h_psi        :   1567.54s CPU   1576.33s WALL (    5775 calls)
     s_psi        :    522.41s CPU    522.68s WALL (    5775 calls)
     g_psi        :      1.18s CPU      1.19s WALL (    4517 calls)

     Called by h_psi:
     h_psi:calbec :    543.02s CPU    544.51s WALL (    5775 calls)
     vloc_psi     :    490.40s CPU    497.30s WALL (    5775 calls)
     add_vuspsi   :    527.67s CPU    528.01s WALL (    5775 calls)

     General routines
     calbec       :    819.72s CPU    821.84s WALL (    7255 calls)
     fft          :     13.15s CPU     13.60s WALL (    1130 calls)
     ffts         :      0.07s CPU      0.07s WALL (      33 calls)
     fftw         :    566.45s CPU    574.46s WALL (  740036 calls)
     interpolate  :      0.21s CPU      0.22s WALL (      17 calls)

     Parallel routines
     fft_scatt_xy :     44.47s CPU     45.07s WALL (  741199 calls)
     fft_scatt_yz :    124.45s CPU    126.52s WALL (  741199 calls)

     PWSCF        :      1h 6m CPU      1h 7m WALL


   This run was terminated on:  17:17:11  24Jun2022            

=------------------------------------------------------------------------------=
   JOB DONE.
=------------------------------------------------------------------------------=
