
     Program PWSCF v.6.6 starts on 10Jul2022 at 14:31: 4 

     This program is part of the open-source Quantum ESPRESSO suite
     for quantum simulation of materials; please cite
         "P. Giannozzi et al., J. Phys.:Condens. Matter 21 395502 (2009);
         "P. Giannozzi et al., J. Phys.:Condens. Matter 29 465901 (2017);
          URL http://www.quantum-espresso.org", 
     in publications or presentations arising from this work. More details at
     http://www.quantum-espresso.org/quote

     Parallel version (MPI), running on    37 processors

     MPI processes distributed on     1 nodes
     R & G space division:  proc/nbgrp/npool/nimage =      37
     Fft bands division:     nmany     =       1
     Reading input from Sc2Cd2.in
Warning: card &CELL ignored
Warning: card / ignored

     Current dimensions of program PWSCF are:
     Max number of different atomic species (ntypx) = 10
     Max number of k-points (npk) =  40000
     Max angular momentum in pseudopotentials (lmaxx) =  3
     Presently stress not available with electric field and gates

     Message from routine cell_base_init:
     DEPRECATED: use true lattice parameter, not A to a.u. conversion factor
     file Sc.pbe-spn-rrkjus_psl.1.0.0.UPF: wavefunction(s)  3S 3P renormalized
     file Cd.pbe-n-rrkjus_psl.1.0.0.UPF: wavefunction(s)  4D renormalized

     **************************************************************************
     Initializing libbeef V0.1.2 with the BEEF-vdW functional.
     Citation: Wellendorff et al., PRB 85, 235149 (2012).
     **************************************************************************


     IMPORTANT: XC functional enforced from input :
     Exchange-correlation= BEEF-VDW
                           (   1   4  43  14   2   0   0)
     Any further DFT definition will be discarded
     Please, verify this is what you really want


     Subspace diagonalization in iterative solution of the eigenvalue problem:
     a serial algorithm will be used

     Found symmetry operation: I + ( -0.5000  0.5000  0.0000)
     This is a supercell, fractional translations are disabled

     Parallelization info
     --------------------
     sticks:   dense  smooth     PW     G-vecs:    dense   smooth      PW
     Min         151      60     16                35741     9038    1322
     Max         152      61     17                35764     9059    1347
     Sum        5621    2247    627              1322989   334757   49565



     bravais-lattice index     =            0
     lattice parameter (alat)  =       1.8897  a.u.
     unit-cell volume          =    6052.4265 (a.u.)^3
     number of atoms/cell      =           12
     number of atomic types    =            2
     number of electrons       =       138.00
     number of Kohn-Sham states=           83
     kinetic-energy cutoff     =      55.1240  Ry
     charge density cutoff     =     551.2396  Ry
     convergence threshold     =      1.0E-05
     mixing beta               =       0.1000
     number of iterations used =           10  plain     mixing
     Exchange-correlation= BEEF-VDW
                           (   1   4  43  14   2   0   0)

     celldm(1)=   1.889726  celldm(2)=   0.000000  celldm(3)=   0.000000
     celldm(4)=   0.000000  celldm(5)=   0.000000  celldm(6)=   0.000000

     crystal axes: (cart. coord. in units of alat)
               a(1) = (   6.163763   0.000000   0.000000 )  
               a(2) = (   2.049368   5.813095   0.000000 )  
               a(3) = (   0.000000   0.000000  25.031084 )  

     reciprocal axes: (cart. coord. in units 2 pi/alat)
               b(1) = (  0.162239 -0.057196  0.000000 )  
               b(2) = (  0.000000  0.172025  0.000000 )  
               b(3) = (  0.000000  0.000000  0.039950 )  


     PseudoPot. # 1 for Sc read from file:
     ../pseudo/Sc.pbe-spn-rrkjus_psl.1.0.0.UPF
     MD5 check sum: f739f74c200e509e5c24cbe053202ee5
     Pseudo is Ultrasoft + core correction, Zval = 11.0
     Generated using "atomic" code by A. Dal Corso v.6.2.2
     Using radial grid of 1173 points,  6 beta functions with: 
                l(1) =   0
                l(2) =   0
                l(3) =   1
                l(4) =   1
                l(5) =   2
                l(6) =   2
     Q(r) pseudized with 0 coefficients 


     PseudoPot. # 2 for Cd read from file:
     ../pseudo/Cd.pbe-n-rrkjus_psl.1.0.0.UPF
     MD5 check sum: a744746c89d2344a134ead0d8ab94e7a
     Pseudo is Ultrasoft + core correction, Zval = 12.0
     Generated using "atomic" code by A. Dal Corso v.6.3
     Using radial grid of 1239 points,  6 beta functions with: 
                l(1) =   0
                l(2) =   0
                l(3) =   1
                l(4) =   1
                l(5) =   2
                l(6) =   2
     Q(r) pseudized with 0 coefficients 


     atomic species   valence    mass     pseudopotential
        Sc            11.00    44.95591     Sc( 1.00)
        Cd            12.00   112.41400     Cd( 1.00)

     No symmetry found



   Cartesian axes

     site n.     atom                  positions (alat units)
         1           Sc  tau(   1) = (   0.0000000   0.0000000  10.0000000  )
         2           Sc  tau(   2) = (   4.1065656   2.9065473  10.0000000  )
         3           Cd  tau(   3) = (   3.0818817   0.0000000  10.0000000  )
         4           Cd  tau(   4) = (   1.0246839   2.9065473  10.0000000  )
         5           Sc  tau(   5) = (   6.1637633   4.3625919  12.5155420  )
         6           Sc  tau(   6) = (   2.0571977   1.4560446  12.5155420  )
         7           Cd  tau(   7) = (   3.0818817   4.3625919  12.5155420  )
         8           Cd  tau(   8) = (   5.1390794   1.4560446  12.5155420  )
         9           Sc  tau(   9) = (   4.1138510   2.9117259  14.9859261  )
        10           Sc  tau(  10) = (   0.0072937   0.0051472  14.9859753  )
        11           Cd  tau(  11) = (   1.0323896   2.9120047  15.0583669  )
        12           Cd  tau(  12) = (   3.0895602   0.0054171  15.0583981  )

     number of k points=    74  Fermi-Dirac smearing, width (Ry)=  0.0100
                       cart. coord. in units 2pi/alat
        k(    1) = (   0.0000000   0.0000000   0.0000000), wk =   0.0138889
        k(    2) = (   0.0000000   0.0143355   0.0000000), wk =   0.0277778
        k(    3) = (   0.0000000   0.0286709   0.0000000), wk =   0.0277778
        k(    4) = (   0.0000000   0.0430064   0.0000000), wk =   0.0277778
        k(    5) = (   0.0000000   0.0573418   0.0000000), wk =   0.0277778
        k(    6) = (   0.0000000   0.0716773   0.0000000), wk =   0.0277778
        k(    7) = (   0.0000000  -0.0860127   0.0000000), wk =   0.0138889
        k(    8) = (   0.0135199  -0.0047663   0.0000000), wk =   0.0277778
        k(    9) = (   0.0135199   0.0095691   0.0000000), wk =   0.0277778
        k(   10) = (   0.0135199   0.0239046   0.0000000), wk =   0.0277778
        k(   11) = (   0.0135199   0.0382400   0.0000000), wk =   0.0277778
        k(   12) = (   0.0135199   0.0525755   0.0000000), wk =   0.0277778
        k(   13) = (   0.0135199   0.0669109   0.0000000), wk =   0.0277778
        k(   14) = (   0.0135199  -0.0907790   0.0000000), wk =   0.0277778
        k(   15) = (   0.0135199  -0.0764436   0.0000000), wk =   0.0277778
        k(   16) = (   0.0135199  -0.0621081   0.0000000), wk =   0.0277778
        k(   17) = (   0.0135199  -0.0477727   0.0000000), wk =   0.0277778
        k(   18) = (   0.0135199  -0.0334372   0.0000000), wk =   0.0277778
        k(   19) = (   0.0135199  -0.0191018   0.0000000), wk =   0.0277778
        k(   20) = (   0.0270398  -0.0095327   0.0000000), wk =   0.0277778
        k(   21) = (   0.0270398   0.0048028   0.0000000), wk =   0.0277778
        k(   22) = (   0.0270398   0.0191382   0.0000000), wk =   0.0277778
        k(   23) = (   0.0270398   0.0334737   0.0000000), wk =   0.0277778
        k(   24) = (   0.0270398   0.0478091   0.0000000), wk =   0.0277778
        k(   25) = (   0.0270398   0.0621446   0.0000000), wk =   0.0277778
        k(   26) = (   0.0270398  -0.0955454   0.0000000), wk =   0.0277778
        k(   27) = (   0.0270398  -0.0812099   0.0000000), wk =   0.0277778
        k(   28) = (   0.0270398  -0.0668745   0.0000000), wk =   0.0277778
        k(   29) = (   0.0270398  -0.0525390   0.0000000), wk =   0.0277778
        k(   30) = (   0.0270398  -0.0382036   0.0000000), wk =   0.0277778
        k(   31) = (   0.0270398  -0.0238681   0.0000000), wk =   0.0277778
        k(   32) = (   0.0405596  -0.0142990   0.0000000), wk =   0.0277778
        k(   33) = (   0.0405596   0.0000364   0.0000000), wk =   0.0277778
        k(   34) = (   0.0405596   0.0143719   0.0000000), wk =   0.0277778
        k(   35) = (   0.0405596   0.0287073   0.0000000), wk =   0.0277778
        k(   36) = (   0.0405596   0.0430428   0.0000000), wk =   0.0277778
        k(   37) = (   0.0405596   0.0573782   0.0000000), wk =   0.0277778
        k(   38) = (   0.0405596  -0.1003117   0.0000000), wk =   0.0277778
        k(   39) = (   0.0405596  -0.0859763   0.0000000), wk =   0.0277778
        k(   40) = (   0.0405596  -0.0716408   0.0000000), wk =   0.0277778
        k(   41) = (   0.0405596  -0.0573054   0.0000000), wk =   0.0277778
        k(   42) = (   0.0405596  -0.0429699   0.0000000), wk =   0.0277778
        k(   43) = (   0.0405596  -0.0286345   0.0000000), wk =   0.0277778
        k(   44) = (   0.0540795  -0.0190654   0.0000000), wk =   0.0277778
        k(   45) = (   0.0540795  -0.0047299   0.0000000), wk =   0.0277778
        k(   46) = (   0.0540795   0.0096055   0.0000000), wk =   0.0277778
        k(   47) = (   0.0540795   0.0239410   0.0000000), wk =   0.0277778
        k(   48) = (   0.0540795   0.0382764   0.0000000), wk =   0.0277778
        k(   49) = (   0.0540795   0.0526119   0.0000000), wk =   0.0277778
        k(   50) = (   0.0540795  -0.1050781   0.0000000), wk =   0.0277778
        k(   51) = (   0.0540795  -0.0907426   0.0000000), wk =   0.0277778
        k(   52) = (   0.0540795  -0.0764072   0.0000000), wk =   0.0277778
        k(   53) = (   0.0540795  -0.0620717   0.0000000), wk =   0.0277778
        k(   54) = (   0.0540795  -0.0477363   0.0000000), wk =   0.0277778
        k(   55) = (   0.0540795  -0.0334008   0.0000000), wk =   0.0277778
        k(   56) = (   0.0675994  -0.0238317   0.0000000), wk =   0.0277778
        k(   57) = (   0.0675994  -0.0094963   0.0000000), wk =   0.0277778
        k(   58) = (   0.0675994   0.0048392   0.0000000), wk =   0.0277778
        k(   59) = (   0.0675994   0.0191746   0.0000000), wk =   0.0277778
        k(   60) = (   0.0675994   0.0335101   0.0000000), wk =   0.0277778
        k(   61) = (   0.0675994   0.0478455   0.0000000), wk =   0.0277778
        k(   62) = (   0.0675994  -0.1098444   0.0000000), wk =   0.0277778
        k(   63) = (   0.0675994  -0.0955090   0.0000000), wk =   0.0277778
        k(   64) = (   0.0675994  -0.0811735   0.0000000), wk =   0.0277778
        k(   65) = (   0.0675994  -0.0668381   0.0000000), wk =   0.0277778
        k(   66) = (   0.0675994  -0.0525026   0.0000000), wk =   0.0277778
        k(   67) = (   0.0675994  -0.0381672   0.0000000), wk =   0.0277778
        k(   68) = (  -0.0811193   0.0285981   0.0000000), wk =   0.0138889
        k(   69) = (  -0.0811193   0.0429335   0.0000000), wk =   0.0277778
        k(   70) = (  -0.0811193   0.0572690   0.0000000), wk =   0.0277778
        k(   71) = (  -0.0811193   0.0716044   0.0000000), wk =   0.0277778
        k(   72) = (  -0.0811193   0.0859399   0.0000000), wk =   0.0277778
        k(   73) = (  -0.0811193   0.1002753   0.0000000), wk =   0.0277778
        k(   74) = (  -0.0811193  -0.0574146   0.0000000), wk =   0.0138889

     Dense  grid:  1322989 G-vectors     FFT dimensions: (  90,  90, 360)

     Smooth grid:   334757 G-vectors     FFT dimensions: (  60,  60, 225)

     Estimated max dynamical RAM per process >     248.82 MB

     Estimated total dynamical RAM >       8.99 GB

     Check: negative core charge=   -0.000001

     Initial potential from superposition of free atoms

     starting charge  137.95533, renormalised to  138.00000

     negative rho (up, down):  3.032E-03 0.000E+00


     %%%%%%%%%%%%%%%%%%%%%%%%%%%%%%%%%%%%%%%%%%%%%%%%%%%%%%%%%%%%%%%%%%%%%%%%
     %                                                                      %
     % You are using vdW-DF, which was implemented by the Thonhauser group. %
     % Please cite the following two papers that made this development      %
     % possible and the two reviews that describe the various versions:     %
     %                                                                      %
     %   T. Thonhauser et al., PRL 115, 136402 (2015).                      %
     %   T. Thonhauser et al., PRB 76, 125112 (2007).                       %
     %   K. Berland et al., Rep. Prog. Phys. 78, 066501 (2015).             %
     %   D.C. Langreth et al., J. Phys.: Condens. Matter 21, 084203 (2009). %
     %                                                                      %
     %                                                                      %
     % If you are calculating the stress with vdW-DF, please also cite:     %
     %                                                                      %
     %   R. Sabatini et al., J. Phys.: Condens. Matter 24, 424209 (2012).   %
     %                                                                      %
     %%%%%%%%%%%%%%%%%%%%%%%%%%%%%%%%%%%%%%%%%%%%%%%%%%%%%%%%%%%%%%%%%%%%%%%%



     Adding external electric field

     Computed dipole along edir(3) : 
        Dipole                0.0003 Ry au,          0.0007 Debye
        Dipole field          0.0000 Ry au, 

        Potential amp.       -0.0001 Ry
        Total length         46.1193 bohr

     Starting wfcs are  114 randomized atomic wfcs

     total cpu time spent up to now is      117.8 secs

     Self-consistent Calculation

     iteration #  1     ecut=    55.12 Ry     beta= 0.10
     Davidson diagonalization with overlap
     ethr =  1.00E-02,  avg # of iterations =  1.8

     negative rho (up, down):  2.668E-03 0.000E+00

     Adding external electric field

     Computed dipole along edir(3) : 
        Dipole               -0.0825 Ry au,         -0.2096 Debye
        Dipole field         -0.0002 Ry au, 

        Potential amp.        0.0158 Ry
        Total length         46.1193 bohr


     total cpu time spent up to now is      316.2 secs

     total energy              =   -1198.14331034 Ry
     estimated scf accuracy    <       1.71914997 Ry

     iteration #  2     ecut=    55.12 Ry     beta= 0.10
     Davidson diagonalization with overlap
     ethr =  1.25E-03,  avg # of iterations =  6.4

     negative rho (up, down):  2.642E-03 0.000E+00

     Adding external electric field

     Computed dipole along edir(3) : 
        Dipole                0.2447 Ry au,          0.6219 Debye
        Dipole field          0.0005 Ry au, 

        Potential amp.       -0.0469 Ry
        Total length         46.1193 bohr


     total cpu time spent up to now is      580.6 secs

     total energy              =   -1198.46681246 Ry
     estimated scf accuracy    <       0.71883797 Ry

     iteration #  3     ecut=    55.12 Ry     beta= 0.10
     Davidson diagonalization with overlap
     ethr =  5.21E-04,  avg # of iterations =  4.0

     negative rho (up, down):  2.657E-03 0.000E+00

     Adding external electric field

     Computed dipole along edir(3) : 
        Dipole               -0.0592 Ry au,         -0.1504 Debye
        Dipole field         -0.0001 Ry au, 

        Potential amp.        0.0113 Ry
        Total length         46.1193 bohr


     total cpu time spent up to now is      800.0 secs

     total energy              =   -1198.48105913 Ry
     estimated scf accuracy    <       2.17417477 Ry

     iteration #  4     ecut=    55.12 Ry     beta= 0.10
     Davidson diagonalization with overlap
     ethr =  5.21E-04,  avg # of iterations =  1.8

     negative rho (up, down):  2.773E-03 0.000E+00

     Adding external electric field

     Computed dipole along edir(3) : 
        Dipole               -0.0205 Ry au,         -0.0522 Debye
        Dipole field         -0.0000 Ry au, 

        Potential amp.        0.0039 Ry
        Total length         46.1193 bohr


     total cpu time spent up to now is      989.4 secs

     total energy              =   -1198.41483713 Ry
     estimated scf accuracy    <       0.34948948 Ry

     iteration #  5     ecut=    55.12 Ry     beta= 0.10
     Davidson diagonalization with overlap
     ethr =  2.53E-04,  avg # of iterations = 10.8

     negative rho (up, down):  2.736E-03 0.000E+00

     Adding external electric field

     Computed dipole along edir(3) : 
        Dipole               -0.0176 Ry au,         -0.0449 Debye
        Dipole field         -0.0000 Ry au, 

        Potential amp.        0.0034 Ry
        Total length         46.1193 bohr


     total cpu time spent up to now is     1261.0 secs

     total energy              =   -1198.48846041 Ry
     estimated scf accuracy    <       0.05370978 Ry

     iteration #  6     ecut=    55.12 Ry     beta= 0.10
     Davidson diagonalization with overlap
     c_bands:  2 eigenvalues not converged
     c_bands:  1 eigenvalues not converged
     c_bands:  1 eigenvalues not converged
     c_bands:  1 eigenvalues not converged
     c_bands:  2 eigenvalues not converged
     c_bands:  1 eigenvalues not converged
     c_bands:  1 eigenvalues not converged
     c_bands:  2 eigenvalues not converged
     c_bands:  1 eigenvalues not converged
     c_bands:  2 eigenvalues not converged
     c_bands:  1 eigenvalues not converged
     c_bands:  1 eigenvalues not converged
     c_bands:  1 eigenvalues not converged
     c_bands:  1 eigenvalues not converged
     c_bands:  1 eigenvalues not converged
     c_bands:  1 eigenvalues not converged
     c_bands:  1 eigenvalues not converged
     ethr =  3.89E-05,  avg # of iterations = 13.1

     negative rho (up, down):  2.718E-03 0.000E+00

     Adding external electric field

     Computed dipole along edir(3) : 
        Dipole               -0.0193 Ry au,         -0.0489 Debye
        Dipole field         -0.0000 Ry au, 

        Potential amp.        0.0037 Ry
        Total length         46.1193 bohr


     total cpu time spent up to now is     1618.4 secs

     total energy              =   -1198.49554981 Ry
     estimated scf accuracy    <       0.03622657 Ry

     iteration #  7     ecut=    55.12 Ry     beta= 0.10
     Davidson diagonalization with overlap
     c_bands:  2 eigenvalues not converged
     c_bands:  2 eigenvalues not converged
     c_bands:  1 eigenvalues not converged
     ethr =  2.63E-05,  avg # of iterations = 11.0

     negative rho (up, down):  2.805E-03 0.000E+00

     Adding external electric field

     Computed dipole along edir(3) : 
        Dipole               -0.0185 Ry au,         -0.0469 Debye
        Dipole field         -0.0000 Ry au, 

        Potential amp.        0.0035 Ry
        Total length         46.1193 bohr


     total cpu time spent up to now is     1944.3 secs

     total energy              =   -1198.49187749 Ry
     estimated scf accuracy    <       0.06858709 Ry

     iteration #  8     ecut=    55.12 Ry     beta= 0.10
     Davidson diagonalization with overlap
     c_bands:  1 eigenvalues not converged
     c_bands:  1 eigenvalues not converged
     c_bands:  1 eigenvalues not converged
     c_bands:  1 eigenvalues not converged
     ethr =  2.63E-05,  avg # of iterations =  9.6

     negative rho (up, down):  2.813E-03 0.000E+00

     Adding external electric field

     Computed dipole along edir(3) : 
        Dipole               -0.0180 Ry au,         -0.0457 Debye
        Dipole field         -0.0000 Ry au, 

        Potential amp.        0.0034 Ry
        Total length         46.1193 bohr


     total cpu time spent up to now is     2254.1 secs

     total energy              =   -1198.50556417 Ry
     estimated scf accuracy    <       0.01022146 Ry

     iteration #  9     ecut=    55.12 Ry     beta= 0.10
     Davidson diagonalization with overlap
     c_bands:  1 eigenvalues not converged
     c_bands:  1 eigenvalues not converged
     c_bands:  1 eigenvalues not converged
     c_bands:  5 eigenvalues not converged
     c_bands:  2 eigenvalues not converged
     c_bands:  2 eigenvalues not converged
     c_bands:  4 eigenvalues not converged
     c_bands:  1 eigenvalues not converged
     c_bands:  3 eigenvalues not converged
     c_bands:  2 eigenvalues not converged
     c_bands:  1 eigenvalues not converged
     c_bands:  1 eigenvalues not converged
     c_bands:  1 eigenvalues not converged
     c_bands:  1 eigenvalues not converged
     c_bands:  4 eigenvalues not converged
     c_bands:  4 eigenvalues not converged
     c_bands:  3 eigenvalues not converged
     c_bands:  4 eigenvalues not converged
     c_bands:  3 eigenvalues not converged
     c_bands:  2 eigenvalues not converged
     c_bands:  2 eigenvalues not converged
     c_bands:  1 eigenvalues not converged
     c_bands:  1 eigenvalues not converged
     c_bands:  3 eigenvalues not converged
     c_bands:  2 eigenvalues not converged
     c_bands:  1 eigenvalues not converged
     c_bands:  4 eigenvalues not converged
     c_bands:  1 eigenvalues not converged
     c_bands:  4 eigenvalues not converged
     c_bands:  3 eigenvalues not converged
     c_bands:  2 eigenvalues not converged
     c_bands:  2 eigenvalues not converged
     c_bands:  1 eigenvalues not converged
     c_bands:  1 eigenvalues not converged
     c_bands:  5 eigenvalues not converged
     c_bands:  4 eigenvalues not converged
     c_bands:  2 eigenvalues not converged
     c_bands:  3 eigenvalues not converged
     c_bands:  2 eigenvalues not converged
     c_bands:  3 eigenvalues not converged
     c_bands:  4 eigenvalues not converged
     c_bands:  5 eigenvalues not converged
     c_bands:  3 eigenvalues not converged
     c_bands:  4 eigenvalues not converged
     c_bands:  3 eigenvalues not converged
     c_bands:  4 eigenvalues not converged
     c_bands:  2 eigenvalues not converged
     c_bands:  2 eigenvalues not converged
     c_bands:  1 eigenvalues not converged
     c_bands:  2 eigenvalues not converged
     c_bands:  4 eigenvalues not converged
     c_bands:  3 eigenvalues not converged
     c_bands:  2 eigenvalues not converged
     c_bands:  4 eigenvalues not converged
     c_bands:  2 eigenvalues not converged
     c_bands:  1 eigenvalues not converged
     ethr =  7.41E-06,  avg # of iterations = 18.6

     negative rho (up, down):  2.840E-03 0.000E+00

     Adding external electric field

     Computed dipole along edir(3) : 
        Dipole               -0.0134 Ry au,         -0.0339 Debye
        Dipole field         -0.0000 Ry au, 

        Potential amp.        0.0026 Ry
        Total length         46.1193 bohr


     total cpu time spent up to now is     2672.7 secs

     total energy              =   -1198.50416408 Ry
     estimated scf accuracy    <       0.02382497 Ry

     iteration # 10     ecut=    55.12 Ry     beta= 0.10
     Davidson diagonalization with overlap
     c_bands:  1 eigenvalues not converged
     c_bands:  1 eigenvalues not converged
     c_bands:  1 eigenvalues not converged
     c_bands:  3 eigenvalues not converged
     c_bands:  1 eigenvalues not converged
     c_bands:  2 eigenvalues not converged
     c_bands:  1 eigenvalues not converged
     c_bands:  1 eigenvalues not converged
     c_bands:  1 eigenvalues not converged
     ethr =  7.41E-06,  avg # of iterations = 11.4

     negative rho (up, down):  2.881E-03 0.000E+00

     Adding external electric field

     Computed dipole along edir(3) : 
        Dipole               -0.0187 Ry au,         -0.0475 Debye
        Dipole field         -0.0000 Ry au, 

        Potential amp.        0.0036 Ry
        Total length         46.1193 bohr


     total cpu time spent up to now is     2968.0 secs

     total energy              =   -1198.50591036 Ry
     estimated scf accuracy    <       0.00552045 Ry

     iteration # 11     ecut=    55.12 Ry     beta= 0.10
     Davidson diagonalization with overlap
     c_bands:  1 eigenvalues not converged
     c_bands:  1 eigenvalues not converged
     c_bands:  1 eigenvalues not converged
     c_bands:  1 eigenvalues not converged
     c_bands:  3 eigenvalues not converged
     c_bands:  1 eigenvalues not converged
     c_bands:  3 eigenvalues not converged
     c_bands:  1 eigenvalues not converged
     c_bands:  1 eigenvalues not converged
     c_bands:  2 eigenvalues not converged
     c_bands:  2 eigenvalues not converged
     c_bands:  1 eigenvalues not converged
     c_bands:  1 eigenvalues not converged
     c_bands:  1 eigenvalues not converged
     c_bands:  3 eigenvalues not converged
     c_bands:  1 eigenvalues not converged
     c_bands:  1 eigenvalues not converged
     c_bands:  1 eigenvalues not converged
     c_bands:  1 eigenvalues not converged
     ethr =  4.00E-06,  avg # of iterations =  9.8

     negative rho (up, down):  2.858E-03 0.000E+00

     Adding external electric field

     Computed dipole along edir(3) : 
        Dipole               -0.0163 Ry au,         -0.0415 Debye
        Dipole field         -0.0000 Ry au, 

        Potential amp.        0.0031 Ry
        Total length         46.1193 bohr


     total cpu time spent up to now is     3212.3 secs

     total energy              =   -1198.50620181 Ry
     estimated scf accuracy    <       0.00160417 Ry

     iteration # 12     ecut=    55.12 Ry     beta= 0.10
     Davidson diagonalization with overlap
     c_bands:  2 eigenvalues not converged
     c_bands:  3 eigenvalues not converged
     c_bands:  2 eigenvalues not converged
     c_bands:  2 eigenvalues not converged
     c_bands:  1 eigenvalues not converged
     c_bands:  4 eigenvalues not converged
     c_bands:  1 eigenvalues not converged
     c_bands:  1 eigenvalues not converged
     c_bands:  2 eigenvalues not converged
     c_bands:  3 eigenvalues not converged
     c_bands:  2 eigenvalues not converged
     c_bands:  3 eigenvalues not converged
     c_bands:  2 eigenvalues not converged
     c_bands:  1 eigenvalues not converged
     c_bands:  2 eigenvalues not converged
     c_bands:  3 eigenvalues not converged
     c_bands:  3 eigenvalues not converged
     c_bands:  1 eigenvalues not converged
     c_bands:  2 eigenvalues not converged
     c_bands:  2 eigenvalues not converged
     c_bands:  2 eigenvalues not converged
     c_bands:  3 eigenvalues not converged
     c_bands:  1 eigenvalues not converged
     c_bands:  2 eigenvalues not converged
     c_bands:  4 eigenvalues not converged
     c_bands:  1 eigenvalues not converged
     c_bands:  2 eigenvalues not converged
     c_bands:  2 eigenvalues not converged
     c_bands:  2 eigenvalues not converged
     c_bands:  1 eigenvalues not converged
     c_bands:  3 eigenvalues not converged
     c_bands:  1 eigenvalues not converged
     c_bands:  5 eigenvalues not converged
     c_bands:  2 eigenvalues not converged
     c_bands:  1 eigenvalues not converged
     c_bands:  1 eigenvalues not converged
     c_bands:  2 eigenvalues not converged
     c_bands:  1 eigenvalues not converged
     c_bands:  1 eigenvalues not converged
     c_bands:  3 eigenvalues not converged
     c_bands:  3 eigenvalues not converged
     c_bands:  1 eigenvalues not converged
     c_bands:  2 eigenvalues not converged
     c_bands:  2 eigenvalues not converged
     c_bands:  5 eigenvalues not converged
     c_bands:  1 eigenvalues not converged
     c_bands:  4 eigenvalues not converged
     c_bands:  3 eigenvalues not converged
     c_bands:  2 eigenvalues not converged
     ethr =  1.16E-06,  avg # of iterations = 18.0

     negative rho (up, down):  2.851E-03 0.000E+00

     Adding external electric field

     Computed dipole along edir(3) : 
        Dipole               -0.0175 Ry au,         -0.0446 Debye
        Dipole field         -0.0000 Ry au, 

        Potential amp.        0.0034 Ry
        Total length         46.1193 bohr


     total cpu time spent up to now is     3608.7 secs

     total energy              =   -1198.50676918 Ry
     estimated scf accuracy    <       0.00055757 Ry

     iteration # 13     ecut=    55.12 Ry     beta= 0.10
     Davidson diagonalization with overlap
     c_bands:  1 eigenvalues not converged
     c_bands:  1 eigenvalues not converged
     c_bands:  1 eigenvalues not converged
     c_bands:  1 eigenvalues not converged
     c_bands:  2 eigenvalues not converged
     c_bands:  1 eigenvalues not converged
     c_bands:  1 eigenvalues not converged
     c_bands:  1 eigenvalues not converged
     c_bands:  1 eigenvalues not converged
     c_bands:  1 eigenvalues not converged
     c_bands:  1 eigenvalues not converged
     c_bands:  2 eigenvalues not converged
     c_bands:  2 eigenvalues not converged
     c_bands:  2 eigenvalues not converged
     c_bands:  1 eigenvalues not converged
     c_bands:  1 eigenvalues not converged
     c_bands:  1 eigenvalues not converged
     c_bands:  2 eigenvalues not converged
     c_bands:  3 eigenvalues not converged
     ethr =  4.04E-07,  avg # of iterations = 13.2

     negative rho (up, down):  2.853E-03 0.000E+00

     Adding external electric field

     Computed dipole along edir(3) : 
        Dipole               -0.0172 Ry au,         -0.0436 Debye
        Dipole field         -0.0000 Ry au, 

        Potential amp.        0.0033 Ry
        Total length         46.1193 bohr


     total cpu time spent up to now is     3951.7 secs

     total energy              =   -1198.50690623 Ry
     estimated scf accuracy    <       0.00059196 Ry

     iteration # 14     ecut=    55.12 Ry     beta= 0.10
     Davidson diagonalization with overlap
     c_bands:  2 eigenvalues not converged
     c_bands:  1 eigenvalues not converged
     c_bands:  1 eigenvalues not converged
     c_bands:  1 eigenvalues not converged
     c_bands:  1 eigenvalues not converged
     c_bands:  2 eigenvalues not converged
     c_bands:  2 eigenvalues not converged
     ethr =  4.04E-07,  avg # of iterations =  5.2

     negative rho (up, down):  2.841E-03 0.000E+00

     Adding external electric field

     Computed dipole along edir(3) : 
        Dipole               -0.0172 Ry au,         -0.0437 Debye
        Dipole field         -0.0000 Ry au, 

        Potential amp.        0.0033 Ry
        Total length         46.1193 bohr


     total cpu time spent up to now is     4163.6 secs

     total energy              =   -1198.50687318 Ry
     estimated scf accuracy    <       0.00040356 Ry

     iteration # 15     ecut=    55.12 Ry     beta= 0.10
     Davidson diagonalization with overlap
     c_bands:  1 eigenvalues not converged
     c_bands:  2 eigenvalues not converged
     c_bands:  1 eigenvalues not converged
     c_bands:  1 eigenvalues not converged
     c_bands:  1 eigenvalues not converged
     c_bands:  1 eigenvalues not converged
     ethr =  2.92E-07,  avg # of iterations =  5.7

     negative rho (up, down):  2.828E-03 0.000E+00

     Adding external electric field

     Computed dipole along edir(3) : 
        Dipole               -0.0162 Ry au,         -0.0412 Debye
        Dipole field         -0.0000 Ry au, 

        Potential amp.        0.0031 Ry
        Total length         46.1193 bohr


     total cpu time spent up to now is     4383.3 secs

     total energy              =   -1198.50681181 Ry
     estimated scf accuracy    <       0.00020806 Ry

     iteration # 16     ecut=    55.12 Ry     beta= 0.10
     Davidson diagonalization with overlap
     c_bands:  1 eigenvalues not converged
     c_bands:  3 eigenvalues not converged
     c_bands:  1 eigenvalues not converged
     c_bands:  1 eigenvalues not converged
     c_bands:  1 eigenvalues not converged
     c_bands:  1 eigenvalues not converged
     c_bands:  1 eigenvalues not converged
     c_bands:  2 eigenvalues not converged
     c_bands:  1 eigenvalues not converged
     c_bands:  2 eigenvalues not converged
     c_bands:  1 eigenvalues not converged
     c_bands:  1 eigenvalues not converged
     c_bands:  2 eigenvalues not converged
     ethr =  1.51E-07,  avg # of iterations = 15.8

     negative rho (up, down):  2.826E-03 0.000E+00

     Adding external electric field

     Computed dipole along edir(3) : 
        Dipole               -0.0164 Ry au,         -0.0416 Debye
        Dipole field         -0.0000 Ry au, 

        Potential amp.        0.0031 Ry
        Total length         46.1193 bohr


     total cpu time spent up to now is     4781.2 secs

     total energy              =   -1198.50691325 Ry
     estimated scf accuracy    <       0.00020122 Ry

     iteration # 17     ecut=    55.12 Ry     beta= 0.10
     Davidson diagonalization with overlap
     c_bands:  2 eigenvalues not converged
     c_bands:  1 eigenvalues not converged
     c_bands:  1 eigenvalues not converged
     c_bands:  1 eigenvalues not converged
     c_bands:  1 eigenvalues not converged
     c_bands:  2 eigenvalues not converged
     c_bands:  1 eigenvalues not converged
     ethr =  1.46E-07,  avg # of iterations =  4.1

     negative rho (up, down):  2.819E-03 0.000E+00

     Adding external electric field

     Computed dipole along edir(3) : 
        Dipole               -0.0167 Ry au,         -0.0425 Debye
        Dipole field         -0.0000 Ry au, 

        Potential amp.        0.0032 Ry
        Total length         46.1193 bohr


     total cpu time spent up to now is     4988.3 secs

     total energy              =   -1198.50687914 Ry
     estimated scf accuracy    <       0.00012852 Ry

     iteration # 18     ecut=    55.12 Ry     beta= 0.10
     Davidson diagonalization with overlap
     c_bands:  1 eigenvalues not converged
     c_bands:  1 eigenvalues not converged
     c_bands:  1 eigenvalues not converged
     ethr =  9.31E-08,  avg # of iterations =  7.5

     negative rho (up, down):  2.813E-03 0.000E+00

     Adding external electric field

     Computed dipole along edir(3) : 
        Dipole               -0.0168 Ry au,         -0.0426 Debye
        Dipole field         -0.0000 Ry au, 

        Potential amp.        0.0032 Ry
        Total length         46.1193 bohr


     total cpu time spent up to now is     5218.1 secs

     total energy              =   -1198.50688796 Ry
     estimated scf accuracy    <       0.00001737 Ry

     iteration # 19     ecut=    55.12 Ry     beta= 0.10
     Davidson diagonalization with overlap
     c_bands:  1 eigenvalues not converged
     c_bands:  1 eigenvalues not converged
     c_bands:  1 eigenvalues not converged
     c_bands:  1 eigenvalues not converged
     c_bands:  3 eigenvalues not converged
     c_bands:  1 eigenvalues not converged
     c_bands:  1 eigenvalues not converged
     c_bands:  2 eigenvalues not converged
     c_bands:  2 eigenvalues not converged
     c_bands:  1 eigenvalues not converged
     c_bands:  1 eigenvalues not converged
     c_bands:  2 eigenvalues not converged
     c_bands:  1 eigenvalues not converged
     c_bands:  1 eigenvalues not converged
     c_bands:  1 eigenvalues not converged
     c_bands:  1 eigenvalues not converged
     c_bands:  1 eigenvalues not converged
     c_bands:  1 eigenvalues not converged
     c_bands:  2 eigenvalues not converged
     c_bands:  1 eigenvalues not converged
     c_bands:  2 eigenvalues not converged
     c_bands:  1 eigenvalues not converged
     c_bands:  4 eigenvalues not converged
     c_bands:  1 eigenvalues not converged
     c_bands:  2 eigenvalues not converged
     ethr =  1.26E-08,  avg # of iterations = 16.3

     negative rho (up, down):  2.787E-03 0.000E+00

     Adding external electric field

     Computed dipole along edir(3) : 
        Dipole               -0.0183 Ry au,         -0.0464 Debye
        Dipole field         -0.0000 Ry au, 

        Potential amp.        0.0035 Ry
        Total length         46.1193 bohr


     total cpu time spent up to now is     5665.1 secs

     End of self-consistent calculation

          k = 0.0000 0.0000 0.0000 ( 41891 PWs)   bands (ev):

   -50.1049 -50.0988 -50.0753 -50.0691 -49.8846 -49.8784 -28.7587 -28.7511
   -28.7263 -28.7186 -28.6677 -28.6617 -28.6435 -28.6372 -28.6320 -28.6069
   -28.5490 -28.5235 -28.4944 -28.4719 -28.4594 -28.4497 -28.4423 -28.4076
    -8.5270  -8.5255  -8.5235  -8.5007  -8.4777  -8.4413  -8.4216  -8.3902
    -8.3487  -8.3424  -8.3412  -8.3178  -8.3171  -8.3159  -8.3119  -8.3005
    -8.2830  -8.2774  -8.2761  -8.2501  -8.2439  -8.2208  -8.2096  -8.2084
    -8.1570  -8.1427  -8.0457  -8.0356  -7.9960  -7.9739  -6.1807  -4.7282
    -3.0646  -2.7768  -2.5373  -2.2860  -1.0213  -0.7740  -0.3051  -0.0842
    -0.0553   0.0545   0.0843   0.3370   0.3531   0.5440   0.8466   0.8531
     0.8821   1.0871   1.1104   1.1794   1.1972   1.2165   1.5066   1.6230
     1.6730   1.9575   2.0048

          k = 0.0000 0.0143 0.0000 ( 41851 PWs)   bands (ev):

   -50.1048 -50.0989 -50.0751 -50.0692 -49.8845 -49.8785 -28.7586 -28.7512
   -28.7261 -28.7187 -28.6676 -28.6618 -28.6434 -28.6374 -28.6306 -28.6055
   -28.5504 -28.5250 -28.4929 -28.4716 -28.4596 -28.4496 -28.4425 -28.4091
    -8.5220  -8.5205  -8.5171  -8.4971  -8.4760  -8.4364  -8.4143  -8.3833
    -8.3472  -8.3455  -8.3442  -8.3187  -8.3178  -8.3123  -8.3106  -8.2980
    -8.2817  -8.2794  -8.2746  -8.2507  -8.2434  -8.2170  -8.2121  -8.2078
    -8.1600  -8.1454  -8.0544  -8.0375  -8.0002  -7.9801  -6.1461  -4.6971
    -3.0462  -2.9105  -2.5555  -2.3331  -1.0156  -0.6193  -0.4648  -0.1477
     0.0097   0.0637   0.0938   0.2579   0.4549   0.5420   0.7610   0.7992
     0.9508   0.9615   1.0852   1.1919   1.1939   1.3445   1.5523   1.5758
     1.6194   1.9122   1.9653

          k = 0.0000 0.0287 0.0000 ( 41791 PWs)   bands (ev):

   -50.1045 -50.0992 -50.0748 -50.0695 -49.8842 -49.8788 -28.7582 -28.7516
   -28.7258 -28.7191 -28.6674 -28.6622 -28.6433 -28.6379 -28.6266 -28.6014
   -28.5547 -28.5292 -28.4887 -28.4710 -28.4602 -28.4494 -28.4430 -28.4135
    -8.5077  -8.5060  -8.4988  -8.4863  -8.4706  -8.4223  -8.3936  -8.3635
    -8.3542  -8.3517  -8.3423  -8.3237  -8.3179  -8.3092  -8.3025  -8.2906
    -8.2864  -8.2794  -8.2660  -8.2530  -8.2413  -8.2201  -8.2074  -8.2063
    -8.1682  -8.1532  -8.0783  -8.0431  -8.0138  -7.9981  -6.0422  -4.6039
    -3.2425  -2.9936  -2.6026  -2.4736  -0.9038  -0.6899  -0.3547  -0.3389
    -0.1084   0.1309   0.2096   0.2527   0.4635   0.5383   0.5623   0.7541
     0.8735   1.0133   1.0728   1.2198   1.2262   1.4282   1.4607   1.5135
     1.6405   1.8722   1.9908

          k = 0.0000 0.0430 0.0000 ( 41840 PWs)   bands (ev):

   -50.1040 -50.0997 -50.0743 -50.0700 -49.8837 -49.8793 -28.7576 -28.7522
   -28.7252 -28.7198 -28.6670 -28.6628 -28.6430 -28.6386 -28.6201 -28.5950
   -28.5614 -28.5360 -28.4819 -28.4700 -28.4612 -28.4489 -28.4437 -28.4205
    -8.4861  -8.4838  -8.4765  -8.4645  -8.4613  -8.4009  -8.3671  -8.3621
    -8.3610  -8.3341  -8.3337  -8.3317  -8.3189  -8.3177  -8.2888  -8.2872
    -8.2798  -8.2756  -8.2577  -8.2539  -8.2369  -8.2340  -8.2057  -8.1956
    -8.1802  -8.1654  -8.1131  -8.0521  -8.0383  -8.0254  -5.8697  -4.4497
    -3.6684  -2.9162  -2.7022  -2.6511  -0.8853  -0.6908  -0.5508  -0.2615
    -0.1586   0.1670   0.1835   0.2005   0.3756   0.5523   0.6587   0.7373
     0.8078   0.9920   1.0369   1.2395   1.3163   1.3357   1.4280   1.4567
     1.6946   1.8302   1.9601

          k = 0.0000 0.0573 0.0000 ( 41846 PWs)   bands (ev):

   -50.1034 -50.1003 -50.0737 -50.0706 -49.8831 -49.8800 -28.7568 -28.7530
   -28.7245 -28.7206 -28.6665 -28.6635 -28.6427 -28.6395 -28.6117 -28.5865
   -28.5702 -28.5448 -28.4731 -28.4687 -28.4624 -28.4484 -28.4447 -28.4296
    -8.4608  -8.4581  -8.4564  -8.4489  -8.4286  -8.3824  -8.3790  -8.3660
    -8.3446  -8.3379  -8.3248  -8.3234  -8.3222  -8.2975  -8.2801  -8.2786
    -8.2688  -8.2646  -8.2625  -8.2548  -8.2405  -8.2255  -8.2084  -8.1935
    -8.1872  -8.1809  -8.1537  -8.0729  -8.0633  -8.0563  -5.6303  -4.2369
    -4.1204  -2.9983  -2.8312  -2.6846  -1.0114  -0.6719  -0.4298  -0.4191
    -0.3808   0.1694   0.1883   0.2899   0.3797   0.6043   0.7416   0.7466
     0.7615   0.9544   0.9545   1.1065   1.3541   1.3812   1.4275   1.4640
     1.6845   1.8605   1.9846

          k = 0.0000 0.0717 0.0000 ( 41864 PWs)   bands (ev):

   -50.1027 -50.1011 -50.0730 -50.0714 -49.8823 -49.8807 -28.7559 -28.7539
   -28.7236 -28.7216 -28.6658 -28.6643 -28.6421 -28.6405 -28.6018 -28.5803
   -28.5765 -28.5549 -28.4671 -28.4639 -28.4627 -28.4476 -28.4457 -28.4402
    -8.4416  -8.4385  -8.4340  -8.4269  -8.3980  -8.3902  -8.3815  -8.3638
    -8.3597  -8.3412  -8.3330  -8.3101  -8.2980  -8.2818  -8.2760  -8.2733
    -8.2650  -8.2594  -8.2534  -8.2451  -8.2274  -8.2165  -8.2055  -8.2014
    -8.1974  -8.1946  -8.1909  -8.1153  -8.0791  -8.0751  -5.3277  -4.5609
    -3.9712  -3.3300  -2.7614  -2.7028  -1.0306  -0.7064  -0.6922  -0.5592
    -0.1370   0.1665   0.1848   0.2963   0.4376   0.6208   0.7285   0.7991
     0.8067   0.8218   0.9197   0.9805   1.3537   1.4499   1.4598   1.5360
     1.6448   1.8425   1.9266

          k = 0.0000-0.0860 0.0000 ( 41840 PWs)   bands (ev):

   -50.1019 -50.1019 -50.0722 -50.0721 -49.8815 -49.8815 -28.7549 -28.7549
   -28.7226 -28.7226 -28.6651 -28.6651 -28.6413 -28.6413 -28.5911 -28.5911
   -28.5658 -28.5658 -28.4655 -28.4655 -28.4516 -28.4515 -28.4466 -28.4466
    -8.4315  -8.4314  -8.4188  -8.4187  -8.3921  -8.3920  -8.3780  -8.3779
    -8.3537  -8.3537  -8.3108  -8.3107  -8.2987  -8.2987  -8.2755  -8.2754
    -8.2449  -8.2449  -8.2344  -8.2344  -8.2227  -8.2226  -8.2137  -8.2137
    -8.2094  -8.2094  -8.1607  -8.1607  -8.0833  -8.0833  -4.9681  -4.9680
    -3.6631  -3.6631  -2.7213  -2.7213  -0.9213  -0.9213  -0.6613  -0.6613
     0.1201   0.1201   0.1737   0.1737   0.5510   0.5510   0.7423   0.7423
     0.8410   0.8410   0.9050   0.9050   1.4056   1.4058   1.5361   1.5365
     1.6981   1.7002   1.8955

          k = 0.0135-0.0048 0.0000 ( 41851 PWs)   bands (ev):

   -50.1048 -50.0989 -50.0751 -50.0692 -49.8845 -49.8785 -28.7586 -28.7512
   -28.7261 -28.7187 -28.6676 -28.6618 -28.6434 -28.6374 -28.6306 -28.6055
   -28.5504 -28.5250 -28.4929 -28.4716 -28.4596 -28.4496 -28.4425 -28.4091
    -8.5220  -8.5205  -8.5171  -8.4971  -8.4760  -8.4364  -8.4143  -8.3833
    -8.3472  -8.3455  -8.3442  -8.3187  -8.3178  -8.3123  -8.3106  -8.2980
    -8.2817  -8.2794  -8.2746  -8.2507  -8.2434  -8.2170  -8.2121  -8.2078
    -8.1600  -8.1454  -8.0544  -8.0375  -8.0002  -7.9801  -6.1461  -4.6971
    -3.0462  -2.9105  -2.5555  -2.3331  -1.0156  -0.6193  -0.4648  -0.1477
     0.0097   0.0637   0.0938   0.2579   0.4549   0.5420   0.7610   0.7992
     0.9507   0.9615   1.0853   1.1919   1.1939   1.3448   1.5523   1.5758
     1.6199   1.9115   1.9688

          k = 0.0135 0.0096 0.0000 ( 41851 PWs)   bands (ev):

   -50.1049 -50.0988 -50.0752 -50.0691 -49.8846 -49.8784 -28.7587 -28.7510
   -28.7263 -28.7185 -28.6679 -28.6615 -28.6438 -28.6372 -28.6321 -28.6070
   -28.5490 -28.5235 -28.4944 -28.4716 -28.4596 -28.4499 -28.4423 -28.4076
    -8.5228  -8.5207  -8.5207  -8.4933  -8.4751  -8.4356  -8.4170  -8.3910
    -8.3532  -8.3528  -8.3509  -8.3141  -8.3137  -8.3117  -8.3080  -8.3008
    -8.2814  -8.2784  -8.2669  -8.2442  -8.2438  -8.2101  -8.2094  -8.2054
    -8.1556  -8.1434  -8.0560  -8.0441  -7.9902  -7.9757  -6.1337  -4.6829
    -3.0564  -2.9189  -2.3539  -2.2998  -1.2808  -0.7392  -0.6118  -0.1408
    -0.0742  -0.0609   0.2215   0.2653   0.5288   0.5311   0.7353   0.8148
     0.8902   1.0230   1.1593   1.1848   1.1887   1.2751   1.5613   1.6132
     1.6569   1.9113   1.9741

          k = 0.0135 0.0239 0.0000 ( 41777 PWs)   bands (ev):

   -50.1048 -50.0989 -50.0751 -50.0692 -49.8845 -49.8785 -28.7586 -28.7511
   -28.7263 -28.7187 -28.6680 -28.6615 -28.6441 -28.6373 -28.6308 -28.6056
   -28.5504 -28.5250 -28.4930 -28.4711 -28.4600 -28.4500 -28.4425 -28.4091
    -8.5140  -8.5115  -8.5115  -8.4828  -8.4705  -8.4254  -8.4056  -8.3852
    -8.3630  -8.3610  -8.3540  -8.3125  -8.3103  -8.3060  -8.3039  -8.2980
    -8.2822  -8.2804  -8.2557  -8.2430  -8.2405  -8.2149  -8.2086  -8.1902
    -8.1571  -8.1465  -8.0718  -8.0543  -7.9915  -7.9833  -6.0521  -4.6069
    -3.1188  -3.0376  -2.3702  -2.2762  -1.3407  -0.9932  -0.4800  -0.3430
    -0.2213  -0.0746   0.2139   0.4242   0.5255   0.5601   0.5972   0.7300
     0.9415   0.9645   1.0541   1.2101   1.3033   1.3342   1.5414   1.5960
     1.6317   1.8584   2.0000

          k = 0.0135 0.0382 0.0000 ( 41794 PWs)   bands (ev):

   -50.1045 -50.0992 -50.0748 -50.0695 -49.8842 -49.8788 -28.7583 -28.7515
   -28.7260 -28.7191 -28.6680 -28.6617 -28.6441 -28.6377 -28.6268 -28.6016
   -28.5547 -28.5292 -28.4888 -28.4703 -28.4609 -28.4498 -28.4429 -28.4136
    -8.4972  -8.4942  -8.4905  -8.4672  -8.4616  -8.4074  -8.3821  -8.3747
    -8.3719  -8.3670  -8.3505  -8.3155  -8.3072  -8.3055  -8.2970  -8.2895
    -8.2847  -8.2784  -8.2433  -8.2405  -8.2397  -8.2253  -8.2095  -8.1746
    -8.1640  -8.1546  -8.0989  -8.0674  -8.0058  -8.0017  -5.9018  -4.4699
    -3.4886  -3.0047  -2.5592  -2.2768  -1.1931  -1.1918  -0.5557  -0.3339
    -0.3302  -0.0879   0.2141   0.3189   0.4510   0.6128   0.6557   0.6644
     0.9057   0.9561   0.9819   1.2391   1.3879   1.4043   1.4160   1.4968
     1.6863   1.8118   2.0154

          k = 0.0135 0.0526 0.0000 ( 41804 PWs)   bands (ev):

   -50.1040 -50.0997 -50.0743 -50.0700 -49.8837 -49.8793 -28.7577 -28.7521
   -28.7254 -28.7197 -28.6677 -28.6622 -28.6440 -28.6384 -28.6203 -28.5952
   -28.5614 -28.5360 -28.4820 -28.4691 -28.4620 -28.4495 -28.4436 -28.4206
    -8.4755  -8.4709  -8.4602  -8.4494  -8.4478  -8.3886  -8.3871  -8.3786
    -8.3491  -8.3427  -8.3392  -8.3238  -8.3198  -8.3061  -8.2858  -8.2803
    -8.2800  -8.2721  -8.2444  -8.2418  -8.2323  -8.2310  -8.2134  -8.1752
    -8.1667  -8.1626  -8.1338  -8.0825  -8.0327  -8.0272  -5.6843  -4.2748
    -3.9313  -2.9801  -2.8461  -2.3089  -1.3003  -0.9235  -0.7574  -0.3834
    -0.3610  -0.0697   0.2239   0.2325   0.4239   0.6423   0.7013   0.7111
     0.8375   0.9238   0.9448   1.1825   1.3697   1.3715   1.4469   1.5135
     1.6867   1.8306   1.9687

          k = 0.0135 0.0669 0.0000 ( 41833 PWs)   bands (ev):

   -50.1034 -50.1004 -50.0737 -50.0706 -49.8831 -49.8799 -28.7570 -28.7528
   -28.7246 -28.7205 -28.6673 -28.6629 -28.6436 -28.6391 -28.6119 -28.5867
   -28.5701 -28.5447 -28.4731 -28.4677 -28.4633 -28.4489 -28.4445 -28.4297
    -8.4537  -8.4439  -8.4334  -8.4317  -8.4217  -8.4028  -8.3928  -8.3545
    -8.3425  -8.3374  -8.3318  -8.3113  -8.3099  -8.3061  -8.2789  -8.2734
    -8.2713  -8.2641  -8.2566  -8.2522  -8.2211  -8.2205  -8.2170  -8.1901
    -8.1815  -8.1715  -8.1616  -8.0979  -8.0708  -8.0505  -5.4032  -4.3813
    -4.0271  -3.1848  -2.9845  -2.3580  -1.2817  -0.9286  -0.6192  -0.5378
    -0.3801  -0.0316   0.2477   0.3236   0.3922   0.6665   0.7194   0.7361
     0.7663   0.8958   0.9277   1.0722   1.2898   1.4311   1.4914   1.5988
     1.6454   1.9526   2.0058

          k = 0.0135-0.0908 0.0000 ( 41846 PWs)   bands (ev):

   -50.1026 -50.1011 -50.0729 -50.0714 -49.8823 -49.8807 -28.7561 -28.7538
   -28.7237 -28.7214 -28.6667 -28.6637 -28.6428 -28.6399 -28.6019 -28.5802
   -28.5767 -28.5549 -28.4661 -28.4649 -28.4627 -28.4481 -28.4454 -28.4403
    -8.4411  -8.4231  -8.4173  -8.4153  -8.4095  -8.3945  -8.3874  -8.3697
    -8.3541  -8.3265  -8.3224  -8.3192  -8.2933  -8.2859  -8.2798  -8.2707
    -8.2624  -8.2566  -8.2562  -8.2390  -8.2294  -8.2164  -8.2074  -8.1997
    -8.1990  -8.1910  -8.1819  -8.1175  -8.1103  -8.0596  -5.0644  -4.8051
    -3.7376  -3.5314  -3.0174  -2.4317  -1.1304  -1.0487  -0.7257  -0.3304
    -0.2652   0.0120   0.2878   0.3590   0.4291   0.5422   0.7132   0.7268
     0.8199   0.9018   0.9213   0.9875   1.3041   1.4950   1.5106   1.5684
     1.6871   1.7150   1.8905

          k = 0.0135-0.0764 0.0000 ( 41861 PWs)   bands (ev):

   -50.1019 -50.1018 -50.0722 -50.0721 -49.8815 -49.8815 -28.7551 -28.7548
   -28.7227 -28.7224 -28.6659 -28.6645 -28.6419 -28.6406 -28.5912 -28.5909
   -28.5659 -28.5656 -28.4665 -28.4646 -28.4516 -28.4515 -28.4470 -28.4463
    -8.4459  -8.4345  -8.4169  -8.4062  -8.3916  -8.3838  -8.3828  -8.3688
    -8.3561  -8.3526  -8.3222  -8.3074  -8.2949  -8.2872  -8.2835  -8.2704
    -8.2496  -8.2446  -8.2392  -8.2315  -8.2274  -8.2269  -8.2182  -8.2128
    -8.2079  -8.2019  -8.1678  -8.1551  -8.1117  -8.0557  -5.1843  -4.6766
    -3.8555  -3.4243  -3.0560  -2.5387  -1.0982  -0.8663  -0.7817  -0.2481
     0.0189   0.0597   0.2463   0.3425   0.4154   0.4958   0.6475   0.7814
     0.8701   0.9289   0.9297   0.9682   1.3638   1.4749   1.4798   1.4912
     1.6381   1.7636   1.8532

          k = 0.0135-0.0621 0.0000 ( 41864 PWs)   bands (ev):

   -50.1027 -50.1011 -50.0730 -50.0713 -49.8823 -49.8807 -28.7558 -28.7541
   -28.7234 -28.7216 -28.6653 -28.6650 -28.6413 -28.6408 -28.6016 -28.5803
   -28.5764 -28.5550 -28.4680 -28.4631 -28.4627 -28.4472 -28.4459 -28.4402
    -8.4596  -8.4479  -8.4378  -8.4348  -8.3932  -8.3772  -8.3666  -8.3652
    -8.3562  -8.3497  -8.3400  -8.3065  -8.2993  -8.2851  -8.2744  -8.2673
    -8.2632  -8.2588  -8.2546  -8.2542  -8.2386  -8.2192  -8.2122  -8.2094
    -8.2005  -8.1955  -8.1837  -8.1147  -8.0922  -8.0477  -5.5078  -4.2519
    -4.1379  -3.1139  -3.0745  -2.6702  -1.0533  -0.7261  -0.5253  -0.1515
     0.0168   0.1164   0.2006   0.3802   0.4003   0.5066   0.5540   0.7510
     0.8799   0.9168   1.0306   1.0759   1.3488   1.4082   1.4166   1.4240
     1.6789   1.8643   1.8940

          k = 0.0135-0.0478 0.0000 ( 41838 PWs)   bands (ev):

   -50.1034 -50.1003 -50.0737 -50.0706 -49.8831 -49.8800 -28.7567 -28.7531
   -28.7243 -28.7206 -28.6660 -28.6640 -28.6419 -28.6397 -28.6115 -28.5863
   -28.5702 -28.5448 -28.4730 -28.4694 -28.4618 -28.4480 -28.4448 -28.4296
    -8.4749  -8.4660  -8.4648  -8.4594  -8.4336  -8.3862  -8.3616  -8.3502
    -8.3496  -8.3338  -8.3319  -8.3311  -8.3133  -8.2896  -8.2842  -8.2807
    -8.2759  -8.2727  -8.2683  -8.2566  -8.2446  -8.2322  -8.2137  -8.2029
    -8.2009  -8.1787  -8.1396  -8.0763  -8.0583  -8.0404  -5.7688  -4.3677
    -3.8078  -3.0575  -2.8347  -2.8035  -0.9020  -0.5843  -0.2293  -0.1454
    -0.0592   0.1863   0.2104   0.2126   0.4322   0.5053   0.5587   0.6554
     0.8336   0.9604   1.1648   1.1963   1.2269   1.3419   1.3831   1.4696
     1.7247   1.8295   1.8899

          k = 0.0135-0.0334 0.0000 ( 41827 PWs)   bands (ev):

   -50.1041 -50.0997 -50.0744 -50.0700 -49.8837 -49.8793 -28.7575 -28.7523
   -28.7251 -28.7198 -28.6667 -28.6631 -28.6425 -28.6387 -28.6200 -28.5948
   -28.5614 -28.5360 -28.4819 -28.4705 -28.4607 -28.4487 -28.4438 -28.4205
    -8.4919  -8.4911  -8.4888  -8.4696  -8.4681  -8.4101  -8.3688  -8.3497
    -8.3433  -8.3372  -8.3295  -8.3271  -8.3249  -8.3154  -8.2949  -8.2904
    -8.2815  -8.2763  -8.2710  -8.2670  -8.2395  -8.2269  -8.2202  -8.2040
    -8.1853  -8.1638  -8.0993  -8.0439  -8.0358  -8.0240  -5.9632  -4.5389
    -3.3735  -2.9927  -2.9177  -2.6091  -0.6567  -0.4680  -0.3905  -0.1196
     0.0127   0.0575   0.2685   0.2687   0.3879   0.5254   0.5303   0.6396
     0.8066   1.0125   1.1342   1.1946   1.2673   1.3635   1.4145   1.4929
     1.7084   1.8529   1.8804

          k = 0.0135-0.0191 0.0000 ( 41838 PWs)   bands (ev):

   -50.1045 -50.0992 -50.0748 -50.0695 -49.8842 -49.8789 -28.7582 -28.7516
   -28.7257 -28.7191 -28.6672 -28.6624 -28.6430 -28.6379 -28.6265 -28.6013
   -28.5547 -28.5292 -28.4886 -28.4713 -28.4599 -28.4492 -28.4430 -28.4135
    -8.5113  -8.5104  -8.5027  -8.4921  -8.4738  -8.4276  -8.3974  -8.3622
    -8.3437  -8.3414  -8.3381  -8.3266  -8.3212  -8.3110  -8.3067  -8.2906
    -8.2855  -8.2812  -8.2761  -8.2585  -8.2419  -8.2223  -8.2171  -8.2065
    -8.1703  -8.1524  -8.0692  -8.0347  -8.0186  -7.9968  -6.0892  -4.6491
    -3.0380  -3.0003  -2.8350  -2.4413  -0.7102  -0.4406  -0.3731  -0.2284
    -0.1232   0.0502   0.2578   0.3382   0.4004   0.5447   0.6169   0.7377
     0.7973   1.0496   1.0961   1.1497   1.2204   1.4632   1.4794   1.5227
     1.6185   1.8695   1.8994

          k = 0.0270-0.0095 0.0000 ( 41791 PWs)   bands (ev):

   -50.1045 -50.0992 -50.0748 -50.0695 -49.8842 -49.8788 -28.7582 -28.7516
   -28.7258 -28.7191 -28.6674 -28.6622 -28.6433 -28.6379 -28.6266 -28.6014
   -28.5547 -28.5292 -28.4887 -28.4710 -28.4602 -28.4494 -28.4430 -28.4135
    -8.5077  -8.5060  -8.4988  -8.4863  -8.4706  -8.4223  -8.3936  -8.3635
    -8.3542  -8.3517  -8.3423  -8.3237  -8.3179  -8.3092  -8.3025  -8.2906
    -8.2864  -8.2794  -8.2660  -8.2530  -8.2413  -8.2201  -8.2074  -8.2063
    -8.1682  -8.1532  -8.0783  -8.0431  -8.0138  -7.9981  -6.0422  -4.6039
    -3.2425  -2.9936  -2.6026  -2.4736  -0.9038  -0.6899  -0.3547  -0.3389
    -0.1084   0.1309   0.2096   0.2527   0.4635   0.5383   0.5623   0.7541
     0.8735   1.0133   1.0728   1.2200   1.2264   1.4282   1.4607   1.5135
     1.6402   1.8706   1.9213

          k = 0.0270 0.0048 0.0000 ( 41777 PWs)   bands (ev):

   -50.1048 -50.0989 -50.0751 -50.0692 -49.8845 -49.8785 -28.7586 -28.7511
   -28.7263 -28.7187 -28.6680 -28.6615 -28.6441 -28.6373 -28.6308 -28.6056
   -28.5504 -28.5250 -28.4930 -28.4711 -28.4600 -28.4500 -28.4425 -28.4091
    -8.5140  -8.5115  -8.5115  -8.4828  -8.4705  -8.4254  -8.4056  -8.3852
    -8.3630  -8.3610  -8.3540  -8.3125  -8.3103  -8.3060  -8.3039  -8.2980
    -8.2822  -8.2804  -8.2557  -8.2430  -8.2405  -8.2149  -8.2086  -8.1902
    -8.1571  -8.1465  -8.0718  -8.0543  -7.9915  -7.9833  -6.0521  -4.6069
    -3.1188  -3.0376  -2.3702  -2.2762  -1.3407  -0.9932  -0.4800  -0.3430
    -0.2213  -0.0746   0.2139   0.4242   0.5255   0.5601   0.5971   0.7300
     0.9415   0.9645   1.0541   1.2100   1.3030   1.3341   1.5415   1.5960
     1.6317   1.8587   1.9972

          k = 0.0270 0.0191 0.0000 ( 41839 PWs)   bands (ev):

   -50.1049 -50.0988 -50.0752 -50.0691 -49.8846 -49.8784 -28.7589 -28.7509
   -28.7265 -28.7185 -28.6685 -28.6611 -28.6447 -28.6371 -28.6323 -28.6072
   -28.5491 -28.5236 -28.4945 -28.4709 -28.4603 -28.4504 -28.4423 -28.4078
    -8.5131  -8.5107  -8.5078  -8.4717  -8.4679  -8.4195  -8.4034  -8.3934
    -8.3730  -8.3710  -8.3606  -8.3069  -8.3047  -8.3027  -8.2985  -8.2972
    -8.2817  -8.2803  -8.2439  -8.2435  -8.2312  -8.2133  -8.2113  -8.1713
    -8.1531  -8.1441  -8.0785  -8.0687  -7.9817  -7.9793  -5.9929  -4.5482
    -3.0978  -3.0619  -2.3380  -2.0530  -1.6462  -1.2605  -0.6069  -0.5252
    -0.3878  -0.0700   0.2242   0.4403   0.5093   0.6185   0.6232   0.6866
     0.8757   0.9006   1.1772   1.2067   1.2197   1.4062   1.5764   1.6169
     1.6799   1.8156   1.8799

          k = 0.0270 0.0335 0.0000 ( 41805 PWs)   bands (ev):

   -50.1048 -50.0989 -50.0751 -50.0692 -49.8845 -49.8785 -28.7588 -28.7510
   -28.7265 -28.7186 -28.6688 -28.6610 -28.6451 -28.6372 -28.6311 -28.6060
   -28.5505 -28.5250 -28.4931 -28.4702 -28.4609 -28.4506 -28.4424 -28.4093
    -8.5023  -8.4993  -8.4961  -8.4613  -8.4552  -8.4058  -8.3904  -8.3864
    -8.3832  -8.3815  -8.3618  -8.3050  -8.3015  -8.2955  -8.2938  -8.2926
    -8.2823  -8.2791  -8.2420  -8.2319  -8.2260  -8.2194  -8.2128  -8.1557
    -8.1529  -8.1458  -8.0968  -8.0857  -7.9899  -7.9822  -5.8649  -4.4290
    -3.3069  -3.0878  -2.4334  -1.9549  -1.6659  -1.4522  -0.8693  -0.4904
    -0.4862  -0.0936   0.2348   0.3470   0.3776   0.6067   0.6442   0.7369
     0.8140   0.9003   1.0984   1.2440   1.3058   1.4878   1.4986   1.5447
     1.7245   1.7630   1.8911

          k = 0.0270 0.0478 0.0000 ( 41790 PWs)   bands (ev):

   -50.1045 -50.0992 -50.0748 -50.0695 -49.8842 -49.8788 -28.7585 -28.7513
   -28.7261 -28.7190 -28.6689 -28.6612 -28.6452 -28.6374 -28.6271 -28.6020
   -28.5548 -28.5293 -28.4889 -28.4693 -28.4618 -28.4505 -28.4428 -28.4138
    -8.4820  -8.4804  -8.4780  -8.4496  -8.4360  -8.3946  -8.3924  -8.3852
    -8.3727  -8.3618  -8.3579  -8.3046  -8.3027  -8.2994  -8.2898  -8.2833
    -8.2771  -8.2768  -8.2378  -8.2301  -8.2257  -8.2207  -8.2185  -8.1642
    -8.1522  -8.1381  -8.1240  -8.1043  -8.0079  -7.9987  -5.6696  -4.2521
    -3.6974  -3.1397  -2.6696  -1.9522  -1.5292  -1.4456  -1.1108  -0.4587
    -0.4514  -0.1292   0.2158   0.2514   0.3022   0.5492   0.6701   0.7490
     0.8427   0.8955   1.0341   1.2413   1.3934   1.4103   1.4171   1.5710
     1.7291   1.7717   1.8941

          k = 0.0270 0.0621 0.0000 ( 41790 PWs)   bands (ev):

   -50.1040 -50.0997 -50.0743 -50.0700 -49.8837 -49.8793 -28.7579 -28.7519
   -28.7255 -28.7196 -28.6687 -28.6618 -28.6449 -28.6379 -28.6206 -28.5955
   -28.5615 -28.5360 -28.4821 -28.4681 -28.4629 -28.4501 -28.4435 -28.4208
    -8.4624  -8.4555  -8.4502  -8.4335  -8.4161  -8.4067  -8.4014  -8.3616
    -8.3497  -8.3464  -8.3290  -8.3202  -8.3143  -8.2915  -8.2864  -8.2793
    -8.2713  -8.2668  -8.2477  -8.2308  -8.2302  -8.2254  -8.2118  -8.1775
    -8.1630  -8.1570  -8.1321  -8.1231  -8.0297  -8.0275  -5.4105  -4.1427
    -4.0237  -3.2263  -2.9942  -2.0148  -1.4719  -1.3121  -1.1122  -0.5242
    -0.3212  -0.1436   0.2183   0.2315   0.2909   0.5401   0.7046   0.7161
     0.8738   0.8900   1.0018   1.1722   1.2925   1.4306   1.4695   1.6085
     1.7207   1.8336   1.8434

          k = 0.0270-0.0955 0.0000 ( 41857 PWs)   bands (ev):

   -50.1034 -50.1004 -50.0736 -50.0707 -49.8831 -49.8799 -28.7572 -28.7527
   -28.7247 -28.7203 -28.6683 -28.6625 -28.6443 -28.6386 -28.6121 -28.5869
   -28.5701 -28.5447 -28.4732 -28.4667 -28.4643 -28.4494 -28.4443 -28.4299
    -8.4464  -8.4315  -8.4178  -8.4166  -8.4145  -8.4076  -8.3986  -8.3451
    -8.3385  -8.3346  -8.3321  -8.3123  -8.2950  -8.2921  -8.2809  -8.2767
    -8.2707  -8.2662  -8.2513  -8.2406  -8.2397  -8.2108  -8.2087  -8.1946
    -8.1859  -8.1779  -8.1456  -8.1392  -8.0704  -8.0404  -5.0933  -4.5778
    -3.7557  -3.3450  -3.3293  -2.1343  -1.4548  -1.2904  -0.7430  -0.5945
    -0.2018  -0.0871   0.1553   0.3254   0.3444   0.5871   0.6628   0.7506
     0.8329   0.8946   1.0093   1.1033   1.2616   1.4793   1.5391   1.5626
     1.7019   1.7357   1.8083

          k = 0.0270-0.0812 0.0000 ( 41866 PWs)   bands (ev):

   -50.1026 -50.1011 -50.0729 -50.0714 -49.8824 -49.8807 -28.7563 -28.7537
   -28.7238 -28.7212 -28.6676 -28.6633 -28.6434 -28.6393 -28.6021 -28.5802
   -28.5769 -28.5548 -28.4657 -28.4653 -28.4627 -28.4484 -28.4452 -28.4403
    -8.4451  -8.4334  -8.4018  -8.4011  -8.3961  -8.3911  -8.3852  -8.3734
    -8.3488  -8.3253  -8.3177  -8.3046  -8.2997  -8.2851  -8.2738  -8.2731
    -8.2632  -8.2554  -8.2510  -8.2488  -8.2344  -8.2197  -8.2138  -8.1962
    -8.1944  -8.1850  -8.1786  -8.1462  -8.1203  -8.0405  -4.9742  -4.7263
    -3.6808  -3.4689  -3.4195  -2.2986  -1.5117  -1.0165  -0.6149  -0.3558
    -0.1540   0.0534   0.1235   0.4008   0.4210   0.5526   0.6761   0.7539
     0.8026   0.9149   1.0543   1.0582   1.3078   1.4761   1.4942   1.5891
     1.5893   1.7838   1.8262

          k = 0.0270-0.0669 0.0000 ( 41840 PWs)   bands (ev):

   -50.1019 -50.1018 -50.0722 -50.0721 -49.8816 -49.8815 -28.7552 -28.7547
   -28.7227 -28.7222 -28.6666 -28.6641 -28.6423 -28.6400 -28.5913 -28.5909
   -28.5660 -28.5655 -28.4672 -28.4639 -28.4515 -28.4515 -28.4473 -28.4461
    -8.4557  -8.4448  -8.4083  -8.4073  -8.3858  -8.3753  -8.3751  -8.3619
    -8.3528  -8.3519  -8.3267  -8.3117  -8.2926  -8.2780  -8.2753  -8.2689
    -8.2656  -8.2485  -8.2441  -8.2303  -8.2302  -8.2288  -8.2251  -8.2117
    -8.2073  -8.1958  -8.1742  -8.1519  -8.1320  -8.0362  -5.3174  -4.3209
    -3.9781  -3.4753  -3.1922  -2.4820  -1.4589  -0.6807  -0.5283  -0.1071
    -0.0571   0.1416   0.1825   0.3805   0.4136   0.5164   0.6377   0.7307
     0.8528   0.9765   1.0090   1.1415   1.3211   1.3771   1.4357   1.5366
     1.6287   1.7623   1.8101

          k = 0.0270-0.0525 0.0000 ( 41845 PWs)   bands (ev):

   -50.1027 -50.1010 -50.0730 -50.0713 -49.8823 -49.8807 -28.7557 -28.7542
   -28.7232 -28.7216 -28.6654 -28.6650 -28.6410 -28.6408 -28.6015 -28.5804
   -28.5763 -28.5550 -28.4685 -28.4627 -28.4626 -28.4470 -28.4460 -28.4401
    -8.4689  -8.4551  -8.4395  -8.4376  -8.3951  -8.3685  -8.3653  -8.3607
    -8.3503  -8.3467  -8.3362  -8.3096  -8.2946  -8.2903  -8.2771  -8.2724
    -8.2651  -8.2610  -8.2550  -8.2428  -8.2397  -8.2279  -8.2263  -8.2233
    -8.1973  -8.1939  -8.1772  -8.1149  -8.0977  -8.0327  -5.5993  -4.2240
    -3.8939  -3.4790  -2.9556  -2.6568  -1.2801  -0.3813  -0.3215  -0.0526
     0.0667   0.1581   0.2292   0.2830   0.4090   0.4408   0.6087   0.6699
     0.8785   0.9441   1.1032   1.1874   1.2363   1.3824   1.4295   1.4408
     1.6917   1.7592   1.8286

          k = 0.0270-0.0382 0.0000 ( 41832 PWs)   bands (ev):

   -50.1034 -50.1003 -50.0737 -50.0706 -49.8831 -49.8800 -28.7567 -28.7532
   -28.7242 -28.7206 -28.6658 -28.6643 -28.6416 -28.6398 -28.6115 -28.5862
   -28.5702 -28.5448 -28.4730 -28.4696 -28.4615 -28.4478 -28.4448 -28.4296
    -8.4806  -8.4685  -8.4673  -8.4631  -8.4355  -8.3900  -8.3523  -8.3515
    -8.3397  -8.3366  -8.3325  -8.3290  -8.3085  -8.2873  -8.2841  -8.2835
    -8.2813  -8.2804  -8.2717  -8.2585  -8.2410  -8.2331  -8.2264  -8.2066
    -8.2005  -8.1778  -8.1338  -8.0782  -8.0586  -8.0323  -5.8153  -4.4120
    -3.5155  -3.3730  -2.8049  -2.7661  -0.9933  -0.2312  -0.1117  -0.0406
     0.0002   0.0089   0.1576   0.3362   0.4047   0.4782   0.5549   0.5870
     0.8460   0.9378   1.1339   1.2416   1.3169   1.3232   1.3285   1.4874
     1.7996   1.8144   1.9250

          k = 0.0270-0.0239 0.0000 ( 41827 PWs)   bands (ev):

   -50.1041 -50.0997 -50.0744 -50.0700 -49.8837 -49.8793 -28.7575 -28.7523
   -28.7251 -28.7198 -28.6667 -28.6631 -28.6425 -28.6387 -28.6200 -28.5948
   -28.5614 -28.5360 -28.4819 -28.4705 -28.4607 -28.4487 -28.4438 -28.4205
    -8.4919  -8.4911  -8.4888  -8.4696  -8.4681  -8.4101  -8.3688  -8.3497
    -8.3433  -8.3372  -8.3295  -8.3271  -8.3249  -8.3154  -8.2949  -8.2904
    -8.2815  -8.2763  -8.2710  -8.2670  -8.2395  -8.2269  -8.2202  -8.2040
    -8.1853  -8.1638  -8.0993  -8.0439  -8.0358  -8.0240  -5.9632  -4.5389
    -3.3735  -2.9927  -2.9177  -2.6091  -0.6567  -0.4680  -0.3905  -0.1196
     0.0127   0.0575   0.2685   0.2687   0.3879   0.5254   0.5303   0.6396
     0.8066   1.0125   1.1345   1.1950   1.2672   1.3634   1.4142   1.4928
     1.7085   1.8482   1.8744

          k = 0.0406-0.0143 0.0000 ( 41840 PWs)   bands (ev):

   -50.1040 -50.0997 -50.0743 -50.0700 -49.8837 -49.8793 -28.7576 -28.7522
   -28.7252 -28.7198 -28.6670 -28.6628 -28.6430 -28.6386 -28.6201 -28.5950
   -28.5614 -28.5360 -28.4819 -28.4700 -28.4612 -28.4489 -28.4437 -28.4205
    -8.4861  -8.4838  -8.4765  -8.4645  -8.4613  -8.4009  -8.3671  -8.3621
    -8.3610  -8.3341  -8.3337  -8.3317  -8.3189  -8.3177  -8.2888  -8.2872
    -8.2798  -8.2756  -8.2577  -8.2539  -8.2369  -8.2340  -8.2057  -8.1956
    -8.1802  -8.1654  -8.1131  -8.0521  -8.0383  -8.0254  -5.8697  -4.4497
    -3.6684  -2.9162  -2.7022  -2.6511  -0.8853  -0.6908  -0.5508  -0.2615
    -0.1586   0.1670   0.1835   0.2005   0.3756   0.5523   0.6587   0.7373
     0.8078   0.9920   1.0369   1.2389   1.3162   1.3362   1.4283   1.4572
     1.6979   1.8302   2.0101

          k = 0.0406 0.0000 0.0000 ( 41794 PWs)   bands (ev):

   -50.1045 -50.0992 -50.0748 -50.0695 -49.8842 -49.8788 -28.7583 -28.7515
   -28.7260 -28.7191 -28.6680 -28.6617 -28.6441 -28.6377 -28.6268 -28.6016
   -28.5547 -28.5292 -28.4888 -28.4703 -28.4609 -28.4498 -28.4429 -28.4136
    -8.4972  -8.4942  -8.4905  -8.4672  -8.4616  -8.4074  -8.3821  -8.3747
    -8.3719  -8.3670  -8.3505  -8.3155  -8.3072  -8.3055  -8.2970  -8.2895
    -8.2847  -8.2784  -8.2433  -8.2405  -8.2397  -8.2253  -8.2095  -8.1746
    -8.1640  -8.1546  -8.0989  -8.0674  -8.0058  -8.0017  -5.9018  -4.4699
    -3.4886  -3.0047  -2.5592  -2.2768  -1.1931  -1.1918  -0.5557  -0.3339
    -0.3302  -0.0879   0.2141   0.3189   0.4510   0.6128   0.6557   0.6644
     0.9057   0.9561   0.9819   1.2392   1.3880   1.4044   1.4160   1.4969
     1.6870   1.8119   2.0351

          k = 0.0406 0.0144 0.0000 ( 41805 PWs)   bands (ev):

   -50.1048 -50.0989 -50.0751 -50.0692 -49.8845 -49.8785 -28.7588 -28.7510
   -28.7265 -28.7186 -28.6688 -28.6610 -28.6451 -28.6372 -28.6311 -28.6060
   -28.5505 -28.5250 -28.4931 -28.4702 -28.4609 -28.4506 -28.4424 -28.4093
    -8.5023  -8.4993  -8.4961  -8.4613  -8.4552  -8.4058  -8.3904  -8.3864
    -8.3832  -8.3815  -8.3618  -8.3050  -8.3015  -8.2955  -8.2938  -8.2926
    -8.2823  -8.2791  -8.2420  -8.2319  -8.2260  -8.2194  -8.2128  -8.1557
    -8.1529  -8.1458  -8.0968  -8.0857  -7.9899  -7.9822  -5.8649  -4.4290
    -3.3069  -3.0878  -2.4334  -1.9549  -1.6659  -1.4522  -0.8693  -0.4904
    -0.4862  -0.0936   0.2348   0.3470   0.3776   0.6067   0.6442   0.7369
     0.8140   0.9003   1.0984   1.2440   1.3048   1.4877   1.4990   1.5448
     1.7242   1.7643   1.8942

          k = 0.0406 0.0287 0.0000 ( 41766 PWs)   bands (ev):

   -50.1049 -50.0988 -50.0752 -50.0691 -49.8847 -49.8784 -28.7590 -28.7508
   -28.7267 -28.7184 -28.6695 -28.6606 -28.6458 -28.6368 -28.6326 -28.6075
   -28.5491 -28.5236 -28.4946 -28.4698 -28.4612 -28.4510 -28.4423 -28.4079
    -8.5027  -8.4932  -8.4903  -8.4586  -8.4384  -8.3980  -8.3969  -8.3917
    -8.3903  -8.3794  -8.3675  -8.3092  -8.2919  -8.2907  -8.2846  -8.2831
    -8.2826  -8.2785  -8.2426  -8.2227  -8.2208  -8.2157  -8.2127  -8.1547
    -8.1407  -8.1323  -8.1063  -8.1057  -7.9890  -7.9720  -5.7593  -4.3282
    -3.2409  -3.1906  -2.3893  -1.9788  -1.7158  -1.6162  -1.1747  -0.7000
    -0.5734  -0.0668   0.2357   0.2502   0.2645   0.5353   0.6329   0.7220
     0.8677   0.8842   1.1320   1.2593   1.2905   1.5285   1.5581   1.5726
     1.6968   1.7544   1.7643

          k = 0.0406 0.0430 0.0000 ( 41816 PWs)   bands (ev):

   -50.1048 -50.0989 -50.0751 -50.0692 -49.8846 -49.8785 -28.7590 -28.7509
   -28.7266 -28.7185 -28.6699 -28.6607 -28.6461 -28.6369 -28.6314 -28.6063
   -28.5506 -28.5251 -28.4933 -28.4692 -28.4618 -28.4513 -28.4424 -28.4095
    -8.4915  -8.4811  -8.4783  -8.4509  -8.4187  -8.4004  -8.3989  -8.3937
    -8.3823  -8.3677  -8.3604  -8.3090  -8.2894  -8.2881  -8.2851  -8.2780
    -8.2744  -8.2734  -8.2407  -8.2306  -8.2168  -8.2109  -8.2105  -8.1594
    -8.1411  -8.1281  -8.1249  -8.1145  -7.9986  -7.9762  -5.5866  -4.1706
    -3.4561  -3.3291  -2.5057  -1.9450  -1.6547  -1.6106  -1.4518  -0.7479
    -0.5845  -0.0648   0.1066   0.1230   0.2681   0.4642   0.6316   0.6884
     0.8528   0.9736   1.0826   1.2680   1.3642   1.4388   1.5151   1.6287
     1.6778   1.7652   1.8160

          k = 0.0406 0.0574 0.0000 ( 41810 PWs)   bands (ev):

   -50.1045 -50.0993 -50.0747 -50.0695 -49.8842 -49.8788 -28.7587 -28.7512
   -28.7262 -28.7188 -28.6700 -28.6610 -28.6461 -28.6371 -28.6274 -28.6023
   -28.5548 -28.5293 -28.4890 -28.4683 -28.4627 -28.4511 -28.4428 -28.4139
    -8.4702  -8.4654  -8.4617  -8.4375  -8.4097  -8.4074  -8.3980  -8.3778
    -8.3638  -8.3622  -8.3334  -8.3046  -8.3012  -8.2933  -8.2792  -8.2742
    -8.2678  -8.2668  -8.2408  -8.2367  -8.2269  -8.2115  -8.2037  -8.1693
    -8.1505  -8.1498  -8.1471  -8.1049  -8.0144  -7.9949  -5.3499  -3.9635
    -3.8568  -3.4929  -2.7743  -1.7144  -1.6837  -1.5887  -1.5658  -0.6301
    -0.5811  -0.0453  -0.0284   0.0984   0.2980   0.4250   0.6463   0.6792
     0.8454   1.0275   1.0467   1.2484   1.3175   1.4412   1.4747   1.6503
     1.6939   1.7801   1.7995

          k = 0.0406-0.1003 0.0000 ( 41853 PWs)   bands (ev):

   -50.1040 -50.0997 -50.0743 -50.0700 -49.8838 -49.8793 -28.7581 -28.7518
   -28.7256 -28.7194 -28.6698 -28.6615 -28.6456 -28.6375 -28.6209 -28.5957
   -28.5615 -28.5360 -28.4822 -28.4672 -28.4638 -28.4506 -28.4435 -28.4209
    -8.4491  -8.4421  -8.4417  -8.4196  -8.4193  -8.4156  -8.3785  -8.3539
    -8.3521  -8.3407  -8.3213  -8.3070  -8.2997  -8.2968  -8.2799  -8.2667
    -8.2633  -8.2625  -8.2527  -8.2486  -8.2230  -8.2184  -8.2027  -8.1845
    -8.1763  -8.1684  -8.1586  -8.1111  -8.0281  -8.0263  -5.0548  -4.2912
    -3.7214  -3.6543  -3.1110  -1.8436  -1.8208  -1.3768  -1.2375  -0.5880
    -0.4516  -0.1352   0.0263   0.1968   0.3488   0.4376   0.6788   0.6879
     0.8500   1.0069   1.0487   1.2150   1.2651   1.4821   1.5125   1.5936
     1.6640   1.6789   1.7968

          k = 0.0406-0.0860 0.0000 ( 41863 PWs)   bands (ev):

   -50.1033 -50.1004 -50.0736 -50.0707 -49.8831 -49.8799 -28.7573 -28.7527
   -28.7248 -28.7201 -28.6691 -28.6623 -28.6448 -28.6381 -28.6123 -28.5871
   -28.5701 -28.5447 -28.4733 -28.4660 -28.4650 -28.4498 -28.4442 -28.4299
    -8.4407  -8.4307  -8.4179  -8.4170  -8.4119  -8.3998  -8.3648  -8.3466
    -8.3419  -8.3320  -8.3159  -8.3131  -8.2882  -8.2836  -8.2768  -8.2743
    -8.2693  -8.2640  -8.2577  -8.2478  -8.2306  -8.2144  -8.2066  -8.2039
    -8.1870  -8.1799  -8.1744  -8.1383  -8.0708  -8.0302  -4.7096  -4.7001
    -3.7885  -3.4703  -3.4508  -2.0310  -1.9050  -1.1146  -0.8165  -0.5539
    -0.3072  -0.1906   0.1507   0.3169   0.4224   0.5198   0.6958   0.7287
     0.8728   0.8900   1.0890   1.1906   1.3128   1.5004   1.5096   1.5157
     1.5859   1.6310   1.7818

          k = 0.0406-0.0716 0.0000 ( 41837 PWs)   bands (ev):

   -50.1026 -50.1011 -50.0729 -50.0714 -49.8824 -49.8807 -28.7564 -28.7536
   -28.7238 -28.7211 -28.6681 -28.6631 -28.6437 -28.6389 -28.6022 -28.5801
   -28.5769 -28.5548 -28.4662 -28.4648 -28.4627 -28.4486 -28.4450 -28.4404
    -8.4480  -8.4398  -8.4040  -8.3948  -8.3848  -8.3817  -8.3761  -8.3739
    -8.3406  -8.3278  -8.3133  -8.3015  -8.2895  -8.2873  -8.2777  -8.2728
    -8.2702  -8.2640  -8.2472  -8.2402  -8.2321  -8.2248  -8.2236  -8.1942
    -8.1902  -8.1820  -8.1779  -8.1715  -8.1223  -8.0291  -5.0608  -4.3259
    -3.8759  -3.7595  -3.2495  -2.2597  -1.8326  -0.8175  -0.4794  -0.4078
    -0.2058  -0.1660   0.2599   0.3760   0.5149   0.6503   0.6568   0.7342
     0.7866   0.9223   1.1529   1.1615   1.3372   1.3856   1.4162   1.5527
     1.5990   1.6624   1.7467

          k = 0.0406-0.0573 0.0000 ( 41828 PWs)   bands (ev):

   -50.1019 -50.1018 -50.0722 -50.0721 -49.8816 -49.8815 -28.7553 -28.7547
   -28.7227 -28.7221 -28.6668 -28.6640 -28.6424 -28.6398 -28.5913 -28.5908
   -28.5660 -28.5655 -28.4674 -28.4636 -28.4515 -28.4515 -28.4474 -28.4460
    -8.4591  -8.4484  -8.4090  -8.4052  -8.3867  -8.3716  -8.3672  -8.3627
    -8.3530  -8.3454  -8.3244  -8.3122  -8.2972  -8.2793  -8.2684  -8.2673
    -8.2670  -8.2550  -8.2460  -8.2322  -8.2303  -8.2300  -8.2279  -8.2105
    -8.2071  -8.1945  -8.1768  -8.1508  -8.1389  -8.0292  -5.3624  -4.0200
    -3.9537  -3.8698  -3.0831  -2.4738  -1.6124  -0.5412  -0.3778  -0.1216
    -0.1014  -0.0237   0.3140   0.3653   0.4593   0.6026   0.6133   0.7032
     0.8365   1.0086   1.0716   1.2117   1.2139   1.3930   1.4171   1.5556
     1.6176   1.6434   1.7912

          k = 0.0406-0.0430 0.0000 ( 41845 PWs)   bands (ev):

   -50.1027 -50.1010 -50.0730 -50.0713 -49.8823 -49.8807 -28.7557 -28.7542
   -28.7232 -28.7216 -28.6654 -28.6650 -28.6410 -28.6408 -28.6015 -28.5804
   -28.5763 -28.5550 -28.4685 -28.4627 -28.4626 -28.4470 -28.4460 -28.4401
    -8.4689  -8.4551  -8.4395  -8.4376  -8.3951  -8.3685  -8.3653  -8.3607
    -8.3503  -8.3467  -8.3362  -8.3096  -8.2946  -8.2903  -8.2771  -8.2724
    -8.2651  -8.2610  -8.2550  -8.2428  -8.2397  -8.2279  -8.2263  -8.2233
    -8.1973  -8.1939  -8.1772  -8.1149  -8.0977  -8.0327  -5.5993  -4.2240
    -3.8939  -3.4790  -2.9556  -2.6568  -1.2801  -0.3813  -0.3215  -0.0526
     0.0667   0.1581   0.2292   0.2830   0.4090   0.4408   0.6087   0.6699
     0.8785   0.9441   1.1034   1.1873   1.2363   1.3829   1.4301   1.4419
     1.6973   1.7645   1.9085

          k = 0.0406-0.0286 0.0000 ( 41838 PWs)   bands (ev):

   -50.1034 -50.1003 -50.0737 -50.0706 -49.8831 -49.8800 -28.7567 -28.7531
   -28.7243 -28.7206 -28.6660 -28.6640 -28.6419 -28.6397 -28.6115 -28.5863
   -28.5702 -28.5448 -28.4730 -28.4694 -28.4618 -28.4480 -28.4448 -28.4296
    -8.4749  -8.4660  -8.4648  -8.4594  -8.4336  -8.3862  -8.3616  -8.3502
    -8.3496  -8.3338  -8.3319  -8.3311  -8.3133  -8.2896  -8.2842  -8.2807
    -8.2759  -8.2727  -8.2683  -8.2566  -8.2446  -8.2322  -8.2137  -8.2029
    -8.2009  -8.1787  -8.1396  -8.0763  -8.0583  -8.0404  -5.7688  -4.3677
    -3.8078  -3.0575  -2.8347  -2.8035  -0.9020  -0.5843  -0.2293  -0.1454
    -0.0592   0.1863   0.2104   0.2126   0.4322   0.5053   0.5587   0.6554
     0.8336   0.9604   1.1648   1.1964   1.2267   1.3413   1.3831   1.4698
     1.7367   1.8300   1.8890

          k = 0.0541-0.0191 0.0000 ( 41846 PWs)   bands (ev):

   -50.1034 -50.1003 -50.0737 -50.0706 -49.8831 -49.8800 -28.7568 -28.7530
   -28.7245 -28.7206 -28.6665 -28.6635 -28.6427 -28.6395 -28.6117 -28.5865
   -28.5702 -28.5448 -28.4731 -28.4687 -28.4624 -28.4484 -28.4447 -28.4296
    -8.4608  -8.4581  -8.4564  -8.4489  -8.4286  -8.3824  -8.3790  -8.3660
    -8.3446  -8.3379  -8.3248  -8.3234  -8.3222  -8.2975  -8.2801  -8.2786
    -8.2688  -8.2646  -8.2625  -8.2548  -8.2405  -8.2255  -8.2084  -8.1935
    -8.1872  -8.1809  -8.1537  -8.0729  -8.0633  -8.0563  -5.6303  -4.2369
    -4.1204  -2.9983  -2.8312  -2.6846  -1.0114  -0.6719  -0.4298  -0.4191
    -0.3808   0.1694   0.1883   0.2899   0.3797   0.6043   0.7416   0.7466
     0.7615   0.9544   0.9545   1.1065   1.3542   1.3808   1.4274   1.4642
     1.6838   1.8610   1.9837

          k = 0.0541-0.0047 0.0000 ( 41804 PWs)   bands (ev):

   -50.1040 -50.0997 -50.0743 -50.0700 -49.8837 -49.8793 -28.7577 -28.7521
   -28.7254 -28.7197 -28.6677 -28.6622 -28.6440 -28.6384 -28.6203 -28.5952
   -28.5614 -28.5360 -28.4820 -28.4691 -28.4620 -28.4495 -28.4436 -28.4206
    -8.4755  -8.4709  -8.4602  -8.4493  -8.4478  -8.3886  -8.3871  -8.3786
    -8.3491  -8.3427  -8.3392  -8.3238  -8.3198  -8.3061  -8.2858  -8.2803
    -8.2800  -8.2721  -8.2444  -8.2418  -8.2323  -8.2310  -8.2134  -8.1752
    -8.1667  -8.1626  -8.1338  -8.0825  -8.0327  -8.0272  -5.6843  -4.2748
    -3.9313  -2.9801  -2.8461  -2.3089  -1.3003  -0.9235  -0.7574  -0.3834
    -0.3610  -0.0697   0.2239   0.2325   0.4239   0.6424   0.7013   0.7111
     0.8375   0.9238   0.9448   1.1824   1.3696   1.3710   1.4468   1.5135
     1.6870   1.8298   1.9697

          k = 0.0541 0.0096 0.0000 ( 41790 PWs)   bands (ev):

   -50.1045 -50.0992 -50.0748 -50.0695 -49.8842 -49.8788 -28.7585 -28.7513
   -28.7261 -28.7190 -28.6689 -28.6612 -28.6452 -28.6374 -28.6271 -28.6020
   -28.5548 -28.5293 -28.4889 -28.4693 -28.4618 -28.4505 -28.4428 -28.4138
    -8.4820  -8.4804  -8.4780  -8.4496  -8.4360  -8.3946  -8.3924  -8.3852
    -8.3727  -8.3618  -8.3579  -8.3046  -8.3027  -8.2994  -8.2898  -8.2833
    -8.2771  -8.2768  -8.2378  -8.2301  -8.2257  -8.2207  -8.2185  -8.1642
    -8.1522  -8.1381  -8.1240  -8.1043  -8.0079  -7.9987  -5.6696  -4.2521
    -3.6974  -3.1397  -2.6696  -1.9522  -1.5292  -1.4456  -1.1108  -0.4587
    -0.4514  -0.1292   0.2158   0.2514   0.3022   0.5492   0.6701   0.7490
     0.8427   0.8955   1.0340   1.2413   1.3934   1.4104   1.4172   1.5710
     1.7292   1.7721   1.8947

          k = 0.0541 0.0239 0.0000 ( 41816 PWs)   bands (ev):

   -50.1048 -50.0989 -50.0751 -50.0692 -49.8846 -49.8785 -28.7590 -28.7509
   -28.7266 -28.7185 -28.6699 -28.6607 -28.6461 -28.6369 -28.6314 -28.6063
   -28.5506 -28.5251 -28.4933 -28.4692 -28.4618 -28.4513 -28.4424 -28.4095
    -8.4915  -8.4811  -8.4783  -8.4509  -8.4187  -8.4004  -8.3989  -8.3937
    -8.3823  -8.3677  -8.3604  -8.3090  -8.2894  -8.2881  -8.2851  -8.2780
    -8.2744  -8.2734  -8.2407  -8.2306  -8.2168  -8.2109  -8.2105  -8.1594
    -8.1411  -8.1281  -8.1249  -8.1145  -7.9986  -7.9762  -5.5866  -4.1706
    -3.4561  -3.3291  -2.5057  -1.9450  -1.6547  -1.6106  -1.4518  -0.7479
    -0.5845  -0.0648   0.1066   0.1230   0.2681   0.4642   0.6316   0.6884
     0.8528   0.9736   1.0824   1.2681   1.3644   1.4388   1.5153   1.6285
     1.6786   1.7659   1.8134

          k = 0.0541 0.0383 0.0000 ( 41788 PWs)   bands (ev):

   -50.1049 -50.0988 -50.0752 -50.0691 -49.8847 -49.8784 -28.7592 -28.7507
   -28.7268 -28.7183 -28.6707 -28.6604 -28.6467 -28.6365 -28.6329 -28.6079
   -28.5492 -28.5237 -28.4948 -28.4689 -28.4621 -28.4517 -28.4423 -28.4080
    -8.4918  -8.4746  -8.4729  -8.4496  -8.4061  -8.4051  -8.4051  -8.3958
    -8.3740  -8.3716  -8.3466  -8.3142  -8.2841  -8.2832  -8.2784  -8.2771
    -8.2681  -8.2612  -8.2421  -8.2388  -8.2144  -8.2026  -8.2005  -8.1598
    -8.1528  -8.1356  -8.1343  -8.0951  -7.9997  -7.9671  -5.4365  -4.0343
    -3.5472  -3.3431  -2.4399  -2.2389  -1.7620  -1.6604  -1.3597  -0.9492
    -0.6739  -0.0936  -0.0419  -0.0265   0.2756   0.3832   0.6063   0.6507
     0.8282   1.0677   1.0730   1.2764   1.3966   1.4280   1.5934   1.6146
     1.6421   1.6931   1.7525

          k = 0.0541 0.0526 0.0000 ( 41806 PWs)   bands (ev):

   -50.1047 -50.0990 -50.0750 -50.0692 -49.8846 -49.8784 -28.7592 -28.7508
   -28.7267 -28.7183 -28.6710 -28.6605 -28.6469 -28.6365 -28.6317 -28.6066
   -28.5506 -28.5251 -28.4934 -28.4683 -28.4626 -28.4519 -28.4424 -28.4096
    -8.4816  -8.4643  -8.4630  -8.4425  -8.4123  -8.4113  -8.3997  -8.3764
    -8.3708  -8.3608  -8.3242  -8.3147  -8.2874  -8.2798  -8.2770  -8.2765
    -8.2623  -8.2511  -8.2501  -8.2389  -8.2189  -8.1974  -8.1966  -8.1772
    -8.1652  -8.1516  -8.1364  -8.0817  -8.0093  -7.9727  -5.2225  -3.8524
    -3.7723  -3.5606  -2.5678  -2.1328  -2.0149  -1.5642  -1.2994  -0.9352
    -0.6711  -0.2751  -0.1144  -0.0097   0.2931   0.3238   0.6012   0.6384
     0.8157   1.0412   1.1437   1.2745   1.3451   1.4501   1.5505   1.5741
     1.6868   1.7181   1.7303

          k = 0.0541-0.1051 0.0000 ( 41812 PWs)   bands (ev):

   -50.1044 -50.0993 -50.0747 -50.0695 -49.8843 -49.8788 -28.7589 -28.7512
   -28.7263 -28.7186 -28.6710 -28.6609 -28.6466 -28.6367 -28.6276 -28.6025
   -28.5548 -28.5293 -28.4891 -28.4676 -28.4634 -28.4516 -28.4428 -28.4140
    -8.4624  -8.4513  -8.4497  -8.4291  -8.4191  -8.4183  -8.3834  -8.3650
    -8.3573  -8.3445  -8.3110  -8.3020  -8.2939  -8.2865  -8.2781  -8.2712
    -8.2641  -8.2574  -8.2431  -8.2368  -8.2277  -8.2010  -8.1994  -8.1979
    -8.1753  -8.1708  -8.1435  -8.0812  -8.0206  -7.9930  -4.9502  -3.9797
    -3.9574  -3.6445  -2.8479  -2.1864  -1.7811  -1.4475  -1.3877  -0.7497
    -0.6254  -0.4116  -0.0239   0.0607   0.3004   0.3284   0.6196   0.6511
     0.8148   1.0407   1.1839   1.2622   1.2810   1.5022   1.5023   1.5299
     1.6589   1.6651   1.7897

          k = 0.0541-0.0907 0.0000 ( 41869 PWs)   bands (ev):

   -50.1040 -50.0997 -50.0742 -50.0700 -49.8838 -49.8792 -28.7583 -28.7518
   -28.7256 -28.7192 -28.6704 -28.6615 -28.6460 -28.6372 -28.6210 -28.5959
   -28.5615 -28.5360 -28.4823 -28.4667 -28.4643 -28.4509 -28.4434 -28.4210
    -8.4378  -8.4374  -8.4333  -8.4268  -8.4258  -8.4116  -8.3569  -8.3554
    -8.3421  -8.3248  -8.3209  -8.3070  -8.3043  -8.2807  -8.2733  -8.2647
    -8.2603  -8.2560  -8.2522  -8.2461  -8.2219  -8.2177  -8.2133  -8.2082
    -8.1884  -8.1806  -8.1563  -8.1011  -8.0270  -8.0249  -4.6278  -4.3679
    -4.1484  -3.4517  -3.1747  -2.2334  -1.7410  -1.2965  -1.1679  -0.5796
    -0.5258  -0.4696   0.1615   0.1821   0.3306   0.3836   0.6607   0.6825
     0.8293   1.0725   1.0791   1.3017   1.3295   1.4487   1.4847   1.5509
     1.5734   1.5766   1.7393

          k = 0.0541-0.0764 0.0000 ( 41848 PWs)   bands (ev):

   -50.1033 -50.1004 -50.0736 -50.0707 -49.8831 -49.8799 -28.7574 -28.7526
   -28.7247 -28.7201 -28.6694 -28.6622 -28.6449 -28.6379 -28.6123 -28.5871
   -28.5701 -28.5447 -28.4733 -28.4658 -28.4652 -28.4499 -28.4441 -28.4300
    -8.4384  -8.4335  -8.4205  -8.4145  -8.4103  -8.3938  -8.3473  -8.3431
    -8.3428  -8.3357  -8.3133  -8.3041  -8.2948  -8.2849  -8.2776  -8.2755
    -8.2707  -8.2612  -8.2467  -8.2384  -8.2249  -8.2247  -8.2208  -8.2047
    -8.1963  -8.1852  -8.1736  -8.1363  -8.0711  -8.0260  -4.7417  -4.2830
    -4.2489  -3.4876  -3.3205  -2.1119  -2.0061  -0.9647  -0.8415  -0.5189
[...]
    -8.4416  -8.4385  -8.4340  -8.4269  -8.3980  -8.3902  -8.3815  -8.3638
    -8.3597  -8.3412  -8.3330  -8.3101  -8.2980  -8.2818  -8.2760  -8.2733
    -8.2649  -8.2594  -8.2534  -8.2451  -8.2274  -8.2165  -8.2055  -8.2014
    -8.1974  -8.1946  -8.1909  -8.1153  -8.0791  -8.0751  -5.3277  -4.5609
    -3.9712  -3.3300  -2.7614  -2.7028  -1.0306  -0.7064  -0.6922  -0.5592
    -0.1370   0.1665   0.1848   0.2963   0.4376   0.6208   0.7285   0.7991
     0.8067   0.8218   0.9197   0.9805   1.3537   1.4488   1.4593   1.5359
     1.6412   1.8544   1.9246

          k = 0.0676-0.0095 0.0000 ( 41833 PWs)   bands (ev):

   -50.1034 -50.1004 -50.0737 -50.0706 -49.8831 -49.8799 -28.7570 -28.7528
   -28.7246 -28.7205 -28.6673 -28.6629 -28.6436 -28.6391 -28.6119 -28.5867
   -28.5701 -28.5447 -28.4731 -28.4677 -28.4633 -28.4489 -28.4445 -28.4297
    -8.4537  -8.4439  -8.4334  -8.4317  -8.4217  -8.4028  -8.3928  -8.3545
    -8.3425  -8.3374  -8.3318  -8.3113  -8.3099  -8.3061  -8.2789  -8.2734
    -8.2713  -8.2641  -8.2566  -8.2522  -8.2211  -8.2205  -8.2170  -8.1901
    -8.1815  -8.1715  -8.1616  -8.0979  -8.0708  -8.0505  -5.4032  -4.3813
    -4.0271  -3.1848  -2.9845  -2.3580  -1.2817  -0.9286  -0.6192  -0.5378
    -0.3801  -0.0316   0.2477   0.3236   0.3922   0.6665   0.7194   0.7361
     0.7663   0.8958   0.9277   1.0722   1.2898   1.4309   1.4916   1.5991
     1.6453   1.8648   1.9573

          k = 0.0676 0.0048 0.0000 ( 41790 PWs)   bands (ev):

   -50.1040 -50.0997 -50.0743 -50.0700 -49.8837 -49.8793 -28.7579 -28.7519
   -28.7255 -28.7196 -28.6687 -28.6618 -28.6449 -28.6379 -28.6206 -28.5955
   -28.5615 -28.5360 -28.4821 -28.4681 -28.4629 -28.4501 -28.4435 -28.4208
    -8.4624  -8.4555  -8.4502  -8.4335  -8.4161  -8.4067  -8.4014  -8.3616
    -8.3497  -8.3464  -8.3290  -8.3202  -8.3143  -8.2915  -8.2864  -8.2793
    -8.2713  -8.2668  -8.2477  -8.2308  -8.2302  -8.2254  -8.2118  -8.1775
    -8.1630  -8.1570  -8.1321  -8.1231  -8.0297  -8.0275  -5.4105  -4.1427
    -4.0237  -3.2263  -2.9942  -2.0148  -1.4719  -1.3121  -1.1122  -0.5242
    -0.3212  -0.1436   0.2183   0.2315   0.2909   0.5401   0.7046   0.7161
     0.8738   0.8900   1.0018   1.1723   1.2921   1.4305   1.4698   1.6082
     1.7203   1.8312   1.8538

          k = 0.0676 0.0192 0.0000 ( 41810 PWs)   bands (ev):

   -50.1045 -50.0993 -50.0747 -50.0695 -49.8842 -49.8788 -28.7587 -28.7512
   -28.7262 -28.7188 -28.6700 -28.6610 -28.6461 -28.6371 -28.6274 -28.6023
   -28.5548 -28.5293 -28.4890 -28.4683 -28.4627 -28.4511 -28.4428 -28.4139
    -8.4702  -8.4654  -8.4617  -8.4375  -8.4097  -8.4074  -8.3980  -8.3778
    -8.3638  -8.3622  -8.3334  -8.3046  -8.3012  -8.2933  -8.2792  -8.2742
    -8.2678  -8.2668  -8.2408  -8.2367  -8.2269  -8.2115  -8.2037  -8.1693
    -8.1505  -8.1498  -8.1471  -8.1049  -8.0144  -7.9949  -5.3499  -3.9635
    -3.8568  -3.4929  -2.7743  -1.7144  -1.6837  -1.5887  -1.5658  -0.6301
    -0.5811  -0.0453  -0.0284   0.0984   0.2981   0.4250   0.6463   0.6792
     0.8454   1.0275   1.0467   1.2486   1.3175   1.4411   1.4741   1.6504
     1.6930   1.7797   1.8013

          k = 0.0676 0.0335 0.0000 ( 41806 PWs)   bands (ev):

   -50.1047 -50.0990 -50.0750 -50.0692 -49.8846 -49.8784 -28.7592 -28.7508
   -28.7267 -28.7183 -28.6710 -28.6605 -28.6469 -28.6365 -28.6317 -28.6066
   -28.5506 -28.5251 -28.4934 -28.4683 -28.4626 -28.4519 -28.4424 -28.4096
    -8.4816  -8.4643  -8.4630  -8.4425  -8.4123  -8.4113  -8.3997  -8.3764
    -8.3708  -8.3608  -8.3242  -8.3147  -8.2874  -8.2798  -8.2770  -8.2765
    -8.2623  -8.2511  -8.2501  -8.2389  -8.2189  -8.1974  -8.1966  -8.1772
    -8.1652  -8.1516  -8.1364  -8.0817  -8.0093  -7.9727  -5.2225  -3.8524
    -3.7723  -3.5606  -2.5678  -2.1328  -2.0149  -1.5642  -1.2994  -0.9352
    -0.6711  -0.2751  -0.1144  -0.0097   0.2931   0.3238   0.6012   0.6384
     0.8157   1.0412   1.1437   1.2744   1.3450   1.4499   1.5504   1.5740
     1.6843   1.7182   1.7304

          k = 0.0676 0.0478 0.0000 ( 41802 PWs)   bands (ev):

   -50.1048 -50.0989 -50.0751 -50.0691 -49.8847 -49.8783 -28.7594 -28.7506
   -28.7268 -28.7181 -28.6716 -28.6604 -28.6473 -28.6362 -28.6332 -28.6081
   -28.5492 -28.5237 -28.4949 -28.4682 -28.4628 -28.4522 -28.4423 -28.4082
    -8.4832  -8.4612  -8.4593  -8.4434  -8.4149  -8.4143  -8.4076  -8.3736
    -8.3568  -8.3555  -8.3197  -8.3056  -8.2824  -8.2801  -8.2759  -8.2682
    -8.2648  -8.2566  -8.2399  -8.2353  -8.2157  -8.2034  -8.1949  -8.1876
    -8.1662  -8.1589  -8.1318  -8.0645  -8.0129  -7.9645  -5.0317  -4.0440
    -3.7040  -3.4041  -2.4766  -2.4035  -2.2819  -1.4804  -1.1078  -1.0007
    -0.7572  -0.4879  -0.3289   0.0139   0.2477   0.2927   0.5776   0.6149
     0.8002   1.0187   1.2046   1.2736   1.3551   1.4814   1.5230   1.5653
     1.6563   1.6893   1.7844

          k = 0.0676-0.1098 0.0000 ( 41789 PWs)   bands (ev):

   -50.1047 -50.0990 -50.0750 -50.0692 -49.8846 -49.8784 -28.7593 -28.7507
   -28.7267 -28.7181 -28.6717 -28.6605 -28.6473 -28.6362 -28.6318 -28.6068
   -28.5507 -28.5251 -28.4935 -28.4678 -28.4631 -28.4522 -28.4424 -28.4097
    -8.4754  -8.4550  -8.4530  -8.4378  -8.4182  -8.4180  -8.4026  -8.3716
    -8.3471  -8.3404  -8.3197  -8.2872  -8.2810  -8.2777  -8.2773  -8.2758
    -8.2684  -8.2545  -8.2385  -8.2269  -8.2240  -8.2199  -8.2005  -8.1857
    -8.1717  -8.1684  -8.1338  -8.0585  -8.0206  -7.9712  -4.7829  -4.2864
    -3.6148  -3.5539  -2.6034  -2.4422  -2.2294  -1.3476  -1.0947  -1.0322
    -0.6645  -0.6294  -0.3341   0.0638   0.2045   0.3073   0.5801   0.6167
     0.7961   1.0139   1.2479   1.2779   1.3283   1.4535   1.5099   1.5304
     1.6957   1.7422   1.8070

          k = 0.0676-0.0955 0.0000 ( 41850 PWs)   bands (ev):

   -50.1044 -50.0993 -50.0747 -50.0696 -49.8843 -49.8787 -28.7589 -28.7512
   -28.7263 -28.7186 -28.6713 -28.6609 -28.6468 -28.6366 -28.6277 -28.6026
   -28.5549 -28.5294 -28.4892 -28.4673 -28.4636 -28.4517 -28.4428 -28.4141
    -8.4594  -8.4457  -8.4448  -8.4261  -8.4232  -8.4221  -8.3849  -8.3654
    -8.3360  -8.3334  -8.3151  -8.3001  -8.2910  -8.2779  -8.2745  -8.2702
    -8.2596  -8.2513  -8.2439  -8.2365  -8.2271  -8.2197  -8.2155  -8.1926
    -8.1801  -8.1751  -8.1422  -8.0720  -8.0237  -7.9925  -4.4847  -4.4845
    -3.9918  -3.4619  -2.8743  -2.4330  -1.8185  -1.3870  -1.2279  -0.7909
    -0.6375  -0.6179  -0.0843   0.1585   0.1960   0.3394   0.6088   0.6429
     0.8046   1.0365   1.2270   1.3040   1.3383   1.3840   1.4829   1.5306
     1.6452   1.6654   1.7670

          k = 0.0676-0.0812 0.0000 ( 41869 PWs)   bands (ev):

   -50.1040 -50.0997 -50.0742 -50.0700 -49.8838 -49.8792 -28.7583 -28.7518
   -28.7256 -28.7192 -28.6704 -28.6615 -28.6460 -28.6372 -28.6210 -28.5959
   -28.5615 -28.5360 -28.4823 -28.4667 -28.4643 -28.4509 -28.4434 -28.4210
    -8.4378  -8.4374  -8.4333  -8.4268  -8.4258  -8.4116  -8.3569  -8.3554
    -8.3421  -8.3248  -8.3209  -8.3070  -8.3043  -8.2807  -8.2733  -8.2647
    -8.2603  -8.2560  -8.2522  -8.2461  -8.2219  -8.2177  -8.2133  -8.2082
    -8.1884  -8.1806  -8.1563  -8.1011  -8.0270  -8.0249  -4.6278  -4.3679
    -4.1484  -3.4517  -3.1747  -2.2334  -1.7410  -1.2965  -1.1679  -0.5796
    -0.5258  -0.4696   0.1615   0.1821   0.3306   0.3836   0.6607   0.6825
     0.8293   1.0725   1.0791   1.3017   1.3295   1.4487   1.4846   1.5509
     1.5733   1.5761   1.7393

          k = 0.0676-0.0668 0.0000 ( 41863 PWs)   bands (ev):

   -50.1033 -50.1004 -50.0736 -50.0707 -49.8831 -49.8799 -28.7573 -28.7527
   -28.7248 -28.7201 -28.6691 -28.6623 -28.6448 -28.6381 -28.6123 -28.5871
   -28.5701 -28.5447 -28.4733 -28.4660 -28.4650 -28.4498 -28.4442 -28.4299
    -8.4407  -8.4307  -8.4179  -8.4170  -8.4119  -8.3998  -8.3648  -8.3466
    -8.3419  -8.3320  -8.3159  -8.3131  -8.2882  -8.2836  -8.2768  -8.2743
    -8.2693  -8.2640  -8.2577  -8.2478  -8.2306  -8.2144  -8.2066  -8.2039
    -8.1870  -8.1799  -8.1744  -8.1383  -8.0708  -8.0302  -4.7096  -4.7001
    -3.7885  -3.4703  -3.4508  -2.0310  -1.9050  -1.1146  -0.8165  -0.5539
    -0.3072  -0.1906   0.1507   0.3169   0.4224   0.5198   0.6958   0.7287
     0.8728   0.8900   1.0890   1.1904   1.3126   1.5027   1.5088   1.5151
     1.5857   1.6301   1.7823

          k = 0.0676-0.0525 0.0000 ( 41866 PWs)   bands (ev):

   -50.1026 -50.1011 -50.0729 -50.0714 -49.8824 -49.8807 -28.7563 -28.7537
   -28.7238 -28.7212 -28.6676 -28.6633 -28.6434 -28.6393 -28.6021 -28.5802
   -28.5769 -28.5548 -28.4657 -28.4653 -28.4627 -28.4484 -28.4452 -28.4403
    -8.4451  -8.4334  -8.4018  -8.4011  -8.3961  -8.3911  -8.3852  -8.3734
    -8.3488  -8.3253  -8.3177  -8.3046  -8.2997  -8.2851  -8.2738  -8.2731
    -8.2632  -8.2554  -8.2510  -8.2488  -8.2344  -8.2197  -8.2138  -8.1962
    -8.1944  -8.1850  -8.1786  -8.1462  -8.1203  -8.0405  -4.9742  -4.7263
    -3.6808  -3.4689  -3.4195  -2.2986  -1.5117  -1.0165  -0.6149  -0.3558
    -0.1540   0.0534   0.1235   0.4009   0.4210   0.5526   0.6761   0.7539
     0.8026   0.9149   1.0543   1.0582   1.3077   1.4761   1.4955   1.5892
     1.5897   1.7895   1.8273

          k = 0.0676-0.0382 0.0000 ( 41861 PWs)   bands (ev):

   -50.1019 -50.1018 -50.0722 -50.0721 -49.8815 -49.8815 -28.7551 -28.7548
   -28.7227 -28.7224 -28.6659 -28.6645 -28.6419 -28.6406 -28.5912 -28.5909
   -28.5659 -28.5656 -28.4665 -28.4646 -28.4516 -28.4515 -28.4470 -28.4463
    -8.4459  -8.4345  -8.4169  -8.4062  -8.3916  -8.3838  -8.3828  -8.3688
    -8.3561  -8.3526  -8.3222  -8.3074  -8.2949  -8.2872  -8.2835  -8.2704
    -8.2496  -8.2446  -8.2393  -8.2315  -8.2274  -8.2269  -8.2182  -8.2128
    -8.2079  -8.2019  -8.1678  -8.1551  -8.1117  -8.0557  -5.1843  -4.6766
    -3.8555  -3.4243  -3.0560  -2.5387  -1.0982  -0.8663  -0.7817  -0.2481
     0.0189   0.0597   0.2463   0.3425   0.4154   0.4958   0.6475   0.7814
     0.8701   0.9289   0.9297   0.9682   1.3632   1.4752   1.4800   1.4912
     1.6374   1.7646   1.8519

          k =-0.0811 0.0286 0.0000 ( 41840 PWs)   bands (ev):

   -50.1019 -50.1019 -50.0722 -50.0721 -49.8815 -49.8815 -28.7549 -28.7549
   -28.7226 -28.7226 -28.6651 -28.6651 -28.6413 -28.6413 -28.5911 -28.5911
   -28.5658 -28.5658 -28.4655 -28.4655 -28.4516 -28.4515 -28.4466 -28.4466
    -8.4315  -8.4314  -8.4188  -8.4187  -8.3921  -8.3920  -8.3780  -8.3779
    -8.3537  -8.3537  -8.3108  -8.3107  -8.2987  -8.2987  -8.2755  -8.2754
    -8.2449  -8.2449  -8.2344  -8.2344  -8.2227  -8.2226  -8.2137  -8.2137
    -8.2094  -8.2094  -8.1607  -8.1607  -8.0833  -8.0833  -4.9681  -4.9680
    -3.6631  -3.6631  -2.7213  -2.7213  -0.9213  -0.9213  -0.6613  -0.6613
     0.1201   0.1201   0.1737   0.1737   0.5510   0.5510   0.7423   0.7423
     0.8410   0.8410   0.9050   0.9050   1.4050   1.4059   1.5371   1.5374
     1.7005   1.7009   1.8932

          k =-0.0811 0.0429 0.0000 ( 41846 PWs)   bands (ev):

   -50.1026 -50.1011 -50.0729 -50.0714 -49.8823 -49.8807 -28.7561 -28.7538
   -28.7237 -28.7214 -28.6667 -28.6637 -28.6428 -28.6399 -28.6019 -28.5802
   -28.5767 -28.5549 -28.4661 -28.4649 -28.4627 -28.4481 -28.4454 -28.4403
    -8.4411  -8.4231  -8.4173  -8.4153  -8.4095  -8.3945  -8.3874  -8.3697
    -8.3541  -8.3265  -8.3224  -8.3192  -8.2933  -8.2859  -8.2798  -8.2707
    -8.2624  -8.2566  -8.2562  -8.2390  -8.2294  -8.2164  -8.2074  -8.1997
    -8.1990  -8.1910  -8.1819  -8.1175  -8.1103  -8.0596  -5.0644  -4.8051
    -3.7376  -3.5314  -3.0174  -2.4317  -1.1304  -1.0487  -0.7257  -0.3304
    -0.2652   0.0120   0.2878   0.3591   0.4291   0.5422   0.7132   0.7269
     0.8199   0.9018   0.9213   0.9875   1.3043   1.4956   1.5111   1.5683
     1.6850   1.7162   1.8872

          k =-0.0811 0.0573 0.0000 ( 41857 PWs)   bands (ev):

   -50.1034 -50.1004 -50.0736 -50.0707 -49.8831 -49.8799 -28.7572 -28.7527
   -28.7247 -28.7203 -28.6683 -28.6625 -28.6443 -28.6386 -28.6121 -28.5869
   -28.5701 -28.5447 -28.4732 -28.4667 -28.4643 -28.4494 -28.4443 -28.4299
    -8.4464  -8.4315  -8.4178  -8.4166  -8.4145  -8.4076  -8.3986  -8.3451
    -8.3385  -8.3346  -8.3321  -8.3123  -8.2950  -8.2921  -8.2809  -8.2767
    -8.2707  -8.2662  -8.2513  -8.2406  -8.2397  -8.2108  -8.2087  -8.1946
    -8.1859  -8.1779  -8.1456  -8.1392  -8.0704  -8.0404  -5.0933  -4.5778
    -3.7557  -3.3450  -3.3293  -2.1343  -1.4548  -1.2904  -0.7429  -0.5945
    -0.2018  -0.0871   0.1553   0.3254   0.3444   0.5871   0.6628   0.7506
     0.8329   0.8946   1.0093   1.1033   1.2616   1.4790   1.5385   1.5626
     1.7015   1.7362   1.8065

          k =-0.0811 0.0716 0.0000 ( 41853 PWs)   bands (ev):

   -50.1040 -50.0997 -50.0743 -50.0700 -49.8838 -49.8793 -28.7581 -28.7518
   -28.7256 -28.7194 -28.6698 -28.6615 -28.6456 -28.6375 -28.6209 -28.5957
   -28.5615 -28.5360 -28.4822 -28.4672 -28.4638 -28.4506 -28.4435 -28.4209
    -8.4491  -8.4421  -8.4417  -8.4196  -8.4193  -8.4156  -8.3785  -8.3539
    -8.3521  -8.3407  -8.3213  -8.3070  -8.2997  -8.2968  -8.2799  -8.2667
    -8.2633  -8.2625  -8.2527  -8.2486  -8.2230  -8.2184  -8.2027  -8.1845
    -8.1763  -8.1684  -8.1586  -8.1110  -8.0281  -8.0263  -5.0548  -4.2912
    -3.7214  -3.6543  -3.1110  -1.8436  -1.8208  -1.3768  -1.2375  -0.5880
    -0.4516  -0.1352   0.0263   0.1968   0.3488   0.4376   0.6788   0.6879
     0.8500   1.0069   1.0487   1.2151   1.2651   1.4822   1.5123   1.5936
     1.6642   1.6817   1.7992

          k =-0.0811 0.0859 0.0000 ( 41812 PWs)   bands (ev):

   -50.1044 -50.0993 -50.0747 -50.0695 -49.8843 -49.8788 -28.7589 -28.7512
   -28.7263 -28.7186 -28.6710 -28.6609 -28.6466 -28.6367 -28.6276 -28.6025
   -28.5548 -28.5293 -28.4891 -28.4676 -28.4634 -28.4516 -28.4428 -28.4140
    -8.4624  -8.4513  -8.4497  -8.4291  -8.4191  -8.4183  -8.3834  -8.3650
    -8.3573  -8.3445  -8.3110  -8.3020  -8.2939  -8.2865  -8.2781  -8.2712
    -8.2641  -8.2574  -8.2431  -8.2368  -8.2277  -8.2010  -8.1994  -8.1979
    -8.1753  -8.1708  -8.1435  -8.0812  -8.0206  -7.9930  -4.9502  -3.9797
    -3.9574  -3.6445  -2.8479  -2.1864  -1.7811  -1.4475  -1.3877  -0.7497
    -0.6254  -0.4116  -0.0239   0.0607   0.3004   0.3284   0.6196   0.6511
     0.8148   1.0407   1.1838   1.2620   1.2812   1.5023   1.5024   1.5298
     1.6651   1.6758   1.8294

          k =-0.0811 0.1003 0.0000 ( 41789 PWs)   bands (ev):

   -50.1047 -50.0990 -50.0750 -50.0692 -49.8846 -49.8784 -28.7593 -28.7507
   -28.7267 -28.7181 -28.6717 -28.6605 -28.6473 -28.6362 -28.6318 -28.6068
   -28.5507 -28.5251 -28.4935 -28.4678 -28.4631 -28.4522 -28.4424 -28.4097
    -8.4754  -8.4550  -8.4530  -8.4378  -8.4182  -8.4180  -8.4026  -8.3716
    -8.3471  -8.3404  -8.3197  -8.2872  -8.2810  -8.2777  -8.2773  -8.2758
    -8.2684  -8.2545  -8.2385  -8.2269  -8.2240  -8.2199  -8.2005  -8.1857
    -8.1717  -8.1684  -8.1338  -8.0585  -8.0206  -7.9712  -4.7829  -4.2864
    -3.6148  -3.5539  -2.6034  -2.4422  -2.2294  -1.3476  -1.0947  -1.0322
    -0.6645  -0.6294  -0.3341   0.0638   0.2045   0.3073   0.5801   0.6167
     0.7961   1.0139   1.2477   1.2784   1.3282   1.4530   1.5100   1.5309
     1.7420   1.8048   1.8380

          k =-0.0811-0.0574 0.0000 ( 41842 PWs)   bands (ev):

   -50.1048 -50.0989 -50.0751 -50.0691 -49.8847 -49.8783 -28.7595 -28.7506
   -28.7268 -28.7180 -28.6720 -28.6604 -28.6475 -28.6361 -28.6333 -28.6082
   -28.5493 -28.5237 -28.4950 -28.4679 -28.4630 -28.4524 -28.4423 -28.4082
    -8.4799  -8.4568  -8.4538  -8.4412  -8.4178  -8.4174  -8.4092  -8.3738
    -8.3482  -8.3328  -8.3225  -8.2825  -8.2820  -8.2789  -8.2754  -8.2674
    -8.2644  -8.2526  -8.2468  -8.2381  -8.2163  -8.2136  -8.2046  -8.1804
    -8.1711  -8.1677  -8.1305  -8.0484  -8.0229  -7.9638  -4.5646  -4.5524
    -3.5084  -3.4243  -2.5436  -2.4899  -2.4598  -1.3168  -1.1620  -0.7886
    -0.7203  -0.6543  -0.6533   0.0643   0.1689   0.2989   0.5662   0.6037
     0.7902   1.0010   1.2458   1.2708   1.3442   1.4988   1.5145   1.5382
     1.7234   1.7917   1.8164

     the Fermi energy is     0.4456 ev

!    total energy              =   -1198.50690091 Ry
     estimated scf accuracy    <       0.00000278 Ry
     smearing contrib. (-TS)   =      -0.07310880 Ry
     internal energy E=F+TS    =   -1198.43379211 Ry

     The total energy is F=E-TS. E is the sum of the following terms:
     one-electron contribution =   -7790.53757376 Ry
     hartree contribution      =    3926.92663752 Ry
     xc contribution           =    -251.24302581 Ry
     ewald contribution        =    2916.42016924 Ry
     electric field correction =       0.00000069 Ry

     convergence has been achieved in  19 iterations

     negative rho (up, down):  2.787E-03 0.000E+00

     Forces acting on atoms (cartesian axes, Ry/au):

     atom    1 type  1   force =     0.00003479    0.00002727    0.00408209
     atom    2 type  1   force =     0.00004478    0.00002432    0.00408712
     atom    3 type  2   force =     0.00002859    0.00002313   -0.00104127
     atom    4 type  2   force =     0.00004161    0.00002217   -0.00103743
     atom    5 type  1   force =     0.00000093    0.00000278    0.00107031
     atom    6 type  1   force =     0.00000668   -0.00000139    0.00108360
     atom    7 type  2   force =    -0.00000792    0.00000749   -0.00331842
     atom    8 type  2   force =    -0.00000786   -0.00000179   -0.00331773
     atom    9 type  1   force =     0.00000362   -0.00000771    0.00008536
     atom   10 type  1   force =    -0.00000272   -0.00000323    0.00007655
     atom   11 type  2   force =    -0.00007779   -0.00004455   -0.00088984
     atom   12 type  2   force =    -0.00006470   -0.00004849   -0.00088033

     Total force =     0.007840     Total SCF correction =     0.003099
     SCF correction compared to forces is large: reduce conv_thr to get better values

     Writing output data file ./Sc2Cd2/Sc2Cd2_beef.save/

     init_run     :    115.16s CPU    115.80s WALL (       1 calls)
     electrons    :   5525.29s CPU   5547.42s WALL (       1 calls)
     forces       :     68.76s CPU     69.06s WALL (       1 calls)

     Called by init_run:
     wfcinit      :    102.01s CPU    102.37s WALL (       1 calls)
     potinit      :      8.42s CPU      8.52s WALL (       1 calls)
     hinit0       :      2.52s CPU      2.53s WALL (       1 calls)

     Called by electrons:
     c_bands      :   5018.68s CPU   5031.17s WALL (      19 calls)
     sum_band     :    454.07s CPU    458.87s WALL (      19 calls)
     v_of_rho     :     33.76s CPU     35.43s WALL (      20 calls)
     newd         :     25.49s CPU     28.69s WALL (      20 calls)
     mix_rho      :      1.06s CPU      1.09s WALL (      19 calls)
     vdW_kernel   :      5.69s CPU      5.70s WALL (       1 calls)

     Called by c_bands:
     init_us_2    :     17.81s CPU     17.88s WALL (    2960 calls)
     cegterg      :   4978.47s CPU   4988.92s WALL (    1409 calls)

     Called by *egterg:
     cdiaghg      :    270.17s CPU    270.32s WALL (   15033 calls)
     h_psi        :   2324.79s CPU   2333.88s WALL (   15107 calls)
     s_psi        :    814.55s CPU    814.85s WALL (   15107 calls)
     g_psi        :      2.14s CPU      2.16s WALL (   13624 calls)

     Called by h_psi:
     h_psi:calbec :    825.00s CPU    825.99s WALL (   15107 calls)
     vloc_psi     :    662.00s CPU    669.80s WALL (   15107 calls)
     add_vuspsi   :    828.66s CPU    828.92s WALL (   15107 calls)

     General routines
     calbec       :   1164.90s CPU   1166.31s WALL (   16809 calls)
     fft          :     21.55s CPU     22.24s WALL (    1319 calls)
     ffts         :      0.08s CPU      0.09s WALL (      39 calls)
     fftw         :    734.33s CPU    743.00s WALL (  793256 calls)
     interpolate  :      0.38s CPU      0.39s WALL (      20 calls)

     Parallel routines
     fft_scatt_xy :     58.03s CPU     58.46s WALL (  794614 calls)
     fft_scatt_yz :    115.68s CPU    117.56s WALL (  794614 calls)

     PWSCF        :      1h35m CPU      1h35m WALL


   This run was terminated on:  16: 7: 3  10Jul2022            

=------------------------------------------------------------------------------=
   JOB DONE.
=------------------------------------------------------------------------------=
