
     Program PWSCF v.6.6 starts on 11Jul2022 at  3:49:18 

     This program is part of the open-source Quantum ESPRESSO suite
     for quantum simulation of materials; please cite
         "P. Giannozzi et al., J. Phys.:Condens. Matter 21 395502 (2009);
         "P. Giannozzi et al., J. Phys.:Condens. Matter 29 465901 (2017);
          URL http://www.quantum-espresso.org", 
     in publications or presentations arising from this work. More details at
     http://www.quantum-espresso.org/quote

     Parallel version (MPI), running on    37 processors

     MPI processes distributed on     1 nodes
     R & G space division:  proc/nbgrp/npool/nimage =      37
     Fft bands division:     nmany     =       1
     Reading input from Sc2Cu2.in
Warning: card &CELL ignored
Warning: card / ignored

     Current dimensions of program PWSCF are:
     Max number of different atomic species (ntypx) = 10
     Max number of k-points (npk) =  40000
     Max angular momentum in pseudopotentials (lmaxx) =  3
     Presently stress not available with electric field and gates

     Message from routine cell_base_init:
     DEPRECATED: use true lattice parameter, not A to a.u. conversion factor
     file Sc.pbe-spn-rrkjus_psl.1.0.0.UPF: wavefunction(s)  3S 3P renormalized
     file Cu.pbe-dn-rrkjus_psl.1.0.0.UPF: wavefunction(s)  3D renormalized

     **************************************************************************
     Initializing libbeef V0.1.2 with the BEEF-vdW functional.
     Citation: Wellendorff et al., PRB 85, 235149 (2012).
     **************************************************************************


     IMPORTANT: XC functional enforced from input :
     Exchange-correlation= BEEF-VDW
                           (   1   4  43  14   2   0   0)
     Any further DFT definition will be discarded
     Please, verify this is what you really want


     Subspace diagonalization in iterative solution of the eigenvalue problem:
     a serial algorithm will be used

     Found symmetry operation: I + (  0.5000 -0.5000  0.0000)
     This is a supercell, fractional translations are disabled

     Parallelization info
     --------------------
     sticks:   dense  smooth     PW     G-vecs:    dense   smooth      PW
     Min         127      51     14                29565     7477    1118
     Max         128      52     15                29574     7492    1139
     Sum        4705    1893    535              1093991   276827   41631



     bravais-lattice index     =            0
     lattice parameter (alat)  =       1.8897  a.u.
     unit-cell volume          =    5006.5884 (a.u.)^3
     number of atoms/cell      =           12
     number of atomic types    =            2
     number of electrons       =       132.00
     number of Kohn-Sham states=           79
     kinetic-energy cutoff     =      55.1240  Ry
     charge density cutoff     =     551.2396  Ry
     convergence threshold     =      1.0E-05
     mixing beta               =       0.1000
     number of iterations used =           10  plain     mixing
     Exchange-correlation= BEEF-VDW
                           (   1   4  43  14   2   0   0)

     celldm(1)=   1.889726  celldm(2)=   0.000000  celldm(3)=   0.000000
     celldm(4)=   0.000000  celldm(5)=   0.000000  celldm(6)=   0.000000

     crystal axes: (cart. coord. in units of alat)
               a(1) = (   5.657904   0.000000   0.000000 )  
               a(2) = (   1.914135   5.324280   0.000000 )  
               a(3) = (   0.000000   0.000000  24.627987 )  

     reciprocal axes: (cart. coord. in units 2 pi/alat)
               b(1) = (  0.176744 -0.063541  0.000000 )  
               b(2) = (  0.000000  0.187819  0.000000 )  
               b(3) = (  0.000000  0.000000  0.040604 )  


     PseudoPot. # 1 for Sc read from file:
     ../pseudo/Sc.pbe-spn-rrkjus_psl.1.0.0.UPF
     MD5 check sum: f739f74c200e509e5c24cbe053202ee5
     Pseudo is Ultrasoft + core correction, Zval = 11.0
     Generated using "atomic" code by A. Dal Corso v.6.2.2
     Using radial grid of 1173 points,  6 beta functions with: 
                l(1) =   0
                l(2) =   0
                l(3) =   1
                l(4) =   1
                l(5) =   2
                l(6) =   2
     Q(r) pseudized with 0 coefficients 


     PseudoPot. # 2 for Cu read from file:
     ../pseudo/Cu.pbe-dn-rrkjus_psl.1.0.0.UPF
     MD5 check sum: 8469560995d0c2df1ffe68c099c04a63
     Pseudo is Ultrasoft + core correction, Zval = 11.0
     Generated using "atomic" code by A. Dal Corso v.6.3
     Using radial grid of 1199 points,  6 beta functions with: 
                l(1) =   0
                l(2) =   0
                l(3) =   1
                l(4) =   1
                l(5) =   2
                l(6) =   2
     Q(r) pseudized with 0 coefficients 


     atomic species   valence    mass     pseudopotential
        Sc            11.00    44.95591     Sc( 1.00)
        Cu            11.00    63.54600     Cu( 1.00)

     No symmetry found



   Cartesian axes

     site n.     atom                  positions (alat units)
         1           Sc  tau(   1) = (   0.0000000   0.0000000  10.0000000  )
         2           Sc  tau(   2) = (   3.7860195   2.6621401  10.0000000  )
         3           Cu  tau(   3) = (   2.8289519   0.0000000  10.0000000  )
         4           Cu  tau(   4) = (   0.9570677   2.6621401  10.0000000  )
         5           Sc  tau(   5) = (   5.6579037   3.9783558  12.3139936  )
         6           Sc  tau(   6) = (   1.8718842   1.3162156  12.3139936  )
         7           Cu  tau(   7) = (   2.8289519   3.9783558  12.3139936  )
         8           Cu  tau(   8) = (   4.7008361   1.3162156  12.3139936  )
         9           Sc  tau(   9) = (   3.7508771   2.6374261  14.6277014  )
        10           Sc  tau(  10) = (   7.5369120   5.2995811  14.6277043  )
        11           Cu  tau(  11) = (   6.5777044   2.6359576  14.4553799  )
        12           Cu  tau(  12) = (   4.7058485   5.2980818  14.4553777  )

     number of k points=    74  Fermi-Dirac smearing, width (Ry)=  0.0100
                       cart. coord. in units 2pi/alat
        k(    1) = (   0.0000000   0.0000000   0.0000000), wk =   0.0138889
        k(    2) = (   0.0000000   0.0156516   0.0000000), wk =   0.0277778
        k(    3) = (   0.0000000   0.0313031   0.0000000), wk =   0.0277778
        k(    4) = (   0.0000000   0.0469547   0.0000000), wk =   0.0277778
        k(    5) = (   0.0000000   0.0626063   0.0000000), wk =   0.0277778
        k(    6) = (   0.0000000   0.0782578   0.0000000), wk =   0.0277778
        k(    7) = (   0.0000000  -0.0939094   0.0000000), wk =   0.0138889
        k(    8) = (   0.0147287  -0.0052951   0.0000000), wk =   0.0277778
        k(    9) = (   0.0147287   0.0103565   0.0000000), wk =   0.0277778
        k(   10) = (   0.0147287   0.0260080   0.0000000), wk =   0.0277778
        k(   11) = (   0.0147287   0.0416596   0.0000000), wk =   0.0277778
        k(   12) = (   0.0147287   0.0573112   0.0000000), wk =   0.0277778
        k(   13) = (   0.0147287   0.0729627   0.0000000), wk =   0.0277778
        k(   14) = (   0.0147287  -0.0992045   0.0000000), wk =   0.0277778
        k(   15) = (   0.0147287  -0.0835530   0.0000000), wk =   0.0277778
        k(   16) = (   0.0147287  -0.0679014   0.0000000), wk =   0.0277778
        k(   17) = (   0.0147287  -0.0522498   0.0000000), wk =   0.0277778
        k(   18) = (   0.0147287  -0.0365982   0.0000000), wk =   0.0277778
        k(   19) = (   0.0147287  -0.0209467   0.0000000), wk =   0.0277778
        k(   20) = (   0.0294573  -0.0105902   0.0000000), wk =   0.0277778
        k(   21) = (   0.0294573   0.0050614   0.0000000), wk =   0.0277778
        k(   22) = (   0.0294573   0.0207129   0.0000000), wk =   0.0277778
        k(   23) = (   0.0294573   0.0363645   0.0000000), wk =   0.0277778
        k(   24) = (   0.0294573   0.0520161   0.0000000), wk =   0.0277778
        k(   25) = (   0.0294573   0.0676676   0.0000000), wk =   0.0277778
        k(   26) = (   0.0294573  -0.1044996   0.0000000), wk =   0.0277778
        k(   27) = (   0.0294573  -0.0888481   0.0000000), wk =   0.0277778
        k(   28) = (   0.0294573  -0.0731965   0.0000000), wk =   0.0277778
        k(   29) = (   0.0294573  -0.0575449   0.0000000), wk =   0.0277778
        k(   30) = (   0.0294573  -0.0418934   0.0000000), wk =   0.0277778
        k(   31) = (   0.0294573  -0.0262418   0.0000000), wk =   0.0277778
        k(   32) = (   0.0441860  -0.0158853   0.0000000), wk =   0.0277778
        k(   33) = (   0.0441860  -0.0002338   0.0000000), wk =   0.0277778
        k(   34) = (   0.0441860   0.0154178   0.0000000), wk =   0.0277778
        k(   35) = (   0.0441860   0.0310694   0.0000000), wk =   0.0277778
        k(   36) = (   0.0441860   0.0467209   0.0000000), wk =   0.0277778
        k(   37) = (   0.0441860   0.0623725   0.0000000), wk =   0.0277778
        k(   38) = (   0.0441860  -0.1097947   0.0000000), wk =   0.0277778
        k(   39) = (   0.0441860  -0.0941432   0.0000000), wk =   0.0277778
        k(   40) = (   0.0441860  -0.0784916   0.0000000), wk =   0.0277778
        k(   41) = (   0.0441860  -0.0628400   0.0000000), wk =   0.0277778
        k(   42) = (   0.0441860  -0.0471885   0.0000000), wk =   0.0277778
        k(   43) = (   0.0441860  -0.0315369   0.0000000), wk =   0.0277778
        k(   44) = (   0.0589146  -0.0211804   0.0000000), wk =   0.0277778
        k(   45) = (   0.0589146  -0.0055289   0.0000000), wk =   0.0277778
        k(   46) = (   0.0589146   0.0101227   0.0000000), wk =   0.0277778
        k(   47) = (   0.0589146   0.0257743   0.0000000), wk =   0.0277778
        k(   48) = (   0.0589146   0.0414258   0.0000000), wk =   0.0277778
        k(   49) = (   0.0589146   0.0570774   0.0000000), wk =   0.0277778
        k(   50) = (   0.0589146  -0.1150898   0.0000000), wk =   0.0277778
        k(   51) = (   0.0589146  -0.0994383   0.0000000), wk =   0.0277778
        k(   52) = (   0.0589146  -0.0837867   0.0000000), wk =   0.0277778
        k(   53) = (   0.0589146  -0.0681351   0.0000000), wk =   0.0277778
        k(   54) = (   0.0589146  -0.0524836   0.0000000), wk =   0.0277778
        k(   55) = (   0.0589146  -0.0368320   0.0000000), wk =   0.0277778
        k(   56) = (   0.0736433  -0.0264755   0.0000000), wk =   0.0277778
        k(   57) = (   0.0736433  -0.0108240   0.0000000), wk =   0.0277778
        k(   58) = (   0.0736433   0.0048276   0.0000000), wk =   0.0277778
        k(   59) = (   0.0736433   0.0204792   0.0000000), wk =   0.0277778
        k(   60) = (   0.0736433   0.0361307   0.0000000), wk =   0.0277778
        k(   61) = (   0.0736433   0.0517823   0.0000000), wk =   0.0277778
        k(   62) = (   0.0736433  -0.1203850   0.0000000), wk =   0.0277778
        k(   63) = (   0.0736433  -0.1047334   0.0000000), wk =   0.0277778
        k(   64) = (   0.0736433  -0.0890818   0.0000000), wk =   0.0277778
        k(   65) = (   0.0736433  -0.0734302   0.0000000), wk =   0.0277778
        k(   66) = (   0.0736433  -0.0577787   0.0000000), wk =   0.0277778
        k(   67) = (   0.0736433  -0.0421271   0.0000000), wk =   0.0277778
        k(   68) = (  -0.0883719   0.0317707   0.0000000), wk =   0.0138889
        k(   69) = (  -0.0883719   0.0474222   0.0000000), wk =   0.0277778
        k(   70) = (  -0.0883719   0.0630738   0.0000000), wk =   0.0277778
        k(   71) = (  -0.0883719   0.0787254   0.0000000), wk =   0.0277778
        k(   72) = (  -0.0883719   0.0943769   0.0000000), wk =   0.0277778
        k(   73) = (  -0.0883719   0.1100285   0.0000000), wk =   0.0277778
        k(   74) = (  -0.0883719  -0.0621388   0.0000000), wk =   0.0138889

     Dense  grid:  1093991 G-vectors     FFT dimensions: (  80,  80, 360)

     Smooth grid:   276827 G-vectors     FFT dimensions: (  54,  54, 225)

     Estimated max dynamical RAM per process >     201.98 MB

     Estimated total dynamical RAM >       7.30 GB

     Check: negative core charge=   -0.000001

     Initial potential from superposition of free atoms

     starting charge  131.98325, renormalised to  132.00000

     negative rho (up, down):  4.101E-04 0.000E+00


     %%%%%%%%%%%%%%%%%%%%%%%%%%%%%%%%%%%%%%%%%%%%%%%%%%%%%%%%%%%%%%%%%%%%%%%%
     %                                                                      %
     % You are using vdW-DF, which was implemented by the Thonhauser group. %
     % Please cite the following two papers that made this development      %
     % possible and the two reviews that describe the various versions:     %
     %                                                                      %
     %   T. Thonhauser et al., PRL 115, 136402 (2015).                      %
     %   T. Thonhauser et al., PRB 76, 125112 (2007).                       %
     %   K. Berland et al., Rep. Prog. Phys. 78, 066501 (2015).             %
     %   D.C. Langreth et al., J. Phys.: Condens. Matter 21, 084203 (2009). %
     %                                                                      %
     %                                                                      %
     % If you are calculating the stress with vdW-DF, please also cite:     %
     %                                                                      %
     %   R. Sabatini et al., J. Phys.: Condens. Matter 24, 424209 (2012).   %
     %                                                                      %
     %%%%%%%%%%%%%%%%%%%%%%%%%%%%%%%%%%%%%%%%%%%%%%%%%%%%%%%%%%%%%%%%%%%%%%%%



     Adding external electric field

     Computed dipole along edir(3) : 
        Dipole                0.0008 Ry au,          0.0019 Debye
        Dipole field          0.0000 Ry au, 

        Potential amp.       -0.0002 Ry
        Total length         45.3766 bohr

     Starting wfcs are  114 randomized atomic wfcs

     total cpu time spent up to now is       94.3 secs

     Self-consistent Calculation

     iteration #  1     ecut=    55.12 Ry     beta= 0.10
     Davidson diagonalization with overlap
     ethr =  1.00E-02,  avg # of iterations =  1.9

     negative rho (up, down):  1.514E-04 0.000E+00

     Adding external electric field

     Computed dipole along edir(3) : 
        Dipole               -0.0081 Ry au,         -0.0205 Debye
        Dipole field         -0.0000 Ry au, 

        Potential amp.        0.0018 Ry
        Total length         45.3766 bohr


     total cpu time spent up to now is      248.7 secs

     total energy              =   -1334.94714310 Ry
     estimated scf accuracy    <       2.31990406 Ry

     iteration #  2     ecut=    55.12 Ry     beta= 0.10
     Davidson diagonalization with overlap
     ethr =  1.76E-03,  avg # of iterations =  4.6

     negative rho (up, down):  1.207E-04 0.000E+00

     Adding external electric field

     Computed dipole along edir(3) : 
        Dipole                0.0905 Ry au,          0.2300 Debye
        Dipole field          0.0002 Ry au, 

        Potential amp.       -0.0206 Ry
        Total length         45.3766 bohr


     total cpu time spent up to now is      424.1 secs

     total energy              =   -1335.31338070 Ry
     estimated scf accuracy    <       0.43470941 Ry

     iteration #  3     ecut=    55.12 Ry     beta= 0.10
     Davidson diagonalization with overlap
     ethr =  3.29E-04,  avg # of iterations =  8.1

     negative rho (up, down):  1.269E-04 0.000E+00

     Adding external electric field

     Computed dipole along edir(3) : 
        Dipole               -0.0725 Ry au,         -0.1842 Debye
        Dipole field         -0.0002 Ry au, 

        Potential amp.        0.0165 Ry
        Total length         45.3766 bohr


     total cpu time spent up to now is      668.4 secs

     total energy              =   -1335.39271742 Ry
     estimated scf accuracy    <       0.46578378 Ry

     iteration #  4     ecut=    55.12 Ry     beta= 0.10
     Davidson diagonalization with overlap
     ethr =  3.29E-04,  avg # of iterations =  2.0

     negative rho (up, down):  1.526E-04 0.000E+00

     Adding external electric field

     Computed dipole along edir(3) : 
        Dipole                0.0473 Ry au,          0.1202 Debye
        Dipole field          0.0001 Ry au, 

        Potential amp.       -0.0108 Ry
        Total length         45.3766 bohr


     total cpu time spent up to now is      819.1 secs

     total energy              =   -1335.35353543 Ry
     estimated scf accuracy    <       0.49578290 Ry

     iteration #  5     ecut=    55.12 Ry     beta= 0.10
     Davidson diagonalization with overlap
     ethr =  3.29E-04,  avg # of iterations =  1.7

     negative rho (up, down):  2.021E-04 0.000E+00

     Adding external electric field

     Computed dipole along edir(3) : 
        Dipole                0.0712 Ry au,          0.1809 Debye
        Dipole field          0.0002 Ry au, 

        Potential amp.       -0.0162 Ry
        Total length         45.3766 bohr


     total cpu time spent up to now is      964.4 secs

     total energy              =   -1335.33454963 Ry
     estimated scf accuracy    <       0.11559395 Ry

     iteration #  6     ecut=    55.12 Ry     beta= 0.10
     Davidson diagonalization with overlap
     c_bands:  3 eigenvalues not converged
     c_bands:  3 eigenvalues not converged
     c_bands:  3 eigenvalues not converged
     c_bands:  1 eigenvalues not converged
     ethr =  8.76E-05,  avg # of iterations = 12.7

     negative rho (up, down):  1.841E-04 0.000E+00

     Adding external electric field

     Computed dipole along edir(3) : 
        Dipole                0.0544 Ry au,          0.1382 Debye
        Dipole field          0.0001 Ry au, 

        Potential amp.       -0.0124 Ry
        Total length         45.3766 bohr


     total cpu time spent up to now is     1213.2 secs

     total energy              =   -1335.35921987 Ry
     estimated scf accuracy    <       0.05700507 Ry

     iteration #  7     ecut=    55.12 Ry     beta= 0.10
     Davidson diagonalization with overlap
     ethr =  4.32E-05,  avg # of iterations =  4.0

     negative rho (up, down):  2.417E-04 0.000E+00

     Adding external electric field

     Computed dipole along edir(3) : 
        Dipole                0.0646 Ry au,          0.1642 Debye
        Dipole field          0.0002 Ry au, 

        Potential amp.       -0.0147 Ry
        Total length         45.3766 bohr


     total cpu time spent up to now is     1378.2 secs

     total energy              =   -1335.35763805 Ry
     estimated scf accuracy    <       0.02753275 Ry

     iteration #  8     ecut=    55.12 Ry     beta= 0.10
     Davidson diagonalization with overlap
     c_bands:  5 eigenvalues not converged
     c_bands:  1 eigenvalues not converged
     c_bands:  2 eigenvalues not converged
     c_bands:  1 eigenvalues not converged
     c_bands:  1 eigenvalues not converged
     ethr =  2.09E-05,  avg # of iterations = 10.8

     negative rho (up, down):  2.543E-04 0.000E+00

     Adding external electric field

     Computed dipole along edir(3) : 
        Dipole                0.0514 Ry au,          0.1308 Debye
        Dipole field          0.0001 Ry au, 

        Potential amp.       -0.0117 Ry
        Total length         45.3766 bohr


     total cpu time spent up to now is     1603.0 secs

     total energy              =   -1335.36298757 Ry
     estimated scf accuracy    <       0.00756751 Ry

     iteration #  9     ecut=    55.12 Ry     beta= 0.10
     Davidson diagonalization with overlap
     c_bands:  1 eigenvalues not converged
     c_bands:  3 eigenvalues not converged
     c_bands:  1 eigenvalues not converged
     c_bands:  1 eigenvalues not converged
     c_bands:  2 eigenvalues not converged
     c_bands:  2 eigenvalues not converged
     c_bands:  1 eigenvalues not converged
     c_bands:  1 eigenvalues not converged
     c_bands:  1 eigenvalues not converged
     c_bands:  2 eigenvalues not converged
     c_bands:  2 eigenvalues not converged
     c_bands:  2 eigenvalues not converged
     c_bands:  3 eigenvalues not converged
     c_bands:  4 eigenvalues not converged
     c_bands:  3 eigenvalues not converged
     c_bands:  3 eigenvalues not converged
     c_bands:  2 eigenvalues not converged
     c_bands:  2 eigenvalues not converged
     c_bands:  1 eigenvalues not converged
     c_bands:  1 eigenvalues not converged
     c_bands:  2 eigenvalues not converged
     c_bands:  1 eigenvalues not converged
     ethr =  5.73E-06,  avg # of iterations = 16.0

     negative rho (up, down):  2.634E-04 0.000E+00

     Adding external electric field

     Computed dipole along edir(3) : 
        Dipole                0.0468 Ry au,          0.1190 Debye
        Dipole field          0.0001 Ry au, 

        Potential amp.       -0.0107 Ry
        Total length         45.3766 bohr


     total cpu time spent up to now is     1910.2 secs

     total energy              =   -1335.36199837 Ry
     estimated scf accuracy    <       0.01333107 Ry

     iteration # 10     ecut=    55.12 Ry     beta= 0.10
     Davidson diagonalization with overlap
     c_bands:  1 eigenvalues not converged
     c_bands:  1 eigenvalues not converged
     c_bands:  1 eigenvalues not converged
     c_bands:  2 eigenvalues not converged
     c_bands:  2 eigenvalues not converged
     c_bands:  2 eigenvalues not converged
     c_bands:  3 eigenvalues not converged
     c_bands:  3 eigenvalues not converged
     c_bands:  1 eigenvalues not converged
     ethr =  5.73E-06,  avg # of iterations = 11.2

     negative rho (up, down):  2.941E-04 0.000E+00

     Adding external electric field

     Computed dipole along edir(3) : 
        Dipole                0.0488 Ry au,          0.1240 Debye
        Dipole field          0.0001 Ry au, 

        Potential amp.       -0.0111 Ry
        Total length         45.3766 bohr


     total cpu time spent up to now is     2153.3 secs

     total energy              =   -1335.36525117 Ry
     estimated scf accuracy    <       0.00413044 Ry

     iteration # 11     ecut=    55.12 Ry     beta= 0.10
     Davidson diagonalization with overlap
     c_bands:  1 eigenvalues not converged
     c_bands:  3 eigenvalues not converged
     c_bands:  2 eigenvalues not converged
     c_bands:  2 eigenvalues not converged
     c_bands:  2 eigenvalues not converged
     c_bands:  1 eigenvalues not converged
     c_bands:  1 eigenvalues not converged
     c_bands:  1 eigenvalues not converged
     c_bands:  1 eigenvalues not converged
     ethr =  3.13E-06,  avg # of iterations = 10.6

     negative rho (up, down):  2.979E-04 0.000E+00

     Adding external electric field

     Computed dipole along edir(3) : 
        Dipole                0.0558 Ry au,          0.1417 Debye
        Dipole field          0.0001 Ry au, 

        Potential amp.       -0.0127 Ry
        Total length         45.3766 bohr


     total cpu time spent up to now is     2392.1 secs

     total energy              =   -1335.36479574 Ry
     estimated scf accuracy    <       0.00778632 Ry

     iteration # 12     ecut=    55.12 Ry     beta= 0.10
     Davidson diagonalization with overlap
     c_bands:  1 eigenvalues not converged
     c_bands:  1 eigenvalues not converged
     c_bands:  2 eigenvalues not converged
     ethr =  3.13E-06,  avg # of iterations =  3.0

     negative rho (up, down):  2.957E-04 0.000E+00

     Adding external electric field

     Computed dipole along edir(3) : 
        Dipole                0.0491 Ry au,          0.1248 Debye
        Dipole field          0.0001 Ry au, 

        Potential amp.       -0.0112 Ry
        Total length         45.3766 bohr


     total cpu time spent up to now is     2554.1 secs

     total energy              =   -1335.36486238 Ry
     estimated scf accuracy    <       0.00289235 Ry

     iteration # 13     ecut=    55.12 Ry     beta= 0.10
     Davidson diagonalization with overlap
     c_bands:  1 eigenvalues not converged
     ethr =  2.19E-06,  avg # of iterations =  7.3

     negative rho (up, down):  2.969E-04 0.000E+00

     Adding external electric field

     Computed dipole along edir(3) : 
        Dipole                0.0501 Ry au,          0.1274 Debye
        Dipole field          0.0001 Ry au, 

        Potential amp.       -0.0114 Ry
        Total length         45.3766 bohr


     total cpu time spent up to now is     2731.5 secs

     total energy              =   -1335.36502704 Ry
     estimated scf accuracy    <       0.00049893 Ry

     iteration # 14     ecut=    55.12 Ry     beta= 0.10
     Davidson diagonalization with overlap
     c_bands:  1 eigenvalues not converged
     c_bands:  1 eigenvalues not converged
     c_bands:  1 eigenvalues not converged
     ethr =  3.78E-07,  avg # of iterations = 10.0

     negative rho (up, down):  2.964E-04 0.000E+00

     Adding external electric field

     Computed dipole along edir(3) : 
        Dipole                0.0519 Ry au,          0.1319 Debye
        Dipole field          0.0001 Ry au, 

        Potential amp.       -0.0118 Ry
        Total length         45.3766 bohr


     total cpu time spent up to now is     2983.4 secs

     total energy              =   -1335.36516143 Ry
     estimated scf accuracy    <       0.00023178 Ry

     iteration # 15     ecut=    55.12 Ry     beta= 0.10
     Davidson diagonalization with overlap
     c_bands:  1 eigenvalues not converged
     c_bands:  2 eigenvalues not converged
     c_bands:  2 eigenvalues not converged
     c_bands:  1 eigenvalues not converged
     ethr =  1.76E-07,  avg # of iterations = 10.7

     negative rho (up, down):  2.934E-04 0.000E+00

     Adding external electric field

     Computed dipole along edir(3) : 
        Dipole                0.0512 Ry au,          0.1302 Debye
        Dipole field          0.0001 Ry au, 

        Potential amp.       -0.0117 Ry
        Total length         45.3766 bohr


     total cpu time spent up to now is     3197.0 secs

     total energy              =   -1335.36519553 Ry
     estimated scf accuracy    <       0.00009121 Ry

     iteration # 16     ecut=    55.12 Ry     beta= 0.10
     Davidson diagonalization with overlap
     c_bands:  1 eigenvalues not converged
     c_bands:  1 eigenvalues not converged
     c_bands:  1 eigenvalues not converged
     c_bands:  1 eigenvalues not converged
     ethr =  6.91E-08,  avg # of iterations = 10.7

     negative rho (up, down):  2.916E-04 0.000E+00

     Adding external electric field

     Computed dipole along edir(3) : 
        Dipole                0.0508 Ry au,          0.1290 Debye
        Dipole field          0.0001 Ry au, 

        Potential amp.       -0.0116 Ry
        Total length         45.3766 bohr


     total cpu time spent up to now is     3435.2 secs

     total energy              =   -1335.36522383 Ry
     estimated scf accuracy    <       0.00002182 Ry

     iteration # 17     ecut=    55.12 Ry     beta= 0.10
     Davidson diagonalization with overlap
     c_bands:  1 eigenvalues not converged
     c_bands:  2 eigenvalues not converged
     c_bands:  1 eigenvalues not converged
     ethr =  1.65E-08,  avg # of iterations =  9.4

     negative rho (up, down):  2.901E-04 0.000E+00

     Adding external electric field

     Computed dipole along edir(3) : 
        Dipole                0.0507 Ry au,          0.1289 Debye
        Dipole field          0.0001 Ry au, 

        Potential amp.       -0.0115 Ry
        Total length         45.3766 bohr


     total cpu time spent up to now is     3671.7 secs

     total energy              =   -1335.36522948 Ry
     estimated scf accuracy    <       0.00001095 Ry

     iteration # 18     ecut=    55.12 Ry     beta= 0.10
     Davidson diagonalization with overlap
     c_bands:  1 eigenvalues not converged
     ethr =  8.30E-09,  avg # of iterations =  7.4

     negative rho (up, down):  2.834E-04 0.000E+00

     Adding external electric field

     Computed dipole along edir(3) : 
        Dipole                0.0514 Ry au,          0.1307 Debye
        Dipole field          0.0001 Ry au, 

        Potential amp.       -0.0117 Ry
        Total length         45.3766 bohr


     total cpu time spent up to now is     3863.7 secs

     End of self-consistent calculation

          k = 0.0000 0.0000 0.0000 ( 34651 PWs)   bands (ev):

   -49.9189 -49.8989 -49.8876 -49.8677 -49.5252 -49.5052 -28.5831 -28.5629
   -28.5464 -28.5245 -28.5222 -28.4862 -28.4758 -28.4615 -28.4527 -28.4353
   -28.3165 -28.2806 -28.2286 -28.1239 -28.0912 -28.0778 -28.0567 -28.0134
    -6.0078  -4.5503  -3.6489  -3.5265  -3.4162  -3.3382  -3.3256  -3.3173
    -3.2789  -3.2476  -3.0892  -3.0718  -2.9892  -2.8563  -2.8442  -2.8376
    -2.8310  -2.8124  -2.7905  -2.7444  -2.7351  -2.7126  -2.6847  -2.6043
    -2.5726  -2.5639  -2.5334  -2.5193  -2.3919  -2.3463  -2.3132  -2.2511
    -1.8116  -1.5142  -1.4986  -1.2677  -0.3399  -0.1205   0.0936   0.4519
     0.5527   0.5813   0.6181   0.8090   0.8229   0.9350   1.1873   1.2918
     1.3282   1.3882   1.4996   1.6247   1.7088   1.9162   2.0165

          k = 0.0000 0.0157 0.0000 ( 34651 PWs)   bands (ev):

   -49.9185 -49.8993 -49.8873 -49.8680 -49.5248 -49.5055 -28.5827 -28.5632
   -28.5461 -28.5250 -28.5188 -28.4828 -28.4754 -28.4616 -28.4526 -28.4358
   -28.3201 -28.2842 -28.2250 -28.1233 -28.0917 -28.0775 -28.0571 -28.0172
    -5.9670  -4.5127  -3.6223  -3.5352  -3.4077  -3.3270  -3.3236  -3.3075
    -3.2682  -3.2404  -3.0809  -3.0603  -2.9798  -2.8565  -2.8450  -2.8339
    -2.8234  -2.8079  -2.7896  -2.7493  -2.7292  -2.7109  -2.6844  -2.6089
    -2.5798  -2.5647  -2.5413  -2.5124  -2.3967  -2.3481  -2.3196  -2.2616
    -1.8033  -1.6410  -1.5561  -1.3114  -0.3020   0.0011   0.0249   0.3975
     0.5256   0.5650   0.6495   0.8113   0.8428   0.9002   1.1428   1.1978
     1.3389   1.3942   1.5114   1.5807   1.6482   1.9904   2.1547

          k = 0.0000 0.0313 0.0000 ( 34669 PWs)   bands (ev):

   -49.9175 -49.9003 -49.8863 -49.8690 -49.5238 -49.5065 -28.5817 -28.5642
   -28.5453 -28.5263 -28.5087 -28.4745 -28.4728 -28.4622 -28.4523 -28.4371
   -28.3307 -28.2948 -28.2145 -28.1216 -28.0933 -28.0767 -28.0583 -28.0282
    -5.8458  -4.4021  -3.5849  -3.5455  -3.3879  -3.3078  -3.2946  -3.2760
    -3.2371  -3.2193  -3.0629  -3.0271  -2.9517  -2.8536  -2.8478  -2.8250
    -2.8061  -2.7924  -2.7890  -2.7623  -2.7198  -2.6981  -2.6844  -2.6196
    -2.6003  -2.5680  -2.5515  -2.5069  -2.4104  -2.3517  -2.3447  -2.2944
    -1.9202  -1.7786  -1.6925  -1.4358  -0.1610  -0.1394   0.2041   0.2466
     0.4423   0.5312   0.7000   0.7686   0.8366   0.8845   0.9833   1.1352
     1.3738   1.4093   1.4154   1.4437   1.7302   1.9702   2.0540

          k = 0.0000 0.0470 0.0000 ( 34628 PWs)   bands (ev):

   -49.9159 -49.9019 -49.8847 -49.8706 -49.5222 -49.5081 -28.5800 -28.5657
   -28.5438 -28.5283 -28.4927 -28.4730 -28.4631 -28.4568 -28.4517 -28.4391
   -28.3474 -28.3115 -28.1977 -28.1189 -28.0958 -28.0752 -28.0602 -28.0456
    -5.6482  -4.2264  -3.7239  -3.4269  -3.3722  -3.2639  -3.2452  -3.2243
    -3.1903  -3.1844  -3.0449  -2.9756  -2.9169  -2.8530  -2.8437  -2.8159
    -2.7958  -2.7823  -2.7764  -2.7660  -2.7132  -2.6858  -2.6695  -2.6272
    -2.6271  -2.5802  -2.5616  -2.5084  -2.4319  -2.4073  -2.3621  -2.3523
    -2.2049  -1.8166  -1.7403  -1.6312  -0.3356   0.0149   0.0571   0.3187
     0.3225   0.4877   0.6250   0.7242   0.7507   0.8882   0.9384   1.1610
     1.3251   1.3576   1.4104   1.4393   1.7596   1.8009   1.8854

          k = 0.0000 0.0626 0.0000 ( 34612 PWs)   bands (ev):

   -49.9139 -49.9039 -49.8826 -49.8727 -49.5201 -49.5101 -28.5778 -28.5678
   -28.5418 -28.5308 -28.4719 -28.4713 -28.4643 -28.4506 -28.4417 -28.4359
   -28.3690 -28.3331 -28.1757 -28.1154 -28.0991 -28.0733 -28.0681 -28.0626
    -5.3813  -4.0018  -3.9762  -3.3773  -3.2823  -3.2032  -3.1875  -3.1622
    -3.1482  -3.1211  -3.0323  -2.9117  -2.9007  -2.8623  -2.8244  -2.8147
    -2.8101  -2.7827  -2.7587  -2.7356  -2.7005  -2.6895  -2.6539  -2.6394
    -2.6168  -2.6003  -2.5791  -2.5229  -2.5158  -2.4942  -2.4598  -2.3796
    -2.3431  -1.8874  -1.8509  -1.7036  -0.4997  -0.1182   0.1094   0.1717
     0.2648   0.4455   0.5268   0.7186   0.7321   0.9404   1.0047   1.1932
     1.2441   1.2971   1.3721   1.4644   1.6217   1.8128   1.8555

          k = 0.0000 0.0783 0.0000 ( 34580 PWs)   bands (ev):

   -49.9115 -49.9063 -49.8802 -49.8751 -49.5177 -49.5125 -28.5754 -28.5702
   -28.5394 -28.5337 -28.4694 -28.4658 -28.4490 -28.4473 -28.4443 -28.4114
   -28.3941 -28.3582 -28.1500 -28.1114 -28.1029 -28.0943 -28.0709 -28.0654
    -5.0566  -4.3167  -3.7596  -3.4264  -3.1506  -3.1489  -3.1406  -3.1060
    -3.0995  -3.0344  -3.0326  -2.8991  -2.8771  -2.8504  -2.8227  -2.8201
    -2.8105  -2.7800  -2.7540  -2.7133  -2.6952  -2.6893  -2.6727  -2.6604
    -2.6266  -2.6248  -2.6060  -2.6047  -2.5681  -2.5295  -2.4985  -2.4916
    -2.3138  -2.0984  -1.8313  -1.7029  -0.5545  -0.2096  -0.1494   0.0211
     0.4193   0.4437   0.4736   0.6845   0.8233   0.9659   1.0841   1.1823
     1.2122   1.2477   1.2616   1.3521   1.6906   1.8149   1.9191

          k = 0.0000-0.0939 0.0000 ( 34570 PWs)   bands (ev):

   -49.9089 -49.9089 -49.8776 -49.8776 -49.5152 -49.5151 -28.5728 -28.5727
   -28.5366 -28.5366 -28.4675 -28.4675 -28.4469 -28.4469 -28.4208 -28.4207
   -28.3849 -28.3848 -28.1223 -28.1223 -28.1071 -28.1071 -28.0682 -28.0682
    -4.6920  -4.6920  -3.5521  -3.5521  -3.1273  -3.1273  -3.0876  -3.0876
    -3.0572  -3.0572  -2.9107  -2.9106  -2.8841  -2.8841  -2.8117  -2.8117
    -2.8047  -2.8047  -2.7537  -2.7537  -2.6854  -2.6854  -2.6720  -2.6720
    -2.6487  -2.6487  -2.6260  -2.6259  -2.5487  -2.5487  -2.5233  -2.5233
    -2.2428  -2.2427  -1.7585  -1.7585  -0.4475  -0.4475  -0.1013  -0.1013
     0.4205   0.4205   0.6076   0.6076   0.9246   0.9246   1.1529   1.1529
     1.1863   1.1864   1.2628   1.2628   1.7981   1.8689   1.8709

          k = 0.0147-0.0053 0.0000 ( 34651 PWs)   bands (ev):

   -49.9185 -49.8993 -49.8873 -49.8680 -49.5248 -49.5055 -28.5827 -28.5632
   -28.5461 -28.5250 -28.5188 -28.4828 -28.4754 -28.4616 -28.4526 -28.4358
   -28.3201 -28.2842 -28.2250 -28.1233 -28.0917 -28.0775 -28.0571 -28.0172
    -5.9670  -4.5127  -3.6223  -3.5352  -3.4077  -3.3270  -3.3236  -3.3075
    -3.2682  -3.2404  -3.0809  -3.0603  -2.9798  -2.8565  -2.8450  -2.8339
    -2.8234  -2.8079  -2.7896  -2.7493  -2.7292  -2.7109  -2.6844  -2.6089
    -2.5798  -2.5647  -2.5413  -2.5124  -2.3967  -2.3481  -2.3196  -2.2616
    -1.8033  -1.6410  -1.5561  -1.3114  -0.3020   0.0011   0.0249   0.3975
     0.5256   0.5650   0.6495   0.8113   0.8428   0.9002   1.1428   1.1978
     1.3389   1.3941   1.5112   1.5796   1.6481   1.9881   2.0581

          k = 0.0147 0.0104 0.0000 ( 34677 PWs)   bands (ev):

   -49.9189 -49.8990 -49.8876 -49.8677 -49.5252 -49.5051 -28.5831 -28.5626
   -28.5467 -28.5248 -28.5223 -28.4864 -28.4760 -28.4604 -28.4538 -28.4354
   -28.3165 -28.2806 -28.2286 -28.1232 -28.0917 -28.0782 -28.0567 -28.0135
    -5.9534  -4.5012  -3.6257  -3.5349  -3.3936  -3.3321  -3.3143  -3.3032
    -3.2670  -3.2368  -3.0797  -3.0617  -2.9822  -2.8649  -2.8328  -2.8320
    -2.8209  -2.8059  -2.7956  -2.7435  -2.7275  -2.7068  -2.6730  -2.6049
    -2.5756  -2.5631  -2.5301  -2.5230  -2.3918  -2.3539  -2.3062  -2.2549
    -1.7933  -1.5574  -1.4294  -1.2765  -0.5535  -0.1767  -0.0644   0.3845
     0.4137   0.5707   0.7350   0.7400   0.8109   0.8821   1.1021   1.2337
     1.3129   1.3600   1.4505   1.7005   1.7139   1.9845   2.0123

          k = 0.0147 0.0260 0.0000 ( 34646 PWs)   bands (ev):

   -49.9185 -49.8993 -49.8872 -49.8681 -49.5248 -49.5054 -28.5829 -28.5627
   -28.5467 -28.5253 -28.5190 -28.4831 -28.4760 -28.4597 -28.4546 -28.4358
   -28.3202 -28.2842 -28.2250 -28.1220 -28.0928 -28.0781 -28.0570 -28.0173
    -5.8591  -4.4164  -3.5805  -3.5630  -3.3676  -3.3145  -3.2946  -3.2781
    -3.2451  -3.2191  -3.0662  -3.0409  -2.9672  -2.8672  -2.8285  -2.8239
    -2.8065  -2.7997  -2.7927  -2.7463  -2.7181  -2.6969  -2.6632  -2.6071
    -2.5867  -2.5613  -2.5418  -2.5154  -2.3969  -2.3608  -2.3097  -2.2669
    -1.7690  -1.7117  -1.4520  -1.3393  -0.5773  -0.4021  -0.0013   0.2613
     0.2957   0.5614   0.5678   0.7540   0.8484   0.9397   0.9794   1.1341
     1.2866   1.3648   1.4047   1.6230   1.8179   1.9756   2.0864

          k = 0.0147 0.0417 0.0000 ( 34623 PWs)   bands (ev):

   -49.9175 -49.9003 -49.8862 -49.8691 -49.5239 -49.5064 -28.5820 -28.5635
   -28.5460 -28.5267 -28.5091 -28.4755 -28.4732 -28.4596 -28.4549 -28.4370
   -28.3307 -28.2948 -28.2145 -28.1198 -28.0948 -28.0774 -28.0581 -28.0284
    -5.6873  -4.2651  -3.6631  -3.4952  -3.3446  -3.2756  -3.2509  -3.2301
    -3.2041  -3.1887  -3.0501  -3.0008  -2.9427  -2.8608  -2.8248  -2.8215
    -2.8037  -2.7815  -2.7715  -2.7558  -2.7106  -2.6734  -2.6578  -2.6084
    -2.6078  -2.5644  -2.5579  -2.5121  -2.4132  -2.3626  -2.3403  -2.2985
    -2.0191  -1.7376  -1.5564  -1.5072  -0.6170  -0.4013   0.0760   0.0865
     0.1807   0.4128   0.5534   0.7545   0.7949   0.8867   0.9945   1.0604
     1.2613   1.3423   1.4046   1.5201   1.8768   1.9144   1.9710

          k = 0.0147 0.0573 0.0000 ( 34617 PWs)   bands (ev):

   -49.9159 -49.9019 -49.8846 -49.8707 -49.5223 -49.5080 -28.5805 -28.5650
   -28.5445 -28.5286 -28.4932 -28.4747 -28.4602 -28.4573 -28.4543 -28.4387
   -28.3473 -28.3114 -28.1977 -28.1167 -28.0977 -28.0761 -28.0600 -28.0458
    -5.4438  -4.0611  -3.8674  -3.3839  -3.3370  -3.2196  -3.1928  -3.1681
    -3.1546  -3.1424  -3.0351  -2.9472  -2.9267  -2.8488  -2.8270  -2.8169
    -2.8109  -2.7680  -2.7530  -2.7494  -2.7016  -2.6611  -2.6421  -2.6296
    -2.5985  -2.5842  -2.5714  -2.5176  -2.4383  -2.4107  -2.3811  -2.3520
    -2.2791  -1.7922  -1.7256  -1.6195  -0.7646  -0.1630  -0.1015   0.0286
     0.0964   0.3166   0.5405   0.6834   0.7609   0.9356   1.0212   1.0490
     1.2335   1.2857   1.4346   1.4602   1.6803   1.8294   1.9442

          k = 0.0147 0.0730 0.0000 ( 34617 PWs)   bands (ev):

   -49.9138 -49.9040 -49.8825 -49.8727 -49.5202 -49.5101 -28.5785 -28.5670
   -28.5423 -28.5309 -28.4736 -28.4723 -28.4614 -28.4529 -28.4409 -28.4363
   -28.3689 -28.3330 -28.1758 -28.1130 -28.1012 -28.0742 -28.0683 -28.0623
    -5.1384  -4.1727  -3.8300  -3.3616  -3.2710  -3.1515  -3.1419  -3.1140
    -3.1090  -3.0727  -3.0272  -2.9227  -2.8942  -2.8427  -2.8384  -2.8164
    -2.8019  -2.7756  -2.7440  -2.7244  -2.6871  -2.6776  -2.6446  -2.6146
    -2.6112  -2.5939  -2.5775  -2.5425  -2.5303  -2.5175  -2.4693  -2.4069
    -2.3184  -2.0687  -1.7768  -1.6447  -0.7681  -0.2828  -0.1778   0.0621
     0.1293   0.2678   0.5417   0.7115   0.7712   0.9971   1.0278   1.0729
     1.1697   1.2467   1.3756   1.4404   1.6351   1.7347   1.9577

          k = 0.0147-0.0992 0.0000 ( 34560 PWs)   bands (ev):

   -49.9114 -49.9064 -49.8801 -49.8752 -49.5178 -49.5125 -28.5761 -28.5695
   -28.5395 -28.5335 -28.4723 -28.4633 -28.4507 -28.4476 -28.4429 -28.4117
   -28.3938 -28.3579 -28.1500 -28.1090 -28.1052 -28.0944 -28.0716 -28.0648
    -4.7860  -4.5354  -3.6149  -3.4515  -3.2039  -3.1152  -3.0874  -3.0824
    -3.0732  -3.0292  -2.9847  -2.9210  -2.8649  -2.8515  -2.8483  -2.7997
    -2.7885  -2.7681  -2.7558  -2.7158  -2.6980  -2.6967  -2.6596  -2.6581
    -2.6412  -2.6371  -2.6215  -2.5817  -2.5518  -2.5395  -2.5190  -2.5039
    -2.2449  -2.2407  -1.8867  -1.6334  -0.6059  -0.4237  -0.3388   0.1178
     0.2635   0.3452   0.5670   0.7770   0.7967   1.0103   1.0334   1.0953
     1.1114   1.2221   1.3582   1.3719   1.7406   1.8856   1.9747

          k = 0.0147-0.0836 0.0000 ( 34564 PWs)   bands (ev):

   -49.9090 -49.9088 -49.8777 -49.8775 -49.5152 -49.5151 -28.5736 -28.5722
   -28.5365 -28.5362 -28.4707 -28.4655 -28.4479 -28.4448 -28.4210 -28.4205
   -28.3852 -28.3846 -28.1223 -28.1222 -28.1094 -28.1049 -28.0688 -28.0676
    -4.9045  -4.4102  -3.6341  -3.4650  -3.2069  -3.1284  -3.1064  -3.0985
    -3.0481  -3.0192  -2.9300  -2.8964  -2.8802  -2.8649  -2.8435  -2.8035
    -2.7977  -2.7759  -2.7640  -2.7463  -2.7073  -2.6886  -2.6839  -2.6730
    -2.6572  -2.6409  -2.6367  -2.6174  -2.5808  -2.5323  -2.5252  -2.5062
    -2.3146  -2.1027  -1.9935  -1.6390  -0.5042  -0.3769  -0.3020   0.1853
     0.3331   0.4925   0.6216   0.7354   0.8809   0.9004   1.0245   1.1131
     1.1662   1.2530   1.3483   1.4082   1.7528   1.7694   1.8167

          k = 0.0147-0.0679 0.0000 ( 34592 PWs)   bands (ev):

   -49.9116 -49.9062 -49.8803 -49.8750 -49.5177 -49.5126 -28.5750 -28.5709
   -28.5388 -28.5333 -28.4690 -28.4680 -28.4469 -28.4467 -28.4449 -28.4110
   -28.3943 -28.3584 -28.1500 -28.1135 -28.1010 -28.0943 -28.0702 -28.0658
    -5.2438  -4.0499  -3.8766  -3.3944  -3.2541  -3.2020  -3.1459  -3.1399
    -3.1043  -3.0649  -3.0043  -2.8961  -2.8717  -2.8609  -2.8370  -2.8249
    -2.7805  -2.7709  -2.7617  -2.7185  -2.7175  -2.7007  -2.6779  -2.6651
    -2.6440  -2.6227  -2.6154  -2.5959  -2.5828  -2.5145  -2.4821  -2.4749
    -2.3392  -2.0655  -1.9031  -1.6802  -0.4527  -0.2748   0.0631   0.2515
     0.4514   0.5600   0.5874   0.7099   0.8377   0.9136   1.0399   1.0405
     1.2279   1.3537   1.3835   1.5189   1.6543   1.7133   1.8888

          k = 0.0147-0.0522 0.0000 ( 34645 PWs)   bands (ev):

   -49.9140 -49.9039 -49.8827 -49.8726 -49.5201 -49.5102 -28.5776 -28.5684
   -28.5411 -28.5304 -28.4715 -28.4704 -28.4671 -28.4483 -28.4419 -28.4356
   -28.3692 -28.3333 -28.1757 -28.1172 -28.0975 -28.0727 -28.0681 -28.0629
    -5.5310  -4.1167  -3.7622  -3.3787  -3.3302  -3.3097  -3.2055  -3.1886
    -3.1708  -3.1537  -3.0143  -2.9320  -2.8833  -2.8830  -2.8380  -2.8132
    -2.7915  -2.7822  -2.7714  -2.7470  -2.7132  -2.7116  -2.6639  -2.6522
    -2.6466  -2.5962  -2.5725  -2.5160  -2.5093  -2.4697  -2.4477  -2.3482
    -2.3463  -2.0570  -1.7327  -1.7096  -0.2689  -0.0880   0.3299   0.4027
     0.4563   0.5443   0.5832   0.7337   0.8205   0.8960   0.9434   1.0845
     1.2511   1.3532   1.4994   1.5685   1.6616   1.6643   1.9968

          k = 0.0147-0.0366 0.0000 ( 34647 PWs)   bands (ev):

   -49.9160 -49.9018 -49.8848 -49.8706 -49.5222 -49.5081 -28.5798 -28.5662
   -28.5432 -28.5278 -28.4925 -28.4726 -28.4651 -28.4566 -28.4498 -28.4392
   -28.3475 -28.3115 -28.1976 -28.1202 -28.0947 -28.0747 -28.0604 -28.0455
    -5.7523  -4.3143  -3.5971  -3.4655  -3.3912  -3.3395  -3.2580  -3.2525
    -3.2107  -3.2049  -3.0367  -2.9926  -2.9255  -2.8705  -2.8430  -2.8160
    -2.7952  -2.7869  -2.7783  -2.7750  -2.7161  -2.7049  -2.6932  -2.6377
    -2.6231  -2.5815  -2.5574  -2.5055  -2.4263  -2.4083  -2.3546  -2.3465
    -2.1262  -1.9624  -1.7740  -1.5427   0.0058   0.1011   0.2044   0.4153
     0.4813   0.5094   0.6591   0.8353   0.8759   0.8855   0.9522   1.1298
     1.1905   1.3974   1.4311   1.5405   1.6488   1.8283   1.9114

          k = 0.0147-0.0209 0.0000 ( 34671 PWs)   bands (ev):

   -49.9176 -49.9003 -49.8863 -49.8690 -49.5238 -49.5065 -28.5816 -28.5644
   -28.5449 -28.5260 -28.5086 -28.4743 -28.4727 -28.4633 -28.4513 -28.4371
   -28.3307 -28.2948 -28.2144 -28.1223 -28.0927 -28.0764 -28.0584 -28.0282
    -5.8992  -4.4494  -3.5676  -3.5446  -3.4051  -3.3359  -3.2998  -3.2927
    -3.2487  -3.2295  -3.0636  -3.0367  -2.9613  -2.8579  -2.8485  -2.8290
    -2.8129  -2.7993  -2.7824  -2.7640  -2.7177  -2.7138  -2.6953  -2.6211
    -2.5967  -2.5717  -2.5493  -2.5055  -2.4092  -2.3491  -2.3459  -2.2920
    -1.8431  -1.7974  -1.7876  -1.4078  -0.0284   0.1552   0.2185   0.2722
     0.4911   0.5255   0.6551   0.8028   0.8429   1.0413   1.0587   1.1405
     1.3098   1.3733   1.4607   1.4865   1.6275   1.9955   2.0740

          k = 0.0295-0.0106 0.0000 ( 34669 PWs)   bands (ev):

   -49.9175 -49.9003 -49.8863 -49.8690 -49.5238 -49.5065 -28.5817 -28.5642
   -28.5453 -28.5263 -28.5087 -28.4745 -28.4728 -28.4622 -28.4523 -28.4371
   -28.3307 -28.2948 -28.2145 -28.1216 -28.0933 -28.0767 -28.0583 -28.0282
    -5.8458  -4.4021  -3.5849  -3.5455  -3.3879  -3.3078  -3.2946  -3.2760
    -3.2371  -3.2193  -3.0629  -3.0271  -2.9517  -2.8536  -2.8478  -2.8250
    -2.8061  -2.7924  -2.7890  -2.7623  -2.7198  -2.6981  -2.6844  -2.6196
    -2.6003  -2.5680  -2.5515  -2.5069  -2.4104  -2.3517  -2.3447  -2.2944
    -1.9202  -1.7786  -1.6925  -1.4358  -0.1610  -0.1394   0.2041   0.2466
     0.4423   0.5312   0.7000   0.7686   0.8366   0.8845   0.9833   1.1356
     1.3740   1.4096   1.4159   1.4441   1.7307   1.9706   2.0538

          k = 0.0295 0.0051 0.0000 ( 34646 PWs)   bands (ev):

   -49.9185 -49.8993 -49.8872 -49.8681 -49.5248 -49.5054 -28.5829 -28.5627
   -28.5467 -28.5253 -28.5190 -28.4831 -28.4760 -28.4597 -28.4546 -28.4358
   -28.3202 -28.2842 -28.2250 -28.1220 -28.0928 -28.0781 -28.0570 -28.0173
    -5.8591  -4.4164  -3.5805  -3.5630  -3.3676  -3.3145  -3.2946  -3.2781
    -3.2451  -3.2191  -3.0662  -3.0409  -2.9672  -2.8672  -2.8285  -2.8239
    -2.8065  -2.7997  -2.7927  -2.7463  -2.7181  -2.6969  -2.6632  -2.6071
    -2.5867  -2.5613  -2.5418  -2.5154  -2.3969  -2.3608  -2.3097  -2.2669
    -1.7690  -1.7117  -1.4520  -1.3393  -0.5773  -0.4021  -0.0013   0.2613
     0.2957   0.5614   0.5678   0.7540   0.8484   0.9397   0.9794   1.1341
     1.2866   1.3648   1.4046   1.6231   1.8178   1.9763   2.0922

          k = 0.0295 0.0207 0.0000 ( 34623 PWs)   bands (ev):

   -49.9188 -49.8990 -49.8875 -49.8678 -49.5252 -49.5051 -28.5835 -28.5620
   -28.5475 -28.5251 -28.5227 -28.4868 -28.4770 -28.4579 -28.4564 -28.4353
   -28.3166 -28.2806 -28.2287 -28.1213 -28.0932 -28.0790 -28.0565 -28.0137
    -5.7922  -4.3582  -3.5734  -3.5526  -3.3311  -3.3098  -3.2806  -3.2633
    -3.2332  -3.2042  -3.0533  -3.0333  -2.9689  -2.8758  -2.8252  -2.8092
    -2.8042  -2.8015  -2.7780  -2.7374  -2.7078  -2.6932  -2.6440  -2.5997
    -2.5856  -2.5624  -2.5367  -2.5196  -2.3906  -2.3714  -2.2973  -2.2599
    -1.7500  -1.5913  -1.3432  -1.2787  -0.9140  -0.6625  -0.1160   0.0483
     0.2472   0.3396   0.5881   0.7231   0.8535   0.8944   1.0368   1.0859
     1.2054   1.3419   1.3675   1.7160   1.8391   1.9470   2.1113

          k = 0.0295 0.0364 0.0000 ( 34596 PWs)   bands (ev):

   -49.9184 -49.8994 -49.8871 -49.8681 -49.5249 -49.5054 -28.5834 -28.5620
   -28.5473 -28.5256 -28.5196 -28.4837 -28.4777 -28.4574 -28.4569 -28.4355
   -28.3202 -28.2842 -28.2251 -28.1197 -28.0946 -28.0791 -28.0568 -28.0175
    -5.6475  -4.2335  -3.5988  -3.5346  -3.2957  -3.2784  -3.2440  -3.2252
    -3.2022  -3.1760  -3.0365  -3.0059  -2.9580  -2.8753  -2.8227  -2.8177
    -2.7885  -2.7854  -2.7574  -2.7361  -2.7003  -2.6768  -2.6314  -2.5986
    -2.5931  -2.5630  -2.5528  -2.5127  -2.3965  -2.3755  -2.3095  -2.2673
    -1.7939  -1.7370  -1.4217  -1.2907  -0.8828  -0.8806  -0.1781  -0.1346
     0.1676   0.1791   0.5919   0.6907   0.7531   0.8547   0.9860   1.1115
     1.1474   1.2857   1.3983   1.6529   1.8432   1.9979   2.0451

          k = 0.0295 0.0520 0.0000 ( 34606 PWs)   bands (ev):

   -49.9174 -49.9004 -49.8861 -49.8692 -49.5239 -49.5063 -28.5826 -28.5629
   -28.5464 -28.5268 -28.5097 -28.4780 -28.4738 -28.4573 -28.4570 -28.4363
   -28.3306 -28.2947 -28.2146 -28.1173 -28.0969 -28.0785 -28.0579 -28.0285
    -5.4299  -4.0549  -3.7413  -3.4789  -3.2753  -3.2210  -3.1864  -3.1690
    -3.1553  -3.1366  -3.0203  -2.9638  -2.9467  -2.8682  -2.8271  -2.8173
    -2.7789  -2.7640  -2.7422  -2.7383  -2.6965  -2.6488  -2.6358  -2.6109
    -2.5804  -2.5781  -2.5673  -2.5134  -2.4138  -2.3655  -2.3454  -2.3011
    -2.1287  -1.7720  -1.6593  -1.3595  -0.9939  -0.6245  -0.4070  -0.1470
     0.0782   0.1471   0.5949   0.6350   0.6666   0.8721   0.9227   1.1007
     1.1589   1.2378   1.4497   1.5491   1.8046   1.8755   1.8780

          k = 0.0295 0.0677 0.0000 ( 34597 PWs)   bands (ev):

   -49.9157 -49.9020 -49.8845 -49.8708 -49.5223 -49.5079 -28.5813 -28.5644
   -28.5446 -28.5284 -28.4937 -28.4778 -28.4580 -28.4578 -28.4562 -28.4375
   -28.3472 -28.3113 -28.1978 -28.1142 -28.0999 -28.0770 -28.0597 -28.0459
    -5.1478  -3.9927  -3.8449  -3.4222  -3.2764  -3.1435  -3.1327  -3.1117
    -3.1043  -3.0846  -3.0082  -2.9421  -2.9204  -2.8635  -2.8332  -2.8042
    -2.7854  -2.7501  -2.7385  -2.7291  -2.6904  -2.6577  -2.6207  -2.6187
    -2.6054  -2.5840  -2.5593  -2.5222  -2.4400  -2.4261  -2.4146  -2.3299
    -2.3294  -1.9768  -1.8857  -1.4284  -0.9374  -0.6195  -0.3463  -0.2043
     0.0404   0.1890   0.6110   0.6221   0.6506   0.9150   0.9254   1.0751
     1.1634   1.2084   1.4796   1.4979   1.6711   1.7331   1.9214

          k = 0.0295-0.1045 0.0000 ( 34583 PWs)   bands (ev):

   -49.9137 -49.9041 -49.8824 -49.8728 -49.5203 -49.5100 -28.5794 -28.5666
   -28.5421 -28.5305 -28.4771 -28.4727 -28.4597 -28.4542 -28.4392 -28.4367
   -28.3688 -28.3328 -28.1758 -28.1107 -28.1035 -28.0750 -28.0684 -28.0619
    -4.8137  -4.3260  -3.6394  -3.3817  -3.3251  -3.1004  -3.0730  -3.0704
    -3.0581  -3.0145  -3.0087  -2.9398  -2.8980  -2.8652  -2.8160  -2.8049
    -2.7873  -2.7493  -2.7362  -2.7235  -2.6856  -2.6768  -2.6409  -2.6331
    -2.6153  -2.6086  -2.5713  -2.5429  -2.5371  -2.5222  -2.4739  -2.4327
    -2.2435  -2.2327  -2.0280  -1.4873  -0.8163  -0.7103  -0.3362  -0.0105
     0.0499   0.2919   0.6359   0.6571   0.6894   0.9801   0.9824   1.0610
     1.1153   1.2031   1.4610   1.4904   1.6601   1.6819   1.9761

          k = 0.0295-0.0888 0.0000 ( 34568 PWs)   bands (ev):

   -49.9113 -49.9065 -49.8800 -49.8752 -49.5179 -49.5124 -28.5770 -28.5691
   -28.5391 -28.5329 -28.4758 -28.4621 -28.4515 -28.4480 -28.4408 -28.4121
   -28.3937 -28.3577 -28.1500 -28.1073 -28.1070 -28.0945 -28.0723 -28.0644
    -4.6888  -4.4473  -3.4834  -3.4644  -3.3743  -3.1011  -3.0785  -3.0703
    -3.0173  -2.9897  -2.9381  -2.9269  -2.8741  -2.8739  -2.8314  -2.7776
    -2.7599  -2.7586  -2.7435  -2.7365  -2.7221  -2.7132  -2.6708  -2.6543
    -2.6534  -2.6444  -2.6429  -2.5890  -2.5795  -2.5213  -2.5142  -2.5111
    -2.3185  -2.1554  -2.0766  -1.5580  -0.8959  -0.4234  -0.3106   0.0538
     0.2528   0.4260   0.6439   0.7259   0.7776   0.9820   1.0518   1.0660
     1.0885   1.2218   1.4740   1.4981   1.6892   1.7313   1.8406

          k = 0.0295-0.0732 0.0000 ( 34587 PWs)   bands (ev):

   -49.9090 -49.9087 -49.8778 -49.8775 -49.5153 -49.5150 -28.5743 -28.5720
   -28.5359 -28.5355 -28.4738 -28.4648 -28.4483 -28.4427 -28.4213 -28.4203
   -28.3854 -28.3843 -28.1224 -28.1222 -28.1111 -28.1033 -28.0692 -28.0671
    -5.0360  -4.0812  -3.6921  -3.4201  -3.3809  -3.1453  -3.1121  -3.1098
    -3.0549  -2.9601  -2.9373  -2.9122  -2.8653  -2.8511  -2.8391  -2.7950
    -2.7899  -2.7617  -2.7588  -2.7450  -2.7366  -2.7019  -2.6871  -2.6860
    -2.6772  -2.6599  -2.6289  -2.6167  -2.6078  -2.5361  -2.5132  -2.4878
    -2.3392  -2.2062  -1.9000  -1.6382  -0.8590  -0.1727  -0.0612   0.1156
     0.3902   0.5626   0.6781   0.8260   0.8467   0.8576   1.0562   1.0582
     1.1464   1.3085   1.4826   1.5831   1.6433   1.7312   1.8313

          k = 0.0295-0.0575 0.0000 ( 34602 PWs)   bands (ev):

   -49.9116 -49.9062 -49.8804 -49.8749 -49.5176 -49.5127 -28.5748 -28.5715
   -28.5382 -28.5329 -28.4712 -28.4676 -28.4468 -28.4450 -28.4449 -28.4108
   -28.3944 -28.3585 -28.1500 -28.1148 -28.0999 -28.0942 -28.0698 -28.0661
    -5.3393  -3.9408  -3.7743  -3.4446  -3.3626  -3.2290  -3.1704  -3.1460
    -3.1137  -3.0782  -2.9670  -2.9096  -2.8755  -2.8444  -2.8383  -2.8369
    -2.7905  -2.7576  -2.7505  -2.7373  -2.7232  -2.7091  -2.6781  -2.6768
    -2.6613  -2.6404  -2.6107  -2.5928  -2.5779  -2.5110  -2.4732  -2.4622
    -2.3442  -2.2057  -1.7512  -1.7063  -0.6552   0.0394   0.2048   0.3276
     0.4023   0.6769   0.6784   0.7694   0.8795   0.9506   0.9694   0.9709
     1.1656   1.4746   1.4901   1.5592   1.6200   1.6851   1.8981

          k = 0.0295-0.0419 0.0000 ( 34635 PWs)   bands (ev):

   -49.9140 -49.9038 -49.8827 -49.8726 -49.5201 -49.5102 -28.5775 -28.5687
   -28.5408 -28.5301 -28.4714 -28.4703 -28.4682 -28.4473 -28.4419 -28.4354
   -28.3692 -28.3333 -28.1757 -28.1179 -28.0970 -28.0724 -28.0681 -28.0630
    -5.5815  -4.1567  -3.6204  -3.4221  -3.3643  -3.3491  -3.2226  -3.1875
    -3.1803  -3.1652  -2.9973  -2.9400  -2.8911  -2.8886  -2.8343  -2.8133
    -2.8115  -2.7678  -2.7644  -2.7546  -2.7234  -2.7161  -2.6758  -2.6555
    -2.6508  -2.5949  -2.5706  -2.5147  -2.5088  -2.4601  -2.4426  -2.3449
    -2.3264  -2.1396  -1.7514  -1.6437  -0.3293   0.2753   0.2881   0.3231
     0.4761   0.6858   0.7504   0.7557   0.8395   0.8898   0.8998   1.0721
     1.1183   1.4272   1.5134   1.5821   1.6646   1.7039   1.7897

          k = 0.0295-0.0262 0.0000 ( 34647 PWs)   bands (ev):

   -49.9160 -49.9018 -49.8848 -49.8706 -49.5222 -49.5081 -28.5798 -28.5662
   -28.5432 -28.5278 -28.4925 -28.4726 -28.4651 -28.4566 -28.4498 -28.4392
   -28.3475 -28.3115 -28.1976 -28.1202 -28.0947 -28.0747 -28.0604 -28.0455
    -5.7523  -4.3143  -3.5971  -3.4655  -3.3912  -3.3395  -3.2580  -3.2525
    -3.2107  -3.2049  -3.0367  -2.9926  -2.9255  -2.8705  -2.8430  -2.8160
    -2.7952  -2.7869  -2.7783  -2.7750  -2.7161  -2.7049  -2.6932  -2.6377
    -2.6231  -2.5815  -2.5574  -2.5055  -2.4263  -2.4083  -2.3546  -2.3465
    -2.1262  -1.9624  -1.7740  -1.5427   0.0058   0.1012   0.2044   0.4153
     0.4813   0.5094   0.6591   0.8353   0.8759   0.8855   0.9522   1.1298
     1.1904   1.3974   1.4310   1.5405   1.6489   1.8283   1.9109

          k = 0.0442-0.0159 0.0000 ( 34628 PWs)   bands (ev):

   -49.9159 -49.9019 -49.8847 -49.8706 -49.5222 -49.5081 -28.5800 -28.5657
   -28.5438 -28.5283 -28.4927 -28.4730 -28.4631 -28.4568 -28.4517 -28.4391
   -28.3474 -28.3115 -28.1977 -28.1189 -28.0958 -28.0752 -28.0602 -28.0456
    -5.6482  -4.2264  -3.7239  -3.4269  -3.3722  -3.2639  -3.2452  -3.2243
    -3.1903  -3.1844  -3.0449  -2.9756  -2.9169  -2.8530  -2.8437  -2.8159
    -2.7958  -2.7823  -2.7764  -2.7660  -2.7132  -2.6858  -2.6695  -2.6272
    -2.6271  -2.5802  -2.5616  -2.5084  -2.4319  -2.4073  -2.3621  -2.3523
    -2.2049  -1.8166  -1.7403  -1.6312  -0.3356   0.0149   0.0571   0.3187
     0.3225   0.4877   0.6250   0.7242   0.7507   0.8882   0.9384   1.1608
     1.3251   1.3573   1.4105   1.4393   1.7595   1.8001   1.8849

          k = 0.0442-0.0002 0.0000 ( 34623 PWs)   bands (ev):

   -49.9175 -49.9003 -49.8862 -49.8691 -49.5239 -49.5064 -28.5820 -28.5635
   -28.5460 -28.5267 -28.5091 -28.4755 -28.4732 -28.4596 -28.4549 -28.4370
   -28.3307 -28.2948 -28.2145 -28.1198 -28.0948 -28.0775 -28.0581 -28.0284
    -5.6873  -4.2651  -3.6631  -3.4952  -3.3446  -3.2756  -3.2509  -3.2301
    -3.2041  -3.1887  -3.0501  -3.0008  -2.9427  -2.8608  -2.8248  -2.8215
    -2.8037  -2.7815  -2.7715  -2.7558  -2.7106  -2.6734  -2.6578  -2.6084
    -2.6078  -2.5644  -2.5579  -2.5121  -2.4132  -2.3626  -2.3403  -2.2985
    -2.0191  -1.7376  -1.5564  -1.5072  -0.6170  -0.4013   0.0760   0.0865
     0.1807   0.4128   0.5534   0.7545   0.7949   0.8867   0.9945   1.0604
     1.2613   1.3423   1.4046   1.5201   1.8767   1.9143   1.9715

          k = 0.0442 0.0154 0.0000 ( 34596 PWs)   bands (ev):

   -49.9184 -49.8994 -49.8871 -49.8681 -49.5249 -49.5054 -28.5834 -28.5620
   -28.5473 -28.5256 -28.5196 -28.4837 -28.4777 -28.4574 -28.4569 -28.4355
   -28.3202 -28.2842 -28.2251 -28.1197 -28.0946 -28.0791 -28.0568 -28.0175
    -5.6475  -4.2335  -3.5988  -3.5346  -3.2957  -3.2784  -3.2440  -3.2252
    -3.2022  -3.1760  -3.0365  -3.0059  -2.9580  -2.8753  -2.8227  -2.8177
    -2.7885  -2.7854  -2.7574  -2.7361  -2.7003  -2.6768  -2.6314  -2.5986
    -2.5931  -2.5630  -2.5528  -2.5127  -2.3965  -2.3755  -2.3095  -2.2673
    -1.7939  -1.7370  -1.4217  -1.2907  -0.8828  -0.8806  -0.1781  -0.1346
     0.1676   0.1791   0.5919   0.6907   0.7531   0.8547   0.9860   1.1115
     1.1473   1.2857   1.3984   1.6525   1.8426   1.9925   2.0500

          k = 0.0442 0.0311 0.0000 ( 34587 PWs)   bands (ev):

   -49.9187 -49.8991 -49.8874 -49.8678 -49.5253 -49.5050 -28.5841 -28.5613
   -28.5479 -28.5252 -28.5233 -28.4874 -28.4796 -28.4590 -28.4553 -28.4347
   -28.3166 -28.2806 -28.2287 -28.1189 -28.0953 -28.0801 -28.0563 -28.0139
    -5.5305  -4.1376  -3.5707  -3.5548  -3.2517  -3.2366  -3.2273  -3.2036
    -3.1821  -3.1489  -3.0177  -2.9912  -2.9613  -2.8801  -2.8262  -2.8178
    -2.7845  -2.7594  -2.7401  -2.7219  -2.6839  -2.6791  -2.6101  -2.6057
    -2.5792  -2.5632  -2.5623  -2.5045  -2.3875  -2.3860  -2.3077  -2.2539
    -1.7691  -1.6166  -1.3808  -1.2821  -1.1363  -1.0731  -0.4502  -0.2717
    -0.0606   0.1340   0.6009   0.6162   0.6362   0.8226   0.8856   1.0525
     1.2214   1.2261   1.4186   1.6848   1.7707   1.9809   2.1339

          k = 0.0442 0.0467 0.0000 ( 34611 PWs)   bands (ev):

   -49.9183 -49.8995 -49.8870 -49.8682 -49.5250 -49.5053 -28.5842 -28.5615
   -28.5475 -28.5255 -28.5201 -28.4843 -28.4811 -28.4594 -28.4548 -28.4345
   -28.3202 -28.2842 -28.2252 -28.1173 -28.0968 -28.0802 -28.0566 -28.0178
    -5.3408  -3.9899  -3.6303  -3.5665  -3.2030  -3.1982  -3.1777  -3.1561
    -3.1448  -3.1102  -3.0012  -2.9604  -2.9582  -2.8767  -2.8342  -2.8134
    -2.7669  -2.7444  -2.7249  -2.7162  -2.6853  -2.6580  -2.6247  -2.5986
    -2.5832  -2.5630  -2.5626  -2.5001  -2.3939  -2.3799  -2.3236  -2.2625
    -1.9049  -1.8761  -1.5175  -1.1578  -1.1177  -1.0765  -0.7154  -0.3238
    -0.1791   0.1173   0.5174   0.5319   0.6138   0.7919   0.8096   1.0024
     1.1782   1.2867   1.4566   1.5781   1.8254   1.8743   1.9644

          k = 0.0442 0.0624 0.0000 ( 34590 PWs)   bands (ev):

   -49.9172 -49.9005 -49.8860 -49.8692 -49.5240 -49.5062 -28.5836 -28.5624
   -28.5462 -28.5263 -28.5102 -28.4818 -28.4744 -28.4588 -28.4555 -28.4348
   -28.3306 -28.2947 -28.2147 -28.1149 -28.0991 -28.0794 -28.0577 -28.0287
    -5.0854  -3.8122  -3.8045  -3.5781  -3.1847  -3.1282  -3.1218  -3.1034
    -3.0913  -3.0657  -2.9876  -2.9573  -2.9250  -2.8728  -2.8403  -2.8058
    -2.7438  -2.7408  -2.7231  -2.7165  -2.6885  -2.6454  -2.6316  -2.6093
    -2.6016  -2.5703  -2.5431  -2.5045  -2.4106  -2.3516  -2.3463  -2.3077
    -2.2432  -2.0318  -1.8113  -1.1885  -1.0336  -0.9382  -0.7788  -0.3595
    -0.1850   0.1747   0.4582   0.4897   0.6318   0.7560   0.8271   0.9886
     1.1474   1.3144   1.5032   1.5035   1.7400   1.8085   1.8834

          k = 0.0442-0.1098 0.0000 ( 34580 PWs)   bands (ev):

   -49.9157 -49.9021 -49.8844 -49.8708 -49.5224 -49.5078 -28.5822 -28.5641
   -28.5441 -28.5278 -28.4942 -28.4817 -28.4583 -28.4572 -28.4570 -28.4357
   -28.3472 -28.3112 -28.1979 -28.1122 -28.1019 -28.0779 -28.0594 -28.0461
    -4.7754  -4.0838  -3.6459  -3.5866  -3.1949  -3.0802  -3.0641  -3.0589
    -3.0290  -3.0174  -2.9889  -2.9541  -2.9084  -2.8753  -2.8350  -2.7958
    -2.7598  -2.7296  -2.7267  -2.7157  -2.6840  -2.6698  -2.6299  -2.6202
    -2.6114  -2.5908  -2.5246  -2.5234  -2.4855  -2.4390  -2.4155  -2.3497
    -2.2580  -2.1647  -2.1427  -1.2994  -1.1717  -0.7914  -0.4617  -0.3505
    -0.1506   0.3029   0.3973   0.5643   0.6718   0.8010   0.8790   1.0089
     1.1412   1.2916   1.4852   1.5554   1.6699   1.7211   1.9362

          k = 0.0442-0.0941 0.0000 ( 34527 PWs)   bands (ev):

   -49.9136 -49.9041 -49.8824 -49.8729 -49.5203 -49.5099 -28.5801 -28.5663
   -28.5415 -28.5298 -28.4805 -28.4730 -28.4592 -28.4547 -28.4375 -28.4368
   -28.3686 -28.3327 -28.1758 -28.1090 -28.1051 -28.0755 -28.0685 -28.0616
    -4.4275  -4.4227  -3.6402  -3.4805  -3.2772  -3.0691  -3.0502  -3.0243
    -3.0001  -2.9847  -2.9551  -2.9420  -2.9065  -2.8818  -2.8045  -2.7902
    -2.7898  -2.7331  -2.7278  -2.7258  -2.7025  -2.6668  -2.6568  -2.6393
    -2.6362  -2.6243  -2.5891  -2.5619  -2.5209  -2.5060  -2.4754  -2.4600
    -2.3214  -2.2718  -2.0616  -1.4350  -1.2966  -0.5128  -0.3597  -0.1201
    -0.0464   0.3690   0.4482   0.6744   0.7393   0.9152   0.9603   1.0523
     1.1649   1.2068   1.5218   1.6087   1.6787   1.7157   1.8934

          k = 0.0442-0.0785 0.0000 ( 34585 PWs)   bands (ev):

   -49.9112 -49.9065 -49.8800 -49.8753 -49.5179 -49.5123 -28.5775 -28.5690
   -28.5386 -28.5323 -28.4782 -28.4619 -28.4517 -28.4482 -28.4392 -28.4123
   -28.3936 -28.3576 -28.1500 -28.1085 -28.1059 -28.0945 -28.0726 -28.0642
    -4.7675  -4.0707  -3.6751  -3.4679  -3.3949  -3.0951  -3.0755  -3.0606
    -3.0151  -2.9497  -2.9336  -2.8895  -2.8890  -2.8526  -2.8079  -2.7822
    -2.7642  -2.7572  -2.7443  -2.7393  -2.7279  -2.7208  -2.6974  -2.6836
    -2.6509  -2.6415  -2.6392  -2.6105  -2.6076  -2.5144  -2.5141  -2.4989
    -2.3414  -2.2994  -1.8698  -1.5605  -1.2792  -0.2232  -0.1963  -0.0282
     0.1961   0.4020   0.5735   0.7682   0.8333   1.0258   1.0523   1.0670
     1.1062   1.2270   1.5915   1.5928   1.6926   1.7979   1.8281

          k = 0.0442-0.0628 0.0000 ( 34583 PWs)   bands (ev):

   -49.9091 -49.9087 -49.8778 -49.8775 -49.5153 -49.5150 -28.5746 -28.5719
   -28.5357 -28.5352 -28.4750 -28.4647 -28.4483 -28.4419 -28.4214 -28.4202
   -28.3855 -28.3842 -28.1224 -28.1222 -28.1118 -28.1027 -28.0694 -28.0670
    -5.0805  -3.8027  -3.7129  -3.6449  -3.3633  -3.1511  -3.1190  -3.1110
    -3.0596  -2.9323  -2.9314  -2.9277  -2.8723  -2.8414  -2.8064  -2.7968
    -2.7881  -2.7652  -2.7575  -2.7488  -2.7389  -2.7175  -2.7137  -2.6867
    -2.6750  -2.6696  -2.6260  -2.6169  -2.6138  -2.5375  -2.5111  -2.4800
    -2.3439  -2.2776  -1.7806  -1.6517  -1.0343  -0.0515   0.0790   0.1022
     0.3317   0.5315   0.6624   0.8329   0.9071   0.9392   1.0320   1.0739
     1.1254   1.3428   1.5245   1.6290   1.6582   1.7162   1.8970

          k = 0.0442-0.0472 0.0000 ( 34602 PWs)   bands (ev):

   -49.9116 -49.9062 -49.8804 -49.8749 -49.5176 -49.5127 -28.5748 -28.5715
   -28.5382 -28.5329 -28.4712 -28.4676 -28.4468 -28.4450 -28.4449 -28.4108
   -28.3944 -28.3585 -28.1500 -28.1148 -28.0999 -28.0942 -28.0698 -28.0661
    -5.3393  -3.9408  -3.7743  -3.4446  -3.3626  -3.2290  -3.1704  -3.1460
    -3.1137  -3.0782  -2.9670  -2.9096  -2.8755  -2.8444  -2.8383  -2.8369
    -2.7905  -2.7576  -2.7505  -2.7373  -2.7232  -2.7091  -2.6781  -2.6768
    -2.6613  -2.6404  -2.6107  -2.5928  -2.5779  -2.5110  -2.4732  -2.4622
    -2.3442  -2.2057  -1.7512  -1.7063  -0.6552   0.0394   0.2048   0.3277
     0.4023   0.6769   0.6784   0.7694   0.8795   0.9506   0.9694   0.9709
     1.1657   1.4746   1.4906   1.5593   1.6200   1.6851   1.9378

          k = 0.0442-0.0315 0.0000 ( 34645 PWs)   bands (ev):

   -49.9140 -49.9039 -49.8827 -49.8726 -49.5201 -49.5102 -28.5776 -28.5684
   -28.5411 -28.5304 -28.4715 -28.4704 -28.4671 -28.4483 -28.4419 -28.4356
   -28.3692 -28.3333 -28.1757 -28.1172 -28.0975 -28.0727 -28.0681 -28.0629
    -5.5310  -4.1167  -3.7622  -3.3787  -3.3302  -3.3097  -3.2055  -3.1886
    -3.1708  -3.1537  -3.0143  -2.9320  -2.8833  -2.8830  -2.8380  -2.8132
    -2.7915  -2.7822  -2.7714  -2.7470  -2.7132  -2.7116  -2.6639  -2.6522
    -2.6466  -2.5962  -2.5725  -2.5160  -2.5093  -2.4697  -2.4477  -2.3482
    -2.3463  -2.0570  -1.7327  -1.7096  -0.2689  -0.0880   0.3299   0.4027
     0.4563   0.5443   0.5832   0.7337   0.8205   0.8960   0.9434   1.0845
     1.2512   1.3532   1.4993   1.5663   1.6586   1.6643   1.8299

          k = 0.0589-0.0212 0.0000 ( 34612 PWs)   bands (ev):

   -49.9139 -49.9039 -49.8826 -49.8727 -49.5201 -49.5101 -28.5778 -28.5678
   -28.5418 -28.5308 -28.4719 -28.4713 -28.4643 -28.4506 -28.4417 -28.4359
   -28.3690 -28.3331 -28.1757 -28.1154 -28.0991 -28.0733 -28.0681 -28.0626
    -5.3813  -4.0018  -3.9762  -3.3773  -3.2823  -3.2032  -3.1875  -3.1622
    -3.1482  -3.1211  -3.0323  -2.9117  -2.9007  -2.8623  -2.8244  -2.8147
    -2.8101  -2.7827  -2.7587  -2.7356  -2.7005  -2.6895  -2.6539  -2.6394
    -2.6168  -2.6003  -2.5791  -2.5229  -2.5158  -2.4942  -2.4598  -2.3796
    -2.3431  -1.8874  -1.8509  -1.7036  -0.4997  -0.1182   0.1094   0.1717
     0.2648   0.4455   0.5268   0.7186   0.7321   0.9404   1.0047   1.1932
     1.2443   1.2971   1.3722   1.4644   1.6215   1.8118   1.8558

          k = 0.0589-0.0055 0.0000 ( 34617 PWs)   bands (ev):

   -49.9159 -49.9019 -49.8846 -49.8707 -49.5223 -49.5080 -28.5805 -28.5650
   -28.5445 -28.5286 -28.4932 -28.4747 -28.4602 -28.4573 -28.4543 -28.4387
   -28.3473 -28.3114 -28.1977 -28.1167 -28.0977 -28.0761 -28.0600 -28.0458
    -5.4438  -4.0611  -3.8674  -3.3839  -3.3370  -3.2196  -3.1928  -3.1681
    -3.1546  -3.1424  -3.0351  -2.9472  -2.9267  -2.8488  -2.8270  -2.8169
    -2.8109  -2.7680  -2.7530  -2.7494  -2.7016  -2.6611  -2.6421  -2.6296
    -2.5985  -2.5842  -2.5714  -2.5176  -2.4383  -2.4107  -2.3811  -2.3520
    -2.2791  -1.7922  -1.7256  -1.6195  -0.7646  -0.1630  -0.1015   0.0286
     0.0964   0.3166   0.5405   0.6834   0.7609   0.9356   1.0212   1.0490
     1.2334   1.2857   1.4346   1.4603   1.6803   1.8293   1.9441

          k = 0.0589 0.0101 0.0000 ( 34606 PWs)   bands (ev):

   -49.9174 -49.9004 -49.8861 -49.8692 -49.5239 -49.5063 -28.5826 -28.5629
   -28.5464 -28.5268 -28.5097 -28.4780 -28.4738 -28.4573 -28.4570 -28.4363
   -28.3306 -28.2947 -28.2146 -28.1173 -28.0969 -28.0785 -28.0579 -28.0285
    -5.4299  -4.0549  -3.7413  -3.4789  -3.2753  -3.2210  -3.1864  -3.1690
    -3.1553  -3.1366  -3.0203  -2.9638  -2.9467  -2.8682  -2.8271  -2.8173
    -2.7789  -2.7640  -2.7422  -2.7383  -2.6965  -2.6488  -2.6358  -2.6109
    -2.5804  -2.5781  -2.5673  -2.5134  -2.4138  -2.3655  -2.3454  -2.3011
    -2.1287  -1.7720  -1.6593  -1.3595  -0.9939  -0.6245  -0.4070  -0.1470
     0.0782   0.1471   0.5949   0.6350   0.6666   0.8721   0.9227   1.1007
     1.1589   1.2380   1.4499   1.5492   1.8038   1.8752   1.8780

          k = 0.0589 0.0258 0.0000 ( 34611 PWs)   bands (ev):

   -49.9183 -49.8995 -49.8870 -49.8682 -49.5250 -49.5053 -28.5842 -28.5615
   -28.5475 -28.5255 -28.5201 -28.4843 -28.4811 -28.4594 -28.4548 -28.4345
   -28.3202 -28.2842 -28.2252 -28.1173 -28.0968 -28.0802 -28.0566 -28.0178
    -5.3408  -3.9899  -3.6303  -3.5665  -3.2030  -3.1982  -3.1777  -3.1561
    -3.1448  -3.1102  -3.0012  -2.9604  -2.9582  -2.8767  -2.8342  -2.8134
    -2.7669  -2.7444  -2.7249  -2.7162  -2.6853  -2.6580  -2.6247  -2.5986
    -2.5832  -2.5630  -2.5626  -2.5001  -2.3939  -2.3798  -2.3236  -2.2625
    -1.9049  -1.8761  -1.5175  -1.1578  -1.1177  -1.0765  -0.7154  -0.3238
    -0.1791   0.1173   0.5174   0.5319   0.6138   0.7919   0.8096   1.0024
     1.1783   1.2867   1.4566   1.5781   1.8256   1.8765   1.9654

          k = 0.0589 0.0414 0.0000 ( 34589 PWs)   bands (ev):

   -49.9186 -49.8992 -49.8873 -49.8679 -49.5253 -49.5049 -28.5851 -28.5609
   -28.5477 -28.5248 -28.5239 -28.4880 -28.4835 -28.4605 -28.4539 -28.4332
   -28.3166 -28.2807 -28.2289 -28.1165 -28.0975 -28.0811 -28.0562 -28.0142
    -5.1803  -3.8804  -3.6522  -3.5846  -3.1618  -3.1590  -3.1361  -3.1218
    -3.1153  -3.0720  -2.9889  -2.9609  -2.9376  -2.8747  -2.8395  -2.8095
    -2.7563  -2.7244  -2.7132  -2.6936  -2.6736  -2.6653  -2.6361  -2.5942
    -2.5875  -2.5560  -2.5451  -2.4885  -2.3880  -2.3826  -2.3260  -2.2482
    -2.0310  -1.6382  -1.6025  -1.4531  -1.1211  -0.9981  -0.9349  -0.4458
    -0.3897   0.0945   0.3687   0.3939   0.6163   0.6668   0.7666   0.9405
     1.1307   1.3784   1.4807   1.5174   1.8271   2.0834   2.1021

          k = 0.0589 0.0571 0.0000 ( 34579 PWs)   bands (ev):

   -49.9182 -49.8995 -49.8869 -49.8683 -49.5250 -49.5052 -28.5852 -28.5612
   -28.5470 -28.5249 -28.5207 -28.4851 -28.4848 -28.4604 -28.4540 -28.4327
   -28.3202 -28.2842 -28.2253 -28.1152 -28.0988 -28.0811 -28.0565 -28.0180
    -4.9550  -3.7721  -3.7160  -3.6525  -3.1206  -3.1133  -3.1076  -3.0668
    -3.0658  -3.0294  -2.9792  -2.9642  -2.9048  -2.8696  -2.8423  -2.8078
    -2.7355  -2.7153  -2.7065  -2.6910  -2.6835  -2.6501  -2.6487  -2.6075
    -2.5868  -2.5561  -2.5268  -2.4861  -2.3880  -2.3657  -2.3367  -2.2623
    -2.1819  -2.0369  -1.6244  -1.2882  -1.2806  -0.9827  -0.9041  -0.4890
    -0.4332   0.1357   0.2653   0.2972   0.5858   0.6257   0.7565   0.9185
     1.0991   1.4321   1.4555   1.5128   1.7272   1.8818   1.9539

          k = 0.0589-0.1151 0.0000 ( 34572 PWs)   bands (ev):

   -49.9172 -49.9005 -49.8859 -49.8693 -49.5240 -49.5062 -28.5844 -28.5622
   -28.5456 -28.5257 -28.5106 -28.4854 -28.4748 -28.4594 -28.4551 -28.4331
   -28.3306 -28.2946 -28.2148 -28.1133 -28.1007 -28.0801 -28.0575 -28.0289
    -4.6750  -3.8450  -3.8449  -3.6038  -3.0934  -3.0730  -3.0644  -3.0355
    -3.0148  -2.9843  -2.9750  -2.9659  -2.8882  -2.8716  -2.8434  -2.8102
    -2.7215  -2.7188  -2.7104  -2.7050  -2.6869  -2.6609  -2.6295  -2.6120
    -2.5999  -2.5714  -2.5123  -2.5009  -2.4070  -2.3567  -2.3418  -2.3236
    -2.3099  -2.2329  -1.9348  -1.5039  -1.0973  -0.8257  -0.7991  -0.4970
    -0.3541   0.1646   0.2650   0.3739   0.5793   0.6538   0.7861   0.9362
     1.0884   1.4406   1.4528   1.5544   1.6435   1.8652   1.9772

          k = 0.0589-0.0994 0.0000 ( 34550 PWs)   bands (ev):

   -49.9156 -49.9021 -49.8843 -49.8709 -49.5224 -49.5078 -28.5828 -28.5640
   -28.5436 -28.5272 -28.4944 -28.4843 -28.4585 -28.4575 -28.4569 -28.4343
   -28.3471 -28.3112 -28.1979 -28.1110 -28.1031 -28.0783 -28.0592 -28.0462
    -4.3556  -4.1314  -3.9339  -3.4958  -3.1202  -3.0450  -3.0282  -3.0131
    -2.9898  -2.9792  -2.9658  -2.9504  -2.8848  -2.8801  -2.8433  -2.8147
    -2.7549  -2.7182  -2.7167  -2.7087  -2.6792  -2.6724  -2.6373  -2.6271
    -2.6175  -2.5926  -2.5375  -2.5241  -2.5042  -2.4372  -2.4131  -2.3578
    -2.3463  -2.2467  -2.0336  -1.6606  -1.2575  -0.5719  -0.4755  -0.4327
    -0.2520   0.1238   0.4169   0.5271   0.6881   0.7041   0.8542   0.9878
     1.1035   1.3822   1.4779   1.6156   1.6950   1.8128   1.9607

          k = 0.0589-0.0838 0.0000 ( 34532 PWs)   bands (ev):

   -49.9136 -49.9041 -49.8823 -49.8729 -49.5203 -49.5099 -28.5804 -28.5663
   -28.5412 -28.5295 -28.4818 -28.4731 -28.4592 -28.4548 -28.4373 -28.4364
   -28.3686 -28.3326 -28.1758 -28.1085 -28.1057 -28.0757 -28.0685 -28.0615
    -4.4556  -4.0560  -3.9692  -3.4253  -3.2513  -3.0542  -3.0434  -2.9995
    -2.9978  -2.9664  -2.9576  -2.9429  -2.8881  -2.8551  -2.8204  -2.8039
    -2.7813  -2.7354  -2.7241  -2.7187  -2.7017  -2.6859  -2.6563  -2.6524
    -2.6498  -2.6034  -2.5973  -2.5836  -2.5192  -2.4952  -2.4750  -2.4737
    -2.3506  -2.3433  -1.8337  -1.6442  -1.4325  -0.3565  -0.3447  -0.1648
    -0.0760   0.1936   0.5155   0.6692   0.7714   0.8865   0.9511   1.0557
     1.1495   1.2465   1.5451   1.6824   1.7743   1.8092   1.8450

          k = 0.0589-0.0681 0.0000 ( 34585 PWs)   bands (ev):

   -49.9112 -49.9065 -49.8800 -49.8753 -49.5179 -49.5123 -28.5775 -28.5690
   -28.5386 -28.5323 -28.4782 -28.4619 -28.4517 -28.4482 -28.4392 -28.4123
   -28.3936 -28.3576 -28.1500 -28.1085 -28.1059 -28.0945 -28.0726 -28.0642
    -4.7675  -4.0707  -3.6751  -3.4679  -3.3949  -3.0951  -3.0755  -3.0606
    -3.0151  -2.9497  -2.9335  -2.8895  -2.8890  -2.8526  -2.8079  -2.7822
    -2.7642  -2.7572  -2.7443  -2.7393  -2.7279  -2.7208  -2.6974  -2.6836
    -2.6509  -2.6415  -2.6392  -2.6105  -2.6076  -2.5144  -2.5141  -2.4989
    -2.3414  -2.2994  -1.8698  -1.5605  -1.2792  -0.2232  -0.1963  -0.0282
     0.1961   0.4020   0.5735   0.7682   0.8333   1.0258   1.0523   1.0670
     1.1062   1.2273   1.5907   1.5924   1.6896   1.7975   1.8268

          k = 0.0589-0.0525 0.0000 ( 34587 PWs)   bands (ev):

   -49.9090 -49.9087 -49.8778 -49.8775 -49.5153 -49.5150 -28.5743 -28.5720
   -28.5359 -28.5355 -28.4738 -28.4648 -28.4483 -28.4427 -28.4213 -28.4203
   -28.3854 -28.3843 -28.1224 -28.1222 -28.1111 -28.1033 -28.0692 -28.0671
    -5.0360  -4.0812  -3.6921  -3.4201  -3.3809  -3.1453  -3.1121  -3.1098
    -3.0549  -2.9601  -2.9373  -2.9122  -2.8653  -2.8511  -2.8391  -2.7950
    -2.7899  -2.7617  -2.7588  -2.7450  -2.7366  -2.7019  -2.6871  -2.6860
    -2.6772  -2.6599  -2.6289  -2.6167  -2.6078  -2.5361  -2.5132  -2.4878
    -2.3392  -2.2062  -1.9000  -1.6382  -0.8590  -0.1727  -0.0612   0.1156
     0.3902   0.5626   0.6781   0.8260   0.8467   0.8576   1.0562   1.0582
     1.1464   1.3085   1.4826   1.5831   1.6443   1.7322   1.8331

          k = 0.0589-0.0368 0.0000 ( 34592 PWs)   bands (ev):

   -49.9116 -49.9062 -49.8803 -49.8750 -49.5177 -49.5126 -28.5750 -28.5709
   -28.5388 -28.5333 -28.4690 -28.4680 -28.4469 -28.4467 -28.4449 -28.4110
   -28.3943 -28.3584 -28.1500 -28.1135 -28.1010 -28.0943 -28.0702 -28.0658
    -5.2438  -4.0500  -3.8766  -3.3944  -3.2541  -3.2020  -3.1459  -3.1399
    -3.1043  -3.0649  -3.0043  -2.8961  -2.8718  -2.8609  -2.8370  -2.8249
    -2.7805  -2.7709  -2.7617  -2.7185  -2.7176  -2.7007  -2.6779  -2.6651
    -2.6440  -2.6227  -2.6154  -2.5959  -2.5828  -2.5145  -2.4821  -2.4749
    -2.3392  -2.0655  -1.9031  -1.6802  -0.4527  -0.2748   0.0631   0.2515
     0.4514   0.5600   0.5874   0.7099   0.8377   0.9136   1.0399   1.0405
     1.2279   1.3537   1.3834   1.5189   1.6543   1.7156   1.8889

          k = 0.0736-0.0265 0.0000 ( 34580 PWs)   bands (ev):

   -49.9115 -49.9063 -49.8802 -49.8751 -49.5177 -49.5125 -28.5754 -28.5702
   -28.5394 -28.5337 -28.4694 -28.4658 -28.4490 -28.4473 -28.4443 -28.4114
   -28.3941 -28.3582 -28.1500 -28.1114 -28.1029 -28.0943 -28.0709 -28.0654
    -5.0566  -4.3167  -3.7596  -3.4264  -3.1506  -3.1489  -3.1406  -3.1060
    -3.0995  -3.0344  -3.0326  -2.8991  -2.8771  -2.8504  -2.8227  -2.8201
    -2.8105  -2.7800  -2.7540  -2.7133  -2.6952  -2.6893  -2.6727  -2.6604
    -2.6266  -2.6248  -2.6060  -2.6047  -2.5681  -2.5295  -2.4985  -2.4916
    -2.3138  -2.0984  -1.8313  -1.7029  -0.5545  -0.2096  -0.1494   0.0211
     0.4193   0.4437   0.4736   0.6845   0.8233   0.9659   1.0841   1.1822
     1.2120   1.2478   1.2617   1.3521   1.6943   1.8152   1.9161

          k = 0.0736-0.0108 0.0000 ( 34617 PWs)   bands (ev):

   -49.9138 -49.9040 -49.8825 -49.8727 -49.5202 -49.5101 -28.5785 -28.5670
   -28.5423 -28.5309 -28.4736 -28.4723 -28.4614 -28.4529 -28.4409 -28.4363
   -28.3689 -28.3330 -28.1758 -28.1130 -28.1012 -28.0742 -28.0683 -28.0623
    -5.1384  -4.1727  -3.8300  -3.3616  -3.2710  -3.1515  -3.1419  -3.1140
    -3.1090  -3.0727  -3.0271  -2.9227  -2.8942  -2.8427  -2.8384  -2.8164
    -2.8019  -2.7756  -2.7440  -2.7244  -2.6871  -2.6776  -2.6446  -2.6146
    -2.6112  -2.5939  -2.5775  -2.5425  -2.5303  -2.5175  -2.4693  -2.4069
    -2.3184  -2.0687  -1.7768  -1.6447  -0.7681  -0.2828  -0.1778   0.0621
     0.1293   0.2678   0.5417   0.7115   0.7712   0.9971   1.0278   1.0730
     1.1697   1.2466   1.3755   1.4404   1.6351   1.7348   1.9578

          k = 0.0736 0.0048 0.0000 ( 34597 PWs)   bands (ev):

   -49.9157 -49.9020 -49.8845 -49.8708 -49.5223 -49.5079 -28.5813 -28.5644
   -28.5446 -28.5284 -28.4937 -28.4778 -28.4580 -28.4578 -28.4562 -28.4375
   -28.3472 -28.3113 -28.1978 -28.1142 -28.0999 -28.0770 -28.0597 -28.0459
    -5.1478  -3.9927  -3.8449  -3.4222  -3.2764  -3.1435  -3.1327  -3.1117
    -3.1043  -3.0846  -3.0082  -2.9421  -2.9204  -2.8635  -2.8332  -2.8042
    -2.7854  -2.7501  -2.7385  -2.7291  -2.6904  -2.6577  -2.6207  -2.6187
    -2.6054  -2.5840  -2.5593  -2.5222  -2.4400  -2.4261  -2.4146  -2.3299
    -2.3294  -1.9768  -1.8857  -1.4284  -0.9374  -0.6195  -0.3463  -0.2043
     0.0404   0.1890   0.6110   0.6221   0.6506   0.9150   0.9254   1.0751
     1.1631   1.2084   1.4797   1.4979   1.6711   1.7329   1.9216

          k = 0.0736 0.0205 0.0000 ( 34590 PWs)   bands (ev):

   -49.9172 -49.9005 -49.8860 -49.8692 -49.5240 -49.5062 -28.5836 -28.5624
   -28.5462 -28.5263 -28.5102 -28.4818 -28.4744 -28.4588 -28.4555 -28.4348
   -28.3306 -28.2947 -28.2147 -28.1149 -28.0991 -28.0794 -28.0577 -28.0287
    -5.0854  -3.8122  -3.8045  -3.5781  -3.1847  -3.1282  -3.1218  -3.1034
    -3.0913  -3.0657  -2.9876  -2.9573  -2.9250  -2.8728  -2.8403  -2.8058
    -2.7438  -2.7408  -2.7231  -2.7165  -2.6885  -2.6454  -2.6316  -2.6093
    -2.6016  -2.5703  -2.5431  -2.5045  -2.4106  -2.3516  -2.3463  -2.3077
    -2.2432  -2.0318  -1.8113  -1.1885  -1.0336  -0.9382  -0.7788  -0.3595
    -0.1850   0.1747   0.4582   0.4897   0.6318   0.7560   0.8271   0.9886
     1.1473   1.3143   1.5032   1.5035   1.7396   1.8090   1.8805

          k = 0.0736 0.0361 0.0000 ( 34579 PWs)   bands (ev):

   -49.9182 -49.8995 -49.8869 -49.8683 -49.5250 -49.5052 -28.5852 -28.5612
   -28.5470 -28.5249 -28.5207 -28.4851 -28.4848 -28.4604 -28.4540 -28.4327
   -28.3202 -28.2842 -28.2253 -28.1152 -28.0988 -28.0811 -28.0565 -28.0180
    -4.9550  -3.7721  -3.7160  -3.6525  -3.1206  -3.1133  -3.1076  -3.0668
    -3.0658  -3.0294  -2.9792  -2.9642  -2.9048  -2.8696  -2.8423  -2.8078
    -2.7355  -2.7153  -2.7065  -2.6910  -2.6835  -2.6501  -2.6487  -2.6075
    -2.5868  -2.5561  -2.5268  -2.4861  -2.3880  -2.3657  -2.3367  -2.2623
    -2.1819  -2.0369  -1.6244  -1.2882  -1.2806  -0.9827  -0.9041  -0.4890
    -0.4332   0.1357   0.2653   0.2972   0.5858   0.6257   0.7565   0.9185
     1.0991   1.4320   1.4571   1.5127   1.7261   1.9527   2.0392

          k = 0.0736 0.0518 0.0000 ( 34588 PWs)   bands (ev):

   -49.9185 -49.8992 -49.8872 -49.8680 -49.5254 -49.5048 -28.5860 -28.5607
   -28.5471 -28.5243 -28.5241 -28.4885 -28.4871 -28.4611 -28.4536 -28.4316
   -28.3166 -28.2807 -28.2290 -28.1148 -28.0991 -28.0818 -28.0561 -28.0143
    -4.7630  -3.9214  -3.6573  -3.5928  -3.1028  -3.0937  -3.0738  -3.0398
    -3.0064  -2.9879  -2.9867  -2.9633  -2.8804  -2.8604  -2.8279  -2.8141
    -2.7161  -2.7026  -2.7007  -2.6832  -2.6688  -2.6658  -2.6598  -2.6004
    -2.5748  -2.5490  -2.5119  -2.4744  -2.3801  -2.3781  -2.3389  -2.2874
    -2.2478  -1.8321  -1.6576  -1.5562  -1.5144  -0.8965  -0.7229  -0.6091
    -0.5721   0.0958   0.1113   0.1508   0.4599   0.6209   0.7185   0.8813
     1.0684   1.3990   1.4732   1.5420   1.7146   1.9352   1.9983

          k = 0.0736-0.1204 0.0000 ( 34597 PWs)   bands (ev):

   -49.9181 -49.8996 -49.8869 -49.8683 -49.5251 -49.5051 -28.5858 -28.5611
   -28.5465 -28.5243 -28.5210 -28.4877 -28.4851 -28.4608 -28.4540 -28.4315
   -28.3202 -28.2842 -28.2254 -28.1140 -28.0999 -28.0816 -28.0564 -28.0181
    -4.5195  -4.0873  -3.6638  -3.5845  -3.0778  -3.0678  -3.0459  -3.0187
    -3.0020  -2.9667  -2.9625  -2.9438  -2.8851  -2.8562  -2.8279  -2.8088
    -2.7029  -2.7016  -2.6989  -2.6945  -2.6874  -2.6609  -2.6529  -2.5852
    -2.5765  -2.5566  -2.5021  -2.4803  -2.4033  -2.3840  -2.3425  -2.2647
    -2.2513  -2.1361  -1.7584  -1.6955  -1.3438  -0.7658  -0.7577  -0.5813
    -0.5662  -0.0180   0.1369   0.2302   0.3975   0.6317   0.7222   0.8826
     1.0572   1.3821   1.4962   1.5715   1.6702   1.8593   1.9626

          k = 0.0736-0.1047 0.0000 ( 34546 PWs)   bands (ev):

   -49.9171 -49.9005 -49.8859 -49.8693 -49.5240 -49.5061 -28.5847 -28.5622
   -28.5452 -28.5254 -28.5108 -28.4868 -28.4749 -28.4595 -28.4551 -28.4324
   -28.3306 -28.2946 -28.2148 -28.1126 -28.1013 -28.0804 -28.0575 -28.0289
    -4.2585  -4.2154  -3.8587  -3.5291  -3.0593  -3.0393  -3.0328  -3.0199
    -2.9989  -2.9737  -2.9596  -2.9132  -2.8965  -2.8642  -2.8364  -2.8285
    -2.7275  -2.7113  -2.7042  -2.7027  -2.6770  -2.6641  -2.6373  -2.6023
    -2.5921  -2.5700  -2.5078  -2.5009  -2.4046  -2.4033  -2.3903  -2.3435
    -2.3176  -2.0789  -1.9828  -1.8547  -1.0886  -0.8135  -0.6439  -0.5400
    -0.4125  -0.0214   0.3262   0.3795   0.4358   0.6616   0.7697   0.9214
     1.0681   1.4146   1.5077   1.5917   1.6298   1.8532   1.9356

          k = 0.0736-0.0891 0.0000 ( 34550 PWs)   bands (ev):

   -49.9156 -49.9021 -49.8843 -49.8709 -49.5224 -49.5078 -28.5828 -28.5640
   -28.5436 -28.5272 -28.4944 -28.4843 -28.4585 -28.4575 -28.4569 -28.4343
   -28.3471 -28.3112 -28.1979 -28.1110 -28.1031 -28.0783 -28.0592 -28.0462
    -4.3556  -4.1314  -3.9339  -3.4958  -3.1202  -3.0450  -3.0282  -3.0131
    -2.9898  -2.9792  -2.9658  -2.9504  -2.8848  -2.8801  -2.8433  -2.8147
    -2.7550  -2.7182  -2.7167  -2.7087  -2.6792  -2.6724  -2.6373  -2.6271
    -2.6175  -2.5925  -2.5375  -2.5241  -2.5042  -2.4372  -2.4131  -2.3578
    -2.3463  -2.2467  -2.0336  -1.6606  -1.2575  -0.5719  -0.4755  -0.4327
    -0.2520   0.1238   0.4169   0.5271   0.6881   0.7041   0.8542   0.9878
     1.1036   1.3822   1.4786   1.6155   1.6948   1.8148   1.9410

          k = 0.0736-0.0734 0.0000 ( 34527 PWs)   bands (ev):

   -49.9136 -49.9041 -49.8824 -49.8729 -49.5203 -49.5099 -28.5801 -28.5663
   -28.5415 -28.5298 -28.4805 -28.4730 -28.4592 -28.4547 -28.4375 -28.4368
   -28.3686 -28.3327 -28.1758 -28.1090 -28.1051 -28.0755 -28.0685 -28.0616
    -4.4275  -4.4227  -3.6402  -3.4805  -3.2772  -3.0691  -3.0502  -3.0243
    -3.0001  -2.9847  -2.9551  -2.9420  -2.9065  -2.8818  -2.8045  -2.7902
    -2.7898  -2.7331  -2.7278  -2.7258  -2.7025  -2.6668  -2.6568  -2.6393
    -2.6362  -2.6243  -2.5891  -2.5619  -2.5209  -2.5060  -2.4754  -2.4600
    -2.3214  -2.2718  -2.0616  -1.4350  -1.2966  -0.5128  -0.3597  -0.1201
    -0.0464   0.3690   0.4482   0.6744   0.7393   0.9152   0.9603   1.0523
     1.1650   1.2068   1.5219   1.6088   1.6788   1.7158   1.8934

          k = 0.0736-0.0578 0.0000 ( 34568 PWs)   bands (ev):

   -49.9113 -49.9065 -49.8800 -49.8752 -49.5179 -49.5124 -28.5770 -28.5691
   -28.5391 -28.5329 -28.4758 -28.4621 -28.4515 -28.4480 -28.4408 -28.4121
   -28.3937 -28.3577 -28.1500 -28.1073 -28.1070 -28.0945 -28.0723 -28.0644
    -4.6888  -4.4473  -3.4834  -3.4644  -3.3743  -3.1011  -3.0785  -3.0703
    -3.0173  -2.9897  -2.9381  -2.9269  -2.8741  -2.8739  -2.8314  -2.7776
    -2.7599  -2.7586  -2.7435  -2.7365  -2.7221  -2.7132  -2.6708  -2.6543
    -2.6534  -2.6444  -2.6429  -2.5890  -2.5795  -2.5213  -2.5142  -2.5111
    -2.3185  -2.1554  -2.0766  -1.5580  -0.8959  -0.4234  -0.3106   0.0538
     0.2528   0.4260   0.6439   0.7259   0.7776   0.9820   1.0518   1.0661
     1.0885   1.2218   1.4740   1.4979   1.6884   1.7311   1.8369

          k = 0.0736-0.0421 0.0000 ( 34564 PWs)   bands (ev):

   -49.9090 -49.9088 -49.8777 -49.8775 -49.5152 -49.5151 -28.5736 -28.5722
   -28.5365 -28.5362 -28.4707 -28.4655 -28.4479 -28.4448 -28.4210 -28.4205
   -28.3852 -28.3846 -28.1223 -28.1222 -28.1094 -28.1049 -28.0688 -28.0676
    -4.9045  -4.4102  -3.6341  -3.4650  -3.2069  -3.1284  -3.1064  -3.0985
    -3.0481  -3.0192  -2.9301  -2.8964  -2.8802  -2.8649  -2.8435  -2.8035
    -2.7977  -2.7759  -2.7640  -2.7463  -2.7073  -2.6886  -2.6839  -2.6730
    -2.6572  -2.6409  -2.6367  -2.6174  -2.5808  -2.5323  -2.5252  -2.5062
    -2.3146  -2.1027  -1.9935  -1.6390  -0.5042  -0.3769  -0.3020   0.1853
     0.3331   0.4925   0.6216   0.7354   0.8809   0.9004   1.0245   1.1131
     1.1662   1.2530   1.3482   1.4082   1.7526   1.7695   1.8166

          k =-0.0884 0.0318 0.0000 ( 34570 PWs)   bands (ev):

   -49.9089 -49.9089 -49.8776 -49.8776 -49.5152 -49.5151 -28.5728 -28.5727
   -28.5366 -28.5366 -28.4675 -28.4675 -28.4469 -28.4469 -28.4208 -28.4207
   -28.3849 -28.3848 -28.1223 -28.1223 -28.1071 -28.1071 -28.0682 -28.0682
    -4.6920  -4.6920  -3.5521  -3.5521  -3.1273  -3.1273  -3.0876  -3.0876
    -3.0572  -3.0571  -2.9107  -2.9106  -2.8841  -2.8841  -2.8117  -2.8117
    -2.8047  -2.8047  -2.7537  -2.7537  -2.6854  -2.6854  -2.6720  -2.6720
    -2.6487  -2.6487  -2.6260  -2.6260  -2.5487  -2.5487  -2.5233  -2.5233
    -2.2428  -2.2427  -1.7585  -1.7585  -0.4475  -0.4475  -0.1013  -0.1013
     0.4205   0.4205   0.6076   0.6076   0.9246   0.9246   1.1529   1.1530
     1.1863   1.1865   1.2628   1.2628   1.7985   1.8698   1.8709

          k =-0.0884 0.0474 0.0000 ( 34560 PWs)   bands (ev):

   -49.9114 -49.9064 -49.8801 -49.8752 -49.5178 -49.5125 -28.5761 -28.5695
   -28.5395 -28.5335 -28.4723 -28.4633 -28.4507 -28.4476 -28.4429 -28.4117
   -28.3938 -28.3579 -28.1500 -28.1090 -28.1052 -28.0944 -28.0716 -28.0648
    -4.7860  -4.5354  -3.6149  -3.4515  -3.2039  -3.1151  -3.0874  -3.0824
    -3.0732  -3.0292  -2.9847  -2.9210  -2.8649  -2.8515  -2.8483  -2.7997
    -2.7885  -2.7681  -2.7558  -2.7158  -2.6980  -2.6967  -2.6596  -2.6581
    -2.6412  -2.6371  -2.6215  -2.5817  -2.5518  -2.5395  -2.5190  -2.5039
    -2.2449  -2.2407  -1.8867  -1.6334  -0.6059  -0.4237  -0.3388   0.1178
     0.2635   0.3451   0.5670   0.7770   0.7967   1.0103   1.0333   1.0951
     1.1120   1.2224   1.3583   1.3712   1.7069   1.7426   1.9777

          k =-0.0884 0.0631 0.0000 ( 34583 PWs)   bands (ev):

   -49.9137 -49.9041 -49.8824 -49.8728 -49.5203 -49.5100 -28.5794 -28.5666
   -28.5421 -28.5305 -28.4771 -28.4727 -28.4597 -28.4542 -28.4392 -28.4367
   -28.3688 -28.3328 -28.1758 -28.1107 -28.1035 -28.0750 -28.0684 -28.0619
    -4.8137  -4.3260  -3.6394  -3.3817  -3.3251  -3.1004  -3.0730  -3.0704
    -3.0581  -3.0145  -3.0086  -2.9398  -2.8980  -2.8652  -2.8160  -2.8049
    -2.7873  -2.7493  -2.7362  -2.7235  -2.6856  -2.6768  -2.6409  -2.6331
    -2.6153  -2.6086  -2.5713  -2.5429  -2.5372  -2.5222  -2.4739  -2.4327
    -2.2435  -2.2327  -2.0280  -1.4873  -0.8163  -0.7103  -0.3362  -0.0105
     0.0499   0.2919   0.6359   0.6571   0.6894   0.9801   0.9824   1.0610
     1.1154   1.2031   1.4610   1.4904   1.6599   1.6818   1.9752

          k =-0.0884 0.0787 0.0000 ( 34580 PWs)   bands (ev):

   -49.9157 -49.9021 -49.8844 -49.8708 -49.5224 -49.5078 -28.5822 -28.5641
   -28.5441 -28.5278 -28.4942 -28.4817 -28.4583 -28.4572 -28.4570 -28.4357
   -28.3472 -28.3112 -28.1979 -28.1122 -28.1019 -28.0779 -28.0594 -28.0461
    -4.7754  -4.0838  -3.6458  -3.5866  -3.1949  -3.0802  -3.0641  -3.0589
    -3.0290  -3.0174  -2.9889  -2.9541  -2.9084  -2.8753  -2.8350  -2.7958
    -2.7598  -2.7296  -2.7267  -2.7157  -2.6840  -2.6698  -2.6299  -2.6202
    -2.6114  -2.5908  -2.5246  -2.5234  -2.4855  -2.4390  -2.4155  -2.3497
    -2.2580  -2.1647  -2.1427  -1.2994  -1.1717  -0.7914  -0.4617  -0.3505
    -0.1506   0.3029   0.3973   0.5643   0.6718   0.8010   0.8790   1.0089
     1.1412   1.2917   1.4866   1.5554   1.6700   1.7211   2.1147

          k =-0.0884 0.0944 0.0000 ( 34572 PWs)   bands (ev):

   -49.9172 -49.9005 -49.8859 -49.8693 -49.5240 -49.5062 -28.5844 -28.5622
   -28.5456 -28.5257 -28.5106 -28.4854 -28.4748 -28.4594 -28.4551 -28.4331
   -28.3306 -28.2946 -28.2148 -28.1133 -28.1007 -28.0801 -28.0575 -28.0289
    -4.6750  -3.8450  -3.8449  -3.6038  -3.0934  -3.0730  -3.0644  -3.0355
    -3.0148  -2.9843  -2.9750  -2.9659  -2.8882  -2.8716  -2.8434  -2.8102
    -2.7215  -2.7188  -2.7104  -2.7050  -2.6869  -2.6609  -2.6295  -2.6120
    -2.5999  -2.5714  -2.5123  -2.5009  -2.4070  -2.3567  -2.3418  -2.3236
    -2.3099  -2.2329  -1.9348  -1.5039  -1.0973  -0.8257  -0.7991  -0.4970
    -0.3541   0.1646   0.2650   0.3739   0.5793   0.6538   0.7861   0.9362
     1.0885   1.4417   1.4525   1.5542   1.6429   1.8655   1.9785

          k =-0.0884 0.1100 0.0000 ( 34597 PWs)   bands (ev):

   -49.9181 -49.8996 -49.8869 -49.8683 -49.5251 -49.5051 -28.5858 -28.5611
   -28.5465 -28.5243 -28.5210 -28.4877 -28.4851 -28.4608 -28.4540 -28.4315
   -28.3202 -28.2842 -28.2254 -28.1140 -28.0999 -28.0816 -28.0564 -28.0181
    -4.5195  -4.0873  -3.6638  -3.5845  -3.0778  -3.0678  -3.0459  -3.0187
    -3.0020  -2.9667  -2.9625  -2.9438  -2.8851  -2.8562  -2.8279  -2.8088
    -2.7029  -2.7016  -2.6989  -2.6945  -2.6874  -2.6609  -2.6529  -2.5852
    -2.5765  -2.5566  -2.5021  -2.4803  -2.4033  -2.3840  -2.3425  -2.2647
    -2.2513  -2.1361  -1.7584  -1.6955  -1.3438  -0.7658  -0.7577  -0.5813
    -0.5662  -0.0180   0.1369   0.2302   0.3975   0.6317   0.7222   0.8826
     1.0572   1.3816   1.4960   1.5715   1.6695   1.8587   1.9614

          k =-0.0884-0.0621 0.0000 ( 34618 PWs)   bands (ev):

   -49.9184 -49.8992 -49.8872 -49.8680 -49.5254 -49.5048 -28.5863 -28.5607
   -28.5467 -28.5245 -28.5239 -28.4887 -28.4886 -28.4613 -28.4537 -28.4310
   -28.3166 -28.2807 -28.2290 -28.1142 -28.0997 -28.0821 -28.0560 -28.0144
    -4.3333  -4.3038  -3.5956  -3.5768  -3.0808  -3.0684  -3.0252  -3.0214
    -3.0124  -2.9647  -2.9406  -2.9168  -2.9024  -2.8513  -2.8338  -2.7810
    -2.6972  -2.6932  -2.6912  -2.6902  -2.6868  -2.6670  -2.6630  -2.5709
    -2.5625  -2.5528  -2.4980  -2.4682  -2.4344  -2.3764  -2.3431  -2.2600
    -2.2485  -1.9196  -1.8611  -1.6672  -1.5371  -0.7418  -0.6848  -0.6196
    -0.6078  -0.0927  -0.0043   0.2195   0.3265   0.6226   0.6994   0.8634
     1.0470   1.3568   1.4891   1.5545   1.7606   1.8055   1.9692

     the Fermi energy is     0.4367 ev

!    total energy              =   -1335.36523206 Ry
     estimated scf accuracy    <       0.00000191 Ry
     smearing contrib. (-TS)   =      -0.06131789 Ry
     internal energy E=F+TS    =   -1335.30391417 Ry

     The total energy is F=E-TS. E is the sum of the following terms:
     one-electron contribution =   -8922.93615928 Ry
     hartree contribution      =    4524.75559628 Ry
     xc contribution           =    -384.07937058 Ry
     ewald contribution        =    3446.95601278 Ry
     electric field correction =       0.00000664 Ry

     convergence has been achieved in  18 iterations

     negative rho (up, down):  2.834E-04 0.000E+00

     Forces acting on atoms (cartesian axes, Ry/au):

     atom    1 type  1   force =    -0.00096736   -0.00068387   -0.00343165
     atom    2 type  1   force =    -0.00097080   -0.00068910   -0.00342814
     atom    3 type  2   force =     0.00001592    0.00003293    0.01556949
     atom    4 type  2   force =     0.00005073    0.00003578    0.01557526
     atom    5 type  1   force =     0.00035580    0.00026171   -0.01407286
     atom    6 type  1   force =     0.00036409    0.00025241   -0.01406863
     atom    7 type  2   force =     0.00003315    0.00000303    0.00181534
     atom    8 type  2   force =     0.00002734    0.00003844    0.00182966
     atom    9 type  1   force =     0.00038461    0.00025722   -0.00074597
     atom   10 type  1   force =     0.00037861    0.00026859   -0.00074299
     atom   11 type  2   force =     0.00017221    0.00011480    0.00085060
     atom   12 type  2   force =     0.00015571    0.00010807    0.00084989

     Total force =     0.030289     Total SCF correction =     0.002540

     Writing output data file ./Sc2Cu2/Sc2Cu2_beef.save/

     init_run     :     91.17s CPU     91.71s WALL (       1 calls)
     electrons    :   3752.60s CPU   3769.60s WALL (       1 calls)
     forces       :     53.86s CPU     54.20s WALL (       1 calls)

     Called by init_run:
     wfcinit      :     79.59s CPU     79.92s WALL (       1 calls)
     potinit      :      7.79s CPU      7.85s WALL (       1 calls)
     hinit0       :      2.05s CPU      2.06s WALL (       1 calls)

     Called by electrons:
     c_bands      :   3377.54s CPU   3386.78s WALL (      18 calls)
     sum_band     :    338.25s CPU    342.18s WALL (      18 calls)
     v_of_rho     :     24.26s CPU     25.48s WALL (      19 calls)
     newd         :     19.13s CPU     21.74s WALL (      19 calls)
     mix_rho      :      0.63s CPU      0.64s WALL (      18 calls)
     vdW_kernel   :      5.70s CPU      5.70s WALL (       1 calls)

     Called by c_bands:
     init_us_2    :      8.97s CPU      9.03s WALL (    2812 calls)
     cegterg      :   3347.07s CPU   3355.18s WALL (    1332 calls)

     Called by *egterg:
     cdiaghg      :    244.52s CPU    244.67s WALL (   11850 calls)
     h_psi        :   1612.70s CPU   1619.28s WALL (   11924 calls)
     s_psi        :    534.09s CPU    534.54s WALL (   11924 calls)
     g_psi        :      1.52s CPU      1.53s WALL (   10518 calls)

     Called by h_psi:
     h_psi:calbec :    580.53s CPU    581.48s WALL (   11924 calls)
     vloc_psi     :    493.48s CPU    498.86s WALL (   11924 calls)
     add_vuspsi   :    535.59s CPU    535.92s WALL (   11924 calls)

     General routines
     calbec       :    834.74s CPU    836.17s WALL (   13552 calls)
     fft          :     20.18s CPU     20.69s WALL (    1256 calls)
     ffts         :      0.08s CPU      0.09s WALL (      37 calls)
     fftw         :    562.14s CPU    568.15s WALL (  686410 calls)
     interpolate  :      0.28s CPU      0.29s WALL (      19 calls)

     Parallel routines
     fft_scatt_xy :     43.36s CPU     43.80s WALL (  687703 calls)
     fft_scatt_yz :    122.81s CPU    124.54s WALL (  687703 calls)

     PWSCF        :      1h 5m CPU      1h 5m WALL


   This run was terminated on:   4:55: 3  11Jul2022            

=------------------------------------------------------------------------------=
   JOB DONE.
=------------------------------------------------------------------------------=
