
     Program PWSCF v.6.6 starts on 25Jun2022 at 20:55:47 

     This program is part of the open-source Quantum ESPRESSO suite
     for quantum simulation of materials; please cite
         "P. Giannozzi et al., J. Phys.:Condens. Matter 21 395502 (2009);
         "P. Giannozzi et al., J. Phys.:Condens. Matter 29 465901 (2017);
          URL http://www.quantum-espresso.org", 
     in publications or presentations arising from this work. More details at
     http://www.quantum-espresso.org/quote

     Parallel version (MPI), running on    37 processors

     MPI processes distributed on     1 nodes
     R & G space division:  proc/nbgrp/npool/nimage =      37
     Fft bands division:     nmany     =       1
     Reading input from Sc2Hf2.in
Warning: card &CELL ignored
Warning: card / ignored

     Current dimensions of program PWSCF are:
     Max number of different atomic species (ntypx) = 10
     Max number of k-points (npk) =  40000
     Max angular momentum in pseudopotentials (lmaxx) =  3
     Presently stress not available with electric field and gates

     Message from routine cell_base_init:
     DEPRECATED: use true lattice parameter, not A to a.u. conversion factor
     file Sc.pbe-spn-rrkjus_psl.1.0.0.UPF: wavefunction(s)  3S 3P renormalized

     **************************************************************************
     Initializing libbeef V0.1.2 with the BEEF-vdW functional.
     Citation: Wellendorff et al., PRB 85, 235149 (2012).
     **************************************************************************


     IMPORTANT: XC functional enforced from input :
     Exchange-correlation= BEEF-VDW
                           (   1   4  43  14   2   0   0)
     Any further DFT definition will be discarded
     Please, verify this is what you really want


     Subspace diagonalization in iterative solution of the eigenvalue problem:
     a serial algorithm will be used


     Parallelization info
     --------------------
     sticks:   dense  smooth     PW     G-vecs:    dense   smooth      PW
     Min         149      59     17                35299     8925    1366
     Max         150      60     18                35307     8940    1371
     Sum        5515    2209    637              1306185   330525   50613



     bravais-lattice index     =            0
     lattice parameter (alat)  =       1.8897  a.u.
     unit-cell volume          =    5976.0804 (a.u.)^3
     number of atoms/cell      =           12
     number of atomic types    =            2
     number of electrons       =       138.00
     number of Kohn-Sham states=           83
     kinetic-energy cutoff     =      55.1240  Ry
     charge density cutoff     =     551.2396  Ry
     convergence threshold     =      1.0E-05
     mixing beta               =       0.1000
     number of iterations used =           10  plain     mixing
     Exchange-correlation= BEEF-VDW
                           (   1   4  43  14   2   0   0)

     celldm(1)=   1.889726  celldm(2)=   0.000000  celldm(3)=   0.000000
     celldm(4)=   0.000000  celldm(5)=   0.000000  celldm(6)=   0.000000

     crystal axes: (cart. coord. in units of alat)
               a(1) = (   6.321569   0.000000   0.000000 )  
               a(2) = (  -3.160785   5.558922   0.000000 )  
               a(3) = (   0.000000   0.000000  25.200227 )  

     reciprocal axes: (cart. coord. in units 2 pi/alat)
               b(1) = (  0.158189  0.089946 -0.000000 )  
               b(2) = (  0.000000  0.179891  0.000000 )  
               b(3) = (  0.000000 -0.000000  0.039682 )  


     PseudoPot. # 1 for Sc read from file:
     ../pseudo/Sc.pbe-spn-rrkjus_psl.1.0.0.UPF
     MD5 check sum: f739f74c200e509e5c24cbe053202ee5
     Pseudo is Ultrasoft + core correction, Zval = 11.0
     Generated using "atomic" code by A. Dal Corso v.6.2.2
     Using radial grid of 1173 points,  6 beta functions with: 
                l(1) =   0
                l(2) =   0
                l(3) =   1
                l(4) =   1
                l(5) =   2
                l(6) =   2
     Q(r) pseudized with 0 coefficients 


     PseudoPot. # 2 for Hf read from file:
     ../pseudo/Hf.pbe-spn-rrkjus_psl.1.0.0.UPF
     MD5 check sum: 9605440c6f839e558204c6a924125fd0
     Pseudo is Ultrasoft + core correction, Zval = 12.0
     Generated using "atomic" code by A. Dal Corso v.6.2.2
     Using radial grid of 1271 points,  6 beta functions with: 
                l(1) =   0
                l(2) =   0
                l(3) =   1
                l(4) =   1
                l(5) =   2
                l(6) =   2
     Q(r) pseudized with 0 coefficients 


     atomic species   valence    mass     pseudopotential
        Sc            11.00    44.95591     Sc( 1.00)
        Hf            12.00   178.49000     Hf( 1.00)

     No symmetry found



   Cartesian axes

     site n.     atom                  positions (alat units)
         1           Sc  tau(   1) = (   0.0000000   0.0000000  10.0000000  )
         2           Sc  tau(   2) = (   3.1607846   0.0000000  10.0000000  )
         3           Hf  tau(   3) = (   1.5803923   2.7794608  10.0000000  )
         4           Hf  tau(   4) = (  -1.5803923   2.7794608  10.0000000  )
         5           Sc  tau(   5) = (   3.1607846   1.7972117  12.6001133  )
         6           Sc  tau(   6) = (  -0.0000000   1.7972117  12.6001133  )
         7           Hf  tau(   7) = (  -1.5803923   4.5766725  12.6001133  )
         8           Hf  tau(   8) = (   1.5803923   4.5766725  12.6001133  )
         9           Sc  tau(   9) = (   0.0000079   3.6100791  15.1920958  )
        10           Sc  tau(  10) = (   3.1607734   3.6097393  15.1921793  )
        11           Hf  tau(  11) = (   4.7415035   0.7939968  15.0341800  )
        12           Hf  tau(  12) = (   1.5800697   0.7939864  15.0341758  )

     number of k points=    74  Fermi-Dirac smearing, width (Ry)=  0.0100
                       cart. coord. in units 2pi/alat
        k(    1) = (   0.0000000   0.0000000   0.0000000), wk =   0.0138889
        k(    2) = (   0.0000000   0.0149909   0.0000000), wk =   0.0277778
        k(    3) = (   0.0000000   0.0299818   0.0000000), wk =   0.0277778
        k(    4) = (   0.0000000   0.0449727   0.0000000), wk =   0.0277778
        k(    5) = (   0.0000000   0.0599637   0.0000000), wk =   0.0277778
        k(    6) = (   0.0000000   0.0749546   0.0000000), wk =   0.0277778
        k(    7) = (   0.0000000  -0.0899455   0.0000000), wk =   0.0138889
        k(    8) = (   0.0131824   0.0074955   0.0000000), wk =   0.0277778
        k(    9) = (   0.0131824   0.0224864   0.0000000), wk =   0.0277778
        k(   10) = (   0.0131824   0.0374773   0.0000000), wk =   0.0277778
        k(   11) = (   0.0131824   0.0524682   0.0000000), wk =   0.0277778
        k(   12) = (   0.0131824   0.0674591   0.0000000), wk =   0.0277778
        k(   13) = (   0.0131824   0.0824500   0.0000000), wk =   0.0277778
        k(   14) = (   0.0131824  -0.0824500   0.0000000), wk =   0.0277778
        k(   15) = (   0.0131824  -0.0674591   0.0000000), wk =   0.0277778
        k(   16) = (   0.0131824  -0.0524682   0.0000000), wk =   0.0277778
        k(   17) = (   0.0131824  -0.0374773   0.0000000), wk =   0.0277778
        k(   18) = (   0.0131824  -0.0224864   0.0000000), wk =   0.0277778
        k(   19) = (   0.0131824  -0.0074955   0.0000000), wk =   0.0277778
        k(   20) = (   0.0263648   0.0149909   0.0000000), wk =   0.0277778
        k(   21) = (   0.0263648   0.0299818   0.0000000), wk =   0.0277778
        k(   22) = (   0.0263648   0.0449728   0.0000000), wk =   0.0277778
        k(   23) = (   0.0263648   0.0599637   0.0000000), wk =   0.0277778
        k(   24) = (   0.0263648   0.0749546   0.0000000), wk =   0.0277778
        k(   25) = (   0.0263648   0.0899455   0.0000000), wk =   0.0277778
        k(   26) = (   0.0263648  -0.0749546   0.0000000), wk =   0.0277778
        k(   27) = (   0.0263648  -0.0599637   0.0000000), wk =   0.0277778
        k(   28) = (   0.0263648  -0.0449727   0.0000000), wk =   0.0277778
        k(   29) = (   0.0263648  -0.0299818   0.0000000), wk =   0.0277778
        k(   30) = (   0.0263648  -0.0149909   0.0000000), wk =   0.0277778
        k(   31) = (   0.0263648   0.0000000   0.0000000), wk =   0.0277778
        k(   32) = (   0.0395471   0.0224864   0.0000000), wk =   0.0277778
        k(   33) = (   0.0395471   0.0374773   0.0000000), wk =   0.0277778
        k(   34) = (   0.0395471   0.0524682   0.0000000), wk =   0.0277778
        k(   35) = (   0.0395471   0.0674591   0.0000000), wk =   0.0277778
        k(   36) = (   0.0395471   0.0824500   0.0000000), wk =   0.0277778
        k(   37) = (   0.0395471   0.0974410   0.0000000), wk =   0.0277778
        k(   38) = (   0.0395471  -0.0674591   0.0000000), wk =   0.0277778
        k(   39) = (   0.0395471  -0.0524682   0.0000000), wk =   0.0277778
        k(   40) = (   0.0395471  -0.0374773   0.0000000), wk =   0.0277778
        k(   41) = (   0.0395471  -0.0224864   0.0000000), wk =   0.0277778
        k(   42) = (   0.0395471  -0.0074955   0.0000000), wk =   0.0277778
        k(   43) = (   0.0395471   0.0074955   0.0000000), wk =   0.0277778
        k(   44) = (   0.0527295   0.0299818   0.0000000), wk =   0.0277778
        k(   45) = (   0.0527295   0.0449728   0.0000000), wk =   0.0277778
        k(   46) = (   0.0527295   0.0599637   0.0000000), wk =   0.0277778
        k(   47) = (   0.0527295   0.0749546   0.0000000), wk =   0.0277778
        k(   48) = (   0.0527295   0.0899455   0.0000000), wk =   0.0277778
        k(   49) = (   0.0527295   0.1049364   0.0000000), wk =   0.0277778
        k(   50) = (   0.0527295  -0.0599637   0.0000000), wk =   0.0277778
        k(   51) = (   0.0527295  -0.0449727   0.0000000), wk =   0.0277778
        k(   52) = (   0.0527295  -0.0299818   0.0000000), wk =   0.0277778
        k(   53) = (   0.0527295  -0.0149909   0.0000000), wk =   0.0277778
        k(   54) = (   0.0527295   0.0000000   0.0000000), wk =   0.0277778
        k(   55) = (   0.0527295   0.0149909   0.0000000), wk =   0.0277778
        k(   56) = (   0.0659119   0.0374773   0.0000000), wk =   0.0277778
        k(   57) = (   0.0659119   0.0524682   0.0000000), wk =   0.0277778
        k(   58) = (   0.0659119   0.0674591   0.0000000), wk =   0.0277778
        k(   59) = (   0.0659119   0.0824500   0.0000000), wk =   0.0277778
        k(   60) = (   0.0659119   0.0974410   0.0000000), wk =   0.0277778
        k(   61) = (   0.0659119   0.1124319   0.0000000), wk =   0.0277778
        k(   62) = (   0.0659119  -0.0524682   0.0000000), wk =   0.0277778
        k(   63) = (   0.0659119  -0.0374773   0.0000000), wk =   0.0277778
        k(   64) = (   0.0659119  -0.0224864   0.0000000), wk =   0.0277778
        k(   65) = (   0.0659119  -0.0074955   0.0000000), wk =   0.0277778
        k(   66) = (   0.0659119   0.0074955   0.0000000), wk =   0.0277778
        k(   67) = (   0.0659119   0.0224864   0.0000000), wk =   0.0277778
        k(   68) = (  -0.0790943  -0.0449728   0.0000000), wk =   0.0138889
        k(   69) = (  -0.0790943  -0.0299818   0.0000000), wk =   0.0277778
        k(   70) = (  -0.0790943  -0.0149909   0.0000000), wk =   0.0277778
        k(   71) = (  -0.0790943  -0.0000000   0.0000000), wk =   0.0277778
        k(   72) = (  -0.0790943   0.0149909   0.0000000), wk =   0.0277778
        k(   73) = (  -0.0790943   0.0299818   0.0000000), wk =   0.0277778
        k(   74) = (  -0.0790943  -0.1349183   0.0000000), wk =   0.0138889

     Dense  grid:  1306185 G-vectors     FFT dimensions: (  90,  96, 360)

     Smooth grid:   330525 G-vectors     FFT dimensions: (  60,  60, 225)

     Estimated max dynamical RAM per process >     246.19 MB

     Estimated total dynamical RAM >       8.90 GB

     Initial potential from superposition of free atoms

     starting charge  137.97300, renormalised to  138.00000

     negative rho (up, down):  5.583E-04 0.000E+00


     %%%%%%%%%%%%%%%%%%%%%%%%%%%%%%%%%%%%%%%%%%%%%%%%%%%%%%%%%%%%%%%%%%%%%%%%
     %                                                                      %
     % You are using vdW-DF, which was implemented by the Thonhauser group. %
     % Please cite the following two papers that made this development      %
     % possible and the two reviews that describe the various versions:     %
     %                                                                      %
     %   T. Thonhauser et al., PRL 115, 136402 (2015).                      %
     %   T. Thonhauser et al., PRB 76, 125112 (2007).                       %
     %   K. Berland et al., Rep. Prog. Phys. 78, 066501 (2015).             %
     %   D.C. Langreth et al., J. Phys.: Condens. Matter 21, 084203 (2009). %
     %                                                                      %
     %                                                                      %
     % If you are calculating the stress with vdW-DF, please also cite:     %
     %                                                                      %
     %   R. Sabatini et al., J. Phys.: Condens. Matter 24, 424209 (2012).   %
     %                                                                      %
     %%%%%%%%%%%%%%%%%%%%%%%%%%%%%%%%%%%%%%%%%%%%%%%%%%%%%%%%%%%%%%%%%%%%%%%%



     Adding external electric field

     Computed dipole along edir(3) : 
        Dipole                0.0002 Ry au,          0.0006 Debye
        Dipole field          0.0000 Ry au, 

        Potential amp.       -0.0000 Ry
        Total length         46.4310 bohr

     Starting wfcs are  120 randomized atomic wfcs

     total cpu time spent up to now is      221.7 secs

     Self-consistent Calculation

     iteration #  1     ecut=    55.12 Ry     beta= 0.10
     Davidson diagonalization with overlap
     ethr =  1.00E-02,  avg # of iterations =  2.0

     negative rho (up, down):  2.515E-04 0.000E+00

     Adding external electric field

     Computed dipole along edir(3) : 
        Dipole               -0.2229 Ry au,         -0.5664 Debye
        Dipole field         -0.0005 Ry au, 

        Potential amp.        0.0435 Ry
        Total length         46.4310 bohr


     total cpu time spent up to now is      550.0 secs

     total energy              =   -1347.00969494 Ry
     estimated scf accuracy    <       5.82618208 Ry

     iteration #  2     ecut=    55.12 Ry     beta= 0.10
     Davidson diagonalization with overlap
     ethr =  4.22E-03,  avg # of iterations =  2.9

     negative rho (up, down):  2.021E-04 0.000E+00

     Adding external electric field

     Computed dipole along edir(3) : 
        Dipole                0.6056 Ry au,          1.5393 Debye
        Dipole field          0.0013 Ry au, 

        Potential amp.       -0.1183 Ry
        Total length         46.4310 bohr


     total cpu time spent up to now is     1065.6 secs

     total energy              =   -1347.60986609 Ry
     estimated scf accuracy    <       2.44629613 Ry

     iteration #  3     ecut=    55.12 Ry     beta= 0.10
     Davidson diagonalization with overlap
     ethr =  1.77E-03,  avg # of iterations =  9.1

     negative rho (up, down):  1.869E-04 0.000E+00

     Adding external electric field

     Computed dipole along edir(3) : 
        Dipole               -0.1158 Ry au,         -0.2943 Debye
        Dipole field         -0.0002 Ry au, 

        Potential amp.        0.0226 Ry
        Total length         46.4310 bohr


     total cpu time spent up to now is     1280.1 secs

     total energy              =   -1347.64059339 Ry
     estimated scf accuracy    <      23.42110204 Ry

     iteration #  4     ecut=    55.12 Ry     beta= 0.10
     Davidson diagonalization with overlap
     ethr =  1.77E-03,  avg # of iterations =  2.0

     negative rho (up, down):  1.739E-04 0.000E+00

     Adding external electric field

     Computed dipole along edir(3) : 
        Dipole               -0.1127 Ry au,         -0.2865 Debye
        Dipole field         -0.0002 Ry au, 

        Potential amp.        0.0220 Ry
        Total length         46.4310 bohr


     total cpu time spent up to now is     1448.7 secs

     total energy              =   -1347.92182538 Ry
     estimated scf accuracy    <       0.38878814 Ry

     iteration #  5     ecut=    55.12 Ry     beta= 0.10
     Davidson diagonalization with overlap
     c_bands:  1 eigenvalues not converged
     c_bands:  2 eigenvalues not converged
     c_bands:  4 eigenvalues not converged
     c_bands:  3 eigenvalues not converged
     c_bands:  2 eigenvalues not converged
     ethr =  2.82E-04,  avg # of iterations = 12.6

     negative rho (up, down):  1.788E-04 0.000E+00

     Adding external electric field

     Computed dipole along edir(3) : 
        Dipole                0.1759 Ry au,          0.4471 Debye
        Dipole field          0.0004 Ry au, 

        Potential amp.       -0.0343 Ry
        Total length         46.4310 bohr


     total cpu time spent up to now is     2017.6 secs

     total energy              =   -1347.95879423 Ry
     estimated scf accuracy    <       0.66906650 Ry

     iteration #  6     ecut=    55.12 Ry     beta= 0.10
     Davidson diagonalization with overlap
     ethr =  2.82E-04,  avg # of iterations =  2.0

     negative rho (up, down):  1.891E-04 0.000E+00

     Adding external electric field

     Computed dipole along edir(3) : 
        Dipole                0.1923 Ry au,          0.4888 Debye
        Dipole field          0.0004 Ry au, 

        Potential amp.       -0.0375 Ry
        Total length         46.4310 bohr


     total cpu time spent up to now is     2188.5 secs

     total energy              =   -1348.00655195 Ry
     estimated scf accuracy    <       1.22519695 Ry

     iteration #  7     ecut=    55.12 Ry     beta= 0.10
     Davidson diagonalization with overlap
     ethr =  2.82E-04,  avg # of iterations =  1.1

     negative rho (up, down):  2.076E-04 0.000E+00

     Adding external electric field

     Computed dipole along edir(3) : 
        Dipole                0.0866 Ry au,          0.2201 Debye
        Dipole field          0.0002 Ry au, 

        Potential amp.       -0.0169 Ry
        Total length         46.4310 bohr


     total cpu time spent up to now is     2641.2 secs

     total energy              =   -1347.95473830 Ry
     estimated scf accuracy    <       1.07611686 Ry

     iteration #  8     ecut=    55.12 Ry     beta= 0.10
     Davidson diagonalization with overlap
     ethr =  2.82E-04,  avg # of iterations =  1.5

     negative rho (up, down):  2.086E-04 0.000E+00

     Adding external electric field

     Computed dipole along edir(3) : 
        Dipole                0.0042 Ry au,          0.0106 Debye
        Dipole field          0.0000 Ry au, 

        Potential amp.       -0.0008 Ry
        Total length         46.4310 bohr


     total cpu time spent up to now is     3045.9 secs

     total energy              =   -1347.97621501 Ry
     estimated scf accuracy    <       0.08728853 Ry

     iteration #  9     ecut=    55.12 Ry     beta= 0.10
     Davidson diagonalization with overlap
     c_bands:  5 eigenvalues not converged
     c_bands:  3 eigenvalues not converged
     c_bands:  1 eigenvalues not converged
     ethr =  6.33E-05,  avg # of iterations =  9.0

     negative rho (up, down):  2.924E-04 0.000E+00

     Adding external electric field

     Computed dipole along edir(3) : 
        Dipole               -0.0411 Ry au,         -0.1046 Debye
        Dipole field         -0.0001 Ry au, 

        Potential amp.        0.0080 Ry
        Total length         46.4310 bohr


     total cpu time spent up to now is     3276.9 secs

     total energy              =   -1347.98049374 Ry
     estimated scf accuracy    <       0.02674572 Ry

     iteration # 10     ecut=    55.12 Ry     beta= 0.10
     Davidson diagonalization with overlap
     c_bands:  1 eigenvalues not converged
     c_bands:  1 eigenvalues not converged
     c_bands:  4 eigenvalues not converged
     c_bands:  4 eigenvalues not converged
     c_bands:  1 eigenvalues not converged
     c_bands:  3 eigenvalues not converged
     c_bands:  4 eigenvalues not converged
     c_bands:  1 eigenvalues not converged
     c_bands:  1 eigenvalues not converged
     c_bands:  1 eigenvalues not converged
     ethr =  1.94E-05,  avg # of iterations = 12.3

     negative rho (up, down):  2.940E-04 0.000E+00

     Adding external electric field

     Computed dipole along edir(3) : 
        Dipole                0.0301 Ry au,          0.0765 Debye
        Dipole field          0.0001 Ry au, 

        Potential amp.       -0.0059 Ry
        Total length         46.4310 bohr


     total cpu time spent up to now is     4067.7 secs

     total energy              =   -1347.98611303 Ry
     estimated scf accuracy    <       0.06243286 Ry

     iteration # 11     ecut=    55.12 Ry     beta= 0.10
     Davidson diagonalization with overlap
     ethr =  1.94E-05,  avg # of iterations =  2.4

     negative rho (up, down):  3.014E-04 0.000E+00

     Adding external electric field

     Computed dipole along edir(3) : 
        Dipole                0.0243 Ry au,          0.0618 Debye
        Dipole field          0.0001 Ry au, 

        Potential amp.       -0.0047 Ry
        Total length         46.4310 bohr


     total cpu time spent up to now is     4231.8 secs

     total energy              =   -1347.98599865 Ry
     estimated scf accuracy    <       0.00599966 Ry

     iteration # 12     ecut=    55.12 Ry     beta= 0.10
     Davidson diagonalization with overlap
     c_bands:  4 eigenvalues not converged
     c_bands:  1 eigenvalues not converged
     c_bands:  1 eigenvalues not converged
     c_bands:  1 eigenvalues not converged
     c_bands:  5 eigenvalues not converged
     c_bands:  4 eigenvalues not converged
     c_bands:  3 eigenvalues not converged
     c_bands:  1 eigenvalues not converged
     c_bands:  1 eigenvalues not converged
     c_bands:  2 eigenvalues not converged
     c_bands:  1 eigenvalues not converged
     c_bands:  5 eigenvalues not converged
     c_bands:  4 eigenvalues not converged
     c_bands:  1 eigenvalues not converged
     c_bands:  1 eigenvalues not converged
     c_bands:  1 eigenvalues not converged
     c_bands:  1 eigenvalues not converged
     c_bands:  1 eigenvalues not converged
     c_bands:  1 eigenvalues not converged
     c_bands:  1 eigenvalues not converged
     c_bands:  1 eigenvalues not converged
     c_bands:  1 eigenvalues not converged
     c_bands:  1 eigenvalues not converged
     c_bands:  1 eigenvalues not converged
     c_bands:  2 eigenvalues not converged
     c_bands:  1 eigenvalues not converged
     c_bands:  1 eigenvalues not converged
     c_bands:  1 eigenvalues not converged
     c_bands:  1 eigenvalues not converged
     c_bands:  2 eigenvalues not converged
     c_bands:  2 eigenvalues not converged
     c_bands:  1 eigenvalues not converged
     c_bands:  1 eigenvalues not converged
     ethr =  4.35E-06,  avg # of iterations = 16.6

     negative rho (up, down):  2.972E-04 0.000E+00

     Adding external electric field

     Computed dipole along edir(3) : 
        Dipole                0.0164 Ry au,          0.0416 Debye
        Dipole field          0.0000 Ry au, 

        Potential amp.       -0.0032 Ry
        Total length         46.4310 bohr


     total cpu time spent up to now is     4731.4 secs

     total energy              =   -1347.98755107 Ry
     estimated scf accuracy    <       0.00485786 Ry

     iteration # 13     ecut=    55.12 Ry     beta= 0.10
     Davidson diagonalization with overlap
     c_bands:  3 eigenvalues not converged
     c_bands:  1 eigenvalues not converged
     c_bands:  1 eigenvalues not converged
     ethr =  3.52E-06,  avg # of iterations =  4.1

     negative rho (up, down):  2.981E-04 0.000E+00

     Adding external electric field

     Computed dipole along edir(3) : 
        Dipole                0.0074 Ry au,          0.0189 Debye
        Dipole field          0.0000 Ry au, 

        Potential amp.       -0.0015 Ry
        Total length         46.4310 bohr


     total cpu time spent up to now is     5076.2 secs

     total energy              =   -1347.98776024 Ry
     estimated scf accuracy    <       0.00083648 Ry

     iteration # 14     ecut=    55.12 Ry     beta= 0.10
     Davidson diagonalization with overlap
     c_bands:  1 eigenvalues not converged
     c_bands:  1 eigenvalues not converged
     c_bands:  1 eigenvalues not converged
     c_bands:  1 eigenvalues not converged
     c_bands:  1 eigenvalues not converged
     c_bands:  1 eigenvalues not converged
     c_bands:  1 eigenvalues not converged
     c_bands:  1 eigenvalues not converged
     c_bands:  1 eigenvalues not converged
     c_bands:  1 eigenvalues not converged
     ethr =  6.06E-07,  avg # of iterations = 12.6

     negative rho (up, down):  3.005E-04 0.000E+00

     Adding external electric field

     Computed dipole along edir(3) : 
        Dipole                0.0061 Ry au,          0.0155 Debye
        Dipole field          0.0000 Ry au, 

        Potential amp.       -0.0012 Ry
        Total length         46.4310 bohr


     total cpu time spent up to now is     5390.0 secs

     total energy              =   -1347.98790120 Ry
     estimated scf accuracy    <       0.00196899 Ry

     iteration # 15     ecut=    55.12 Ry     beta= 0.10
     Davidson diagonalization with overlap
     ethr =  6.06E-07,  avg # of iterations =  2.5

     negative rho (up, down):  2.975E-04 0.000E+00

     Adding external electric field

     Computed dipole along edir(3) : 
        Dipole                0.0069 Ry au,          0.0175 Debye
        Dipole field          0.0000 Ry au, 

        Potential amp.       -0.0013 Ry
        Total length         46.4310 bohr


     total cpu time spent up to now is     5817.6 secs

     total energy              =   -1347.98792824 Ry
     estimated scf accuracy    <       0.00068823 Ry

     iteration # 16     ecut=    55.12 Ry     beta= 0.10
     Davidson diagonalization with overlap
     ethr =  4.99E-07,  avg # of iterations =  2.2

     negative rho (up, down):  2.970E-04 0.000E+00

     Adding external electric field

     Computed dipole along edir(3) : 
        Dipole                0.0016 Ry au,          0.0040 Debye
        Dipole field          0.0000 Ry au, 

        Potential amp.       -0.0003 Ry
        Total length         46.4310 bohr


     total cpu time spent up to now is     6045.5 secs

     total energy              =   -1347.98796457 Ry
     estimated scf accuracy    <       0.00024317 Ry

     iteration # 17     ecut=    55.12 Ry     beta= 0.10
     Davidson diagonalization with overlap
     c_bands:  2 eigenvalues not converged
     c_bands:  1 eigenvalues not converged
     ethr =  1.76E-07,  avg # of iterations = 10.1

     negative rho (up, down):  2.947E-04 0.000E+00

     Adding external electric field

     Computed dipole along edir(3) : 
        Dipole                0.0027 Ry au,          0.0069 Debye
        Dipole field          0.0000 Ry au, 

        Potential amp.       -0.0005 Ry
        Total length         46.4310 bohr


     total cpu time spent up to now is     6499.1 secs

     total energy              =   -1347.98802658 Ry
     estimated scf accuracy    <       0.00023845 Ry

     iteration # 18     ecut=    55.12 Ry     beta= 0.10
     Davidson diagonalization with overlap
     ethr =  1.73E-07,  avg # of iterations =  2.0

     negative rho (up, down):  2.940E-04 0.000E+00

     Adding external electric field

     Computed dipole along edir(3) : 
        Dipole                0.0051 Ry au,          0.0130 Debye
        Dipole field          0.0000 Ry au, 

        Potential amp.       -0.0010 Ry
        Total length         46.4310 bohr


     total cpu time spent up to now is     6835.4 secs

     total energy              =   -1347.98801558 Ry
     estimated scf accuracy    <       0.00011130 Ry

     iteration # 19     ecut=    55.12 Ry     beta= 0.10
     Davidson diagonalization with overlap
     ethr =  8.07E-08,  avg # of iterations =  2.9

     negative rho (up, down):  2.916E-04 0.000E+00

     Adding external electric field

     Computed dipole along edir(3) : 
        Dipole                0.0046 Ry au,          0.0116 Debye
        Dipole field          0.0000 Ry au, 

        Potential amp.       -0.0009 Ry
        Total length         46.4310 bohr


     total cpu time spent up to now is     7028.0 secs

     total energy              =   -1347.98802701 Ry
     estimated scf accuracy    <       0.00001690 Ry

     iteration # 20     ecut=    55.12 Ry     beta= 0.10
     Davidson diagonalization with overlap
     c_bands:  1 eigenvalues not converged
     c_bands:  1 eigenvalues not converged
     ethr =  1.22E-08,  avg # of iterations = 13.6

     negative rho (up, down):  2.905E-04 0.000E+00

     Adding external electric field

     Computed dipole along edir(3) : 
        Dipole                0.0047 Ry au,          0.0119 Debye
        Dipole field          0.0000 Ry au, 

        Potential amp.       -0.0009 Ry
        Total length         46.4310 bohr


     total cpu time spent up to now is     7558.3 secs

     total energy              =   -1347.98803738 Ry
     estimated scf accuracy    <       0.00001276 Ry

     iteration # 21     ecut=    55.12 Ry     beta= 0.10
     Davidson diagonalization with overlap
     ethr =  9.25E-09,  avg # of iterations =  2.2

     negative rho (up, down):  2.800E-04 0.000E+00

     Adding external electric field

     Computed dipole along edir(3) : 
        Dipole                0.0001 Ry au,          0.0002 Debye
        Dipole field          0.0000 Ry au, 

        Potential amp.       -0.0000 Ry
        Total length         46.4310 bohr


     total cpu time spent up to now is     7940.4 secs

     End of self-consistent calculation

          k = 0.0000 0.0000 0.0000 ( 41327 PWs)   bands (ev):

   -61.7550 -61.7354 -61.5668 -61.5470 -61.1833 -61.1633 -48.8777 -48.8714
   -48.8491 -48.8429 -48.2837 -48.2547 -30.3634 -30.3081 -30.2624 -30.2355
   -30.2210 -30.1835 -30.1421 -30.0944 -30.0799 -30.0273 -29.9531 -29.8798
   -29.8038 -29.7102 -29.6544 -29.6010 -29.5567 -29.4600 -27.5913 -27.5818
   -27.5029 -27.4988 -27.4779 -27.4703 -27.4180 -27.4102 -27.3993 -27.3907
   -27.3253 -27.3172 -26.9987 -26.8918 -26.8665 -26.8504 -26.8308 -26.7303
    -4.8067  -3.6065  -2.2788  -1.5167  -1.3514  -1.2772  -1.1998  -1.1798
    -0.9988  -0.8109  -0.8045  -0.7988  -0.2238  -0.2149  -0.1721   0.1638
     0.3748   0.4656   0.9240   1.0224   1.4044   1.4769   1.4770   1.5035
     1.5545   1.5588   1.7235   2.0370   2.1888   2.2003   2.2146   2.3252
     2.3493   2.3585   2.4243

          k = 0.0000 0.0150 0.0000 ( 41303 PWs)   bands (ev):

   -61.7550 -61.7354 -61.5668 -61.5470 -61.1833 -61.1633 -48.8777 -48.8714
   -48.8491 -48.8429 -48.2837 -48.2547 -30.3630 -30.3079 -30.2623 -30.2346
   -30.2205 -30.1830 -30.1419 -30.0943 -30.0791 -30.0268 -29.9530 -29.8795
   -29.8038 -29.7096 -29.6543 -29.6008 -29.5566 -29.4599 -27.5920 -27.5824
   -27.5046 -27.4975 -27.4784 -27.4699 -27.4196 -27.4115 -27.4000 -27.3913
   -27.3254 -27.3172 -26.9993 -26.8919 -26.8665 -26.8515 -26.8313 -26.7304
    -4.7634  -3.5679  -2.2537  -1.5176  -1.3365  -1.3256  -1.1908  -1.1722
    -1.0048  -0.7619  -0.7556  -0.7265  -0.2038  -0.1939  -0.1474   0.1680
     0.3828   0.4776   0.9217   1.0259   1.3274   1.4541   1.4609   1.4683
     1.5566   1.5650   1.6927   2.0080   2.1070   2.1430   2.1755   2.2486
     2.2984   2.3086   2.4530

          k = 0.0000 0.0300 0.0000 ( 41309 PWs)   bands (ev):

   -61.7550 -61.7354 -61.5668 -61.5470 -61.1833 -61.1633 -48.8777 -48.8715
   -48.8491 -48.8429 -48.2837 -48.2547 -30.3620 -30.3075 -30.2621 -30.2322
   -30.2194 -30.1819 -30.1415 -30.0940 -30.0767 -30.0256 -29.9529 -29.8785
   -29.8036 -29.7079 -29.6539 -29.6002 -29.5565 -29.4598 -27.5939 -27.5842
   -27.5073 -27.4954 -27.4795 -27.4690 -27.4240 -27.4151 -27.4018 -27.3928
   -27.3256 -27.3174 -27.0011 -26.8925 -26.8667 -26.8546 -26.8325 -26.7306
    -4.6358  -3.4566  -2.2034  -1.5200  -1.4707  -1.2514  -1.2105  -1.0927
    -0.9712  -0.6549  -0.6546  -0.5320  -0.1447  -0.1332  -0.0747   0.1791
     0.4062   0.5112   0.9062   1.0303   1.1864   1.3719   1.3829   1.3896
     1.4842   1.5615   1.5998   1.8983   1.9616   1.9970   2.0677   2.1272
     2.1574   2.1972   2.2732

          k = 0.0000 0.0450 0.0000 ( 41225 PWs)   bands (ev):

   -61.7550 -61.7354 -61.5668 -61.5470 -61.1833 -61.1633 -48.8777 -48.8715
   -48.8491 -48.8429 -48.2838 -48.2547 -30.3605 -30.3069 -30.2619 -30.2288
   -30.2179 -30.1803 -30.1408 -30.0937 -30.0734 -30.0239 -29.9527 -29.8772
   -29.8034 -29.7056 -29.6535 -29.5993 -29.5563 -29.4597 -27.5964 -27.5865
   -27.5100 -27.4936 -27.4808 -27.4681 -27.4298 -27.4200 -27.4043 -27.3950
   -27.3259 -27.3177 -27.0034 -26.8934 -26.8670 -26.8585 -26.8342 -26.7309
    -4.4304  -3.2904  -2.2263  -1.5569  -1.5214  -1.2433  -1.1383  -0.9740
    -0.8784  -0.5536  -0.4887  -0.2730  -0.0506  -0.0414   0.0410   0.1969
     0.4425   0.5580   0.8561   1.0088   1.0487   1.2148   1.2534   1.2778
     1.3537   1.4368   1.4849   1.6784   1.7750   1.9034   1.9503   1.9721
     1.9924   2.1158   2.1689

          k = 0.0000 0.0600 0.0000 ( 41241 PWs)   bands (ev):

   -61.7550 -61.7354 -61.5668 -61.5470 -61.1833 -61.1633 -48.8778 -48.8715
   -48.8491 -48.8429 -48.2838 -48.2547 -30.3591 -30.3063 -30.2616 -30.2254
   -30.2164 -30.1787 -30.1402 -30.0933 -30.0701 -30.0222 -29.9525 -29.8758
   -29.8032 -29.7034 -29.6530 -29.5984 -29.5561 -29.4596 -27.5989 -27.5888
   -27.5123 -27.4923 -27.4820 -27.4673 -27.4357 -27.4249 -27.4068 -27.3971
   -27.3263 -27.3181 -27.0058 -26.8947 -26.8674 -26.8622 -26.8358 -26.7312
    -4.1603  -3.1254  -2.3838  -1.5740  -1.5193  -1.2238  -1.0025  -0.8455
    -0.7484  -0.4964  -0.2866   0.0235   0.0605   0.0722   0.1911   0.2364
     0.4818   0.6008   0.7543   0.8924   1.0002   1.0026   1.0907   1.1535
     1.2131   1.2616   1.3151   1.4855   1.5902   1.7373   1.7628   1.8243
     1.8670   2.1255   2.1360

          k = 0.0000 0.0750 0.0000 ( 41260 PWs)   bands (ev):

   -61.7549 -61.7354 -61.5668 -61.5470 -61.1833 -61.1633 -48.8778 -48.8716
   -48.8491 -48.8429 -48.2838 -48.2547 -30.3580 -30.3059 -30.2614 -30.2230
   -30.2153 -30.1775 -30.1397 -30.0931 -30.0677 -30.0209 -29.9524 -29.8749
   -29.8030 -29.7018 -29.6527 -29.5978 -29.5560 -29.4595 -27.6008 -27.5906
   -27.5139 -27.4915 -27.4827 -27.4668 -27.4400 -27.4286 -27.4087 -27.3987
   -27.3265 -27.3183 -27.0075 -26.8959 -26.8677 -26.8645 -26.8369 -26.7314
    -3.8538  -3.1295  -2.4630  -1.6911  -1.5155  -1.0490  -0.8700  -0.7602
    -0.6247  -0.5342  -0.0893   0.1209   0.2120   0.2825   0.3442   0.3798
     0.5066   0.6239   0.6381   0.7818   0.7845   0.9413   0.9463   0.9830
     1.1063   1.1304   1.2060   1.2788   1.4761   1.5833   1.6084   1.6899
     1.7729   2.1125   2.1279

          k = 0.0000-0.0899 0.0000 ( 41266 PWs)   bands (ev):

   -61.7549 -61.7354 -61.5668 -61.5470 -61.1833 -61.1633 -48.8778 -48.8716
   -48.8491 -48.8429 -48.2838 -48.2547 -30.3577 -30.3057 -30.2614 -30.2221
   -30.2149 -30.1771 -30.1396 -30.0930 -30.0668 -30.0205 -29.9523 -29.8745
   -29.8030 -29.7013 -29.6526 -29.5975 -29.5559 -29.4594 -27.6015 -27.5912
   -27.5144 -27.4912 -27.4830 -27.4666 -27.4416 -27.4299 -27.4093 -27.3992
   -27.3266 -27.3184 -27.0081 -26.8965 -26.8679 -26.8653 -26.8373 -26.7315
    -3.6454  -3.2698  -2.4197  -1.7817  -1.5136  -0.9020  -0.7927  -0.7532
    -0.6177  -0.5707   0.0369   0.0950   0.3060   0.3687   0.4839   0.4895
     0.5118   0.5936   0.6160   0.6678   0.7375   0.8723   0.8782   0.9051
     1.0036   1.1110   1.1747   1.1913   1.4298   1.5098   1.5705   1.6245
     1.7395   2.0719   2.1407

          k = 0.0132 0.0075 0.0000 ( 41314 PWs)   bands (ev):

   -61.7546 -61.7357 -61.5664 -61.5473 -61.1830 -61.1637 -48.8772 -48.8709
   -48.8496 -48.8434 -48.2832 -48.2552 -30.3565 -30.3072 -30.2631 -30.2343
   -30.2140 -30.1840 -30.1412 -30.0952 -30.0787 -30.0278 -29.9602 -29.8729
   -29.8111 -29.7091 -29.6552 -29.6002 -29.5574 -29.4673 -27.5871 -27.5776
   -27.5030 -27.4979 -27.4786 -27.4706 -27.4182 -27.4103 -27.4002 -27.3915
   -27.3301 -27.3219 -26.9944 -26.8914 -26.8670 -26.8504 -26.8315 -26.7352
    -4.7592  -3.5598  -2.2322  -1.5644  -1.3474  -1.2627  -1.2095  -1.1527
    -1.0228  -0.7652  -0.7551  -0.7346  -0.1985  -0.1907  -0.1538   0.1808
     0.3854   0.4732   0.9279   1.0279   1.3677   1.3819   1.4632   1.5009
     1.5459   1.5713   1.6943   2.0181   2.1365   2.1379   2.2113   2.2589
     2.3151   2.3177   2.4063

          k = 0.0132 0.0225 0.0000 ( 41283 PWs)   bands (ev):

   -61.7546 -61.7357 -61.5664 -61.5473 -61.1830 -61.1637 -48.8772 -48.8710
   -48.8496 -48.8434 -48.2832 -48.2552 -30.3558 -30.3069 -30.2630 -30.2326
   -30.2132 -30.1832 -30.1409 -30.0950 -30.0771 -30.0270 -29.9601 -29.8722
   -29.8110 -29.7079 -29.6549 -29.5998 -29.5573 -29.4672 -27.5884 -27.5788
   -27.5054 -27.4960 -27.4794 -27.4699 -27.4212 -27.4128 -27.4014 -27.3925
   -27.3302 -27.3221 -26.9956 -26.8917 -26.8671 -26.8526 -26.8323 -26.7353
    -4.6735  -3.4839  -2.1874  -1.5997  -1.3729  -1.2996  -1.1677  -1.1222
    -0.9983  -0.6736  -0.6720  -0.6275  -0.1591  -0.1496  -0.1053   0.1897
     0.4002   0.4963   0.9194   1.0314   1.2506   1.3245   1.4114   1.4986
     1.5169   1.5367   1.6264   1.9776   1.9795   2.0397   2.1194   2.1579
     2.2293   2.2301   2.2977

          k = 0.0132 0.0375 0.0000 ( 41288 PWs)   bands (ev):

   -61.7546 -61.7357 -61.5664 -61.5473 -61.1829 -61.1637 -48.8772 -48.8710
   -48.8496 -48.8434 -48.2832 -48.2552 -30.3545 -30.3064 -30.2628 -30.2297
   -30.2119 -30.1819 -30.1403 -30.0947 -30.0743 -30.0256 -29.9600 -29.8710
   -29.8108 -29.7059 -29.6546 -29.5991 -29.5572 -29.4671 -27.5906 -27.5809
   -27.5082 -27.4940 -27.4806 -27.4690 -27.4264 -27.4171 -27.4035 -27.3943
   -27.3305 -27.3223 -26.9977 -26.8924 -26.8673 -26.8562 -26.8338 -26.7355
    -4.5064  -3.3418  -2.1567  -1.6371  -1.5020  -1.2126  -1.1952  -0.9824
    -0.9260  -0.5656  -0.5389  -0.4146  -0.0829  -0.0719  -0.0122   0.2060
     0.4286   0.5375   0.8869   1.0250   1.1036   1.2219   1.3175   1.3873
     1.3982   1.4790   1.5254   1.7597   1.8535   1.9506   1.9855   2.0075
     2.0766   2.1281   2.2098

          k = 0.0132 0.0525 0.0000 ( 41252 PWs)   bands (ev):

   -61.7546 -61.7357 -61.5664 -61.5473 -61.1829 -61.1637 -48.8773 -48.8710
   -48.8496 -48.8434 -48.2833 -48.2552 -30.3531 -30.3058 -30.2625 -30.2262
   -30.2103 -30.1803 -30.1397 -30.0943 -30.0709 -30.0239 -29.9598 -29.8696
   -29.8106 -29.7036 -29.6541 -29.5982 -29.5570 -29.4670 -27.5932 -27.5833
   -27.5107 -27.4925 -27.4818 -27.4682 -27.4323 -27.4221 -27.4059 -27.3964
   -27.3308 -27.3226 -27.0001 -26.8936 -26.8676 -26.8600 -26.8354 -26.7358
    -4.2670  -3.1642  -2.2596  -1.6622  -1.5311  -1.2232  -1.0970  -0.8449
    -0.7877  -0.4796  -0.3579  -0.1518   0.0251   0.0314   0.1173   0.2369
     0.4648   0.5841   0.8083   0.9431   1.0165   1.0775   1.1885   1.2038
     1.2685   1.2890   1.4426   1.5657   1.6489   1.8000   1.8218   1.8704
     1.8931   2.1238   2.1739

          k = 0.0132 0.0675 0.0000 ( 41262 PWs)   bands (ev):

   -61.7546 -61.7357 -61.5664 -61.5473 -61.1829 -61.1637 -48.8773 -48.8711
   -48.8496 -48.8434 -48.2833 -48.2552 -30.3518 -30.3053 -30.2623 -30.2233
   -30.2090 -30.1790 -30.1392 -30.0940 -30.0680 -30.0224 -29.9597 -29.8684
   -29.8105 -29.7017 -29.6538 -29.5974 -29.5568 -29.4669 -27.5954 -27.5853
   -27.5126 -27.4914 -27.4827 -27.4676 -27.4375 -27.4264 -27.4081 -27.3982
   -27.3310 -27.3228 -27.0022 -26.8949 -26.8680 -26.8630 -26.8367 -26.7360
    -3.9736  -3.0554  -2.4178  -1.6750  -1.5914  -1.1230  -0.9751  -0.7270
    -0.6347  -0.4657  -0.1607   0.0985   0.1418   0.1565   0.2674   0.3240
     0.4972   0.6127   0.6910   0.8222   0.9022   0.9627   1.0071   1.0389
     1.1045   1.2171   1.2858   1.3845   1.4986   1.6346   1.6403   1.7261
     1.7571   2.0763   2.1717

          k = 0.0132 0.0825 0.0000 ( 41259 PWs)   bands (ev):

   -61.7546 -61.7357 -61.5664 -61.5473 -61.1829 -61.1637 -48.8773 -48.8711
   -48.8496 -48.8434 -48.2833 -48.2552 -30.3511 -30.3050 -30.2622 -30.2216
   -30.2082 -30.1782 -30.1388 -30.0938 -30.0663 -30.0216 -29.9596 -29.8678
   -29.8104 -29.7006 -29.6536 -29.5969 -29.5567 -29.4669 -27.5967 -27.5865
   -27.5136 -27.4909 -27.4832 -27.4672 -27.4404 -27.4289 -27.4093 -27.3993
   -27.3312 -27.3230 -27.0034 -26.8958 -26.8682 -26.8646 -26.8374 -26.7361
    -3.6790  -3.1799  -2.4029  -1.7279  -1.6797  -0.9182  -0.8890  -0.6465
    -0.5562  -0.5485   0.0141   0.1301   0.2885   0.3273   0.4145   0.4727
     0.5017   0.5953   0.5984   0.7264   0.7346   0.8398   0.9026   0.9450
     1.0993   1.1057   1.1904   1.2313   1.4122   1.5139   1.5545   1.6132
     1.6880   1.9890   2.2058

          k = 0.0132-0.0825 0.0000 ( 41259 PWs)   bands (ev):

   -61.7546 -61.7357 -61.5664 -61.5473 -61.1829 -61.1637 -48.8773 -48.8711
   -48.8496 -48.8434 -48.2833 -48.2552 -30.3511 -30.3050 -30.2622 -30.2216
   -30.2082 -30.1782 -30.1388 -30.0938 -30.0663 -30.0216 -29.9596 -29.8678
   -29.8104 -29.7006 -29.6536 -29.5969 -29.5567 -29.4669 -27.5967 -27.5865
   -27.5136 -27.4909 -27.4832 -27.4672 -27.4404 -27.4289 -27.4093 -27.3993
   -27.3312 -27.3230 -27.0034 -26.8958 -26.8682 -26.8646 -26.8374 -26.7361
    -3.6790  -3.1799  -2.4029  -1.7279  -1.6797  -0.9182  -0.8890  -0.6465
    -0.5562  -0.5485   0.0141   0.1301   0.2885   0.3273   0.4145   0.4727
     0.5017   0.5953   0.5984   0.7264   0.7346   0.8398   0.9026   0.9450
     1.0993   1.1057   1.1904   1.2313   1.4122   1.5139   1.5545   1.6132
     1.6880   1.9888   2.2070

          k = 0.0132-0.0675 0.0000 ( 41262 PWs)   bands (ev):

   -61.7546 -61.7357 -61.5664 -61.5473 -61.1829 -61.1637 -48.8773 -48.8711
   -48.8496 -48.8434 -48.2833 -48.2552 -30.3518 -30.3053 -30.2623 -30.2233
   -30.2090 -30.1790 -30.1392 -30.0940 -30.0680 -30.0224 -29.9597 -29.8684
   -29.8105 -29.7017 -29.6538 -29.5974 -29.5568 -29.4669 -27.5954 -27.5853
   -27.5126 -27.4914 -27.4827 -27.4676 -27.4375 -27.4264 -27.4081 -27.3982
   -27.3310 -27.3228 -27.0022 -26.8949 -26.8680 -26.8630 -26.8367 -26.7360
    -3.9736  -3.0554  -2.4178  -1.6750  -1.5914  -1.1230  -0.9751  -0.7270
    -0.6347  -0.4657  -0.1607   0.0985   0.1418   0.1565   0.2674   0.3240
     0.4972   0.6127   0.6910   0.8222   0.9022   0.9627   1.0071   1.0389
     1.1045   1.2171   1.2858   1.3845   1.4986   1.6346   1.6402   1.7261
     1.7571   2.0763   2.1708

          k = 0.0132-0.0525 0.0000 ( 41252 PWs)   bands (ev):

   -61.7546 -61.7357 -61.5664 -61.5473 -61.1829 -61.1637 -48.8773 -48.8710
   -48.8496 -48.8434 -48.2833 -48.2552 -30.3531 -30.3058 -30.2625 -30.2262
   -30.2103 -30.1803 -30.1397 -30.0943 -30.0709 -30.0239 -29.9598 -29.8696
   -29.8106 -29.7036 -29.6541 -29.5982 -29.5570 -29.4670 -27.5932 -27.5833
   -27.5107 -27.4925 -27.4818 -27.4682 -27.4323 -27.4221 -27.4059 -27.3964
   -27.3308 -27.3226 -27.0001 -26.8936 -26.8676 -26.8600 -26.8354 -26.7358
    -4.2670  -3.1642  -2.2596  -1.6622  -1.5311  -1.2232  -1.0970  -0.8449
    -0.7877  -0.4796  -0.3579  -0.1518   0.0251   0.0314   0.1173   0.2369
     0.4648   0.5841   0.8083   0.9431   1.0165   1.0775   1.1885   1.2038
     1.2685   1.2890   1.4426   1.5657   1.6489   1.8001   1.8219   1.8705
     1.8932   2.1239   2.1761

          k = 0.0132-0.0375 0.0000 ( 41288 PWs)   bands (ev):

   -61.7546 -61.7357 -61.5664 -61.5473 -61.1829 -61.1637 -48.8772 -48.8710
   -48.8496 -48.8434 -48.2832 -48.2552 -30.3545 -30.3064 -30.2628 -30.2297
   -30.2119 -30.1819 -30.1403 -30.0947 -30.0743 -30.0256 -29.9600 -29.8710
   -29.8108 -29.7059 -29.6546 -29.5991 -29.5572 -29.4671 -27.5906 -27.5809
   -27.5082 -27.4940 -27.4806 -27.4690 -27.4264 -27.4171 -27.4035 -27.3943
   -27.3305 -27.3223 -26.9977 -26.8924 -26.8673 -26.8562 -26.8338 -26.7355
    -4.5064  -3.3418  -2.1567  -1.6371  -1.5020  -1.2126  -1.1952  -0.9824
    -0.9260  -0.5656  -0.5389  -0.4146  -0.0829  -0.0719  -0.0122   0.2060
     0.4286   0.5375   0.8869   1.0250   1.1036   1.2219   1.3175   1.3873
     1.3982   1.4790   1.5254   1.7597   1.8534   1.9507   1.9854   2.0075
     2.0766   2.1284   2.2095

          k = 0.0132-0.0225 0.0000 ( 41283 PWs)   bands (ev):

   -61.7546 -61.7357 -61.5664 -61.5473 -61.1830 -61.1637 -48.8772 -48.8710
   -48.8496 -48.8434 -48.2832 -48.2552 -30.3558 -30.3069 -30.2630 -30.2326
   -30.2132 -30.1832 -30.1409 -30.0950 -30.0771 -30.0270 -29.9601 -29.8722
   -29.8110 -29.7079 -29.6549 -29.5998 -29.5573 -29.4672 -27.5884 -27.5788
   -27.5054 -27.4960 -27.4794 -27.4699 -27.4212 -27.4128 -27.4014 -27.3925
   -27.3302 -27.3221 -26.9956 -26.8917 -26.8671 -26.8526 -26.8323 -26.7353
    -4.6735  -3.4839  -2.1874  -1.5997  -1.3729  -1.2996  -1.1677  -1.1222
    -0.9983  -0.6736  -0.6720  -0.6275  -0.1591  -0.1496  -0.1053   0.1897
     0.4002   0.4963   0.9194   1.0314   1.2506   1.3245   1.4114   1.4986
     1.5169   1.5367   1.6263   1.9776   1.9797   2.0393   2.1192   2.1580
     2.2287   2.2302   2.2990

          k = 0.0132-0.0075 0.0000 ( 41314 PWs)   bands (ev):

   -61.7546 -61.7357 -61.5664 -61.5473 -61.1830 -61.1637 -48.8772 -48.8709
   -48.8496 -48.8434 -48.2832 -48.2552 -30.3565 -30.3072 -30.2631 -30.2343
   -30.2140 -30.1840 -30.1412 -30.0952 -30.0787 -30.0278 -29.9602 -29.8729
   -29.8111 -29.7091 -29.6552 -29.6002 -29.5574 -29.4673 -27.5871 -27.5776
   -27.5030 -27.4979 -27.4786 -27.4706 -27.4182 -27.4103 -27.4002 -27.3915
   -27.3301 -27.3219 -26.9944 -26.8914 -26.8670 -26.8504 -26.8315 -26.7352
    -4.7592  -3.5598  -2.2322  -1.5644  -1.3474  -1.2627  -1.2095  -1.1527
    -1.0228  -0.7652  -0.7551  -0.7346  -0.1985  -0.1907  -0.1538   0.1808
     0.3854   0.4732   0.9279   1.0279   1.3677   1.3819   1.4632   1.5009
     1.5459   1.5713   1.6944   2.0182   2.1371   2.1384   2.2111   2.2608
     2.3169   2.3204   2.4115

          k = 0.0264 0.0150 0.0000 ( 41316 PWs)   bands (ev):

   -61.7537 -61.7367 -61.5655 -61.5483 -61.1820 -61.1647 -48.8758 -48.8695
   -48.8510 -48.8448 -48.2818 -48.2567 -30.3364 -30.3048 -30.2652 -30.2309
   -30.1936 -30.1856 -30.1387 -30.0974 -30.0752 -30.0295 -29.9811 -29.8523
   -29.8323 -29.7058 -29.6574 -29.5978 -29.5594 -29.4887 -27.5746 -27.5653
   -27.5027 -27.4957 -27.4805 -27.4715 -27.4188 -27.4107 -27.4025 -27.3937
   -27.3442 -27.3360 -26.9818 -26.8902 -26.8684 -26.8506 -26.8335 -26.7494
    -4.6186  -3.4220  -2.0957  -1.7397  -1.3607  -1.2233  -1.1785  -1.0677
    -1.0383  -0.6583  -0.6158  -0.5951  -0.1255  -0.1241  -0.0946   0.2300
     0.4146   0.4958   0.9334   1.0337   1.2511   1.2776   1.3993   1.4111
     1.5007   1.5484   1.5963   1.9312   1.9840   1.9988   2.1453   2.1639
     2.1985   2.2164   2.2904

          k = 0.0264 0.0300 0.0000 ( 41304 PWs)   bands (ev):

   -61.7536 -61.7367 -61.5655 -61.5483 -61.1820 -61.1647 -48.8758 -48.8695
   -48.8510 -48.8448 -48.2818 -48.2567 -30.3354 -30.3044 -30.2651 -30.2286
   -30.1926 -30.1847 -30.1383 -30.0972 -30.0731 -30.0285 -29.9810 -29.8514
   -29.8322 -29.7042 -29.6572 -29.5973 -29.5593 -29.4887 -27.5763 -27.5669
   -27.5052 -27.4938 -27.4814 -27.4708 -27.4228 -27.4139 -27.4039 -27.3949
   -27.3442 -27.3361 -26.9834 -26.8907 -26.8685 -26.8533 -26.8344 -26.7494
    -4.4927  -3.3119  -2.0445  -1.8414  -1.3654  -1.3074  -1.0875  -1.0145
    -0.9531  -0.5273  -0.5143  -0.4919  -0.0678  -0.0665  -0.0267   0.2465
     0.4316   0.5275   0.9082   1.0229   1.1515   1.1888   1.3117   1.4044
     1.4080   1.4512   1.5341   1.7988   1.8470   1.9492   2.0137   2.0243
     2.0906   2.1063   2.2525

          k = 0.0264 0.0450 0.0000 ( 41299 PWs)   bands (ev):

   -61.7536 -61.7367 -61.5654 -61.5483 -61.1820 -61.1647 -48.8758 -48.8696
   -48.8510 -48.8448 -48.2818 -48.2567 -30.3341 -30.3039 -30.2649 -30.2256
   -30.1912 -30.1835 -30.1377 -30.0969 -30.0702 -30.0272 -29.9809 -29.8502
   -29.8322 -29.7022 -29.6569 -29.5965 -29.5592 -29.4887 -27.5787 -27.5691
   -27.5078 -27.4921 -27.4824 -27.4700 -27.4281 -27.4184 -27.4059 -27.3966
   -27.3443 -27.3362 -26.9856 -26.8916 -26.8688 -26.8569 -26.8357 -26.7495
    -4.2897  -3.1466  -2.0748  -1.9247  -1.4496  -1.2500  -1.1280  -0.8441
    -0.7840  -0.4108  -0.3590  -0.3163   0.0215   0.0278   0.0764   0.2764
     0.4565   0.5716   0.8456   0.9657   1.0313   1.0977   1.1928   1.2830
     1.2914   1.2936   1.4906   1.6116   1.6646   1.8302   1.8321   1.8841
     1.8969   2.1055   2.2469

          k = 0.0264 0.0600 0.0000 ( 41269 PWs)   bands (ev):

   -61.7536 -61.7367 -61.5654 -61.5483 -61.1820 -61.1647 -48.8758 -48.8696
   -48.8510 -48.8448 -48.2819 -48.2567 -30.3328 -30.3034 -30.2647 -30.2225
   -30.1897 -30.1823 -30.1371 -30.0966 -30.0671 -30.0258 -29.9809 -29.8489
   -29.8321 -29.7001 -29.6567 -29.5956 -29.5591 -29.4887 -27.5810 -27.5712
   -27.5099 -27.4908 -27.4833 -27.4694 -27.4333 -27.4228 -27.4079 -27.3983
   -27.3445 -27.3363 -26.9878 -26.8928 -26.8690 -26.8601 -26.8370 -26.7497
    -4.0219  -2.9799  -2.2504  -1.9817  -1.4528  -1.1810  -1.1208  -0.7023
    -0.5638  -0.3526  -0.1854  -0.1100   0.1365   0.1390   0.2043   0.3402
     0.4802   0.6090   0.7378   0.8433   0.9673   0.9898   1.0792   1.0911
     1.0919   1.2090   1.4205   1.4686   1.4886   1.6459   1.6550   1.7071
     1.7308   2.0760   2.1768

          k = 0.0264 0.0750 0.0000 ( 41296 PWs)   bands (ev):

   -61.7536 -61.7367 -61.5654 -61.5483 -61.1820 -61.1647 -48.8759 -48.8696
   -48.8510 -48.8448 -48.2819 -48.2567 -30.3318 -30.3030 -30.2645 -30.2202
   -30.1887 -30.1814 -30.1367 -30.0964 -30.0649 -30.0249 -29.9809 -29.8480
   -29.8321 -29.6986 -29.6565 -29.5950 -29.5590 -29.4887 -27.5827 -27.5728
   -27.5114 -27.4900 -27.4840 -27.4690 -27.4372 -27.4260 -27.4093 -27.3995
   -27.3446 -27.3365 -26.9894 -26.8939 -26.8693 -26.8623 -26.8379 -26.7498
    -3.7164  -2.9855  -2.3347  -2.0140  -1.5793  -1.1197  -0.9365  -0.5634
    -0.4182  -0.4036  -0.0392   0.1006   0.2071   0.2657   0.3450   0.4516
     0.5023   0.6134   0.6282   0.7265   0.8199   0.8840   0.8976   0.9852
     1.0683   1.1728   1.2755   1.3455   1.3711   1.5168   1.5172   1.5868
     1.5943   1.9171   2.2366

          k = 0.0264 0.0899 0.0000 ( 41290 PWs)   bands (ev):

   -61.7536 -61.7367 -61.5654 -61.5483 -61.1820 -61.1647 -48.8759 -48.8696
   -48.8510 -48.8448 -48.2819 -48.2567 -30.3314 -30.3028 -30.2645 -30.2194
   -30.1883 -30.1811 -30.1366 -30.0963 -30.0641 -30.0245 -29.9809 -29.8477
   -29.8320 -29.6981 -29.6565 -29.5948 -29.5590 -29.4887 -27.5833 -27.5734
   -27.5119 -27.4898 -27.4842 -27.4688 -27.4386 -27.4272 -27.4099 -27.4000
   -27.3447 -27.3365 -26.9900 -26.8943 -26.8694 -26.8630 -26.8382 -26.7498
    -3.5065  -3.1319  -2.2847  -2.0244  -1.6799  -1.0946  -0.7696  -0.5117
    -0.4835  -0.3999   0.0639   0.1791   0.2367   0.3541   0.4320   0.5041
     0.5101   0.5698   0.6022   0.6766   0.6949   0.7780   0.8564   1.0374
     1.0798   1.1321   1.1844   1.2970   1.3076   1.4726   1.4838   1.5090
     1.5575   1.8587   2.2590

          k = 0.0264-0.0750 0.0000 ( 41296 PWs)   bands (ev):

   -61.7536 -61.7367 -61.5654 -61.5483 -61.1820 -61.1647 -48.8759 -48.8696
   -48.8510 -48.8448 -48.2819 -48.2567 -30.3318 -30.3030 -30.2645 -30.2202
   -30.1887 -30.1814 -30.1367 -30.0964 -30.0649 -30.0249 -29.9809 -29.8480
   -29.8321 -29.6986 -29.6565 -29.5950 -29.5590 -29.4887 -27.5827 -27.5728
   -27.5114 -27.4900 -27.4840 -27.4690 -27.4372 -27.4260 -27.4093 -27.3995
   -27.3446 -27.3365 -26.9894 -26.8939 -26.8693 -26.8623 -26.8379 -26.7498
    -3.7164  -2.9855  -2.3347  -2.0140  -1.5793  -1.1197  -0.9365  -0.5634
    -0.4182  -0.4036  -0.0392   0.1006   0.2071   0.2657   0.3450   0.4516
     0.5023   0.6134   0.6282   0.7265   0.8199   0.8840   0.8976   0.9852
     1.0683   1.1728   1.2755   1.3455   1.3711   1.5168   1.5172   1.5868
     1.5943   1.9172   2.2354

          k = 0.0264-0.0600 0.0000 ( 41269 PWs)   bands (ev):

   -61.7536 -61.7367 -61.5654 -61.5483 -61.1820 -61.1647 -48.8758 -48.8696
   -48.8510 -48.8448 -48.2819 -48.2567 -30.3328 -30.3034 -30.2647 -30.2225
   -30.1897 -30.1823 -30.1371 -30.0966 -30.0671 -30.0258 -29.9809 -29.8489
   -29.8321 -29.7001 -29.6567 -29.5956 -29.5591 -29.4887 -27.5810 -27.5712
   -27.5099 -27.4908 -27.4833 -27.4694 -27.4333 -27.4228 -27.4079 -27.3983
   -27.3445 -27.3363 -26.9878 -26.8928 -26.8690 -26.8601 -26.8370 -26.7497
    -4.0219  -2.9799  -2.2504  -1.9817  -1.4528  -1.1809  -1.1208  -0.7023
    -0.5638  -0.3526  -0.1854  -0.1100   0.1365   0.1390   0.2043   0.3402
     0.4802   0.6090   0.7378   0.8433   0.9673   0.9898   1.0792   1.0911
     1.0919   1.2090   1.4205   1.4686   1.4886   1.6459   1.6549   1.7070
     1.7307   2.0758   2.1768

          k = 0.0264-0.0450 0.0000 ( 41299 PWs)   bands (ev):

   -61.7536 -61.7367 -61.5654 -61.5483 -61.1820 -61.1647 -48.8758 -48.8696
   -48.8510 -48.8448 -48.2818 -48.2567 -30.3341 -30.3039 -30.2649 -30.2256
   -30.1912 -30.1835 -30.1377 -30.0969 -30.0702 -30.0272 -29.9809 -29.8502
   -29.8322 -29.7022 -29.6569 -29.5965 -29.5592 -29.4887 -27.5787 -27.5691
   -27.5078 -27.4921 -27.4824 -27.4700 -27.4281 -27.4184 -27.4059 -27.3966
   -27.3443 -27.3362 -26.9856 -26.8916 -26.8688 -26.8569 -26.8357 -26.7495
    -4.2897  -3.1466  -2.0748  -1.9247  -1.4496  -1.2500  -1.1280  -0.8441
    -0.7840  -0.4108  -0.3590  -0.3163   0.0215   0.0278   0.0764   0.2764
     0.4565   0.5716   0.8456   0.9657   1.0313   1.0977   1.1928   1.2830
     1.2915   1.2936   1.4906   1.6116   1.6646   1.8303   1.8321   1.8841
     1.8969   2.1055   2.2489

          k = 0.0264-0.0300 0.0000 ( 41304 PWs)   bands (ev):

   -61.7536 -61.7367 -61.5655 -61.5483 -61.1820 -61.1647 -48.8758 -48.8695
   -48.8510 -48.8448 -48.2818 -48.2567 -30.3354 -30.3044 -30.2651 -30.2286
   -30.1926 -30.1847 -30.1383 -30.0972 -30.0731 -30.0285 -29.9810 -29.8514
   -29.8322 -29.7042 -29.6572 -29.5973 -29.5593 -29.4887 -27.5763 -27.5669
   -27.5052 -27.4938 -27.4814 -27.4708 -27.4228 -27.4139 -27.4039 -27.3949
   -27.3442 -27.3361 -26.9835 -26.8907 -26.8685 -26.8533 -26.8344 -26.7494
    -4.4927  -3.3119  -2.0445  -1.8414  -1.3654  -1.3074  -1.0875  -1.0145
    -0.9531  -0.5273  -0.5143  -0.4919  -0.0678  -0.0665  -0.0267   0.2465
     0.4316   0.5275   0.9082   1.0229   1.1515   1.1888   1.3117   1.4044
     1.4080   1.4512   1.5341   1.7987   1.8471   1.9492   2.0138   2.0243
     2.0908   2.1063   2.2530

          k = 0.0264-0.0150 0.0000 ( 41316 PWs)   bands (ev):

   -61.7537 -61.7367 -61.5655 -61.5483 -61.1820 -61.1647 -48.8758 -48.8695
   -48.8510 -48.8448 -48.2818 -48.2567 -30.3364 -30.3048 -30.2652 -30.2309
   -30.1936 -30.1856 -30.1387 -30.0974 -30.0752 -30.0295 -29.9811 -29.8523
   -29.8323 -29.7058 -29.6574 -29.5978 -29.5594 -29.4887 -27.5746 -27.5653
   -27.5027 -27.4957 -27.4805 -27.4715 -27.4188 -27.4107 -27.4025 -27.3937
   -27.3442 -27.3360 -26.9818 -26.8902 -26.8684 -26.8506 -26.8335 -26.7494
    -4.6186  -3.4220  -2.0957  -1.7397  -1.3607  -1.2233  -1.1785  -1.0677
    -1.0383  -0.6583  -0.6158  -0.5951  -0.1255  -0.1241  -0.0946   0.2300
     0.4146   0.4958   0.9334   1.0337   1.2511   1.2776   1.3993   1.4111
     1.5007   1.5484   1.5963   1.9311   1.9840   1.9988   2.1447   2.1639
     2.1988   2.2162   2.2909

          k = 0.0264 0.0000 0.0000 ( 41288 PWs)   bands (ev):

   -61.7537 -61.7367 -61.5655 -61.5483 -61.1820 -61.1647 -48.8757 -48.8695
   -48.8510 -48.8448 -48.2817 -48.2567 -30.3368 -30.3049 -30.2653 -30.2317
   -30.1940 -30.1859 -30.1388 -30.0975 -30.0760 -30.0299 -29.9811 -29.8527
   -29.8323 -29.7063 -29.6575 -29.5980 -29.5594 -29.4887 -27.5739 -27.5647
   -27.5013 -27.4970 -27.4802 -27.4717 -27.4174 -27.4095 -27.4020 -27.3933
   -27.3441 -27.3360 -26.9812 -26.8901 -26.8683 -26.8495 -26.8331 -26.7494
    -4.6612  -3.4601  -2.1212  -1.6753  -1.4091  -1.2316  -1.1586  -1.0700
    -1.0600  -0.7064  -0.6639  -0.6293  -0.1453  -0.1434  -0.1184   0.2243
     0.4089   0.4846   0.9392   1.0348   1.2753   1.3293   1.4019   1.4581
     1.4992   1.5770   1.6239   1.9740   2.0033   2.0661   2.2048   2.2174
     2.2515   2.2988   2.3269

          k = 0.0395 0.0225 0.0000 ( 41284 PWs)   bands (ev):

   -61.7521 -61.7383 -61.5639 -61.5499 -61.1804 -61.1663 -48.8735 -48.8673
   -48.8533 -48.8471 -48.2795 -48.2590 -30.3043 -30.3010 -30.2686 -30.2255
   -30.1885 -30.1610 -30.1347 -30.1009 -30.0699 -30.0324 -30.0141 -29.8659
   -29.8196 -29.7006 -29.6612 -29.5941 -29.5627 -29.5227 -27.5545 -27.5455
   -27.5017 -27.4927 -27.4834 -27.4730 -27.4195 -27.4109 -27.4059 -27.3970
   -27.3662 -27.3581 -26.9616 -26.8884 -26.8707 -26.8504 -26.8363 -26.7718
    -4.3904  -3.2002  -2.0413  -1.8806  -1.4191  -1.1626  -1.1460  -0.9682
    -0.9303  -0.5593  -0.4056  -0.3927  -0.0419  -0.0061   0.0175   0.3050
     0.4539   0.5334   0.9197   0.9978   1.1354   1.1733   1.2738   1.2865
     1.3828   1.3892   1.4629   1.7318   1.7995   1.9330   1.9633   2.0185
     2.0362   2.0882   2.2832

          k = 0.0395 0.0375 0.0000 ( 41302 PWs)   bands (ev):

   -61.7521 -61.7383 -61.5639 -61.5499 -61.1804 -61.1663 -48.8735 -48.8673
   -48.8533 -48.8471 -48.2795 -48.2590 -30.3033 -30.3005 -30.2685 -30.2231
   -30.1878 -30.1598 -30.1342 -30.1007 -30.0676 -30.0316 -30.0142 -29.8660
   -29.8186 -29.6990 -29.6611 -29.5935 -29.5626 -29.5228 -27.5565 -27.5472
   -27.5040 -27.4910 -27.4841 -27.4725 -27.4237 -27.4145 -27.4071 -27.3980
   -27.3661 -27.3580 -26.9634 -26.8891 -26.8707 -26.8533 -26.8371 -26.7716
    -4.2279  -3.0616  -2.1897  -1.8533  -1.4147  -1.3034  -0.9657  -0.9195
    -0.8079  -0.4619  -0.2955  -0.2568   0.0309   0.0628   0.0963   0.3351
     0.4634   0.5702   0.8594   0.9454   1.0527   1.0911   1.1760   1.2294
     1.2695   1.2889   1.4324   1.6130   1.6320   1.8205   1.8292   1.8856
     1.9241   2.0512   2.2711

          k = 0.0395 0.0525 0.0000 ( 41331 PWs)   bands (ev):

   -61.7521 -61.7383 -61.5639 -61.5499 -61.1804 -61.1663 -48.8736 -48.8673
   -48.8533 -48.8471 -48.2795 -48.2590 -30.3020 -30.3001 -30.2684 -30.2203
   -30.1869 -30.1585 -30.1337 -30.1005 -30.0649 -30.0306 -30.0143 -29.8661
   -29.8174 -29.6971 -29.6611 -29.5927 -29.5626 -29.5229 -27.5587 -27.5493
   -27.5062 -27.4897 -27.4847 -27.4720 -27.4285 -27.4185 -27.4085 -27.3991
   -27.3660 -27.3579 -26.9655 -26.8900 -26.8709 -26.8564 -26.8380 -26.7716
    -3.9941  -2.8850  -2.3037  -1.9879  -1.4148  -1.3088  -1.0195  -0.7087
    -0.5791  -0.3214  -0.2025  -0.1226   0.1344   0.1580   0.1965   0.3913
     0.4668   0.6124   0.7574   0.8369   0.9589   1.0296   1.0723   1.0953
     1.1646   1.1843   1.4139   1.4434   1.4966   1.6322   1.6548   1.7301
     1.7384   2.0873   2.1529

          k = 0.0395 0.0675 0.0000 ( 41329 PWs)   bands (ev):

   -61.7521 -61.7383 -61.5639 -61.5499 -61.1804 -61.1663 -48.8736 -48.8674
   -48.8533 -48.8471 -48.2796 -48.2590 -30.3009 -30.2997 -30.2683 -30.2179
   -30.1862 -30.1573 -30.1333 -30.1003 -30.0625 -30.0298 -30.0144 -29.8662
   -29.8163 -29.6954 -29.6610 -29.5920 -29.5626 -29.5231 -27.5605 -27.5510
   -27.5079 -27.4887 -27.4853 -27.4716 -27.4325 -27.4219 -27.4097 -27.4002
   -27.3660 -27.3579 -26.9672 -26.8910 -26.8711 -26.8588 -26.8388 -26.7715
    -3.7054  -2.7734  -2.3793  -2.1744  -1.4043  -1.3658  -0.9265  -0.5440
    -0.3238  -0.1965  -0.1908  -0.0250   0.2369   0.2661   0.3108   0.4686
     0.4815   0.6364   0.6477   0.7132   0.8980   0.9139   0.9406   1.0247
     1.0625   1.1266   1.3156   1.3755   1.4184   1.4593   1.4825   1.5705
     1.5842   1.8960   2.2556

          k = 0.0395 0.0825 0.0000 ( 41333 PWs)   bands (ev):

   -61.7521 -61.7383 -61.5639 -61.5499 -61.1804 -61.1663 -48.8736 -48.8674
   -48.8533 -48.8471 -48.2796 -48.2590 -30.3003 -30.2994 -30.2682 -30.2165
   -30.1858 -30.1566 -30.1330 -30.1002 -30.0611 -30.0293 -30.0145 -29.8663
   -29.8157 -29.6945 -29.6610 -29.5916 -29.5626 -29.5232 -27.5616 -27.5520
   -27.5087 -27.4882 -27.4856 -27.4715 -27.4348 -27.4238 -27.4104 -27.4008
   -27.3661 -27.3579 -26.9682 -26.8917 -26.8712 -26.8601 -26.8392 -26.7715
    -3.4114  -2.9095  -2.4168  -2.1504  -1.5297  -1.3941  -0.6888  -0.4057
    -0.3388  -0.2479  -0.0626   0.0667   0.2886   0.3726   0.4237   0.5046
     0.5312   0.5620   0.6198   0.6459   0.7540   0.8268   0.8321   1.0405
     1.0916   1.1398   1.2268   1.2462   1.3725   1.3821   1.4126   1.4396
     1.5043   1.7677   2.3148

          k = 0.0395 0.0974 0.0000 ( 41333 PWs)   bands (ev):

   -61.7521 -61.7383 -61.5639 -61.5499 -61.1804 -61.1663 -48.8736 -48.8674
   -48.8533 -48.8471 -48.2796 -48.2590 -30.3003 -30.2994 -30.2682 -30.2165
   -30.1858 -30.1566 -30.1330 -30.1002 -30.0611 -30.0293 -30.0145 -29.8663
   -29.8157 -29.6945 -29.6610 -29.5916 -29.5626 -29.5232 -27.5616 -27.5520
   -27.5087 -27.4882 -27.4856 -27.4715 -27.4348 -27.4238 -27.4104 -27.4008
   -27.3661 -27.3579 -26.9682 -26.8917 -26.8712 -26.8601 -26.8392 -26.7715
    -3.4114  -2.9095  -2.4168  -2.1504  -1.5297  -1.3941  -0.6888  -0.4057
    -0.3388  -0.2479  -0.0626   0.0667   0.2886   0.3726   0.4237   0.5046
     0.5312   0.5620   0.6198   0.6460   0.7540   0.8268   0.8321   1.0405
     1.0916   1.1399   1.2268   1.2462   1.3725   1.3821   1.4126   1.4396
     1.5043   1.7677   2.3158

          k = 0.0395-0.0675 0.0000 ( 41329 PWs)   bands (ev):

   -61.7521 -61.7383 -61.5639 -61.5499 -61.1804 -61.1663 -48.8736 -48.8674
   -48.8533 -48.8471 -48.2796 -48.2590 -30.3009 -30.2997 -30.2683 -30.2179
   -30.1862 -30.1573 -30.1333 -30.1003 -30.0625 -30.0298 -30.0144 -29.8662
   -29.8163 -29.6954 -29.6610 -29.5920 -29.5626 -29.5231 -27.5605 -27.5510
   -27.5079 -27.4887 -27.4853 -27.4716 -27.4325 -27.4219 -27.4097 -27.4002
   -27.3660 -27.3579 -26.9672 -26.8910 -26.8711 -26.8588 -26.8388 -26.7715
    -3.7054  -2.7734  -2.3793  -2.1744  -1.4043  -1.3658  -0.9265  -0.5440
    -0.3238  -0.1965  -0.1908  -0.0250   0.2369   0.2661   0.3108   0.4686
     0.4815   0.6364   0.6477   0.7132   0.8980   0.9139   0.9406   1.0247
     1.0625   1.1266   1.3156   1.3755   1.4184   1.4593   1.4825   1.5705
     1.5842   1.8959   2.2566

          k = 0.0395-0.0525 0.0000 ( 41331 PWs)   bands (ev):

   -61.7521 -61.7383 -61.5639 -61.5499 -61.1804 -61.1663 -48.8736 -48.8673
   -48.8533 -48.8471 -48.2795 -48.2590 -30.3020 -30.3001 -30.2684 -30.2203
   -30.1869 -30.1585 -30.1337 -30.1005 -30.0649 -30.0306 -30.0143 -29.8661
   -29.8174 -29.6971 -29.6611 -29.5927 -29.5626 -29.5229 -27.5587 -27.5493
   -27.5062 -27.4897 -27.4847 -27.4720 -27.4285 -27.4185 -27.4085 -27.3991
   -27.3660 -27.3579 -26.9655 -26.8900 -26.8709 -26.8564 -26.8380 -26.7716
    -3.9941  -2.8850  -2.3037  -1.9879  -1.4147  -1.3088  -1.0195  -0.7087
    -0.5791  -0.3214  -0.2025  -0.1226   0.1344   0.1580   0.1965   0.3913
     0.4668   0.6124   0.7574   0.8369   0.9589   1.0296   1.0723   1.0953
     1.1646   1.1843   1.4139   1.4434   1.4965   1.6321   1.6549   1.7300
     1.7384   2.0889   2.1529

          k = 0.0395-0.0375 0.0000 ( 41302 PWs)   bands (ev):

   -61.7521 -61.7383 -61.5639 -61.5499 -61.1804 -61.1663 -48.8735 -48.8673
   -48.8533 -48.8471 -48.2795 -48.2590 -30.3033 -30.3005 -30.2685 -30.2231
   -30.1878 -30.1598 -30.1342 -30.1007 -30.0676 -30.0316 -30.0142 -29.8660
   -29.8186 -29.6990 -29.6611 -29.5935 -29.5626 -29.5228 -27.5565 -27.5472
   -27.5040 -27.4910 -27.4841 -27.4725 -27.4237 -27.4145 -27.4071 -27.3980
   -27.3661 -27.3580 -26.9634 -26.8891 -26.8707 -26.8533 -26.8371 -26.7716
    -4.2279  -3.0616  -2.1897  -1.8533  -1.4147  -1.3034  -0.9657  -0.9195
    -0.8079  -0.4619  -0.2955  -0.2568   0.0309   0.0628   0.0963   0.3351
     0.4634   0.5702   0.8594   0.9454   1.0527   1.0911   1.1760   1.2294
     1.2695   1.2889   1.4324   1.6130   1.6320   1.8204   1.8291   1.8856
     1.9238   2.0512   2.2710

          k = 0.0395-0.0225 0.0000 ( 41284 PWs)   bands (ev):

   -61.7521 -61.7383 -61.5639 -61.5499 -61.1804 -61.1663 -48.8735 -48.8673
   -48.8533 -48.8471 -48.2795 -48.2590 -30.3043 -30.3010 -30.2686 -30.2255
   -30.1885 -30.1610 -30.1347 -30.1009 -30.0699 -30.0324 -30.0141 -29.8659
   -29.8196 -29.7006 -29.6612 -29.5941 -29.5627 -29.5227 -27.5545 -27.5455
   -27.5017 -27.4927 -27.4834 -27.4730 -27.4195 -27.4109 -27.4059 -27.3970
   -27.3662 -27.3581 -26.9616 -26.8884 -26.8707 -26.8504 -26.8363 -26.7718
    -4.3904  -3.2002  -2.0413  -1.8806  -1.4191  -1.1626  -1.1460  -0.9682
    -0.9303  -0.5593  -0.4056  -0.3927  -0.0419  -0.0061   0.0175   0.3050
     0.4539   0.5334   0.9197   0.9978   1.1354   1.1733   1.2738   1.2865
     1.3828   1.3892   1.4629   1.7319   1.7997   1.9329   1.9630   2.0187
     2.0362   2.0875   2.2834

          k = 0.0395-0.0075 0.0000 ( 41282 PWs)   bands (ev):

   -61.7521 -61.7383 -61.5639 -61.5499 -61.1804 -61.1663 -48.8735 -48.8673
   -48.8533 -48.8471 -48.2795 -48.2590 -30.3050 -30.3012 -30.2687 -30.2269
   -30.1890 -30.1616 -30.1349 -30.1010 -30.0712 -30.0329 -30.0141 -29.8659
   -29.8202 -29.7016 -29.6612 -29.5944 -29.5627 -29.5226 -27.5534 -27.5444
   -27.4998 -27.4943 -27.4830 -27.4733 -27.4170 -27.4089 -27.4053 -27.3964
   -27.3663 -27.3582 -26.9606 -26.8881 -26.8706 -26.8487 -26.8359 -26.7718
    -4.4734  -3.2737  -1.9264  -1.8866  -1.5167  -1.2066  -1.0958  -1.0374
    -0.9187  -0.6005  -0.4887  -0.4787  -0.0792  -0.0419  -0.0259   0.2908
     0.4482   0.5129   0.9452   1.0164   1.1585   1.2359   1.2767   1.3884
     1.4463   1.4539   1.4851   1.7657   1.9205   1.9319   2.0356   2.0863
     2.1341   2.1954   2.2685

          k = 0.0395 0.0075 0.0000 ( 41282 PWs)   bands (ev):

   -61.7521 -61.7383 -61.5639 -61.5499 -61.1804 -61.1663 -48.8735 -48.8673
   -48.8533 -48.8471 -48.2795 -48.2590 -30.3050 -30.3012 -30.2687 -30.2269
   -30.1890 -30.1616 -30.1349 -30.1010 -30.0712 -30.0329 -30.0141 -29.8659
   -29.8202 -29.7016 -29.6612 -29.5944 -29.5627 -29.5226 -27.5534 -27.5444
   -27.4998 -27.4943 -27.4830 -27.4733 -27.4170 -27.4089 -27.4053 -27.3964
   -27.3663 -27.3582 -26.9606 -26.8881 -26.8706 -26.8487 -26.8359 -26.7718
    -4.4734  -3.2737  -1.9264  -1.8866  -1.5167  -1.2066  -1.0958  -1.0374
    -0.9187  -0.6005  -0.4887  -0.4787  -0.0792  -0.0419  -0.0259   0.2908
     0.4482   0.5129   0.9452   1.0164   1.1585   1.2359   1.2767   1.3884
     1.4463   1.4539   1.4851   1.7656   1.9204   1.9318   2.0356   2.0859
     2.1339   2.1951   2.2692

          k = 0.0527 0.0300 0.0000 ( 41341 PWs)   bands (ev):

   -61.7501 -61.7403 -61.5618 -61.5519 -61.1783 -61.1683 -48.8706 -48.8643
   -48.8563 -48.8501 -48.2765 -48.2620 -30.2960 -30.2733 -30.2623 -30.2189
   -30.1926 -30.1296 -30.1187 -30.1053 -30.0633 -30.0570 -30.0366 -29.9096
   -29.7768 -29.6942 -29.6662 -29.5893 -29.5670 -29.5667 -27.5282 -27.5194
   -27.4999 -27.4893 -27.4869 -27.4752 -27.4200 -27.4110 -27.4098 -27.4007
   -27.3944 -27.3863 -26.9351 -26.8861 -26.8735 -26.8499 -26.8397 -26.8005
    -4.0840  -2.9072  -2.4270  -1.6107  -1.5792  -1.1344  -1.0835  -0.8114
    -0.7638  -0.5271  -0.1518  -0.1409   0.0541   0.1408   0.1690   0.3929
     0.4880   0.5892   0.8221   0.9173   1.0357   1.0648   1.1310   1.1502
     1.2233   1.2345   1.2853   1.5021   1.5935   1.7508   1.7846   1.8457
     1.9522   2.0111   2.2801

          k = 0.0527 0.0450 0.0000 ( 41321 PWs)   bands (ev):

   -61.7501 -61.7403 -61.5618 -61.5519 -61.1783 -61.1683 -48.8706 -48.8644
   -48.8563 -48.8501 -48.2765 -48.2620 -30.2956 -30.2732 -30.2613 -30.2167
   -30.1923 -30.1292 -30.1176 -30.1051 -30.0613 -30.0572 -30.0362 -29.9099
   -29.7758 -29.6926 -29.6665 -29.5888 -29.5671 -29.5670 -27.5300 -27.5211
   -27.5018 -27.4879 -27.4871 -27.4750 -27.4238 -27.4142 -27.4102 -27.4011
   -27.3940 -27.3859 -26.9368 -26.8868 -26.8735 -26.8524 -26.8399 -26.8001
    -3.8903  -2.7493  -2.6008  -1.6709  -1.6419  -1.1626  -0.8378  -0.8317
    -0.6367  -0.4771  -0.0384  -0.0047   0.1216   0.2142   0.2514   0.4502
     0.4692   0.6327   0.7239   0.8290   0.9408   0.9979   1.0339   1.0773
     1.1702   1.2043   1.2682   1.3639   1.4655   1.6302   1.6401   1.7280
     1.8376   2.0782   2.1087

          k = 0.0527 0.0600 0.0000 ( 41330 PWs)   bands (ev):

   -61.7501 -61.7403 -61.5618 -61.5519 -61.1783 -61.1683 -48.8706 -48.8644
   -48.8563 -48.8501 -48.2765 -48.2620 -30.2953 -30.2732 -30.2602 -30.2145
   -30.1921 -30.1288 -30.1165 -30.1049 -30.0596 -30.0571 -30.0358 -29.9103
   -29.7747 -29.6910 -29.6667 -29.5881 -29.5673 -29.5672 -27.5318 -27.5227
   -27.5035 -27.4873 -27.4869 -27.4749 -27.4273 -27.4172 -27.4107 -27.4015
   -27.3938 -27.3857 -26.9384 -26.8876 -26.8735 -26.8547 -26.8403 -26.7998
    -3.6327  -2.7279  -2.5837  -1.9002  -1.6935  -1.1320  -0.8680  -0.5778
    -0.4908  -0.3445   0.0332   0.0627   0.2066   0.2895   0.3414   0.4317
     0.5441   0.6140   0.6767   0.7000   0.8875   0.9267   0.9678   1.0001
     1.1008   1.1672   1.2423   1.2854   1.3798   1.4580   1.5029   1.5829
     1.6698   1.9259   2.2173

          k = 0.0527 0.0750 0.0000 ( 41329 PWs)   bands (ev):

   -61.7501 -61.7403 -61.5618 -61.5519 -61.1783 -61.1683 -48.8706 -48.8644
   -48.8563 -48.8501 -48.2766 -48.2620 -30.2950 -30.2731 -30.2593 -30.2129
   -30.1919 -30.1285 -30.1157 -30.1048 -30.0589 -30.0564 -30.0356 -29.9105
   -29.7739 -29.6899 -29.6669 -29.5875 -29.5676 -29.5673 -27.5330 -27.5239
   -27.5046 -27.4874 -27.4862 -27.4748 -27.4297 -27.4193 -27.4112 -27.4019
   -27.3938 -27.3857 -26.9396 -26.8883 -26.8735 -26.8562 -26.8405 -26.7997
    -3.3347  -2.8048  -2.5948  -1.9990  -1.7231  -1.2947  -0.6663  -0.4772
    -0.3061  -0.1857  -0.0748   0.0570   0.2934   0.3411   0.4192   0.4704
     0.5402   0.5993   0.6221   0.6784   0.8452   0.8665   0.9166   0.9753
     1.0460   1.1594   1.1970   1.3027   1.3069   1.3444   1.3916   1.4351
     1.5479   1.7710   2.3246

          k = 0.0527 0.0899 0.0000 ( 41332 PWs)   bands (ev):

   -61.7501 -61.7403 -61.5618 -61.5519 -61.1783 -61.1683 -48.8706 -48.8644
   -48.8563 -48.8501 -48.2766 -48.2620 -30.2949 -30.2731 -30.2590 -30.2123
   -30.1918 -30.1284 -30.1154 -30.1048 -30.0588 -30.0560 -30.0355 -29.9106
   -29.7737 -29.6895 -29.6670 -29.5873 -29.5677 -29.5673 -27.5335 -27.5243
   -27.5050 -27.4874 -27.4860 -27.4748 -27.4305 -27.4201 -27.4113 -27.4020
   -27.3938 -27.3857 -26.9400 -26.8885 -26.8736 -26.8567 -26.8406 -26.7996
    -3.1253  -2.8304  -2.7553  -1.9308  -1.7325  -1.4238  -0.4453  -0.4421
    -0.2807  -0.2314  -0.1049   0.0368   0.3591   0.4100   0.4360   0.4619
     0.5050   0.5974   0.6001   0.6946   0.8026   0.8460   0.8818   1.0012
     1.0353   1.1855   1.1884   1.2604   1.2678   1.3411   1.3453   1.3745
     1.5019   1.7033   2.3676

          k = 0.0527 0.1049 0.0000 ( 41329 PWs)   bands (ev):

   -61.7501 -61.7403 -61.5618 -61.5519 -61.1783 -61.1683 -48.8706 -48.8644
   -48.8563 -48.8501 -48.2766 -48.2620 -30.2950 -30.2731 -30.2593 -30.2129
   -30.1919 -30.1285 -30.1157 -30.1048 -30.0589 -30.0564 -30.0356 -29.9105
   -29.7739 -29.6899 -29.6669 -29.5875 -29.5676 -29.5673 -27.5330 -27.5239
   -27.5046 -27.4874 -27.4862 -27.4748 -27.4297 -27.4193 -27.4112 -27.4019
   -27.3938 -27.3857 -26.9396 -26.8883 -26.8735 -26.8562 -26.8405 -26.7997
    -3.3347  -2.8048  -2.5948  -1.9990  -1.7231  -1.2947  -0.6663  -0.4772
    -0.3061  -0.1857  -0.0748   0.0570   0.2934   0.3411   0.4192   0.4704
     0.5402   0.5993   0.6221   0.6784   0.8452   0.8665   0.9166   0.9753
     1.0460   1.1594   1.1970   1.3027   1.3069   1.3443   1.3916   1.4351
     1.5479   1.7711   2.3265

          k = 0.0527-0.0600 0.0000 ( 41330 PWs)   bands (ev):

   -61.7501 -61.7403 -61.5618 -61.5519 -61.1783 -61.1683 -48.8706 -48.8644
   -48.8563 -48.8501 -48.2765 -48.2620 -30.2953 -30.2732 -30.2602 -30.2145
   -30.1921 -30.1288 -30.1165 -30.1049 -30.0596 -30.0571 -30.0358 -29.9103
   -29.7747 -29.6910 -29.6667 -29.5881 -29.5673 -29.5672 -27.5318 -27.5227
   -27.5035 -27.4873 -27.4869 -27.4749 -27.4273 -27.4172 -27.4107 -27.4015
   -27.3938 -27.3857 -26.9384 -26.8876 -26.8735 -26.8547 -26.8403 -26.7998
    -3.6327  -2.7279  -2.5837  -1.9002  -1.6935  -1.1320  -0.8680  -0.5778
    -0.4908  -0.3446   0.0332   0.0627   0.2066   0.2895   0.3414   0.4317
     0.5441   0.6140   0.6767   0.7000   0.8875   0.9267   0.9678   1.0001
     1.1008   1.1672   1.2423   1.2854   1.3798   1.4580   1.5029   1.5829
     1.6698   1.9259   2.2175

          k = 0.0527-0.0450 0.0000 ( 41321 PWs)   bands (ev):

   -61.7501 -61.7403 -61.5618 -61.5519 -61.1783 -61.1683 -48.8706 -48.8644
   -48.8563 -48.8501 -48.2765 -48.2620 -30.2956 -30.2732 -30.2613 -30.2167
   -30.1923 -30.1292 -30.1176 -30.1051 -30.0613 -30.0572 -30.0362 -29.9099
   -29.7758 -29.6926 -29.6665 -29.5888 -29.5671 -29.5670 -27.5300 -27.5211
   -27.5018 -27.4879 -27.4871 -27.4750 -27.4238 -27.4142 -27.4102 -27.4011
   -27.3940 -27.3859 -26.9368 -26.8868 -26.8735 -26.8524 -26.8399 -26.8001
    -3.8903  -2.7493  -2.6008  -1.6709  -1.6419  -1.1626  -0.8378  -0.8317
    -0.6367  -0.4771  -0.0384  -0.0047   0.1216   0.2142   0.2514   0.4502
     0.4692   0.6327   0.7239   0.8290   0.9408   0.9979   1.0339   1.0773
     1.1702   1.2043   1.2682   1.3639   1.4655   1.6302   1.6402   1.7282
     1.8377   2.0782   2.1092

          k = 0.0527-0.0300 0.0000 ( 41341 PWs)   bands (ev):

   -61.7501 -61.7403 -61.5618 -61.5519 -61.1783 -61.1683 -48.8706 -48.8643
   -48.8563 -48.8501 -48.2765 -48.2620 -30.2960 -30.2733 -30.2623 -30.2189
   -30.1926 -30.1296 -30.1187 -30.1053 -30.0633 -30.0570 -30.0366 -29.9096
   -29.7768 -29.6942 -29.6662 -29.5893 -29.5670 -29.5667 -27.5282 -27.5194
   -27.4999 -27.4893 -27.4869 -27.4752 -27.4200 -27.4110 -27.4098 -27.4007
   -27.3944 -27.3863 -26.9351 -26.8861 -26.8735 -26.8499 -26.8397 -26.8005
    -4.0840  -2.9072  -2.4270  -1.6107  -1.5792  -1.1344  -1.0835  -0.8114
    -0.7638  -0.5271  -0.1518  -0.1409   0.0541   0.1408   0.1690   0.3929
     0.4880   0.5892   0.8221   0.9173   1.0357   1.0648   1.1310   1.1502
     1.2233   1.2345   1.2853   1.5021   1.5936   1.7510   1.7847   1.8458
     1.9522   2.0111   2.2793

          k = 0.0527-0.0150 0.0000 ( 41303 PWs)   bands (ev):

   -61.7501 -61.7403 -61.5618 -61.5519 -61.1783 -61.1683 -48.8705 -48.8643
   -48.8563 -48.8501 -48.2765 -48.2620 -30.2963 -30.2733 -30.2631 -30.2204
   -30.1929 -30.1298 -30.1195 -30.1054 -30.0648 -30.0568 -30.0369 -29.9094
   -29.7775 -29.6953 -29.6661 -29.5897 -29.5669 -29.5665 -27.5268 -27.5181
   -27.4981 -27.4906 -27.4867 -27.4753 -27.4170 -27.4095 -27.4085 -27.4005
   -27.3949 -27.3868 -26.9337 -26.8857 -26.8735 -26.8479 -26.8395 -26.8009
    -4.2035  -3.0105  -2.2200  -1.6608  -1.6156  -1.2845  -1.0022  -0.9168
    -0.7362  -0.5157  -0.2794  -0.2570   0.0093   0.0944   0.1095   0.3667
     0.4918   0.5592   0.8955   0.9470   1.0556   1.1480   1.1601   1.2460
     1.2605   1.3017   1.3397   1.5669   1.7111   1.8127   1.8422   1.9034
     1.9430   2.1539   2.2444

          k = 0.0527 0.0000 0.0000 ( 41288 PWs)   bands (ev):

   -61.7501 -61.7403 -61.5618 -61.5519 -61.1783 -61.1683 -48.8705 -48.8643
   -48.8563 -48.8501 -48.2765 -48.2620 -30.2964 -30.2733 -30.2633 -30.2210
   -30.1930 -30.1299 -30.1197 -30.1054 -30.0653 -30.0567 -30.0370 -29.9094
   -29.7778 -29.6958 -29.6660 -29.5898 -29.5669 -29.5665 -27.5263 -27.5176
   -27.4973 -27.4914 -27.4866 -27.4753 -27.4157 -27.4094 -27.4076 -27.4004
   -27.3952 -27.3871 -26.9332 -26.8855 -26.8735 -26.8471 -26.8394 -26.8011
    -4.2439  -3.0460  -2.0746  -1.7485  -1.6859  -1.2127  -1.1477  -0.8393
    -0.7301  -0.4882  -0.3514  -0.3062  -0.0064   0.0786   0.0877   0.3593
     0.4927   0.5484   0.9330   0.9443   1.0622   1.1504   1.1787   1.2581
     1.3058   1.3133   1.4128   1.5649   1.7641   1.8118   1.8260   1.9460
     1.9669   2.2385   2.2592

          k = 0.0527 0.0150 0.0000 ( 41303 PWs)   bands (ev):

   -61.7501 -61.7403 -61.5618 -61.5519 -61.1783 -61.1683 -48.8705 -48.8643
   -48.8563 -48.8501 -48.2765 -48.2620 -30.2963 -30.2733 -30.2631 -30.2204
   -30.1929 -30.1298 -30.1195 -30.1054 -30.0648 -30.0568 -30.0369 -29.9094
   -29.7775 -29.6953 -29.6661 -29.5897 -29.5669 -29.5665 -27.5268 -27.5181
   -27.4981 -27.4906 -27.4867 -27.4753 -27.4170 -27.4095 -27.4085 -27.4005
   -27.3949 -27.3868 -26.9337 -26.8857 -26.8735 -26.8479 -26.8395 -26.8009
    -4.2035  -3.0105  -2.2200  -1.6608  -1.6156  -1.2845  -1.0022  -0.9168
    -0.7362  -0.5157  -0.2794  -0.2570   0.0093   0.0944   0.1095   0.3667
     0.4918   0.5592   0.8955   0.9470   1.0556   1.1480   1.1601   1.2460
     1.2605   1.3017   1.3397   1.5669   1.7111   1.8127   1.8421   1.9037
     1.9429   2.1537   2.2362

          k = 0.0659 0.0375 0.0000 ( 41310 PWs)   bands (ev):

   -61.7477 -61.7427 -61.5594 -61.5543 -61.1759 -61.1707 -48.8671 -48.8609
   -48.8597 -48.8535 -48.2730 -48.2655 -30.2904 -30.2785 -30.2137 -30.2117
   -30.1977 -30.1238 -30.1114 -30.1068 -30.0685 -30.0559 -30.0418 -29.9603
   -29.7267 -29.6870 -29.6724 -29.6180 -29.5836 -29.5721 -27.4973 -27.4972
   -27.4912 -27.4882 -27.4856 -27.4775 -27.4297 -27.4213 -27.4162 -27.4134
   -27.4082 -27.4042 -26.9038 -26.8834 -26.8766 -26.8491 -26.8429 -26.8330
    -3.7130  -2.8572  -2.5630  -1.8524  -1.3402  -1.1298  -0.9771  -0.6505
    -0.6141  -0.6078   0.0887   0.1011   0.1634   0.2742   0.3366   0.4815
     0.4993   0.6723   0.6780   0.8293   0.8962   0.9314   0.9814   0.9891
     1.1027   1.1579   1.2656   1.2773   1.3604   1.5681   1.6151   1.6963
     1.9602   1.9979   2.1558

          k = 0.0659 0.0525 0.0000 ( 41339 PWs)   bands (ev):

   -61.7477 -61.7427 -61.5594 -61.5543 -61.1759 -61.1707 -48.8672 -48.8609
   -48.8597 -48.8535 -48.2730 -48.2655 -30.2901 -30.2786 -30.2128 -30.2100
   -30.1980 -30.1235 -30.1114 -30.1073 -30.0675 -30.0544 -30.0420 -29.9608
   -29.7258 -29.6857 -29.6730 -29.6185 -29.5831 -29.5724 -27.4987 -27.4987
   -27.4917 -27.4886 -27.4847 -27.4779 -27.4296 -27.4214 -27.4180 -27.4128
   -27.4101 -27.4038 -26.9052 -26.8840 -26.8764 -26.8508 -26.8425 -26.8324
    -3.4957  -3.0376  -2.4007  -1.9616  -1.5486  -0.9432  -0.8220  -0.7317
    -0.6636  -0.4307   0.1546   0.1903   0.2081   0.3158   0.4065   0.4524
     0.5610   0.5990   0.6938   0.7356   0.8501   0.8639   0.9126   1.0054
     1.1104   1.1194   1.1884   1.2731   1.3141   1.4294   1.5678   1.6029
     1.8173   1.9912   2.1376

          k = 0.0659 0.0675 0.0000 ( 41327 PWs)   bands (ev):

   -61.7477 -61.7427 -61.5594 -61.5543 -61.1759 -61.1707 -48.8672 -48.8609
   -48.8597 -48.8535 -48.2731 -48.2655 -30.2898 -30.2787 -30.2117 -30.2086
   -30.1984 -30.1232 -30.1114 -30.1079 -30.0665 -30.0529 -30.0424 -29.9613
   -29.7249 -29.6846 -29.6735 -29.6189 -29.5826 -29.5726 -27.4999 -27.4998
   -27.4926 -27.4883 -27.4840 -27.4784 -27.4287 -27.4223 -27.4189 -27.4125
   -27.4124 -27.4035 -26.9062 -26.8845 -26.8764 -26.8520 -26.8423 -26.8322
    -3.2240  -3.1607  -2.2931  -2.0411  -1.7815  -1.0291  -0.7405  -0.6581
    -0.4850  -0.2684   0.1086   0.1794   0.2698   0.2799   0.4039   0.4597
     0.5163   0.6109   0.7014   0.7689   0.8165   0.8765   0.9079   1.0014
     1.0405   1.1718   1.1723   1.2364   1.2779   1.3582   1.4869   1.5021
     1.6474   1.8552   2.2752

          k = 0.0659 0.0825 0.0000 ( 41320 PWs)   bands (ev):

   -61.7477 -61.7427 -61.5594 -61.5543 -61.1759 -61.1707 -48.8672 -48.8610
   -48.8597 -48.8535 -48.2731 -48.2655 -30.2897 -30.2787 -30.2111 -30.2077
   -30.1988 -30.1230 -30.1114 -30.1082 -30.0659 -30.0521 -30.0426 -29.9616
   -29.7244 -29.6839 -29.6739 -29.6192 -29.5824 -29.5727 -27.5005 -27.5004
   -27.4932 -27.4880 -27.4836 -27.4786 -27.4270 -27.4245 -27.4181 -27.4144
   -27.4123 -27.4033 -26.9067 -26.8848 -26.8764 -26.8525 -26.8422 -26.8322
    -3.2229  -2.9418  -2.4458  -2.0817  -1.7466  -1.2412  -0.7480  -0.4039
    -0.2893  -0.1529  -0.1009   0.0013   0.3450   0.3469   0.3708   0.4581
     0.4798   0.6694   0.7377   0.7720   0.7766   0.9220   0.9527   0.9732
     0.9777   1.1455   1.2094   1.2348   1.2704   1.3672   1.3912   1.4452
     1.5497   1.7619   2.3520

          k = 0.0659 0.0974 0.0000 ( 41320 PWs)   bands (ev):

   -61.7477 -61.7427 -61.5594 -61.5543 -61.1759 -61.1707 -48.8672 -48.8610
   -48.8597 -48.8535 -48.2731 -48.2655 -30.2897 -30.2787 -30.2111 -30.2077
   -30.1988 -30.1230 -30.1114 -30.1082 -30.0659 -30.0521 -30.0426 -29.9616
   -29.7244 -29.6839 -29.6739 -29.6192 -29.5824 -29.5727 -27.5005 -27.5004
   -27.4932 -27.4880 -27.4836 -27.4786 -27.4270 -27.4245 -27.4181 -27.4144
   -27.4123 -27.4033 -26.9067 -26.8848 -26.8764 -26.8525 -26.8422 -26.8322
    -3.2229  -2.9418  -2.4458  -2.0817  -1.7466  -1.2412  -0.7480  -0.4039
    -0.2893  -0.1529  -0.1009   0.0013   0.3450   0.3469   0.3708   0.4581
     0.4798   0.6694   0.7377   0.7720   0.7766   0.9220   0.9527   0.9732
     0.9777   1.1455   1.2094   1.2348   1.2704   1.3672   1.3912   1.4452
     1.5497   1.7619   2.3520

          k = 0.0659 0.1124 0.0000 ( 41327 PWs)   bands (ev):

   -61.7477 -61.7427 -61.5594 -61.5543 -61.1759 -61.1707 -48.8672 -48.8609
   -48.8597 -48.8535 -48.2731 -48.2655 -30.2898 -30.2787 -30.2117 -30.2086
   -30.1984 -30.1232 -30.1114 -30.1079 -30.0665 -30.0529 -30.0424 -29.9613
   -29.7249 -29.6846 -29.6735 -29.6189 -29.5826 -29.5726 -27.4999 -27.4998
   -27.4926 -27.4883 -27.4840 -27.4784 -27.4287 -27.4223 -27.4189 -27.4125
   -27.4124 -27.4035 -26.9062 -26.8845 -26.8764 -26.8520 -26.8423 -26.8322
    -3.2240  -3.1607  -2.2931  -2.0411  -1.7815  -1.0291  -0.7405  -0.6581
    -0.4850  -0.2684   0.1086   0.1794   0.2698   0.2799   0.4039   0.4597
     0.5163   0.6109   0.7014   0.7689   0.8165   0.8765   0.9079   1.0014
     1.0405   1.1718   1.1723   1.2364   1.2779   1.3582   1.4869   1.5021
     1.6474   1.8553   2.2750

          k = 0.0659-0.0525 0.0000 ( 41339 PWs)   bands (ev):

   -61.7477 -61.7427 -61.5594 -61.5543 -61.1759 -61.1707 -48.8672 -48.8609
   -48.8597 -48.8535 -48.2730 -48.2655 -30.2901 -30.2786 -30.2127 -30.2100
   -30.1980 -30.1235 -30.1114 -30.1073 -30.0675 -30.0544 -30.0420 -29.9608
   -29.7258 -29.6857 -29.6730 -29.6185 -29.5831 -29.5724 -27.4987 -27.4987
   -27.4917 -27.4886 -27.4847 -27.4779 -27.4296 -27.4214 -27.4180 -27.4128
   -27.4101 -27.4038 -26.9052 -26.8840 -26.8764 -26.8508 -26.8425 -26.8324
    -3.4957  -3.0376  -2.4007  -1.9616  -1.5486  -0.9432  -0.8220  -0.7317
    -0.6636  -0.4307   0.1546   0.1903   0.2081   0.3158   0.4065   0.4524
     0.5610   0.5990   0.6938   0.7356   0.8501   0.8639   0.9126   1.0054
     1.1104   1.1194   1.1884   1.2731   1.3141   1.4294   1.5678   1.6029
     1.8172   1.9908   2.1375

          k = 0.0659-0.0375 0.0000 ( 41310 PWs)   bands (ev):

   -61.7477 -61.7427 -61.5594 -61.5543 -61.1759 -61.1707 -48.8671 -48.8609
   -48.8597 -48.8535 -48.2730 -48.2655 -30.2904 -30.2785 -30.2136 -30.2117
   -30.1977 -30.1238 -30.1114 -30.1068 -30.0685 -30.0559 -30.0418 -29.9603
   -29.7267 -29.6870 -29.6724 -29.6180 -29.5836 -29.5721 -27.4973 -27.4972
   -27.4912 -27.4882 -27.4856 -27.4775 -27.4297 -27.4213 -27.4162 -27.4134
   -27.4082 -27.4042 -26.9038 -26.8834 -26.8766 -26.8491 -26.8429 -26.8330
    -3.7130  -2.8572  -2.5630  -1.8524  -1.3402  -1.1298  -0.9771  -0.6505
    -0.6141  -0.6078   0.0887   0.1011   0.1634   0.2742   0.3366   0.4815
     0.4993   0.6723   0.6780   0.8293   0.8962   0.9314   0.9814   0.9891
     1.1027   1.1579   1.2656   1.2773   1.3604   1.5680   1.6151   1.6962
     1.9597   1.9981   2.1635

          k = 0.0659-0.0225 0.0000 ( 41345 PWs)   bands (ev):

   -61.7477 -61.7427 -61.5594 -61.5543 -61.1759 -61.1707 -48.8671 -48.8609
   -48.8598 -48.8535 -48.2730 -48.2655 -30.2906 -30.2785 -30.2143 -30.2131
   -30.1976 -30.1241 -30.1114 -30.1064 -30.0692 -30.0572 -30.0418 -29.9598
   -29.7274 -29.6881 -29.6720 -29.6175 -29.5841 -29.5720 -27.4960 -27.4958
   -27.4912 -27.4872 -27.4866 -27.4772 -27.4293 -27.4211 -27.4149 -27.4139
   -27.4068 -27.4047 -26.9024 -26.8829 -26.8768 -26.8472 -26.8433 -26.8339
    -3.8628  -2.6864  -2.6284  -1.7782  -1.3932  -1.3477  -0.8704  -0.8113
    -0.5444  -0.5251  -0.0403  -0.0215   0.1251   0.2340   0.2666   0.4276
     0.5172   0.6298   0.7608   0.8907   0.9358   1.0050   1.0466   1.0842
     1.1278   1.1936   1.2142   1.3746   1.4543   1.6308   1.6781   1.7518
     1.8060   2.0832   2.1483

          k = 0.0659-0.0075 0.0000 ( 41303 PWs)   bands (ev):

   -61.7477 -61.7427 -61.5595 -61.5543 -61.1759 -61.1707 -48.8671 -48.8609
   -48.8598 -48.8535 -48.2730 -48.2655 -30.2907 -30.2785 -30.2146 -30.2139
   -30.1976 -30.1242 -30.1113 -30.1061 -30.0696 -30.0580 -30.0418 -29.9596
   -29.7279 -29.6887 -29.6717 -29.6172 -29.5843 -29.5718 -27.4950 -27.4950
   -27.4913 -27.4873 -27.4864 -27.4771 -27.4290 -27.4208 -27.4144 -27.4143
   -27.4061 -27.4050 -26.9015 -26.8826 -26.8770 -26.8458 -26.8436 -26.8347
    -3.9391  -2.7510  -2.3879  -1.9287  -1.3884  -1.3738  -1.0855  -0.6613
    -0.5140  -0.4054  -0.2002  -0.1108   0.1003   0.2153   0.2212   0.4178
     0.5232   0.6009   0.8182   0.9109   0.9750   1.0265   1.0818   1.1100
     1.1522   1.1809   1.3124   1.4097   1.5364   1.6109   1.6906   1.7469
     1.7868   2.0332   2.2575

          k = 0.0659 0.0075 0.0000 ( 41303 PWs)   bands (ev):

   -61.7477 -61.7427 -61.5595 -61.5543 -61.1759 -61.1707 -48.8671 -48.8609
   -48.8598 -48.8535 -48.2730 -48.2655 -30.2907 -30.2785 -30.2146 -30.2139
   -30.1976 -30.1242 -30.1113 -30.1061 -30.0696 -30.0580 -30.0418 -29.9596
   -29.7279 -29.6887 -29.6717 -29.6172 -29.5843 -29.5718 -27.4950 -27.4950
   -27.4913 -27.4873 -27.4864 -27.4771 -27.4290 -27.4208 -27.4144 -27.4143
   -27.4061 -27.4050 -26.9015 -26.8826 -26.8770 -26.8458 -26.8436 -26.8347
    -3.9391  -2.7510  -2.3879  -1.9287  -1.3884  -1.3738  -1.0855  -0.6613
    -0.5140  -0.4054  -0.2002  -0.1108   0.1003   0.2153   0.2212   0.4178
     0.5232   0.6009   0.8182   0.9109   0.9750   1.0265   1.0818   1.1100
     1.1522   1.1809   1.3124   1.4097   1.5364   1.6109   1.6905   1.7469
     1.7869   2.0333   2.2552

          k = 0.0659 0.0225 0.0000 ( 41345 PWs)   bands (ev):

   -61.7477 -61.7427 -61.5594 -61.5543 -61.1759 -61.1707 -48.8671 -48.8609
   -48.8598 -48.8535 -48.2730 -48.2655 -30.2906 -30.2785 -30.2143 -30.2131
   -30.1976 -30.1241 -30.1114 -30.1064 -30.0692 -30.0572 -30.0418 -29.9598
   -29.7274 -29.6881 -29.6720 -29.6175 -29.5841 -29.5720 -27.4960 -27.4958
   -27.4912 -27.4872 -27.4866 -27.4772 -27.4293 -27.4211 -27.4149 -27.4139
   -27.4068 -27.4047 -26.9024 -26.8829 -26.8769 -26.8472 -26.8433 -26.8339
    -3.8628  -2.6864  -2.6284  -1.7782  -1.3932  -1.3477  -0.8704  -0.8113
    -0.5444  -0.5251  -0.0403  -0.0215   0.1251   0.2340   0.2666   0.4276
     0.5172   0.6298   0.7608   0.8907   0.9358   1.0050   1.0466   1.0842
     1.1278   1.1936   1.2142   1.3746   1.4543   1.6308   1.6781   1.7520
     1.8062   2.0836   2.1484

          k =-0.0791-0.0450 0.0000 ( 41316 PWs)   bands (ev):

   -61.7452 -61.7452 -61.5569 -61.5569 -61.1733 -61.1733 -48.8635 -48.8634
   -48.8572 -48.8572 -48.2694 -48.2691 -30.2844 -30.2844 -30.2047 -30.2047
   -30.1602 -30.1602 -30.1174 -30.1173 -30.0490 -30.0489 -30.0146 -30.0138
   -29.6801 -29.6801 -29.6719 -29.6719 -29.5778 -29.5778 -27.4942 -27.4941
   -27.4822 -27.4821 -27.4629 -27.4628 -27.4543 -27.4543 -27.4161 -27.4160
   -27.4071 -27.4071 -26.8808 -26.8805 -26.8691 -26.8688 -26.8456 -26.8453
    -3.2961  -3.2959  -2.1975  -2.1973  -1.1746  -1.1745  -0.8016  -0.8015
    -0.5587  -0.5586   0.1814   0.1816   0.2921   0.2923   0.4808   0.4809
     0.5878   0.5879   0.7363   0.7365   0.8182   0.8183   0.9062   0.9062
     1.1048   1.1049   1.2082   1.2083   1.3798   1.3802   1.6019   1.6022
     2.0106   2.0120   2.0857

          k =-0.0791-0.0300 0.0000 ( 41324 PWs)   bands (ev):

   -61.7452 -61.7452 -61.5569 -61.5569 -61.1733 -61.1733 -48.8635 -48.8634
   -48.8572 -48.8572 -48.2694 -48.2691 -30.2845 -30.2842 -30.2056 -30.2037
   -30.1609 -30.1595 -30.1175 -30.1172 -30.0497 -30.0480 -30.0151 -30.0134
   -29.6808 -29.6792 -29.6726 -29.6714 -29.5782 -29.5775 -27.4950 -27.4934
   -27.4827 -27.4816 -27.4638 -27.4617 -27.4552 -27.4532 -27.4178 -27.4146
   -27.4085 -27.4058 -26.8809 -26.8802 -26.8699 -26.8680 -26.8466 -26.8445
    -3.4672  -3.0657  -2.3252  -2.0567  -1.4710  -1.0299  -0.7933  -0.7375
    -0.6491  -0.4131   0.1285   0.1620   0.2828   0.2895   0.4014   0.4646
     0.5032   0.6995   0.7012   0.7780   0.8106   0.8879   0.8983   1.0001
     1.0717   1.1271   1.2289   1.2327   1.2761   1.4661   1.5575   1.6205
     1.8012   1.9857   2.1851

          k =-0.0791-0.0150 0.0000 ( 41324 PWs)   bands (ev):

   -61.7452 -61.7452 -61.5569 -61.5569 -61.1733 -61.1733 -48.8635 -48.8634
   -48.8573 -48.8572 -48.2694 -48.2691 -30.2847 -30.2841 -30.2062 -30.2029
   -30.1615 -30.1591 -30.1176 -30.1171 -30.0502 -30.0472 -30.0157 -30.0130
   -29.6812 -29.6782 -29.6734 -29.6711 -29.5785 -29.5772 -27.4956 -27.4928
   -27.4831 -27.4813 -27.4644 -27.4606 -27.4558 -27.4523 -27.4192 -27.4137
   -27.4096 -27.4050 -26.8809 -26.8797 -26.8707 -26.8672 -26.8476 -26.8440
    -3.5721  -2.7951  -2.4069  -2.0794  -1.5926  -1.0589  -1.0277  -0.5300
    -0.4672  -0.3245   0.0007   0.0314   0.2426   0.3074   0.3287   0.4487
     0.5013   0.6754   0.7692   0.8038   0.8556   0.9299   0.9597   1.0176
     1.0770   1.1563   1.1966   1.2807   1.3033   1.4881   1.5308   1.6135
     1.6452   1.8996   2.2804

          k =-0.0791-0.0000 0.0000 ( 41336 PWs)   bands (ev):

   -61.7452 -61.7452 -61.5569 -61.5569 -61.1733 -61.1733 -48.8635 -48.8634
   -48.8573 -48.8572 -48.2694 -48.2691 -30.2847 -30.2841 -30.2065 -30.2026
   -30.1617 -30.1589 -30.1176 -30.1171 -30.0504 -30.0469 -30.0160 -30.0129
   -29.6814 -29.6777 -29.6738 -29.6710 -29.5786 -29.5771 -27.4958 -27.4925
   -27.4832 -27.4812 -27.4646 -27.4602 -27.4560 -27.4519 -27.4198 -27.4134
   -27.4101 -27.4047 -26.8809 -26.8794 -26.8710 -26.8669 -26.8481 -26.8439
    -3.6074  -2.6016  -2.4347  -2.2451  -1.5103  -1.1820  -1.0756  -0.4388
    -0.2771  -0.2671  -0.2087  -0.0375   0.2273   0.3102   0.3215   0.4548
     0.4941   0.6582   0.8051   0.8423   0.8636   0.9621   0.9817   1.0067
     1.0697   1.0765   1.2677   1.3102   1.3715   1.4213   1.5512   1.5545
     1.6341   1.8603   2.3285

          k =-0.0791 0.0150 0.0000 ( 41324 PWs)   bands (ev):

   -61.7452 -61.7452 -61.5569 -61.5569 -61.1733 -61.1733 -48.8635 -48.8634
   -48.8573 -48.8572 -48.2694 -48.2691 -30.2847 -30.2841 -30.2062 -30.2029
   -30.1615 -30.1591 -30.1176 -30.1171 -30.0502 -30.0472 -30.0157 -30.0130
   -29.6812 -29.6782 -29.6734 -29.6711 -29.5785 -29.5772 -27.4956 -27.4928
   -27.4831 -27.4813 -27.4644 -27.4606 -27.4558 -27.4523 -27.4192 -27.4137
   -27.4096 -27.4050 -26.8809 -26.8797 -26.8707 -26.8672 -26.8476 -26.8440
    -3.5721  -2.7951  -2.4069  -2.0794  -1.5926  -1.0589  -1.0277  -0.5300
    -0.4672  -0.3245   0.0007   0.0314   0.2426   0.3074   0.3287   0.4487
     0.5013   0.6754   0.7692   0.8038   0.8556   0.9299   0.9597   1.0176
     1.0770   1.1563   1.1966   1.2807   1.3033   1.4881   1.5308   1.6135
     1.6452   1.8996   2.2795

          k =-0.0791 0.0300 0.0000 ( 41324 PWs)   bands (ev):

   -61.7452 -61.7452 -61.5569 -61.5569 -61.1733 -61.1733 -48.8635 -48.8634
   -48.8572 -48.8572 -48.2694 -48.2691 -30.2845 -30.2842 -30.2056 -30.2037
   -30.1609 -30.1595 -30.1175 -30.1172 -30.0497 -30.0480 -30.0151 -30.0134
   -29.6808 -29.6792 -29.6726 -29.6714 -29.5782 -29.5775 -27.4950 -27.4934
   -27.4827 -27.4816 -27.4638 -27.4617 -27.4552 -27.4532 -27.4178 -27.4146
   -27.4085 -27.4058 -26.8809 -26.8802 -26.8699 -26.8680 -26.8466 -26.8445
    -3.4672  -3.0657  -2.3252  -2.0567  -1.4710  -1.0299  -0.7933  -0.7375
    -0.6491  -0.4131   0.1285   0.1620   0.2828   0.2895   0.4014   0.4646
     0.5032   0.6995   0.7012   0.7780   0.8106   0.8879   0.8983   1.0001
     1.0717   1.1271   1.2289   1.2327   1.2761   1.4661   1.5575   1.6205
     1.8012   1.9855   2.1850

          k =-0.0791-0.1349 0.0000 ( 41316 PWs)   bands (ev):

   -61.7452 -61.7452 -61.5569 -61.5569 -61.1733 -61.1733 -48.8635 -48.8634
   -48.8572 -48.8572 -48.2694 -48.2691 -30.2844 -30.2844 -30.2047 -30.2047
   -30.1602 -30.1602 -30.1174 -30.1173 -30.0490 -30.0489 -30.0146 -30.0138
   -29.6801 -29.6801 -29.6719 -29.6719 -29.5778 -29.5778 -27.4942 -27.4941
   -27.4822 -27.4821 -27.4629 -27.4628 -27.4543 -27.4543 -27.4161 -27.4160
   -27.4071 -27.4071 -26.8808 -26.8805 -26.8691 -26.8688 -26.8456 -26.8453
    -3.2961  -3.2959  -2.1975  -2.1973  -1.1746  -1.1745  -0.8016  -0.8015
    -0.5587  -0.5586   0.1814   0.1816   0.2921   0.2923   0.4807   0.4809
     0.5878   0.5879   0.7363   0.7365   0.8182   0.8183   0.9061   0.9062
     1.1048   1.1050   1.2082   1.2083   1.3798   1.3803   1.6019   1.6022
     2.0105   2.0151   2.0861

     the Fermi energy is     0.9372 ev

!    total energy              =   -1347.98803502 Ry
     estimated scf accuracy    <       0.00000580 Ry
     smearing contrib. (-TS)   =      -0.10286255 Ry
     internal energy E=F+TS    =   -1347.88517247 Ry

     The total energy is F=E-TS. E is the sum of the following terms:
     one-electron contribution =   -7900.01099370 Ry
     hartree contribution      =    3934.39697987 Ry
     xc contribution           =    -365.30164477 Ry
     ewald contribution        =    2983.03048613 Ry
     electric field correction =       0.00000000 Ry

     convergence has been achieved in  21 iterations

     negative rho (up, down):  2.800E-04 0.000E+00

     Forces acting on atoms (cartesian axes, Ry/au):

     atom    1 type  1   force =     0.00000234   -0.00389018   -0.00216728
     atom    2 type  1   force =    -0.00000156   -0.00388840   -0.00216605
     atom    3 type  2   force =    -0.00000037    0.00517513    0.01859687
     atom    4 type  2   force =    -0.00000256    0.00517457    0.01860194
     atom    5 type  1   force =    -0.00000798    0.00151211   -0.00929292
     atom    6 type  1   force =    -0.00001341    0.00155388   -0.00931312
     atom    7 type  2   force =    -0.00001368   -0.00273240   -0.00495258
     atom    8 type  2   force =     0.00000295   -0.00272215   -0.00495614
     atom    9 type  1   force =     0.00001246   -0.00071021   -0.00060364
     atom   10 type  1   force =     0.00002379   -0.00067032   -0.00061523
     atom   11 type  2   force =    -0.00005350    0.00059447   -0.00157169
     atom   12 type  2   force =     0.00005153    0.00060351   -0.00156017

     Total force =     0.032158     Total SCF correction =     0.006701
     SCF correction compared to forces is large: reduce conv_thr to get better values

     Writing output data file ./Sc2Hf2/Sc2Hf2_beef.save/

     init_run     :    214.51s CPU    215.13s WALL (       1 calls)
     electrons    :   7693.86s CPU   7718.93s WALL (       1 calls)
     forces       :     54.93s CPU     55.18s WALL (       1 calls)

     Called by init_run:
     wfcinit      :    201.93s CPU    202.33s WALL (       1 calls)
     potinit      :      8.25s CPU      8.33s WALL (       1 calls)
     hinit0       :      2.65s CPU      2.66s WALL (       1 calls)

     Called by electrons:
     c_bands      :   7002.19s CPU   7019.03s WALL (      21 calls)
     sum_band     :    617.75s CPU    622.25s WALL (      21 calls)
     v_of_rho     :     53.23s CPU     54.51s WALL (      22 calls)
     newd         :     22.46s CPU     24.90s WALL (      22 calls)
     mix_rho      :      4.51s CPU      4.54s WALL (      21 calls)
     vdW_kernel   :      5.72s CPU      5.72s WALL (       1 calls)

     Called by c_bands:
     init_us_2    :     14.68s CPU     14.74s WALL (    3256 calls)
     cegterg      :   6950.09s CPU   6964.59s WALL (    1557 calls)

     Called by *egterg:
     cdiaghg      :    198.90s CPU    199.00s WALL (   10858 calls)
     h_psi        :   4943.73s CPU   4956.79s WALL (   10932 calls)
     s_psi        :    586.25s CPU    586.56s WALL (   10932 calls)
     g_psi        :      1.92s CPU      1.94s WALL (    9301 calls)

     Called by h_psi:
     h_psi:calbec :    763.87s CPU    765.29s WALL (   10932 calls)
     vloc_psi     :   3552.26s CPU   3563.30s WALL (   10932 calls)
     add_vuspsi   :    621.28s CPU    621.81s WALL (   10932 calls)

     General routines
     calbec       :   1059.07s CPU   1061.02s WALL (   12782 calls)
     fft          :     41.86s CPU     42.38s WALL (    1445 calls)
     ffts         :      0.84s CPU      0.85s WALL (      43 calls)
     fftw         :   3835.15s CPU   3847.36s WALL (  807492 calls)
     interpolate  :      1.17s CPU      1.18s WALL (      22 calls)

     Parallel routines
     fft_scatt_xy :     54.68s CPU     55.05s WALL (  808980 calls)
     fft_scatt_yz :   3229.15s CPU   3236.13s WALL (  808980 calls)

     PWSCF        :      2h13m CPU      2h14m WALL


   This run was terminated on:  23: 9:49  25Jun2022            

=------------------------------------------------------------------------------=
   JOB DONE.
=------------------------------------------------------------------------------=
