
     Program PWSCF v.6.6 starts on 12Jul2022 at 10:33:44 

     This program is part of the open-source Quantum ESPRESSO suite
     for quantum simulation of materials; please cite
         "P. Giannozzi et al., J. Phys.:Condens. Matter 21 395502 (2009);
         "P. Giannozzi et al., J. Phys.:Condens. Matter 29 465901 (2017);
          URL http://www.quantum-espresso.org", 
     in publications or presentations arising from this work. More details at
     http://www.quantum-espresso.org/quote

     Parallel version (MPI), running on    37 processors

     MPI processes distributed on     1 nodes
     R & G space division:  proc/nbgrp/npool/nimage =      37
     Fft bands division:     nmany     =       1
     Reading input from Sc2Hg2.in
Warning: card &CELL ignored
Warning: card / ignored

     Current dimensions of program PWSCF are:
     Max number of different atomic species (ntypx) = 10
     Max number of k-points (npk) =  40000
     Max angular momentum in pseudopotentials (lmaxx) =  3
     Presently stress not available with electric field and gates

     Message from routine cell_base_init:
     DEPRECATED: use true lattice parameter, not A to a.u. conversion factor
     file Sc.pbe-spn-rrkjus_psl.1.0.0.UPF: wavefunction(s)  3S 3P renormalized
     file Hg.pbe-n-rrkjus_psl.1.0.0.UPF: wavefunction(s)  6S renormalized

     **************************************************************************
     Initializing libbeef V0.1.2 with the BEEF-vdW functional.
     Citation: Wellendorff et al., PRB 85, 235149 (2012).
     **************************************************************************


     IMPORTANT: XC functional enforced from input :
     Exchange-correlation= BEEF-VDW
                           (   1   4  43  14   2   0   0)
     Any further DFT definition will be discarded
     Please, verify this is what you really want


     Subspace diagonalization in iterative solution of the eigenvalue problem:
     a serial algorithm will be used


     Parallelization info
     --------------------
     sticks:   dense  smooth     PW     G-vecs:    dense   smooth      PW
     Min         150      60     16                35524     8990    1316
     Max         151      61     17                35541     9003    1339
     Sum        5585    2235    623              1314885   332777   49293



     bravais-lattice index     =            0
     lattice parameter (alat)  =       1.8897  a.u.
     unit-cell volume          =    6015.8219 (a.u.)^3
     number of atoms/cell      =           12
     number of atomic types    =            2
     number of electrons       =       138.00
     number of Kohn-Sham states=           83
     kinetic-energy cutoff     =      55.1240  Ry
     charge density cutoff     =     551.2396  Ry
     convergence threshold     =      1.0E-05
     mixing beta               =       0.1000
     number of iterations used =           10  plain     mixing
     Exchange-correlation= BEEF-VDW
                           (   1   4  43  14   2   0   0)

     celldm(1)=   1.889726  celldm(2)=   0.000000  celldm(3)=   0.000000
     celldm(4)=   0.000000  celldm(5)=   0.000000  celldm(6)=   0.000000

     crystal axes: (cart. coord. in units of alat)
               a(1) = (   6.147756   0.000000   0.000000 )  
               a(2) = (   2.051102   5.795505   0.000000 )  
               a(3) = (   0.000000   0.000000  25.020187 )  

     reciprocal axes: (cart. coord. in units 2 pi/alat)
               b(1) = (  0.162661 -0.057568  0.000000 )  
               b(2) = (  0.000000  0.172548  0.000000 )  
               b(3) = (  0.000000  0.000000  0.039968 )  


     PseudoPot. # 1 for Sc read from file:
     ../pseudo/Sc.pbe-spn-rrkjus_psl.1.0.0.UPF
     MD5 check sum: f739f74c200e509e5c24cbe053202ee5
     Pseudo is Ultrasoft + core correction, Zval = 11.0
     Generated using "atomic" code by A. Dal Corso v.6.2.2
     Using radial grid of 1173 points,  6 beta functions with: 
                l(1) =   0
                l(2) =   0
                l(3) =   1
                l(4) =   1
                l(5) =   2
                l(6) =   2
     Q(r) pseudized with 0 coefficients 


     PseudoPot. # 2 for Hg read from file:
     ../pseudo/Hg.pbe-n-rrkjus_psl.1.0.0.UPF
     MD5 check sum: 7519ac2e5b9cac440d3cfd4127d6ea3c
     Pseudo is Ultrasoft + core correction, Zval = 12.0
     Generated using "atomic" code by A. Dal Corso v.6.3
     Using radial grid of 1279 points,  6 beta functions with: 
                l(1) =   0
                l(2) =   0
                l(3) =   1
                l(4) =   1
                l(5) =   2
                l(6) =   2
     Q(r) pseudized with 0 coefficients 


     atomic species   valence    mass     pseudopotential
        Sc            11.00    44.95591     Sc( 1.00)
        Hg            12.00   200.59200     Hg( 1.00)

     No symmetry found



   Cartesian axes

     site n.     atom                  positions (alat units)
         1           Sc  tau(   1) = (   0.0000000   0.0000000  10.0000000  )
         2           Sc  tau(   2) = (   4.0994289   2.8977527  10.0000000  )
         3           Hg  tau(   3) = (   3.0738779   0.0000000  10.0000000  )
         4           Hg  tau(   4) = (   1.0255510   2.8977527  10.0000000  )
         5           Sc  tau(   5) = (   6.1477558   4.3456483  12.5100934  )
         6           Sc  tau(   6) = (   2.0483269   1.4478956  12.5100934  )
         7           Hg  tau(   7) = (   3.0738779   4.3456483  12.5100934  )
         8           Hg  tau(   8) = (   5.1222049   1.4478956  12.5100934  )
         9           Sc  tau(   9) = (   4.0968443   2.8959150  14.9729275  )
        10           Sc  tau(  10) = (   8.1962881   5.7937017  14.9729122  )
        11           Hg  tau(  11) = (   7.1706977   2.8958581  15.0691755  )
        12           Hg  tau(  12) = (   5.1223542   5.7936743  15.0691738  )

     number of k points=    74  Fermi-Dirac smearing, width (Ry)=  0.0100
                       cart. coord. in units 2pi/alat
        k(    1) = (   0.0000000   0.0000000   0.0000000), wk =   0.0138889
        k(    2) = (   0.0000000   0.0143790   0.0000000), wk =   0.0277778
        k(    3) = (   0.0000000   0.0287579   0.0000000), wk =   0.0277778
        k(    4) = (   0.0000000   0.0431369   0.0000000), wk =   0.0277778
        k(    5) = (   0.0000000   0.0575158   0.0000000), wk =   0.0277778
        k(    6) = (   0.0000000   0.0718948   0.0000000), wk =   0.0277778
        k(    7) = (   0.0000000  -0.0862738   0.0000000), wk =   0.0138889
        k(    8) = (   0.0135551  -0.0047973   0.0000000), wk =   0.0277778
        k(    9) = (   0.0135551   0.0095816   0.0000000), wk =   0.0277778
        k(   10) = (   0.0135551   0.0239606   0.0000000), wk =   0.0277778
        k(   11) = (   0.0135551   0.0383396   0.0000000), wk =   0.0277778
        k(   12) = (   0.0135551   0.0527185   0.0000000), wk =   0.0277778
        k(   13) = (   0.0135551   0.0670975   0.0000000), wk =   0.0277778
        k(   14) = (   0.0135551  -0.0910711   0.0000000), wk =   0.0277778
        k(   15) = (   0.0135551  -0.0766921   0.0000000), wk =   0.0277778
        k(   16) = (   0.0135551  -0.0623132   0.0000000), wk =   0.0277778
        k(   17) = (   0.0135551  -0.0479342   0.0000000), wk =   0.0277778
        k(   18) = (   0.0135551  -0.0335552   0.0000000), wk =   0.0277778
        k(   19) = (   0.0135551  -0.0191763   0.0000000), wk =   0.0277778
        k(   20) = (   0.0271102  -0.0095946   0.0000000), wk =   0.0277778
        k(   21) = (   0.0271102   0.0047843   0.0000000), wk =   0.0277778
        k(   22) = (   0.0271102   0.0191633   0.0000000), wk =   0.0277778
        k(   23) = (   0.0271102   0.0335423   0.0000000), wk =   0.0277778
        k(   24) = (   0.0271102   0.0479212   0.0000000), wk =   0.0277778
        k(   25) = (   0.0271102   0.0623002   0.0000000), wk =   0.0277778
        k(   26) = (   0.0271102  -0.0958684   0.0000000), wk =   0.0277778
        k(   27) = (   0.0271102  -0.0814894   0.0000000), wk =   0.0277778
        k(   28) = (   0.0271102  -0.0671105   0.0000000), wk =   0.0277778
        k(   29) = (   0.0271102  -0.0527315   0.0000000), wk =   0.0277778
        k(   30) = (   0.0271102  -0.0383525   0.0000000), wk =   0.0277778
        k(   31) = (   0.0271102  -0.0239736   0.0000000), wk =   0.0277778
        k(   32) = (   0.0406652  -0.0143919   0.0000000), wk =   0.0277778
        k(   33) = (   0.0406652  -0.0000130   0.0000000), wk =   0.0277778
        k(   34) = (   0.0406652   0.0143660   0.0000000), wk =   0.0277778
        k(   35) = (   0.0406652   0.0287449   0.0000000), wk =   0.0277778
        k(   36) = (   0.0406652   0.0431239   0.0000000), wk =   0.0277778
        k(   37) = (   0.0406652   0.0575029   0.0000000), wk =   0.0277778
        k(   38) = (   0.0406652  -0.1006657   0.0000000), wk =   0.0277778
        k(   39) = (   0.0406652  -0.0862867   0.0000000), wk =   0.0277778
        k(   40) = (   0.0406652  -0.0719078   0.0000000), wk =   0.0277778
        k(   41) = (   0.0406652  -0.0575288   0.0000000), wk =   0.0277778
        k(   42) = (   0.0406652  -0.0431499   0.0000000), wk =   0.0277778
        k(   43) = (   0.0406652  -0.0287709   0.0000000), wk =   0.0277778
        k(   44) = (   0.0542203  -0.0191893   0.0000000), wk =   0.0277778
        k(   45) = (   0.0542203  -0.0048103   0.0000000), wk =   0.0277778
        k(   46) = (   0.0542203   0.0095687   0.0000000), wk =   0.0277778
        k(   47) = (   0.0542203   0.0239476   0.0000000), wk =   0.0277778
        k(   48) = (   0.0542203   0.0383266   0.0000000), wk =   0.0277778
        k(   49) = (   0.0542203   0.0527055   0.0000000), wk =   0.0277778
        k(   50) = (   0.0542203  -0.1054630   0.0000000), wk =   0.0277778
        k(   51) = (   0.0542203  -0.0910841   0.0000000), wk =   0.0277778
        k(   52) = (   0.0542203  -0.0767051   0.0000000), wk =   0.0277778
        k(   53) = (   0.0542203  -0.0623261   0.0000000), wk =   0.0277778
        k(   54) = (   0.0542203  -0.0479472   0.0000000), wk =   0.0277778
        k(   55) = (   0.0542203  -0.0335682   0.0000000), wk =   0.0277778
        k(   56) = (   0.0677754  -0.0239866   0.0000000), wk =   0.0277778
        k(   57) = (   0.0677754  -0.0096076   0.0000000), wk =   0.0277778
        k(   58) = (   0.0677754   0.0047714   0.0000000), wk =   0.0277778
        k(   59) = (   0.0677754   0.0191503   0.0000000), wk =   0.0277778
        k(   60) = (   0.0677754   0.0335293   0.0000000), wk =   0.0277778
        k(   61) = (   0.0677754   0.0479082   0.0000000), wk =   0.0277778
        k(   62) = (   0.0677754  -0.1102603   0.0000000), wk =   0.0277778
        k(   63) = (   0.0677754  -0.0958814   0.0000000), wk =   0.0277778
        k(   64) = (   0.0677754  -0.0815024   0.0000000), wk =   0.0277778
        k(   65) = (   0.0677754  -0.0671234   0.0000000), wk =   0.0277778
        k(   66) = (   0.0677754  -0.0527445   0.0000000), wk =   0.0277778
        k(   67) = (   0.0677754  -0.0383655   0.0000000), wk =   0.0277778
        k(   68) = (  -0.0813305   0.0287839   0.0000000), wk =   0.0138889
        k(   69) = (  -0.0813305   0.0431628   0.0000000), wk =   0.0277778
        k(   70) = (  -0.0813305   0.0575418   0.0000000), wk =   0.0277778
        k(   71) = (  -0.0813305   0.0719208   0.0000000), wk =   0.0277778
        k(   72) = (  -0.0813305   0.0862997   0.0000000), wk =   0.0277778
        k(   73) = (  -0.0813305   0.1006787   0.0000000), wk =   0.0277778
        k(   74) = (  -0.0813305  -0.0574899   0.0000000), wk =   0.0138889

     Dense  grid:  1314885 G-vectors     FFT dimensions: (  90,  90, 360)

     Smooth grid:   332777 G-vectors     FFT dimensions: (  60,  60, 225)

     Estimated max dynamical RAM per process >     247.32 MB

     Estimated total dynamical RAM >       8.94 GB

     Initial potential from superposition of free atoms

     starting charge  137.98414, renormalised to  138.00000

     negative rho (up, down):  1.295E-03 0.000E+00


     %%%%%%%%%%%%%%%%%%%%%%%%%%%%%%%%%%%%%%%%%%%%%%%%%%%%%%%%%%%%%%%%%%%%%%%%
     %                                                                      %
     % You are using vdW-DF, which was implemented by the Thonhauser group. %
     % Please cite the following two papers that made this development      %
     % possible and the two reviews that describe the various versions:     %
     %                                                                      %
     %   T. Thonhauser et al., PRL 115, 136402 (2015).                      %
     %   T. Thonhauser et al., PRB 76, 125112 (2007).                       %
     %   K. Berland et al., Rep. Prog. Phys. 78, 066501 (2015).             %
     %   D.C. Langreth et al., J. Phys.: Condens. Matter 21, 084203 (2009). %
     %                                                                      %
     %                                                                      %
     % If you are calculating the stress with vdW-DF, please also cite:     %
     %                                                                      %
     %   R. Sabatini et al., J. Phys.: Condens. Matter 24, 424209 (2012).   %
     %                                                                      %
     %%%%%%%%%%%%%%%%%%%%%%%%%%%%%%%%%%%%%%%%%%%%%%%%%%%%%%%%%%%%%%%%%%%%%%%%



     Adding external electric field

     Computed dipole along edir(3) : 
        Dipole               -0.0005 Ry au,         -0.0012 Debye
        Dipole field         -0.0000 Ry au, 

        Potential amp.        0.0001 Ry
        Total length         46.0993 bohr

     Starting wfcs are  114 randomized atomic wfcs

     total cpu time spent up to now is      774.5 secs

     Self-consistent Calculation

     iteration #  1     ecut=    55.12 Ry     beta= 0.10
     Davidson diagonalization with overlap
     ethr =  1.00E-02,  avg # of iterations =  1.8

     Threshold (ethr) on eigenvalues was too large:
     Diagonalizing with lowered threshold

     Davidson diagonalization with overlap
     ethr =  9.35E-04,  avg # of iterations =  5.7

     negative rho (up, down):  1.236E-03 0.000E+00

     Adding external electric field

     Computed dipole along edir(3) : 
        Dipole               -0.0812 Ry au,         -0.2065 Debye
        Dipole field         -0.0002 Ry au, 

        Potential amp.        0.0156 Ry
        Total length         46.0993 bohr


     total cpu time spent up to now is     4062.2 secs

     total energy              =   -1197.81891927 Ry
     estimated scf accuracy    <       1.37164520 Ry

     iteration #  2     ecut=    55.12 Ry     beta= 0.10
     Davidson diagonalization with overlap
     ethr =  9.94E-04,  avg # of iterations =  2.0

     negative rho (up, down):  1.215E-03 0.000E+00

     Adding external electric field

     Computed dipole along edir(3) : 
        Dipole                0.2511 Ry au,          0.6382 Debye
        Dipole field          0.0005 Ry au, 

        Potential amp.       -0.0484 Ry
        Total length         46.0993 bohr


     total cpu time spent up to now is     5445.3 secs

     total energy              =   -1197.87029496 Ry
     estimated scf accuracy    <       0.80966385 Ry

     iteration #  3     ecut=    55.12 Ry     beta= 0.10
     Davidson diagonalization with overlap
     ethr =  5.87E-04,  avg # of iterations =  2.6

     negative rho (up, down):  1.209E-03 0.000E+00

     Adding external electric field

     Computed dipole along edir(3) : 
        Dipole               -0.0579 Ry au,         -0.1473 Debye
        Dipole field         -0.0001 Ry au, 

        Potential amp.        0.0112 Ry
        Total length         46.0993 bohr


     total cpu time spent up to now is     6871.1 secs

     total energy              =   -1197.86822033 Ry
     estimated scf accuracy    <       2.61294676 Ry

     iteration #  4     ecut=    55.12 Ry     beta= 0.10
     Davidson diagonalization with overlap
     ethr =  5.87E-04,  avg # of iterations =  2.1

     negative rho (up, down):  1.166E-03 0.000E+00

     Adding external electric field

     Computed dipole along edir(3) : 
        Dipole               -0.0200 Ry au,         -0.0509 Debye
        Dipole field         -0.0000 Ry au, 

        Potential amp.        0.0039 Ry
        Total length         46.0993 bohr


     total cpu time spent up to now is     8214.3 secs

     total energy              =   -1197.88958029 Ry
     estimated scf accuracy    <       0.22621249 Ry

     iteration #  5     ecut=    55.12 Ry     beta= 0.10
     Davidson diagonalization with overlap
     ethr =  1.64E-04,  avg # of iterations = 10.1

     negative rho (up, down):  1.159E-03 0.000E+00

     Adding external electric field

     Computed dipole along edir(3) : 
        Dipole               -0.0181 Ry au,         -0.0460 Debye
        Dipole field         -0.0000 Ry au, 

        Potential amp.        0.0035 Ry
        Total length         46.0993 bohr


     total cpu time spent up to now is    11181.8 secs

     total energy              =   -1197.97926957 Ry
     estimated scf accuracy    <       0.12342876 Ry

     iteration #  6     ecut=    55.12 Ry     beta= 0.10
     Davidson diagonalization with overlap
     ethr =  8.94E-05,  avg # of iterations =  2.9

     negative rho (up, down):  1.140E-03 0.000E+00

     Adding external electric field

     Computed dipole along edir(3) : 
        Dipole               -0.0247 Ry au,         -0.0628 Debye
        Dipole field         -0.0001 Ry au, 

        Potential amp.        0.0048 Ry
        Total length         46.0993 bohr


     total cpu time spent up to now is    12728.2 secs

     total energy              =   -1197.97443874 Ry
     estimated scf accuracy    <       0.10170173 Ry

     iteration #  7     ecut=    55.12 Ry     beta= 0.10
     Davidson diagonalization with overlap
     ethr =  7.37E-05,  avg # of iterations =  2.0

     negative rho (up, down):  1.123E-03 0.000E+00

     Adding external electric field

     Computed dipole along edir(3) : 
        Dipole               -0.0407 Ry au,         -0.1035 Debye
        Dipole field         -0.0001 Ry au, 

        Potential amp.        0.0078 Ry
        Total length         46.0993 bohr


     total cpu time spent up to now is    14238.2 secs

     total energy              =   -1197.95051928 Ry
     estimated scf accuracy    <       0.06902011 Ry

     iteration #  8     ecut=    55.12 Ry     beta= 0.10
     Davidson diagonalization with overlap
     ethr =  5.00E-05,  avg # of iterations = 12.1

     negative rho (up, down):  1.095E-03 0.000E+00

     Adding external electric field

     Computed dipole along edir(3) : 
        Dipole               -0.0376 Ry au,         -0.0956 Debye
        Dipole field         -0.0001 Ry au, 

        Potential amp.        0.0072 Ry
        Total length         46.0993 bohr


     total cpu time spent up to now is    16865.1 secs

     total energy              =   -1197.99431422 Ry
     estimated scf accuracy    <       0.09647607 Ry

     iteration #  9     ecut=    55.12 Ry     beta= 0.10
     Davidson diagonalization with overlap
     ethr =  5.00E-05,  avg # of iterations =  3.4

     negative rho (up, down):  1.084E-03 0.000E+00

     Adding external electric field

     Computed dipole along edir(3) : 
        Dipole               -0.0380 Ry au,         -0.0965 Debye
        Dipole field         -0.0001 Ry au, 

        Potential amp.        0.0073 Ry
        Total length         46.0993 bohr


     total cpu time spent up to now is    18970.7 secs

     total energy              =   -1197.99998504 Ry
     estimated scf accuracy    <       0.09397683 Ry

     iteration # 10     ecut=    55.12 Ry     beta= 0.10
     Davidson diagonalization with overlap
     ethr =  5.00E-05,  avg # of iterations =  1.1

     negative rho (up, down):  1.066E-03 0.000E+00

     Adding external electric field

     Computed dipole along edir(3) : 
        Dipole               -0.0279 Ry au,         -0.0708 Debye
        Dipole field         -0.0001 Ry au, 

        Potential amp.        0.0054 Ry
        Total length         46.0993 bohr


     total cpu time spent up to now is    21017.2 secs

     total energy              =   -1197.97702305 Ry
     estimated scf accuracy    <       0.10884020 Ry

     iteration # 11     ecut=    55.12 Ry     beta= 0.10
     Davidson diagonalization with overlap
     ethr =  5.00E-05,  avg # of iterations =  1.3

     negative rho (up, down):  1.045E-03 0.000E+00

     Adding external electric field

     Computed dipole along edir(3) : 
        Dipole               -0.0230 Ry au,         -0.0584 Debye
        Dipole field         -0.0000 Ry au, 

        Potential amp.        0.0044 Ry
        Total length         46.0993 bohr


     total cpu time spent up to now is    23246.4 secs

     total energy              =   -1197.96516006 Ry
     estimated scf accuracy    <       0.04825246 Ry

     iteration # 12     ecut=    55.12 Ry     beta= 0.10
     Davidson diagonalization with overlap
     c_bands:  2 eigenvalues not converged
     ethr =  3.50E-05,  avg # of iterations =  8.8

     negative rho (up, down):  1.042E-03 0.000E+00

     Adding external electric field

     Computed dipole along edir(3) : 
        Dipole               -0.0242 Ry au,         -0.0616 Debye
        Dipole field         -0.0001 Ry au, 

        Potential amp.        0.0047 Ry
        Total length         46.0993 bohr


     total cpu time spent up to now is    25454.1 secs

     total energy              =   -1197.97623019 Ry
     estimated scf accuracy    <       0.00417259 Ry

     iteration # 13     ecut=    55.12 Ry     beta= 0.10
     Davidson diagonalization with overlap
     c_bands:  2 eigenvalues not converged
     c_bands:  3 eigenvalues not converged
     c_bands:  4 eigenvalues not converged
     c_bands:  1 eigenvalues not converged
     c_bands:  1 eigenvalues not converged
     c_bands:  1 eigenvalues not converged
     c_bands:  3 eigenvalues not converged
     c_bands:  3 eigenvalues not converged
     c_bands:  1 eigenvalues not converged
     c_bands:  1 eigenvalues not converged
     c_bands:  3 eigenvalues not converged
     c_bands:  4 eigenvalues not converged
     c_bands:  2 eigenvalues not converged
     c_bands:  3 eigenvalues not converged
     c_bands:  3 eigenvalues not converged
     c_bands:  3 eigenvalues not converged
     c_bands:  3 eigenvalues not converged
     c_bands:  4 eigenvalues not converged
     c_bands:  3 eigenvalues not converged
     c_bands:  2 eigenvalues not converged
     c_bands:  1 eigenvalues not converged
     c_bands:  2 eigenvalues not converged
     c_bands:  2 eigenvalues not converged
     c_bands:  2 eigenvalues not converged
     c_bands:  3 eigenvalues not converged
     c_bands:  2 eigenvalues not converged
     c_bands:  4 eigenvalues not converged
     c_bands:  4 eigenvalues not converged
     c_bands:  5 eigenvalues not converged
     c_bands:  5 eigenvalues not converged
     c_bands:  3 eigenvalues not converged
     c_bands:  2 eigenvalues not converged
     c_bands:  2 eigenvalues not converged
     c_bands:  2 eigenvalues not converged
     c_bands:  2 eigenvalues not converged
     c_bands:  4 eigenvalues not converged
     c_bands:  1 eigenvalues not converged
     c_bands:  1 eigenvalues not converged
     c_bands:  2 eigenvalues not converged
     c_bands:  2 eigenvalues not converged
     c_bands:  3 eigenvalues not converged
     c_bands:  2 eigenvalues not converged
     c_bands:  1 eigenvalues not converged
     c_bands:  1 eigenvalues not converged
     c_bands:  2 eigenvalues not converged
     c_bands:  3 eigenvalues not converged
     c_bands:  2 eigenvalues not converged
     c_bands:  3 eigenvalues not converged
     c_bands:  2 eigenvalues not converged
     c_bands:  2 eigenvalues not converged
     c_bands:  1 eigenvalues not converged
     c_bands:  1 eigenvalues not converged
     c_bands:  1 eigenvalues not converged
     c_bands:  2 eigenvalues not converged
     c_bands:  1 eigenvalues not converged
     c_bands:  2 eigenvalues not converged
     c_bands:  2 eigenvalues not converged
     c_bands:  1 eigenvalues not converged
     c_bands:  1 eigenvalues not converged
     ethr =  3.02E-06,  avg # of iterations = 20.1

     negative rho (up, down):  1.035E-03 0.000E+00

     Adding external electric field

     Computed dipole along edir(3) : 
        Dipole               -0.0245 Ry au,         -0.0622 Debye
        Dipole field         -0.0001 Ry au, 

        Potential amp.        0.0047 Ry
        Total length         46.0993 bohr


     total cpu time spent up to now is    37972.6 secs

     total energy              =   -1197.98133262 Ry
     estimated scf accuracy    <       0.00656525 Ry

     iteration # 14     ecut=    55.12 Ry     beta= 0.10
     Davidson diagonalization with overlap
     c_bands:  2 eigenvalues not converged
     c_bands:  1 eigenvalues not converged
     c_bands:  2 eigenvalues not converged
     c_bands:  2 eigenvalues not converged
     c_bands:  1 eigenvalues not converged
     c_bands:  1 eigenvalues not converged
     c_bands:  2 eigenvalues not converged
     c_bands:  2 eigenvalues not converged
     c_bands:  1 eigenvalues not converged
     c_bands:  1 eigenvalues not converged
     c_bands:  1 eigenvalues not converged
     c_bands:  2 eigenvalues not converged
     c_bands:  1 eigenvalues not converged
     c_bands:  3 eigenvalues not converged
     c_bands:  1 eigenvalues not converged
     c_bands:  2 eigenvalues not converged
     c_bands:  1 eigenvalues not converged
     c_bands:  2 eigenvalues not converged
     c_bands:  1 eigenvalues not converged
     c_bands:  3 eigenvalues not converged
     ethr =  3.02E-06,  avg # of iterations = 13.3

     negative rho (up, down):  1.036E-03 0.000E+00

     Adding external electric field

     Computed dipole along edir(3) : 
        Dipole               -0.0282 Ry au,         -0.0717 Debye
        Dipole field         -0.0001 Ry au, 

        Potential amp.        0.0054 Ry
        Total length         46.0993 bohr


     total cpu time spent up to now is    43878.2 secs

     total energy              =   -1197.97376819 Ry
     estimated scf accuracy    <       0.02213311 Ry

     iteration # 15     ecut=    55.12 Ry     beta= 0.10
     Davidson diagonalization with overlap
     c_bands:  2 eigenvalues not converged
     c_bands:  1 eigenvalues not converged
     c_bands:  1 eigenvalues not converged
     c_bands:  2 eigenvalues not converged
     c_bands:  1 eigenvalues not converged
     c_bands:  1 eigenvalues not converged
     ethr =  3.02E-06,  avg # of iterations = 10.8

     negative rho (up, down):  1.033E-03 0.000E+00

     Adding external electric field

     Computed dipole along edir(3) : 
        Dipole               -0.0331 Ry au,         -0.0841 Debye
        Dipole field         -0.0001 Ry au, 

        Potential amp.        0.0064 Ry
        Total length         46.0993 bohr


     total cpu time spent up to now is    47615.0 secs

     total energy              =   -1197.97842620 Ry
     estimated scf accuracy    <       0.00272127 Ry

     iteration # 16     ecut=    55.12 Ry     beta= 0.10
     Davidson diagonalization with overlap
     c_bands:  1 eigenvalues not converged
     c_bands:  1 eigenvalues not converged
     ethr =  1.97E-06,  avg # of iterations =  9.8

     negative rho (up, down):  1.025E-03 0.000E+00

     Adding external electric field

     Computed dipole along edir(3) : 
        Dipole               -0.0258 Ry au,         -0.0656 Debye
        Dipole field         -0.0001 Ry au, 

        Potential amp.        0.0050 Ry
        Total length         46.0993 bohr


     total cpu time spent up to now is    50589.1 secs

     total energy              =   -1197.97509467 Ry
     estimated scf accuracy    <       0.01153995 Ry

     iteration # 17     ecut=    55.12 Ry     beta= 0.10
     Davidson diagonalization with overlap
     c_bands:  1 eigenvalues not converged
     c_bands:  1 eigenvalues not converged
     ethr =  1.97E-06,  avg # of iterations = 10.4

     negative rho (up, down):  1.026E-03 0.000E+00

     Adding external electric field

     Computed dipole along edir(3) : 
        Dipole               -0.0255 Ry au,         -0.0649 Debye
        Dipole field         -0.0001 Ry au, 

        Potential amp.        0.0049 Ry
        Total length         46.0993 bohr


     total cpu time spent up to now is    54750.3 secs

     total energy              =   -1197.97764037 Ry
     estimated scf accuracy    <       0.00057273 Ry

     iteration # 18     ecut=    55.12 Ry     beta= 0.10
     Davidson diagonalization with overlap
     c_bands:  2 eigenvalues not converged
     c_bands:  1 eigenvalues not converged
     ethr =  4.15E-07,  avg # of iterations =  9.7

     negative rho (up, down):  1.031E-03 0.000E+00

     Adding external electric field

     Computed dipole along edir(3) : 
        Dipole               -0.0265 Ry au,         -0.0674 Debye
        Dipole field         -0.0001 Ry au, 

        Potential amp.        0.0051 Ry
        Total length         46.0993 bohr


     total cpu time spent up to now is    58521.8 secs

     total energy              =   -1197.97750660 Ry
     estimated scf accuracy    <       0.00033409 Ry

     iteration # 19     ecut=    55.12 Ry     beta= 0.10
     Davidson diagonalization with overlap
     c_bands:  1 eigenvalues not converged
     c_bands:  2 eigenvalues not converged
     ethr =  2.42E-07,  avg # of iterations = 11.4

     negative rho (up, down):  1.028E-03 0.000E+00

     Adding external electric field

     Computed dipole along edir(3) : 
        Dipole               -0.0260 Ry au,         -0.0660 Debye
        Dipole field         -0.0001 Ry au, 

        Potential amp.        0.0050 Ry
        Total length         46.0993 bohr


     total cpu time spent up to now is    61651.7 secs

     total energy              =   -1197.97763381 Ry
     estimated scf accuracy    <       0.00127448 Ry

     iteration # 20     ecut=    55.12 Ry     beta= 0.10
     Davidson diagonalization with overlap
     c_bands:  2 eigenvalues not converged
     c_bands:  1 eigenvalues not converged
     ethr =  2.42E-07,  avg # of iterations =  6.5

     negative rho (up, down):  1.028E-03 0.000E+00

     Adding external electric field

     Computed dipole along edir(3) : 
        Dipole               -0.0264 Ry au,         -0.0670 Debye
        Dipole field         -0.0001 Ry au, 

        Potential amp.        0.0051 Ry
        Total length         46.0993 bohr


     total cpu time spent up to now is    63517.6 secs

     total energy              =   -1197.97788662 Ry
     estimated scf accuracy    <       0.00036144 Ry

     iteration # 21     ecut=    55.12 Ry     beta= 0.10
     Davidson diagonalization with overlap
     c_bands:  1 eigenvalues not converged
     ethr =  2.42E-07,  avg # of iterations =  2.8

     negative rho (up, down):  1.027E-03 0.000E+00

     Adding external electric field

     Computed dipole along edir(3) : 
        Dipole               -0.0256 Ry au,         -0.0650 Debye
        Dipole field         -0.0001 Ry au, 

        Potential amp.        0.0049 Ry
        Total length         46.0993 bohr


     total cpu time spent up to now is    65000.5 secs

     total energy              =   -1197.97797691 Ry
     estimated scf accuracy    <       0.00082852 Ry

     iteration # 22     ecut=    55.12 Ry     beta= 0.10
     Davidson diagonalization with overlap
     ethr =  2.42E-07,  avg # of iterations =  3.3

     negative rho (up, down):  1.025E-03 0.000E+00

     Adding external electric field

     Computed dipole along edir(3) : 
        Dipole               -0.0248 Ry au,         -0.0630 Debye
        Dipole field         -0.0001 Ry au, 

        Potential amp.        0.0048 Ry
        Total length         46.0993 bohr


     total cpu time spent up to now is    66599.9 secs

     total energy              =   -1197.97777205 Ry
     estimated scf accuracy    <       0.00109610 Ry

     iteration # 23     ecut=    55.12 Ry     beta= 0.10
     Davidson diagonalization with overlap
     ethr =  2.42E-07,  avg # of iterations =  1.4

     negative rho (up, down):  1.027E-03 0.000E+00

     Adding external electric field

     Computed dipole along edir(3) : 
        Dipole               -0.0255 Ry au,         -0.0647 Debye
        Dipole field         -0.0001 Ry au, 

        Potential amp.        0.0049 Ry
        Total length         46.0993 bohr


     total cpu time spent up to now is    68028.3 secs

     total energy              =   -1197.97814218 Ry
     estimated scf accuracy    <       0.00060703 Ry

     iteration # 24     ecut=    55.12 Ry     beta= 0.10
     Davidson diagonalization with overlap
     ethr =  2.42E-07,  avg # of iterations =  7.6

     negative rho (up, down):  1.024E-03 0.000E+00

     Adding external electric field

     Computed dipole along edir(3) : 
        Dipole               -0.0269 Ry au,         -0.0683 Debye
        Dipole field         -0.0001 Ry au, 

        Potential amp.        0.0052 Ry
        Total length         46.0993 bohr


     total cpu time spent up to now is    70138.7 secs

     total energy              =   -1197.97766635 Ry
     estimated scf accuracy    <       0.00185802 Ry

     iteration # 25     ecut=    55.12 Ry     beta= 0.10
     Davidson diagonalization with overlap
     ethr =  2.42E-07,  avg # of iterations =  7.3

     negative rho (up, down):  1.023E-03 0.000E+00

     Adding external electric field

     Computed dipole along edir(3) : 
        Dipole               -0.0277 Ry au,         -0.0705 Debye
        Dipole field         -0.0001 Ry au, 

        Potential amp.        0.0053 Ry
        Total length         46.0993 bohr


     total cpu time spent up to now is    72312.8 secs

     total energy              =   -1197.97758596 Ry
     estimated scf accuracy    <       0.00051347 Ry

     iteration # 26     ecut=    55.12 Ry     beta= 0.10
     Davidson diagonalization with overlap
     ethr =  2.42E-07,  avg # of iterations =  8.9

     negative rho (up, down):  1.024E-03 0.000E+00

     Adding external electric field

     Computed dipole along edir(3) : 
        Dipole               -0.0278 Ry au,         -0.0706 Debye
        Dipole field         -0.0001 Ry au, 

        Potential amp.        0.0053 Ry
        Total length         46.0993 bohr


     total cpu time spent up to now is    74658.8 secs

     total energy              =   -1197.97768843 Ry
     estimated scf accuracy    <       0.00002985 Ry

     iteration # 27     ecut=    55.12 Ry     beta= 0.10
     Davidson diagonalization with overlap
     c_bands:  1 eigenvalues not converged
     c_bands:  1 eigenvalues not converged
     c_bands:  1 eigenvalues not converged
     c_bands:  1 eigenvalues not converged
     ethr =  2.16E-08,  avg # of iterations = 13.4

     negative rho (up, down):  1.024E-03 0.000E+00

     Adding external electric field

     Computed dipole along edir(3) : 
        Dipole               -0.0267 Ry au,         -0.0680 Debye
        Dipole field         -0.0001 Ry au, 

        Potential amp.        0.0051 Ry
        Total length         46.0993 bohr


     total cpu time spent up to now is    77848.6 secs

     total energy              =   -1197.97770996 Ry
     estimated scf accuracy    <       0.00001635 Ry

     iteration # 28     ecut=    55.12 Ry     beta= 0.10
     Davidson diagonalization with overlap
     c_bands:  1 eigenvalues not converged
     ethr =  1.18E-08,  avg # of iterations = 13.0

     negative rho (up, down):  1.024E-03 0.000E+00

     Adding external electric field

     Computed dipole along edir(3) : 
        Dipole               -0.0267 Ry au,         -0.0678 Debye
        Dipole field         -0.0001 Ry au, 

        Potential amp.        0.0051 Ry
        Total length         46.0993 bohr


     total cpu time spent up to now is    81419.5 secs

     total energy              =   -1197.97768807 Ry
     estimated scf accuracy    <       0.00010180 Ry

     iteration # 29     ecut=    55.12 Ry     beta= 0.10
     Davidson diagonalization with overlap
     c_bands:  2 eigenvalues not converged
     ethr =  1.18E-08,  avg # of iterations = 12.9

     negative rho (up, down):  1.023E-03 0.000E+00

     Adding external electric field

     Computed dipole along edir(3) : 
        Dipole               -0.0275 Ry au,         -0.0699 Debye
        Dipole field         -0.0001 Ry au, 

        Potential amp.        0.0053 Ry
        Total length         46.0993 bohr


     total cpu time spent up to now is    88205.9 secs

     End of self-consistent calculation

          k = 0.0000 0.0000 0.0000 ( 41611 PWs)   bands (ev):

   -49.8837 -49.8773 -49.8534 -49.8470 -49.7149 -49.7085 -28.5267 -28.5187
   -28.4933 -28.4852 -28.4451 -28.4397 -28.4204 -28.4175 -28.4146 -28.3917
   -28.3319 -28.3237 -28.3059 -28.3047 -28.2900 -28.2721 -28.2647 -28.2341
    -7.0549  -7.0334  -7.0026  -6.9751  -6.9080  -6.8229  -6.8148  -6.7941
    -6.7831  -6.7659  -6.7030  -6.6846  -6.6639  -6.6252  -6.6038  -6.5636
    -6.5610  -6.5265  -6.5030  -6.4736  -6.4340  -6.4310  -6.3825  -6.3824
    -6.3425  -6.2578  -6.2183  -6.1219  -6.0930  -6.0600  -5.9588  -5.1975
    -3.6387  -3.3835  -3.1618  -2.8831  -0.7517  -0.3581   0.1415   0.2556
     0.2688   0.3170   0.4118   0.7149   0.8112   0.9815   1.1699   1.2207
     1.3766   1.3853   1.4507   1.4605   1.5474   1.6500   1.8649   1.9471
     2.0158   2.2004   2.3564

          k = 0.0000 0.0144 0.0000 ( 41602 PWs)   bands (ev):

   -49.8836 -49.8774 -49.8533 -49.8471 -49.7148 -49.7086 -28.5265 -28.5189
   -28.4932 -28.4854 -28.4451 -28.4399 -28.4204 -28.4161 -28.4148 -28.3903
   -28.3334 -28.3222 -28.3074 -28.3044 -28.2902 -28.2720 -28.2649 -28.2357
    -7.0364  -7.0242  -6.9942  -6.9679  -6.9046  -6.8061  -6.7960  -6.7859
    -6.7682  -6.7668  -6.7040  -6.6848  -6.6592  -6.6283  -6.6019  -6.5654
    -6.5557  -6.5218  -6.4998  -6.4711  -6.4360  -6.4286  -6.3855  -6.3792
    -6.3414  -6.2613  -6.2221  -6.1392  -6.0985  -6.0630  -5.9701  -5.1704
    -3.6275  -3.5084  -3.1713  -2.9363  -0.7210  -0.2410  -0.0521   0.1783
     0.2782   0.4335   0.4459   0.6557   0.8777   0.9808   1.0612   1.1619
     1.2938   1.4106   1.4534   1.4653   1.5409   1.7399   1.9012   1.9137
     1.9639   2.1773   2.3637

          k = 0.0000 0.0288 0.0000 ( 41582 PWs)   bands (ev):

   -49.8833 -49.8777 -49.8530 -49.8474 -49.7145 -49.7089 -28.5261 -28.5193
   -28.4928 -28.4858 -28.4449 -28.4403 -28.4204 -28.4154 -28.4119 -28.3862
   -28.3378 -28.3179 -28.3118 -28.3036 -28.2909 -28.2719 -28.2655 -28.2403
    -6.9977  -6.9876  -6.9700  -6.9477  -6.8948  -6.7700  -6.7648  -6.7635
    -6.7389  -6.7203  -6.7082  -6.6837  -6.6458  -6.6370  -6.6087  -6.5597
    -6.5407  -6.5086  -6.4914  -6.4629  -6.4420  -6.4229  -6.3908  -6.3699
    -6.3379  -6.2698  -6.2304  -6.1819  -6.1141  -6.0808  -6.0030  -5.0884
    -3.8124  -3.5958  -3.2184  -3.0878  -0.5974  -0.2912  -0.0108   0.0112
     0.1696   0.4911   0.5884   0.6354   0.7472   0.9683   0.9805   1.0996
     1.2206   1.3903   1.4285   1.5021   1.5940   1.7854   1.8067   1.8514
     2.0020   2.1308   2.3657

          k = 0.0000 0.0431 0.0000 ( 41575 PWs)   bands (ev):

   -49.8828 -49.8782 -49.8525 -49.8479 -49.7139 -49.7094 -28.5255 -28.5199
   -28.4923 -28.4866 -28.4446 -28.4408 -28.4204 -28.4162 -28.4053 -28.3796
   -28.3448 -28.3188 -28.3110 -28.3024 -28.2920 -28.2715 -28.2663 -28.2476
    -6.9577  -6.9326  -6.9255  -6.9160  -6.8796  -6.7763  -6.7377  -6.7124
    -6.7012  -6.6786  -6.6764  -6.6606  -6.6335  -6.6249  -6.6237  -6.5398
    -6.5178  -6.4915  -6.4784  -6.4515  -6.4478  -6.4277  -6.3843  -6.3559
    -6.3349  -6.2799  -6.2385  -6.2134  -6.1371  -6.1226  -6.0552  -4.9507
    -4.2107  -3.5490  -3.3229  -3.2788  -0.4977  -0.3822  -0.2142   0.0145
     0.1619   0.4941   0.5435   0.5512   0.7572   0.9902   1.0489   1.0788
     1.1457   1.3342   1.3699   1.5287   1.6508   1.6813   1.7396   1.8129
     2.0425   2.1197   2.3073

          k = 0.0000 0.0575 0.0000 ( 41613 PWs)   bands (ev):

   -49.8821 -49.8789 -49.8518 -49.8485 -49.7133 -49.7101 -28.5247 -28.5208
   -28.4915 -28.4875 -28.4442 -28.4415 -28.4202 -28.4173 -28.3967 -28.3709
   -28.3539 -28.3279 -28.3019 -28.3008 -28.2935 -28.2710 -28.2673 -28.2570
    -6.9104  -6.8877  -6.8857  -6.8606  -6.8534  -6.7866  -6.7392  -6.7043
    -6.6873  -6.6802  -6.6586  -6.6140  -6.5990  -6.5883  -6.5661  -6.5162
    -6.4904  -6.4814  -6.4613  -6.4552  -6.4430  -6.4268  -6.3781  -6.3461
    -6.3413  -6.3015  -6.3003  -6.1897  -6.1639  -6.1203  -6.0790  -4.7572
    -4.6446  -3.6049  -3.4966  -3.3379  -0.6362  -0.3638  -0.1538  -0.1108
    -0.0979   0.5181   0.5576   0.6331   0.7774   1.0138   1.0766   1.1157
     1.1166   1.2434   1.2817   1.4224   1.6561   1.6780   1.7711   1.7942
     2.0116   2.1697   2.2631

          k = 0.0000 0.0719 0.0000 ( 41599 PWs)   bands (ev):

   -49.8813 -49.8797 -49.8510 -49.8493 -49.7125 -49.7108 -28.5238 -28.5217
   -28.4906 -28.4885 -28.4436 -28.4423 -28.4198 -28.4183 -28.3865 -28.3644
   -28.3607 -28.3385 -28.2990 -28.2952 -28.2912 -28.2705 -28.2684 -28.2678
    -6.8660  -6.8584  -6.8400  -6.8339  -6.8004  -6.7913  -6.7499  -6.7260
    -6.7176  -6.7130  -6.6198  -6.5714  -6.5599  -6.5447  -6.5069  -6.4889
    -6.4783  -6.4625  -6.4534  -6.4444  -6.4294  -6.4024  -6.3855  -6.3646
    -6.3569  -6.3391  -6.3307  -6.2766  -6.1895  -6.1810  -5.8176  -5.0745
    -4.5122  -3.9156  -3.4491  -3.3788  -0.6743  -0.4306  -0.3869  -0.3026
     0.1880   0.5113   0.5424   0.6941   0.7747   0.9778   1.0556   1.0996
     1.1673   1.1720   1.2428   1.3073   1.6664   1.7608   1.7643   1.8686
     1.9402   2.1102   2.1767

          k = 0.0000-0.0863 0.0000 ( 41606 PWs)   bands (ev):

   -49.8805 -49.8805 -49.8502 -49.8502 -49.7117 -49.7116 -28.5228 -28.5228
   -28.4896 -28.4896 -28.4430 -28.4430 -28.4192 -28.4192 -28.3755 -28.3755
   -28.3496 -28.3496 -28.2971 -28.2971 -28.2797 -28.2797 -28.2694 -28.2694
    -6.8450  -6.8450  -6.8202  -6.8202  -6.7780  -6.7780  -6.7477  -6.7477
    -6.7398  -6.7398  -6.5813  -6.5812  -6.5478  -6.5477  -6.4803  -6.4802
    -6.4522  -6.4522  -6.4191  -6.4191  -6.3942  -6.3942  -6.3873  -6.3872
    -6.3713  -6.3712  -6.3481  -6.3480  -6.2035  -6.2034  -5.4732  -5.4732
    -4.2259  -4.2259  -3.4117  -3.4117  -0.5923  -0.5923  -0.4015  -0.4015
     0.4787   0.4787   0.5214   0.5215   0.8696   0.8696   1.0671   1.0671
     1.2108   1.2108   1.2277   1.2277   1.7179   1.7181   1.8512   1.8514
     1.9829   1.9831   2.1887

          k = 0.0136-0.0048 0.0000 ( 41602 PWs)   bands (ev):

   -49.8836 -49.8774 -49.8533 -49.8471 -49.7148 -49.7086 -28.5265 -28.5189
   -28.4932 -28.4854 -28.4451 -28.4399 -28.4204 -28.4161 -28.4148 -28.3903
   -28.3334 -28.3222 -28.3074 -28.3044 -28.2902 -28.2720 -28.2649 -28.2357
    -7.0364  -7.0242  -6.9942  -6.9679  -6.9046  -6.8061  -6.7960  -6.7859
    -6.7682  -6.7668  -6.7040  -6.6848  -6.6592  -6.6283  -6.6019  -6.5654
    -6.5557  -6.5218  -6.4998  -6.4711  -6.4360  -6.4286  -6.3855  -6.3792
    -6.3414  -6.2613  -6.2221  -6.1392  -6.0985  -6.0630  -5.9701  -5.1704
    -3.6275  -3.5084  -3.1713  -2.9363  -0.7210  -0.2410  -0.0521   0.1783
     0.2782   0.4335   0.4459   0.6557   0.8777   0.9808   1.0612   1.1619
     1.2938   1.4106   1.4535   1.4653   1.5409   1.7399   1.9012   1.9137
     1.9640   2.1778   2.3632

          k = 0.0136 0.0096 0.0000 ( 41597 PWs)   bands (ev):

   -49.8837 -49.8773 -49.8534 -49.8470 -49.7149 -49.7085 -28.5267 -28.5187
   -28.4934 -28.4853 -28.4454 -28.4395 -28.4209 -28.4176 -28.4146 -28.3919
   -28.3319 -28.3238 -28.3059 -28.3043 -28.2903 -28.2723 -28.2647 -28.2342
    -7.0480  -7.0239  -6.9954  -6.9595  -6.9025  -6.8125  -6.7913  -6.7841
    -6.7794  -6.7685  -6.7109  -6.6822  -6.6659  -6.6192  -6.5906  -6.5643
    -6.5587  -6.5248  -6.4964  -6.4663  -6.4265  -6.4256  -6.3807  -6.3668
    -6.3386  -6.2575  -6.2180  -6.1521  -6.1163  -6.0382  -5.9630  -5.1481
    -3.6462  -3.5210  -2.9766  -2.8959  -0.9517  -0.3296  -0.2733   0.1388
     0.2424   0.2762   0.5952   0.6479   0.9447   0.9620   0.9965   1.1371
     1.3566   1.3766   1.4626   1.4712   1.6091   1.6473   1.9348   1.9375
     1.9963   2.1659   2.3174

          k = 0.0136 0.0240 0.0000 ( 41553 PWs)   bands (ev):

   -49.8836 -49.8774 -49.8533 -49.8471 -49.7148 -49.7086 -28.5266 -28.5187
   -28.4934 -28.4854 -28.4455 -28.4394 -28.4214 -28.4163 -28.4148 -28.3906
   -28.3335 -28.3224 -28.3074 -28.3036 -28.2909 -28.2725 -28.2649 -28.2358
    -7.0249  -7.0062  -6.9807  -6.9382  -6.8938  -6.7952  -6.7718  -6.7672
    -6.7618  -6.7445  -6.7208  -6.6770  -6.6627  -6.6167  -6.5850  -6.5593
    -6.5525  -6.5179  -6.4913  -6.4543  -6.4223  -6.4174  -6.3807  -6.3494
    -6.3286  -6.2607  -6.2207  -6.1841  -6.1424  -6.0343  -5.9777  -5.0734
    -3.6968  -3.6484  -2.9734  -2.8909  -1.0145  -0.5872  -0.1682  -0.0686
     0.1294   0.2435   0.5741   0.7954   0.7999   0.9533   0.9921   1.0553
     1.2984   1.3357   1.4160   1.4873   1.6700   1.7168   1.8675   1.9249
     2.0117   2.1215   2.3234

          k = 0.0136 0.0383 0.0000 ( 41544 PWs)   bands (ev):

   -49.8833 -49.8777 -49.8529 -49.8474 -49.7145 -49.7089 -28.5263 -28.5191
   -28.4931 -28.4859 -28.4456 -28.4396 -28.4217 -28.4153 -28.4123 -28.3865
   -28.3379 -28.3180 -28.3118 -28.3024 -28.2919 -28.2725 -28.2655 -28.2404
    -6.9750  -6.9741  -6.9523  -6.9077  -6.8792  -6.7775  -6.7515  -6.7444
    -6.7278  -6.7177  -6.6810  -6.6705  -6.6504  -6.6193  -6.6028  -6.5383
    -6.5377  -6.5021  -6.4858  -6.4371  -6.4251  -6.4155  -6.3804  -6.3288
    -6.3024  -6.2647  -6.2286  -6.2160  -6.1736  -6.0561  -6.0122  -4.9470
    -4.0248  -3.6437  -3.1606  -2.8996  -0.8897  -0.7940  -0.2968  -0.0278
     0.0059   0.2522   0.5552   0.5679   0.8437   0.9862   1.0037   1.0289
     1.2191   1.2994   1.3295   1.5189   1.7353   1.7555   1.7698   1.7941
     2.0566   2.0991   2.2688

          k = 0.0136 0.0527 0.0000 ( 41561 PWs)   bands (ev):

   -49.8827 -49.8782 -49.8524 -49.8479 -49.7140 -49.7094 -28.5257 -28.5198
   -28.4926 -28.4866 -28.4456 -28.4400 -28.4218 -28.4160 -28.4057 -28.3800
   -28.3448 -28.3189 -28.3111 -28.3010 -28.2932 -28.2722 -28.2662 -28.2477
    -6.9331  -6.9135  -6.9092  -6.8731  -6.8601  -6.7865  -6.7518  -6.7043
    -6.6858  -6.6613  -6.6598  -6.6548  -6.6307  -6.6307  -6.5990  -6.5176
    -6.5150  -6.4866  -6.4733  -6.4374  -6.4257  -6.4182  -6.3841  -6.3087
    -6.3067  -6.2789  -6.2729  -6.2068  -6.1058  -6.1053  -6.0620  -4.7700
    -4.4399  -3.6439  -3.4392  -2.9542  -0.9166  -0.6313  -0.5137  -0.0827
    -0.0678   0.2895   0.5129   0.5744   0.8144   0.9696   1.0631   1.0660
     1.1295   1.2458   1.2702   1.4830   1.6451   1.6906   1.7964   1.8371
     2.0431   2.1466   2.2122

          k = 0.0136 0.0671 0.0000 ( 41560 PWs)   bands (ev):

   -49.8821 -49.8789 -49.8517 -49.8486 -49.7133 -49.7100 -28.5249 -28.5206
   -28.4918 -28.4874 -28.4453 -28.4406 -28.4215 -28.4168 -28.3970 -28.3712
   -28.3539 -28.3279 -28.3020 -28.2993 -28.2949 -28.2717 -28.2671 -28.2571
    -6.8906  -6.8677  -6.8443  -6.8384  -6.8356  -6.7992  -6.7658  -6.6956
    -6.6834  -6.6813  -6.6359  -6.6058  -6.6004  -6.5695  -6.5678  -6.4982
    -6.4927  -6.4839  -6.4554  -6.4456  -6.4392  -6.4019  -6.3940  -6.3316
    -6.3270  -6.2986  -6.2986  -6.2384  -6.1796  -6.1157  -5.8747  -4.8799
    -4.5472  -3.7667  -3.6586  -3.0304  -0.9268  -0.6906  -0.3098  -0.2521
    -0.1053   0.3303   0.5972   0.6474   0.7682   0.9867   1.0114   1.0824
     1.1050   1.2060   1.2426   1.3949   1.5791   1.7473   1.8145   1.8838
     2.0037   2.1508   2.1730

          k = 0.0136-0.0911 0.0000 ( 41580 PWs)   bands (ev):

   -49.8813 -49.8797 -49.8510 -49.8493 -49.7125 -49.7108 -28.5240 -28.5215
   -28.4908 -28.4884 -28.4448 -28.4413 -28.4209 -28.4175 -28.3868 -28.3642
   -28.3610 -28.3383 -28.2975 -28.2967 -28.2913 -28.2711 -28.2681 -28.2679
    -6.8616  -6.8226  -6.8206  -6.8164  -6.8109  -6.7773  -6.7707  -6.7329
    -6.7141  -6.7134  -6.5980  -6.5787  -6.5625  -6.5244  -6.5026  -6.4891
    -6.4763  -6.4651  -6.4527  -6.4438  -6.4170  -6.4053  -6.3945  -6.3609
    -6.3608  -6.3306  -6.3204  -6.2718  -6.2617  -6.1470  -5.5635  -5.3040
    -4.2891  -4.1028  -3.6863  -3.1208  -0.8233  -0.7886  -0.4112  -0.0682
     0.0652   0.3668   0.6391   0.7208   0.7782   0.7951   1.0663   1.0922
     1.1486   1.2039   1.2368   1.3329   1.6077   1.8220   1.8255   1.8507
     2.0008   2.0104   2.1559

          k = 0.0136-0.0767 0.0000 ( 41598 PWs)   bands (ev):

   -49.8805 -49.8805 -49.8502 -49.8501 -49.7117 -49.7116 -28.5230 -28.5226
   -28.4897 -28.4894 -28.4442 -28.4421 -28.4199 -28.4182 -28.3757 -28.3753
   -28.3498 -28.3494 -28.2986 -28.2957 -28.2797 -28.2797 -28.2698 -28.2690
    -6.8648  -6.8355  -6.8276  -6.8017  -6.7869  -6.7664  -6.7547  -6.7491
    -6.7388  -6.7258  -6.5911  -6.5650  -6.5530  -6.5310  -6.4992  -6.4702
    -6.4578  -6.4480  -6.4269  -6.4131  -6.4017  -6.3995  -6.3935  -6.3843
    -6.3808  -6.3581  -6.3549  -6.3446  -6.2560  -6.1439  -5.6839  -5.1954
    -4.4161  -4.0123  -3.7123  -3.2235  -0.8230  -0.5752  -0.4486   0.0156
     0.3921   0.4129   0.5634   0.6979   0.7140   0.8705   1.0150   1.1760
     1.1954   1.2234   1.2713   1.2963   1.6725   1.7732   1.8010   1.8317
     1.9203   2.0607   2.1749

          k = 0.0136-0.0623 0.0000 ( 41591 PWs)   bands (ev):

   -49.8813 -49.8796 -49.8510 -49.8493 -49.7125 -49.7109 -28.5236 -28.5219
   -28.4903 -28.4885 -28.4433 -28.4429 -28.4187 -28.4187 -28.3862 -28.3645
   -28.3604 -28.3386 -28.3004 -28.2940 -28.2911 -28.2699 -28.2687 -28.2678
    -6.8887  -6.8714  -6.8551  -6.8457  -6.8056  -6.7844  -6.7270  -6.7201
    -6.7176  -6.7100  -6.6338  -6.5630  -6.5588  -6.5419  -6.5114  -6.4981
    -6.4776  -6.4667  -6.4651  -6.4440  -6.4377  -6.4116  -6.3876  -6.3707
    -6.3682  -6.3412  -6.3290  -6.2849  -6.1974  -6.1262  -5.9914  -4.7888
    -4.6852  -3.7391  -3.7128  -3.3321  -0.7374  -0.3786  -0.2496   0.1176
     0.3355   0.4816   0.5985   0.7060   0.7638   0.9209   0.9245   1.1475
     1.2464   1.2575   1.3306   1.3841   1.6944   1.6980   1.7412   1.7505
     1.9953   2.1367   2.1645

          k = 0.0136-0.0479 0.0000 ( 41586 PWs)   bands (ev):

   -49.8821 -49.8789 -49.8518 -49.8485 -49.7133 -49.7101 -28.5246 -28.5209
   -28.4913 -28.4875 -28.4435 -28.4424 -28.4191 -28.4174 -28.3964 -28.3706
   -28.3539 -28.3280 -28.3020 -28.3018 -28.2925 -28.2705 -28.2675 -28.2569
    -6.9240  -6.9179  -6.8986  -6.8738  -6.8659  -6.7744  -6.7247  -6.7019
    -6.6904  -6.6762  -6.6713  -6.6273  -6.6030  -6.5902  -6.5566  -6.5253
    -6.4939  -6.4882  -6.4814  -6.4621  -6.4438  -6.4347  -6.3930  -6.3790
    -6.3614  -6.3014  -6.2699  -6.2052  -6.1814  -6.1199  -6.1077  -4.8975
    -4.3642  -3.6817  -3.4764  -3.4351  -0.5504  -0.2229   0.0835   0.1408
     0.2108   0.5759   0.5815   0.6061   0.8064   0.8947   0.9601   1.0540
     1.1976   1.3043   1.4799   1.5300   1.5971   1.6246   1.7238   1.8032
     2.0639   2.1207   2.2348

          k = 0.0136-0.0336 0.0000 ( 41630 PWs)   bands (ev):

   -49.8828 -49.8782 -49.8525 -49.8479 -49.7139 -49.7094 -28.5254 -28.5200
   -28.4921 -28.4865 -28.4442 -28.4414 -28.4195 -28.4163 -28.4052 -28.3794
   -28.3448 -28.3189 -28.3109 -28.3033 -28.2913 -28.2711 -28.2664 -28.2475
    -6.9713  -6.9447  -6.9436  -6.9296  -6.8894  -6.7688  -6.7457  -6.7157
    -6.6993  -6.6861  -6.6847  -6.6636  -6.6464  -6.6319  -6.6196  -6.5533
    -6.5215  -6.5001  -6.4810  -6.4655  -6.4630  -6.4235  -6.4070  -6.3853
    -6.3473  -6.2821  -6.2366  -6.2027  -6.1445  -6.0948  -6.0509  -5.0483
    -3.9519  -3.5983  -3.5222  -3.2484  -0.2910  -0.1652  -0.0134   0.2710
     0.2807   0.4526   0.5560   0.6836   0.7624   0.9246   0.9737   0.9866
     1.1618   1.3678   1.5315   1.5457   1.5645   1.6832   1.7601   1.8466
     2.0624   2.1101   2.3297

          k = 0.0136-0.0192 0.0000 ( 41602 PWs)   bands (ev):

   -49.8833 -49.8777 -49.8530 -49.8474 -49.7145 -49.7089 -28.5261 -28.5193
   -28.4927 -28.4858 -28.4447 -28.4406 -28.4199 -28.4154 -28.4118 -28.3860
   -28.3378 -28.3179 -28.3118 -28.3041 -28.2905 -28.2716 -28.2655 -28.2402
    -7.0061  -6.9923  -6.9765  -6.9620  -6.9001  -6.7778  -6.7718  -6.7667
    -6.7520  -6.7264  -6.7004  -6.6855  -6.6433  -6.6431  -6.6125  -6.5659
    -6.5431  -6.5113  -6.4968  -6.4699  -6.4493  -6.4266  -6.3963  -6.3856
    -6.3427  -6.2707  -6.2323  -6.1546  -6.1001  -6.0912  -5.9997  -5.1382
    -3.6335  -3.5869  -3.4337  -3.0624  -0.4331  -0.0383  -0.0195   0.2171
     0.2188   0.3156   0.6119   0.7669   0.7999   0.9229   0.9923   1.0698
     1.1654   1.4451   1.4808   1.4954   1.5267   1.8067   1.8343   1.8682
     1.9744   2.1468   2.3747

          k = 0.0271-0.0096 0.0000 ( 41582 PWs)   bands (ev):

   -49.8833 -49.8777 -49.8530 -49.8474 -49.7145 -49.7089 -28.5261 -28.5193
   -28.4928 -28.4858 -28.4449 -28.4403 -28.4204 -28.4154 -28.4119 -28.3862
   -28.3378 -28.3179 -28.3118 -28.3036 -28.2909 -28.2719 -28.2655 -28.2403
    -6.9977  -6.9876  -6.9700  -6.9477  -6.8948  -6.7700  -6.7648  -6.7635
    -6.7389  -6.7203  -6.7082  -6.6837  -6.6458  -6.6370  -6.6087  -6.5597
    -6.5407  -6.5086  -6.4914  -6.4629  -6.4420  -6.4229  -6.3908  -6.3699
    -6.3379  -6.2698  -6.2304  -6.1819  -6.1141  -6.0808  -6.0030  -5.0884
    -3.8124  -3.5958  -3.2184  -3.0878  -0.5974  -0.2912  -0.0108   0.0112
     0.1696   0.4911   0.5884   0.6354   0.7472   0.9683   0.9805   1.0996
     1.2206   1.3903   1.4285   1.5022   1.5940   1.7854   1.8067   1.8514
     2.0020   2.1308   2.3647

          k = 0.0271 0.0048 0.0000 ( 41553 PWs)   bands (ev):

   -49.8836 -49.8774 -49.8533 -49.8471 -49.7148 -49.7086 -28.5266 -28.5187
   -28.4934 -28.4854 -28.4455 -28.4394 -28.4214 -28.4163 -28.4148 -28.3906
   -28.3335 -28.3224 -28.3074 -28.3036 -28.2909 -28.2725 -28.2649 -28.2358
    -7.0249  -7.0062  -6.9807  -6.9382  -6.8938  -6.7952  -6.7718  -6.7672
    -6.7618  -6.7445  -6.7208  -6.6770  -6.6627  -6.6167  -6.5850  -6.5593
    -6.5525  -6.5179  -6.4913  -6.4543  -6.4223  -6.4174  -6.3807  -6.3494
    -6.3286  -6.2607  -6.2207  -6.1841  -6.1424  -6.0343  -5.9777  -5.0734
    -3.6968  -3.6484  -2.9734  -2.8909  -1.0145  -0.5872  -0.1682  -0.0686
     0.1294   0.2435   0.5741   0.7954   0.7999   0.9533   0.9921   1.0553
     1.2984   1.3357   1.4160   1.4873   1.6700   1.7167   1.8675   1.9249
     2.0117   2.1216   2.3235

          k = 0.0271 0.0192 0.0000 ( 41523 PWs)   bands (ev):

   -49.8837 -49.8773 -49.8534 -49.8470 -49.7149 -49.7084 -28.5268 -28.5185
   -28.4937 -28.4853 -28.4462 -28.4388 -28.4223 -28.4180 -28.4146 -28.3923
   -28.3320 -28.3239 -28.3060 -28.3031 -28.2913 -28.2730 -28.2648 -28.2344
    -7.0315  -6.9972  -6.9760  -6.9161  -6.8860  -6.8038  -6.7742  -6.7688
    -6.7561  -6.7342  -6.7160  -6.6692  -6.6679  -6.6025  -6.5654  -6.5566
    -6.5555  -6.5179  -6.4896  -6.4394  -6.4084  -6.4070  -6.3756  -6.3252
    -6.3076  -6.2577  -6.2163  -6.2040  -6.1767  -6.0098  -5.9745  -5.0074
    -3.6896  -3.6856  -2.9383  -2.6657  -1.2998  -0.8543  -0.3513  -0.2388
    -0.0200   0.2130   0.5807   0.6964   0.8321   0.9910   0.9944   1.0076
     1.1841   1.2769   1.4963   1.5004   1.6649   1.7371   1.8976   1.9464
     2.0671   2.0728   2.2083

          k = 0.0271 0.0335 0.0000 ( 41565 PWs)   bands (ev):

   -49.8836 -49.8774 -49.8532 -49.8471 -49.7148 -49.7085 -28.5268 -28.5186
   -28.4937 -28.4854 -28.4467 -28.4387 -28.4230 -28.4168 -28.4147 -28.3911
   -28.3336 -28.3226 -28.3075 -28.3021 -28.2921 -28.2733 -28.2650 -28.2360
    -7.0072  -6.9738  -6.9578  -6.8852  -6.8721  -6.7846  -6.7782  -6.7488
    -6.7481  -6.7320  -6.6730  -6.6654  -6.6582  -6.5964  -6.5763  -6.5528
    -6.5286  -6.5085  -6.4870  -6.4215  -6.4074  -6.3982  -6.3753  -6.2992
    -6.2674  -6.2474  -6.2362  -6.2142  -6.2101  -6.0115  -5.9909  -4.8923
    -3.8590  -3.7323  -3.0313  -2.5629  -1.3504  -1.0567  -0.6349  -0.2082
    -0.1203   0.1792   0.5140   0.5910   0.7541   0.9067   0.9929   1.0917
     1.1148   1.2364   1.4297   1.5239   1.7151   1.8128   1.8211   1.8499
     2.0358   2.1062   2.2082

          k = 0.0271 0.0479 0.0000 ( 41553 PWs)   bands (ev):

   -49.8832 -49.8777 -49.8529 -49.8474 -49.7145 -49.7088 -28.5265 -28.5190
   -28.4934 -28.4858 -28.4470 -28.4389 -28.4233 -28.4151 -28.4127 -28.3870
   -28.3379 -28.3182 -28.3119 -28.3009 -28.2933 -28.2734 -28.2655 -28.2406
    -6.9579  -6.9403  -6.9286  -6.8560  -6.8475  -6.7849  -6.7631  -6.7396
    -6.7021  -6.7014  -6.6533  -6.6490  -6.6418  -6.6015  -6.5939  -6.5416
    -6.5031  -6.4924  -6.4831  -6.4183  -6.4038  -6.3992  -6.3836  -6.2802
    -6.2752  -6.2741  -6.2520  -6.2413  -6.0883  -6.0407  -6.0240  -4.7307
    -4.2007  -3.7896  -3.2568  -2.5726  -1.1704  -1.1622  -0.8912  -0.1734
    -0.0892   0.1359   0.4007   0.6051   0.6489   0.8492   0.9989   1.0419
     1.1805   1.2028   1.3514   1.5201   1.6767   1.7570   1.7668   1.8834
     2.0637   2.1018   2.1486

          k = 0.0271 0.0623 0.0000 ( 41551 PWs)   bands (ev):

   -49.8827 -49.8783 -49.8524 -49.8479 -49.7140 -49.7093 -28.5260 -28.5196
   -28.4927 -28.4864 -28.4471 -28.4394 -28.4231 -28.4156 -28.4061 -28.3804
   -28.3449 -28.3188 -28.3113 -28.2994 -28.2947 -28.2731 -28.2662 -28.2479
    -6.9022  -6.8923  -6.8915  -6.8346  -6.8131  -6.7951  -6.7781  -6.6792
    -6.6748  -6.6460  -6.6424  -6.6393  -6.6303  -6.6246  -6.5832  -6.5239
    -6.4873  -6.4849  -6.4645  -6.4382  -6.4110  -6.3981  -6.3901  -6.3130
    -6.3035  -6.2871  -6.2626  -6.2582  -6.0948  -6.0681  -5.8678  -4.6242
    -4.5288  -3.8671  -3.5715  -2.6623  -1.1534  -1.0890  -0.8424  -0.2419
     0.0409   0.1113   0.4789   0.5221   0.6493   0.8488   1.0116   1.0246
     1.1821   1.1925   1.3062   1.4706   1.5647   1.7617   1.8103   1.9063
     2.0837   2.0868   2.1497

          k = 0.0271-0.0959 0.0000 ( 41605 PWs)   bands (ev):

   -49.8820 -49.8789 -49.8517 -49.8486 -49.7133 -49.7100 -28.5252 -28.5205
   -28.4919 -28.4872 -28.4468 -28.4401 -28.4226 -28.4161 -28.3974 -28.3716
   -28.3538 -28.3278 -28.3021 -28.2978 -28.2963 -28.2724 -28.2670 -28.2573
    -6.8690  -6.8493  -6.8234  -6.8136  -6.8087  -6.7896  -6.7845  -6.6861
    -6.6844  -6.6772  -6.6124  -6.6008  -6.5894  -6.5634  -6.5488  -6.5015
    -6.4923  -6.4776  -6.4598  -6.4365  -6.4307  -6.4151  -6.3857  -6.3414
    -6.3346  -6.3156  -6.2921  -6.2675  -6.1741  -6.1011  -5.5802  -5.0600
    -4.2993  -3.9563  -3.9188  -2.8023  -1.2211  -1.0071  -0.4463  -0.3077
     0.1099   0.2174   0.4280   0.6363   0.7046   0.9171   0.9838   1.0622
     1.1413   1.1832   1.3082   1.4251   1.5553   1.8111   1.8515   1.8553
     2.0084   2.0691   2.0793

          k = 0.0271-0.0815 0.0000 ( 41614 PWs)   bands (ev):

   -49.8813 -49.8797 -49.8509 -49.8494 -49.7125 -49.7108 -28.5242 -28.5214
   -28.4908 -28.4881 -28.4462 -28.4409 -28.4216 -28.4167 -28.3870 -28.3642
   -28.3613 -28.3382 -28.2980 -28.2962 -28.2913 -28.2715 -28.2681 -28.2678
    -6.8609  -6.8271  -6.8020  -6.7956  -6.7815  -6.7789  -6.7670  -6.7373
    -6.7167  -6.7054  -6.5834  -6.5629  -6.5596  -6.5080  -6.5051  -6.4911
    -6.4764  -6.4682  -6.4555  -6.4439  -6.4263  -6.4082  -6.3922  -6.3686
    -6.3582  -6.3356  -6.3188  -6.3151  -6.2694  -6.1066  -5.4670  -5.2400
    -4.2535  -4.0625  -4.0354  -2.9684  -1.2383  -0.7640  -0.3125  -0.0201
     0.1333   0.3848   0.3932   0.7637   0.7832   0.8957   1.0411   1.0839
     1.1169   1.2071   1.3581   1.4017   1.6118   1.7601   1.8338   1.8816
     1.8989   2.0679   2.0750

          k = 0.0271-0.0671 0.0000 ( 41586 PWs)   bands (ev):

   -49.8805 -49.8804 -49.8502 -49.8501 -49.7117 -49.7116 -28.5232 -28.5225
   -28.4896 -28.4891 -28.4452 -28.4417 -28.4203 -28.4172 -28.3758 -28.3752
   -28.3500 -28.3492 -28.2997 -28.2946 -28.2797 -28.2796 -28.2702 -28.2687
    -6.8792  -6.8447  -6.8182  -6.7962  -6.7804  -6.7626  -6.7560  -6.7527
    -6.7347  -6.7036  -6.5948  -6.5584  -6.5271  -6.5199  -6.5131  -6.4809
    -6.4568  -6.4557  -6.4326  -6.4154  -6.4072  -6.4062  -6.3964  -6.3956
    -6.3810  -6.3631  -6.3548  -6.3398  -6.2843  -6.0974  -5.8170  -4.8611
    -4.5463  -4.0869  -3.8307  -3.1377  -1.1365  -0.4420  -0.2178   0.1735
     0.3263   0.4115   0.5509   0.7378   0.8228   0.8802   1.0065   1.1420
     1.1767   1.2635   1.3807   1.4503   1.6687   1.6842   1.6865   1.8941
     2.0512   2.0820   2.1173

          k = 0.0271-0.0527 0.0000 ( 41567 PWs)   bands (ev):

   -49.8814 -49.8796 -49.8511 -49.8493 -49.7125 -49.7109 -28.5236 -28.5220
   -28.4901 -28.4885 -28.4440 -28.4426 -28.4188 -28.4179 -28.3861 -28.3645
   -28.3602 -28.3386 -28.3012 -28.2932 -28.2911 -28.2695 -28.2688 -28.2678
    -6.9048  -6.8749  -6.8626  -6.8522  -6.8147  -6.7726  -6.7212  -6.7211
    -6.7119  -6.6966  -6.6395  -6.5683  -6.5488  -6.5270  -6.5169  -6.4908
    -6.4902  -6.4718  -6.4680  -6.4514  -6.4489  -6.4147  -6.4033  -6.3968
    -6.3660  -6.3273  -6.3231  -6.2965  -6.2022  -6.0882  -6.0773  -4.7799
    -4.4602  -4.0830  -3.6202  -3.2924  -0.9199  -0.0816  -0.0635   0.2236
     0.4545   0.4764   0.5838   0.6817   0.8405   0.8611   0.9752   1.0810
     1.2152   1.3287   1.4018   1.5463   1.5660   1.6467   1.7574   1.8055
     2.0860   2.1298   2.1738

          k = 0.0271-0.0384 0.0000 ( 41604 PWs)   bands (ev):

   -49.8821 -49.8789 -49.8518 -49.8485 -49.7132 -49.7101 -28.5245 -28.5210
   -28.4911 -28.4874 -28.4434 -28.4427 -28.4186 -28.4175 -28.3963 -28.3705
   -28.3539 -28.3280 -28.3024 -28.3017 -28.2921 -28.2703 -28.2675 -28.2569
    -6.9288  -6.9284  -6.9032  -6.8782  -6.8707  -6.7691  -6.7244  -6.6968
    -6.6907  -6.6743  -6.6725  -6.6333  -6.6086  -6.5861  -6.5494  -6.5264
    -6.4987  -6.4938  -6.4909  -6.4637  -6.4476  -6.4364  -6.4121  -6.3945
    -6.3605  -6.3011  -6.2510  -6.2183  -6.2073  -6.1192  -6.0863  -4.9471
    -4.1045  -3.9654  -3.4274  -3.4217  -0.6195   0.0853   0.2019   0.2677
     0.2706   0.3984   0.5701   0.7408   0.7635   0.9413   0.9458   0.9637
     1.1924   1.3122   1.5111   1.5501   1.6025   1.6671   1.7006   1.8195
     2.0943   2.1663   2.1964

          k = 0.0271-0.0240 0.0000 ( 41630 PWs)   bands (ev):

   -49.8828 -49.8782 -49.8525 -49.8479 -49.7139 -49.7094 -28.5254 -28.5200
   -28.4921 -28.4865 -28.4442 -28.4414 -28.4195 -28.4163 -28.4052 -28.3794
   -28.3448 -28.3189 -28.3109 -28.3033 -28.2913 -28.2711 -28.2664 -28.2475
    -6.9713  -6.9447  -6.9436  -6.9296  -6.8894  -6.7688  -6.7457  -6.7157
    -6.6993  -6.6861  -6.6847  -6.6636  -6.6464  -6.6319  -6.6196  -6.5533
    -6.5215  -6.5001  -6.4810  -6.4655  -6.4630  -6.4235  -6.4070  -6.3853
    -6.3473  -6.2821  -6.2366  -6.2027  -6.1445  -6.0948  -6.0509  -5.0483
    -3.9519  -3.5983  -3.5222  -3.2484  -0.2910  -0.1652  -0.0134   0.2710
     0.2807   0.4526   0.5560   0.6836   0.7624   0.9246   0.9737   0.9866
     1.1618   1.3678   1.5314   1.5457   1.5646   1.6834   1.7603   1.8465
     2.0622   2.1104   2.3298

          k = 0.0407-0.0144 0.0000 ( 41575 PWs)   bands (ev):

   -49.8828 -49.8782 -49.8525 -49.8479 -49.7139 -49.7094 -28.5255 -28.5199
   -28.4923 -28.4866 -28.4446 -28.4408 -28.4204 -28.4162 -28.4053 -28.3796
   -28.3448 -28.3188 -28.3110 -28.3024 -28.2920 -28.2715 -28.2663 -28.2476
    -6.9577  -6.9326  -6.9255  -6.9160  -6.8796  -6.7763  -6.7377  -6.7124
    -6.7012  -6.6786  -6.6764  -6.6606  -6.6335  -6.6249  -6.6237  -6.5398
    -6.5178  -6.4915  -6.4784  -6.4515  -6.4478  -6.4277  -6.3843  -6.3559
    -6.3349  -6.2799  -6.2385  -6.2134  -6.1371  -6.1226  -6.0552  -4.9507
    -4.2107  -3.5490  -3.3229  -3.2788  -0.4977  -0.3822  -0.2142   0.0145
     0.1619   0.4941   0.5435   0.5512   0.7572   0.9902   1.0489   1.0788
     1.1457   1.3342   1.3699   1.5288   1.6514   1.6813   1.7397   1.8128
     2.0444   2.1212   2.3092

          k = 0.0407-0.0000 0.0000 ( 41544 PWs)   bands (ev):

   -49.8833 -49.8777 -49.8529 -49.8474 -49.7145 -49.7089 -28.5263 -28.5191
   -28.4931 -28.4859 -28.4456 -28.4396 -28.4217 -28.4153 -28.4123 -28.3865
   -28.3379 -28.3180 -28.3118 -28.3024 -28.2919 -28.2725 -28.2655 -28.2404
    -6.9750  -6.9741  -6.9523  -6.9077  -6.8792  -6.7775  -6.7515  -6.7444
    -6.7278  -6.7177  -6.6810  -6.6705  -6.6504  -6.6193  -6.6028  -6.5383
    -6.5377  -6.5021  -6.4858  -6.4371  -6.4251  -6.4155  -6.3804  -6.3288
    -6.3024  -6.2647  -6.2286  -6.2160  -6.1736  -6.0561  -6.0122  -4.9470
    -4.0248  -3.6437  -3.1606  -2.8996  -0.8897  -0.7940  -0.2968  -0.0278
     0.0059   0.2522   0.5552   0.5679   0.8437   0.9862   1.0037   1.0289
     1.2191   1.2994   1.3295   1.5189   1.7355   1.7555   1.7698   1.7941
     2.0570   2.1005   2.2693

          k = 0.0407 0.0144 0.0000 ( 41565 PWs)   bands (ev):

   -49.8836 -49.8774 -49.8532 -49.8471 -49.7148 -49.7085 -28.5268 -28.5186
   -28.4937 -28.4854 -28.4467 -28.4387 -28.4230 -28.4168 -28.4147 -28.3911
   -28.3336 -28.3226 -28.3075 -28.3021 -28.2921 -28.2733 -28.2650 -28.2360
    -7.0072  -6.9738  -6.9578  -6.8852  -6.8721  -6.7846  -6.7782  -6.7488
    -6.7481  -6.7320  -6.6730  -6.6654  -6.6582  -6.5964  -6.5763  -6.5528
    -6.5286  -6.5085  -6.4870  -6.4215  -6.4074  -6.3982  -6.3753  -6.2992
    -6.2674  -6.2474  -6.2362  -6.2142  -6.2101  -6.0115  -5.9909  -4.8923
    -3.8590  -3.7323  -3.0313  -2.5629  -1.3504  -1.0567  -0.6349  -0.2082
    -0.1203   0.1792   0.5140   0.5910   0.7541   0.9067   0.9929   1.0917
     1.1148   1.2364   1.4297   1.5239   1.7151   1.8128   1.8211   1.8499
     2.0360   2.1060   2.2083

          k = 0.0407 0.0287 0.0000 ( 41534 PWs)   bands (ev):

   -49.8836 -49.8773 -49.8533 -49.8470 -49.7149 -49.7084 -28.5271 -28.5184
   -28.4939 -28.4852 -28.4476 -28.4383 -28.4239 -28.4185 -28.4145 -28.3928
   -28.3321 -28.3242 -28.3060 -28.3015 -28.2927 -28.2740 -28.2649 -28.2346
    -7.0116  -6.9595  -6.9503  -6.8620  -6.8520  -6.7918  -6.7796  -6.7606
    -6.7524  -6.7161  -6.6694  -6.6517  -6.6453  -6.5796  -6.5652  -6.5600
    -6.5102  -6.5065  -6.4860  -6.4065  -6.4043  -6.3835  -6.3663  -6.2687
    -6.2603  -6.2564  -6.2560  -6.2121  -6.1644  -5.9990  -5.9830  -4.7903
    -3.8300  -3.8119  -2.9922  -2.3168  -1.6414  -1.2461  -0.9622  -0.3377
    -0.3073   0.1873   0.3714   0.5782   0.6216   0.8226   0.9578   1.0115
     1.1806   1.2176   1.4252   1.5350   1.7146   1.8164   1.8752   1.9262
     1.9467   2.0602   2.1416

          k = 0.0407 0.0431 0.0000 ( 41551 PWs)   bands (ev):

   -49.8835 -49.8774 -49.8532 -49.8471 -49.7148 -49.7085 -28.5271 -28.5185
   -28.4938 -28.4853 -28.4483 -28.4383 -28.4244 -28.4173 -28.4144 -28.3916
   -28.3337 -28.3228 -28.3076 -28.3005 -28.2936 -28.2743 -28.2651 -28.2363
    -6.9879  -6.9356  -6.9311  -6.8451  -6.8175  -6.7832  -6.7731  -6.7719
    -6.7293  -6.6914  -6.6633  -6.6346  -6.6325  -6.5755  -6.5718  -6.5591
    -6.4967  -6.4869  -6.4844  -6.4162  -6.3884  -6.3813  -6.3636  -6.2961
    -6.2837  -6.2676  -6.2402  -6.2165  -6.0167  -6.0160  -5.9906  -4.6450
    -3.9821  -3.9478  -3.1010  -2.2176  -1.6450  -1.3355  -1.2483  -0.3932
    -0.3170   0.1732   0.2328   0.4052   0.6322   0.7473   0.9374   0.9684
     1.1418   1.2909   1.3664   1.5350   1.7019   1.7546   1.8604   1.9335
     1.9359   2.0905   2.1483

          k = 0.0407 0.0575 0.0000 ( 41551 PWs)   bands (ev):

   -49.8832 -49.8778 -49.8528 -49.8474 -49.7145 -49.7088 -28.5268 -28.5189
   -28.4934 -28.4856 -28.4487 -28.4386 -28.4245 -28.4146 -28.4132 -28.3876
   -28.3380 -28.3185 -28.3119 -28.2994 -28.2947 -28.2743 -28.2655 -28.2409
    -6.9406  -6.9075  -6.9018  -6.8259  -6.7905  -6.7861  -6.7825  -6.7284
    -6.6812  -6.6652  -6.6488  -6.6272  -6.6212  -6.5982  -6.5779  -6.5506
    -6.4869  -6.4781  -6.4694  -6.4295  -6.3966  -6.3774  -6.3699  -6.3324
    -6.3113  -6.2843  -6.2313  -6.2193  -6.0461  -6.0246  -5.8019  -4.4651
    -4.3335  -4.0855  -3.3530  -2.2775  -1.4830  -1.3898  -1.2943  -0.3067
    -0.2809   0.1818   0.2372   0.2421   0.6648   0.7084   0.9403   0.9594
     1.1196   1.3234   1.3292   1.5171   1.5796   1.7979   1.8103   1.9387
     1.9585   2.0936   2.1402

          k = 0.0407-0.1007 0.0000 ( 41570 PWs)   bands (ev):

   -49.8827 -49.8783 -49.8523 -49.8479 -49.7140 -49.7093 -28.5262 -28.5195
   -28.4927 -28.4861 -28.4487 -28.4392 -28.4240 -28.4149 -28.4065 -28.3808
   -28.3449 -28.3188 -28.3114 -28.2981 -28.2960 -28.2738 -28.2662 -28.2481
    -6.8776  -6.8743  -6.8699  -6.8065  -6.8027  -6.7990  -6.7513  -6.6709
    -6.6574  -6.6372  -6.6305  -6.6294  -6.6085  -6.6075  -6.5764  -6.5357
    -6.4913  -6.4648  -6.4564  -6.4402  -6.4240  -6.3879  -6.3754  -6.3623
    -6.3316  -6.3089  -6.2558  -6.2186  -6.0888  -6.0709  -5.5304  -4.7554
    -4.2679  -4.2283  -3.6832  -2.4500  -1.6147  -1.1512  -0.9888  -0.3126
    -0.1007   0.1138   0.2647   0.4157   0.7181   0.7252   0.9687   0.9786
     1.1189   1.2987   1.3227   1.5037   1.5470   1.8032   1.8424   1.9071
     1.9181   2.0092   2.1415

          k = 0.0407-0.0863 0.0000 ( 41576 PWs)   bands (ev):

   -49.8820 -49.8789 -49.8517 -49.8486 -49.7133 -49.7100 -28.5254 -28.5204
   -28.4918 -28.4869 -28.4481 -28.4399 -28.4231 -28.4154 -28.3976 -28.3719
   -28.3538 -28.3278 -28.3022 -28.2974 -28.2968 -28.2729 -28.2669 -28.2574
    -6.8508  -6.8358  -6.8148  -6.8127  -6.8065  -6.7899  -6.7309  -6.6847
    -6.6803  -6.6789  -6.6054  -6.5807  -6.5711  -6.5585  -6.5262  -6.5171
    -6.5024  -6.4751  -6.4569  -6.4410  -6.4302  -6.4159  -6.3846  -6.3817
    -6.3434  -6.3378  -6.2882  -6.2531  -6.1719  -6.0819  -5.2130  -5.1747
    -4.3572  -4.0733  -4.0258  -2.6750  -1.6272  -0.9176  -0.5272  -0.2759
     0.0214   0.0645   0.4495   0.6193   0.7938   0.8221   1.0063   1.0253
     1.1453   1.1929   1.3686   1.5066   1.6091   1.7986   1.8009   1.8787
     1.8956   1.9173   2.1249

          k = 0.0407-0.0719 0.0000 ( 41584 PWs)   bands (ev):

   -49.8812 -49.8797 -49.8509 -49.8494 -49.7125 -49.7107 -28.5244 -28.5214
   -28.4907 -28.4879 -28.4471 -28.4408 -28.4218 -28.4160 -28.3872 -28.3641
   -28.3614 -28.3381 -28.2988 -28.2955 -28.2913 -28.2717 -28.2682 -28.2677
    -6.8622  -6.8313  -6.7942  -6.7849  -6.7786  -6.7629  -6.7559  -6.7395
    -6.7192  -6.6937  -6.5769  -6.5561  -6.5292  -6.5196  -6.5064  -6.4981
    -6.4745  -6.4650  -6.4608  -6.4469  -6.4275  -6.4036  -6.3984  -6.3894
    -6.3583  -6.3560  -6.3235  -6.3147  -6.2684  -6.0799  -5.5526  -4.8606
    -4.4474  -4.3374  -3.9028  -2.9058  -1.5043  -0.6318  -0.1924  -0.0683
     0.0977   0.1152   0.6124   0.7509   0.8871   0.9939   1.0110   1.0625
     1.0950   1.2024   1.4477   1.5072   1.6736   1.6745   1.6935   1.8830
     1.9262   1.9665   2.0799

          k = 0.0407-0.0575 0.0000 ( 41588 PWs)   bands (ev):

   -49.8805 -49.8804 -49.8502 -49.8501 -49.7117 -49.7116 -28.5232 -28.5225
   -28.4896 -28.4890 -28.4457 -28.4417 -28.4204 -28.4169 -28.3759 -28.3751
   -28.3501 -28.3492 -28.3001 -28.2943 -28.2797 -28.2796 -28.2703 -28.2686
    -6.8843  -6.8478  -6.8157  -6.7976  -6.7732  -6.7658  -6.7536  -6.7522
    -6.7339  -6.6914  -6.5955  -6.5469  -6.5411  -6.5044  -6.4915  -6.4867
    -6.4856  -6.4554  -6.4321  -6.4183  -6.4121  -6.4051  -6.4045  -6.3969
    -6.3809  -6.3652  -6.3549  -6.3378  -6.2913  -6.0797  -5.8628  -4.5927
    -4.5100  -4.4562  -3.7566  -3.1155  -1.2561  -0.3419  -0.0865   0.1662
     0.2817   0.2908   0.6951   0.7927   0.7974   0.9759   0.9906   1.1248
     1.1595   1.2980   1.4439   1.5279   1.5642   1.6235   1.7253   1.9460
     1.9982   2.0319   2.0776

          k = 0.0407-0.0431 0.0000 ( 41567 PWs)   bands (ev):

   -49.8814 -49.8796 -49.8511 -49.8493 -49.7125 -49.7109 -28.5236 -28.5220
   -28.4901 -28.4885 -28.4440 -28.4426 -28.4188 -28.4179 -28.3861 -28.3645
   -28.3602 -28.3386 -28.3012 -28.2932 -28.2911 -28.2695 -28.2688 -28.2678
    -6.9048  -6.8749  -6.8626  -6.8522  -6.8147  -6.7726  -6.7212  -6.7211
    -6.7119  -6.6966  -6.6395  -6.5683  -6.5488  -6.5270  -6.5169  -6.4908
    -6.4902  -6.4718  -6.4680  -6.4514  -6.4489  -6.4147  -6.4033  -6.3968
    -6.3660  -6.3273  -6.3231  -6.2965  -6.2022  -6.0882  -6.0773  -4.7799
    -4.4602  -4.0830  -3.6202  -3.2924  -0.9199  -0.0816  -0.0635   0.2236
     0.4545   0.4764   0.5838   0.6817   0.8405   0.8611   0.9752   1.0810
     1.2152   1.3287   1.4018   1.5462   1.5660   1.6468   1.7575   1.8056
     2.0324   2.0861   2.1449

          k = 0.0407-0.0288 0.0000 ( 41586 PWs)   bands (ev):

   -49.8821 -49.8789 -49.8518 -49.8485 -49.7133 -49.7101 -28.5246 -28.5209
   -28.4913 -28.4875 -28.4435 -28.4424 -28.4191 -28.4174 -28.3964 -28.3706
   -28.3539 -28.3280 -28.3020 -28.3018 -28.2925 -28.2705 -28.2675 -28.2569
    -6.9240  -6.9179  -6.8986  -6.8738  -6.8659  -6.7744  -6.7247  -6.7019
    -6.6904  -6.6762  -6.6713  -6.6273  -6.6030  -6.5902  -6.5566  -6.5253
    -6.4939  -6.4882  -6.4814  -6.4621  -6.4438  -6.4347  -6.3931  -6.3790
    -6.3614  -6.3014  -6.2699  -6.2052  -6.1814  -6.1199  -6.1077  -4.8975
    -4.3642  -3.6817  -3.4764  -3.4351  -0.5504  -0.2229   0.0835   0.1408
     0.2108   0.5759   0.5815   0.6061   0.8064   0.8947   0.9601   1.0540
     1.1976   1.3043   1.4799   1.5300   1.5971   1.6246   1.7238   1.8035
     2.0666   2.1212   2.2352

          k = 0.0542-0.0192 0.0000 ( 41613 PWs)   bands (ev):

   -49.8821 -49.8789 -49.8518 -49.8485 -49.7133 -49.7101 -28.5247 -28.5208
   -28.4915 -28.4875 -28.4442 -28.4415 -28.4202 -28.4173 -28.3967 -28.3709
   -28.3539 -28.3279 -28.3019 -28.3008 -28.2935 -28.2710 -28.2673 -28.2570
    -6.9104  -6.8877  -6.8857  -6.8606  -6.8534  -6.7866  -6.7392  -6.7043
    -6.6873  -6.6802  -6.6586  -6.6140  -6.5990  -6.5883  -6.5661  -6.5162
    -6.4903  -6.4814  -6.4613  -6.4552  -6.4430  -6.4268  -6.3781  -6.3461
    -6.3413  -6.3015  -6.3003  -6.1897  -6.1639  -6.1203  -6.0790  -4.7572
    -4.6446  -3.6049  -3.4966  -3.3379  -0.6362  -0.3638  -0.1538  -0.1108
    -0.0979   0.5181   0.5576   0.6331   0.7774   1.0138   1.0766   1.1157
     1.1166   1.2434   1.2817   1.4224   1.6561   1.6781   1.7711   1.7941
     2.0102   2.1698   2.2634

          k = 0.0542-0.0048 0.0000 ( 41561 PWs)   bands (ev):

   -49.8827 -49.8782 -49.8524 -49.8479 -49.7140 -49.7094 -28.5257 -28.5198
   -28.4926 -28.4866 -28.4456 -28.4400 -28.4218 -28.4160 -28.4057 -28.3800
   -28.3448 -28.3188 -28.3111 -28.3010 -28.2932 -28.2722 -28.2662 -28.2477
    -6.9331  -6.9135  -6.9092  -6.8731  -6.8601  -6.7865  -6.7518  -6.7043
    -6.6858  -6.6613  -6.6598  -6.6548  -6.6307  -6.6306  -6.5990  -6.5176
    -6.5150  -6.4866  -6.4733  -6.4374  -6.4257  -6.4182  -6.3841  -6.3087
    -6.3067  -6.2789  -6.2729  -6.2068  -6.1058  -6.1053  -6.0620  -4.7700
    -4.4399  -3.6439  -3.4392  -2.9542  -0.9166  -0.6313  -0.5137  -0.0827
    -0.0678   0.2895   0.5129   0.5744   0.8144   0.9696   1.0631   1.0660
     1.1295   1.2458   1.2702   1.4830   1.6451   1.6905   1.7965   1.8371
     2.0425   2.1453   2.2120

          k = 0.0542 0.0096 0.0000 ( 41553 PWs)   bands (ev):

   -49.8832 -49.8777 -49.8529 -49.8474 -49.7145 -49.7088 -28.5265 -28.5190
   -28.4934 -28.4858 -28.4470 -28.4389 -28.4233 -28.4151 -28.4127 -28.3870
   -28.3379 -28.3182 -28.3119 -28.3009 -28.2933 -28.2734 -28.2655 -28.2406
    -6.9579  -6.9403  -6.9286  -6.8560  -6.8475  -6.7849  -6.7631  -6.7396
    -6.7021  -6.7014  -6.6533  -6.6490  -6.6418  -6.6015  -6.5939  -6.5416
    -6.5031  -6.4924  -6.4831  -6.4183  -6.4038  -6.3992  -6.3836  -6.2802
    -6.2752  -6.2741  -6.2520  -6.2413  -6.0883  -6.0407  -6.0240  -4.7307
    -4.2007  -3.7896  -3.2568  -2.5726  -1.1704  -1.1622  -0.8912  -0.1734
    -0.0892   0.1359   0.4007   0.6051   0.6489   0.8492   0.9989   1.0420
     1.1805   1.2028   1.3514   1.5202   1.6767   1.7564   1.7668   1.8834
     2.0639   2.1013   2.1489

          k = 0.0542 0.0239 0.0000 ( 41551 PWs)   bands (ev):

   -49.8835 -49.8774 -49.8532 -49.8471 -49.7148 -49.7085 -28.5271 -28.5185
   -28.4938 -28.4853 -28.4483 -28.4383 -28.4244 -28.4173 -28.4144 -28.3916
   -28.3337 -28.3228 -28.3076 -28.3005 -28.2936 -28.2743 -28.2651 -28.2363
    -6.9879  -6.9356  -6.9311  -6.8451  -6.8175  -6.7832  -6.7731  -6.7719
    -6.7293  -6.6914  -6.6633  -6.6346  -6.6325  -6.5755  -6.5718  -6.5591
    -6.4967  -6.4869  -6.4844  -6.4162  -6.3884  -6.3813  -6.3636  -6.2961
    -6.2837  -6.2676  -6.2402  -6.2165  -6.0167  -6.0160  -5.9906  -4.6450
    -3.9821  -3.9478  -3.1010  -2.2176  -1.6450  -1.3355  -1.2483  -0.3932
    -0.3170   0.1732   0.2328   0.4052   0.6322   0.7473   0.9374   0.9684
     1.1418   1.2909   1.3664   1.5350   1.7019   1.7546   1.8605   1.9335
     1.9359   2.0811   2.0884

          k = 0.0542 0.0383 0.0000 ( 41544 PWs)   bands (ev):

   -49.8836 -49.8773 -49.8533 -49.8470 -49.7149 -49.7083 -28.5274 -28.5183
   -28.4940 -28.4850 -28.4494 -28.4381 -28.4252 -28.4190 -28.4141 -28.3934
   -28.3322 -28.3244 -28.3061 -28.3000 -28.2941 -28.2749 -28.2650 -28.2349
    -6.9927  -6.9276  -6.9177  -6.8328  -6.7890  -6.7842  -6.7810  -6.7735
    -6.7307  -6.6752  -6.6629  -6.6239  -6.6206  -6.5685  -6.5643  -6.5557
    -6.4952  -6.4833  -6.4696  -6.4273  -6.3751  -6.3697  -6.3469  -6.3373
    -6.2998  -6.2658  -6.2084  -6.2064  -6.0203  -5.9731  -5.8778  -4.5196
    -4.1253  -3.8987  -3.0472  -1.9538  -1.9198  -1.5738  -1.3944  -0.5973
    -0.4189   0.0411   0.1692   0.1844   0.6440   0.6608   0.8940   0.9184
     1.0971   1.3287   1.3677   1.5332   1.6892   1.7748   1.8246   1.9212
     1.9909   2.0334   2.0924

          k = 0.0542 0.0527 0.0000 ( 41537 PWs)   bands (ev):

   -49.8835 -49.8774 -49.8531 -49.8471 -49.7148 -49.7084 -28.5274 -28.5184
   -28.4938 -28.4850 -28.4501 -28.4382 -28.4254 -28.4177 -28.4139 -28.3921
   -28.3337 -28.3230 -28.3076 -28.2992 -28.2948 -28.2751 -28.2652 -28.2365
    -6.9715  -6.9130  -6.8963  -6.8180  -6.7926  -6.7850  -6.7666  -6.7458
    -6.7060  -6.6613  -6.6477  -6.6145  -6.6123  -6.5722  -6.5695  -6.5543
    -6.4873  -6.4828  -6.4616  -6.4356  -6.3747  -6.3720  -6.3674  -6.3422
    -6.3164  -6.2739  -6.2100  -6.1835  -6.0388  -5.9829  -5.6749  -4.3672
    -4.3157  -4.0654  -3.1623  -1.9201  -1.8378  -1.8142  -1.3568  -0.5960
    -0.4117  -0.0481  -0.0357   0.1980   0.6022   0.6649   0.8779   0.8998
     1.0710   1.2922   1.4211   1.5253   1.5995   1.7996   1.8054   1.8483
     2.0207   2.0278   2.1644

          k = 0.0542-0.1055 0.0000 ( 41575 PWs)   bands (ev):

   -49.8831 -49.8778 -49.8528 -49.8474 -49.7145 -49.7087 -28.5271 -28.5189
   -28.4934 -28.4853 -28.4502 -28.4386 -28.4252 -28.4141 -28.4136 -28.3879
   -28.3381 -28.3186 -28.3120 -28.2984 -28.2958 -28.2749 -28.2656 -28.2411
    -6.9277  -6.8913  -6.8716  -6.8047  -6.8015  -6.7920  -6.7310  -6.7154
    -6.6587  -6.6461  -6.6313  -6.6073  -6.6053  -6.5963  -6.5707  -6.5631
    -6.4871  -6.4719  -6.4703  -6.4324  -6.4009  -6.3928  -6.3684  -6.3523
    -6.3274  -6.2910  -6.2258  -6.1756  -6.0605  -6.0209  -5.4193  -4.5042
    -4.4175  -4.2084  -3.4235  -2.0704  -1.9484  -1.5242  -1.2241  -0.4140
    -0.3588  -0.1762   0.0815   0.2611   0.5805   0.7031   0.8933   0.9145
     1.0656   1.2891   1.4543   1.5262   1.5414   1.7633   1.7970   1.8366
     1.9884   2.0786   2.1731

          k = 0.0542-0.0911 0.0000 ( 41566 PWs)   bands (ev):

   -49.8826 -49.8783 -49.8523 -49.8480 -49.7140 -49.7093 -28.5264 -28.5195
   -28.4926 -28.4859 -28.4497 -28.4392 -28.4244 -28.4145 -28.4067 -28.3811
   -28.3449 -28.3188 -28.3115 -28.2974 -28.2968 -28.2742 -28.2661 -28.2482
    -6.8690  -6.8634  -6.8455  -6.8202  -6.8028  -6.7876  -6.7045  -6.6737
    -6.6458  -6.6355  -6.6257  -6.6155  -6.5903  -6.5809  -6.5757  -6.5518
    -6.4952  -6.4799  -6.4520  -6.4305  -6.4277  -6.4146  -6.3772  -6.3745
    -6.3343  -6.3150  -6.2523  -6.1986  -6.0857  -6.0704  -5.1228  -4.8244
    -4.6687  -4.0726  -3.7468  -2.3439  -1.9439  -1.0621  -1.0298  -0.3115
    -0.2164  -0.1840   0.3584   0.4263   0.5959   0.7603   0.9392   0.9578
     1.0846   1.3268   1.3678   1.5770   1.6069   1.7328   1.7481   1.8708
     1.8973   1.9581   2.0217

          k = 0.0542-0.0767 0.0000 ( 41606 PWs)   bands (ev):
[...]
    -6.8660  -6.8584  -6.8400  -6.8339  -6.8004  -6.7913  -6.7499  -6.7260
    -6.7176  -6.7130  -6.6198  -6.5714  -6.5599  -6.5447  -6.5069  -6.4889
    -6.4783  -6.4625  -6.4534  -6.4444  -6.4294  -6.4024  -6.3855  -6.3646
    -6.3569  -6.3391  -6.3307  -6.2766  -6.1895  -6.1810  -5.8176  -5.0745
    -4.5122  -3.9156  -3.4491  -3.3788  -0.6744  -0.4306  -0.3869  -0.3026
     0.1880   0.5113   0.5424   0.6941   0.7747   0.9778   1.0556   1.0996
     1.1673   1.1720   1.2428   1.3073   1.6663   1.7608   1.7642   1.8685
     1.9405   2.1103   2.1762

          k = 0.0678-0.0096 0.0000 ( 41560 PWs)   bands (ev):

   -49.8821 -49.8789 -49.8517 -49.8486 -49.7133 -49.7100 -28.5249 -28.5206
   -28.4918 -28.4874 -28.4453 -28.4406 -28.4215 -28.4168 -28.3970 -28.3712
   -28.3539 -28.3279 -28.3020 -28.2993 -28.2949 -28.2717 -28.2671 -28.2571
    -6.8906  -6.8677  -6.8443  -6.8384  -6.8356  -6.7992  -6.7658  -6.6956
    -6.6834  -6.6813  -6.6359  -6.6058  -6.6004  -6.5695  -6.5678  -6.4982
    -6.4927  -6.4839  -6.4554  -6.4456  -6.4392  -6.4019  -6.3940  -6.3316
    -6.3270  -6.2986  -6.2986  -6.2384  -6.1796  -6.1157  -5.8747  -4.8799
    -4.5472  -3.7667  -3.6586  -3.0304  -0.9268  -0.6906  -0.3098  -0.2521
    -0.1053   0.3303   0.5972   0.6474   0.7682   0.9867   1.0114   1.0824
     1.1050   1.2060   1.2425   1.3949   1.5791   1.7472   1.8144   1.8837
     2.0036   2.1485   2.1697

          k = 0.0678 0.0048 0.0000 ( 41551 PWs)   bands (ev):

   -49.8827 -49.8783 -49.8524 -49.8479 -49.7140 -49.7093 -28.5260 -28.5196
   -28.4927 -28.4864 -28.4471 -28.4394 -28.4231 -28.4156 -28.4061 -28.3804
   -28.3449 -28.3188 -28.3113 -28.2994 -28.2947 -28.2731 -28.2662 -28.2479
    -6.9022  -6.8923  -6.8915  -6.8346  -6.8131  -6.7951  -6.7781  -6.6792
    -6.6748  -6.6460  -6.6424  -6.6393  -6.6303  -6.6246  -6.5832  -6.5239
    -6.4873  -6.4849  -6.4645  -6.4382  -6.4110  -6.3981  -6.3901  -6.3130
    -6.3035  -6.2871  -6.2626  -6.2582  -6.0948  -6.0681  -5.8678  -4.6242
    -4.5288  -3.8671  -3.5715  -2.6623  -1.1534  -1.0890  -0.8424  -0.2419
     0.0410   0.1113   0.4789   0.5221   0.6493   0.8488   1.0116   1.0247
     1.1821   1.1925   1.3062   1.4706   1.5647   1.7618   1.8103   1.9063
     2.0835   2.0855   2.1494

          k = 0.0678 0.0192 0.0000 ( 41551 PWs)   bands (ev):

   -49.8832 -49.8778 -49.8528 -49.8474 -49.7145 -49.7088 -28.5268 -28.5189
   -28.4934 -28.4856 -28.4487 -28.4386 -28.4245 -28.4146 -28.4132 -28.3876
   -28.3380 -28.3185 -28.3119 -28.2994 -28.2947 -28.2743 -28.2655 -28.2409
    -6.9406  -6.9075  -6.9018  -6.8259  -6.7905  -6.7861  -6.7825  -6.7284
    -6.6812  -6.6652  -6.6488  -6.6272  -6.6212  -6.5982  -6.5779  -6.5506
    -6.4869  -6.4781  -6.4694  -6.4295  -6.3966  -6.3774  -6.3699  -6.3324
    -6.3113  -6.2843  -6.2313  -6.2193  -6.0461  -6.0246  -5.8019  -4.4651
    -4.3335  -4.0855  -3.3530  -2.2775  -1.4830  -1.3898  -1.2943  -0.3067
    -0.2809   0.1818   0.2372   0.2421   0.6648   0.7084   0.9403   0.9594
     1.1196   1.3234   1.3292   1.5171   1.5796   1.7980   1.8100   1.9384
     1.9585   2.0964   2.1406

          k = 0.0678 0.0335 0.0000 ( 41537 PWs)   bands (ev):

   -49.8835 -49.8774 -49.8531 -49.8471 -49.7148 -49.7084 -28.5274 -28.5184
   -28.4938 -28.4850 -28.4501 -28.4382 -28.4254 -28.4177 -28.4139 -28.3921
   -28.3337 -28.3230 -28.3076 -28.2992 -28.2948 -28.2751 -28.2652 -28.2365
    -6.9715  -6.9130  -6.8963  -6.8180  -6.7926  -6.7850  -6.7666  -6.7458
    -6.7060  -6.6613  -6.6477  -6.6145  -6.6123  -6.5722  -6.5695  -6.5543
    -6.4873  -6.4828  -6.4616  -6.4356  -6.3747  -6.3720  -6.3674  -6.3422
    -6.3164  -6.2739  -6.2100  -6.1835  -6.0388  -5.9829  -5.6749  -4.3672
    -4.3157  -4.0654  -3.1623  -1.9201  -1.8378  -1.8142  -1.3568  -0.5960
    -0.4117  -0.0481  -0.0357   0.1980   0.6022   0.6649   0.8779   0.8998
     1.0710   1.2922   1.4212   1.5253   1.5995   1.7997   1.8055   1.8484
     2.0206   2.0356   2.1576

          k = 0.0678 0.0479 0.0000 ( 41546 PWs)   bands (ev):

   -49.8836 -49.8773 -49.8532 -49.8470 -49.7149 -49.7083 -28.5277 -28.5183
   -28.4939 -28.4847 -28.4510 -28.4381 -28.4259 -28.4194 -28.4136 -28.3938
   -28.3323 -28.3246 -28.3062 -28.2989 -28.2951 -28.2756 -28.2651 -28.2351
    -6.9790  -6.9113  -6.8861  -6.8119  -6.7968  -6.7835  -6.7716  -6.7230
    -6.7056  -6.6609  -6.6357  -6.6074  -6.6005  -6.5793  -6.5625  -6.5388
    -6.4877  -6.4815  -6.4721  -6.4309  -6.4038  -6.3637  -6.3636  -6.3269
    -6.3219  -6.2726  -6.2016  -6.1547  -6.0476  -5.9671  -5.4888  -4.5505
    -4.2517  -3.9491  -3.0879  -2.1009  -2.0600  -1.6288  -1.3296  -0.7668
    -0.5074  -0.2600  -0.2524   0.2008   0.5330   0.6677   0.8431   0.8654
     1.0418   1.2563   1.4621   1.5160   1.5951   1.7377   1.8227   1.8247
     1.9731   2.0653   2.0948

          k = 0.0678-0.1103 0.0000 ( 41564 PWs)   bands (ev):

   -49.8835 -49.8774 -49.8531 -49.8471 -49.7148 -49.7084 -28.5276 -28.5184
   -28.4938 -28.4848 -28.4513 -28.4383 -28.4259 -28.4180 -28.4136 -28.3924
   -28.3338 -28.3231 -28.3077 -28.2985 -28.2956 -28.2756 -28.2652 -28.2366
    -6.9619  -6.9021  -6.8731  -6.8029  -6.8024  -6.7860  -6.7570  -6.7063
    -6.6844  -6.6545  -6.6215  -6.5985  -6.5978  -6.5804  -6.5707  -6.5455
    -6.4842  -6.4832  -6.4813  -6.4283  -6.4203  -6.3701  -6.3659  -6.3274
    -6.3250  -6.2800  -6.2064  -6.1416  -6.0619  -5.9794  -5.2535  -4.7714
    -4.1496  -4.1077  -3.1982  -2.1797  -1.9818  -1.6760  -1.2377  -0.7032
    -0.4184  -0.3937  -0.2842   0.2302   0.5030   0.6845   0.8418   0.8651
     1.0334   1.2476   1.5026   1.5196   1.5641   1.6838   1.7905   1.8393
     2.0589   2.0607   2.1727

          k = 0.0678-0.0959 0.0000 ( 41556 PWs)   bands (ev):

   -49.8831 -49.8778 -49.8528 -49.8474 -49.7145 -49.7087 -28.5272 -28.5188
   -28.4933 -28.4852 -28.4508 -28.4387 -28.4254 -28.4138 -28.4137 -28.3881
   -28.3381 -28.3187 -28.3120 -28.2980 -28.2961 -28.2751 -28.2656 -28.2411
    -6.9230  -6.8859  -6.8581  -6.8125  -6.7928  -6.7920  -6.7220  -6.6990
    -6.6458  -6.6425  -6.6203  -6.5969  -6.5950  -6.5876  -6.5762  -6.5729
    -6.4876  -6.4861  -6.4697  -6.4298  -6.4233  -6.3921  -6.3700  -6.3453
    -6.3284  -6.2948  -6.2240  -6.1575  -6.0681  -6.0197  -5.0177  -4.9253
    -4.4464  -4.0891  -3.4494  -2.1405  -1.9977  -1.5673  -1.1278  -0.4602
    -0.3860  -0.3550   0.0029   0.3105   0.5131   0.7175   0.8753   0.8991
     1.0472   1.2753   1.4951   1.5556   1.6040   1.6158   1.7541   1.8541
     1.9952   2.0290   2.0413

          k = 0.0678-0.0815 0.0000 ( 41566 PWs)   bands (ev):

   -49.8826 -49.8783 -49.8523 -49.8480 -49.7140 -49.7093 -28.5264 -28.5195
   -28.4926 -28.4859 -28.4497 -28.4392 -28.4244 -28.4145 -28.4067 -28.3811
   -28.3449 -28.3188 -28.3115 -28.2974 -28.2968 -28.2742 -28.2661 -28.2482
    -6.8690  -6.8634  -6.8455  -6.8202  -6.8028  -6.7876  -6.7045  -6.6737
    -6.6458  -6.6355  -6.6257  -6.6155  -6.5903  -6.5809  -6.5757  -6.5518
    -6.4952  -6.4799  -6.4520  -6.4305  -6.4277  -6.4146  -6.3772  -6.3745
    -6.3343  -6.3150  -6.2523  -6.1986  -6.0857  -6.0704  -5.1228  -4.8244
    -4.6687  -4.0726  -3.7468  -2.3439  -1.9439  -1.0621  -1.0298  -0.3115
    -0.2164  -0.1840   0.3584   0.4263   0.5959   0.7603   0.9392   0.9578
     1.0846   1.3268   1.3678   1.5770   1.6069   1.7321   1.7478   1.8707
     1.8973   1.9575   2.0216

          k = 0.0678-0.0671 0.0000 ( 41576 PWs)   bands (ev):

   -49.8820 -49.8789 -49.8517 -49.8486 -49.7133 -49.7100 -28.5254 -28.5204
   -28.4918 -28.4869 -28.4481 -28.4399 -28.4231 -28.4154 -28.3976 -28.3719
   -28.3538 -28.3278 -28.3022 -28.2974 -28.2968 -28.2729 -28.2669 -28.2574
    -6.8508  -6.8358  -6.8148  -6.8127  -6.8065  -6.7899  -6.7309  -6.6847
    -6.6803  -6.6789  -6.6054  -6.5807  -6.5711  -6.5585  -6.5262  -6.5171
    -6.5024  -6.4751  -6.4569  -6.4410  -6.4302  -6.4159  -6.3846  -6.3817
    -6.3434  -6.3378  -6.2882  -6.2531  -6.1719  -6.0819  -5.2130  -5.1747
    -4.3572  -4.0733  -4.0258  -2.6750  -1.6272  -0.9176  -0.5272  -0.2759
     0.0214   0.0645   0.4495   0.6193   0.7938   0.8221   1.0063   1.0253
     1.1453   1.1929   1.3686   1.5066   1.6092   1.7987   1.8005   1.8785
     1.8956   1.9173   2.1249

          k = 0.0678-0.0527 0.0000 ( 41614 PWs)   bands (ev):

   -49.8813 -49.8797 -49.8509 -49.8494 -49.7125 -49.7108 -28.5242 -28.5214
   -28.4908 -28.4881 -28.4462 -28.4409 -28.4216 -28.4167 -28.3870 -28.3642
   -28.3613 -28.3382 -28.2980 -28.2962 -28.2913 -28.2715 -28.2681 -28.2678
    -6.8609  -6.8271  -6.8020  -6.7956  -6.7815  -6.7789  -6.7670  -6.7373
    -6.7167  -6.7054  -6.5834  -6.5629  -6.5596  -6.5080  -6.5051  -6.4911
    -6.4764  -6.4682  -6.4555  -6.4439  -6.4263  -6.4082  -6.3922  -6.3686
    -6.3582  -6.3356  -6.3188  -6.3151  -6.2694  -6.1066  -5.4670  -5.2400
    -4.2535  -4.0625  -4.0354  -2.9684  -1.2383  -0.7640  -0.3125  -0.0201
     0.1333   0.3848   0.3932   0.7637   0.7832   0.8957   1.0411   1.0839
     1.1169   1.2071   1.3581   1.4017   1.6118   1.7601   1.8340   1.8804
     1.8988   2.0673   2.0752

          k = 0.0678-0.0384 0.0000 ( 41598 PWs)   bands (ev):

   -49.8805 -49.8805 -49.8502 -49.8501 -49.7117 -49.7116 -28.5230 -28.5226
   -28.4897 -28.4894 -28.4442 -28.4421 -28.4199 -28.4182 -28.3757 -28.3753
   -28.3498 -28.3494 -28.2986 -28.2957 -28.2797 -28.2797 -28.2698 -28.2690
    -6.8648  -6.8355  -6.8276  -6.8017  -6.7869  -6.7664  -6.7547  -6.7491
    -6.7388  -6.7258  -6.5911  -6.5650  -6.5530  -6.5310  -6.4992  -6.4702
    -6.4578  -6.4480  -6.4269  -6.4131  -6.4017  -6.3995  -6.3935  -6.3843
    -6.3808  -6.3581  -6.3549  -6.3446  -6.2560  -6.1439  -5.6839  -5.1954
    -4.4161  -4.0123  -3.7123  -3.2235  -0.8230  -0.5752  -0.4486   0.0156
     0.3921   0.4129   0.5634   0.6979   0.7140   0.8705   1.0150   1.1760
     1.1954   1.2234   1.2713   1.2963   1.6726   1.7733   1.8011   1.8316
     1.9206   2.0614   2.1762

          k =-0.0813 0.0288 0.0000 ( 41606 PWs)   bands (ev):

   -49.8805 -49.8805 -49.8502 -49.8502 -49.7117 -49.7116 -28.5228 -28.5228
   -28.4896 -28.4896 -28.4430 -28.4430 -28.4192 -28.4192 -28.3755 -28.3755
   -28.3496 -28.3496 -28.2971 -28.2971 -28.2797 -28.2797 -28.2694 -28.2694
    -6.8450  -6.8450  -6.8202  -6.8202  -6.7780  -6.7780  -6.7477  -6.7477
    -6.7398  -6.7398  -6.5813  -6.5812  -6.5477  -6.5477  -6.4803  -6.4802
    -6.4522  -6.4522  -6.4191  -6.4191  -6.3942  -6.3942  -6.3873  -6.3873
    -6.3713  -6.3712  -6.3481  -6.3480  -6.2035  -6.2034  -5.4732  -5.4732
    -4.2259  -4.2259  -3.4117  -3.4117  -0.5923  -0.5923  -0.4015  -0.4015
     0.4787   0.4787   0.5215   0.5215   0.8695   0.8696   1.0671   1.0671
     1.2108   1.2108   1.2277   1.2277   1.7178   1.7183   1.8511   1.8513
     1.9829   1.9831   2.1887

          k =-0.0813 0.0432 0.0000 ( 41580 PWs)   bands (ev):

   -49.8813 -49.8797 -49.8510 -49.8493 -49.7125 -49.7108 -28.5240 -28.5215
   -28.4908 -28.4884 -28.4448 -28.4413 -28.4209 -28.4175 -28.3868 -28.3642
   -28.3610 -28.3383 -28.2975 -28.2967 -28.2913 -28.2711 -28.2681 -28.2679
    -6.8616  -6.8226  -6.8206  -6.8164  -6.8109  -6.7773  -6.7707  -6.7329
    -6.7141  -6.7134  -6.5980  -6.5787  -6.5625  -6.5244  -6.5026  -6.4891
    -6.4763  -6.4651  -6.4527  -6.4438  -6.4170  -6.4053  -6.3945  -6.3609
    -6.3608  -6.3306  -6.3204  -6.2718  -6.2617  -6.1470  -5.5635  -5.3040
    -4.2891  -4.1028  -3.6863  -3.1208  -0.8233  -0.7886  -0.4112  -0.0682
     0.0652   0.3668   0.6391   0.7208   0.7782   0.7951   1.0663   1.0922
     1.1486   1.2039   1.2368   1.3329   1.6077   1.8221   1.8260   1.8506
     2.0011   2.0105   2.1552

          k =-0.0813 0.0575 0.0000 ( 41605 PWs)   bands (ev):

   -49.8820 -49.8789 -49.8517 -49.8486 -49.7133 -49.7100 -28.5252 -28.5205
   -28.4919 -28.4872 -28.4468 -28.4401 -28.4226 -28.4161 -28.3974 -28.3716
   -28.3538 -28.3278 -28.3021 -28.2978 -28.2963 -28.2724 -28.2670 -28.2573
    -6.8690  -6.8493  -6.8234  -6.8136  -6.8087  -6.7896  -6.7845  -6.6861
    -6.6844  -6.6772  -6.6124  -6.6008  -6.5894  -6.5634  -6.5488  -6.5015
    -6.4923  -6.4776  -6.4598  -6.4365  -6.4307  -6.4151  -6.3857  -6.3414
    -6.3346  -6.3156  -6.2921  -6.2675  -6.1741  -6.1011  -5.5802  -5.0600
    -4.2993  -3.9563  -3.9188  -2.8023  -1.2211  -1.0071  -0.4463  -0.3077
     0.1099   0.2174   0.4280   0.6363   0.7046   0.9171   0.9838   1.0622
     1.1413   1.1832   1.3082   1.4251   1.5553   1.8103   1.8515   1.8552
     2.0083   2.0690   2.0795

          k =-0.0813 0.0719 0.0000 ( 41570 PWs)   bands (ev):

   -49.8827 -49.8783 -49.8523 -49.8479 -49.7140 -49.7093 -28.5262 -28.5195
   -28.4927 -28.4861 -28.4487 -28.4392 -28.4240 -28.4149 -28.4065 -28.3808
   -28.3449 -28.3188 -28.3114 -28.2981 -28.2960 -28.2738 -28.2662 -28.2481
    -6.8776  -6.8743  -6.8699  -6.8065  -6.8027  -6.7990  -6.7513  -6.6710
    -6.6574  -6.6372  -6.6305  -6.6294  -6.6085  -6.6075  -6.5764  -6.5357
    -6.4913  -6.4648  -6.4564  -6.4402  -6.4241  -6.3879  -6.3754  -6.3623
    -6.3316  -6.3089  -6.2558  -6.2186  -6.0888  -6.0709  -5.5304  -4.7554
    -4.2679  -4.2283  -3.6832  -2.4500  -1.6147  -1.1512  -0.9888  -0.3126
    -0.1007   0.1138   0.2647   0.4157   0.7181   0.7251   0.9687   0.9786
     1.1189   1.2987   1.3227   1.5037   1.5470   1.8032   1.8424   1.9070
     1.9182   2.0077   2.1415

          k =-0.0813 0.0863 0.0000 ( 41575 PWs)   bands (ev):

   -49.8831 -49.8778 -49.8528 -49.8474 -49.7145 -49.7087 -28.5271 -28.5189
   -28.4934 -28.4853 -28.4502 -28.4386 -28.4252 -28.4141 -28.4136 -28.3879
   -28.3381 -28.3186 -28.3120 -28.2984 -28.2958 -28.2749 -28.2656 -28.2411
    -6.9277  -6.8913  -6.8716  -6.8047  -6.8015  -6.7920  -6.7310  -6.7154
    -6.6587  -6.6461  -6.6313  -6.6073  -6.6053  -6.5963  -6.5707  -6.5631
    -6.4871  -6.4719  -6.4703  -6.4324  -6.4009  -6.3928  -6.3684  -6.3523
    -6.3274  -6.2910  -6.2258  -6.1756  -6.0605  -6.0209  -5.4193  -4.5042
    -4.4175  -4.2084  -3.4235  -2.0704  -1.9484  -1.5242  -1.2241  -0.4140
    -0.3588  -0.1762   0.0815   0.2611   0.5805   0.7031   0.8933   0.9145
     1.0656   1.2891   1.4543   1.5262   1.5414   1.7633   1.7970   1.8365
     1.9885   2.0782   2.1734

          k =-0.0813 0.1007 0.0000 ( 41564 PWs)   bands (ev):

   -49.8835 -49.8774 -49.8531 -49.8471 -49.7148 -49.7084 -28.5276 -28.5184
   -28.4938 -28.4848 -28.4513 -28.4383 -28.4259 -28.4180 -28.4136 -28.3924
   -28.3338 -28.3231 -28.3077 -28.2985 -28.2956 -28.2756 -28.2652 -28.2366
    -6.9619  -6.9021  -6.8731  -6.8029  -6.8024  -6.7860  -6.7570  -6.7063
    -6.6844  -6.6545  -6.6215  -6.5985  -6.5978  -6.5804  -6.5707  -6.5455
    -6.4842  -6.4832  -6.4813  -6.4283  -6.4203  -6.3701  -6.3659  -6.3274
    -6.3250  -6.2800  -6.2064  -6.1416  -6.0619  -5.9794  -5.2535  -4.7714
    -4.1496  -4.1077  -3.1982  -2.1797  -1.9818  -1.6760  -1.2377  -0.7032
    -0.4184  -0.3937  -0.2842   0.2302   0.5030   0.6845   0.8418   0.8651
     1.0334   1.2476   1.5026   1.5196   1.5641   1.6838   1.7905   1.8393
     2.0013   2.0590   2.0616

          k =-0.0813-0.0575 0.0000 ( 41578 PWs)   bands (ev):

   -49.8836 -49.8773 -49.8532 -49.8470 -49.7149 -49.7083 -28.5278 -28.5182
   -28.4939 -28.4846 -28.4516 -28.4382 -28.4261 -28.4195 -28.4134 -28.3939
   -28.3324 -28.3247 -28.3062 -28.2986 -28.2955 -28.2759 -28.2651 -28.2352
    -6.9739  -6.9058  -6.8738  -6.8049  -6.8015  -6.7838  -6.7672  -6.7016
    -6.6916  -6.6575  -6.6206  -6.5949  -6.5926  -6.5861  -6.5617  -6.5325
    -6.4923  -6.4852  -6.4809  -6.4346  -6.4197  -6.3658  -6.3617  -6.3240
    -6.3182  -6.2763  -6.1998  -6.1265  -6.0663  -5.9652  -5.0869  -4.9723
    -4.1241  -3.9656  -3.1030  -2.2639  -2.1637  -1.4755  -1.2322  -0.8255
    -0.5406  -0.4784  -0.3936   0.2163   0.4790   0.6768   0.8238   0.8472
     1.0226   1.2302   1.4978   1.5089   1.5588   1.7064   1.7903   1.8410
     1.9478   2.0589   2.0906

     the Fermi energy is     0.7850 ev

!    total energy              =   -1197.97771209 Ry
     estimated scf accuracy    <       0.00000854 Ry
     smearing contrib. (-TS)   =      -0.07294107 Ry
     internal energy E=F+TS    =   -1197.90477102 Ry

     The total energy is F=E-TS. E is the sum of the following terms:
     one-electron contribution =   -7709.86182258 Ry
     hartree contribution      =    3887.97701993 Ry
     xc contribution           =    -309.39579179 Ry
     ewald contribution        =    2933.37582184 Ry
     electric field correction =       0.00000158 Ry

     convergence has been achieved in  29 iterations

     negative rho (up, down):  1.023E-03 0.000E+00

     Forces acting on atoms (cartesian axes, Ry/au):

     atom    1 type  1   force =    -0.00002430   -0.00001107    0.00414952
     atom    2 type  1   force =    -0.00001333   -0.00000913    0.00415165
     atom    3 type  2   force =    -0.00001768   -0.00001882   -0.00406019
     atom    4 type  2   force =    -0.00001681   -0.00001476   -0.00403101
     atom    5 type  1   force =    -0.00000474    0.00000599    0.00108149
     atom    6 type  1   force =     0.00001416    0.00000153    0.00108541
     atom    7 type  2   force =    -0.00001603    0.00000523   -0.00198579
     atom    8 type  2   force =     0.00002437   -0.00000076   -0.00197098
     atom    9 type  1   force =     0.00001013    0.00001703    0.00028236
     atom   10 type  1   force =     0.00001943    0.00000253    0.00029624
     atom   11 type  2   force =    -0.00000232    0.00002026    0.00049894
     atom   12 type  2   force =     0.00002712    0.00000199    0.00050236

     Total force =     0.008834     Total SCF correction =     0.004912
     SCF correction compared to forces is large: reduce conv_thr to get better values

     Writing output data file ./Sc2Hg2/Sc2Hg2_beef.save/

     init_run     :    559.99s CPU    738.88s WALL (       1 calls)
     electrons    :  52749.14s CPU  87434.55s WALL (       1 calls)
     forces       :    136.09s CPU    209.86s WALL (       1 calls)

     Called by init_run:
     wfcinit      :    513.66s CPU    677.70s WALL (       1 calls)
     potinit      :     32.83s CPU     44.81s WALL (       1 calls)
     hinit0       :      8.13s CPU      9.67s WALL (       1 calls)

     Called by electrons:
     c_bands      :  47339.55s CPU  78765.86s WALL (      30 calls)
     sum_band     :   4849.35s CPU   7767.22s WALL (      30 calls)
     v_of_rho     :    454.68s CPU    719.56s WALL (      30 calls)
     newd         :     49.73s CPU     82.26s WALL (      30 calls)
     mix_rho      :     68.34s CPU    110.69s WALL (      30 calls)
     vdW_kernel   :     14.10s CPU     20.23s WALL (       1 calls)

     Called by c_bands:
     init_us_2    :      9.63s CPU     12.04s WALL (    4588 calls)
     cegterg      :  46582.01s CPU  77542.40s WALL (    2224 calls)

     Called by *egterg:
     cdiaghg      :    885.19s CPU   2261.92s WALL (   18306 calls)
     h_psi        :  25076.71s CPU  42173.67s WALL (   18454 calls)
     s_psi        :    578.26s CPU   1050.62s WALL (   18454 calls)
     g_psi        :      3.26s CPU      7.06s WALL (   16156 calls)

     Called by h_psi:
     h_psi:calbec :   6403.31s CPU  10358.52s WALL (   18454 calls)
     vloc_psi     :  18072.08s CPU  30752.38s WALL (   18454 calls)
     add_vuspsi   :    597.85s CPU   1058.11s WALL (   18454 calls)

     General routines
     calbec       :   8030.34s CPU  12911.71s WALL (   20970 calls)
     fft          :    481.54s CPU    758.37s WALL (    1950 calls)
     ffts         :     15.48s CPU     24.54s WALL (      60 calls)
     fftw         :  21233.22s CPU  35903.71s WALL ( 1285512 calls)
     interpolate  :     14.03s CPU     21.83s WALL (      30 calls)

     Parallel routines
     fft_scatt_xy :    100.42s CPU    115.96s WALL ( 1287522 calls)
     fft_scatt_yz :  20815.50s CPU  35580.30s WALL ( 1287522 calls)

     PWSCF        :     15h34m CPU   1d 3h 2m WALL


   This run was terminated on:  13:35:59  13Jul2022            

=------------------------------------------------------------------------------=
   JOB DONE.
=------------------------------------------------------------------------------=
