
     Program PWSCF v.6.6 starts on 10Jul2022 at 17:39:10 

     This program is part of the open-source Quantum ESPRESSO suite
     for quantum simulation of materials; please cite
         "P. Giannozzi et al., J. Phys.:Condens. Matter 21 395502 (2009);
         "P. Giannozzi et al., J. Phys.:Condens. Matter 29 465901 (2017);
          URL http://www.quantum-espresso.org", 
     in publications or presentations arising from this work. More details at
     http://www.quantum-espresso.org/quote

     Parallel version (MPI), running on    37 processors

     MPI processes distributed on     1 nodes
     R & G space division:  proc/nbgrp/npool/nimage =      37
     Fft bands division:     nmany     =       1
     Reading input from Sc2Mo2.in
Warning: card &CELL ignored
Warning: card / ignored

     Current dimensions of program PWSCF are:
     Max number of different atomic species (ntypx) = 10
     Max number of k-points (npk) =  40000
     Max angular momentum in pseudopotentials (lmaxx) =  3
     Presently stress not available with electric field and gates

     Message from routine cell_base_init:
     DEPRECATED: use true lattice parameter, not A to a.u. conversion factor
     file Sc.pbe-spn-rrkjus_psl.1.0.0.UPF: wavefunction(s)  3S 3P renormalized
     file Mo.pbe-spn-rrkjus_psl.1.0.0.UPF: wavefunction(s)  4S renormalized

     **************************************************************************
     Initializing libbeef V0.1.2 with the BEEF-vdW functional.
     Citation: Wellendorff et al., PRB 85, 235149 (2012).
     **************************************************************************


     IMPORTANT: XC functional enforced from input :
     Exchange-correlation= BEEF-VDW
                           (   1   4  43  14   2   0   0)
     Any further DFT definition will be discarded
     Please, verify this is what you really want


     Subspace diagonalization in iterative solution of the eigenvalue problem:
     a serial algorithm will be used

     Found symmetry operation: I + ( -0.5000  0.0000  0.0000)
     This is a supercell, fractional translations are disabled

     Parallelization info
     --------------------
     sticks:   dense  smooth     PW     G-vecs:    dense   smooth      PW
     Min         129      51     14                30253     7641    1166
     Max         130      52     15                30274     7668    1193
     Sum        4799    1913    547              1119813   283185   43781



     bravais-lattice index     =            0
     lattice parameter (alat)  =       1.8897  a.u.
     unit-cell volume          =    5122.4863 (a.u.)^3
     number of atoms/cell      =           12
     number of atomic types    =            2
     number of electrons       =       150.00
     number of Kohn-Sham states=           90
     kinetic-energy cutoff     =      55.1240  Ry
     charge density cutoff     =     551.2396  Ry
     convergence threshold     =      1.0E-05
     mixing beta               =       0.1000
     number of iterations used =           10  plain     mixing
     Exchange-correlation= BEEF-VDW
                           (   1   4  43  14   2   0   0)

     celldm(1)=   1.889726  celldm(2)=   0.000000  celldm(3)=   0.000000
     celldm(4)=   0.000000  celldm(5)=   0.000000  celldm(6)=   0.000000

     crystal axes: (cart. coord. in units of alat)
               a(1) = (   5.597029   0.000000   0.000000 )  
               a(2) = (  -2.798515   5.466808   0.000000 )  
               a(3) = (   0.000000   0.000000  24.808066 )  

     reciprocal axes: (cart. coord. in units 2 pi/alat)
               b(1) = (  0.178666  0.091461 -0.000000 )  
               b(2) = (  0.000000  0.182922  0.000000 )  
               b(3) = (  0.000000 -0.000000  0.040309 )  


     PseudoPot. # 1 for Sc read from file:
     ../pseudo/Sc.pbe-spn-rrkjus_psl.1.0.0.UPF
     MD5 check sum: f739f74c200e509e5c24cbe053202ee5
     Pseudo is Ultrasoft + core correction, Zval = 11.0
     Generated using "atomic" code by A. Dal Corso v.6.2.2
     Using radial grid of 1173 points,  6 beta functions with: 
                l(1) =   0
                l(2) =   0
                l(3) =   1
                l(4) =   1
                l(5) =   2
                l(6) =   2
     Q(r) pseudized with 0 coefficients 


     PseudoPot. # 2 for Mo read from file:
     ../pseudo/Mo.pbe-spn-rrkjus_psl.1.0.0.UPF
     MD5 check sum: 03f09b12e49601d1a456a78ce8b2d514
     Pseudo is Ultrasoft + core correction, Zval = 14.0
     Generated using "atomic" code by A. Dal Corso v.6.3
     Using radial grid of 1229 points,  6 beta functions with: 
                l(1) =   0
                l(2) =   0
                l(3) =   1
                l(4) =   1
                l(5) =   2
                l(6) =   2
     Q(r) pseudized with 0 coefficients 


     atomic species   valence    mass     pseudopotential
        Sc            11.00    44.95591     Sc( 1.00)
        Mo            14.00    95.95000     Mo( 1.00)

     No symmetry found



   Cartesian axes

     site n.     atom                  positions (alat units)
         1           Sc  tau(   1) = (   0.0000000   0.0000000  10.0000000  )
         2           Sc  tau(   2) = (   2.7985146   0.0000000  10.0000000  )
         3           Mo  tau(   3) = (   1.3992573   2.7334041  10.0000000  )
         4           Mo  tau(   4) = (  -1.3992573   2.7334041  10.0000000  )
         5           Sc  tau(   5) = (   2.7985146   1.4325881  12.4040332  )
         6           Sc  tau(   6) = (   0.0000000   1.4325881  12.4040332  )
         7           Mo  tau(   7) = (  -1.3992573   4.1659922  12.4040332  )
         8           Mo  tau(   8) = (   1.3992573   4.1659922  12.4040332  )
         9           Sc  tau(   9) = (   0.0000062   2.9526305  14.9625113  )
        10           Sc  tau(  10) = (   2.7985051   2.9526282  14.9625072  )
        11           Mo  tau(  11) = (   4.1977728   0.0494052  14.5275462  )
        12           Mo  tau(  12) = (   1.3992573   0.0494048  14.5275604  )

     number of k points=    74  Fermi-Dirac smearing, width (Ry)=  0.0100
                       cart. coord. in units 2pi/alat
        k(    1) = (   0.0000000   0.0000000   0.0000000), wk =   0.0138889
        k(    2) = (   0.0000000   0.0152435   0.0000000), wk =   0.0277778
        k(    3) = (   0.0000000   0.0304870   0.0000000), wk =   0.0277778
        k(    4) = (   0.0000000   0.0457305   0.0000000), wk =   0.0277778
        k(    5) = (   0.0000000   0.0609740   0.0000000), wk =   0.0277778
        k(    6) = (   0.0000000   0.0762175   0.0000000), wk =   0.0277778
        k(    7) = (   0.0000000  -0.0914611   0.0000000), wk =   0.0138889
        k(    8) = (   0.0148889   0.0076218   0.0000000), wk =   0.0277778
        k(    9) = (   0.0148889   0.0228653   0.0000000), wk =   0.0277778
        k(   10) = (   0.0148889   0.0381088   0.0000000), wk =   0.0277778
        k(   11) = (   0.0148889   0.0533523   0.0000000), wk =   0.0277778
        k(   12) = (   0.0148889   0.0685958   0.0000000), wk =   0.0277778
        k(   13) = (   0.0148889   0.0838393   0.0000000), wk =   0.0277778
        k(   14) = (   0.0148889  -0.0838393   0.0000000), wk =   0.0277778
        k(   15) = (   0.0148889  -0.0685958   0.0000000), wk =   0.0277778
        k(   16) = (   0.0148889  -0.0533523   0.0000000), wk =   0.0277778
        k(   17) = (   0.0148889  -0.0381088   0.0000000), wk =   0.0277778
        k(   18) = (   0.0148889  -0.0228653   0.0000000), wk =   0.0277778
        k(   19) = (   0.0148889  -0.0076218   0.0000000), wk =   0.0277778
        k(   20) = (   0.0297777   0.0152435   0.0000000), wk =   0.0277778
        k(   21) = (   0.0297777   0.0304870   0.0000000), wk =   0.0277778
        k(   22) = (   0.0297777   0.0457305   0.0000000), wk =   0.0277778
        k(   23) = (   0.0297777   0.0609740   0.0000000), wk =   0.0277778
        k(   24) = (   0.0297777   0.0762175   0.0000000), wk =   0.0277778
        k(   25) = (   0.0297777   0.0914611   0.0000000), wk =   0.0277778
        k(   26) = (   0.0297777  -0.0762175   0.0000000), wk =   0.0277778
        k(   27) = (   0.0297777  -0.0609740   0.0000000), wk =   0.0277778
        k(   28) = (   0.0297777  -0.0457305   0.0000000), wk =   0.0277778
        k(   29) = (   0.0297777  -0.0304870   0.0000000), wk =   0.0277778
        k(   30) = (   0.0297777  -0.0152435   0.0000000), wk =   0.0277778
        k(   31) = (   0.0297777   0.0000000   0.0000000), wk =   0.0277778
        k(   32) = (   0.0446666   0.0228653   0.0000000), wk =   0.0277778
        k(   33) = (   0.0446666   0.0381088   0.0000000), wk =   0.0277778
        k(   34) = (   0.0446666   0.0533523   0.0000000), wk =   0.0277778
        k(   35) = (   0.0446666   0.0685958   0.0000000), wk =   0.0277778
        k(   36) = (   0.0446666   0.0838393   0.0000000), wk =   0.0277778
        k(   37) = (   0.0446666   0.0990828   0.0000000), wk =   0.0277778
        k(   38) = (   0.0446666  -0.0685958   0.0000000), wk =   0.0277778
        k(   39) = (   0.0446666  -0.0533523   0.0000000), wk =   0.0277778
        k(   40) = (   0.0446666  -0.0381088   0.0000000), wk =   0.0277778
        k(   41) = (   0.0446666  -0.0228653   0.0000000), wk =   0.0277778
        k(   42) = (   0.0446666  -0.0076218   0.0000000), wk =   0.0277778
        k(   43) = (   0.0446666   0.0076218   0.0000000), wk =   0.0277778
        k(   44) = (   0.0595554   0.0304870   0.0000000), wk =   0.0277778
        k(   45) = (   0.0595554   0.0457305   0.0000000), wk =   0.0277778
        k(   46) = (   0.0595554   0.0609740   0.0000000), wk =   0.0277778
        k(   47) = (   0.0595554   0.0762175   0.0000000), wk =   0.0277778
        k(   48) = (   0.0595554   0.0914611   0.0000000), wk =   0.0277778
        k(   49) = (   0.0595554   0.1067046   0.0000000), wk =   0.0277778
        k(   50) = (   0.0595554  -0.0609740   0.0000000), wk =   0.0277778
        k(   51) = (   0.0595554  -0.0457305   0.0000000), wk =   0.0277778
        k(   52) = (   0.0595554  -0.0304870   0.0000000), wk =   0.0277778
        k(   53) = (   0.0595554  -0.0152435   0.0000000), wk =   0.0277778
        k(   54) = (   0.0595554   0.0000000   0.0000000), wk =   0.0277778
        k(   55) = (   0.0595554   0.0152435   0.0000000), wk =   0.0277778
        k(   56) = (   0.0744443   0.0381088   0.0000000), wk =   0.0277778
        k(   57) = (   0.0744443   0.0533523   0.0000000), wk =   0.0277778
        k(   58) = (   0.0744443   0.0685958   0.0000000), wk =   0.0277778
        k(   59) = (   0.0744443   0.0838393   0.0000000), wk =   0.0277778
        k(   60) = (   0.0744443   0.0990828   0.0000000), wk =   0.0277778
        k(   61) = (   0.0744443   0.1143263   0.0000000), wk =   0.0277778
        k(   62) = (   0.0744443  -0.0533523   0.0000000), wk =   0.0277778
        k(   63) = (   0.0744443  -0.0381088   0.0000000), wk =   0.0277778
        k(   64) = (   0.0744443  -0.0228653   0.0000000), wk =   0.0277778
        k(   65) = (   0.0744443  -0.0076217   0.0000000), wk =   0.0277778
        k(   66) = (   0.0744443   0.0076218   0.0000000), wk =   0.0277778
        k(   67) = (   0.0744443   0.0228653   0.0000000), wk =   0.0277778
        k(   68) = (  -0.0893331  -0.0457305   0.0000000), wk =   0.0138889
        k(   69) = (  -0.0893331  -0.0304870   0.0000000), wk =   0.0277778
        k(   70) = (  -0.0893331  -0.0152435   0.0000000), wk =   0.0277778
        k(   71) = (  -0.0893331  -0.0000000   0.0000000), wk =   0.0277778
        k(   72) = (  -0.0893331   0.0152435   0.0000000), wk =   0.0277778
        k(   73) = (  -0.0893331   0.0304870   0.0000000), wk =   0.0277778
        k(   74) = (  -0.0893331  -0.1371916   0.0000000), wk =   0.0138889

     Dense  grid:  1119813 G-vectors     FFT dimensions: (  80,  90, 360)

     Smooth grid:   283185 G-vectors     FFT dimensions: (  50,  60, 225)

     Estimated max dynamical RAM per process >     219.01 MB

     Estimated total dynamical RAM >       7.91 GB

     Check: negative core charge=   -0.000001

     Initial potential from superposition of free atoms

     starting charge  149.97935, renormalised to  150.00000

     negative rho (up, down):  5.857E-04 0.000E+00


     %%%%%%%%%%%%%%%%%%%%%%%%%%%%%%%%%%%%%%%%%%%%%%%%%%%%%%%%%%%%%%%%%%%%%%%%
     %                                                                      %
     % You are using vdW-DF, which was implemented by the Thonhauser group. %
     % Please cite the following two papers that made this development      %
     % possible and the two reviews that describe the various versions:     %
     %                                                                      %
     %   T. Thonhauser et al., PRL 115, 136402 (2015).                      %
     %   T. Thonhauser et al., PRB 76, 125112 (2007).                       %
     %   K. Berland et al., Rep. Prog. Phys. 78, 066501 (2015).             %
     %   D.C. Langreth et al., J. Phys.: Condens. Matter 21, 084203 (2009). %
     %                                                                      %
     %                                                                      %
     % If you are calculating the stress with vdW-DF, please also cite:     %
     %                                                                      %
     %   R. Sabatini et al., J. Phys.: Condens. Matter 24, 424209 (2012).   %
     %                                                                      %
     %%%%%%%%%%%%%%%%%%%%%%%%%%%%%%%%%%%%%%%%%%%%%%%%%%%%%%%%%%%%%%%%%%%%%%%%



     Adding external electric field

     Computed dipole along edir(3) : 
        Dipole                0.0017 Ry au,          0.0044 Debye
        Dipole field          0.0000 Ry au, 

        Potential amp.       -0.0004 Ry
        Total length         45.7084 bohr

     Starting wfcs are  120 randomized atomic wfcs

     total cpu time spent up to now is      102.7 secs

     Self-consistent Calculation

     iteration #  1     ecut=    55.12 Ry     beta= 0.10
     Davidson diagonalization with overlap
     ethr =  1.00E-02,  avg # of iterations =  2.1

     negative rho (up, down):  2.967E-04 0.000E+00

     Adding external electric field

     Computed dipole along edir(3) : 
        Dipole               -0.2545 Ry au,         -0.6470 Debye
        Dipole field         -0.0006 Ry au, 

        Potential amp.        0.0571 Ry
        Total length         45.7084 bohr


     total cpu time spent up to now is      307.3 secs

     total energy              =   -1430.80932744 Ry
     estimated scf accuracy    <       6.87308386 Ry

     iteration #  2     ecut=    55.12 Ry     beta= 0.10
     Davidson diagonalization with overlap
     ethr =  4.58E-03,  avg # of iterations =  2.2

     negative rho (up, down):  2.775E-04 0.000E+00

     Adding external electric field

     Computed dipole along edir(3) : 
        Dipole                0.9061 Ry au,          2.3031 Debye
        Dipole field          0.0022 Ry au, 

        Potential amp.       -0.2032 Ry
        Total length         45.7084 bohr


     total cpu time spent up to now is      510.9 secs

     total energy              =   -1431.02922360 Ry
     estimated scf accuracy    <       7.93537942 Ry

     iteration #  3     ecut=    55.12 Ry     beta= 0.10
     Davidson diagonalization with overlap
     ethr =  4.58E-03,  avg # of iterations =  2.5

     negative rho (up, down):  2.542E-04 0.000E+00

     Adding external electric field

     Computed dipole along edir(3) : 
        Dipole                0.1025 Ry au,          0.2605 Debye
        Dipole field          0.0003 Ry au, 

        Potential amp.       -0.0230 Ry
        Total length         45.7084 bohr


     total cpu time spent up to now is      706.1 secs

     total energy              =   -1431.22640045 Ry
     estimated scf accuracy    <      27.58924320 Ry

     iteration #  4     ecut=    55.12 Ry     beta= 0.10
     Davidson diagonalization with overlap
     ethr =  4.58E-03,  avg # of iterations =  1.5

     negative rho (up, down):  2.442E-04 0.000E+00

     Adding external electric field

     Computed dipole along edir(3) : 
        Dipole                0.0441 Ry au,          0.1122 Debye
        Dipole field          0.0001 Ry au, 

        Potential amp.       -0.0099 Ry
        Total length         45.7084 bohr


     total cpu time spent up to now is      880.7 secs

     total energy              =   -1431.60277974 Ry
     estimated scf accuracy    <       0.56241193 Ry

     iteration #  5     ecut=    55.12 Ry     beta= 0.10
     Davidson diagonalization with overlap
     c_bands:  5 eigenvalues not converged
     ethr =  3.75E-04,  avg # of iterations =  9.4

     negative rho (up, down):  2.796E-04 0.000E+00

     Adding external electric field

     Computed dipole along edir(3) : 
        Dipole                0.1744 Ry au,          0.4434 Debye
        Dipole field          0.0004 Ry au, 

        Potential amp.       -0.0391 Ry
        Total length         45.7084 bohr


     total cpu time spent up to now is     1195.1 secs

     total energy              =   -1431.69126878 Ry
     estimated scf accuracy    <       0.41973761 Ry

     iteration #  6     ecut=    55.12 Ry     beta= 0.10
     Davidson diagonalization with overlap
     ethr =  2.80E-04,  avg # of iterations =  1.7

     negative rho (up, down):  3.137E-04 0.000E+00

     Adding external electric field

     Computed dipole along edir(3) : 
        Dipole                0.1543 Ry au,          0.3922 Debye
        Dipole field          0.0004 Ry au, 

        Potential amp.       -0.0346 Ry
        Total length         45.7084 bohr


     total cpu time spent up to now is     1377.0 secs

     total energy              =   -1431.69608255 Ry
     estimated scf accuracy    <       0.28145206 Ry

     iteration #  7     ecut=    55.12 Ry     beta= 0.10
     Davidson diagonalization with overlap
     ethr =  1.88E-04,  avg # of iterations =  1.6

     negative rho (up, down):  3.997E-04 0.000E+00

     Adding external electric field

     Computed dipole along edir(3) : 
        Dipole                0.2489 Ry au,          0.6326 Debye
        Dipole field          0.0006 Ry au, 

        Potential amp.       -0.0558 Ry
        Total length         45.7084 bohr


     total cpu time spent up to now is     1554.7 secs

     total energy              =   -1431.67232496 Ry
     estimated scf accuracy    <       0.11268098 Ry

     iteration #  8     ecut=    55.12 Ry     beta= 0.10
     Davidson diagonalization with overlap
     c_bands:  1 eigenvalues not converged
     c_bands:  2 eigenvalues not converged
     c_bands:  2 eigenvalues not converged
     c_bands:  3 eigenvalues not converged
     c_bands:  2 eigenvalues not converged
     ethr =  7.51E-05,  avg # of iterations = 12.8

     negative rho (up, down):  3.708E-04 0.000E+00

     Adding external electric field

     Computed dipole along edir(3) : 
        Dipole                0.1750 Ry au,          0.4448 Debye
        Dipole field          0.0004 Ry au, 

        Potential amp.       -0.0392 Ry
        Total length         45.7084 bohr


     total cpu time spent up to now is     1899.4 secs

     total energy              =   -1431.70134916 Ry
     estimated scf accuracy    <       0.34664679 Ry

     iteration #  9     ecut=    55.12 Ry     beta= 0.10
     Davidson diagonalization with overlap
     ethr =  7.51E-05,  avg # of iterations =  2.3

     negative rho (up, down):  4.244E-04 0.000E+00

     Adding external electric field

     Computed dipole along edir(3) : 
        Dipole                0.1316 Ry au,          0.3346 Debye
        Dipole field          0.0003 Ry au, 

        Potential amp.       -0.0295 Ry
        Total length         45.7084 bohr


     total cpu time spent up to now is     2088.4 secs

     total energy              =   -1431.68515566 Ry
     estimated scf accuracy    <       0.11014591 Ry

     iteration # 10     ecut=    55.12 Ry     beta= 0.10
     Davidson diagonalization with overlap
     ethr =  7.34E-05,  avg # of iterations =  2.6

     negative rho (up, down):  5.518E-04 0.000E+00

     Adding external electric field

     Computed dipole along edir(3) : 
        Dipole                0.1480 Ry au,          0.3761 Debye
        Dipole field          0.0004 Ry au, 

        Potential amp.       -0.0332 Ry
        Total length         45.7084 bohr


     total cpu time spent up to now is     2299.5 secs

     total energy              =   -1431.69601610 Ry
     estimated scf accuracy    <       0.06703335 Ry

     iteration # 11     ecut=    55.12 Ry     beta= 0.10
     Davidson diagonalization with overlap
     ethr =  4.47E-05,  avg # of iterations =  2.0

     negative rho (up, down):  5.890E-04 0.000E+00

     Adding external electric field

     Computed dipole along edir(3) : 
        Dipole                0.1564 Ry au,          0.3976 Debye
        Dipole field          0.0004 Ry au, 

        Potential amp.       -0.0351 Ry
        Total length         45.7084 bohr


     total cpu time spent up to now is     2493.6 secs

     total energy              =   -1431.70340747 Ry
     estimated scf accuracy    <       0.00775944 Ry

     iteration # 12     ecut=    55.12 Ry     beta= 0.10
     Davidson diagonalization with overlap
     c_bands:  1 eigenvalues not converged
     c_bands:  1 eigenvalues not converged
     c_bands:  2 eigenvalues not converged
     c_bands:  2 eigenvalues not converged
     c_bands:  1 eigenvalues not converged
     c_bands:  3 eigenvalues not converged
     c_bands:  3 eigenvalues not converged
     c_bands:  1 eigenvalues not converged
     c_bands:  4 eigenvalues not converged
     c_bands:  1 eigenvalues not converged
     c_bands:  1 eigenvalues not converged
     c_bands:  3 eigenvalues not converged
     c_bands:  4 eigenvalues not converged
     c_bands:  4 eigenvalues not converged
     c_bands:  1 eigenvalues not converged
     c_bands:  1 eigenvalues not converged
     c_bands:  1 eigenvalues not converged
     c_bands:  2 eigenvalues not converged
     c_bands:  1 eigenvalues not converged
     c_bands:  1 eigenvalues not converged
     c_bands:  1 eigenvalues not converged
     c_bands:  1 eigenvalues not converged
     c_bands:  2 eigenvalues not converged
     c_bands:  4 eigenvalues not converged
     c_bands:  1 eigenvalues not converged
     c_bands:  3 eigenvalues not converged
     c_bands:  2 eigenvalues not converged
     c_bands:  4 eigenvalues not converged
     c_bands:  1 eigenvalues not converged
     c_bands:  1 eigenvalues not converged
     c_bands:  1 eigenvalues not converged
     c_bands:  1 eigenvalues not converged
     c_bands:  1 eigenvalues not converged
     c_bands:  2 eigenvalues not converged
     c_bands:  2 eigenvalues not converged
     c_bands:  3 eigenvalues not converged
     c_bands:  1 eigenvalues not converged
     c_bands:  1 eigenvalues not converged
     c_bands:  2 eigenvalues not converged
     ethr =  5.17E-06,  avg # of iterations = 18.4

     negative rho (up, down):  5.384E-04 0.000E+00

     Adding external electric field

     Computed dipole along edir(3) : 
        Dipole                0.1478 Ry au,          0.3756 Debye
        Dipole field          0.0004 Ry au, 

        Potential amp.       -0.0331 Ry
        Total length         45.7084 bohr


     total cpu time spent up to now is     2918.7 secs

     total energy              =   -1431.70353023 Ry
     estimated scf accuracy    <       0.01387743 Ry

     iteration # 13     ecut=    55.12 Ry     beta= 0.10
     Davidson diagonalization with overlap
     c_bands:  3 eigenvalues not converged
     c_bands:  4 eigenvalues not converged
     c_bands:  1 eigenvalues not converged
     c_bands:  1 eigenvalues not converged
     c_bands:  1 eigenvalues not converged
     c_bands:  1 eigenvalues not converged
     c_bands:  1 eigenvalues not converged
     c_bands:  1 eigenvalues not converged
     c_bands:  1 eigenvalues not converged
     c_bands:  1 eigenvalues not converged
     c_bands:  2 eigenvalues not converged
     c_bands:  2 eigenvalues not converged
     ethr =  5.17E-06,  avg # of iterations =  6.4

     negative rho (up, down):  5.529E-04 0.000E+00

     Adding external electric field

     Computed dipole along edir(3) : 
        Dipole                0.1775 Ry au,          0.4512 Debye
        Dipole field          0.0004 Ry au, 

        Potential amp.       -0.0398 Ry
        Total length         45.7084 bohr


     total cpu time spent up to now is     3144.3 secs

     total energy              =   -1431.70405952 Ry
     estimated scf accuracy    <       0.00867920 Ry

     iteration # 14     ecut=    55.12 Ry     beta= 0.10
     Davidson diagonalization with overlap
     c_bands:  1 eigenvalues not converged
     c_bands:  1 eigenvalues not converged
     ethr =  5.17E-06,  avg # of iterations =  2.9

     negative rho (up, down):  5.713E-04 0.000E+00

     Adding external electric field

     Computed dipole along edir(3) : 
        Dipole                0.1673 Ry au,          0.4253 Debye
        Dipole field          0.0004 Ry au, 

        Potential amp.       -0.0375 Ry
        Total length         45.7084 bohr


     total cpu time spent up to now is     3360.2 secs

     total energy              =   -1431.70468264 Ry
     estimated scf accuracy    <       0.00712509 Ry

     iteration # 15     ecut=    55.12 Ry     beta= 0.10
     Davidson diagonalization with overlap
     ethr =  4.75E-06,  avg # of iterations =  1.2

     negative rho (up, down):  5.680E-04 0.000E+00

     Adding external electric field

     Computed dipole along edir(3) : 
        Dipole                0.1565 Ry au,          0.3979 Debye
        Dipole field          0.0004 Ry au, 

        Potential amp.       -0.0351 Ry
        Total length         45.7084 bohr


     total cpu time spent up to now is     3532.4 secs

     total energy              =   -1431.70479328 Ry
     estimated scf accuracy    <       0.00062809 Ry

     iteration # 16     ecut=    55.12 Ry     beta= 0.10
     Davidson diagonalization with overlap
     c_bands:  3 eigenvalues not converged
     c_bands:  2 eigenvalues not converged
     c_bands:  2 eigenvalues not converged
     c_bands:  2 eigenvalues not converged
     c_bands:  1 eigenvalues not converged
     c_bands:  2 eigenvalues not converged
     c_bands:  1 eigenvalues not converged
     ethr =  4.19E-07,  avg # of iterations = 10.4

     negative rho (up, down):  5.680E-04 0.000E+00

     Adding external electric field

     Computed dipole along edir(3) : 
        Dipole                0.1580 Ry au,          0.4015 Debye
        Dipole field          0.0004 Ry au, 

        Potential amp.       -0.0354 Ry
        Total length         45.7084 bohr


     total cpu time spent up to now is     3875.9 secs

     total energy              =   -1431.70504976 Ry
     estimated scf accuracy    <       0.00015806 Ry

     iteration # 17     ecut=    55.12 Ry     beta= 0.10
     Davidson diagonalization with overlap
     c_bands:  1 eigenvalues not converged
     c_bands:  1 eigenvalues not converged
     c_bands:  1 eigenvalues not converged
     c_bands:  1 eigenvalues not converged
     c_bands:  1 eigenvalues not converged
     c_bands:  1 eigenvalues not converged
     ethr =  1.05E-07,  avg # of iterations =  9.0

     negative rho (up, down):  5.644E-04 0.000E+00

     Adding external electric field

     Computed dipole along edir(3) : 
        Dipole                0.1599 Ry au,          0.4064 Debye
        Dipole field          0.0004 Ry au, 

        Potential amp.       -0.0359 Ry
        Total length         45.7084 bohr


     total cpu time spent up to now is     4130.6 secs

     total energy              =   -1431.70506377 Ry
     estimated scf accuracy    <       0.00009325 Ry

     iteration # 18     ecut=    55.12 Ry     beta= 0.10
     Davidson diagonalization with overlap
     c_bands:  1 eigenvalues not converged
     c_bands:  1 eigenvalues not converged
     c_bands:  1 eigenvalues not converged
     c_bands:  1 eigenvalues not converged
     c_bands:  1 eigenvalues not converged
     ethr =  6.22E-08,  avg # of iterations = 10.0

     negative rho (up, down):  5.626E-04 0.000E+00

     Adding external electric field

     Computed dipole along edir(3) : 
        Dipole                0.1576 Ry au,          0.4006 Debye
        Dipole field          0.0004 Ry au, 

        Potential amp.       -0.0353 Ry
        Total length         45.7084 bohr


     total cpu time spent up to now is     4445.5 secs

     total energy              =   -1431.70505119 Ry
     estimated scf accuracy    <       0.00025918 Ry

     iteration # 19     ecut=    55.12 Ry     beta= 0.10
     Davidson diagonalization with overlap
     c_bands:  1 eigenvalues not converged
     ethr =  6.22E-08,  avg # of iterations =  6.0

     negative rho (up, down):  5.572E-04 0.000E+00

     Adding external electric field

     Computed dipole along edir(3) : 
        Dipole                0.1593 Ry au,          0.4050 Debye
        Dipole field          0.0004 Ry au, 

        Potential amp.       -0.0357 Ry
        Total length         45.7084 bohr


     total cpu time spent up to now is     4684.6 secs

     total energy              =   -1431.70509256 Ry
     estimated scf accuracy    <       0.00002079 Ry

     iteration # 20     ecut=    55.12 Ry     beta= 0.10
     Davidson diagonalization with overlap
     c_bands:  1 eigenvalues not converged
     ethr =  1.39E-08,  avg # of iterations =  7.5

     negative rho (up, down):  5.423E-04 0.000E+00

     Adding external electric field

     Computed dipole along edir(3) : 
        Dipole                0.1617 Ry au,          0.4111 Debye
        Dipole field          0.0004 Ry au, 

        Potential amp.       -0.0363 Ry
        Total length         45.7084 bohr


     total cpu time spent up to now is     4922.3 secs

     End of self-consistent calculation

          k = 0.0000 0.0000 0.0000 ( 35447 PWs)   bands (ev):

   -59.5239 -59.4415 -59.3619 -59.2808 -59.2683 -59.1870 -48.3730 -48.2606
   -48.2539 -48.1406 -47.7711 -47.6569 -34.0091 -33.9123 -33.8876 -33.7171
   -33.6493 -33.5206 -33.4399 -33.4322 -33.3675 -33.3586 -33.2960 -33.2812
   -33.2082 -33.1519 -33.0062 -32.9956 -32.9379 -32.9269 -27.3452 -27.2750
   -27.0741 -26.9743 -26.9707 -26.8728 -26.8695 -26.8172 -26.7813 -26.7476
   -26.6547 -26.5587 -26.4854 -26.3454 -26.2783 -26.2565 -26.1852 -26.0238
    -3.8808  -2.5664  -2.2544  -1.9107  -1.6837  -1.6517  -1.3764  -1.1830
    -1.1282  -1.0565  -1.0300  -1.0056  -0.7867  -0.7711  -0.4013  -0.3800
     0.2126   0.2432   0.2792   0.5282   0.5402   1.2076   1.4240   1.5345
     1.6773   1.7599   1.7872   1.8542   2.0233   2.0801   2.2599   2.4554
     2.5272   2.5495   2.6360   2.6414   2.6568   2.8020   2.8466   2.8939
     2.9966   3.2877

          k = 0.0000 0.0152 0.0000 ( 35475 PWs)   bands (ev):

   -59.5239 -59.4416 -59.3619 -59.2808 -59.2683 -59.1871 -48.3731 -48.2606
   -48.2540 -48.1406 -47.7711 -47.6569 -34.0089 -33.9122 -33.8874 -33.7170
   -33.6492 -33.5201 -33.4398 -33.4320 -33.3672 -33.3586 -33.2958 -33.2811
   -33.2082 -33.1519 -33.0061 -32.9956 -32.9379 -32.9269 -27.3456 -27.2754
   -27.0744 -26.9743 -26.9708 -26.8737 -26.8695 -26.8176 -26.7816 -26.7485
   -26.6551 -26.5587 -26.4854 -26.3454 -26.2791 -26.2565 -26.1856 -26.0239
    -3.8373  -2.5280  -2.2374  -1.8730  -1.6802  -1.6216  -1.3865  -1.1692
    -1.1057  -1.0286  -1.0105  -0.9740  -0.7689  -0.7451  -0.3883  -0.3462
     0.1979   0.2063   0.3187   0.5040   0.5628   1.1659   1.4113   1.4814
     1.5807   1.7367   1.8034   1.8882   2.0328   2.0797   2.2170   2.3216
     2.4700   2.4883   2.5438   2.6134   2.7633   2.8036   2.8101   2.9112
     3.0191   3.2473

          k = 0.0000 0.0305 0.0000 ( 35473 PWs)   bands (ev):

   -59.5239 -59.4416 -59.3619 -59.2808 -59.2683 -59.1871 -48.3731 -48.2606
   -48.2540 -48.1406 -47.7712 -47.6569 -34.0082 -33.9120 -33.8868 -33.7167
   -33.6490 -33.5190 -33.4397 -33.4314 -33.3664 -33.3585 -33.2950 -33.2810
   -33.2082 -33.1518 -33.0061 -32.9956 -32.9379 -32.9269 -27.3465 -27.2765
   -27.0751 -26.9745 -26.9711 -26.8762 -26.8697 -26.8184 -26.7826 -26.7511
   -26.6561 -26.5588 -26.4855 -26.3453 -26.2813 -26.2564 -26.1864 -26.0240
    -3.7093  -2.4185  -2.1896  -1.7645  -1.6794  -1.5342  -1.4049  -1.1352
    -1.0433  -0.9555  -0.9489  -0.8828  -0.7058  -0.6751  -0.4076  -0.1945
     0.1654   0.1702   0.3230   0.4680   0.6038   1.0173   1.3011   1.3695
     1.5459   1.6815   1.7483   1.8961   2.0258   2.0593   2.0723   2.1255
     2.2717   2.3664   2.4622   2.5909   2.6402   2.7761   2.8666   2.9590
     3.0820   3.1354

          k = 0.0000 0.0457 0.0000 ( 35434 PWs)   bands (ev):

   -59.5238 -59.4416 -59.3618 -59.2808 -59.2683 -59.1870 -48.3732 -48.2606
   -48.2541 -48.1407 -47.7713 -47.6569 -34.0073 -33.9117 -33.8861 -33.7164
   -33.6487 -33.5174 -33.4395 -33.4305 -33.3653 -33.3585 -33.2940 -33.2807
   -33.2083 -33.1518 -33.0061 -32.9956 -32.9380 -32.9269 -27.3477 -27.2780
   -27.0760 -26.9748 -26.9715 -26.8795 -26.8699 -26.8197 -26.7839 -26.7546
   -26.6574 -26.5589 -26.4857 -26.3451 -26.2842 -26.2563 -26.1876 -26.0240
    -3.5055  -2.2612  -2.1211  -1.7094  -1.5998  -1.4039  -1.3998  -1.0929
    -0.9548  -0.8739  -0.8309  -0.7444  -0.6083  -0.5845  -0.3984  -0.0007
     0.1094   0.1784   0.2212   0.4780   0.6161   0.7873   1.1418   1.2941
     1.5204   1.5804   1.6031   1.7797   1.8237   1.9974   1.9979   2.0684
     2.0967   2.1670   2.2447   2.6116   2.6610   2.6940   2.7175   2.8577
     2.9969   3.0279

          k = 0.0000 0.0610 0.0000 ( 35398 PWs)   bands (ev):

   -59.5238 -59.4416 -59.3618 -59.2807 -59.2682 -59.1869 -48.3733 -48.2606
   -48.2543 -48.1407 -47.7714 -47.6569 -34.0064 -33.9114 -33.8853 -33.7160
   -33.6484 -33.5157 -33.4394 -33.4296 -33.3641 -33.3584 -33.2930 -33.2804
   -33.2083 -33.1517 -33.0060 -32.9955 -32.9380 -32.9269 -27.3490 -27.2796
   -27.0770 -26.9751 -26.9720 -26.8828 -26.8701 -26.8209 -26.7852 -26.7581
   -26.6588 -26.5590 -26.4858 -26.3451 -26.2871 -26.2562 -26.1887 -26.0241
    -3.2427  -2.1388  -2.0479  -1.7432  -1.4613  -1.3244  -1.2374  -1.0529
    -0.8579  -0.7789  -0.7003  -0.6283  -0.5816  -0.4110  -0.2927  -0.0689
     0.0412   0.1858   0.3755   0.4449   0.5924   0.5942   0.9952   1.2000
     1.3510   1.3605   1.5032   1.6930   1.7356   1.7361   1.8747   1.9069
     1.9952   2.1355   2.1670   2.2991   2.6215   2.6364   2.7380   2.7746
     2.8283   2.8992

          k = 0.0000 0.0762 0.0000 ( 35432 PWs)   bands (ev):

   -59.5238 -59.4416 -59.3619 -59.2808 -59.2682 -59.1870 -48.3733 -48.2606
   -48.2543 -48.1407 -47.7715 -47.6569 -34.0058 -33.9112 -33.8847 -33.7158
   -33.6481 -33.5146 -33.4393 -33.4289 -33.3633 -33.3584 -33.2923 -33.2803
   -33.2084 -33.1516 -33.0060 -32.9955 -32.9380 -32.9269 -27.3499 -27.2807
   -27.0777 -26.9753 -26.9723 -26.8853 -26.8702 -26.8217 -26.7862 -26.7607
   -26.6598 -26.5591 -26.4859 -26.3452 -26.2892 -26.2562 -26.1896 -26.0242
    -2.9574  -2.2168  -1.9905  -1.6526  -1.4443  -1.1561  -1.0802  -1.0061
    -0.7764  -0.7033  -0.6998  -0.5886  -0.4349  -0.2826  -0.2200  -0.1625
     0.0027   0.2127   0.3697   0.4171   0.4666   0.7947   0.8009   1.1376
     1.1640   1.2410   1.4190   1.4943   1.6066   1.6300   1.7438   1.8239
     1.8943   1.9780   2.1517   2.1650   2.4286   2.6924   2.7271   2.8045
     2.8586   2.8709

          k = 0.0000-0.0915 0.0000 ( 35436 PWs)   bands (ev):

   -59.5238 -59.4416 -59.3618 -59.2808 -59.2682 -59.1870 -48.3734 -48.2606
   -48.2544 -48.1407 -47.7715 -47.6569 -34.0055 -33.9112 -33.8845 -33.7157
   -33.6481 -33.5141 -33.4393 -33.4287 -33.3630 -33.3584 -33.2920 -33.2802
   -33.2084 -33.1516 -33.0060 -32.9955 -32.9380 -32.9269 -27.3502 -27.2811
   -27.0779 -26.9754 -26.9724 -26.8862 -26.8703 -26.8221 -26.7866 -26.7616
   -26.6602 -26.5591 -26.4859 -26.3452 -26.2899 -26.2562 -26.1900 -26.0242
    -2.7834  -2.3410  -1.9685  -1.5463  -1.4834  -1.0989  -0.9990  -0.9369
    -0.7522  -0.7429  -0.6868  -0.5463  -0.3817  -0.3704  -0.1044  -0.1006
    -0.0412   0.2468   0.3146   0.3622   0.4382   0.6762   0.9794   1.1428
     1.2259   1.2285   1.2782   1.2995   1.5369   1.5435   1.7097   1.8122
     1.8454   1.8899   2.1494   2.1761   2.3429   2.7221   2.7292   2.8306
     2.8761   2.9245

          k = 0.0149 0.0076 0.0000 ( 35456 PWs)   bands (ev):

   -59.5225 -59.4430 -59.3605 -59.2822 -59.2669 -59.1884 -48.3711 -48.2625
   -48.2520 -48.1426 -47.7692 -47.6589 -34.0075 -33.9139 -33.8755 -33.7053
   -33.6375 -33.5189 -33.4385 -33.4336 -33.3660 -33.3599 -33.2945 -33.2826
   -33.2096 -33.1649 -33.0085 -33.0049 -32.9398 -32.9391 -27.3325 -27.2622
   -27.0725 -26.9760 -26.9691 -26.8716 -26.8713 -26.8045 -26.7831 -26.7464
   -26.6567 -26.5729 -26.4996 -26.3439 -26.2770 -26.2580 -26.1871 -26.0381
    -3.8249  -2.5124  -2.2179  -1.8685  -1.6372  -1.6249  -1.3300  -1.1614
    -1.1588  -1.0039  -0.9874  -0.9749  -0.7679  -0.7357  -0.3775  -0.3530
     0.2049   0.2495   0.3071   0.5272   0.5468   1.2143   1.4147   1.5401
     1.6389   1.7568   1.7816   1.8276   1.8584   2.0950   2.2941   2.4075
     2.4431   2.4659   2.5525   2.6210   2.7212   2.7604   2.8028   2.9243
     2.9672   3.2185

          k = 0.0149 0.0229 0.0000 ( 35450 PWs)   bands (ev):

   -59.5224 -59.4430 -59.3605 -59.2822 -59.2669 -59.1885 -48.3712 -48.2625
   -48.2521 -48.1426 -47.7693 -47.6589 -34.0070 -33.9138 -33.8751 -33.7051
   -33.6373 -33.5181 -33.4384 -33.4332 -33.3654 -33.3599 -33.2940 -33.2825
   -33.2097 -33.1649 -33.0085 -33.0049 -32.9398 -32.9391 -27.3332 -27.2630
   -27.0730 -26.9762 -26.9693 -26.8733 -26.8714 -26.8051 -26.7837 -26.7481
   -26.6573 -26.5729 -26.4997 -26.3438 -26.2785 -26.2580 -26.1877 -26.0382
    -3.7388  -2.4370  -2.1847  -1.7950  -1.6334  -1.5689  -1.3467  -1.1341
    -1.1197  -0.9494  -0.9363  -0.9258  -0.7319  -0.6830  -0.3694  -0.2707
     0.1781   0.2014   0.3493   0.4860   0.5860   1.1215   1.3856   1.3899
     1.5753   1.7158   1.7615   1.8141   1.8959   2.0956   2.1607   2.2342
     2.3222   2.4308   2.4387   2.5840   2.7329   2.7447   2.8489   2.9258
     3.0083   3.1688

          k = 0.0149 0.0381 0.0000 ( 35416 PWs)   bands (ev):

   -59.5224 -59.4430 -59.3605 -59.2822 -59.2669 -59.1884 -48.3713 -48.2626
   -48.2522 -48.1426 -47.7693 -47.6589 -34.0062 -33.9135 -33.8744 -33.7048
   -33.6371 -33.5167 -33.4382 -33.4324 -33.3644 -33.3599 -33.2931 -33.2823
   -33.2097 -33.1648 -33.0085 -33.0048 -32.9397 -32.9391 -27.3342 -27.2644
   -27.0738 -26.9764 -26.9696 -26.8762 -26.8716 -26.8061 -26.7848 -26.7512
   -26.6584 -26.5730 -26.4998 -26.3437 -26.2811 -26.2579 -26.1887 -26.0382
    -3.5719  -2.2983  -2.1250  -1.6603  -1.6436  -1.4627  -1.3584  -1.0953
    -1.0455  -0.8666  -0.8493  -0.8124  -0.6448  -0.5979  -0.3833  -0.0892
     0.1550   0.1569   0.2922   0.4780   0.6192   0.9136   1.2136   1.3240
     1.5410   1.6486   1.6760   1.7697   1.8676   1.8774   2.0594   2.1001
     2.1433   2.2649   2.4046   2.4859   2.6718   2.7379   2.8526   2.9034
     2.9635   3.0600

          k = 0.0149 0.0534 0.0000 ( 35403 PWs)   bands (ev):

   -59.5224 -59.4430 -59.3605 -59.2821 -59.2669 -59.1883 -48.3713 -48.2626
   -48.2523 -48.1426 -47.7694 -47.6589 -34.0053 -33.9133 -33.8736 -33.7044
   -33.6367 -33.5151 -33.4381 -33.4315 -33.3633 -33.3598 -33.2921 -33.2820
   -33.2098 -33.1648 -33.0085 -33.0048 -32.9397 -32.9391 -27.3355 -27.2659
   -27.0748 -26.9767 -26.9700 -26.8796 -26.8717 -26.8073 -26.7861 -26.7548
   -26.6597 -26.5731 -26.4999 -26.3436 -26.2840 -26.2578 -26.1898 -26.0383
    -3.3362  -2.1381  -2.0515  -1.6951  -1.4865  -1.3321  -1.3188  -1.0532
    -0.9561  -0.7771  -0.7235  -0.6742  -0.5488  -0.5018  -0.3277   0.0336
     0.0459   0.2048   0.2545   0.4754   0.6075   0.6840   1.0633   1.2296
     1.4539   1.4832   1.5145   1.7027   1.7100   1.8309   1.8487   1.9176
     2.0299   2.1021   2.3935   2.4667   2.4780   2.6273   2.7627   2.7915
     2.9366   2.9520

          k = 0.0149 0.0686 0.0000 ( 35420 PWs)   bands (ev):

   -59.5224 -59.4430 -59.3605 -59.2821 -59.2669 -59.1884 -48.3714 -48.2626
   -48.2524 -48.1426 -47.7695 -47.6589 -34.0045 -33.9130 -33.8730 -33.7041
   -33.6365 -33.5137 -33.4380 -33.4308 -33.3622 -33.3598 -33.2912 -33.2818
   -33.2098 -33.1647 -33.0085 -33.0047 -32.9397 -32.9392 -27.3366 -27.2673
   -27.0756 -26.9769 -26.9704 -26.8825 -26.8719 -26.8084 -26.7873 -26.7578
   -26.6609 -26.5731 -26.5000 -26.3436 -26.2865 -26.2577 -26.1908 -26.0384
    -3.0550  -2.1040  -1.9829  -1.6793  -1.4002  -1.2008  -1.1599  -1.0129
    -0.8803  -0.6876  -0.6364  -0.5946  -0.4769  -0.3215  -0.1921  -0.1634
     0.0118   0.2020   0.4095   0.4425   0.5219   0.6398   0.8947   1.1222
     1.2617   1.2762   1.4677   1.5027   1.6112   1.7310   1.7868   1.8095
     1.8428   2.0622   2.1063   2.3995   2.4769   2.5370   2.6850   2.7696
     2.8818   2.9470

          k = 0.0149 0.0838 0.0000 ( 35413 PWs)   bands (ev):

   -59.5223 -59.4430 -59.3604 -59.2822 -59.2668 -59.1884 -48.3715 -48.2626
   -48.2524 -48.1427 -47.7695 -47.6589 -34.0040 -33.9129 -33.8726 -33.7039
   -33.6363 -33.5128 -33.4379 -33.4303 -33.3616 -33.3598 -33.2907 -33.2818
   -33.2099 -33.1647 -33.0085 -33.0047 -32.9397 -32.9392 -27.3372 -27.2680
   -27.0760 -26.9771 -26.9706 -26.8842 -26.8721 -26.8090 -26.7880 -26.7596
   -26.6616 -26.5731 -26.5000 -26.3437 -26.2879 -26.2577 -26.1914 -26.0384
    -2.7908  -2.2579  -1.9408  -1.5453  -1.4198  -1.0803  -1.0267  -0.9342
    -0.8630  -0.6570  -0.6546  -0.5233  -0.3745  -0.3252  -0.1564  -0.0830
    -0.0376   0.2321   0.3317   0.3907   0.4456   0.7088   0.9185   1.0482
     1.1619   1.2009   1.3140   1.4602   1.4855   1.5329   1.7374   1.7875
     1.8086   1.9021   2.0293   2.3249   2.4070   2.6090   2.7083   2.7643
     2.8891   2.9630

          k = 0.0149-0.0838 0.0000 ( 35413 PWs)   bands (ev):

   -59.5223 -59.4430 -59.3604 -59.2822 -59.2668 -59.1884 -48.3715 -48.2626
   -48.2524 -48.1427 -47.7695 -47.6589 -34.0040 -33.9129 -33.8726 -33.7039
   -33.6363 -33.5128 -33.4379 -33.4303 -33.3616 -33.3598 -33.2907 -33.2818
   -33.2099 -33.1647 -33.0085 -33.0047 -32.9397 -32.9392 -27.3372 -27.2680
   -27.0760 -26.9771 -26.9706 -26.8842 -26.8721 -26.8090 -26.7880 -26.7596
   -26.6616 -26.5731 -26.5000 -26.3437 -26.2879 -26.2577 -26.1914 -26.0384
    -2.7908  -2.2579  -1.9408  -1.5453  -1.4198  -1.0803  -1.0267  -0.9342
    -0.8630  -0.6570  -0.6546  -0.5233  -0.3745  -0.3252  -0.1564  -0.0830
    -0.0376   0.2321   0.3317   0.3907   0.4456   0.7088   0.9185   1.0482
     1.1619   1.2009   1.3140   1.4602   1.4855   1.5329   1.7374   1.7875
     1.8086   1.9021   2.0293   2.3249   2.4070   2.6087   2.7080   2.7640
     2.8877   2.9602

          k = 0.0149-0.0686 0.0000 ( 35420 PWs)   bands (ev):

   -59.5224 -59.4430 -59.3605 -59.2821 -59.2669 -59.1884 -48.3714 -48.2626
   -48.2524 -48.1426 -47.7695 -47.6589 -34.0045 -33.9130 -33.8730 -33.7041
   -33.6365 -33.5137 -33.4380 -33.4308 -33.3622 -33.3598 -33.2912 -33.2818
   -33.2098 -33.1647 -33.0085 -33.0047 -32.9397 -32.9392 -27.3366 -27.2673
   -27.0756 -26.9769 -26.9704 -26.8825 -26.8719 -26.8084 -26.7873 -26.7578
   -26.6609 -26.5731 -26.5000 -26.3436 -26.2865 -26.2577 -26.1908 -26.0384
    -3.0550  -2.1040  -1.9829  -1.6793  -1.4002  -1.2008  -1.1599  -1.0129
    -0.8803  -0.6876  -0.6365  -0.5946  -0.4769  -0.3215  -0.1922  -0.1634
     0.0118   0.2020   0.4095   0.4425   0.5219   0.6398   0.8947   1.1222
     1.2617   1.2762   1.4677   1.5027   1.6112   1.7310   1.7868   1.8095
     1.8428   2.0622   2.1064   2.3995   2.4771   2.5371   2.6849   2.7696
     2.8819   2.9462

          k = 0.0149-0.0534 0.0000 ( 35403 PWs)   bands (ev):

   -59.5224 -59.4430 -59.3605 -59.2821 -59.2669 -59.1883 -48.3713 -48.2626
   -48.2523 -48.1426 -47.7694 -47.6589 -34.0053 -33.9133 -33.8736 -33.7044
   -33.6367 -33.5151 -33.4381 -33.4315 -33.3633 -33.3598 -33.2921 -33.2820
   -33.2098 -33.1648 -33.0085 -33.0048 -32.9397 -32.9391 -27.3355 -27.2659
   -27.0748 -26.9767 -26.9700 -26.8796 -26.8717 -26.8073 -26.7861 -26.7548
   -26.6597 -26.5731 -26.4999 -26.3436 -26.2840 -26.2578 -26.1898 -26.0383
    -3.3362  -2.1381  -2.0515  -1.6951  -1.4865  -1.3321  -1.3188  -1.0532
    -0.9561  -0.7771  -0.7235  -0.6742  -0.5488  -0.5018  -0.3277   0.0336
     0.0459   0.2048   0.2545   0.4754   0.6075   0.6840   1.0633   1.2296
     1.4539   1.4832   1.5145   1.7027   1.7100   1.8309   1.8487   1.9176
     2.0299   2.1021   2.3935   2.4667   2.4780   2.6273   2.7627   2.7914
     2.9364   2.9521

          k = 0.0149-0.0381 0.0000 ( 35416 PWs)   bands (ev):

   -59.5224 -59.4430 -59.3605 -59.2822 -59.2669 -59.1884 -48.3713 -48.2626
   -48.2522 -48.1426 -47.7693 -47.6589 -34.0062 -33.9135 -33.8744 -33.7048
   -33.6371 -33.5167 -33.4382 -33.4324 -33.3644 -33.3599 -33.2931 -33.2823
   -33.2097 -33.1648 -33.0085 -33.0048 -32.9397 -32.9391 -27.3342 -27.2644
   -27.0738 -26.9764 -26.9696 -26.8762 -26.8716 -26.8061 -26.7848 -26.7512
   -26.6584 -26.5730 -26.4998 -26.3437 -26.2811 -26.2579 -26.1887 -26.0382
    -3.5719  -2.2983  -2.1250  -1.6603  -1.6436  -1.4627  -1.3584  -1.0953
    -1.0455  -0.8666  -0.8493  -0.8124  -0.6448  -0.5979  -0.3833  -0.0892
     0.1550   0.1568   0.2922   0.4780   0.6192   0.9136   1.2136   1.3240
     1.5410   1.6486   1.6760   1.7697   1.8676   1.8775   2.0594   2.1001
     2.1433   2.2649   2.4046   2.4860   2.6721   2.7379   2.8536   2.9049
     2.9634   3.0604

          k = 0.0149-0.0229 0.0000 ( 35450 PWs)   bands (ev):

   -59.5224 -59.4430 -59.3605 -59.2822 -59.2669 -59.1885 -48.3712 -48.2625
   -48.2521 -48.1426 -47.7693 -47.6589 -34.0070 -33.9138 -33.8751 -33.7051
   -33.6373 -33.5181 -33.4384 -33.4332 -33.3654 -33.3599 -33.2940 -33.2825
   -33.2097 -33.1649 -33.0085 -33.0049 -32.9398 -32.9391 -27.3332 -27.2630
   -27.0730 -26.9762 -26.9693 -26.8733 -26.8714 -26.8051 -26.7837 -26.7481
   -26.6573 -26.5729 -26.4997 -26.3438 -26.2785 -26.2580 -26.1877 -26.0382
    -3.7388  -2.4370  -2.1847  -1.7950  -1.6334  -1.5689  -1.3467  -1.1341
    -1.1197  -0.9494  -0.9363  -0.9258  -0.7319  -0.6830  -0.3694  -0.2707
     0.1781   0.2014   0.3493   0.4860   0.5860   1.1215   1.3856   1.3899
     1.5753   1.7158   1.7615   1.8141   1.8959   2.0957   2.1607   2.2342
     2.3222   2.4308   2.4390   2.5841   2.7329   2.7456   2.8493   2.9274
     3.0086   3.1712

          k = 0.0149-0.0076 0.0000 ( 35456 PWs)   bands (ev):

   -59.5225 -59.4430 -59.3605 -59.2822 -59.2669 -59.1884 -48.3711 -48.2625
   -48.2520 -48.1426 -47.7692 -47.6589 -34.0075 -33.9139 -33.8755 -33.7053
   -33.6375 -33.5189 -33.4385 -33.4336 -33.3660 -33.3599 -33.2945 -33.2826
   -33.2096 -33.1649 -33.0085 -33.0049 -32.9398 -32.9391 -27.3325 -27.2622
   -27.0725 -26.9760 -26.9691 -26.8716 -26.8713 -26.8045 -26.7831 -26.7464
   -26.6567 -26.5729 -26.4996 -26.3439 -26.2770 -26.2580 -26.1871 -26.0381
    -3.8249  -2.5124  -2.2179  -1.8685  -1.6372  -1.6249  -1.3300  -1.1614
    -1.1588  -1.0039  -0.9874  -0.9749  -0.7679  -0.7357  -0.3775  -0.3530
     0.2049   0.2495   0.3071   0.5272   0.5468   1.2143   1.4147   1.5401
     1.6389   1.7568   1.7816   1.8276   1.8584   2.0950   2.2941   2.4074
     2.4431   2.4658   2.5524   2.6210   2.7212   2.7604   2.8027   2.9241
     2.9670   3.2187

          k = 0.0298 0.0152 0.0000 ( 35421 PWs)   bands (ev):

   -59.5183 -59.4471 -59.3564 -59.2863 -59.2629 -59.1925 -48.3656 -48.2682
   -48.2465 -48.1484 -47.7636 -47.6647 -34.0025 -33.9186 -33.8399 -33.6705
   -33.6028 -33.5140 -33.4376 -33.4345 -33.3640 -33.3614 -33.2900 -33.2867
   -33.2139 -33.2029 -33.0458 -33.0017 -32.9771 -32.9425 -27.2951 -27.2247
   -27.0678 -26.9812 -26.9642 -26.8766 -26.8679 -26.7889 -26.7663 -26.7426
   -26.6622 -26.6141 -26.5412 -26.3394 -26.2731 -26.2625 -26.1926 -26.0798
    -3.6606  -2.3555  -2.1106  -1.7495  -1.5566  -1.5045  -1.2062  -1.1949
    -1.0846  -0.9421  -0.9073  -0.8119  -0.7007  -0.6371  -0.3110  -0.2723
     0.1814   0.2599   0.3913   0.5198   0.5659   1.2050   1.3722   1.4156
     1.4738   1.6847   1.7252   1.7567   1.8839   2.1068   2.1517   2.2080
     2.3201   2.3325   2.4328   2.5936   2.6022   2.7530   2.7733   2.8437
     2.9780   3.0711

          k = 0.0298 0.0305 0.0000 ( 35411 PWs)   bands (ev):

   -59.5183 -59.4471 -59.3564 -59.2862 -59.2628 -59.1925 -48.3657 -48.2683
   -48.2466 -48.1484 -47.7637 -47.6647 -34.0018 -33.9185 -33.8394 -33.6703
   -33.6026 -33.5130 -33.4370 -33.4343 -33.3640 -33.3607 -33.2893 -33.2865
   -33.2139 -33.2029 -33.0458 -33.0017 -32.9771 -32.9425 -27.2960 -27.2258
   -27.0684 -26.9814 -26.9644 -26.8767 -26.8701 -26.7896 -26.7672 -26.7450
   -26.6630 -26.6142 -26.5412 -26.3393 -26.2751 -26.2624 -26.1932 -26.0798
    -3.5348  -2.2461  -2.0635  -1.6488  -1.5065  -1.4976  -1.2116  -1.1461
    -1.0532  -0.8614  -0.8278  -0.7563  -0.6493  -0.5551  -0.2993  -0.1600
     0.1460   0.2161   0.3847   0.4843   0.6127   1.0402   1.2572   1.3220
     1.4498   1.5977   1.7007   1.7128   1.8460   1.9556   2.0183   2.1170
     2.1405   2.2857   2.2926   2.5611   2.6120   2.7272   2.8335   2.9173
     2.9834   3.0057

          k = 0.0298 0.0457 0.0000 ( 35415 PWs)   bands (ev):

   -59.5183 -59.4471 -59.3564 -59.2862 -59.2629 -59.1925 -48.3658 -48.2683
   -48.2466 -48.1484 -47.7637 -47.6647 -34.0010 -33.9183 -33.8387 -33.6699
   -33.6023 -33.5116 -33.4363 -33.4342 -33.3639 -33.3596 -33.2883 -33.2864
   -33.2140 -33.2029 -33.0458 -33.0017 -32.9772 -32.9426 -27.2971 -27.2272
   -27.0693 -26.9816 -26.9648 -26.8768 -26.8731 -26.7905 -26.7684 -26.7482
   -26.6640 -26.6142 -26.5412 -26.3392 -26.2778 -26.2623 -26.1941 -26.0798
    -3.3335  -2.0856  -1.9947  -1.5619  -1.4787  -1.4054  -1.2077  -1.0609
    -1.0132  -0.7441  -0.7094  -0.6758  -0.5560  -0.4544  -0.2921  -0.0068
     0.1470   0.1649   0.2831   0.4910   0.6290   0.7958   1.0877   1.2407
     1.4429   1.4915   1.6015   1.6061   1.7163   1.7537   1.8772   1.8838
     2.1011   2.1557   2.2573   2.4739   2.5811   2.6555   2.7778   2.7823
     2.9507   3.0623

          k = 0.0298 0.0610 0.0000 ( 35430 PWs)   bands (ev):

   -59.5183 -59.4472 -59.3565 -59.2862 -59.2629 -59.1925 -48.3658 -48.2683
   -48.2467 -48.1484 -47.7638 -47.6647 -34.0002 -33.9181 -33.8380 -33.6696
   -33.6020 -33.5101 -33.4356 -33.4341 -33.3639 -33.3586 -33.2874 -33.2863
   -33.2142 -33.2029 -33.0459 -33.0016 -32.9772 -32.9426 -27.2983 -27.2286
   -27.0701 -26.9819 -26.9652 -26.8770 -26.8762 -26.7915 -26.7696 -26.7514
   -26.6650 -26.6142 -26.5412 -26.3392 -26.2804 -26.2622 -26.1950 -26.0799
    -3.0723  -1.9536  -1.9199  -1.6089  -1.3272  -1.2940  -1.1559  -0.9714
    -0.9708  -0.6330  -0.5854  -0.5814  -0.4470  -0.3856  -0.1834  -0.0163
     0.0017   0.2303   0.3649   0.4486   0.5918   0.5994   0.9260   1.1349
     1.2783   1.4019   1.4219   1.4909   1.5309   1.6739   1.7316   1.8174
     1.8963   2.1280   2.2128   2.3101   2.4778   2.5942   2.6190   2.7828
     2.9482   2.9586

          k = 0.0298 0.0762 0.0000 ( 35428 PWs)   bands (ev):

   -59.5183 -59.4472 -59.3564 -59.2862 -59.2628 -59.1925 -48.3659 -48.2683
   -48.2468 -48.1484 -47.7639 -47.6647 -33.9995 -33.9179 -33.8375 -33.6694
   -33.6018 -33.5090 -33.4351 -33.4340 -33.3639 -33.3578 -33.2867 -33.2862
   -33.2143 -33.2029 -33.0459 -33.0016 -32.9772 -32.9426 -27.2991 -27.2297
   -27.0707 -26.9820 -26.9655 -26.8784 -26.8771 -26.7922 -26.7705 -26.7537
   -26.6658 -26.6142 -26.5413 -26.3392 -26.2822 -26.2622 -26.1956 -26.0799
    -2.7837  -2.0476  -1.8603  -1.5102  -1.2795  -1.1923  -1.0314  -0.9153
    -0.9038  -0.5945  -0.5309  -0.4951  -0.3580  -0.2545  -0.1908  -0.0695
    -0.0107   0.2230   0.3571   0.4540   0.4762   0.6990   0.7575   1.0543
     1.1199   1.1776   1.3307   1.3681   1.4628   1.6298   1.6695   1.7662
     1.7808   1.9558   2.0659   2.2966   2.4103   2.6141   2.6273   2.7622
     2.8752   2.9636

          k = 0.0298 0.0915 0.0000 ( 35466 PWs)   bands (ev):

   -59.5183 -59.4472 -59.3565 -59.2863 -59.2629 -59.1925 -48.3659 -48.2683
   -48.2468 -48.1484 -47.7639 -47.6647 -33.9993 -33.9179 -33.8373 -33.6693
   -33.6017 -33.5087 -33.4349 -33.4340 -33.3639 -33.3575 -33.2864 -33.2861
   -33.2143 -33.2029 -33.0459 -33.0016 -32.9772 -32.9426 -27.2994 -27.2301
   -27.0709 -26.9821 -26.9656 -26.8792 -26.8772 -26.7924 -26.7708 -26.7545
   -26.6661 -26.6142 -26.5413 -26.3392 -26.2829 -26.2622 -26.1959 -26.0799
    -2.5996  -2.1904  -1.8372  -1.3912  -1.3207  -1.1476  -0.9865  -0.8814
    -0.8302  -0.5946  -0.5658  -0.4690  -0.3049  -0.2400  -0.1473  -0.1135
     0.0398   0.2230   0.3022   0.4195   0.4538   0.6584   0.8966   0.9636
     1.0479   1.0758   1.2991   1.3944   1.4484   1.4541   1.6809   1.7328
     1.7720   1.8908   2.0292   2.2117   2.4700   2.6197   2.6839   2.7431
     2.8219   2.9642

          k = 0.0298-0.0762 0.0000 ( 35428 PWs)   bands (ev):

   -59.5183 -59.4472 -59.3564 -59.2862 -59.2628 -59.1925 -48.3659 -48.2683
   -48.2468 -48.1484 -47.7639 -47.6647 -33.9995 -33.9179 -33.8375 -33.6694
   -33.6018 -33.5090 -33.4351 -33.4340 -33.3639 -33.3578 -33.2867 -33.2862
   -33.2143 -33.2029 -33.0459 -33.0016 -32.9772 -32.9426 -27.2991 -27.2297
   -27.0707 -26.9820 -26.9655 -26.8784 -26.8771 -26.7922 -26.7705 -26.7537
   -26.6658 -26.6142 -26.5413 -26.3392 -26.2822 -26.2622 -26.1956 -26.0799
    -2.7837  -2.0476  -1.8603  -1.5102  -1.2795  -1.1923  -1.0314  -0.9153
    -0.9038  -0.5945  -0.5309  -0.4951  -0.3580  -0.2545  -0.1908  -0.0695
    -0.0107   0.2230   0.3571   0.4540   0.4762   0.6990   0.7575   1.0543
     1.1199   1.1776   1.3307   1.3681   1.4628   1.6298   1.6695   1.7662
     1.7808   1.9558   2.0659   2.2965   2.4102   2.6141   2.6273   2.7631
     2.8757   2.9663

          k = 0.0298-0.0610 0.0000 ( 35430 PWs)   bands (ev):

   -59.5183 -59.4472 -59.3565 -59.2862 -59.2629 -59.1925 -48.3658 -48.2683
   -48.2467 -48.1484 -47.7638 -47.6647 -34.0002 -33.9181 -33.8380 -33.6696
   -33.6020 -33.5101 -33.4356 -33.4341 -33.3639 -33.3586 -33.2874 -33.2863
   -33.2142 -33.2029 -33.0459 -33.0016 -32.9772 -32.9426 -27.2983 -27.2286
   -27.0701 -26.9819 -26.9652 -26.8770 -26.8762 -26.7915 -26.7696 -26.7514
   -26.6650 -26.6142 -26.5412 -26.3392 -26.2804 -26.2622 -26.1950 -26.0799
    -3.0723  -1.9536  -1.9199  -1.6089  -1.3272  -1.2940  -1.1559  -0.9714
    -0.9708  -0.6330  -0.5854  -0.5814  -0.4470  -0.3856  -0.1834  -0.0163
     0.0017   0.2303   0.3649   0.4486   0.5918   0.5994   0.9260   1.1349
     1.2783   1.4019   1.4219   1.4909   1.5309   1.6739   1.7316   1.8174
     1.8963   2.1280   2.2128   2.3100   2.4779   2.5941   2.6191   2.7839
     2.9499   2.9624

          k = 0.0298-0.0457 0.0000 ( 35415 PWs)   bands (ev):

   -59.5183 -59.4471 -59.3564 -59.2862 -59.2629 -59.1925 -48.3658 -48.2683
   -48.2466 -48.1484 -47.7637 -47.6647 -34.0010 -33.9183 -33.8387 -33.6699
   -33.6023 -33.5116 -33.4363 -33.4342 -33.3639 -33.3596 -33.2883 -33.2864
   -33.2140 -33.2029 -33.0458 -33.0017 -32.9772 -32.9426 -27.2971 -27.2272
   -27.0693 -26.9816 -26.9648 -26.8768 -26.8731 -26.7905 -26.7684 -26.7482
   -26.6640 -26.6142 -26.5412 -26.3392 -26.2778 -26.2623 -26.1941 -26.0798
    -3.3335  -2.0856  -1.9947  -1.5619  -1.4787  -1.4054  -1.2077  -1.0609
    -1.0132  -0.7441  -0.7094  -0.6758  -0.5560  -0.4544  -0.2921  -0.0068
     0.1470   0.1649   0.2831   0.4910   0.6290   0.7958   1.0877   1.2407
     1.4429   1.4915   1.6015   1.6061   1.7163   1.7537   1.8772   1.8838
     2.1011   2.1557   2.2573   2.4737   2.5807   2.6554   2.7768   2.7817
     2.9493   3.0605

          k = 0.0298-0.0305 0.0000 ( 35411 PWs)   bands (ev):

   -59.5183 -59.4471 -59.3564 -59.2862 -59.2628 -59.1925 -48.3657 -48.2683
   -48.2466 -48.1484 -47.7637 -47.6647 -34.0018 -33.9185 -33.8394 -33.6703
   -33.6026 -33.5130 -33.4370 -33.4343 -33.3640 -33.3607 -33.2893 -33.2865
   -33.2139 -33.2029 -33.0458 -33.0017 -32.9771 -32.9425 -27.2960 -27.2258
   -27.0684 -26.9814 -26.9644 -26.8767 -26.8701 -26.7896 -26.7672 -26.7450
   -26.6630 -26.6142 -26.5412 -26.3393 -26.2751 -26.2624 -26.1932 -26.0798
    -3.5348  -2.2461  -2.0635  -1.6488  -1.5065  -1.4976  -1.2116  -1.1461
    -1.0532  -0.8614  -0.8278  -0.7563  -0.6493  -0.5551  -0.2993  -0.1600
     0.1460   0.2161   0.3847   0.4843   0.6127   1.0402   1.2572   1.3220
     1.4498   1.5977   1.7007   1.7128   1.8460   1.9556   2.0183   2.1169
     2.1405   2.2857   2.2925   2.5613   2.6117   2.7267   2.8335   2.9144
     2.9819   3.0037

          k = 0.0298-0.0152 0.0000 ( 35421 PWs)   bands (ev):

   -59.5183 -59.4471 -59.3564 -59.2863 -59.2629 -59.1925 -48.3656 -48.2682
   -48.2465 -48.1484 -47.7636 -47.6647 -34.0025 -33.9186 -33.8399 -33.6705
   -33.6028 -33.5140 -33.4376 -33.4345 -33.3640 -33.3614 -33.2900 -33.2867
   -33.2139 -33.2029 -33.0458 -33.0017 -32.9771 -32.9425 -27.2951 -27.2247
   -27.0678 -26.9812 -26.9642 -26.8766 -26.8679 -26.7889 -26.7663 -26.7426
   -26.6622 -26.6141 -26.5412 -26.3394 -26.2731 -26.2625 -26.1926 -26.0798
    -3.6606  -2.3555  -2.1106  -1.7495  -1.5566  -1.5045  -1.2062  -1.1949
    -1.0846  -0.9421  -0.9074  -0.8119  -0.7007  -0.6371  -0.3110  -0.2723
     0.1814   0.2599   0.3913   0.5198   0.5659   1.2050   1.3722   1.4156
     1.4738   1.6847   1.7252   1.7567   1.8839   2.1068   2.1517   2.2080
     2.3201   2.3324   2.4326   2.5938   2.6022   2.7531   2.7731   2.8437
     2.9776   3.0706

          k = 0.0298 0.0000 0.0000 ( 35415 PWs)   bands (ev):

   -59.5183 -59.4471 -59.3564 -59.2862 -59.2629 -59.1925 -48.3656 -48.2682
   -48.2465 -48.1484 -47.7636 -47.6647 -34.0027 -33.9187 -33.8401 -33.6706
   -33.6029 -33.5144 -33.4378 -33.4345 -33.3640 -33.3617 -33.2902 -33.2867
   -33.2138 -33.2029 -33.0458 -33.0017 -32.9771 -32.9425 -27.2948 -27.2244
   -27.0676 -26.9812 -26.9641 -26.8765 -26.8671 -26.7887 -26.7660 -26.7418
   -26.6619 -26.6141 -26.5411 -26.3394 -26.2724 -26.2625 -26.1923 -26.0798
    -3.7033  -2.3935  -2.1272  -1.7847  -1.5767  -1.5073  -1.2279  -1.1844
    -1.0979  -0.9704  -0.9350  -0.8320  -0.7140  -0.6682  -0.3577  -0.2707
     0.2004   0.2864   0.3657   0.5402   0.5453   1.2575   1.3895   1.4124
     1.6093   1.6558   1.7537   1.7776   1.8723   2.1099   2.1833   2.3348
     2.3585   2.3818   2.5573   2.5671   2.6135   2.6421   2.7895   2.8100
     2.9755   3.0739

          k = 0.0447 0.0229 0.0000 ( 35412 PWs)   bands (ev):

   -59.5118 -59.4537 -59.3500 -59.2927 -59.2565 -59.1990 -48.3568 -48.2773
   -48.2376 -48.1575 -47.7546 -47.6739 -33.9945 -33.9261 -33.7832 -33.6149
   -33.5473 -33.5064 -33.4440 -33.4281 -33.3704 -33.3543 -33.2932 -33.2828
   -33.2630 -33.2206 -33.1050 -33.0369 -32.9960 -32.9479 -27.2352 -27.1647
   -27.0602 -26.9895 -26.9564 -26.8848 -26.8618 -26.7972 -26.7365 -26.7061
   -26.6794 -26.6708 -26.6067 -26.3322 -26.2695 -26.2668 -26.2010 -26.1456
    -3.3987  -2.1118  -1.9418  -1.5757  -1.5124  -1.3107  -1.2186  -1.0051
    -0.9289  -0.8772  -0.8200  -0.5719  -0.5586  -0.4869  -0.2116  -0.1431
     0.1487   0.2600   0.4818   0.5162   0.5930   1.0196   1.2133   1.2840
     1.2961   1.4967   1.7448   1.7598   1.8097   1.9043   1.9312   2.0840
     2.1418   2.2071   2.3491   2.4129   2.6030   2.6386   2.7615   2.7810
     2.9588   2.9679

          k = 0.0447 0.0381 0.0000 ( 35393 PWs)   bands (ev):

   -59.5118 -59.4537 -59.3500 -59.2927 -59.2564 -59.1990 -48.3569 -48.2773
   -48.2377 -48.1575 -47.7547 -47.6739 -33.9939 -33.9260 -33.7826 -33.6147
   -33.5470 -33.5053 -33.4435 -33.4279 -33.3704 -33.3534 -33.2932 -33.2820
   -33.2631 -33.2208 -33.1050 -33.0369 -32.9959 -32.9480 -27.2362 -27.1659
   -27.0609 -26.9896 -26.9566 -26.8850 -26.8642 -26.7977 -26.7390 -26.7071
   -26.6793 -26.6714 -26.6066 -26.3322 -26.2695 -26.2689 -26.2015 -26.1455
    -3.2385  -1.9757  -1.8852  -1.5077  -1.4718  -1.3176  -1.1146  -1.0109
    -0.9019  -0.7917  -0.7299  -0.5122  -0.4920  -0.3743  -0.1923  -0.0387
     0.1309   0.2270   0.3861   0.4930   0.6355   0.8590   1.0553   1.2213
     1.3088   1.3914   1.6126   1.6574   1.6901   1.7497   1.8439   1.8540
     2.0951   2.1311   2.3007   2.3513   2.5611   2.6644   2.7401   2.7604
     2.8796   3.0159

          k = 0.0447 0.0534 0.0000 ( 35389 PWs)   bands (ev):

   -59.5118 -59.4537 -59.3500 -59.2927 -59.2564 -59.1990 -48.3569 -48.2773
   -48.2378 -48.1575 -47.7548 -47.6739 -33.9931 -33.9259 -33.7819 -33.6143
   -33.5467 -33.5040 -33.4430 -33.4278 -33.3704 -33.3525 -33.2931 -33.2811
   -33.2631 -33.2210 -33.1051 -33.0370 -32.9959 -32.9480 -27.2372 -27.1672
   -27.0616 -26.9898 -26.9570 -26.8851 -26.8669 -26.7983 -26.7420 -26.7082
   -26.6792 -26.6720 -26.6065 -26.3321 -26.2713 -26.2694 -26.2021 -26.1454
    -3.0100  -1.8119  -1.8077  -1.4819  -1.4473  -1.2605  -1.0050  -0.9958
    -0.8632  -0.6908  -0.6013  -0.4439  -0.4082  -0.2683  -0.1457  -0.0020
     0.1265   0.2590   0.3083   0.4409   0.6343   0.6515   0.8959   1.1417
     1.2153   1.3584   1.4481   1.4916   1.5453   1.5542   1.6822   1.7937
     1.9648   2.1644   2.2124   2.2647   2.4497   2.5687   2.5919   2.8081
     2.9527   2.9568

          k = 0.0447 0.0686 0.0000 ( 35437 PWs)   bands (ev):

   -59.5118 -59.4538 -59.3500 -59.2927 -59.2565 -59.1990 -48.3570 -48.2773
   -48.2379 -48.1575 -47.7549 -47.6739 -33.9924 -33.9258 -33.7814 -33.6141
   -33.5465 -33.5029 -33.4425 -33.4277 -33.3704 -33.3516 -33.2931 -33.2803
   -33.2632 -33.2212 -33.1051 -33.0370 -32.9958 -32.9480 -27.2382 -27.1684
   -27.0623 -26.9899 -26.9573 -26.8852 -26.8693 -26.7989 -26.7445 -26.7091
   -26.6791 -26.6727 -26.6064 -26.3322 -26.2734 -26.2693 -26.2026 -26.1454
    -2.7323  -1.7756  -1.7397  -1.4468  -1.4369  -1.1380  -0.9516  -0.9098
    -0.8174  -0.6065  -0.4765  -0.3866  -0.3299  -0.2217  -0.0573  -0.0292
     0.0434   0.2661   0.3479   0.4463   0.5196   0.5982   0.7365   1.0548
     1.0825   1.2171   1.2226   1.3871   1.4105   1.5275   1.6281   1.7467
     1.8359   1.9997   2.1570   2.2717   2.3215   2.5190   2.6539   2.7864
     2.8684   2.9753

          k = 0.0447 0.0838 0.0000 ( 35431 PWs)   bands (ev):

   -59.5118 -59.4538 -59.3500 -59.2928 -59.2564 -59.1990 -48.3570 -48.2773
   -48.2379 -48.1575 -47.7549 -47.6739 -33.9920 -33.9258 -33.7810 -33.6139
   -33.5463 -33.5023 -33.4423 -33.4277 -33.3704 -33.3511 -33.2931 -33.2799
   -33.2632 -33.2213 -33.1051 -33.0370 -32.9958 -32.9480 -27.2387 -27.1690
   -27.0626 -26.9900 -26.9575 -26.8852 -26.8707 -26.7993 -26.7459 -26.7097
   -26.6791 -26.6730 -26.6064 -26.3322 -26.2745 -26.2693 -26.2029 -26.1453
    -2.4575  -1.9696  -1.6931  -1.4215  -1.2804  -1.1270  -0.8821  -0.8537
    -0.7602  -0.5546  -0.4625  -0.3496  -0.2807  -0.1670  -0.1000  -0.0705
     0.1644   0.1879   0.2888   0.4705   0.5062   0.6260   0.6765   0.9372
     0.9394   1.0941   1.1310   1.3467   1.3841   1.5285   1.5522   1.7266
     1.7412   1.9231   2.1141   2.1233   2.4218   2.6011   2.6479   2.7562
     2.8185   2.9538

          k = 0.0447 0.0991 0.0000 ( 35431 PWs)   bands (ev):

   -59.5118 -59.4538 -59.3500 -59.2928 -59.2564 -59.1990 -48.3570 -48.2773
   -48.2379 -48.1575 -47.7549 -47.6739 -33.9920 -33.9258 -33.7810 -33.6139
   -33.5463 -33.5023 -33.4423 -33.4277 -33.3704 -33.3511 -33.2931 -33.2799
   -33.2632 -33.2213 -33.1051 -33.0370 -32.9958 -32.9480 -27.2387 -27.1690
   -27.0626 -26.9900 -26.9575 -26.8852 -26.8707 -26.7993 -26.7459 -26.7097
   -26.6791 -26.6730 -26.6064 -26.3322 -26.2745 -26.2693 -26.2029 -26.1453
    -2.4575  -1.9696  -1.6931  -1.4215  -1.2804  -1.1270  -0.8821  -0.8537
    -0.7602  -0.5546  -0.4625  -0.3496  -0.2807  -0.1670  -0.1000  -0.0705
     0.1644   0.1879   0.2888   0.4705   0.5062   0.6260   0.6765   0.9372
     0.9394   1.0941   1.1310   1.3467   1.3841   1.5285   1.5522   1.7266
     1.7412   1.9231   2.1141   2.1233   2.4218   2.6012   2.6480   2.7562
     2.8188   2.9544

          k = 0.0447-0.0686 0.0000 ( 35437 PWs)   bands (ev):

   -59.5118 -59.4538 -59.3500 -59.2927 -59.2565 -59.1990 -48.3570 -48.2773
   -48.2379 -48.1575 -47.7549 -47.6739 -33.9924 -33.9258 -33.7814 -33.6141
   -33.5465 -33.5029 -33.4425 -33.4277 -33.3704 -33.3516 -33.2931 -33.2803
   -33.2632 -33.2212 -33.1051 -33.0370 -32.9958 -32.9480 -27.2382 -27.1684
   -27.0623 -26.9899 -26.9573 -26.8852 -26.8693 -26.7989 -26.7445 -26.7091
   -26.6791 -26.6727 -26.6064 -26.3322 -26.2734 -26.2693 -26.2026 -26.1454
    -2.7323  -1.7756  -1.7397  -1.4468  -1.4369  -1.1380  -0.9516  -0.9098
    -0.8174  -0.6065  -0.4765  -0.3866  -0.3299  -0.2217  -0.0573  -0.0292
     0.0434   0.2661   0.3479   0.4463   0.5196   0.5982   0.7365   1.0548
     1.0825   1.2171   1.2226   1.3871   1.4105   1.5275   1.6281   1.7467
     1.8359   1.9997   2.1569   2.2717   2.3216   2.5188   2.6539   2.7868
     2.8689   2.9780

          k = 0.0447-0.0534 0.0000 ( 35389 PWs)   bands (ev):

   -59.5118 -59.4537 -59.3500 -59.2927 -59.2564 -59.1990 -48.3569 -48.2773
   -48.2378 -48.1575 -47.7548 -47.6739 -33.9931 -33.9259 -33.7819 -33.6143
   -33.5467 -33.5040 -33.4430 -33.4278 -33.3704 -33.3525 -33.2931 -33.2811
   -33.2631 -33.2210 -33.1051 -33.0370 -32.9959 -32.9480 -27.2372 -27.1672
   -27.0616 -26.9898 -26.9570 -26.8851 -26.8669 -26.7983 -26.7420 -26.7082
   -26.6792 -26.6720 -26.6065 -26.3321 -26.2713 -26.2694 -26.2021 -26.1454
    -3.0100  -1.8119  -1.8077  -1.4819  -1.4473  -1.2605  -1.0050  -0.9958
    -0.8632  -0.6908  -0.6013  -0.4439  -0.4082  -0.2683  -0.1457  -0.0020
     0.1265   0.2590   0.3083   0.4409   0.6343   0.6515   0.8959   1.1417
     1.2153   1.3584   1.4481   1.4916   1.5453   1.5542   1.6822   1.7937
     1.9648   2.1644   2.2125   2.2647   2.4498   2.5686   2.5918   2.8078
     2.9518   2.9599

          k = 0.0447-0.0381 0.0000 ( 35393 PWs)   bands (ev):

   -59.5118 -59.4537 -59.3500 -59.2927 -59.2564 -59.1990 -48.3569 -48.2773
   -48.2377 -48.1575 -47.7547 -47.6739 -33.9939 -33.9260 -33.7826 -33.6147
   -33.5470 -33.5053 -33.4435 -33.4279 -33.3704 -33.3534 -33.2932 -33.2820
   -33.2631 -33.2208 -33.1050 -33.0369 -32.9959 -32.9480 -27.2362 -27.1659
   -27.0609 -26.9896 -26.9566 -26.8850 -26.8642 -26.7977 -26.7390 -26.7071
   -26.6793 -26.6714 -26.6066 -26.3322 -26.2695 -26.2689 -26.2015 -26.1455
    -3.2385  -1.9757  -1.8852  -1.5077  -1.4718  -1.3176  -1.1146  -1.0109
    -0.9019  -0.7917  -0.7299  -0.5122  -0.4920  -0.3743  -0.1923  -0.0387
     0.1309   0.2270   0.3861   0.4930   0.6355   0.8590   1.0553   1.2213
     1.3088   1.3914   1.6126   1.6574   1.6901   1.7497   1.8439   1.8540
     2.0951   2.1311   2.3006   2.3513   2.5610   2.6641   2.7401   2.7602
     2.8754   3.0139

          k = 0.0447-0.0229 0.0000 ( 35412 PWs)   bands (ev):

   -59.5118 -59.4537 -59.3500 -59.2927 -59.2565 -59.1990 -48.3568 -48.2773
   -48.2376 -48.1575 -47.7546 -47.6739 -33.9945 -33.9261 -33.7832 -33.6149
   -33.5473 -33.5064 -33.4440 -33.4281 -33.3704 -33.3543 -33.2932 -33.2828
   -33.2630 -33.2206 -33.1050 -33.0369 -32.9959 -32.9479 -27.2352 -27.1647
   -27.0602 -26.9895 -26.9564 -26.8848 -26.8618 -26.7972 -26.7365 -26.7061
   -26.6794 -26.6708 -26.6067 -26.3322 -26.2695 -26.2668 -26.2010 -26.1456
    -3.3987  -2.1118  -1.9418  -1.5757  -1.5124  -1.3107  -1.2186  -1.0051
    -0.9289  -0.8772  -0.8200  -0.5719  -0.5586  -0.4869  -0.2116  -0.1431
     0.1487   0.2600   0.4818   0.5162   0.5930   1.0196   1.2133   1.2840
     1.2961   1.4967   1.7448   1.7598   1.8097   1.9043   1.9312   2.0840
     2.1418   2.2072   2.3491   2.4129   2.6031   2.6386   2.7618   2.7812
     2.9590   2.9664

          k = 0.0447-0.0076 0.0000 ( 35431 PWs)   bands (ev):

   -59.5119 -59.4537 -59.3501 -59.2928 -59.2565 -59.1991 -48.3568 -48.2773
   -48.2376 -48.1575 -47.7546 -47.6739 -33.9949 -33.9261 -33.7835 -33.6151
   -33.5474 -33.5071 -33.4442 -33.4281 -33.3704 -33.3548 -33.2932 -33.2832
   -33.2630 -33.2205 -33.1049 -33.0368 -32.9960 -32.9479 -27.2347 -27.1641
   -27.0598 -26.9894 -26.9562 -26.8848 -26.8604 -26.7969 -26.7351 -26.7056
   -26.6794 -26.6705 -26.6068 -26.3323 -26.2696 -26.2655 -26.2007 -26.1457
    -3.4810  -2.1843  -1.9720  -1.6364  -1.5008  -1.3148  -1.2910  -0.9971
    -0.9405  -0.9254  -0.8633  -0.5997  -0.5965  -0.5527  -0.2826  -0.1525
     0.1847   0.2715   0.5210   0.5412   0.5467   1.0749   1.2658   1.3186
     1.3682   1.5543   1.7908   1.8311   1.8900   1.9442   2.0810   2.1585
     2.2008   2.2735   2.3852   2.5152   2.5169   2.6144   2.6924   2.7944
     2.9113   2.9783

          k = 0.0447 0.0076 0.0000 ( 35431 PWs)   bands (ev):

   -59.5119 -59.4537 -59.3501 -59.2928 -59.2565 -59.1991 -48.3568 -48.2773
   -48.2376 -48.1575 -47.7546 -47.6739 -33.9949 -33.9261 -33.7835 -33.6151
   -33.5474 -33.5071 -33.4442 -33.4281 -33.3704 -33.3548 -33.2932 -33.2832
   -33.2630 -33.2205 -33.1049 -33.0368 -32.9960 -32.9479 -27.2347 -27.1641
   -27.0598 -26.9894 -26.9562 -26.8848 -26.8604 -26.7969 -26.7351 -26.7056
   -26.6794 -26.6705 -26.6068 -26.3323 -26.2696 -26.2655 -26.2007 -26.1457
    -3.4810  -2.1843  -1.9720  -1.6364  -1.5008  -1.3148  -1.2910  -0.9971
    -0.9405  -0.9254  -0.8633  -0.5997  -0.5965  -0.5527  -0.2826  -0.1525
     0.1847   0.2715   0.5210   0.5412   0.5467   1.0749   1.2658   1.3186
     1.3682   1.5543   1.7908   1.8311   1.8900   1.9442   2.0811   2.1585
     2.2008   2.2735   2.3853   2.5154   2.5169   2.6144   2.6927   2.7944
     2.9113   2.9782

          k = 0.0596 0.0305 0.0000 ( 35382 PWs)   bands (ev):

   -59.5033 -59.4622 -59.3417 -59.3011 -59.2481 -59.2075 -48.3453 -48.2891
   -48.2260 -48.1694 -47.7429 -47.6858 -33.9843 -33.9359 -33.7088 -33.5420
   -33.4967 -33.4744 -33.4525 -33.4199 -33.3787 -33.3452 -33.3405 -33.3018
   -33.2735 -33.2295 -33.1815 -33.1135 -32.9890 -32.9550 -27.1565 -27.0857
   -27.0502 -27.0002 -26.9461 -26.8955 -26.8535 -26.8078 -26.7635 -26.7282
   -26.6911 -26.6818 -26.6267 -26.3230 -26.2787 -26.2583 -26.2304 -26.2117
    -3.0585  -1.8138  -1.7639  -1.5824  -1.3790  -1.1341  -1.1124  -0.8214
    -0.7990  -0.7720  -0.6659  -0.4012  -0.3042  -0.2895  -0.0902   0.0194
     0.1413   0.2138   0.4155   0.6121   0.6193   0.8512   0.9995   1.1518
     1.1716   1.3040   1.4354   1.5333   1.6595   1.7070   1.8026   1.9424
     2.0334   2.1359   2.2320   2.4039   2.4814   2.5089   2.6847   2.7089
     2.8277   2.9095

          k = 0.0596 0.0457 0.0000 ( 35393 PWs)   bands (ev):

   -59.5033 -59.4623 -59.3417 -59.3011 -59.2481 -59.2074 -48.3454 -48.2891
   -48.2261 -48.1693 -47.7430 -47.6858 -33.9837 -33.9359 -33.7082 -33.5418
   -33.4957 -33.4741 -33.4523 -33.4198 -33.3787 -33.3444 -33.3407 -33.3020
   -33.2727 -33.2298 -33.1816 -33.1136 -32.9890 -32.9551 -27.1573 -27.0868
   -27.0508 -27.0002 -26.9464 -26.8956 -26.8557 -26.8079 -26.7632 -26.7306
   -26.6908 -26.6819 -26.6276 -26.3230 -26.2787 -26.2602 -26.2301 -26.2118
    -2.8732  -1.7610  -1.6675  -1.5874  -1.3051  -1.1180  -1.0209  -0.8080
    -0.7554  -0.6857  -0.6478  -0.3430  -0.2385  -0.1748  -0.0697   0.0414
     0.2230   0.2268   0.3094   0.5168   0.6542   0.6850   0.9200   1.0650
     1.1138   1.2381   1.3507   1.3936   1.5508   1.5709   1.6681   1.8541
     1.9674   2.1103   2.1146   2.3188   2.4169   2.4908   2.5640   2.8215
     2.8762   2.9439

          k = 0.0596 0.0610 0.0000 ( 35394 PWs)   bands (ev):

   -59.5034 -59.4622 -59.3417 -59.3011 -59.2481 -59.2074 -48.3454 -48.2891
   -48.2262 -48.1693 -47.7431 -47.6858 -33.9830 -33.9360 -33.7076 -33.5415
   -33.4947 -33.4739 -33.4520 -33.4198 -33.3787 -33.3435 -33.3408 -33.3021
   -33.2719 -33.2301 -33.1817 -33.1137 -32.9890 -32.9551 -27.1582 -27.0879
   -27.0514 -27.0002 -26.9467 -26.8956 -26.8579 -26.8081 -26.7630 -26.7328
   -26.6906 -26.6820 -26.6286 -26.3230 -26.2786 -26.2621 -26.2299 -26.2119
    -2.6290  -1.7683  -1.5459  -1.5356  -1.3171  -1.0600  -0.9405  -0.8095
    -0.6867  -0.6145  -0.5830  -0.2954  -0.1882  -0.0859  -0.0289   0.0846
     0.1648   0.2425   0.3764   0.4220   0.5584   0.6578   0.7385   0.9822
     1.0676   1.0861   1.2122   1.3596   1.4259   1.4607   1.5669   1.7693
     1.8904   1.9879   2.1460   2.1718   2.4440   2.4547   2.5877   2.8025
     2.8152   3.1126

          k = 0.0596 0.0762 0.0000 ( 35398 PWs)   bands (ev):

   -59.5033 -59.4623 -59.3417 -59.3011 -59.2481 -59.2074 -48.3455 -48.2890
   -48.2262 -48.1693 -47.7431 -47.6858 -33.9826 -33.9360 -33.7072 -33.5413
   -33.4940 -33.4737 -33.4518 -33.4197 -33.3788 -33.3429 -33.3410 -33.3022
   -33.2714 -33.2303 -33.1818 -33.1137 -32.9889 -32.9551 -27.1589 -27.0887
   -27.0518 -27.0003 -26.9469 -26.8957 -26.8595 -26.8082 -26.7629 -26.7344
   -26.6905 -26.6821 -26.6292 -26.3230 -26.2785 -26.2634 -26.2298 -26.2121
    -2.3498  -1.7730  -1.6631  -1.4974  -1.2060  -0.9782  -0.8952  -0.8112
    -0.6334  -0.5827  -0.5087  -0.2572  -0.1415  -0.0644  -0.0276   0.0349
     0.2339   0.2518   0.3476   0.5001   0.5078   0.5738   0.6332   0.9125
     0.9578   0.9734   1.0915   1.2782   1.3724   1.4176   1.5194   1.7419
     1.7552   1.9426   2.0625   2.1916   2.4666   2.4971   2.6977   2.7254
     2.7578   3.0607

          k = 0.0596 0.0915 0.0000 ( 35398 PWs)   bands (ev):

   -59.5033 -59.4623 -59.3417 -59.3011 -59.2481 -59.2074 -48.3455 -48.2890
   -48.2262 -48.1693 -47.7431 -47.6858 -33.9824 -33.9360 -33.7071 -33.5412
   -33.4937 -33.4736 -33.4518 -33.4197 -33.3788 -33.3427 -33.3410 -33.3022
   -33.2712 -33.2304 -33.1818 -33.1138 -32.9889 -32.9551 -27.1591 -27.0890
   -27.0520 -27.0003 -26.9469 -26.8957 -26.8600 -26.8082 -26.7628 -26.7350
   -26.6904 -26.6821 -26.6295 -26.3231 -26.2785 -26.2639 -26.2298 -26.2121
    -2.1527  -1.8367  -1.7741  -1.4761  -1.0967  -0.9748  -0.8824  -0.8090
    -0.6109  -0.5695  -0.4872  -0.2324  -0.1408  -0.0679  -0.0262   0.0203
     0.1897   0.3207   0.3401   0.4987   0.5226   0.5667   0.6661   0.7864
     0.8713   0.9153   1.1288   1.2441   1.3063   1.4154   1.5830   1.6311
     1.7421   1.9505   1.9991   2.2126   2.5336   2.5719   2.6103   2.6769
     2.8429   2.9904

          k = 0.0596 0.1067 0.0000 ( 35398 PWs)   bands (ev):

   -59.5033 -59.4623 -59.3417 -59.3011 -59.2481 -59.2074 -48.3455 -48.2890
   -48.2262 -48.1693 -47.7431 -47.6858 -33.9826 -33.9360 -33.7072 -33.5413
   -33.4940 -33.4737 -33.4518 -33.4197 -33.3788 -33.3429 -33.3410 -33.3022
   -33.2714 -33.2303 -33.1818 -33.1137 -32.9889 -32.9551 -27.1589 -27.0887
   -27.0518 -27.0003 -26.9469 -26.8957 -26.8595 -26.8082 -26.7629 -26.7344
   -26.6905 -26.6821 -26.6292 -26.3230 -26.2785 -26.2634 -26.2298 -26.2121
    -2.3498  -1.7730  -1.6631  -1.4974  -1.2060  -0.9782  -0.8952  -0.8112
    -0.6334  -0.5827  -0.5087  -0.2572  -0.1415  -0.0644  -0.0276   0.0349
     0.2339   0.2518   0.3476   0.5001   0.5078   0.5738   0.6332   0.9125
     0.9578   0.9734   1.0915   1.2782   1.3724   1.4176   1.5194   1.7419
     1.7552   1.9425   2.0625   2.1916   2.4665   2.4971   2.6974   2.7252
     2.7564   3.0517

          k = 0.0596-0.0610 0.0000 ( 35394 PWs)   bands (ev):

   -59.5034 -59.4622 -59.3417 -59.3011 -59.2481 -59.2074 -48.3454 -48.2891
   -48.2262 -48.1693 -47.7431 -47.6858 -33.9830 -33.9360 -33.7076 -33.5415
   -33.4947 -33.4739 -33.4520 -33.4198 -33.3787 -33.3435 -33.3408 -33.3021
   -33.2719 -33.2301 -33.1817 -33.1137 -32.9890 -32.9551 -27.1582 -27.0879
   -27.0514 -27.0002 -26.9467 -26.8956 -26.8579 -26.8081 -26.7630 -26.7328
   -26.6906 -26.6820 -26.6286 -26.3230 -26.2786 -26.2621 -26.2299 -26.2119
    -2.6290  -1.7683  -1.5459  -1.5356  -1.3171  -1.0600  -0.9405  -0.8095
    -0.6867  -0.6145  -0.5830  -0.2954  -0.1882  -0.0859  -0.0289   0.0846
     0.1648   0.2425   0.3764   0.4220   0.5584   0.6578   0.7385   0.9822
     1.0676   1.0861   1.2122   1.3596   1.4259   1.4607   1.5669   1.7693
     1.8904   1.9879   2.1459   2.1717   2.4437   2.4546   2.5872   2.8025
     2.8150   3.1135

          k = 0.0596-0.0457 0.0000 ( 35393 PWs)   bands (ev):

   -59.5033 -59.4623 -59.3417 -59.3011 -59.2481 -59.2074 -48.3454 -48.2891
   -48.2261 -48.1693 -47.7430 -47.6858 -33.9837 -33.9359 -33.7082 -33.5418
   -33.4957 -33.4741 -33.4523 -33.4198 -33.3787 -33.3444 -33.3407 -33.3020
   -33.2727 -33.2298 -33.1816 -33.1136 -32.9890 -32.9551 -27.1573 -27.0868
   -27.0508 -27.0002 -26.9464 -26.8956 -26.8557 -26.8079 -26.7632 -26.7306
   -26.6908 -26.6819 -26.6276 -26.3230 -26.2787 -26.2602 -26.2301 -26.2118
    -2.8732  -1.7610  -1.6675  -1.5874  -1.3051  -1.1180  -1.0209  -0.8080
    -0.7554  -0.6857  -0.6478  -0.3430  -0.2385  -0.1748  -0.0697   0.0414
     0.2230   0.2268   0.3094   0.5168   0.6542   0.6850   0.9200   1.0650
     1.1138   1.2381   1.3507   1.3936   1.5508   1.5709   1.6681   1.8541
     1.9674   2.1104   2.1146   2.3188   2.4168   2.4906   2.5642   2.8211
     2.8767   2.9428

          k = 0.0596-0.0305 0.0000 ( 35382 PWs)   bands (ev):

   -59.5033 -59.4622 -59.3417 -59.3011 -59.2481 -59.2075 -48.3453 -48.2891
   -48.2260 -48.1694 -47.7429 -47.6858 -33.9843 -33.9359 -33.7088 -33.5420
   -33.4967 -33.4744 -33.4525 -33.4199 -33.3787 -33.3452 -33.3405 -33.3018
   -33.2735 -33.2295 -33.1815 -33.1135 -32.9890 -32.9550 -27.1565 -27.0857
   -27.0502 -27.0002 -26.9461 -26.8955 -26.8535 -26.8078 -26.7635 -26.7282
   -26.6911 -26.6818 -26.6267 -26.3230 -26.2787 -26.2583 -26.2304 -26.2117
    -3.0585  -1.8138  -1.7639  -1.5824  -1.3790  -1.1341  -1.1124  -0.8214
    -0.7990  -0.7720  -0.6659  -0.4012  -0.3042  -0.2895  -0.0902   0.0194
     0.1413   0.2138   0.4155   0.6121   0.6193   0.8512   0.9995   1.1518
     1.1716   1.3040   1.4354   1.5333   1.6595   1.7070   1.8026   1.9424
     2.0334   2.1358   2.2320   2.4039   2.4812   2.5088   2.6851   2.7092
     2.8273   2.9109

          k = 0.0596-0.0152 0.0000 ( 35379 PWs)   bands (ev):

   -59.5033 -59.4622 -59.3416 -59.3012 -59.2480 -59.2075 -48.3452 -48.2891
   -48.2260 -48.1694 -47.7429 -47.6858 -33.9847 -33.9359 -33.7092 -33.5422
   -33.4974 -33.4746 -33.4527 -33.4200 -33.3787 -33.3458 -33.3404 -33.3018
   -33.2740 -33.2293 -33.1814 -33.1134 -32.9890 -32.9550 -27.1558 -27.0849
   -27.0498 -27.0001 -26.9459 -26.8955 -26.8519 -26.8077 -26.7637 -26.7265
   -26.6914 -26.6817 -26.6260 -26.3231 -26.2788 -26.2568 -26.2306 -26.2116
    -3.1734  -1.9099  -1.7773  -1.5170  -1.4462  -1.2697  -1.1164  -0.8714
    -0.8128  -0.7931  -0.6645  -0.4532  -0.3884  -0.3328  -0.1480  -0.0193
     0.1698   0.2076   0.4942   0.5680   0.6973   0.9165   1.0293   1.1979
     1.2114   1.3497   1.5580   1.6376   1.7267   1.8582   1.8875   1.9993
     2.0824   2.1765   2.3720   2.3893   2.5479   2.5970   2.6444   2.7039
     2.7262   2.9261

          k = 0.0596 0.0000 0.0000 ( 35401 PWs)   bands (ev):

   -59.5033 -59.4622 -59.3416 -59.3012 -59.2481 -59.2075 -48.3452 -48.2891
   -48.2259 -48.1694 -47.7429 -47.6859 -33.9849 -33.9359 -33.7094 -33.5423
   -33.4977 -33.4747 -33.4527 -33.4200 -33.3787 -33.3460 -33.3403 -33.3017
   -33.2743 -33.2293 -33.1814 -33.1134 -32.9891 -32.9550 -27.1556 -27.0846
   -27.0496 -27.0001 -26.9459 -26.8955 -26.8513 -26.8077 -26.7637 -26.7258
   -26.6915 -26.6817 -26.6257 -26.3231 -26.2788 -26.2562 -26.2308 -26.2116
    -3.2123  -1.9431  -1.7840  -1.4707  -1.4236  -1.3879  -1.1206  -0.8908
    -0.8211  -0.7925  -0.6599  -0.4750  -0.4168  -0.3504  -0.1831  -0.0235
     0.1908   0.2052   0.5248   0.5414   0.7468   0.8819   1.0714   1.2012
     1.2252   1.3810   1.6006   1.6807   1.7511   1.9146   1.9454   2.0004
     2.0934   2.2476   2.3266   2.4778   2.5162   2.5843   2.6485   2.7250
     2.7264   2.8953

          k = 0.0596 0.0152 0.0000 ( 35379 PWs)   bands (ev):

   -59.5033 -59.4622 -59.3416 -59.3012 -59.2480 -59.2075 -48.3452 -48.2891
   -48.2260 -48.1694 -47.7429 -47.6858 -33.9847 -33.9359 -33.7092 -33.5422
   -33.4974 -33.4746 -33.4527 -33.4200 -33.3787 -33.3458 -33.3404 -33.3018
   -33.2740 -33.2293 -33.1814 -33.1134 -32.9890 -32.9550 -27.1558 -27.0849
   -27.0498 -27.0001 -26.9459 -26.8955 -26.8519 -26.8077 -26.7637 -26.7265
   -26.6914 -26.6817 -26.6260 -26.3231 -26.2788 -26.2568 -26.2306 -26.2116
    -3.1734  -1.9099  -1.7773  -1.5170  -1.4462  -1.2697  -1.1164  -0.8714
    -0.8128  -0.7931  -0.6645  -0.4532  -0.3884  -0.3328  -0.1480  -0.0193
     0.1698   0.2076   0.4942   0.5680   0.6973   0.9165   1.0293   1.1979
[...]
    -0.6808  -0.6775  -0.3837  -0.1901  -0.1765  -0.0552   0.0645   0.1366
     0.1436   0.3739   0.4157   0.5408   0.6480   0.7047   0.7770   0.9390
     0.9912   1.0065   1.1032   1.3165   1.3278   1.4937   1.5867   1.8624
     1.8895   1.9131   2.0092   2.1162   2.4252   2.4329   2.6470   2.7458
     2.9093   3.0396

          k = 0.0744 0.0686 0.0000 ( 35382 PWs)   bands (ev):

   -59.4935 -59.4722 -59.3319 -59.3109 -59.2383 -59.2172 -48.3319 -48.3027
   -48.2126 -48.1831 -47.7294 -47.6996 -33.9715 -33.9477 -33.6205 -33.4843
   -33.4629 -33.4558 -33.4334 -33.4076 -33.3897 -33.3871 -33.3332 -33.3126
   -33.2701 -33.2615 -33.2408 -33.2022 -32.9808 -32.9633 -27.0650 -27.0392
   -27.0123 -26.9943 -26.9345 -26.9078 -26.8597 -26.8463 -26.8189 -26.7875
   -26.7211 -26.6930 -26.5346 -26.3276 -26.3122 -26.2893 -26.2505 -26.2230
    -2.2329  -2.1001  -1.4005  -1.3736  -1.1652  -0.9786  -0.9442  -0.7569
    -0.7341  -0.6179  -0.3499  -0.1676  -0.1325  -0.0170   0.0680   0.0990
     0.2378   0.3106   0.4287   0.5244   0.6183   0.6812   0.7546   0.8351
     0.9259   0.9608   1.0612   1.2772   1.3077   1.4087   1.4901   1.7891
     1.8001   1.8402   2.0702   2.2248   2.3676   2.5185   2.6624   2.7407
     2.8570   2.9822

          k = 0.0744 0.0838 0.0000 ( 35356 PWs)   bands (ev):

   -59.4934 -59.4722 -59.3319 -59.3109 -59.2383 -59.2172 -48.3319 -48.3027
   -48.2126 -48.1830 -47.7294 -47.6996 -33.9712 -33.9479 -33.6203 -33.4839
   -33.4630 -33.4557 -33.4336 -33.4075 -33.3897 -33.3870 -33.3328 -33.3127
   -33.2701 -33.2611 -33.2410 -33.2022 -32.9808 -32.9633 -27.0654 -27.0395
   -27.0122 -26.9948 -26.9346 -26.9078 -26.8593 -26.8473 -26.8187 -26.7872
   -26.7220 -26.6927 -26.5350 -26.3272 -26.3122 -26.2893 -26.2512 -26.2228
    -2.1349  -1.9793  -1.6007  -1.3449  -1.0618  -0.9700  -0.9079  -0.7851
    -0.7494  -0.5898  -0.3179  -0.1472  -0.0828  -0.0377   0.0281   0.0946
     0.2874   0.3423   0.3478   0.5864   0.5958   0.6570   0.7523   0.7746
     0.8492   0.9484   1.0491   1.2417   1.2807   1.3549   1.4510   1.7175
     1.7807   1.8059   2.1068   2.3164   2.4190   2.5820   2.6204   2.7371
     2.8209   2.8862

          k = 0.0744 0.0991 0.0000 ( 35356 PWs)   bands (ev):

   -59.4934 -59.4722 -59.3319 -59.3109 -59.2383 -59.2172 -48.3319 -48.3027
   -48.2126 -48.1830 -47.7294 -47.6996 -33.9712 -33.9479 -33.6203 -33.4839
   -33.4630 -33.4557 -33.4336 -33.4075 -33.3897 -33.3870 -33.3328 -33.3127
   -33.2701 -33.2611 -33.2410 -33.2022 -32.9808 -32.9633 -27.0654 -27.0395
   -27.0122 -26.9948 -26.9346 -26.9078 -26.8593 -26.8473 -26.8187 -26.7872
   -26.7220 -26.6927 -26.5350 -26.3272 -26.3122 -26.2893 -26.2512 -26.2228
    -2.1349  -1.9793  -1.6007  -1.3449  -1.0618  -0.9700  -0.9079  -0.7851
    -0.7494  -0.5898  -0.3179  -0.1472  -0.0828  -0.0377   0.0281   0.0946
     0.2874   0.3423   0.3478   0.5864   0.5958   0.6570   0.7523   0.7746
     0.8492   0.9484   1.0491   1.2417   1.2807   1.3549   1.4510   1.7175
     1.7807   1.8059   2.1068   2.3164   2.4189   2.5819   2.6206   2.7373
     2.8217   2.8868

          k = 0.0744 0.1143 0.0000 ( 35382 PWs)   bands (ev):

   -59.4935 -59.4722 -59.3319 -59.3109 -59.2383 -59.2172 -48.3319 -48.3027
   -48.2126 -48.1831 -47.7294 -47.6996 -33.9715 -33.9477 -33.6205 -33.4843
   -33.4629 -33.4558 -33.4334 -33.4076 -33.3897 -33.3871 -33.3332 -33.3126
   -33.2701 -33.2615 -33.2408 -33.2022 -32.9808 -32.9633 -27.0650 -27.0392
   -27.0123 -26.9943 -26.9345 -26.9078 -26.8597 -26.8463 -26.8189 -26.7875
   -26.7211 -26.6930 -26.5346 -26.3276 -26.3122 -26.2893 -26.2505 -26.2230
    -2.2329  -2.1001  -1.4005  -1.3736  -1.1652  -0.9786  -0.9442  -0.7569
    -0.7341  -0.6179  -0.3499  -0.1676  -0.1325  -0.0170   0.0680   0.0990
     0.2378   0.3106   0.4287   0.5244   0.6183   0.6812   0.7546   0.8351
     0.9259   0.9608   1.0612   1.2772   1.3077   1.4087   1.4901   1.7891
     1.8001   1.8402   2.0702   2.2249   2.3676   2.5189   2.6623   2.7409
     2.8579   2.9808

          k = 0.0744-0.0534 0.0000 ( 35386 PWs)   bands (ev):

   -59.4934 -59.4722 -59.3319 -59.3109 -59.2383 -59.2173 -48.3319 -48.3027
   -48.2125 -48.1831 -47.7293 -47.6997 -33.9719 -33.9476 -33.6210 -33.4849
   -33.4629 -33.4561 -33.4331 -33.4077 -33.3897 -33.3873 -33.3338 -33.3123
   -33.2700 -33.2620 -33.2404 -33.2020 -32.9808 -32.9633 -27.0644 -27.0388
   -27.0124 -26.9935 -26.9343 -26.9078 -26.8602 -26.8447 -26.8192 -26.7880
   -26.7195 -26.6934 -26.5340 -26.3280 -26.3121 -26.2894 -26.2491 -26.2233
    -2.4744  -2.0299  -1.4144  -1.4048  -1.1759  -0.9979  -0.9768  -0.7826
    -0.6808  -0.6775  -0.3837  -0.1901  -0.1765  -0.0552   0.0645   0.1366
     0.1436   0.3739   0.4157   0.5408   0.6480   0.7047   0.7770   0.9390
     0.9912   1.0065   1.1032   1.3165   1.3278   1.4937   1.5867   1.8624
     1.8895   1.9131   2.0092   2.1163   2.4252   2.4330   2.6469   2.7463
     2.9085   3.0835

          k = 0.0744-0.0381 0.0000 ( 35354 PWs)   bands (ev):

   -59.4934 -59.4722 -59.3319 -59.3109 -59.2382 -59.2173 -48.3318 -48.3027
   -48.2124 -48.1831 -47.7293 -47.6997 -33.9724 -33.9474 -33.6215 -33.4857
   -33.4628 -33.4563 -33.4328 -33.4078 -33.3896 -33.3875 -33.3344 -33.3120
   -33.2698 -33.2627 -33.2400 -33.2019 -32.9808 -32.9632 -27.0636 -27.0384
   -27.0126 -26.9925 -26.9341 -26.9079 -26.8605 -26.8430 -26.8197 -26.7885
   -26.7178 -26.6938 -26.5332 -26.3284 -26.3121 -26.2894 -26.2477 -26.2237
    -2.6690  -1.9247  -1.5220  -1.4514  -1.1982  -1.0476  -0.9621  -0.8246
    -0.7481  -0.6259  -0.4012  -0.2577  -0.1869  -0.1206   0.0447   0.1101
     0.1573   0.2818   0.4594   0.6349   0.6480   0.6906   0.9031   1.0221
     1.0649   1.0814   1.1541   1.3137   1.3699   1.6060   1.6334   1.9081
     1.9375   2.0260   2.0858   2.1091   2.3582   2.5308   2.5594   2.8227
     2.8750   2.9711

          k = 0.0744-0.0229 0.0000 ( 35379 PWs)   bands (ev):

   -59.4934 -59.4722 -59.3319 -59.3110 -59.2383 -59.2173 -48.3318 -48.3027
   -48.2124 -48.1831 -47.7292 -47.6997 -33.9729 -33.9472 -33.6219 -33.4863
   -33.4627 -33.4565 -33.4326 -33.4079 -33.3895 -33.3879 -33.3350 -33.3118
   -33.2697 -33.2633 -33.2396 -33.2018 -32.9809 -32.9632 -27.0630 -27.0380
   -27.0128 -26.9916 -26.9340 -26.9079 -26.8607 -26.8417 -26.8201 -26.7889
   -26.7163 -26.6943 -26.5325 -26.3288 -26.3121 -26.2894 -26.2464 -26.2240
    -2.8040  -1.7891  -1.6161  -1.4797  -1.2456  -1.1636  -0.9559  -0.8475
    -0.7934  -0.5838  -0.3908  -0.3260  -0.2190  -0.1782  -0.0009   0.1145
     0.1718   0.1954   0.5230   0.5982   0.6843   0.7839   0.9826   1.0455
     1.0980   1.2012   1.2053   1.2854   1.4146   1.6369   1.7351   1.9174
     1.9608   2.1238   2.1644   2.2949   2.3291   2.5037   2.5996   2.7409
     2.8421   2.9078

          k = 0.0744-0.0076 0.0000 ( 35364 PWs)   bands (ev):

   -59.4934 -59.4722 -59.3318 -59.3110 -59.2382 -59.2173 -48.3318 -48.3028
   -48.2124 -48.1832 -47.7292 -47.6997 -33.9731 -33.9471 -33.6221 -33.4866
   -33.4627 -33.4567 -33.4324 -33.4080 -33.3893 -33.3881 -33.3353 -33.3116
   -33.2696 -33.2636 -33.2394 -33.2017 -32.9809 -32.9632 -27.0626 -27.0378
   -27.0128 -26.9911 -26.9338 -26.9080 -26.8608 -26.8410 -26.8203 -26.7890
   -26.7154 -26.6945 -26.5321 -26.3289 -26.3121 -26.2895 -26.2457 -26.2242
    -2.8729  -1.6661  -1.6444  -1.5123  -1.2951  -1.2746  -0.9591  -0.8587
    -0.7991  -0.5665  -0.3725  -0.3580  -0.2625  -0.2157  -0.0401   0.0932
     0.1820   0.1985   0.5579   0.5623   0.7218   0.8480   1.0082   1.0436
     1.1103   1.2317   1.2398   1.3066   1.4417   1.6361   1.8115   1.9305
     2.0197   2.1722   2.1834   2.3625   2.4783   2.5083   2.5874   2.6193
     2.7987   2.8413

          k = 0.0744 0.0076 0.0000 ( 35364 PWs)   bands (ev):

   -59.4934 -59.4722 -59.3318 -59.3110 -59.2382 -59.2173 -48.3318 -48.3028
   -48.2124 -48.1832 -47.7292 -47.6997 -33.9731 -33.9471 -33.6221 -33.4866
   -33.4627 -33.4567 -33.4324 -33.4080 -33.3893 -33.3881 -33.3353 -33.3116
   -33.2696 -33.2636 -33.2394 -33.2017 -32.9809 -32.9632 -27.0626 -27.0378
   -27.0128 -26.9911 -26.9338 -26.9080 -26.8608 -26.8410 -26.8203 -26.7890
   -26.7154 -26.6945 -26.5321 -26.3289 -26.3121 -26.2895 -26.2457 -26.2242
    -2.8729  -1.6661  -1.6444  -1.5123  -1.2951  -1.2746  -0.9591  -0.8587
    -0.7991  -0.5665  -0.3725  -0.3580  -0.2625  -0.2157  -0.0401   0.0932
     0.1820   0.1985   0.5579   0.5623   0.7218   0.8480   1.0082   1.0436
     1.1103   1.2317   1.2398   1.3066   1.4417   1.6361   1.8115   1.9305
     2.0197   2.1722   2.1834   2.3625   2.4784   2.5086   2.5879   2.6198
     2.7994   2.8463

          k = 0.0744 0.0229 0.0000 ( 35379 PWs)   bands (ev):

   -59.4934 -59.4722 -59.3319 -59.3110 -59.2383 -59.2173 -48.3318 -48.3027
   -48.2124 -48.1831 -47.7292 -47.6997 -33.9729 -33.9472 -33.6219 -33.4863
   -33.4627 -33.4565 -33.4326 -33.4079 -33.3895 -33.3879 -33.3350 -33.3118
   -33.2697 -33.2633 -33.2396 -33.2018 -32.9809 -32.9632 -27.0630 -27.0380
   -27.0128 -26.9916 -26.9340 -26.9079 -26.8607 -26.8417 -26.8201 -26.7889
   -26.7163 -26.6943 -26.5325 -26.3288 -26.3121 -26.2894 -26.2464 -26.2240
    -2.8040  -1.7891  -1.6161  -1.4797  -1.2456  -1.1636  -0.9559  -0.8475
    -0.7934  -0.5838  -0.3908  -0.3260  -0.2190  -0.1782  -0.0009   0.1145
     0.1718   0.1954   0.5230   0.5982   0.6843   0.7839   0.9826   1.0455
     1.0980   1.2012   1.2053   1.2854   1.4146   1.6369   1.7351   1.9174
     1.9608   2.1237   2.1644   2.2949   2.3292   2.5039   2.6005   2.7420
     2.8454   2.9132

          k =-0.0893-0.0457 0.0000 ( 35312 PWs)   bands (ev):

   -59.4828 -59.4827 -59.3214 -59.3213 -59.2277 -59.2277 -48.3173 -48.3173
   -48.1978 -48.1978 -47.7146 -47.7145 -33.9599 -33.9599 -33.5270 -33.5270
   -33.4740 -33.4739 -33.3988 -33.3988 -33.3636 -33.3635 -33.3232 -33.3231
   -33.2958 -33.2958 -33.2513 -33.2513 -32.9721 -32.9720 -27.0256 -27.0255
   -26.9627 -26.9626 -26.9212 -26.9212 -26.8911 -26.8911 -26.8318 -26.8318
   -26.7061 -26.7061 -26.4315 -26.4313 -26.3009 -26.3008 -26.2360 -26.2359
    -2.2723  -2.2723  -1.3577  -1.3577  -1.0748  -1.0748  -0.8738  -0.8738
    -0.6885  -0.6885  -0.2346  -0.2346  -0.0587  -0.0587   0.0738   0.0738
     0.2825   0.2825   0.5052   0.5052   0.7463   0.7463   0.9072   0.9073
     0.9995   0.9995   1.0537   1.0537   1.4636   1.4636   1.6660   1.6661
     1.9340   1.9340   2.0155   2.0155   2.4087   2.4087   2.7029   2.7029
     2.9923   2.9927

          k =-0.0893-0.0305 0.0000 ( 35374 PWs)   bands (ev):

   -59.4828 -59.4828 -59.3215 -59.3214 -59.2278 -59.2278 -48.3174 -48.3173
   -48.1979 -48.1978 -47.7146 -47.7145 -33.9602 -33.9595 -33.5274 -33.5266
   -33.4744 -33.4736 -33.3989 -33.3987 -33.3638 -33.3634 -33.3236 -33.3227
   -33.2960 -33.2956 -33.2518 -33.2508 -32.9721 -32.9720 -27.0258 -27.0253
   -26.9632 -26.9622 -26.9212 -26.9211 -26.8918 -26.8904 -26.8328 -26.8308
   -26.7073 -26.7051 -26.4320 -26.4308 -26.3009 -26.3008 -26.2369 -26.2351
    -2.4068  -2.0917  -1.3950  -1.3342  -1.1088  -1.0822  -0.9021  -0.8428
    -0.7431  -0.6357  -0.2570  -0.2065  -0.0797  -0.0440   0.0696   0.0889
     0.2107   0.3604   0.3847   0.6106   0.6482   0.8518   0.8826   0.9288
     0.9820   1.0079   1.0600   1.0622   1.4241   1.4814   1.6422   1.6720
     1.8676   1.8764   2.0811   2.1979   2.3335   2.4763   2.5990   2.7948
     2.9211   3.0144

          k =-0.0893-0.0152 0.0000 ( 35359 PWs)   bands (ev):

   -59.4828 -59.4828 -59.3215 -59.3214 -59.2278 -59.2277 -48.3174 -48.3172
   -48.1979 -48.1977 -47.7146 -47.7144 -33.9604 -33.9593 -33.5276 -33.5263
   -33.4747 -33.4733 -33.3989 -33.3987 -33.3639 -33.3632 -33.3239 -33.3223
   -33.2961 -33.2955 -33.2522 -33.2504 -32.9721 -32.9720 -27.0260 -27.0251
   -26.9636 -26.9617 -26.9213 -26.9210 -26.8922 -26.8899 -26.8336 -26.8301
   -26.7081 -26.7043 -26.4324 -26.4304 -26.3009 -26.3008 -26.2375 -26.2344
    -2.4894  -1.8778  -1.4220  -1.4110  -1.1637  -1.0886  -0.8806  -0.8335
    -0.7810  -0.6067  -0.2740  -0.1802  -0.0931  -0.0408   0.0507   0.1112
     0.1694   0.2897   0.4322   0.5945   0.6808   0.8268   0.9376   0.9457
     0.9606   1.0207   1.0690   1.0748   1.3976   1.4620   1.6086   1.6356
     1.8640   1.8723   2.2216   2.2889   2.3831   2.5170   2.5444   2.7531
     2.8039   3.0206

          k =-0.0893-0.0000 0.0000 ( 35326 PWs)   bands (ev):

   -59.4828 -59.4827 -59.3215 -59.3213 -59.2278 -59.2277 -48.3174 -48.3172
   -48.1979 -48.1977 -47.7146 -47.7144 -33.9605 -33.9592 -33.5277 -33.5262
   -33.4748 -33.4732 -33.3989 -33.3987 -33.3640 -33.3631 -33.3240 -33.3222
   -33.2962 -33.2954 -33.2523 -33.2502 -32.9721 -32.9720 -27.0261 -27.0250
   -26.9637 -26.9616 -26.9213 -26.9210 -26.8924 -26.8898 -26.8339 -26.8298
   -26.7084 -26.7040 -26.4325 -26.4302 -26.3009 -26.3008 -26.2378 -26.2342
    -2.5172  -1.7021  -1.5594  -1.4316  -1.1681  -1.0900  -0.8639  -0.8324
    -0.7939  -0.5990  -0.2822  -0.1697  -0.0965  -0.0405   0.0324   0.1211
     0.1582   0.2598   0.4660   0.5776   0.7052   0.8031   0.9296   0.9604
     0.9741   1.0348   1.0722   1.0722   1.3907   1.4443   1.5931   1.6145
     1.8648   1.9038   2.2230   2.3741   2.4609   2.4804   2.6300   2.6384
     2.7186   3.0050

          k =-0.0893 0.0152 0.0000 ( 35359 PWs)   bands (ev):

   -59.4828 -59.4828 -59.3215 -59.3214 -59.2278 -59.2277 -48.3174 -48.3172
   -48.1979 -48.1977 -47.7146 -47.7144 -33.9604 -33.9593 -33.5276 -33.5263
   -33.4747 -33.4733 -33.3989 -33.3987 -33.3639 -33.3632 -33.3239 -33.3223
   -33.2961 -33.2955 -33.2522 -33.2504 -32.9721 -32.9720 -27.0260 -27.0251
   -26.9636 -26.9617 -26.9213 -26.9210 -26.8922 -26.8899 -26.8336 -26.8301
   -26.7081 -26.7043 -26.4324 -26.4304 -26.3009 -26.3008 -26.2375 -26.2344
    -2.4894  -1.8778  -1.4220  -1.4110  -1.1637  -1.0886  -0.8806  -0.8335
    -0.7810  -0.6067  -0.2740  -0.1802  -0.0931  -0.0408   0.0507   0.1112
     0.1694   0.2897   0.4322   0.5945   0.6808   0.8268   0.9376   0.9457
     0.9606   1.0207   1.0690   1.0748   1.3976   1.4620   1.6086   1.6356
     1.8640   1.8723   2.2217   2.2889   2.3832   2.5171   2.5445   2.7528
     2.8031   3.0252

          k =-0.0893 0.0305 0.0000 ( 35374 PWs)   bands (ev):

   -59.4828 -59.4828 -59.3215 -59.3214 -59.2278 -59.2278 -48.3174 -48.3173
   -48.1979 -48.1978 -47.7146 -47.7145 -33.9602 -33.9595 -33.5274 -33.5266
   -33.4744 -33.4736 -33.3989 -33.3987 -33.3638 -33.3634 -33.3236 -33.3227
   -33.2960 -33.2956 -33.2518 -33.2508 -32.9721 -32.9720 -27.0258 -27.0253
   -26.9632 -26.9622 -26.9212 -26.9211 -26.8918 -26.8904 -26.8328 -26.8308
   -26.7073 -26.7051 -26.4320 -26.4308 -26.3009 -26.3008 -26.2369 -26.2351
    -2.4068  -2.0917  -1.3950  -1.3342  -1.1088  -1.0822  -0.9021  -0.8428
    -0.7431  -0.6357  -0.2570  -0.2065  -0.0797  -0.0440   0.0696   0.0889
     0.2107   0.3604   0.3847   0.6106   0.6482   0.8518   0.8826   0.9288
     0.9820   1.0079   1.0600   1.0622   1.4241   1.4814   1.6422   1.6720
     1.8676   1.8764   2.0811   2.1979   2.3332   2.4765   2.5989   2.7959
     2.9208   3.0677

          k =-0.0893-0.1372 0.0000 ( 35312 PWs)   bands (ev):

   -59.4828 -59.4827 -59.3214 -59.3213 -59.2277 -59.2277 -48.3173 -48.3173
   -48.1978 -48.1978 -47.7146 -47.7145 -33.9599 -33.9599 -33.5270 -33.5270
   -33.4740 -33.4739 -33.3988 -33.3988 -33.3636 -33.3635 -33.3232 -33.3231
   -33.2958 -33.2958 -33.2513 -33.2513 -32.9721 -32.9720 -27.0256 -27.0255
   -26.9627 -26.9626 -26.9212 -26.9212 -26.8911 -26.8911 -26.8318 -26.8318
   -26.7061 -26.7061 -26.4315 -26.4313 -26.3009 -26.3008 -26.2360 -26.2359
    -2.2723  -2.2723  -1.3577  -1.3577  -1.0748  -1.0748  -0.8738  -0.8738
    -0.6885  -0.6885  -0.2346  -0.2346  -0.0587  -0.0587   0.0738   0.0738
     0.2825   0.2825   0.5052   0.5052   0.7463   0.7463   0.9072   0.9073
     0.9995   0.9995   1.0537   1.0537   1.4636   1.4636   1.6660   1.6660
     1.9340   1.9341   2.0155   2.0155   2.4087   2.4088   2.7029   2.7029
     2.9924   2.9931

     the Fermi energy is     1.4524 ev

!    total energy              =   -1431.70509442 Ry
     estimated scf accuracy    <       0.00000652 Ry
     smearing contrib. (-TS)   =      -0.08124237 Ry
     internal energy E=F+TS    =   -1431.62385205 Ry

     The total energy is F=E-TS. E is the sum of the following terms:
     one-electron contribution =  -10972.22736734 Ry
     hartree contribution      =    5475.87839540 Ry
     xc contribution           =    -229.86766265 Ry
     ewald contribution        =    4294.59271836 Ry
     electric field correction =       0.00006418 Ry

     convergence has been achieved in  20 iterations

     negative rho (up, down):  5.423E-04 0.000E+00

     Forces acting on atoms (cartesian axes, Ry/au):

     atom    1 type  1   force =     0.00000441   -0.01510837   -0.02714377
     atom    2 type  1   force =     0.00000161   -0.01508115   -0.02712939
     atom    3 type  2   force =     0.00000667    0.01050377    0.04300892
     atom    4 type  2   force =    -0.00000311    0.01050202    0.04302345
     atom    5 type  1   force =     0.00000944    0.01785188   -0.00440524
     atom    6 type  1   force =    -0.00000563    0.01787058   -0.00439662
     atom    7 type  2   force =     0.00000547   -0.01161431   -0.01305155
     atom    8 type  2   force =    -0.00000014   -0.01160337   -0.01304945
     atom    9 type  1   force =    -0.00000805   -0.00139012    0.00020470
     atom   10 type  1   force =    -0.00000294   -0.00140285    0.00020481
     atom   11 type  2   force =    -0.00000556   -0.00026372    0.00136633
     atom   12 type  2   force =    -0.00000218   -0.00026437    0.00136780

     Total force =     0.084526     Total SCF correction =     0.003810

     Writing output data file ./Sc2Mo2/Sc2Mo2_beef.save/

     init_run     :     99.97s CPU    100.59s WALL (       1 calls)
     electrons    :   4799.36s CPU   4819.79s WALL (       1 calls)
     forces       :     61.25s CPU     61.53s WALL (       1 calls)

     Called by init_run:
     wfcinit      :     87.99s CPU     88.33s WALL (       1 calls)
     potinit      :      7.95s CPU      8.06s WALL (       1 calls)
     hinit0       :      2.16s CPU      2.17s WALL (       1 calls)

     Called by electrons:
     c_bands      :   4313.25s CPU   4324.99s WALL (      20 calls)
     sum_band     :    440.74s CPU    445.10s WALL (      20 calls)
     v_of_rho     :     29.67s CPU     31.18s WALL (      21 calls)
     newd         :     22.14s CPU     24.95s WALL (      21 calls)
     mix_rho      :      0.89s CPU      0.92s WALL (      20 calls)
     vdW_kernel   :      5.69s CPU      5.70s WALL (       1 calls)

     Called by c_bands:
     init_us_2    :     15.62s CPU     15.69s WALL (    3108 calls)
     cegterg      :   4273.61s CPU   4283.10s WALL (    1483 calls)

     Called by *egterg:
     cdiaghg      :    217.54s CPU    217.62s WALL (    9786 calls)
     h_psi        :   2045.56s CPU   2053.84s WALL (    9860 calls)
     s_psi        :    704.02s CPU    704.27s WALL (    9860 calls)
     g_psi        :      1.66s CPU      1.68s WALL (    8303 calls)

     Called by h_psi:
     h_psi:calbec :    718.28s CPU    719.17s WALL (    9860 calls)
     vloc_psi     :    604.34s CPU    611.42s WALL (    9860 calls)
     add_vuspsi   :    714.86s CPU    715.13s WALL (    9860 calls)

     General routines
     calbec       :   1044.58s CPU   1045.95s WALL (   11636 calls)
     fft          :     18.29s CPU     18.87s WALL (    1382 calls)
     ffts         :      0.09s CPU      0.09s WALL (      41 calls)
     fftw         :    683.20s CPU    691.09s WALL (  826576 calls)
     interpolate  :      0.31s CPU      0.32s WALL (      21 calls)

     Parallel routines
     fft_scatt_xy :     58.65s CPU     59.32s WALL (  827999 calls)
     fft_scatt_yz :    116.34s CPU    117.99s WALL (  827999 calls)

     PWSCF        :      1h22m CPU      1h23m WALL


   This run was terminated on:  19: 2:36  10Jul2022            

=------------------------------------------------------------------------------=
   JOB DONE.
=------------------------------------------------------------------------------=
