
     Program PWSCF v.6.6 starts on 11Jul2022 at  2:28:20 

     This program is part of the open-source Quantum ESPRESSO suite
     for quantum simulation of materials; please cite
         "P. Giannozzi et al., J. Phys.:Condens. Matter 21 395502 (2009);
         "P. Giannozzi et al., J. Phys.:Condens. Matter 29 465901 (2017);
          URL http://www.quantum-espresso.org", 
     in publications or presentations arising from this work. More details at
     http://www.quantum-espresso.org/quote

     Parallel version (MPI), running on    37 processors

     MPI processes distributed on     3 nodes
     R & G space division:  proc/nbgrp/npool/nimage =      37
     Fft bands division:     nmany     =       1
     Reading input from Sc2Nb2.in
Warning: card &CELL ignored
Warning: card / ignored

     Current dimensions of program PWSCF are:
     Max number of different atomic species (ntypx) = 10
     Max number of k-points (npk) =  40000
     Max angular momentum in pseudopotentials (lmaxx) =  3
     Presently stress not available with electric field and gates

     Message from routine cell_base_init:
     DEPRECATED: use true lattice parameter, not A to a.u. conversion factor
     file Sc.pbe-spn-rrkjus_psl.1.0.0.UPF: wavefunction(s)  3S 3P renormalized
     file Nb.pbe-spn-rrkjus_psl.1.0.0.UPF: wavefunction(s)  4S 4P renormalized

     **************************************************************************
     Initializing libbeef V0.1.2 with the BEEF-vdW functional.
     Citation: Wellendorff et al., PRB 85, 235149 (2012).
     **************************************************************************


     IMPORTANT: XC functional enforced from input :
     Exchange-correlation= BEEF-VDW
                           (   1   4  43  14   2   0   0)
     Any further DFT definition will be discarded
     Please, verify this is what you really want


     Subspace diagonalization in iterative solution of the eigenvalue problem:
     a serial algorithm will be used

     Found symmetry operation: I + ( -0.5000  0.0000  0.0000)
     This is a supercell, fractional translations are disabled

     Parallelization info
     --------------------
     sticks:   dense  smooth     PW     G-vecs:    dense   smooth      PW
     Min         138      55     15                32512     8219    1251
     Max         139      56     16                32525     8232    1274
     Sum        5123    2055    583              1203151   304245   46713



     bravais-lattice index     =            0
     lattice parameter (alat)  =       1.8897  a.u.
     unit-cell volume          =    5505.1099 (a.u.)^3
     number of atoms/cell      =           12
     number of atomic types    =            2
     number of electrons       =       144.00
     number of Kohn-Sham states=           86
     kinetic-energy cutoff     =      55.1240  Ry
     charge density cutoff     =     551.2396  Ry
     convergence threshold     =      1.0E-05
     mixing beta               =       0.1000
     number of iterations used =           10  plain     mixing
     Exchange-correlation= BEEF-VDW
                           (   1   4  43  14   2   0   0)

     celldm(1)=   1.889726  celldm(2)=   0.000000  celldm(3)=   0.000000
     celldm(4)=   0.000000  celldm(5)=   0.000000  celldm(6)=   0.000000

     crystal axes: (cart. coord. in units of alat)
               a(1) = (   5.817503   0.000000   0.000000 )  
               a(2) = (  -2.908752   5.614507   0.000000 )  
               a(3) = (   0.000000   0.000000  24.975905 )  

     reciprocal axes: (cart. coord. in units 2 pi/alat)
               b(1) = (  0.171895  0.089055 -0.000000 )  
               b(2) = (  0.000000  0.178110  0.000000 )  
               b(3) = (  0.000000 -0.000000  0.040039 )  


     PseudoPot. # 1 for Sc read from file:
     ../pseudo/Sc.pbe-spn-rrkjus_psl.1.0.0.UPF
     MD5 check sum: f739f74c200e509e5c24cbe053202ee5
     Pseudo is Ultrasoft + core correction, Zval = 11.0
     Generated using "atomic" code by A. Dal Corso v.6.2.2
     Using radial grid of 1173 points,  6 beta functions with: 
                l(1) =   0
                l(2) =   0
                l(3) =   1
                l(4) =   1
                l(5) =   2
                l(6) =   2
     Q(r) pseudized with 0 coefficients 


     PseudoPot. # 2 for Nb read from file:
     ../pseudo/Nb.pbe-spn-rrkjus_psl.1.0.0.UPF
     MD5 check sum: 6ee677a9f002bd3e3657f443f129faad
     Pseudo is Ultrasoft + core correction, Zval = 13.0
     Generated using "atomic" code by A. Dal Corso v.6.2.2
     Using radial grid of 1227 points,  6 beta functions with: 
                l(1) =   0
                l(2) =   0
                l(3) =   1
                l(4) =   1
                l(5) =   2
                l(6) =   2
     Q(r) pseudized with 0 coefficients 


     atomic species   valence    mass     pseudopotential
        Sc            11.00    44.95591     Sc( 1.00)
        Nb            13.00    92.90637     Nb( 1.00)

     No symmetry found



   Cartesian axes

     site n.     atom                  positions (alat units)
         1           Sc  tau(   1) = (   0.0000000   0.0000000  10.0000000  )
         2           Sc  tau(   2) = (   2.9087516   0.0000000  10.0000000  )
         3           Nb  tau(   3) = (   1.4543758   2.8072535  10.0000000  )
         4           Nb  tau(   4) = (  -1.4543758   2.8072535  10.0000000  )
         5           Sc  tau(   5) = (   2.9087516   1.5069598  12.4879527  )
         6           Sc  tau(   6) = (   0.0000000   1.5069598  12.4879527  )
         7           Nb  tau(   7) = (  -1.4543758   4.3142133  12.4879527  )
         8           Nb  tau(   8) = (   1.4543758   4.3142133  12.4879527  )
         9           Sc  tau(   9) = (  -0.0000416   3.0891361  15.0438628  )
        10           Sc  tau(  10) = (   2.9087155   3.0891612  15.0438954  )
        11           Nb  tau(  11) = (   4.3631058   0.1347033  14.7335204  )
        12           Nb  tau(  12) = (   1.4543725   0.1347024  14.7335226  )

     number of k points=    74  Fermi-Dirac smearing, width (Ry)=  0.0100
                       cart. coord. in units 2pi/alat
        k(    1) = (   0.0000000   0.0000000   0.0000000), wk =   0.0138889
        k(    2) = (   0.0000000   0.0148425   0.0000000), wk =   0.0277778
        k(    3) = (   0.0000000   0.0296850   0.0000000), wk =   0.0277778
        k(    4) = (   0.0000000   0.0445275   0.0000000), wk =   0.0277778
        k(    5) = (   0.0000000   0.0593700   0.0000000), wk =   0.0277778
        k(    6) = (   0.0000000   0.0742125   0.0000000), wk =   0.0277778
        k(    7) = (   0.0000000  -0.0890550   0.0000000), wk =   0.0138889
        k(    8) = (   0.0143246   0.0074213   0.0000000), wk =   0.0277778
        k(    9) = (   0.0143246   0.0222638   0.0000000), wk =   0.0277778
        k(   10) = (   0.0143246   0.0371063   0.0000000), wk =   0.0277778
        k(   11) = (   0.0143246   0.0519488   0.0000000), wk =   0.0277778
        k(   12) = (   0.0143246   0.0667913   0.0000000), wk =   0.0277778
        k(   13) = (   0.0143246   0.0816338   0.0000000), wk =   0.0277778
        k(   14) = (   0.0143246  -0.0816338   0.0000000), wk =   0.0277778
        k(   15) = (   0.0143246  -0.0667913   0.0000000), wk =   0.0277778
        k(   16) = (   0.0143246  -0.0519488   0.0000000), wk =   0.0277778
        k(   17) = (   0.0143246  -0.0371063   0.0000000), wk =   0.0277778
        k(   18) = (   0.0143246  -0.0222638   0.0000000), wk =   0.0277778
        k(   19) = (   0.0143246  -0.0074212   0.0000000), wk =   0.0277778
        k(   20) = (   0.0286492   0.0148425   0.0000000), wk =   0.0277778
        k(   21) = (   0.0286492   0.0296850   0.0000000), wk =   0.0277778
        k(   22) = (   0.0286492   0.0445275   0.0000000), wk =   0.0277778
        k(   23) = (   0.0286492   0.0593700   0.0000000), wk =   0.0277778
        k(   24) = (   0.0286492   0.0742125   0.0000000), wk =   0.0277778
        k(   25) = (   0.0286492   0.0890550   0.0000000), wk =   0.0277778
        k(   26) = (   0.0286492  -0.0742125   0.0000000), wk =   0.0277778
        k(   27) = (   0.0286492  -0.0593700   0.0000000), wk =   0.0277778
        k(   28) = (   0.0286492  -0.0445275   0.0000000), wk =   0.0277778
        k(   29) = (   0.0286492  -0.0296850   0.0000000), wk =   0.0277778
        k(   30) = (   0.0286492  -0.0148425   0.0000000), wk =   0.0277778
        k(   31) = (   0.0286492   0.0000000   0.0000000), wk =   0.0277778
        k(   32) = (   0.0429738   0.0222638   0.0000000), wk =   0.0277778
        k(   33) = (   0.0429738   0.0371063   0.0000000), wk =   0.0277778
        k(   34) = (   0.0429738   0.0519488   0.0000000), wk =   0.0277778
        k(   35) = (   0.0429738   0.0667913   0.0000000), wk =   0.0277778
        k(   36) = (   0.0429738   0.0816338   0.0000000), wk =   0.0277778
        k(   37) = (   0.0429738   0.0964763   0.0000000), wk =   0.0277778
        k(   38) = (   0.0429738  -0.0667913   0.0000000), wk =   0.0277778
        k(   39) = (   0.0429738  -0.0519488   0.0000000), wk =   0.0277778
        k(   40) = (   0.0429738  -0.0371063   0.0000000), wk =   0.0277778
        k(   41) = (   0.0429738  -0.0222637   0.0000000), wk =   0.0277778
        k(   42) = (   0.0429738  -0.0074212   0.0000000), wk =   0.0277778
        k(   43) = (   0.0429738   0.0074213   0.0000000), wk =   0.0277778
        k(   44) = (   0.0572984   0.0296850   0.0000000), wk =   0.0277778
        k(   45) = (   0.0572984   0.0445275   0.0000000), wk =   0.0277778
        k(   46) = (   0.0572984   0.0593700   0.0000000), wk =   0.0277778
        k(   47) = (   0.0572984   0.0742125   0.0000000), wk =   0.0277778
        k(   48) = (   0.0572984   0.0890550   0.0000000), wk =   0.0277778
        k(   49) = (   0.0572984   0.1038975   0.0000000), wk =   0.0277778
        k(   50) = (   0.0572984  -0.0593700   0.0000000), wk =   0.0277778
        k(   51) = (   0.0572984  -0.0445275   0.0000000), wk =   0.0277778
        k(   52) = (   0.0572984  -0.0296850   0.0000000), wk =   0.0277778
        k(   53) = (   0.0572984  -0.0148425   0.0000000), wk =   0.0277778
        k(   54) = (   0.0572984   0.0000000   0.0000000), wk =   0.0277778
        k(   55) = (   0.0572984   0.0148425   0.0000000), wk =   0.0277778
        k(   56) = (   0.0716229   0.0371063   0.0000000), wk =   0.0277778
        k(   57) = (   0.0716229   0.0519488   0.0000000), wk =   0.0277778
        k(   58) = (   0.0716229   0.0667913   0.0000000), wk =   0.0277778
        k(   59) = (   0.0716229   0.0816338   0.0000000), wk =   0.0277778
        k(   60) = (   0.0716229   0.0964763   0.0000000), wk =   0.0277778
        k(   61) = (   0.0716229   0.1113188   0.0000000), wk =   0.0277778
        k(   62) = (   0.0716229  -0.0519488   0.0000000), wk =   0.0277778
        k(   63) = (   0.0716229  -0.0371062   0.0000000), wk =   0.0277778
        k(   64) = (   0.0716229  -0.0222637   0.0000000), wk =   0.0277778
        k(   65) = (   0.0716229  -0.0074212   0.0000000), wk =   0.0277778
        k(   66) = (   0.0716229   0.0074213   0.0000000), wk =   0.0277778
        k(   67) = (   0.0716229   0.0222638   0.0000000), wk =   0.0277778
        k(   68) = (  -0.0859475  -0.0445275   0.0000000), wk =   0.0138889
        k(   69) = (  -0.0859475  -0.0296850   0.0000000), wk =   0.0277778
        k(   70) = (  -0.0859475  -0.0148425   0.0000000), wk =   0.0277778
        k(   71) = (  -0.0859475  -0.0000000   0.0000000), wk =   0.0277778
        k(   72) = (  -0.0859475   0.0148425   0.0000000), wk =   0.0277778
        k(   73) = (  -0.0859475   0.0296850   0.0000000), wk =   0.0277778
        k(   74) = (  -0.0859475  -0.1335825   0.0000000), wk =   0.0138889

     Dense  grid:  1203151 G-vectors     FFT dimensions: (  90,  90, 360)

     Smooth grid:   304245 G-vectors     FFT dimensions: (  54,  60, 225)

     Estimated max dynamical RAM per process >     230.70 MB

     Estimated total dynamical RAM >       8.34 GB

     Check: negative core charge=   -0.000001

     Initial potential from superposition of free atoms

     starting charge  143.97678, renormalised to  144.00000

     negative rho (up, down):  9.851E-04 0.000E+00


     %%%%%%%%%%%%%%%%%%%%%%%%%%%%%%%%%%%%%%%%%%%%%%%%%%%%%%%%%%%%%%%%%%%%%%%%
     %                                                                      %
     % You are using vdW-DF, which was implemented by the Thonhauser group. %
     % Please cite the following two papers that made this development      %
     % possible and the two reviews that describe the various versions:     %
     %                                                                      %
     %   T. Thonhauser et al., PRL 115, 136402 (2015).                      %
     %   T. Thonhauser et al., PRB 76, 125112 (2007).                       %
     %   K. Berland et al., Rep. Prog. Phys. 78, 066501 (2015).             %
     %   D.C. Langreth et al., J. Phys.: Condens. Matter 21, 084203 (2009). %
     %                                                                      %
     %                                                                      %
     % If you are calculating the stress with vdW-DF, please also cite:     %
     %                                                                      %
     %   R. Sabatini et al., J. Phys.: Condens. Matter 24, 424209 (2012).   %
     %                                                                      %
     %%%%%%%%%%%%%%%%%%%%%%%%%%%%%%%%%%%%%%%%%%%%%%%%%%%%%%%%%%%%%%%%%%%%%%%%



     Adding external electric field

     Computed dipole along edir(3) : 
        Dipole                0.0009 Ry au,          0.0023 Debye
        Dipole field          0.0000 Ry au, 

        Potential amp.       -0.0002 Ry
        Total length         46.0177 bohr

     Starting wfcs are  138 randomized atomic wfcs

     total cpu time spent up to now is      129.6 secs

     Self-consistent Calculation

     iteration #  1     ecut=    55.12 Ry     beta= 0.10
     Davidson diagonalization with overlap
     ethr =  1.00E-02,  avg # of iterations =  2.0

     negative rho (up, down):  6.987E-04 0.000E+00

     Adding external electric field

     Computed dipole along edir(3) : 
        Dipole               -0.5217 Ry au,         -1.3260 Debye
        Dipole field         -0.0012 Ry au, 

        Potential amp.        0.1096 Ry
        Total length         46.0177 bohr


     total cpu time spent up to now is      326.8 secs

     total energy              =   -1301.80455047 Ry
     estimated scf accuracy    <       7.45410546 Ry

     iteration #  2     ecut=    55.12 Ry     beta= 0.10
     Davidson diagonalization with overlap
     ethr =  5.18E-03,  avg # of iterations =  2.1

     negative rho (up, down):  6.837E-04 0.000E+00

     Adding external electric field

     Computed dipole along edir(3) : 
        Dipole                0.8682 Ry au,          2.2068 Debye
        Dipole field          0.0020 Ry au, 

        Potential amp.       -0.1824 Ry
        Total length         46.0177 bohr


     total cpu time spent up to now is      537.9 secs

     total energy              =   -1301.86074533 Ry
     estimated scf accuracy    <      15.04279894 Ry

     iteration #  3     ecut=    55.12 Ry     beta= 0.10
     Davidson diagonalization with overlap
     ethr =  5.18E-03,  avg # of iterations =  2.0

     negative rho (up, down):  6.450E-04 0.000E+00

     Adding external electric field

     Computed dipole along edir(3) : 
        Dipole                0.0737 Ry au,          0.1873 Debye
        Dipole field          0.0002 Ry au, 

        Potential amp.       -0.0155 Ry
        Total length         46.0177 bohr


     total cpu time spent up to now is      735.5 secs

     total energy              =   -1302.30413563 Ry
     estimated scf accuracy    <      25.41188252 Ry

     iteration #  4     ecut=    55.12 Ry     beta= 0.10
     Davidson diagonalization with overlap
     ethr =  5.18E-03,  avg # of iterations =  1.0

     negative rho (up, down):  6.380E-04 0.000E+00

     Adding external electric field

     Computed dipole along edir(3) : 
        Dipole               -0.0184 Ry au,         -0.0467 Debye
        Dipole field         -0.0000 Ry au, 

        Potential amp.        0.0039 Ry
        Total length         46.0177 bohr


     total cpu time spent up to now is      917.2 secs

     total energy              =   -1302.55286476 Ry
     estimated scf accuracy    <       0.62292912 Ry

     iteration #  5     ecut=    55.12 Ry     beta= 0.10
     Davidson diagonalization with overlap
     ethr =  4.33E-04,  avg # of iterations =  8.9

     negative rho (up, down):  6.459E-04 0.000E+00

     Adding external electric field

     Computed dipole along edir(3) : 
        Dipole                0.1719 Ry au,          0.4370 Debye
        Dipole field          0.0004 Ry au, 

        Potential amp.       -0.0361 Ry
        Total length         46.0177 bohr


     total cpu time spent up to now is     1234.7 secs

     total energy              =   -1302.66101002 Ry
     estimated scf accuracy    <       1.05845518 Ry

     iteration #  6     ecut=    55.12 Ry     beta= 0.10
     Davidson diagonalization with overlap
     ethr =  4.33E-04,  avg # of iterations =  1.4

     negative rho (up, down):  6.803E-04 0.000E+00

     Adding external electric field

     Computed dipole along edir(3) : 
        Dipole                0.0708 Ry au,          0.1800 Debye
        Dipole field          0.0002 Ry au, 

        Potential amp.       -0.0149 Ry
        Total length         46.0177 bohr


     total cpu time spent up to now is     1418.1 secs

     total energy              =   -1302.69111894 Ry
     estimated scf accuracy    <       0.50993173 Ry

     iteration #  7     ecut=    55.12 Ry     beta= 0.10
     Davidson diagonalization with overlap
     ethr =  3.54E-04,  avg # of iterations =  1.7

     negative rho (up, down):  6.951E-04 0.000E+00

     Adding external electric field

     Computed dipole along edir(3) : 
        Dipole                0.0996 Ry au,          0.2531 Debye
        Dipole field          0.0002 Ry au, 

        Potential amp.       -0.0209 Ry
        Total length         46.0177 bohr


     total cpu time spent up to now is     1607.8 secs

     total energy              =   -1302.69770637 Ry
     estimated scf accuracy    <       0.16860859 Ry

     iteration #  8     ecut=    55.12 Ry     beta= 0.10
     Davidson diagonalization with overlap
     ethr =  1.17E-04,  avg # of iterations =  2.4

     negative rho (up, down):  7.338E-04 0.000E+00

     Adding external electric field

     Computed dipole along edir(3) : 
        Dipole                0.1225 Ry au,          0.3115 Debye
        Dipole field          0.0003 Ry au, 

        Potential amp.       -0.0257 Ry
        Total length         46.0177 bohr


     total cpu time spent up to now is     1810.2 secs

     total energy              =   -1302.66500513 Ry
     estimated scf accuracy    <       0.14438503 Ry

     iteration #  9     ecut=    55.12 Ry     beta= 0.10
     Davidson diagonalization with overlap
     c_bands:  1 eigenvalues not converged
     c_bands:  1 eigenvalues not converged
     c_bands:  5 eigenvalues not converged
     c_bands:  3 eigenvalues not converged
     c_bands:  3 eigenvalues not converged
     c_bands:  1 eigenvalues not converged
     c_bands:  1 eigenvalues not converged
     c_bands:  1 eigenvalues not converged
     ethr =  1.00E-04,  avg # of iterations = 10.1

     negative rho (up, down):  7.623E-04 0.000E+00

     Adding external electric field

     Computed dipole along edir(3) : 
        Dipole                0.0879 Ry au,          0.2234 Debye
        Dipole field          0.0002 Ry au, 

        Potential amp.       -0.0185 Ry
        Total length         46.0177 bohr


     total cpu time spent up to now is     2082.4 secs

     total energy              =   -1302.68216560 Ry
     estimated scf accuracy    <       0.14132574 Ry

     iteration # 10     ecut=    55.12 Ry     beta= 0.10
     Davidson diagonalization with overlap
     ethr =  9.81E-05,  avg # of iterations =  2.4

     negative rho (up, down):  8.589E-04 0.000E+00

     Adding external electric field

     Computed dipole along edir(3) : 
        Dipole                0.0632 Ry au,          0.1607 Debye
        Dipole field          0.0001 Ry au, 

        Potential amp.       -0.0133 Ry
        Total length         46.0177 bohr


     total cpu time spent up to now is     2274.3 secs

     total energy              =   -1302.69274338 Ry
     estimated scf accuracy    <       0.01495243 Ry

     iteration # 11     ecut=    55.12 Ry     beta= 0.10
     Davidson diagonalization with overlap
     c_bands:  3 eigenvalues not converged
     c_bands:  4 eigenvalues not converged
     c_bands:  3 eigenvalues not converged
     c_bands:  1 eigenvalues not converged
     c_bands:  1 eigenvalues not converged
     c_bands:  1 eigenvalues not converged
     c_bands:  2 eigenvalues not converged
     c_bands:  2 eigenvalues not converged
     c_bands:  2 eigenvalues not converged
     c_bands:  3 eigenvalues not converged
     c_bands:  5 eigenvalues not converged
     c_bands:  3 eigenvalues not converged
     c_bands:  3 eigenvalues not converged
     c_bands:  1 eigenvalues not converged
     c_bands:  2 eigenvalues not converged
     c_bands:  2 eigenvalues not converged
     c_bands:  1 eigenvalues not converged
     c_bands:  4 eigenvalues not converged
     c_bands:  1 eigenvalues not converged
     c_bands:  1 eigenvalues not converged
     c_bands:  1 eigenvalues not converged
     c_bands:  1 eigenvalues not converged
     c_bands:  1 eigenvalues not converged
     c_bands:  2 eigenvalues not converged
     c_bands:  1 eigenvalues not converged
     c_bands:  1 eigenvalues not converged
     c_bands:  1 eigenvalues not converged
     ethr =  1.04E-05,  avg # of iterations = 16.8

     negative rho (up, down):  8.559E-04 0.000E+00

     Adding external electric field

     Computed dipole along edir(3) : 
        Dipole                0.0580 Ry au,          0.1475 Debye
        Dipole field          0.0001 Ry au, 

        Potential amp.       -0.0122 Ry
        Total length         46.0177 bohr


     total cpu time spent up to now is     2724.5 secs

     total energy              =   -1302.70003943 Ry
     estimated scf accuracy    <       0.01206826 Ry

     iteration # 12     ecut=    55.12 Ry     beta= 0.10
     Davidson diagonalization with overlap
     c_bands:  1 eigenvalues not converged
     c_bands:  1 eigenvalues not converged
     ethr =  8.38E-06,  avg # of iterations =  3.5

     negative rho (up, down):  8.545E-04 0.000E+00

     Adding external electric field

     Computed dipole along edir(3) : 
        Dipole                0.0922 Ry au,          0.2344 Debye
        Dipole field          0.0002 Ry au, 

        Potential amp.       -0.0194 Ry
        Total length         46.0177 bohr


     total cpu time spent up to now is     2918.9 secs

     total energy              =   -1302.69814729 Ry
     estimated scf accuracy    <       0.01641232 Ry

     iteration # 13     ecut=    55.12 Ry     beta= 0.10
     Davidson diagonalization with overlap
     ethr =  8.38E-06,  avg # of iterations =  2.0

     negative rho (up, down):  8.744E-04 0.000E+00

     Adding external electric field

     Computed dipole along edir(3) : 
        Dipole                0.0823 Ry au,          0.2092 Debye
        Dipole field          0.0002 Ry au, 

        Potential amp.       -0.0173 Ry
        Total length         46.0177 bohr


     total cpu time spent up to now is     3117.4 secs

     total energy              =   -1302.69921752 Ry
     estimated scf accuracy    <       0.00333994 Ry

     iteration # 14     ecut=    55.12 Ry     beta= 0.10
     Davidson diagonalization with overlap
     c_bands:  1 eigenvalues not converged
     c_bands:  1 eigenvalues not converged
     c_bands:  1 eigenvalues not converged
     c_bands:  1 eigenvalues not converged
     c_bands:  1 eigenvalues not converged
     c_bands:  1 eigenvalues not converged
     c_bands:  1 eigenvalues not converged
     c_bands:  2 eigenvalues not converged
     c_bands:  2 eigenvalues not converged
     c_bands:  1 eigenvalues not converged
     c_bands:  1 eigenvalues not converged
     c_bands:  2 eigenvalues not converged
     c_bands:  1 eigenvalues not converged
     c_bands:  1 eigenvalues not converged
     c_bands:  3 eigenvalues not converged
     c_bands:  2 eigenvalues not converged
     c_bands:  1 eigenvalues not converged
     c_bands:  1 eigenvalues not converged
     c_bands:  2 eigenvalues not converged
     c_bands:  1 eigenvalues not converged
     c_bands:  1 eigenvalues not converged
     c_bands:  2 eigenvalues not converged
     c_bands:  2 eigenvalues not converged
     c_bands:  1 eigenvalues not converged
     c_bands:  1 eigenvalues not converged
     c_bands:  1 eigenvalues not converged
     c_bands:  3 eigenvalues not converged
     c_bands:  2 eigenvalues not converged
     c_bands:  1 eigenvalues not converged
     ethr =  2.32E-06,  avg # of iterations = 14.4

     negative rho (up, down):  8.802E-04 0.000E+00

     Adding external electric field

     Computed dipole along edir(3) : 
        Dipole                0.0718 Ry au,          0.1825 Debye
        Dipole field          0.0002 Ry au, 

        Potential amp.       -0.0151 Ry
        Total length         46.0177 bohr


     total cpu time spent up to now is     3398.1 secs

     total energy              =   -1302.69928921 Ry
     estimated scf accuracy    <       0.00192308 Ry

     iteration # 15     ecut=    55.12 Ry     beta= 0.10
     Davidson diagonalization with overlap
     c_bands:  2 eigenvalues not converged
     c_bands:  1 eigenvalues not converged
     c_bands:  1 eigenvalues not converged
     c_bands:  1 eigenvalues not converged
     c_bands:  1 eigenvalues not converged
     c_bands:  1 eigenvalues not converged
     c_bands:  2 eigenvalues not converged
     c_bands:  2 eigenvalues not converged
     c_bands:  1 eigenvalues not converged
     c_bands:  1 eigenvalues not converged
     c_bands:  1 eigenvalues not converged
     c_bands:  1 eigenvalues not converged
     ethr =  1.34E-06,  avg # of iterations =  9.7

     negative rho (up, down):  8.883E-04 0.000E+00

     Adding external electric field

     Computed dipole along edir(3) : 
        Dipole                0.0734 Ry au,          0.1866 Debye
        Dipole field          0.0002 Ry au, 

        Potential amp.       -0.0154 Ry
        Total length         46.0177 bohr


     total cpu time spent up to now is     3650.0 secs

     total energy              =   -1302.69948336 Ry
     estimated scf accuracy    <       0.00047659 Ry

     iteration # 16     ecut=    55.12 Ry     beta= 0.10
     Davidson diagonalization with overlap
     c_bands:  2 eigenvalues not converged
     c_bands:  1 eigenvalues not converged
     c_bands:  1 eigenvalues not converged
     c_bands:  1 eigenvalues not converged
     c_bands:  1 eigenvalues not converged
     ethr =  3.31E-07,  avg # of iterations = 11.2

     negative rho (up, down):  8.871E-04 0.000E+00

     Adding external electric field

     Computed dipole along edir(3) : 
        Dipole                0.0794 Ry au,          0.2018 Debye
        Dipole field          0.0002 Ry au, 

        Potential amp.       -0.0167 Ry
        Total length         46.0177 bohr


     total cpu time spent up to now is     3983.2 secs

     total energy              =   -1302.69965117 Ry
     estimated scf accuracy    <       0.00006640 Ry

     iteration # 17     ecut=    55.12 Ry     beta= 0.10
     Davidson diagonalization with overlap
     c_bands:  1 eigenvalues not converged
     c_bands:  1 eigenvalues not converged
     c_bands:  1 eigenvalues not converged
     c_bands:  1 eigenvalues not converged
     c_bands:  1 eigenvalues not converged
     ethr =  4.61E-08,  avg # of iterations = 11.4

     negative rho (up, down):  8.890E-04 0.000E+00

     Adding external electric field

     Computed dipole along edir(3) : 
        Dipole                0.0743 Ry au,          0.1889 Debye
        Dipole field          0.0002 Ry au, 

        Potential amp.       -0.0156 Ry
        Total length         46.0177 bohr


     total cpu time spent up to now is     4356.4 secs

     total energy              =   -1302.69966831 Ry
     estimated scf accuracy    <       0.00016117 Ry

     iteration # 18     ecut=    55.12 Ry     beta= 0.10
     Davidson diagonalization with overlap
     c_bands:  1 eigenvalues not converged
     ethr =  4.61E-08,  avg # of iterations =  4.1

     negative rho (up, down):  8.884E-04 0.000E+00

     Adding external electric field

     Computed dipole along edir(3) : 
        Dipole                0.0746 Ry au,          0.1895 Debye
        Dipole field          0.0002 Ry au, 

        Potential amp.       -0.0157 Ry
        Total length         46.0177 bohr


     total cpu time spent up to now is     4578.7 secs

     total energy              =   -1302.69967697 Ry
     estimated scf accuracy    <       0.00004939 Ry

     iteration # 19     ecut=    55.12 Ry     beta= 0.10
     Davidson diagonalization with overlap
     c_bands:  1 eigenvalues not converged
     ethr =  3.43E-08,  avg # of iterations =  9.5

     negative rho (up, down):  8.885E-04 0.000E+00

     Adding external electric field

     Computed dipole along edir(3) : 
        Dipole                0.0742 Ry au,          0.1885 Debye
        Dipole field          0.0002 Ry au, 

        Potential amp.       -0.0156 Ry
        Total length         46.0177 bohr


     total cpu time spent up to now is     4851.0 secs

     total energy              =   -1302.69969165 Ry
     estimated scf accuracy    <       0.00002852 Ry

     iteration # 20     ecut=    55.12 Ry     beta= 0.10
     Davidson diagonalization with overlap
     ethr =  1.98E-08,  avg # of iterations =  4.7

     negative rho (up, down):  8.881E-04 0.000E+00

     Adding external electric field

     Computed dipole along edir(3) : 
        Dipole                0.0744 Ry au,          0.1891 Debye
        Dipole field          0.0002 Ry au, 

        Potential amp.       -0.0156 Ry
        Total length         46.0177 bohr


     total cpu time spent up to now is     5070.4 secs

     total energy              =   -1302.69969187 Ry
     estimated scf accuracy    <       0.00001635 Ry

     iteration # 21     ecut=    55.12 Ry     beta= 0.10
     Davidson diagonalization with overlap
     ethr =  1.14E-08,  avg # of iterations =  3.2

     negative rho (up, down):  8.941E-04 0.000E+00

     Adding external electric field

     Computed dipole along edir(3) : 
        Dipole                0.0736 Ry au,          0.1870 Debye
        Dipole field          0.0002 Ry au, 

        Potential amp.       -0.0155 Ry
        Total length         46.0177 bohr


     total cpu time spent up to now is     5287.7 secs

     End of self-consistent calculation

          k = 0.0000 0.0000 0.0000 ( 37911 PWs)   bands (ev):

   -53.7886 -53.7054 -53.6660 -53.5806 -53.5333 -53.4503 -48.6505 -48.5853
   -48.5768 -48.5114 -48.0333 -47.9588 -30.1304 -30.1237 -30.0703 -30.0171
   -29.9394 -29.8307 -29.7812 -29.7444 -29.6830 -29.6778 -29.5781 -29.5437
   -29.4404 -29.3738 -29.2961 -29.2180 -29.1951 -29.1434 -27.5194 -27.4773
   -27.3094 -27.2498 -27.2456 -27.1835 -27.1520 -27.1008 -27.0769 -27.0234
   -26.9606 -26.9341 -26.9172 -26.6380 -26.5783 -26.5342 -26.4809 -26.3713
    -3.8577  -2.6592  -1.7855  -1.7291  -1.3986  -1.3815  -1.1730  -0.8924
    -0.8788  -0.8567  -0.7998  -0.6138  -0.4985  -0.4535  -0.3452  -0.1301
     0.4511   0.5036   0.6665   0.7452   0.9319   1.1712   1.5070   1.6298
     1.6348   1.7463   1.8436   1.9394   2.0078   2.0831   2.2306   2.3504
     2.5077   2.5336   2.5900   2.7268   2.8008   2.8904

          k = 0.0000 0.0148 0.0000 ( 37965 PWs)   bands (ev):

   -53.7887 -53.7054 -53.6661 -53.5806 -53.5334 -53.4504 -48.6505 -48.5854
   -48.5768 -48.5114 -48.0333 -47.9588 -30.1299 -30.1231 -30.0700 -30.0169
   -29.9392 -29.8308 -29.7800 -29.7444 -29.6824 -29.6770 -29.5775 -29.5430
   -29.4405 -29.3737 -29.2960 -29.2180 -29.1951 -29.1434 -27.5201 -27.4780
   -27.3100 -27.2496 -27.2458 -27.1835 -27.1537 -27.1014 -27.0785 -27.0239
   -26.9607 -26.9346 -26.9172 -26.6381 -26.5783 -26.5354 -26.4813 -26.3714
    -3.8153  -2.6194  -1.7662  -1.6888  -1.3903  -1.3662  -1.1964  -0.8772
    -0.8464  -0.8257  -0.7720  -0.6012  -0.4739  -0.4303  -0.2912  -0.1365
     0.4438   0.5060   0.6761   0.7284   0.9352   1.1486   1.4407   1.5914
     1.6155   1.6986   1.8826   1.8939   1.9738   2.0729   2.2055   2.2589
     2.4480   2.5299   2.5757   2.6042   2.6994   2.8543

          k = 0.0000 0.0297 0.0000 ( 37977 PWs)   bands (ev):

   -53.7887 -53.7054 -53.6660 -53.5807 -53.5335 -53.4503 -48.6505 -48.5854
   -48.5768 -48.5114 -48.0333 -47.9588 -30.1286 -30.1214 -30.0691 -30.0161
   -29.9387 -29.8310 -29.7767 -29.7445 -29.6808 -29.6747 -29.5758 -29.5410
   -29.4408 -29.3736 -29.2959 -29.2178 -29.1951 -29.1435 -27.5219 -27.4799
   -27.3117 -27.2493 -27.2463 -27.1834 -27.1584 -27.1030 -27.0826 -27.0254
   -26.9609 -26.9361 -26.9174 -26.6383 -26.5783 -26.5385 -26.4824 -26.3715
    -3.6901  -2.5034  -1.7115  -1.5710  -1.4449  -1.2719  -1.2311  -0.8343
    -0.7533  -0.7507  -0.6875  -0.5664  -0.4057  -0.3549  -0.1533  -0.1441
     0.4249   0.5147   0.6226   0.7480   0.9303   1.0579   1.2788   1.5159
     1.5456   1.6541   1.7852   1.8365   1.9157   2.0512   2.0755   2.1064
     2.2369   2.2897   2.5150   2.6384   2.6462   2.8513

          k = 0.0000 0.0445 0.0000 ( 37995 PWs)   bands (ev):

   -53.7887 -53.7054 -53.6660 -53.5807 -53.5336 -53.4503 -48.6506 -48.5855
   -48.5768 -48.5114 -48.0334 -47.9589 -30.1268 -30.1191 -30.0679 -30.0152
   -29.9381 -29.8314 -29.7721 -29.7447 -29.6786 -29.6716 -29.5736 -29.5382
   -29.4413 -29.3735 -29.2957 -29.2176 -29.1952 -29.1435 -27.5245 -27.4825
   -27.3140 -27.2489 -27.2469 -27.1833 -27.1648 -27.1052 -27.0883 -27.0273
   -26.9611 -26.9382 -26.9177 -26.6388 -26.5784 -26.5426 -26.4838 -26.3717
    -3.4886  -2.3237  -1.6316  -1.5881  -1.3837  -1.2420  -1.1250  -0.7675
    -0.6545  -0.6131  -0.5535  -0.5183  -0.3292  -0.2273  -0.1525   0.0717
     0.3709   0.5207   0.5342   0.7720   0.8847   0.8989   1.1244   1.4072
     1.4448   1.5567   1.6374   1.7146   1.8312   1.8473   1.9387   1.9582
     2.0301   2.1029   2.4587   2.5914   2.5948   2.7066

          k = 0.0000 0.0594 0.0000 ( 38041 PWs)   bands (ev):

   -53.7887 -53.7055 -53.6660 -53.5808 -53.5337 -53.4504 -48.6507 -48.5856
   -48.5768 -48.5114 -48.0335 -47.9589 -30.1250 -30.1167 -30.0667 -30.0142
   -29.9374 -29.8318 -29.7674 -29.7449 -29.6764 -29.6684 -29.5712 -29.5354
   -29.4418 -29.3733 -29.2955 -29.2174 -29.1952 -29.1436 -27.5271 -27.4852
   -27.3164 -27.2485 -27.2476 -27.1832 -27.1712 -27.1074 -27.0939 -27.0293
   -26.9613 -26.9403 -26.9179 -26.6394 -26.5784 -26.5466 -26.4853 -26.3719
    -3.2227  -2.1257  -1.7841  -1.5438  -1.2726  -1.1383  -0.9439  -0.6868
    -0.5545  -0.4712  -0.4549  -0.3923  -0.3377  -0.0580  -0.0535   0.2014
     0.3066   0.4854   0.5862   0.6830   0.7670   0.7849   1.0566   1.2241
     1.3075   1.4062   1.4489   1.5838   1.6227   1.7275   1.7460   1.8329
     1.8396   2.0976   2.3246   2.3637   2.4929   2.5938

          k = 0.0000 0.0742 0.0000 ( 38041 PWs)   bands (ev):

   -53.7886 -53.7056 -53.6659 -53.5808 -53.5336 -53.4505 -48.6507 -48.5856
   -48.5768 -48.5114 -48.0335 -47.9589 -30.1237 -30.1150 -30.0659 -30.0135
   -29.9369 -29.8322 -29.7639 -29.7451 -29.6748 -29.6661 -29.5695 -29.5334
   -29.4423 -29.3732 -29.2954 -29.2172 -29.1953 -29.1436 -27.5290 -27.4871
   -27.3181 -27.2483 -27.2481 -27.1832 -27.1758 -27.1091 -27.0979 -27.0307
   -26.9615 -26.9418 -26.9181 -26.6399 -26.5785 -26.5493 -26.4863 -26.3721
    -2.9147  -2.1975  -1.7522  -1.4728  -1.3495  -0.8857  -0.7615  -0.6155
    -0.4990  -0.4208  -0.4153  -0.3180  -0.2466  -0.0182   0.0902   0.1277
     0.4266   0.4995   0.5903   0.6104   0.6290   0.8129   1.0157   1.0689
     1.1465   1.2781   1.3369   1.3790   1.5035   1.5204   1.6572   1.7246
     1.7397   2.1080   2.1484   2.1604   2.4717   2.8248

          k = 0.0000-0.0891 0.0000 ( 38066 PWs)   bands (ev):

   -53.7887 -53.7055 -53.6660 -53.5807 -53.5337 -53.4505 -48.6508 -48.5857
   -48.5768 -48.5114 -48.0336 -47.9589 -30.1232 -30.1144 -30.0655 -30.0132
   -29.9368 -29.8324 -29.7627 -29.7452 -29.6742 -29.6653 -29.5688 -29.5326
   -29.4424 -29.3732 -29.2953 -29.2171 -29.1953 -29.1437 -27.5296 -27.4878
   -27.3187 -27.2483 -27.2482 -27.1832 -27.1776 -27.1097 -27.0995 -27.0313
   -26.9616 -26.9423 -26.9182 -26.6401 -26.5785 -26.5503 -26.4867 -26.3721
    -2.6788  -2.4118  -1.5903  -1.4616  -1.4450  -0.7298  -0.6575  -0.5859
    -0.5239  -0.4744  -0.3816  -0.2686  -0.1836  -0.1326   0.1623   0.2406
     0.4504   0.4962   0.5146   0.5389   0.6106   0.9257   1.0047   1.0120
     1.1515   1.1914   1.2225   1.3614   1.3868   1.4621   1.5432   1.6998
     1.7243   2.0730   2.1012   2.1129   2.4806   2.6618

          k = 0.0143 0.0074 0.0000 ( 37963 PWs)   bands (ev):

   -53.7872 -53.7069 -53.6646 -53.5822 -53.5320 -53.4518 -48.6492 -48.5841
   -48.5780 -48.5127 -48.0320 -47.9601 -30.1217 -30.1180 -30.0578 -30.0186
   -29.9273 -29.8293 -29.7791 -29.7459 -29.6842 -29.6758 -29.5794 -29.5418
   -29.4420 -29.3872 -29.3099 -29.2170 -29.2081 -29.1447 -27.5105 -27.4684
   -27.3085 -27.2486 -27.2469 -27.1846 -27.1517 -27.1022 -27.0765 -27.0248
   -26.9707 -26.9273 -26.9251 -26.6370 -26.5794 -26.5336 -26.4821 -26.3815
    -3.8054  -2.6084  -1.7516  -1.6841  -1.3800  -1.3415  -1.1363  -0.9536
    -0.8227  -0.8006  -0.7575  -0.5872  -0.4772  -0.4340  -0.3198  -0.1041
     0.4567   0.5087   0.6921   0.7539   0.9209   1.1768   1.5068   1.6066
     1.6154   1.7342   1.8621   1.9316   1.9367   2.0774   2.1949   2.2945
     2.3221   2.4886   2.6684   2.6810   2.7014   2.8207

          k = 0.0143 0.0223 0.0000 ( 38009 PWs)   bands (ev):

   -53.7873 -53.7069 -53.6647 -53.5822 -53.5321 -53.4518 -48.6493 -48.5841
   -48.5780 -48.5127 -48.0321 -47.9601 -30.1205 -30.1170 -30.0572 -30.0182
   -29.9270 -29.8294 -29.7768 -29.7460 -29.6831 -29.6742 -29.5783 -29.5404
   -29.4423 -29.3871 -29.3098 -29.2169 -29.2082 -29.1447 -27.5118 -27.4697
   -27.3097 -27.2484 -27.2472 -27.1846 -27.1549 -27.1033 -27.0794 -27.0258
   -26.9708 -26.9274 -26.9261 -26.6372 -26.5794 -26.5358 -26.4829 -26.3815
    -3.7215  -2.5298  -1.7141  -1.6049  -1.3677  -1.3225  -1.1714  -0.9174
    -0.7642  -0.7447  -0.7025  -0.5631  -0.4280  -0.3876  -0.2195  -0.1146
     0.4443   0.5120   0.6720   0.7534   0.9249   1.1248   1.3656   1.5572
     1.5681   1.6759   1.8442   1.8606   1.9026   2.0637   2.1214   2.1631
     2.2198   2.4070   2.4954   2.6222   2.6864   2.8695

          k = 0.0143 0.0371 0.0000 ( 38008 PWs)   bands (ev):

   -53.7872 -53.7069 -53.6646 -53.5822 -53.5321 -53.4518 -48.6493 -48.5842
   -48.5780 -48.5127 -48.0321 -47.9601 -30.1185 -30.1155 -30.0562 -30.0173
   -29.9264 -29.8297 -29.7728 -29.7461 -29.6813 -29.6715 -29.5763 -29.5380
   -29.4427 -29.3870 -29.3097 -29.2167 -29.2082 -29.1448 -27.5140 -27.4720
   -27.3117 -27.2480 -27.2478 -27.1845 -27.1605 -27.1051 -27.0844 -27.0274
   -26.9710 -26.9279 -26.9276 -26.6375 -26.5794 -26.5395 -26.4841 -26.3817
    -3.5576  -2.3796  -1.6454  -1.4708  -1.4478  -1.2142  -1.1924  -0.8504
    -0.6575  -0.6531  -0.5950  -0.5205  -0.3401  -0.2936  -0.1315  -0.0352
     0.4154   0.5220   0.5793   0.7879   0.9061   0.9881   1.1927   1.4447
     1.4871   1.6200   1.7250   1.7395   1.8542   1.9319   1.9821   2.0129
     2.0990   2.1376   2.4535   2.5655   2.6935   2.7155

          k = 0.0143 0.0519 0.0000 ( 38063 PWs)   bands (ev):

   -53.7873 -53.7070 -53.6646 -53.5823 -53.5323 -53.4519 -48.6494 -48.5843
   -48.5780 -48.5127 -48.0322 -47.9601 -30.1161 -30.1137 -30.0549 -30.0164
   -29.9257 -29.8301 -29.7682 -29.7463 -29.6791 -29.6683 -29.5741 -29.5352
   -29.4433 -29.3869 -29.3095 -29.2165 -29.2082 -29.1448 -27.5166 -27.4747
   -27.3141 -27.2484 -27.2476 -27.1844 -27.1669 -27.1073 -27.0901 -27.0293
   -26.9712 -26.9300 -26.9278 -26.6380 -26.5794 -26.5436 -26.4855 -26.3819
    -3.3226  -2.1784  -1.6497  -1.5587  -1.2482  -1.1921  -1.0711  -0.7597
    -0.5568  -0.5047  -0.4719  -0.4528  -0.2870  -0.1519  -0.0839   0.1912
     0.3080   0.5037   0.5475   0.7511   0.8357   0.8359   1.0693   1.2761
     1.4067   1.4378   1.5700   1.6359   1.6790   1.7636   1.8415   1.8479
     1.9156   2.0899   2.3704   2.4446   2.5429   2.5718

          k = 0.0143 0.0668 0.0000 ( 38046 PWs)   bands (ev):

   -53.7872 -53.7070 -53.6645 -53.5823 -53.5322 -53.4519 -48.6495 -48.5844
   -48.5780 -48.5127 -48.0323 -47.9601 -30.1141 -30.1121 -30.0539 -30.0155
   -29.9251 -29.8306 -29.7640 -29.7465 -29.6773 -29.6656 -29.5721 -29.5327
   -29.4438 -29.3868 -29.3094 -29.2163 -29.2083 -29.1449 -27.5189 -27.4769
   -27.3161 -27.2490 -27.2473 -27.1844 -27.1725 -27.1092 -27.0949 -27.0310
   -26.9714 -26.9318 -26.9279 -26.6386 -26.5795 -26.5469 -26.4867 -26.3820
    -3.0320  -2.0585  -1.7897  -1.4753  -1.2571  -0.9771  -0.9239  -0.6579
    -0.4697  -0.4263  -0.3581  -0.3388  -0.2889   0.0259   0.0565   0.0977
     0.3774   0.4985   0.6202   0.6403   0.6883   0.7410   1.0444   1.1057
     1.1883   1.3517   1.3689   1.4327   1.5408   1.6427   1.7223   1.7455
     1.7675   2.0995   2.1431   2.2777   2.4599   2.5761

          k = 0.0143 0.0816 0.0000 ( 38059 PWs)   bands (ev):

   -53.7872 -53.7070 -53.6645 -53.5823 -53.5323 -53.4520 -48.6495 -48.5844
   -48.5780 -48.5127 -48.0323 -47.9601 -30.1129 -30.1112 -30.0533 -30.0151
   -29.9248 -29.8308 -29.7616 -29.7466 -29.6762 -29.6640 -29.5709 -29.5312
   -29.4441 -29.3867 -29.3093 -29.2162 -29.2083 -29.1449 -27.5202 -27.4783
   -27.3173 -27.2493 -27.2472 -27.1843 -27.1757 -27.1102 -27.0977 -27.0319
   -26.9715 -26.9328 -26.9281 -26.6390 -26.5795 -26.5488 -26.4874 -26.3821
    -2.7232  -2.2928  -1.6142  -1.4224  -1.3720  -0.8243  -0.7390  -0.5704
    -0.4761  -0.3911  -0.3675  -0.2589  -0.1973  -0.0880   0.1748   0.2009
     0.4308   0.5015   0.5469   0.5551   0.6211   0.8740   0.9447   1.0112
     1.1339   1.1447   1.3115   1.3533   1.4525   1.4631   1.6152   1.6696
     1.7315   2.0416   2.1069   2.1101   2.4877   2.6285

          k = 0.0143-0.0816 0.0000 ( 38059 PWs)   bands (ev):

   -53.7872 -53.7070 -53.6645 -53.5823 -53.5323 -53.4520 -48.6495 -48.5844
   -48.5780 -48.5127 -48.0323 -47.9601 -30.1129 -30.1112 -30.0533 -30.0151
   -29.9248 -29.8308 -29.7616 -29.7466 -29.6762 -29.6640 -29.5709 -29.5312
   -29.4441 -29.3867 -29.3093 -29.2162 -29.2083 -29.1449 -27.5202 -27.4783
   -27.3173 -27.2493 -27.2472 -27.1843 -27.1757 -27.1102 -27.0977 -27.0319
   -26.9715 -26.9328 -26.9281 -26.6390 -26.5795 -26.5488 -26.4874 -26.3821
    -2.7232  -2.2928  -1.6142  -1.4224  -1.3720  -0.8243  -0.7390  -0.5704
    -0.4761  -0.3911  -0.3675  -0.2589  -0.1973  -0.0880   0.1748   0.2009
     0.4308   0.5015   0.5469   0.5551   0.6211   0.8740   0.9447   1.0112
     1.1339   1.1447   1.3115   1.3533   1.4525   1.4631   1.6152   1.6696
     1.7315   2.0416   2.1069   2.1101   2.4878   2.6271

          k = 0.0143-0.0668 0.0000 ( 38046 PWs)   bands (ev):

   -53.7872 -53.7070 -53.6645 -53.5823 -53.5322 -53.4519 -48.6495 -48.5844
   -48.5780 -48.5127 -48.0323 -47.9601 -30.1141 -30.1121 -30.0539 -30.0155
   -29.9251 -29.8306 -29.7640 -29.7465 -29.6773 -29.6656 -29.5721 -29.5327
   -29.4438 -29.3868 -29.3094 -29.2163 -29.2083 -29.1449 -27.5189 -27.4769
   -27.3161 -27.2490 -27.2473 -27.1844 -27.1725 -27.1092 -27.0949 -27.0310
   -26.9714 -26.9318 -26.9279 -26.6386 -26.5795 -26.5469 -26.4867 -26.3820
    -3.0320  -2.0585  -1.7897  -1.4753  -1.2571  -0.9771  -0.9239  -0.6579
    -0.4697  -0.4263  -0.3581  -0.3388  -0.2889   0.0259   0.0565   0.0977
     0.3774   0.4985   0.6202   0.6403   0.6883   0.7410   1.0444   1.1057
     1.1883   1.3517   1.3689   1.4327   1.5409   1.6427   1.7223   1.7455
     1.7675   2.0995   2.1431   2.2777   2.4599   2.5767

          k = 0.0143-0.0519 0.0000 ( 38063 PWs)   bands (ev):

   -53.7873 -53.7070 -53.6646 -53.5823 -53.5323 -53.4519 -48.6494 -48.5843
   -48.5780 -48.5127 -48.0322 -47.9601 -30.1161 -30.1137 -30.0549 -30.0164
   -29.9257 -29.8301 -29.7682 -29.7463 -29.6791 -29.6683 -29.5741 -29.5352
   -29.4433 -29.3869 -29.3095 -29.2165 -29.2082 -29.1448 -27.5166 -27.4747
   -27.3141 -27.2484 -27.2476 -27.1844 -27.1669 -27.1073 -27.0901 -27.0293
   -26.9712 -26.9300 -26.9278 -26.6380 -26.5794 -26.5436 -26.4855 -26.3819
    -3.3226  -2.1784  -1.6497  -1.5587  -1.2482  -1.1921  -1.0711  -0.7597
    -0.5568  -0.5046  -0.4719  -0.4528  -0.2870  -0.1519  -0.0839   0.1912
     0.3080   0.5037   0.5475   0.7511   0.8357   0.8359   1.0693   1.2761
     1.4067   1.4378   1.5700   1.6359   1.6790   1.7636   1.8415   1.8479
     1.9156   2.0899   2.3705   2.4447   2.5430   2.5719

          k = 0.0143-0.0371 0.0000 ( 38008 PWs)   bands (ev):

   -53.7872 -53.7069 -53.6646 -53.5822 -53.5321 -53.4518 -48.6493 -48.5842
   -48.5780 -48.5127 -48.0321 -47.9601 -30.1185 -30.1155 -30.0562 -30.0173
   -29.9264 -29.8297 -29.7728 -29.7461 -29.6813 -29.6715 -29.5763 -29.5380
   -29.4427 -29.3870 -29.3097 -29.2167 -29.2082 -29.1448 -27.5140 -27.4720
   -27.3117 -27.2480 -27.2478 -27.1845 -27.1605 -27.1051 -27.0844 -27.0274
   -26.9710 -26.9279 -26.9276 -26.6375 -26.5794 -26.5395 -26.4841 -26.3817
    -3.5576  -2.3796  -1.6454  -1.4708  -1.4478  -1.2142  -1.1924  -0.8504
    -0.6575  -0.6531  -0.5950  -0.5205  -0.3401  -0.2936  -0.1315  -0.0352
     0.4154   0.5220   0.5793   0.7879   0.9061   0.9882   1.1927   1.4447
     1.4871   1.6200   1.7250   1.7395   1.8542   1.9318   1.9821   2.0129
     2.0990   2.1377   2.4535   2.5654   2.6974   2.7110

          k = 0.0143-0.0223 0.0000 ( 38009 PWs)   bands (ev):

   -53.7873 -53.7069 -53.6647 -53.5822 -53.5321 -53.4518 -48.6493 -48.5841
   -48.5780 -48.5127 -48.0321 -47.9601 -30.1205 -30.1170 -30.0572 -30.0182
   -29.9270 -29.8294 -29.7768 -29.7460 -29.6831 -29.6742 -29.5783 -29.5404
   -29.4423 -29.3871 -29.3098 -29.2169 -29.2082 -29.1447 -27.5118 -27.4697
   -27.3097 -27.2484 -27.2472 -27.1846 -27.1549 -27.1033 -27.0794 -27.0258
   -26.9708 -26.9274 -26.9261 -26.6372 -26.5794 -26.5358 -26.4829 -26.3815
    -3.7215  -2.5298  -1.7141  -1.6049  -1.3677  -1.3225  -1.1714  -0.9174
    -0.7642  -0.7447  -0.7025  -0.5631  -0.4280  -0.3876  -0.2195  -0.1146
     0.4443   0.5120   0.6720   0.7534   0.9249   1.1248   1.3656   1.5572
     1.5681   1.6759   1.8442   1.8607   1.9026   2.0637   2.1215   2.1632
     2.2198   2.4071   2.4955   2.6223   2.6865   2.8700

          k = 0.0143-0.0074 0.0000 ( 37963 PWs)   bands (ev):

   -53.7872 -53.7069 -53.6646 -53.5822 -53.5320 -53.4518 -48.6492 -48.5841
   -48.5780 -48.5127 -48.0320 -47.9601 -30.1217 -30.1180 -30.0578 -30.0186
   -29.9273 -29.8293 -29.7791 -29.7459 -29.6842 -29.6758 -29.5794 -29.5418
   -29.4420 -29.3872 -29.3099 -29.2170 -29.2081 -29.1447 -27.5105 -27.4684
   -27.3085 -27.2486 -27.2469 -27.1846 -27.1517 -27.1022 -27.0765 -27.0248
   -26.9707 -26.9273 -26.9251 -26.6370 -26.5794 -26.5336 -26.4821 -26.3815
    -3.8054  -2.6084  -1.7516  -1.6841  -1.3800  -1.3415  -1.1363  -0.9536
    -0.8227  -0.8006  -0.7575  -0.5872  -0.4772  -0.4340  -0.3198  -0.1041
     0.4567   0.5087   0.6921   0.7539   0.9209   1.1768   1.5068   1.6066
     1.6154   1.7342   1.8621   1.9316   1.9367   2.0774   2.1949   2.2945
     2.3221   2.4886   2.6685   2.6812   2.7014   2.8227

          k = 0.0286 0.0148 0.0000 ( 38044 PWs)   bands (ev):

   -53.7832 -53.7111 -53.6605 -53.5865 -53.5280 -53.4561 -48.6456 -48.5818
   -48.5804 -48.5164 -48.0284 -47.9639 -30.1159 -30.0815 -30.0256 -30.0186
   -29.8917 -29.8251 -29.7730 -29.7502 -29.6878 -29.6699 -29.5833 -29.5363
   -29.4468 -29.4264 -29.3503 -29.2474 -29.2128 -29.1484 -27.4842 -27.4420
   -27.3058 -27.2505 -27.2452 -27.1879 -27.1507 -27.1062 -27.0752 -27.0288
   -27.0002 -26.9569 -26.8984 -26.6340 -26.5824 -26.5320 -26.4858 -26.4111
    -3.6516  -2.4596  -1.6535  -1.5550  -1.3432  -1.2305  -1.0237  -1.0137
    -0.7709  -0.6418  -0.6402  -0.5042  -0.4247  -0.3698  -0.2430  -0.0290
     0.4720   0.5208   0.7239   0.8160   0.8899   1.1834   1.4421   1.5159
     1.5860   1.6606   1.7408   1.9113   1.9311   2.0403   2.0802   2.1158
     2.1544   2.3808   2.4796   2.5400   2.7173   2.7807

          k = 0.0286 0.0297 0.0000 ( 38038 PWs)   bands (ev):

   -53.7832 -53.7111 -53.6604 -53.5865 -53.5280 -53.4561 -48.6456 -48.5818
   -48.5805 -48.5164 -48.0284 -47.9639 -30.1143 -30.0803 -30.0251 -30.0178
   -29.8913 -29.8253 -29.7700 -29.7503 -29.6865 -29.6678 -29.5820 -29.5344
   -29.4472 -29.4263 -29.3502 -29.2475 -29.2126 -29.1484 -27.4859 -27.4438
   -27.3074 -27.2509 -27.2449 -27.1878 -27.1549 -27.1074 -27.0790 -27.0299
   -27.0002 -26.9569 -26.8998 -26.6343 -26.5824 -26.5348 -26.4865 -26.4111
    -3.5286  -2.3448  -1.6010  -1.4428  -1.2998  -1.2895  -1.0526  -0.9471
    -0.6890  -0.5704  -0.5552  -0.4701  -0.3549  -0.2998  -0.1184  -0.0325
     0.4561   0.5180   0.6537   0.8358   0.8939   1.0854   1.2612   1.4277
     1.5281   1.5854   1.6785   1.8368   1.8457   1.9262   1.9427   2.0339
     2.1111   2.1956   2.3797   2.4912   2.7054   2.7289

          k = 0.0286 0.0445 0.0000 ( 38042 PWs)   bands (ev):

   -53.7831 -53.7112 -53.6603 -53.5866 -53.5280 -53.4561 -48.6457 -48.5818
   -48.5806 -48.5164 -48.0285 -47.9639 -30.1122 -30.0786 -30.0244 -30.0166
   -29.8907 -29.8256 -29.7658 -29.7505 -29.6848 -29.6650 -29.5801 -29.5318
   -29.4479 -29.4263 -29.3502 -29.2476 -29.2124 -29.1485 -27.4882 -27.4462
   -27.3094 -27.2514 -27.2445 -27.1878 -27.1606 -27.1091 -27.0841 -27.0314
   -27.0003 -26.9569 -26.9017 -26.6347 -26.5824 -26.5385 -26.4876 -26.4111
    -3.3300  -2.1651  -1.5226  -1.4435  -1.2591  -1.2347  -1.0594  -0.8428
    -0.5619  -0.4785  -0.4335  -0.4216  -0.2522  -0.1969  -0.0486   0.0920
     0.4003   0.5221   0.5594   0.8342   0.8631   0.9060   1.1002   1.2900
     1.4200   1.4873   1.5793   1.6731   1.7331   1.7339   1.8154   1.9068
     1.9751   2.1136   2.3220   2.4465   2.4792   2.6460

          k = 0.0286 0.0594 0.0000 ( 38057 PWs)   bands (ev):

   -53.7831 -53.7112 -53.6603 -53.5866 -53.5281 -53.4561 -48.6458 -48.5818
   -48.5807 -48.5164 -48.0285 -47.9639 -30.1100 -30.0769 -30.0237 -30.0153
   -29.8900 -29.8261 -29.7616 -29.7506 -29.6831 -29.6622 -29.5781 -29.5291
   -29.4486 -29.4263 -29.3501 -29.2477 -29.2121 -29.1486 -27.4906 -27.4486
   -27.3115 -27.2519 -27.2442 -27.1877 -27.1664 -27.1108 -27.0892 -27.0328
   -27.0003 -26.9570 -26.9036 -26.6352 -26.5824 -26.5421 -26.4887 -26.4112
    -3.0668  -1.9577  -1.6550  -1.4340  -1.1619  -1.1080  -1.0017  -0.7138
    -0.4143  -0.3916  -0.3632  -0.3122  -0.2096  -0.0487   0.0468   0.2315
     0.2857   0.5228   0.5460   0.7133   0.7643   0.7873   1.0112   1.1395
     1.2554   1.3457   1.4105   1.5039   1.5331   1.6523   1.7566   1.7660
     1.8379   2.1242   2.1253   2.3582   2.4297   2.4550

          k = 0.0286 0.0742 0.0000 ( 38014 PWs)   bands (ev):

   -53.7830 -53.7112 -53.6602 -53.5866 -53.5281 -53.4561 -48.6458 -48.5818
   -48.5807 -48.5164 -48.0286 -47.9639 -30.1084 -30.0757 -30.0232 -30.0144
   -29.8895 -29.8264 -29.7584 -29.7507 -29.6819 -29.6601 -29.5767 -29.5272
   -29.4491 -29.4263 -29.3501 -29.2478 -29.2120 -29.1486 -27.4923 -27.4503
   -27.3131 -27.2522 -27.2440 -27.1876 -27.1706 -27.1120 -27.0929 -27.0339
   -27.0004 -26.9570 -26.9050 -26.6357 -26.5824 -26.5446 -26.4895 -26.4112
    -2.7590  -2.0412  -1.6150  -1.3600  -1.1827  -1.1030  -0.7530  -0.5890
    -0.3633  -0.3165  -0.2960  -0.2469  -0.1804   0.0220   0.1146   0.2050
     0.3947   0.5230   0.5690   0.5811   0.6595   0.7346   0.9577   1.0350
     1.1001   1.1513   1.2833   1.3921   1.4370   1.5883   1.5950   1.7401
     1.7505   1.9592   2.1284   2.1487   2.4674   2.5257

          k = 0.0286 0.0891 0.0000 ( 38033 PWs)   bands (ev):

   -53.7831 -53.7112 -53.6602 -53.5866 -53.5281 -53.4561 -48.6459 -48.5818
   -48.5807 -48.5164 -48.0286 -47.9639 -30.1079 -30.0752 -30.0230 -30.0141
   -29.8894 -29.8265 -29.7572 -29.7508 -29.6814 -29.6594 -29.5762 -29.5265
   -29.4493 -29.4263 -29.3501 -29.2478 -29.2119 -29.1487 -27.4929 -27.4510
   -27.3136 -27.2524 -27.2439 -27.1876 -27.1722 -27.1124 -27.0942 -27.0343
   -27.0004 -26.9571 -26.9055 -26.6359 -26.5825 -26.5455 -26.4898 -26.4112
    -2.5133  -2.2741  -1.4382  -1.3303  -1.3053  -1.0802  -0.5688  -0.5288
    -0.4101  -0.3181  -0.2889  -0.2168  -0.1460  -0.0587   0.2037   0.2998
     0.3876   0.4690   0.5406   0.5785   0.6505   0.7917   0.8881   0.8926
     1.0776   1.1268   1.2620   1.3501   1.4082   1.4683   1.5708   1.6791
     1.7583   1.9488   2.0313   2.1249   2.5174   2.5873

          k = 0.0286-0.0742 0.0000 ( 38014 PWs)   bands (ev):

   -53.7830 -53.7112 -53.6602 -53.5866 -53.5281 -53.4561 -48.6458 -48.5818
   -48.5807 -48.5164 -48.0286 -47.9639 -30.1084 -30.0757 -30.0232 -30.0144
   -29.8895 -29.8264 -29.7584 -29.7507 -29.6819 -29.6601 -29.5767 -29.5272
   -29.4491 -29.4263 -29.3501 -29.2478 -29.2120 -29.1486 -27.4923 -27.4503
   -27.3131 -27.2522 -27.2440 -27.1876 -27.1706 -27.1120 -27.0929 -27.0339
   -27.0004 -26.9570 -26.9050 -26.6357 -26.5824 -26.5446 -26.4895 -26.4112
    -2.7590  -2.0412  -1.6150  -1.3600  -1.1827  -1.1030  -0.7530  -0.5890
    -0.3633  -0.3165  -0.2960  -0.2469  -0.1804   0.0220   0.1146   0.2050
     0.3947   0.5230   0.5690   0.5811   0.6595   0.7346   0.9577   1.0350
     1.1001   1.1513   1.2833   1.3921   1.4370   1.5883   1.5950   1.7401
     1.7505   1.9592   2.1283   2.1488   2.4673   2.5257

          k = 0.0286-0.0594 0.0000 ( 38057 PWs)   bands (ev):

   -53.7831 -53.7112 -53.6603 -53.5866 -53.5281 -53.4561 -48.6458 -48.5818
   -48.5807 -48.5164 -48.0285 -47.9639 -30.1100 -30.0769 -30.0237 -30.0153
   -29.8900 -29.8261 -29.7616 -29.7506 -29.6831 -29.6622 -29.5781 -29.5291
   -29.4486 -29.4263 -29.3501 -29.2477 -29.2121 -29.1486 -27.4906 -27.4486
   -27.3115 -27.2519 -27.2442 -27.1877 -27.1664 -27.1108 -27.0892 -27.0328
   -27.0003 -26.9570 -26.9036 -26.6352 -26.5824 -26.5421 -26.4887 -26.4112
    -3.0668  -1.9577  -1.6550  -1.4340  -1.1619  -1.1080  -1.0017  -0.7138
    -0.4143  -0.3916  -0.3632  -0.3122  -0.2096  -0.0487   0.0468   0.2315
     0.2857   0.5228   0.5460   0.7133   0.7643   0.7873   1.0112   1.1395
     1.2554   1.3457   1.4105   1.5039   1.5331   1.6523   1.7566   1.7660
     1.8379   2.1242   2.1252   2.3582   2.4297   2.4552

          k = 0.0286-0.0445 0.0000 ( 38042 PWs)   bands (ev):

   -53.7831 -53.7112 -53.6603 -53.5866 -53.5280 -53.4561 -48.6457 -48.5818
   -48.5806 -48.5164 -48.0285 -47.9639 -30.1122 -30.0786 -30.0244 -30.0166
   -29.8907 -29.8256 -29.7658 -29.7505 -29.6848 -29.6650 -29.5801 -29.5318
   -29.4479 -29.4263 -29.3502 -29.2476 -29.2124 -29.1485 -27.4882 -27.4462
   -27.3094 -27.2514 -27.2445 -27.1878 -27.1606 -27.1091 -27.0841 -27.0314
   -27.0003 -26.9569 -26.9017 -26.6347 -26.5824 -26.5385 -26.4876 -26.4111
    -3.3300  -2.1651  -1.5226  -1.4435  -1.2591  -1.2347  -1.0594  -0.8428
    -0.5619  -0.4785  -0.4335  -0.4216  -0.2522  -0.1968  -0.0486   0.0920
     0.4003   0.5221   0.5594   0.8342   0.8631   0.9060   1.1002   1.2900
     1.4200   1.4873   1.5793   1.6731   1.7331   1.7339   1.8154   1.9068
     1.9751   2.1137   2.3220   2.4468   2.4792   2.6460

          k = 0.0286-0.0297 0.0000 ( 38038 PWs)   bands (ev):

   -53.7832 -53.7111 -53.6604 -53.5865 -53.5280 -53.4561 -48.6456 -48.5818
   -48.5805 -48.5164 -48.0284 -47.9639 -30.1143 -30.0803 -30.0251 -30.0178
   -29.8913 -29.8253 -29.7700 -29.7503 -29.6865 -29.6678 -29.5820 -29.5344
   -29.4472 -29.4263 -29.3502 -29.2475 -29.2126 -29.1484 -27.4859 -27.4438
   -27.3074 -27.2509 -27.2449 -27.1878 -27.1549 -27.1074 -27.0790 -27.0299
   -27.0002 -26.9569 -26.8998 -26.6343 -26.5824 -26.5348 -26.4865 -26.4111
    -3.5286  -2.3448  -1.6010  -1.4428  -1.2998  -1.2895  -1.0526  -0.9471
    -0.6890  -0.5704  -0.5553  -0.4701  -0.3549  -0.2998  -0.1185  -0.0325
     0.4561   0.5180   0.6537   0.8358   0.8939   1.0854   1.2612   1.4277
     1.5281   1.5854   1.6785   1.8368   1.8457   1.9263   1.9428   2.0340
     2.1111   2.1958   2.3797   2.4912   2.7059   2.8799

          k = 0.0286-0.0148 0.0000 ( 38044 PWs)   bands (ev):

   -53.7832 -53.7111 -53.6605 -53.5865 -53.5280 -53.4561 -48.6456 -48.5818
   -48.5804 -48.5164 -48.0284 -47.9639 -30.1159 -30.0815 -30.0256 -30.0186
   -29.8917 -29.8251 -29.7730 -29.7502 -29.6878 -29.6699 -29.5833 -29.5363
   -29.4468 -29.4264 -29.3503 -29.2474 -29.2128 -29.1484 -27.4842 -27.4420
   -27.3058 -27.2505 -27.2452 -27.1879 -27.1507 -27.1062 -27.0752 -27.0288
   -27.0002 -26.9569 -26.8984 -26.6340 -26.5824 -26.5320 -26.4858 -26.4111
    -3.6516  -2.4596  -1.6535  -1.5550  -1.3432  -1.2305  -1.0237  -1.0137
    -0.7709  -0.6418  -0.6402  -0.5042  -0.4247  -0.3698  -0.2430  -0.0290
     0.4720   0.5208   0.7239   0.8160   0.8899   1.1834   1.4421   1.5159
     1.5860   1.6606   1.7408   1.9112   1.9310   2.0403   2.0801   2.1158
     2.1543   2.3807   2.4795   2.5399   2.7181   2.7809

          k = 0.0286 0.0000 0.0000 ( 37985 PWs)   bands (ev):

   -53.7832 -53.7110 -53.6605 -53.5864 -53.5280 -53.4560 -48.6456 -48.5818
   -48.5804 -48.5164 -48.0283 -47.9639 -30.1164 -30.0819 -30.0257 -30.0190
   -29.8919 -29.8250 -29.7741 -29.7502 -29.6882 -29.6706 -29.5838 -29.5370
   -29.4466 -29.4263 -29.3503 -29.2474 -29.2128 -29.1483 -27.4835 -27.4413
   -27.3053 -27.2504 -27.2453 -27.1879 -27.1491 -27.1057 -27.0738 -27.0284
   -27.0002 -26.9569 -26.8979 -26.6340 -26.5824 -26.5309 -26.4854 -26.4111
    -3.6932  -2.4988  -1.6718  -1.5936  -1.3583  -1.2200  -1.0366  -1.0033
    -0.7987  -0.6709  -0.6700  -0.5163  -0.4472  -0.3950  -0.2897  -0.0252
     0.4769   0.5230   0.7424   0.8118   0.8834   1.2079   1.5297   1.5450
     1.6104   1.6673   1.7981   1.9082   1.9668   2.0815   2.1179   2.1196
     2.2177   2.3845   2.5733   2.6985   2.7012   2.7316

          k = 0.0430 0.0223 0.0000 ( 38041 PWs)   bands (ev):

   -53.7766 -53.7178 -53.6537 -53.5933 -53.5215 -53.4628 -48.6398 -48.5877
   -48.5746 -48.5223 -48.0225 -47.9699 -30.1067 -30.0316 -30.0230 -29.9613
   -29.8349 -29.8184 -29.7636 -29.7570 -29.6938 -29.6606 -29.5898 -29.5276
   -29.4883 -29.4545 -29.4140 -29.3087 -29.2069 -29.1543 -27.4419 -27.3997
   -27.3014 -27.2562 -27.2398 -27.1930 -27.1487 -27.1123 -27.0730 -27.0466
   -27.0349 -27.0035 -26.8557 -26.6293 -26.5872 -26.5291 -26.4913 -26.4578
    -3.4049  -2.2249  -1.5144  -1.3646  -1.3602  -1.0738  -1.0248  -0.8366
    -0.7125  -0.4988  -0.4235  -0.3427  -0.3405  -0.2664  -0.1114   0.0866
     0.4879   0.5300   0.7253   0.8477   0.9202   1.1475   1.3021   1.3500
     1.3793   1.5087   1.7135   1.8193   1.8442   1.9040   1.9165   1.9981
     2.0998   2.1769   2.3173   2.4189   2.6327   2.7446

          k = 0.0430 0.0371 0.0000 ( 38054 PWs)   bands (ev):

   -53.7766 -53.7178 -53.6537 -53.5934 -53.5215 -53.4628 -48.6399 -48.5877
   -48.5747 -48.5223 -48.0226 -47.9699 -30.1050 -30.0312 -30.0216 -29.9603
   -29.8344 -29.8187 -29.7603 -29.7571 -29.6928 -29.6585 -29.5885 -29.5254
   -29.4884 -29.4552 -29.4141 -29.3089 -29.2067 -29.1544 -27.4438 -27.4016
   -27.3031 -27.2565 -27.2395 -27.1930 -27.1533 -27.1132 -27.0770 -27.0464
   -27.0357 -27.0033 -26.8573 -26.6297 -26.5872 -26.5321 -26.4918 -26.4576
    -3.2474  -2.0794  -1.4780  -1.3693  -1.2492  -1.1545  -0.9043  -0.8521
    -0.6145  -0.3978  -0.3618  -0.2834  -0.2625  -0.1681   0.0041   0.1059
     0.4699   0.5124   0.6322   0.8569   0.8829   0.9816   1.1475   1.2835
     1.3600   1.3918   1.5615   1.6747   1.7099   1.8050   1.8312   1.8849
     1.9685   2.1756   2.2149   2.3754   2.5006   2.6312

          k = 0.0430 0.0519 0.0000 ( 38064 PWs)   bands (ev):

   -53.7766 -53.7179 -53.6536 -53.5935 -53.5216 -53.4628 -48.6399 -48.5877
   -48.5748 -48.5223 -48.0226 -47.9699 -30.1030 -30.0308 -30.0200 -29.9591
   -29.8338 -29.8190 -29.7572 -29.7565 -29.6916 -29.6560 -29.5871 -29.5229
   -29.4886 -29.4561 -29.4143 -29.3091 -29.2065 -29.1545 -27.4460 -27.4039
   -27.3050 -27.2568 -27.2392 -27.1930 -27.1585 -27.1142 -27.0816 -27.0463
   -27.0366 -27.0031 -26.8591 -26.6301 -26.5872 -26.5354 -26.4925 -26.4575
    -3.0202  -1.8773  -1.4524  -1.3930  -1.3234  -1.0239  -0.8519  -0.7772
    -0.4809  -0.3015  -0.2853  -0.2032  -0.1754  -0.0337   0.0708   0.2273
     0.3676   0.5047   0.5587   0.7835   0.8281   0.8314   0.9772   1.1751
     1.2584   1.3012   1.4519   1.4589   1.5850   1.6142   1.7657   1.7824
     1.8782   2.0989   2.2098   2.3195   2.3309   2.4396

          k = 0.0430 0.0668 0.0000 ( 38070 PWs)   bands (ev):

   -53.7765 -53.7179 -53.6535 -53.5935 -53.5216 -53.4628 -48.6400 -48.5877
   -48.5748 -48.5223 -48.0227 -47.9699 -30.1013 -30.0305 -30.0185 -29.9581
   -29.8332 -29.8194 -29.7573 -29.7531 -29.6906 -29.6538 -29.5858 -29.5207
   -29.4888 -29.4569 -29.4144 -29.3092 -29.2063 -29.1545 -27.4479 -27.4058
   -27.3066 -27.2570 -27.2390 -27.1929 -27.1629 -27.1151 -27.0856 -27.0462
   -27.0374 -27.0030 -26.8606 -26.6306 -26.5872 -26.5382 -26.4931 -26.4574
    -2.7359  -1.7425  -1.5579  -1.4349  -1.2554  -0.9536  -0.7419  -0.6559
    -0.3574  -0.2539  -0.2003  -0.1271  -0.1217   0.0899   0.1614   0.2062
     0.3556   0.5067   0.5376   0.6260   0.7292   0.7829   0.8714   1.0883
     1.1070   1.1972   1.2109   1.4047   1.4516   1.5119   1.6542   1.7749
     1.8043   1.9075   2.1693   2.2201   2.3792   2.3977

          k = 0.0430 0.0816 0.0000 ( 38063 PWs)   bands (ev):

   -53.7765 -53.7179 -53.6535 -53.5935 -53.5216 -53.4628 -48.6400 -48.5877
   -48.5749 -48.5223 -48.0227 -47.9698 -30.1003 -30.0303 -30.0177 -29.9575
   -29.8329 -29.8196 -29.7574 -29.7511 -29.6901 -29.6525 -29.5850 -29.5194
   -29.4889 -29.4573 -29.4145 -29.3093 -29.2062 -29.1546 -27.4489 -27.4069
   -27.3076 -27.2572 -27.2388 -27.1929 -27.1655 -27.1157 -27.0878 -27.0462
   -27.0378 -27.0030 -26.8615 -26.6309 -26.5871 -26.5397 -26.4935 -26.4574
    -2.4235  -2.0201  -1.4235  -1.3433  -1.2070  -1.0797  -0.5719  -0.5094
    -0.3047  -0.2431  -0.1560  -0.1544  -0.1003   0.0666   0.1831   0.3242
     0.4195   0.4416   0.5475   0.5886   0.6957   0.7215   0.8428   0.8921
     0.9980   1.1459   1.1657   1.3491   1.3960   1.4775   1.4992   1.7581
     1.8027   1.8529   1.9859   2.1944   2.4995   2.5062

          k = 0.0430 0.0965 0.0000 ( 38063 PWs)   bands (ev):

   -53.7765 -53.7179 -53.6535 -53.5935 -53.5216 -53.4628 -48.6400 -48.5877
   -48.5749 -48.5223 -48.0227 -47.9698 -30.1003 -30.0303 -30.0177 -29.9575
   -29.8329 -29.8196 -29.7574 -29.7511 -29.6901 -29.6525 -29.5850 -29.5194
   -29.4889 -29.4573 -29.4145 -29.3093 -29.2062 -29.1546 -27.4489 -27.4069
   -27.3076 -27.2572 -27.2388 -27.1929 -27.1655 -27.1157 -27.0878 -27.0462
   -27.0378 -27.0030 -26.8615 -26.6309 -26.5871 -26.5397 -26.4935 -26.4574
    -2.4235  -2.0201  -1.4235  -1.3433  -1.2070  -1.0797  -0.5719  -0.5094
    -0.3047  -0.2431  -0.1560  -0.1544  -0.1003   0.0666   0.1831   0.3242
     0.4195   0.4416   0.5475   0.5886   0.6957   0.7215   0.8428   0.8921
     0.9980   1.1459   1.1656   1.3491   1.3960   1.4775   1.4992   1.7581
     1.8027   1.8530   1.9860   2.1944   2.4999   2.5067

          k = 0.0430-0.0668 0.0000 ( 38070 PWs)   bands (ev):

   -53.7765 -53.7179 -53.6535 -53.5935 -53.5216 -53.4628 -48.6400 -48.5877
   -48.5748 -48.5223 -48.0227 -47.9699 -30.1013 -30.0305 -30.0185 -29.9581
   -29.8332 -29.8194 -29.7573 -29.7531 -29.6906 -29.6538 -29.5858 -29.5207
   -29.4888 -29.4569 -29.4144 -29.3092 -29.2063 -29.1545 -27.4479 -27.4058
   -27.3066 -27.2570 -27.2390 -27.1929 -27.1629 -27.1151 -27.0856 -27.0462
   -27.0374 -27.0030 -26.8606 -26.6306 -26.5872 -26.5382 -26.4931 -26.4574
    -2.7359  -1.7425  -1.5579  -1.4350  -1.2554  -0.9536  -0.7418  -0.6559
    -0.3574  -0.2539  -0.2003  -0.1271  -0.1217   0.0899   0.1614   0.2062
     0.3556   0.5067   0.5376   0.6260   0.7292   0.7829   0.8714   1.0883
     1.1070   1.1973   1.2108   1.4047   1.4516   1.5119   1.6542   1.7749
     1.8043   1.9074   2.1694   2.2203   2.3793   2.3976

          k = 0.0430-0.0519 0.0000 ( 38064 PWs)   bands (ev):

   -53.7766 -53.7179 -53.6536 -53.5935 -53.5216 -53.4628 -48.6399 -48.5877
   -48.5748 -48.5223 -48.0226 -47.9699 -30.1030 -30.0308 -30.0200 -29.9591
   -29.8338 -29.8190 -29.7572 -29.7565 -29.6916 -29.6560 -29.5871 -29.5229
   -29.4886 -29.4561 -29.4143 -29.3091 -29.2065 -29.1545 -27.4460 -27.4039
   -27.3050 -27.2568 -27.2392 -27.1930 -27.1585 -27.1142 -27.0816 -27.0463
   -27.0366 -27.0031 -26.8591 -26.6301 -26.5872 -26.5354 -26.4925 -26.4575
    -3.0202  -1.8773  -1.4524  -1.3930  -1.3234  -1.0239  -0.8519  -0.7772
    -0.4809  -0.3015  -0.2853  -0.2032  -0.1754  -0.0337   0.0708   0.2273
     0.3676   0.5047   0.5587   0.7835   0.8281   0.8314   0.9772   1.1751
     1.2584   1.3012   1.4519   1.4590   1.5850   1.6142   1.7657   1.7824
     1.8782   2.0989   2.2099   2.3195   2.3308   2.4394

          k = 0.0430-0.0371 0.0000 ( 38054 PWs)   bands (ev):

   -53.7766 -53.7178 -53.6537 -53.5934 -53.5215 -53.4628 -48.6399 -48.5877
   -48.5747 -48.5223 -48.0226 -47.9699 -30.1050 -30.0312 -30.0216 -29.9603
   -29.8344 -29.8187 -29.7603 -29.7571 -29.6928 -29.6585 -29.5885 -29.5254
   -29.4884 -29.4552 -29.4141 -29.3089 -29.2067 -29.1544 -27.4438 -27.4016
   -27.3031 -27.2565 -27.2395 -27.1930 -27.1533 -27.1132 -27.0770 -27.0464
   -27.0357 -27.0033 -26.8573 -26.6297 -26.5872 -26.5321 -26.4918 -26.4576
    -3.2474  -2.0794  -1.4780  -1.3693  -1.2492  -1.1545  -0.9043  -0.8521
    -0.6145  -0.3978  -0.3618  -0.2834  -0.2625  -0.1681   0.0041   0.1059
     0.4699   0.5124   0.6322   0.8569   0.8829   0.9816   1.1475   1.2835
     1.3600   1.3918   1.5615   1.6747   1.7099   1.8050   1.8312   1.8849
     1.9684   2.1755   2.2149   2.3752   2.5026   2.6310

          k = 0.0430-0.0223 0.0000 ( 38041 PWs)   bands (ev):

   -53.7766 -53.7178 -53.6537 -53.5933 -53.5215 -53.4628 -48.6398 -48.5877
   -48.5746 -48.5223 -48.0225 -47.9699 -30.1067 -30.0316 -30.0230 -29.9613
   -29.8349 -29.8184 -29.7636 -29.7570 -29.6938 -29.6606 -29.5898 -29.5276
   -29.4883 -29.4545 -29.4140 -29.3087 -29.2069 -29.1543 -27.4419 -27.3997
   -27.3014 -27.2562 -27.2398 -27.1930 -27.1487 -27.1123 -27.0730 -27.0466
   -27.0349 -27.0035 -26.8557 -26.6293 -26.5872 -26.5291 -26.4913 -26.4578
    -3.4049  -2.2249  -1.5144  -1.3646  -1.3602  -1.0738  -1.0248  -0.8366
    -0.7125  -0.4988  -0.4235  -0.3427  -0.3405  -0.2664  -0.1114   0.0866
     0.4879   0.5301   0.7253   0.8477   0.9202   1.1475   1.3021   1.3500
     1.3793   1.5087   1.7135   1.8193   1.8442   1.9040   1.9166   1.9982
     2.0998   2.1769   2.3175   2.4189   2.6326   2.7467

          k = 0.0430-0.0074 0.0000 ( 38026 PWs)   bands (ev):

   -53.7767 -53.7178 -53.6538 -53.5933 -53.5214 -53.4627 -48.6398 -48.5877
   -48.5746 -48.5223 -48.0225 -47.9699 -30.1076 -30.0318 -30.0238 -29.9619
   -29.8352 -29.8183 -29.7655 -29.7570 -29.6944 -29.6619 -29.5905 -29.5288
   -29.4882 -29.4540 -29.4140 -29.3086 -29.2070 -29.1542 -27.4408 -27.3985
   -27.3005 -27.2561 -27.2400 -27.1931 -27.1460 -27.1118 -27.0706 -27.0467
   -27.0344 -27.0036 -26.8548 -26.6292 -26.5873 -26.5273 -26.4909 -26.4579
    -3.4853  -2.3001  -1.5393  -1.4295  -1.3318  -1.1160  -1.0438  -0.8085
    -0.7599  -0.5562  -0.4671  -0.3859  -0.3691  -0.3217  -0.1849   0.0887
     0.4916   0.5459   0.7775   0.8281   0.9336   1.2145   1.3298   1.4332
     1.4404   1.5804   1.7935   1.8693   1.9312   1.9934   2.0068   2.0406
     2.1590   2.1650   2.4482   2.5138   2.6141   2.6437

          k = 0.0430 0.0074 0.0000 ( 38026 PWs)   bands (ev):

   -53.7767 -53.7178 -53.6538 -53.5933 -53.5214 -53.4627 -48.6398 -48.5877
   -48.5746 -48.5223 -48.0225 -47.9699 -30.1076 -30.0318 -30.0238 -29.9619
   -29.8352 -29.8183 -29.7655 -29.7570 -29.6944 -29.6619 -29.5905 -29.5288
   -29.4882 -29.4540 -29.4140 -29.3086 -29.2070 -29.1542 -27.4408 -27.3985
   -27.3005 -27.2561 -27.2400 -27.1931 -27.1460 -27.1118 -27.0706 -27.0467
   -27.0344 -27.0036 -26.8548 -26.6292 -26.5873 -26.5273 -26.4909 -26.4579
    -3.4853  -2.3001  -1.5393  -1.4295  -1.3318  -1.1160  -1.0438  -0.8085
    -0.7599  -0.5562  -0.4671  -0.3859  -0.3691  -0.3217  -0.1849   0.0887
     0.4916   0.5459   0.7775   0.8281   0.9336   1.2145   1.3298   1.4332
     1.4404   1.5804   1.7935   1.8692   1.9314   1.9935   2.0068   2.0405
     2.1590   2.1650   2.4481   2.5133   2.6134   2.6422

          k = 0.0573 0.0297 0.0000 ( 38080 PWs)   bands (ev):

   -53.7681 -53.7265 -53.6450 -53.6023 -53.5130 -53.4715 -48.6322 -48.5954
   -48.5670 -48.5301 -48.0149 -47.9776 -30.0949 -30.0416 -29.9466 -29.8837
   -29.8097 -29.7690 -29.7571 -29.7518 -29.7022 -29.6490 -29.5987 -29.5684
   -29.5164 -29.4964 -29.4646 -29.3879 -29.1992 -29.1620 -27.3862 -27.3439
   -27.2955 -27.2635 -27.2328 -27.1998 -27.1457 -27.1196 -27.1064 -27.0707
   -27.0621 -27.0422 -26.7995 -26.6233 -26.5935 -26.5258 -26.5172 -26.4981
    -3.0805  -1.9266  -1.6026  -1.2893  -1.1351  -0.9627  -0.9018  -0.6618
    -0.6045  -0.4143  -0.2082  -0.2028  -0.1258  -0.0880   0.0695   0.2299
     0.4778   0.5254   0.6951   0.8113   0.8566   1.0327   1.1761   1.2489
     1.2620   1.3606   1.4388   1.5704   1.7039   1.7503   1.8393   1.8974
     1.9074   2.1528   2.2048   2.3704   2.4416   2.5017

          k = 0.0573 0.0445 0.0000 ( 38070 PWs)   bands (ev):

   -53.7681 -53.7265 -53.6449 -53.6023 -53.5130 -53.4714 -48.6323 -48.5954
   -48.5671 -48.5301 -48.0149 -47.9776 -30.0933 -30.0416 -29.9452 -29.8826
   -29.8100 -29.7690 -29.7566 -29.7487 -29.7018 -29.6471 -29.5979 -29.5688
   -29.5142 -29.4967 -29.4657 -29.3882 -29.1990 -29.1621 -27.3880 -27.3457
   -27.2970 -27.2635 -27.2326 -27.1998 -27.1499 -27.1197 -27.1059 -27.0741
   -27.0619 -27.0423 -26.8010 -26.6236 -26.5934 -26.5284 -26.5169 -26.4981
    -2.8962  -1.7610  -1.6903  -1.2440  -1.1220  -0.9312  -0.8396  -0.6179
    -0.5473  -0.3387  -0.1585  -0.1099  -0.0310  -0.0147   0.1557   0.2836
     0.4852   0.4956   0.5464   0.7692   0.8358   0.8792   1.0359   1.1877
     1.1885   1.2432   1.4215   1.4358   1.5999   1.6102   1.7213   1.8444
     1.8658   2.0173   2.1989   2.2567   2.3870   2.4222

          k = 0.0573 0.0594 0.0000 ( 38074 PWs)   bands (ev):

   -53.7680 -53.7266 -53.6448 -53.6024 -53.5130 -53.4715 -48.6323 -48.5953
   -48.5672 -48.5300 -48.0150 -47.9776 -30.0917 -30.0415 -29.9438 -29.8816
   -29.8103 -29.7690 -29.7561 -29.7456 -29.7014 -29.6452 -29.5971 -29.5692
   -29.5120 -29.4970 -29.4668 -29.3885 -29.1988 -29.1622 -27.3898 -27.3475
   -27.2985 -27.2635 -27.2324 -27.1998 -27.1539 -27.1199 -27.1056 -27.0772
   -27.0620 -27.0425 -26.8024 -26.6240 -26.5933 -26.5306 -26.5169 -26.4983
    -2.6493  -1.7495  -1.5510  -1.3383  -1.1877  -0.8024  -0.7410  -0.6205
    -0.4273  -0.2640  -0.1099  -0.0345   0.0268   0.1287   0.2125   0.3345
     0.3686   0.4990   0.4992   0.6806   0.7911   0.8442   0.8474   1.0840
     1.1193   1.1293   1.2733   1.3893   1.4872   1.4976   1.6176   1.7933
     1.8194   1.9154   2.1104   2.2427   2.3418   2.3881

          k = 0.0573 0.0742 0.0000 ( 38076 PWs)   bands (ev):

   -53.7680 -53.7266 -53.6447 -53.6024 -53.5131 -53.4715 -48.6324 -48.5953
   -48.5672 -48.5300 -48.0150 -47.9776 -30.0906 -30.0415 -29.9428 -29.8808
   -29.8105 -29.7690 -29.7557 -29.7433 -29.7012 -29.6438 -29.5965 -29.5695
   -29.5104 -29.4972 -29.4676 -29.3887 -29.1986 -29.1623 -27.3911 -27.3489
   -27.2996 -27.2635 -27.2322 -27.1998 -27.1567 -27.1200 -27.1055 -27.0793
   -27.0622 -27.0426 -26.8035 -26.6244 -26.5933 -26.5321 -26.5170 -26.4983
    -2.3544  -1.7826  -1.6653  -1.2804  -1.1380  -0.8240  -0.6590  -0.5065
    -0.3780  -0.1944  -0.0771   0.0161   0.0384   0.1940   0.2199   0.2824
     0.4263   0.4599   0.5471   0.5961   0.7278   0.7996   0.8379   0.9658
     0.9899   1.0587   1.2007   1.3104   1.4055   1.4263   1.5425   1.7146
     1.8329   1.8483   1.9697   2.2696   2.4054   2.4619

          k = 0.0573 0.0891 0.0000 ( 38093 PWs)   bands (ev):

   -53.7680 -53.7266 -53.6447 -53.6025 -53.5131 -53.4715 -48.6324 -48.5953
   -48.5672 -48.5300 -48.0150 -47.9776 -30.0902 -30.0414 -29.9424 -29.8805
   -29.8106 -29.7690 -29.7556 -29.7425 -29.7011 -29.6433 -29.5963 -29.5696
   -29.5098 -29.4973 -29.4679 -29.3887 -29.1986 -29.1623 -27.3915 -27.3493
   -27.3000 -27.2635 -27.2322 -27.1998 -27.1577 -27.1200 -27.1055 -27.0800
   -27.0623 -27.0426 -26.8039 -26.6245 -26.5933 -26.5327 -26.5170 -26.4984
    -2.0945  -1.9294  -1.7931  -1.1176  -1.0813  -0.9671  -0.6217  -0.3917
    -0.3788  -0.1617  -0.0900  -0.0124   0.0388   0.2104   0.2358   0.3006
     0.3427   0.5335   0.5579   0.6500   0.7353   0.7709   0.8039   0.8636
     0.9088   1.0371   1.2195   1.2783   1.3689   1.3917   1.5263   1.6797
     1.8194   1.8692   1.8834   2.2700   2.5233   2.6269

          k = 0.0573 0.1039 0.0000 ( 38076 PWs)   bands (ev):

   -53.7680 -53.7266 -53.6447 -53.6024 -53.5131 -53.4715 -48.6324 -48.5953
   -48.5672 -48.5300 -48.0150 -47.9776 -30.0906 -30.0415 -29.9428 -29.8808
   -29.8105 -29.7690 -29.7557 -29.7433 -29.7012 -29.6438 -29.5965 -29.5695
   -29.5104 -29.4972 -29.4676 -29.3887 -29.1986 -29.1623 -27.3911 -27.3489
   -27.2996 -27.2635 -27.2322 -27.1998 -27.1567 -27.1200 -27.1055 -27.0793
   -27.0622 -27.0426 -26.8035 -26.6244 -26.5933 -26.5321 -26.5170 -26.4983
    -2.3544  -1.7826  -1.6653  -1.2804  -1.1380  -0.8240  -0.6590  -0.5065
    -0.3780  -0.1944  -0.0771   0.0161   0.0384   0.1940   0.2199   0.2824
     0.4263   0.4599   0.5471   0.5961   0.7278   0.7996   0.8379   0.9658
     0.9899   1.0587   1.2007   1.3104   1.4056   1.4262   1.5425   1.7145
     1.8329   1.8484   1.9697   2.2699   2.4054   2.4618

          k = 0.0573-0.0594 0.0000 ( 38074 PWs)   bands (ev):

   -53.7680 -53.7266 -53.6448 -53.6024 -53.5130 -53.4715 -48.6323 -48.5953
   -48.5672 -48.5300 -48.0150 -47.9776 -30.0917 -30.0415 -29.9438 -29.8816
   -29.8103 -29.7690 -29.7561 -29.7456 -29.7014 -29.6452 -29.5971 -29.5692
   -29.5120 -29.4970 -29.4668 -29.3885 -29.1988 -29.1622 -27.3898 -27.3475
   -27.2985 -27.2635 -27.2324 -27.1998 -27.1539 -27.1199 -27.1056 -27.0772
   -27.0620 -27.0425 -26.8024 -26.6240 -26.5933 -26.5306 -26.5169 -26.4983
    -2.6493  -1.7495  -1.5510  -1.3383  -1.1877  -0.8024  -0.7410  -0.6205
    -0.4273  -0.2640  -0.1099  -0.0345   0.0268   0.1287   0.2125   0.3345
     0.3686   0.4990   0.4992   0.6806   0.7911   0.8442   0.8474   1.0840
     1.1193   1.1293   1.2732   1.3893   1.4872   1.4976   1.6176   1.7932
     1.8194   1.9153   2.1104   2.2427   2.3417   2.3881

          k = 0.0573-0.0445 0.0000 ( 38070 PWs)   bands (ev):

   -53.7681 -53.7265 -53.6449 -53.6023 -53.5130 -53.4714 -48.6323 -48.5954
   -48.5671 -48.5301 -48.0149 -47.9776 -30.0933 -30.0416 -29.9452 -29.8826
   -29.8100 -29.7690 -29.7566 -29.7487 -29.7018 -29.6471 -29.5979 -29.5688
   -29.5142 -29.4967 -29.4657 -29.3882 -29.1990 -29.1621 -27.3880 -27.3457
   -27.2970 -27.2635 -27.2326 -27.1998 -27.1499 -27.1197 -27.1059 -27.0741
   -27.0619 -27.0423 -26.8010 -26.6236 -26.5934 -26.5284 -26.5169 -26.4981
    -2.8962  -1.7610  -1.6903  -1.2440  -1.1220  -0.9312  -0.8396  -0.6179
    -0.5473  -0.3387  -0.1585  -0.1099  -0.0310  -0.0147   0.1557   0.2836
     0.4852   0.4956   0.5464   0.7692   0.8358   0.8792   1.0359   1.1877
     1.1885   1.2432   1.4215   1.4358   1.5999   1.6102   1.7213   1.8444
     1.8658   2.0174   2.1990   2.2570   2.3872   2.4224

          k = 0.0573-0.0297 0.0000 ( 38080 PWs)   bands (ev):

   -53.7681 -53.7265 -53.6450 -53.6023 -53.5130 -53.4715 -48.6322 -48.5954
   -48.5670 -48.5301 -48.0149 -47.9776 -30.0949 -30.0416 -29.9466 -29.8837
   -29.8097 -29.7689 -29.7571 -29.7518 -29.7022 -29.6490 -29.5987 -29.5684
   -29.5164 -29.4964 -29.4646 -29.3879 -29.1992 -29.1620 -27.3862 -27.3439
   -27.2955 -27.2635 -27.2328 -27.1998 -27.1457 -27.1196 -27.1064 -27.0707
   -27.0621 -27.0422 -26.7995 -26.6233 -26.5935 -26.5258 -26.5172 -26.4981
    -3.0805  -1.9266  -1.6026  -1.2893  -1.1351  -0.9627  -0.9018  -0.6618
    -0.6045  -0.4143  -0.2082  -0.2028  -0.1258  -0.0880   0.0695   0.2299
     0.4778   0.5254   0.6951   0.8113   0.8566   1.0327   1.1761   1.2489
     1.2620   1.3606   1.4388   1.5704   1.7039   1.7503   1.8395   1.8975
     1.9074   2.1532   2.2048   2.3704   2.4424   2.5018

          k = 0.0573-0.0148 0.0000 ( 38067 PWs)   bands (ev):

   -53.7681 -53.7265 -53.6450 -53.6022 -53.5130 -53.4714 -48.6322 -48.5954
   -48.5670 -48.5301 -48.0148 -47.9777 -30.0960 -30.0416 -29.9476 -29.8845
   -29.8095 -29.7689 -29.7575 -29.7540 -29.7025 -29.6504 -29.5993 -29.5681
   -29.5180 -29.4961 -29.4639 -29.3877 -29.1993 -29.1619 -27.3849 -27.3425
   -27.2944 -27.2635 -27.2330 -27.1998 -27.1426 -27.1195 -27.1069 -27.0675
   -27.0628 -27.0422 -26.7984 -26.6231 -26.5936 -26.5235 -26.5178 -26.4980
    -3.1941  -2.0299  -1.4930  -1.3106  -1.2140  -1.1166  -0.8476  -0.7213
    -0.5732  -0.4678  -0.2815  -0.2501  -0.1964  -0.1308  -0.0167   0.2197
     0.4717   0.5652   0.7730   0.7872   0.9492   1.1261   1.2224   1.2827
     1.2954   1.4143   1.5523   1.6691   1.7560   1.8862   1.9009   1.9340
     1.9913   2.2186   2.3631   2.3689   2.5759   2.5799

          k = 0.0573 0.0000 0.0000 ( 38037 PWs)   bands (ev):

   -53.7681 -53.7264 -53.6450 -53.6022 -53.5129 -53.4714 -48.6322 -48.5954
   -48.5670 -48.5301 -48.0148 -47.9777 -30.0965 -30.0417 -29.9479 -29.8847
   -29.8095 -29.7689 -29.7576 -29.7547 -29.7026 -29.6509 -29.5995 -29.5680
   -29.5186 -29.4961 -29.4636 -29.3876 -29.1994 -29.1619 -27.3844 -27.3420
   -27.2940 -27.2635 -27.2331 -27.1998 -27.1413 -27.1195 -27.1071 -27.0657
   -27.0638 -27.0421 -26.7980 -26.6230 -26.5936 -26.5223 -26.5183 -26.4980
    -3.2324  -2.0650  -1.4230  -1.2804  -1.2431  -1.2429  -0.8357  -0.7368
    -0.5534  -0.4858  -0.3139  -0.2687  -0.2215  -0.1466  -0.0486   0.2184
     0.4700   0.5876   0.7499   0.8187   1.0313   1.0690   1.2549   1.2989
     1.3124   1.4520   1.5895   1.7109   1.7684   1.8920   1.9549   1.9714
     2.0448   2.2733   2.3181   2.4825   2.5281   2.5407

          k = 0.0573 0.0148 0.0000 ( 38067 PWs)   bands (ev):

   -53.7681 -53.7265 -53.6450 -53.6022 -53.5130 -53.4714 -48.6322 -48.5954
   -48.5670 -48.5301 -48.0148 -47.9777 -30.0960 -30.0416 -29.9476 -29.8845
   -29.8095 -29.7689 -29.7575 -29.7540 -29.7025 -29.6504 -29.5993 -29.5681
   -29.5180 -29.4961 -29.4639 -29.3877 -29.1993 -29.1619 -27.3849 -27.3425
   -27.2944 -27.2635 -27.2330 -27.1998 -27.1426 -27.1195 -27.1069 -27.0675
   -27.0628 -27.0422 -26.7984 -26.6231 -26.5936 -26.5235 -26.5178 -26.4980
    -3.1941  -2.0299  -1.4930  -1.3106  -1.2140  -1.1166  -0.8476  -0.7213
    -0.5732  -0.4678  -0.2815  -0.2501  -0.1964  -0.1308  -0.0167   0.2197
     0.4717   0.5652   0.7730   0.7872   0.9492   1.1261   1.2224   1.2827
     1.2954   1.4143   1.5523   1.6691   1.7560   1.8861   1.9010   1.9340
     1.9914   2.2188   2.3630   2.3700   2.5738   2.5830

          k = 0.0716 0.0371 0.0000 ( 38056 PWs)   bands (ev):

   -53.7581 -53.7365 -53.6347 -53.6126 -53.5030 -53.4815 -48.6234 -48.6043
   -48.5582 -48.5390 -48.0059 -47.9867 -30.0815 -30.0539 -29.8568 -29.7996
   -29.7940 -29.7751 -29.7387 -29.7128 -29.6713 -29.6610 -29.6358 -29.6097
   -29.5911 -29.5036 -29.4791 -29.4767 -29.1902 -29.1709 -27.3205 -27.2883
   -27.2783 -27.2714 -27.2248 -27.2076 -27.1763 -27.1402 -27.1328 -27.1272
   -27.0637 -27.0500 -26.7332 -26.6163 -26.6007 -26.5875 -26.5191 -26.5054
    -2.7010  -1.9138  -1.6027  -1.1879  -0.9422  -0.8995  -0.7362  -0.6144
    -0.4088  -0.4012  -0.0922  -0.0402   0.0857   0.1155   0.2647   0.3970
     0.4047   0.5004   0.6379   0.7974   0.8044   0.9237   0.9744   1.1490
     1.1660   1.1969   1.2588   1.4604   1.5184   1.6060   1.6415   1.8531
     1.8886   2.0078   2.1373   2.1401   2.3013   2.3948

          k = 0.0716 0.0519 0.0000 ( 38102 PWs)   bands (ev):

   -53.7581 -53.7366 -53.6346 -53.6127 -53.5031 -53.4815 -48.6234 -48.6043
   -48.5582 -48.5390 -48.0060 -47.9866 -30.0802 -30.0542 -29.8556 -29.7998
   -29.7929 -29.7753 -29.7364 -29.7133 -29.6708 -29.6617 -29.6345 -29.6096
   -29.5917 -29.5016 -29.4794 -29.4782 -29.1900 -29.1711 -27.3219 -27.2895
   -27.2797 -27.2712 -27.2247 -27.2077 -27.1756 -27.1432 -27.1321 -27.1263
   -27.0666 -27.0492 -26.7344 -26.6166 -26.6006 -26.5868 -26.5212 -26.5048
    -2.5019  -2.0438  -1.4380  -1.2123  -1.0516  -0.7849  -0.7244  -0.4987
    -0.4474  -0.3617  -0.0259  -0.0071   0.1370   0.1521   0.3404   0.4025
     0.4408   0.5244   0.5308   0.6572   0.8437   0.8679   0.9181   1.0318
     1.1280   1.1348   1.2130   1.4064   1.4510   1.5547   1.6133   1.7790
     1.8806   1.9214   2.0182   2.1496   2.3227   2.3884

          k = 0.0716 0.0668 0.0000 ( 38081 PWs)   bands (ev):

   -53.7580 -53.7366 -53.6345 -53.6127 -53.5031 -53.4815 -48.6235 -48.6043
   -48.5583 -48.5390 -48.0060 -47.9866 -30.0792 -30.0546 -29.8545 -29.8000
   -29.7918 -29.7756 -29.7342 -29.7138 -29.6704 -29.6623 -29.6332 -29.6095
   -29.5923 -29.4998 -29.4798 -29.4794 -29.1898 -29.1712 -27.3232 -27.2905
   -27.2810 -27.2708 -27.2246 -27.2078 -27.1746 -27.1462 -27.1314 -27.1255
   -27.0691 -27.0485 -26.7355 -26.6169 -26.6005 -26.5863 -26.5230 -26.5043
    -2.2492  -2.1309  -1.3199  -1.2266  -1.2256  -0.6970  -0.6807  -0.4635
    -0.4451  -0.3050  -0.0289   0.0735   0.1544   0.1943   0.3286   0.3863
     0.4703   0.4723   0.5369   0.6202   0.7706   0.8916   0.9317   0.9570
     1.0395   1.0967   1.1971   1.3024   1.4402   1.4996   1.5252   1.6681
     1.8243   1.9011   2.0017   2.2409   2.3146   2.4970

          k = 0.0716 0.0816 0.0000 ( 38065 PWs)   bands (ev):

   -53.7580 -53.7367 -53.6345 -53.6128 -53.5030 -53.4815 -48.6235 -48.6043
   -48.5583 -48.5390 -48.0060 -47.9866 -30.0785 -30.0547 -29.8539 -29.8002
   -29.7912 -29.7757 -29.7330 -29.7140 -29.6701 -29.6628 -29.6324 -29.6094
   -29.5927 -29.4987 -29.4801 -29.4800 -29.1898 -29.1713 -27.3239 -27.2911
   -27.2817 -27.2706 -27.2245 -27.2078 -27.1739 -27.1480 -27.1309 -27.1251
   -27.0706 -27.0481 -26.7361 -26.6170 -26.6004 -26.5860 -26.5240 -26.5041
    -2.1745  -1.9599  -1.6206  -1.2322  -1.0095  -0.7919  -0.6264  -0.4641
    -0.4037  -0.2593  -0.0371   0.1272   0.1697   0.2145   0.2257   0.3849
     0.3954   0.5351   0.5598   0.7005   0.7631   0.8348   0.8735   0.9276
     1.0182   1.0873   1.1870   1.2743   1.4259   1.4286   1.4737   1.6291
     1.7445   1.9211   1.9748   2.3189   2.4206   2.5891

          k = 0.0716 0.0965 0.0000 ( 38065 PWs)   bands (ev):

   -53.7580 -53.7367 -53.6345 -53.6128 -53.5030 -53.4815 -48.6235 -48.6043
   -48.5583 -48.5390 -48.0060 -47.9866 -30.0785 -30.0547 -29.8539 -29.8002
   -29.7912 -29.7757 -29.7330 -29.7140 -29.6701 -29.6628 -29.6324 -29.6094
   -29.5927 -29.4987 -29.4801 -29.4800 -29.1898 -29.1713 -27.3239 -27.2911
   -27.2817 -27.2706 -27.2245 -27.2078 -27.1739 -27.1480 -27.1309 -27.1251
   -27.0706 -27.0481 -26.7361 -26.6170 -26.6004 -26.5860 -26.5240 -26.5041
    -2.1745  -1.9599  -1.6206  -1.2322  -1.0095  -0.7919  -0.6264  -0.4641
    -0.4037  -0.2593  -0.0371   0.1272   0.1697   0.2145   0.2256   0.3849
     0.3954   0.5351   0.5598   0.7005   0.7631   0.8348   0.8735   0.9276
     1.0182   1.0873   1.1870   1.2743   1.4259   1.4286   1.4737   1.6291
     1.7445   1.9212   1.9748   2.3188   2.4206   2.5915

          k = 0.0716 0.1113 0.0000 ( 38081 PWs)   bands (ev):

   -53.7580 -53.7366 -53.6345 -53.6127 -53.5031 -53.4815 -48.6235 -48.6043
   -48.5583 -48.5390 -48.0060 -47.9866 -30.0792 -30.0546 -29.8545 -29.8000
   -29.7918 -29.7756 -29.7342 -29.7138 -29.6704 -29.6623 -29.6332 -29.6095
   -29.5923 -29.4998 -29.4798 -29.4794 -29.1898 -29.1712 -27.3232 -27.2905
   -27.2810 -27.2708 -27.2246 -27.2078 -27.1746 -27.1462 -27.1314 -27.1255
   -27.0691 -27.0485 -26.7355 -26.6169 -26.6005 -26.5863 -26.5230 -26.5043
    -2.2492  -2.1309  -1.3199  -1.2266  -1.2256  -0.6970  -0.6807  -0.4635
    -0.4451  -0.3050  -0.0289   0.0735   0.1544   0.1943   0.3286   0.3863
     0.4703   0.4723   0.5369   0.6202   0.7706   0.8916   0.9317   0.9570
     1.0395   1.0967   1.1971   1.3024   1.4403   1.4996   1.5252   1.6681
     1.8243   1.9012   2.0017   2.2409   2.3144   2.4976

          k = 0.0716-0.0519 0.0000 ( 38102 PWs)   bands (ev):

   -53.7581 -53.7366 -53.6346 -53.6127 -53.5031 -53.4815 -48.6234 -48.6043
   -48.5582 -48.5390 -48.0060 -47.9866 -30.0802 -30.0542 -29.8556 -29.7998
   -29.7929 -29.7753 -29.7364 -29.7133 -29.6708 -29.6617 -29.6345 -29.6096
   -29.5917 -29.5016 -29.4795 -29.4782 -29.1900 -29.1711 -27.3219 -27.2895
   -27.2797 -27.2712 -27.2247 -27.2077 -27.1756 -27.1432 -27.1321 -27.1263
   -27.0666 -27.0492 -26.7344 -26.6166 -26.6006 -26.5868 -26.5212 -26.5048
    -2.5019  -2.0438  -1.4380  -1.2123  -1.0516  -0.7849  -0.7244  -0.4987
    -0.4474  -0.3617  -0.0259  -0.0071   0.1370   0.1521   0.3404   0.4025
     0.4408   0.5244   0.5308   0.6572   0.8438   0.8679   0.9181   1.0318
     1.1280   1.1348   1.2129   1.4064   1.4510   1.5547   1.6133   1.7790
     1.8807   1.9214   2.0182   2.1497   2.3226   2.3885

          k = 0.0716-0.0371 0.0000 ( 38056 PWs)   bands (ev):

   -53.7581 -53.7365 -53.6347 -53.6126 -53.5030 -53.4815 -48.6234 -48.6043
   -48.5582 -48.5390 -48.0059 -47.9867 -30.0815 -30.0539 -29.8568 -29.7996
   -29.7940 -29.7751 -29.7387 -29.7128 -29.6713 -29.6610 -29.6358 -29.6097
   -29.5911 -29.5036 -29.4791 -29.4767 -29.1902 -29.1709 -27.3205 -27.2883
   -27.2783 -27.2714 -27.2248 -27.2076 -27.1763 -27.1402 -27.1328 -27.1272
   -27.0637 -27.0500 -26.7332 -26.6163 -26.6007 -26.5875 -26.5191 -26.5054
    -2.7010  -1.9138  -1.6027  -1.1879  -0.9422  -0.8995  -0.7362  -0.6144
    -0.4088  -0.4012  -0.0922  -0.0402   0.0858   0.1155   0.2647   0.3970
     0.4047   0.5004   0.6380   0.7974   0.8044   0.9237   0.9744   1.1490
     1.1660   1.1969   1.2587   1.4604   1.5183   1.6060   1.6415   1.8531
     1.8885   2.0078   2.1373   2.1402   2.3011   2.3952

          k = 0.0716-0.0223 0.0000 ( 38067 PWs)   bands (ev):

   -53.7582 -53.7365 -53.6348 -53.6125 -53.5030 -53.4815 -48.6233 -48.6043
   -48.5581 -48.5391 -48.0059 -47.9867 -30.0826 -30.0536 -29.8578 -29.7994
   -29.7949 -29.7750 -29.7407 -29.7124 -29.6718 -29.6605 -29.6369 -29.6099
   -29.5907 -29.5053 -29.4788 -29.4755 -29.1904 -29.1708 -27.3191 -27.2873
   -27.2772 -27.2714 -27.2250 -27.2076 -27.1767 -27.1379 -27.1331 -27.1280
   -27.0614 -27.0507 -26.7320 -26.6160 -26.6009 -26.5881 -26.5174 -26.5059
    -2.8377  -1.7439  -1.7176  -1.1685  -1.0659  -0.9825  -0.6954  -0.6686
    -0.4305  -0.3570  -0.1682  -0.0703   0.0057   0.0882   0.1823   0.3468
     0.4021   0.5508   0.7389   0.7515   0.9010   0.9602   1.0743   1.1730
     1.2254   1.2966   1.3089   1.4597   1.4876   1.6572   1.7598   1.8250
     1.9152   2.1911   2.2014   2.2563   2.2910   2.5371

          k = 0.0716-0.0074 0.0000 ( 38085 PWs)   bands (ev):

   -53.7582 -53.7365 -53.6349 -53.6125 -53.5030 -53.4815 -48.6233 -48.6044
   -48.5581 -48.5391 -48.0059 -47.9867 -30.0832 -30.0534 -29.8584 -29.7993
   -29.7954 -29.7750 -29.7418 -29.7122 -29.6721 -29.6602 -29.6375 -29.6099
   -29.5906 -29.5063 -29.4786 -29.4748 -29.1905 -29.1707 -27.3184 -27.2867
   -27.2766 -27.2713 -27.2251 -27.2076 -27.1769 -27.1368 -27.1332 -27.1285
   -27.0601 -27.0512 -26.7314 -26.6158 -26.6010 -26.5884 -26.5164 -26.5062
    -2.9073  -1.7763  -1.5408  -1.3178  -1.1137  -1.0180  -0.7285  -0.6398
    -0.4401  -0.3025  -0.2221  -0.1047  -0.0492   0.0680   0.1272   0.3327
     0.4032   0.6096   0.6982   0.8121   0.9290   1.0036   1.1233   1.1726
     1.2635   1.3374   1.3677   1.4352   1.4580   1.6917   1.8077   1.8578
     1.9692   2.2226   2.2714   2.3178   2.4400   2.5143

          k = 0.0716 0.0074 0.0000 ( 38085 PWs)   bands (ev):

   -53.7582 -53.7365 -53.6349 -53.6125 -53.5030 -53.4815 -48.6233 -48.6044
   -48.5581 -48.5391 -48.0059 -47.9867 -30.0832 -30.0534 -29.8584 -29.7993
   -29.7954 -29.7750 -29.7418 -29.7122 -29.6721 -29.6602 -29.6375 -29.6099
   -29.5906 -29.5063 -29.4786 -29.4748 -29.1905 -29.1707 -27.3184 -27.2867
   -27.2766 -27.2713 -27.2251 -27.2076 -27.1769 -27.1368 -27.1332 -27.1285
   -27.0601 -27.0512 -26.7314 -26.6158 -26.6010 -26.5884 -26.5164 -26.5062
    -2.9073  -1.7763  -1.5408  -1.3178  -1.1137  -1.0180  -0.7285  -0.6398
    -0.4401  -0.3025  -0.2221  -0.1047  -0.0492   0.0680   0.1272   0.3327
     0.4032   0.6096   0.6982   0.8121   0.9290   1.0036   1.1233   1.1726
     1.2635   1.3374   1.3677   1.4352   1.4580   1.6917   1.8079   1.8578
     1.9691   2.2228   2.2717   2.3181   2.4407   2.4920

          k = 0.0716 0.0223 0.0000 ( 38067 PWs)   bands (ev):

   -53.7582 -53.7365 -53.6348 -53.6125 -53.5030 -53.4815 -48.6233 -48.6043
   -48.5581 -48.5391 -48.0059 -47.9867 -30.0826 -30.0536 -29.8578 -29.7994
   -29.7949 -29.7750 -29.7407 -29.7124 -29.6718 -29.6605 -29.6369 -29.6099
   -29.5907 -29.5053 -29.4788 -29.4755 -29.1904 -29.1708 -27.3191 -27.2873
   -27.2772 -27.2714 -27.2250 -27.2076 -27.1767 -27.1379 -27.1331 -27.1280
   -27.0614 -27.0507 -26.7320 -26.6160 -26.6009 -26.5881 -26.5174 -26.5059
    -2.8377  -1.7439  -1.7176  -1.1685  -1.0659  -0.9825  -0.6954  -0.6686
    -0.4305  -0.3570  -0.1682  -0.0703   0.0056   0.0882   0.1823   0.3469
     0.4021   0.5507   0.7389   0.7515   0.9010   0.9601   1.0743   1.1730
     1.2254   1.2966   1.3089   1.4597   1.4876   1.6572   1.7598   1.8250
     1.9152   2.1909   2.2015   2.2564   2.2896   2.5363

          k =-0.0859-0.0445 0.0000 ( 38116 PWs)   bands (ev):

   -53.7474 -53.7474 -53.6237 -53.6237 -53.4923 -53.4923 -48.6139 -48.6138
   -48.5487 -48.5485 -47.9963 -47.9963 -30.0675 -30.0675 -29.7889 -29.7889
   -29.7597 -29.7596 -29.7250 -29.7250 -29.6919 -29.6918 -29.6223 -29.6222
   -29.5759 -29.5759 -29.4900 -29.4900 -29.1806 -29.1806 -27.2803 -27.2802
   -27.2489 -27.2488 -27.2167 -27.2166 -27.2056 -27.2054 -27.1343 -27.1342
   -27.0575 -27.0573 -26.6610 -26.6610 -26.6084 -26.6084 -26.5126 -26.5126
    -2.2980  -2.2979  -1.3182  -1.3182  -0.8611  -0.8611  -0.6095  -0.6095
    -0.3821  -0.3821  -0.0500  -0.0500   0.2381   0.2381   0.3988   0.3989
     0.4740   0.4740   0.6196   0.6196   0.8701   0.8701   0.9997   0.9997
     1.1371   1.1371   1.2465   1.2466   1.4714   1.4714   1.7891   1.7891
     1.9192   1.9192   2.0121   2.0122   2.3162   2.3162

          k =-0.0859-0.0297 0.0000 ( 38080 PWs)   bands (ev):

   -53.7474 -53.7473 -53.6238 -53.6236 -53.4923 -53.4923 -48.6139 -48.6138
   -48.5487 -48.5485 -47.9964 -47.9963 -30.0683 -30.0667 -29.7891 -29.7886
   -29.7604 -29.7587 -29.7266 -29.7236 -29.6926 -29.6911 -29.6229 -29.6217
   -29.5763 -29.5754 -29.4917 -29.4883 -29.1807 -29.1804 -27.2810 -27.2795
   -27.2498 -27.2477 -27.2167 -27.2164 -27.2067 -27.2044 -27.1362 -27.1323
   -27.0592 -27.0557 -26.6619 -26.6601 -26.6086 -26.6082 -26.5139 -26.5114
    -2.4423  -2.1019  -1.4133  -1.1932  -1.0411  -0.8028  -0.6494  -0.5367
    -0.4234  -0.3206  -0.0846  -0.0310   0.2075   0.2525   0.3517   0.3796
     0.4482   0.5144   0.5767   0.7240   0.7830   0.9594   1.0044   1.0275
     1.0974   1.1620   1.2311   1.2690   1.3910   1.5764   1.7178   1.7430
     1.8115   1.9704   2.0631   2.1671   2.2692   2.3836

          k =-0.0859-0.0148 0.0000 ( 38072 PWs)   bands (ev):

   -53.7474 -53.7472 -53.6238 -53.6235 -53.4923 -53.4923 -48.6140 -48.6138
   -48.5487 -48.5485 -47.9964 -47.9963 -30.0688 -30.0661 -29.7892 -29.7885
   -29.7608 -29.7579 -29.7279 -29.7227 -29.6931 -29.6905 -29.6235 -29.6213
   -29.5767 -29.5751 -29.4929 -29.4871 -29.1808 -29.1803 -27.2815 -27.2790
   -27.2505 -27.2469 -27.2166 -27.2161 -27.2077 -27.2037 -27.1378 -27.1310
   -27.0605 -27.0544 -26.6625 -26.6593 -26.6089 -26.6081 -26.5149 -26.5105
    -2.5305  -1.8623  -1.4717  -1.3049  -1.0480  -0.7963  -0.7105  -0.4874
    -0.4236  -0.2546  -0.1184  -0.0358   0.1459   0.2689   0.2755   0.3631
     0.4260   0.5194   0.6752   0.7273   0.7860   0.9708   1.0170   1.0575
     1.0964   1.1809   1.2410   1.2411   1.3997   1.6028   1.6379   1.6646
     1.7977   2.0026   2.1142   2.2990   2.3470   2.4890

          k =-0.0859-0.0000 0.0000 ( 38051 PWs)   bands (ev):

   -53.7474 -53.7472 -53.6238 -53.6234 -53.4923 -53.4922 -48.6140 -48.6138
   -48.5487 -48.5485 -47.9964 -47.9962 -30.0690 -30.0659 -29.7893 -29.7884
   -29.7610 -29.7575 -29.7284 -29.7224 -29.6933 -29.6902 -29.6237 -29.6212
   -29.5768 -29.5750 -29.4933 -29.4867 -29.1809 -29.1802 -27.2817 -27.2788
   -27.2507 -27.2466 -27.2165 -27.2159 -27.2081 -27.2034 -27.1384 -27.1305
   -27.0610 -27.0540 -26.6627 -26.6590 -26.6090 -26.6081 -26.5152 -26.5101
    -2.5601  -1.6186  -1.5594  -1.4914  -0.9557  -0.7965  -0.7771  -0.4740
    -0.4095  -0.2231  -0.1344  -0.0449   0.1105   0.2457   0.2787   0.3554
     0.4098   0.5513   0.6998   0.7266   0.8001   0.9599   1.0104   1.0557
     1.1252   1.1930   1.2152   1.2498   1.4278   1.5611   1.6224   1.6333
     1.8260   2.0157   2.1103   2.4015   2.4183   2.4408

          k =-0.0859 0.0148 0.0000 ( 38072 PWs)   bands (ev):

   -53.7474 -53.7472 -53.6238 -53.6235 -53.4923 -53.4923 -48.6140 -48.6138
   -48.5487 -48.5485 -47.9964 -47.9963 -30.0688 -30.0661 -29.7892 -29.7885
   -29.7608 -29.7579 -29.7279 -29.7227 -29.6931 -29.6905 -29.6235 -29.6213
   -29.5767 -29.5751 -29.4929 -29.4871 -29.1808 -29.1803 -27.2815 -27.2790
   -27.2505 -27.2469 -27.2166 -27.2161 -27.2077 -27.2037 -27.1378 -27.1310
   -27.0605 -27.0544 -26.6625 -26.6593 -26.6089 -26.6081 -26.5149 -26.5105
    -2.5305  -1.8623  -1.4717  -1.3049  -1.0480  -0.7963  -0.7105  -0.4874
    -0.4236  -0.2546  -0.1184  -0.0358   0.1459   0.2689   0.2755   0.3631
     0.4260   0.5194   0.6752   0.7273   0.7860   0.9708   1.0170   1.0575
     1.0964   1.1809   1.2410   1.2411   1.3997   1.6028   1.6379   1.6645
     1.7977   2.0026   2.1142   2.2989   2.3470   2.4851

          k =-0.0859 0.0297 0.0000 ( 38080 PWs)   bands (ev):

   -53.7474 -53.7473 -53.6238 -53.6236 -53.4923 -53.4923 -48.6139 -48.6138
   -48.5487 -48.5485 -47.9964 -47.9963 -30.0683 -30.0667 -29.7891 -29.7886
   -29.7604 -29.7587 -29.7266 -29.7236 -29.6926 -29.6911 -29.6229 -29.6217
   -29.5763 -29.5754 -29.4917 -29.4883 -29.1807 -29.1804 -27.2810 -27.2795
   -27.2498 -27.2477 -27.2167 -27.2164 -27.2067 -27.2044 -27.1362 -27.1323
   -27.0592 -27.0557 -26.6619 -26.6601 -26.6086 -26.6082 -26.5139 -26.5114
    -2.4423  -2.1019  -1.4133  -1.1932  -1.0411  -0.8028  -0.6494  -0.5367
    -0.4234  -0.3206  -0.0846  -0.0310   0.2075   0.2525   0.3517   0.3796
     0.4482   0.5144   0.5767   0.7240   0.7830   0.9594   1.0044   1.0275
     1.0974   1.1620   1.2311   1.2690   1.3910   1.5764   1.7178   1.7430
     1.8115   1.9704   2.0631   2.1671   2.2693   2.3835

          k =-0.0859-0.1336 0.0000 ( 38116 PWs)   bands (ev):

   -53.7474 -53.7474 -53.6237 -53.6237 -53.4923 -53.4923 -48.6139 -48.6138
   -48.5487 -48.5485 -47.9963 -47.9963 -30.0675 -30.0675 -29.7889 -29.7889
   -29.7597 -29.7596 -29.7250 -29.7250 -29.6919 -29.6918 -29.6223 -29.6222
   -29.5759 -29.5759 -29.4900 -29.4900 -29.1806 -29.1806 -27.2803 -27.2802
   -27.2489 -27.2488 -27.2167 -27.2166 -27.2056 -27.2054 -27.1343 -27.1342
   -27.0575 -27.0573 -26.6610 -26.6610 -26.6084 -26.6084 -26.5126 -26.5126
    -2.2980  -2.2980  -1.3182  -1.3182  -0.8611  -0.8611  -0.6095  -0.6095
    -0.3821  -0.3821  -0.0500  -0.0500   0.2381   0.2381   0.3988   0.3988
     0.4740   0.4741   0.6196   0.6196   0.8701   0.8701   0.9997   0.9997
     1.1371   1.1371   1.2466   1.2466   1.4714   1.4714   1.7891   1.7891
     1.9192   1.9193   2.0121   2.0122   2.3162   2.3162

     the Fermi energy is     1.1816 ev

!    total energy              =   -1302.69969348 Ry
     estimated scf accuracy    <       0.00000220 Ry
     smearing contrib. (-TS)   =      -0.08762748 Ry
     internal energy E=F+TS    =   -1302.61206600 Ry

     The total energy is F=E-TS. E is the sum of the following terms:
     one-electron contribution =   -9377.28329063 Ry
     hartree contribution      =    4677.50212986 Ry
     xc contribution           =    -223.98804773 Ry
     ewald contribution        =    3621.15713015 Ry
     electric field correction =       0.00001235 Ry

     convergence has been achieved in  21 iterations

     negative rho (up, down):  8.941E-04 0.000E+00

     Forces acting on atoms (cartesian axes, Ry/au):

     atom    1 type  1   force =    -0.00000518   -0.01072631   -0.01263704
     atom    2 type  1   force =     0.00000450   -0.01071811   -0.01262274
     atom    3 type  2   force =    -0.00000313    0.01376506    0.03452058
     atom    4 type  2   force =     0.00000070    0.01376407    0.03451810
     atom    5 type  1   force =    -0.00000503    0.00895501   -0.00746920
     atom    6 type  1   force =     0.00000581    0.00897093   -0.00747374
     atom    7 type  2   force =     0.00000601   -0.01326827   -0.01544191
     atom    8 type  2   force =    -0.00000378   -0.01327706   -0.01545176
     atom    9 type  1   force =    -0.00000758    0.00020095    0.00056379
     atom   10 type  1   force =    -0.00000098    0.00019865    0.00056197
     atom   11 type  2   force =     0.00000279    0.00106814    0.00046617
     atom   12 type  2   force =     0.00000588    0.00106693    0.00046577

     Total force =     0.066456     Total SCF correction =     0.004131

     Writing output data file ./Sc2Nb2/Sc2Nb2_beef.save/

     init_run     :     60.53s CPU    126.66s WALL (       1 calls)
     electrons    :   2378.00s CPU   5159.26s WALL (       1 calls)
     forces       :     20.07s CPU     62.87s WALL (       1 calls)

     Called by init_run:
     wfcinit      :     51.26s CPU    113.74s WALL (       1 calls)
     potinit      :      6.28s CPU      8.40s WALL (       1 calls)
     hinit0       :      2.18s CPU      2.60s WALL (       1 calls)

     Called by electrons:
     c_bands      :   2144.35s CPU   4581.08s WALL (      21 calls)
     sum_band     :    212.72s CPU    524.97s WALL (      21 calls)
     v_of_rho     :     16.66s CPU     35.29s WALL (      22 calls)
     newd         :      9.14s CPU     22.95s WALL (      22 calls)
     mix_rho      :      0.41s CPU      1.64s WALL (      21 calls)
     vdW_kernel   :      4.60s CPU      5.76s WALL (       1 calls)

     Called by c_bands:
     init_us_2    :      4.45s CPU      4.80s WALL (    3256 calls)
     cegterg      :   2118.90s CPU   4509.80s WALL (    1556 calls)

     Called by *egterg:
     cdiaghg      :    265.26s CPU    273.42s WALL (   10770 calls)
     h_psi        :   1014.14s CPU   2000.74s WALL (   10844 calls)
     s_psi        :    219.41s CPU    220.18s WALL (   10844 calls)
     g_psi        :      1.31s CPU      1.53s WALL (    9214 calls)

     Called by h_psi:
     h_psi:calbec :    214.55s CPU    831.69s WALL (   10844 calls)
     vloc_psi     :    576.08s CPU    943.46s WALL (   10844 calls)
     add_vuspsi   :    222.67s CPU    224.19s WALL (   10844 calls)

     General routines
     calbec       :    312.30s CPU   1199.21s WALL (   12694 calls)
     fft          :      7.74s CPU     40.03s WALL (    1445 calls)
     ffts         :      0.06s CPU      0.27s WALL (      43 calls)
     fftw         :    667.42s CPU   1092.34s WALL (  826496 calls)
     interpolate  :      0.15s CPU      0.48s WALL (      22 calls)

     Parallel routines
     fft_scatt_xy :     37.91s CPU     56.78s WALL (  827984 calls)
     fft_scatt_yz :    227.40s CPU    547.61s WALL (  827984 calls)

     PWSCF        :  41m 9.83s CPU      1h31m WALL


   This run was terminated on:   3:59:43  11Jul2022            

=------------------------------------------------------------------------------=
   JOB DONE.
=------------------------------------------------------------------------------=
