
     Program PWSCF v.6.6 starts on 24Jun2022 at 21:38:43 

     This program is part of the open-source Quantum ESPRESSO suite
     for quantum simulation of materials; please cite
         "P. Giannozzi et al., J. Phys.:Condens. Matter 21 395502 (2009);
         "P. Giannozzi et al., J. Phys.:Condens. Matter 29 465901 (2017);
          URL http://www.quantum-espresso.org", 
     in publications or presentations arising from this work. More details at
     http://www.quantum-espresso.org/quote

     Parallel version (MPI), running on    37 processors

     MPI processes distributed on     1 nodes
     R & G space division:  proc/nbgrp/npool/nimage =      37
     Fft bands division:     nmany     =       1
     Reading input from Sc2Pt2.in
Warning: card &CELL ignored
Warning: card / ignored

     Current dimensions of program PWSCF are:
     Max number of different atomic species (ntypx) = 10
     Max number of k-points (npk) =  40000
     Max angular momentum in pseudopotentials (lmaxx) =  3
     Presently stress not available with electric field and gates

     Message from routine cell_base_init:
     DEPRECATED: use true lattice parameter, not A to a.u. conversion factor
     file Sc.pbe-spn-rrkjus_psl.1.0.0.UPF: wavefunction(s)  3S 3P renormalized
     file Pt.pbe-n-rrkjus_psl.1.0.0.UPF: wavefunction(s)  6S renormalized

     **************************************************************************
     Initializing libbeef V0.1.2 with the BEEF-vdW functional.
     Citation: Wellendorff et al., PRB 85, 235149 (2012).
     **************************************************************************


     IMPORTANT: XC functional enforced from input :
     Exchange-correlation= BEEF-VDW
                           (   1   4  43  14   2   0   0)
     Any further DFT definition will be discarded
     Please, verify this is what you really want


     Subspace diagonalization in iterative solution of the eigenvalue problem:
     a serial algorithm will be used

     Found symmetry operation: I + ( -0.5000 -0.5000  0.0000)
     This is a supercell, fractional translations are disabled

     Parallelization info
     --------------------
     sticks:   dense  smooth     PW     G-vecs:    dense   smooth      PW
     Min         131      52     14                30445     7698    1140
     Max         132      53     15                30450     7721    1167
     Sum        4853    1937    549              1126529   285177   42721



     bravais-lattice index     =            0
     lattice parameter (alat)  =       1.8897  a.u.
     unit-cell volume          =    5153.9093 (a.u.)^3
     number of atoms/cell      =           12
     number of atomic types    =            2
     number of electrons       =       126.00
     number of Kohn-Sham states=           76
     kinetic-energy cutoff     =      55.1240  Ry
     charge density cutoff     =     551.2396  Ry
     convergence threshold     =      1.0E-05
     mixing beta               =       0.1000
     number of iterations used =           10  plain     mixing
     Exchange-correlation= BEEF-VDW
                           (   1   4  43  14   2   0   0)

     celldm(1)=   1.889726  celldm(2)=   0.000000  celldm(3)=   0.000000
     celldm(4)=   0.000000  celldm(5)=   0.000000  celldm(6)=   0.000000

     crystal axes: (cart. coord. in units of alat)
               a(1) = (   5.733100   0.000000   0.000000 )  
               a(2) = (   1.937747   5.395699   0.000000 )  
               a(3) = (   0.000000   0.000000  24.688973 )  

     reciprocal axes: (cart. coord. in units 2 pi/alat)
               b(1) = (  0.174426 -0.062641  0.000000 )  
               b(2) = (  0.000000  0.185333  0.000000 )  
               b(3) = (  0.000000  0.000000  0.040504 )  


     PseudoPot. # 1 for Sc read from file:
     ../pseudo/Sc.pbe-spn-rrkjus_psl.1.0.0.UPF
     MD5 check sum: f739f74c200e509e5c24cbe053202ee5
     Pseudo is Ultrasoft + core correction, Zval = 11.0
     Generated using "atomic" code by A. Dal Corso v.6.2.2
     Using radial grid of 1173 points,  6 beta functions with: 
                l(1) =   0
                l(2) =   0
                l(3) =   1
                l(4) =   1
                l(5) =   2
                l(6) =   2
     Q(r) pseudized with 0 coefficients 


     PseudoPot. # 2 for Pt read from file:
     ../pseudo/Pt.pbe-n-rrkjus_psl.1.0.0.UPF
     MD5 check sum: 6bc887cfe28d63a5fc1f72d35a7d3ef7
     Pseudo is Ultrasoft + core correction, Zval = 10.0
     Generated using "atomic" code by A. Dal Corso v.6.3
     Using radial grid of 1277 points,  6 beta functions with: 
                l(1) =   0
                l(2) =   0
                l(3) =   1
                l(4) =   1
                l(5) =   2
                l(6) =   2
     Q(r) pseudized with 0 coefficients 


     atomic species   valence    mass     pseudopotential
        Sc            11.00    44.95591     Sc( 1.00)
        Pt            10.00   195.08400     Pt( 1.00)

     No symmetry found



   Cartesian axes

     site n.     atom                  positions (alat units)
         1           Sc  tau(   1) = (   0.0000000   0.0000000  10.0000000  )
         2           Sc  tau(   2) = (   3.8354237   2.6978497  10.0000000  )
         3           Pt  tau(   3) = (   2.8665500   0.0000000  10.0000000  )
         4           Pt  tau(   4) = (   0.9688736   2.6978497  10.0000000  )
         5           Sc  tau(   5) = (   5.7331001   4.0326816  12.3444865  )
         6           Sc  tau(   6) = (   1.8976764   1.3348319  12.3444865  )
         7           Pt  tau(   7) = (   2.8665500   4.0326816  12.3444865  )
         8           Pt  tau(   8) = (   4.7642265   1.3348319  12.3444865  )
         9           Sc  tau(   9) = (   3.8047961   2.6763029  14.6918402  )
        10           Sc  tau(  10) = (   7.6402186   5.3741575  14.6918438  )
        11           Pt  tau(  11) = (   6.6717344   2.6765768  14.4871671  )
        12           Pt  tau(  12) = (   4.7740517   5.3744236  14.4871641  )

     number of k points=    74  Fermi-Dirac smearing, width (Ry)=  0.0100
                       cart. coord. in units 2pi/alat
        k(    1) = (   0.0000000   0.0000000   0.0000000), wk =   0.0138889
        k(    2) = (   0.0000000   0.0154444   0.0000000), wk =   0.0277778
        k(    3) = (   0.0000000   0.0308888   0.0000000), wk =   0.0277778
        k(    4) = (   0.0000000   0.0463332   0.0000000), wk =   0.0277778
        k(    5) = (   0.0000000   0.0617776   0.0000000), wk =   0.0277778
        k(    6) = (   0.0000000   0.0772220   0.0000000), wk =   0.0277778
        k(    7) = (   0.0000000  -0.0926664   0.0000000), wk =   0.0138889
        k(    8) = (   0.0145355  -0.0052201   0.0000000), wk =   0.0277778
        k(    9) = (   0.0145355   0.0102243   0.0000000), wk =   0.0277778
        k(   10) = (   0.0145355   0.0256687   0.0000000), wk =   0.0277778
        k(   11) = (   0.0145355   0.0411131   0.0000000), wk =   0.0277778
        k(   12) = (   0.0145355   0.0565575   0.0000000), wk =   0.0277778
        k(   13) = (   0.0145355   0.0720019   0.0000000), wk =   0.0277778
        k(   14) = (   0.0145355  -0.0978865   0.0000000), wk =   0.0277778
        k(   15) = (   0.0145355  -0.0824421   0.0000000), wk =   0.0277778
        k(   16) = (   0.0145355  -0.0669977   0.0000000), wk =   0.0277778
        k(   17) = (   0.0145355  -0.0515533   0.0000000), wk =   0.0277778
        k(   18) = (   0.0145355  -0.0361089   0.0000000), wk =   0.0277778
        k(   19) = (   0.0145355  -0.0206645   0.0000000), wk =   0.0277778
        k(   20) = (   0.0290710  -0.0104402   0.0000000), wk =   0.0277778
        k(   21) = (   0.0290710   0.0050042   0.0000000), wk =   0.0277778
        k(   22) = (   0.0290710   0.0204486   0.0000000), wk =   0.0277778
        k(   23) = (   0.0290710   0.0358930   0.0000000), wk =   0.0277778
        k(   24) = (   0.0290710   0.0513374   0.0000000), wk =   0.0277778
        k(   25) = (   0.0290710   0.0667818   0.0000000), wk =   0.0277778
        k(   26) = (   0.0290710  -0.1031066   0.0000000), wk =   0.0277778
        k(   27) = (   0.0290710  -0.0876622   0.0000000), wk =   0.0277778
        k(   28) = (   0.0290710  -0.0722178   0.0000000), wk =   0.0277778
        k(   29) = (   0.0290710  -0.0567734   0.0000000), wk =   0.0277778
        k(   30) = (   0.0290710  -0.0413290   0.0000000), wk =   0.0277778
        k(   31) = (   0.0290710  -0.0258846   0.0000000), wk =   0.0277778
        k(   32) = (   0.0436064  -0.0156603   0.0000000), wk =   0.0277778
        k(   33) = (   0.0436064  -0.0002159   0.0000000), wk =   0.0277778
        k(   34) = (   0.0436064   0.0152285   0.0000000), wk =   0.0277778
        k(   35) = (   0.0436064   0.0306729   0.0000000), wk =   0.0277778
        k(   36) = (   0.0436064   0.0461173   0.0000000), wk =   0.0277778
        k(   37) = (   0.0436064   0.0615617   0.0000000), wk =   0.0277778
        k(   38) = (   0.0436064  -0.1083267   0.0000000), wk =   0.0277778
        k(   39) = (   0.0436064  -0.0928823   0.0000000), wk =   0.0277778
        k(   40) = (   0.0436064  -0.0774379   0.0000000), wk =   0.0277778
        k(   41) = (   0.0436064  -0.0619935   0.0000000), wk =   0.0277778
        k(   42) = (   0.0436064  -0.0465491   0.0000000), wk =   0.0277778
        k(   43) = (   0.0436064  -0.0311047   0.0000000), wk =   0.0277778
        k(   44) = (   0.0581419  -0.0208804   0.0000000), wk =   0.0277778
        k(   45) = (   0.0581419  -0.0054360   0.0000000), wk =   0.0277778
        k(   46) = (   0.0581419   0.0100084   0.0000000), wk =   0.0277778
        k(   47) = (   0.0581419   0.0254528   0.0000000), wk =   0.0277778
        k(   48) = (   0.0581419   0.0408972   0.0000000), wk =   0.0277778
        k(   49) = (   0.0581419   0.0563416   0.0000000), wk =   0.0277778
        k(   50) = (   0.0581419  -0.1135468   0.0000000), wk =   0.0277778
        k(   51) = (   0.0581419  -0.0981024   0.0000000), wk =   0.0277778
        k(   52) = (   0.0581419  -0.0826580   0.0000000), wk =   0.0277778
        k(   53) = (   0.0581419  -0.0672136   0.0000000), wk =   0.0277778
        k(   54) = (   0.0581419  -0.0517692   0.0000000), wk =   0.0277778
        k(   55) = (   0.0581419  -0.0363248   0.0000000), wk =   0.0277778
        k(   56) = (   0.0726774  -0.0261005   0.0000000), wk =   0.0277778
        k(   57) = (   0.0726774  -0.0106561   0.0000000), wk =   0.0277778
        k(   58) = (   0.0726774   0.0047883   0.0000000), wk =   0.0277778
        k(   59) = (   0.0726774   0.0202327   0.0000000), wk =   0.0277778
        k(   60) = (   0.0726774   0.0356771   0.0000000), wk =   0.0277778
        k(   61) = (   0.0726774   0.0511215   0.0000000), wk =   0.0277778
        k(   62) = (   0.0726774  -0.1187669   0.0000000), wk =   0.0277778
        k(   63) = (   0.0726774  -0.1033225   0.0000000), wk =   0.0277778
        k(   64) = (   0.0726774  -0.0878781   0.0000000), wk =   0.0277778
        k(   65) = (   0.0726774  -0.0724337   0.0000000), wk =   0.0277778
        k(   66) = (   0.0726774  -0.0569893   0.0000000), wk =   0.0277778
        k(   67) = (   0.0726774  -0.0415449   0.0000000), wk =   0.0277778
        k(   68) = (  -0.0872129   0.0313206   0.0000000), wk =   0.0138889
        k(   69) = (  -0.0872129   0.0467650   0.0000000), wk =   0.0277778
        k(   70) = (  -0.0872129   0.0622094   0.0000000), wk =   0.0277778
        k(   71) = (  -0.0872129   0.0776538   0.0000000), wk =   0.0277778
        k(   72) = (  -0.0872129   0.0930982   0.0000000), wk =   0.0277778
        k(   73) = (  -0.0872129   0.1085426   0.0000000), wk =   0.0277778
        k(   74) = (  -0.0872129  -0.0613458   0.0000000), wk =   0.0138889

     Dense  grid:  1126529 G-vectors     FFT dimensions: (  81,  81, 360)

     Smooth grid:   285177 G-vectors     FFT dimensions: (  54,  54, 225)

     Estimated max dynamical RAM per process >     204.48 MB

     Estimated total dynamical RAM >       7.39 GB

     Initial potential from superposition of free atoms

     starting charge  125.98361, renormalised to  126.00000

     negative rho (up, down):  7.748E-04 0.000E+00


     %%%%%%%%%%%%%%%%%%%%%%%%%%%%%%%%%%%%%%%%%%%%%%%%%%%%%%%%%%%%%%%%%%%%%%%%
     %                                                                      %
     % You are using vdW-DF, which was implemented by the Thonhauser group. %
     % Please cite the following two papers that made this development      %
     % possible and the two reviews that describe the various versions:     %
     %                                                                      %
     %   T. Thonhauser et al., PRL 115, 136402 (2015).                      %
     %   T. Thonhauser et al., PRB 76, 125112 (2007).                       %
     %   K. Berland et al., Rep. Prog. Phys. 78, 066501 (2015).             %
     %   D.C. Langreth et al., J. Phys.: Condens. Matter 21, 084203 (2009). %
     %                                                                      %
     %                                                                      %
     % If you are calculating the stress with vdW-DF, please also cite:     %
     %                                                                      %
     %   R. Sabatini et al., J. Phys.: Condens. Matter 24, 424209 (2012).   %
     %                                                                      %
     %%%%%%%%%%%%%%%%%%%%%%%%%%%%%%%%%%%%%%%%%%%%%%%%%%%%%%%%%%%%%%%%%%%%%%%%



     Adding external electric field

     Computed dipole along edir(3) : 
        Dipole                0.0009 Ry au,          0.0022 Debye
        Dipole field          0.0000 Ry au, 

        Potential amp.       -0.0002 Ry
        Total length         45.4890 bohr

     Starting wfcs are  114 randomized atomic wfcs

     total cpu time spent up to now is      110.8 secs

     Self-consistent Calculation

     iteration #  1     ecut=    55.12 Ry     beta= 0.10
     Davidson diagonalization with overlap
     ethr =  1.00E-02,  avg # of iterations =  1.9

     Threshold (ethr) on eigenvalues was too large:
     Diagonalizing with lowered threshold

     Davidson diagonalization with overlap
     ethr =  9.09E-04,  avg # of iterations =  6.1

     negative rho (up, down):  7.170E-04 0.000E+00

     Adding external electric field

     Computed dipole along edir(3) : 
        Dipole                0.0289 Ry au,          0.0734 Debye
        Dipole field          0.0001 Ry au, 

        Potential amp.       -0.0064 Ry
        Total length         45.4890 bohr


     total cpu time spent up to now is      483.0 secs

     total energy              =    -988.90414326 Ry
     estimated scf accuracy    <       1.50445579 Ry

     iteration #  2     ecut=    55.12 Ry     beta= 0.10
     Davidson diagonalization with overlap
     ethr =  1.19E-03,  avg # of iterations =  2.0

     negative rho (up, down):  6.856E-04 0.000E+00

     Adding external electric field

     Computed dipole along edir(3) : 
        Dipole                0.0990 Ry au,          0.2518 Debye
        Dipole field          0.0002 Ry au, 

        Potential amp.       -0.0220 Ry
        Total length         45.4890 bohr


     total cpu time spent up to now is      638.1 secs

     total energy              =    -988.94822104 Ry
     estimated scf accuracy    <       0.39603341 Ry

     iteration #  3     ecut=    55.12 Ry     beta= 0.10
     Davidson diagonalization with overlap
     c_bands:  1 eigenvalues not converged
     ethr =  3.14E-04,  avg # of iterations =  8.6

     negative rho (up, down):  6.790E-04 0.000E+00

     Adding external electric field

     Computed dipole along edir(3) : 
        Dipole               -0.0854 Ry au,         -0.2171 Debye
        Dipole field         -0.0002 Ry au, 

        Potential amp.        0.0189 Ry
        Total length         45.4890 bohr


     total cpu time spent up to now is      831.2 secs

     total energy              =    -988.96285959 Ry
     estimated scf accuracy    <       0.22029748 Ry

     iteration #  4     ecut=    55.12 Ry     beta= 0.10
     Davidson diagonalization with overlap
     ethr =  1.75E-04,  avg # of iterations =  6.2

     negative rho (up, down):  6.799E-04 0.000E+00

     Adding external electric field

     Computed dipole along edir(3) : 
        Dipole                0.0940 Ry au,          0.2390 Debye
        Dipole field          0.0002 Ry au, 

        Potential amp.       -0.0209 Ry
        Total length         45.4890 bohr


     total cpu time spent up to now is     1015.4 secs

     total energy              =    -988.96296432 Ry
     estimated scf accuracy    <       0.40162417 Ry

     iteration #  5     ecut=    55.12 Ry     beta= 0.10
     Davidson diagonalization with overlap
     ethr =  1.75E-04,  avg # of iterations =  2.9

     negative rho (up, down):  7.476E-04 0.000E+00

     Adding external electric field

     Computed dipole along edir(3) : 
        Dipole                0.1817 Ry au,          0.4619 Debye
        Dipole field          0.0004 Ry au, 

        Potential amp.       -0.0403 Ry
        Total length         45.4890 bohr


     total cpu time spent up to now is     1172.6 secs

     total energy              =    -988.96418356 Ry
     estimated scf accuracy    <       0.06151447 Ry

     iteration #  6     ecut=    55.12 Ry     beta= 0.10
     Davidson diagonalization with overlap
     c_bands:  1 eigenvalues not converged
     c_bands:  2 eigenvalues not converged
     c_bands:  2 eigenvalues not converged
     c_bands:  3 eigenvalues not converged
     c_bands:  3 eigenvalues not converged
     c_bands:  1 eigenvalues not converged
     c_bands:  3 eigenvalues not converged
     c_bands:  1 eigenvalues not converged
     c_bands:  1 eigenvalues not converged
     c_bands:  1 eigenvalues not converged
     c_bands:  2 eigenvalues not converged
     c_bands:  2 eigenvalues not converged
     c_bands:  1 eigenvalues not converged
     c_bands:  2 eigenvalues not converged
     c_bands:  1 eigenvalues not converged
     c_bands:  2 eigenvalues not converged
     c_bands:  1 eigenvalues not converged
     c_bands:  1 eigenvalues not converged
     c_bands:  2 eigenvalues not converged
     c_bands:  1 eigenvalues not converged
     c_bands:  2 eigenvalues not converged
     c_bands:  2 eigenvalues not converged
     c_bands:  2 eigenvalues not converged
     c_bands:  1 eigenvalues not converged
     c_bands:  1 eigenvalues not converged
     c_bands:  1 eigenvalues not converged
     c_bands:  1 eigenvalues not converged
     c_bands:  1 eigenvalues not converged
     c_bands:  1 eigenvalues not converged
     c_bands:  2 eigenvalues not converged
     c_bands:  2 eigenvalues not converged
     c_bands:  2 eigenvalues not converged
     c_bands:  1 eigenvalues not converged
     c_bands:  1 eigenvalues not converged
     c_bands:  1 eigenvalues not converged
     c_bands:  1 eigenvalues not converged
     c_bands:  1 eigenvalues not converged
     c_bands:  2 eigenvalues not converged
     c_bands:  1 eigenvalues not converged
     c_bands:  2 eigenvalues not converged
     c_bands:  1 eigenvalues not converged
     c_bands:  1 eigenvalues not converged
     ethr =  4.88E-05,  avg # of iterations = 18.1

     negative rho (up, down):  7.179E-04 0.000E+00

     Adding external electric field

     Computed dipole along edir(3) : 
        Dipole                0.1422 Ry au,          0.3613 Debye
        Dipole field          0.0003 Ry au, 

        Potential amp.       -0.0315 Ry
        Total length         45.4890 bohr


     total cpu time spent up to now is     1532.8 secs

     total energy              =    -988.98638975 Ry
     estimated scf accuracy    <       0.11843745 Ry

     iteration #  7     ecut=    55.12 Ry     beta= 0.10
     Davidson diagonalization with overlap
     c_bands:  1 eigenvalues not converged
     ethr =  4.88E-05,  avg # of iterations =  3.4

     negative rho (up, down):  7.220E-04 0.000E+00

     Adding external electric field

     Computed dipole along edir(3) : 
        Dipole                0.1172 Ry au,          0.2978 Debye
        Dipole field          0.0003 Ry au, 

        Potential amp.       -0.0260 Ry
        Total length         45.4890 bohr


     total cpu time spent up to now is     1682.1 secs

     total energy              =    -988.98041398 Ry
     estimated scf accuracy    <       0.04650458 Ry

     iteration #  8     ecut=    55.12 Ry     beta= 0.10
     Davidson diagonalization with overlap
     c_bands:  1 eigenvalues not converged
     ethr =  3.69E-05,  avg # of iterations =  5.6

     negative rho (up, down):  7.268E-04 0.000E+00

     Adding external electric field

     Computed dipole along edir(3) : 
        Dipole                0.1003 Ry au,          0.2550 Debye
        Dipole field          0.0002 Ry au, 

        Potential amp.       -0.0223 Ry
        Total length         45.4890 bohr


     total cpu time spent up to now is     1847.4 secs

     total energy              =    -988.98651010 Ry
     estimated scf accuracy    <       0.00480229 Ry

     iteration #  9     ecut=    55.12 Ry     beta= 0.10
     Davidson diagonalization with overlap
     c_bands:  1 eigenvalues not converged
     c_bands:  2 eigenvalues not converged
     c_bands:  2 eigenvalues not converged
     c_bands:  3 eigenvalues not converged
     c_bands:  4 eigenvalues not converged
     c_bands:  2 eigenvalues not converged
     c_bands:  4 eigenvalues not converged
     c_bands:  2 eigenvalues not converged
     c_bands:  3 eigenvalues not converged
     c_bands:  4 eigenvalues not converged
     c_bands:  4 eigenvalues not converged
     c_bands:  3 eigenvalues not converged
     c_bands:  1 eigenvalues not converged
     c_bands:  2 eigenvalues not converged
     c_bands:  1 eigenvalues not converged
     c_bands:  1 eigenvalues not converged
     c_bands:  3 eigenvalues not converged
     c_bands:  1 eigenvalues not converged
     c_bands:  2 eigenvalues not converged
     c_bands:  1 eigenvalues not converged
     c_bands:  2 eigenvalues not converged
     c_bands:  4 eigenvalues not converged
     c_bands:  2 eigenvalues not converged
     c_bands:  4 eigenvalues not converged
     c_bands:  2 eigenvalues not converged
     c_bands:  2 eigenvalues not converged
     c_bands:  3 eigenvalues not converged
     c_bands:  4 eigenvalues not converged
     c_bands:  1 eigenvalues not converged
     c_bands:  2 eigenvalues not converged
     c_bands:  2 eigenvalues not converged
     c_bands:  2 eigenvalues not converged
     c_bands:  1 eigenvalues not converged
     c_bands:  3 eigenvalues not converged
     c_bands:  2 eigenvalues not converged
     c_bands:  3 eigenvalues not converged
     c_bands:  2 eigenvalues not converged
     c_bands:  1 eigenvalues not converged
     c_bands:  3 eigenvalues not converged
     c_bands:  4 eigenvalues not converged
     c_bands:  1 eigenvalues not converged
     c_bands:  5 eigenvalues not converged
     c_bands:  2 eigenvalues not converged
     c_bands:  3 eigenvalues not converged
     c_bands:  2 eigenvalues not converged
     c_bands:  2 eigenvalues not converged
     c_bands:  5 eigenvalues not converged
     c_bands:  5 eigenvalues not converged
     c_bands:  2 eigenvalues not converged
     c_bands:  3 eigenvalues not converged
     c_bands:  1 eigenvalues not converged
     c_bands:  1 eigenvalues not converged
     c_bands:  1 eigenvalues not converged
     ethr =  3.81E-06,  avg # of iterations = 21.4

     negative rho (up, down):  7.095E-04 0.000E+00

     Adding external electric field

     Computed dipole along edir(3) : 
        Dipole                0.1001 Ry au,          0.2544 Debye
        Dipole field          0.0002 Ry au, 

        Potential amp.       -0.0222 Ry
        Total length         45.4890 bohr


     total cpu time spent up to now is     2271.7 secs

     total energy              =    -988.98914469 Ry
     estimated scf accuracy    <       0.00332252 Ry

     iteration # 10     ecut=    55.12 Ry     beta= 0.10
     Davidson diagonalization with overlap
     c_bands:  1 eigenvalues not converged
     c_bands:  1 eigenvalues not converged
     c_bands:  1 eigenvalues not converged
     c_bands:  1 eigenvalues not converged
     c_bands:  2 eigenvalues not converged
     c_bands:  2 eigenvalues not converged
     c_bands:  1 eigenvalues not converged
     c_bands:  1 eigenvalues not converged
     c_bands:  1 eigenvalues not converged
     c_bands:  3 eigenvalues not converged
     c_bands:  1 eigenvalues not converged
     c_bands:  2 eigenvalues not converged
     c_bands:  2 eigenvalues not converged
     c_bands:  1 eigenvalues not converged
     c_bands:  2 eigenvalues not converged
     c_bands:  1 eigenvalues not converged
     c_bands:  2 eigenvalues not converged
     c_bands:  2 eigenvalues not converged
     c_bands:  1 eigenvalues not converged
     c_bands:  2 eigenvalues not converged
     c_bands:  1 eigenvalues not converged
     c_bands:  2 eigenvalues not converged
     c_bands:  1 eigenvalues not converged
     c_bands:  2 eigenvalues not converged
     c_bands:  1 eigenvalues not converged
     c_bands:  1 eigenvalues not converged
     c_bands:  1 eigenvalues not converged
     c_bands:  1 eigenvalues not converged
     c_bands:  1 eigenvalues not converged
     ethr =  2.64E-06,  avg # of iterations = 10.4

     negative rho (up, down):  6.971E-04 0.000E+00

     Adding external electric field

     Computed dipole along edir(3) : 
        Dipole                0.1012 Ry au,          0.2571 Debye
        Dipole field          0.0002 Ry au, 

        Potential amp.       -0.0224 Ry
        Total length         45.4890 bohr


     total cpu time spent up to now is     2452.7 secs

     total energy              =    -988.98941069 Ry
     estimated scf accuracy    <       0.00348358 Ry

     iteration # 11     ecut=    55.12 Ry     beta= 0.10
     Davidson diagonalization with overlap
     c_bands:  1 eigenvalues not converged
     c_bands:  1 eigenvalues not converged
     c_bands:  1 eigenvalues not converged
     c_bands:  2 eigenvalues not converged
     c_bands:  1 eigenvalues not converged
     c_bands:  1 eigenvalues not converged
     c_bands:  2 eigenvalues not converged
     ethr =  2.64E-06,  avg # of iterations =  4.8

     negative rho (up, down):  6.943E-04 0.000E+00

     Adding external electric field

     Computed dipole along edir(3) : 
        Dipole                0.0950 Ry au,          0.2414 Debye
        Dipole field          0.0002 Ry au, 

        Potential amp.       -0.0211 Ry
        Total length         45.4890 bohr


     total cpu time spent up to now is     2612.0 secs

     total energy              =    -988.99075905 Ry
     estimated scf accuracy    <       0.00339699 Ry

     iteration # 12     ecut=    55.12 Ry     beta= 0.10
     Davidson diagonalization with overlap
     c_bands:  1 eigenvalues not converged
     c_bands:  1 eigenvalues not converged
     c_bands:  1 eigenvalues not converged
     c_bands:  1 eigenvalues not converged
     ethr =  2.64E-06,  avg # of iterations =  9.6

     negative rho (up, down):  6.825E-04 0.000E+00

     Adding external electric field

     Computed dipole along edir(3) : 
        Dipole                0.0948 Ry au,          0.2408 Debye
        Dipole field          0.0002 Ry au, 

        Potential amp.       -0.0210 Ry
        Total length         45.4890 bohr


     total cpu time spent up to now is     2828.8 secs

     total energy              =    -988.98979591 Ry
     estimated scf accuracy    <       0.01278217 Ry

     iteration # 13     ecut=    55.12 Ry     beta= 0.10
     Davidson diagonalization with overlap
     c_bands:  1 eigenvalues not converged
     ethr =  2.64E-06,  avg # of iterations =  2.3

     negative rho (up, down):  6.812E-04 0.000E+00

     Adding external electric field

     Computed dipole along edir(3) : 
        Dipole                0.0858 Ry au,          0.2180 Debye
        Dipole field          0.0002 Ry au, 

        Potential amp.       -0.0190 Ry
        Total length         45.4890 bohr


     total cpu time spent up to now is     2978.5 secs

     total energy              =    -988.98862337 Ry
     estimated scf accuracy    <       0.00758818 Ry

     iteration # 14     ecut=    55.12 Ry     beta= 0.10
     Davidson diagonalization with overlap
     c_bands:  2 eigenvalues not converged
     c_bands:  5 eigenvalues not converged
     c_bands:  2 eigenvalues not converged
     c_bands:  4 eigenvalues not converged
     c_bands:  1 eigenvalues not converged
     c_bands:  2 eigenvalues not converged
     c_bands:  1 eigenvalues not converged
     c_bands:  2 eigenvalues not converged
     c_bands:  2 eigenvalues not converged
     c_bands:  5 eigenvalues not converged
     c_bands:  1 eigenvalues not converged
     c_bands:  1 eigenvalues not converged
     c_bands:  2 eigenvalues not converged
     c_bands:  2 eigenvalues not converged
     c_bands:  1 eigenvalues not converged
     c_bands:  2 eigenvalues not converged
     c_bands:  1 eigenvalues not converged
     c_bands:  2 eigenvalues not converged
     c_bands:  1 eigenvalues not converged
     c_bands:  2 eigenvalues not converged
     c_bands:  2 eigenvalues not converged
     c_bands:  1 eigenvalues not converged
     c_bands:  1 eigenvalues not converged
     c_bands:  2 eigenvalues not converged
     c_bands:  1 eigenvalues not converged
     c_bands:  1 eigenvalues not converged
     c_bands:  1 eigenvalues not converged
     c_bands:  1 eigenvalues not converged
     c_bands:  1 eigenvalues not converged
     c_bands:  3 eigenvalues not converged
     c_bands:  1 eigenvalues not converged
     c_bands:  1 eigenvalues not converged
     c_bands:  1 eigenvalues not converged
     c_bands:  3 eigenvalues not converged
     c_bands:  1 eigenvalues not converged
     c_bands:  1 eigenvalues not converged
     c_bands:  2 eigenvalues not converged
     c_bands:  5 eigenvalues not converged
     c_bands:  4 eigenvalues not converged
     c_bands:  1 eigenvalues not converged
     ethr =  2.64E-06,  avg # of iterations = 18.9

     negative rho (up, down):  6.696E-04 0.000E+00

     Adding external electric field

     Computed dipole along edir(3) : 
        Dipole                0.0945 Ry au,          0.2403 Debye
        Dipole field          0.0002 Ry au, 

        Potential amp.       -0.0210 Ry
        Total length         45.4890 bohr


     total cpu time spent up to now is     3600.7 secs

     total energy              =    -988.97986395 Ry
     estimated scf accuracy    <       0.04896335 Ry

     iteration # 15     ecut=    55.12 Ry     beta= 0.10
     Davidson diagonalization with overlap
     c_bands:  2 eigenvalues not converged
     c_bands:  1 eigenvalues not converged
     c_bands:  1 eigenvalues not converged
     c_bands:  1 eigenvalues not converged
     c_bands:  1 eigenvalues not converged
     c_bands:  1 eigenvalues not converged
     ethr =  2.64E-06,  avg # of iterations = 15.7

     negative rho (up, down):  6.642E-04 0.000E+00

     Adding external electric field

     Computed dipole along edir(3) : 
        Dipole                0.0955 Ry au,          0.2427 Debye
        Dipole field          0.0002 Ry au, 

        Potential amp.       -0.0212 Ry
        Total length         45.4890 bohr


     total cpu time spent up to now is     4055.5 secs

     total energy              =    -988.98878672 Ry
     estimated scf accuracy    <       0.00178510 Ry

     iteration # 16     ecut=    55.12 Ry     beta= 0.10
     Davidson diagonalization with overlap
     c_bands:  1 eigenvalues not converged
     c_bands:  1 eigenvalues not converged
     c_bands:  1 eigenvalues not converged
     c_bands:  2 eigenvalues not converged
     c_bands:  1 eigenvalues not converged
     ethr =  1.42E-06,  avg # of iterations =  4.0

     negative rho (up, down):  6.586E-04 0.000E+00

     Adding external electric field

     Computed dipole along edir(3) : 
        Dipole                0.0934 Ry au,          0.2373 Debye
        Dipole field          0.0002 Ry au, 

        Potential amp.       -0.0207 Ry
        Total length         45.4890 bohr


     total cpu time spent up to now is     4225.5 secs

     total energy              =    -988.98919859 Ry
     estimated scf accuracy    <       0.00131005 Ry

     iteration # 17     ecut=    55.12 Ry     beta= 0.10
     Davidson diagonalization with overlap
     c_bands:  1 eigenvalues not converged
     c_bands:  1 eigenvalues not converged
     ethr =  1.04E-06,  avg # of iterations = 10.8

     negative rho (up, down):  6.573E-04 0.000E+00

     Adding external electric field

     Computed dipole along edir(3) : 
        Dipole                0.0987 Ry au,          0.2508 Debye
        Dipole field          0.0002 Ry au, 

        Potential amp.       -0.0219 Ry
        Total length         45.4890 bohr


     total cpu time spent up to now is     4533.3 secs

     total energy              =    -988.98813101 Ry
     estimated scf accuracy    <       0.00654523 Ry

     iteration # 18     ecut=    55.12 Ry     beta= 0.10
     Davidson diagonalization with overlap
     c_bands:  1 eigenvalues not converged
     ethr =  1.04E-06,  avg # of iterations =  8.5

     negative rho (up, down):  6.565E-04 0.000E+00

     Adding external electric field

     Computed dipole along edir(3) : 
        Dipole                0.1004 Ry au,          0.2552 Debye
        Dipole field          0.0002 Ry au, 

        Potential amp.       -0.0223 Ry
        Total length         45.4890 bohr


     total cpu time spent up to now is     4792.4 secs

     total energy              =    -988.98863193 Ry
     estimated scf accuracy    <       0.00038000 Ry

     iteration # 19     ecut=    55.12 Ry     beta= 0.10
     Davidson diagonalization with overlap
     c_bands:  2 eigenvalues not converged
     c_bands:  2 eigenvalues not converged
     ethr =  3.02E-07,  avg # of iterations =  8.5

     negative rho (up, down):  6.541E-04 0.000E+00

     Adding external electric field

     Computed dipole along edir(3) : 
        Dipole                0.1000 Ry au,          0.2543 Debye
        Dipole field          0.0002 Ry au, 

        Potential amp.       -0.0222 Ry
        Total length         45.4890 bohr


     total cpu time spent up to now is     5036.2 secs

     total energy              =    -988.98876728 Ry
     estimated scf accuracy    <       0.00003222 Ry

     iteration # 20     ecut=    55.12 Ry     beta= 0.10
     Davidson diagonalization with overlap
     c_bands:  1 eigenvalues not converged
     c_bands:  1 eigenvalues not converged
     c_bands:  1 eigenvalues not converged
     c_bands:  1 eigenvalues not converged
     c_bands:  1 eigenvalues not converged
     c_bands:  1 eigenvalues not converged
     c_bands:  2 eigenvalues not converged
     c_bands:  2 eigenvalues not converged
     ethr =  2.56E-08,  avg # of iterations = 15.1

     negative rho (up, down):  6.522E-04 0.000E+00

     Adding external electric field

     Computed dipole along edir(3) : 
        Dipole                0.0996 Ry au,          0.2533 Debye
        Dipole field          0.0002 Ry au, 

        Potential amp.       -0.0221 Ry
        Total length         45.4890 bohr


     total cpu time spent up to now is     5483.3 secs

     total energy              =    -988.98882292 Ry
     estimated scf accuracy    <       0.00001559 Ry

     iteration # 21     ecut=    55.12 Ry     beta= 0.10
     Davidson diagonalization with overlap
     c_bands:  1 eigenvalues not converged
     ethr =  1.24E-08,  avg # of iterations =  4.0

     negative rho (up, down):  6.461E-04 0.000E+00

     Adding external electric field

     Computed dipole along edir(3) : 
        Dipole                0.0967 Ry au,          0.2457 Debye
        Dipole field          0.0002 Ry au, 

        Potential amp.       -0.0214 Ry
        Total length         45.4890 bohr


     total cpu time spent up to now is     5658.2 secs

     End of self-consistent calculation

          k = 0.0000 0.0000 0.0000 ( 35641 PWs)   bands (ev):

   -49.3966 -49.3879 -49.3799 -49.3712 -48.8936 -48.8766 -28.0536 -28.0505
   -28.0373 -28.0313 -28.0002 -27.9858 -27.9060 -27.8961 -27.8924 -27.8805
   -27.8213 -27.8071 -27.5710 -27.4779 -27.4736 -27.4606 -27.4487 -27.3817
    -5.9623  -4.4090  -3.8990  -3.7163  -3.5902  -3.5835  -3.5748  -3.5643
    -3.4433  -3.4360  -2.9588  -2.9121  -2.6516  -2.5477  -2.4337  -2.3981
    -2.3029  -2.1844  -2.1736  -2.1692  -2.1348  -1.9384  -1.8500  -1.7445
    -1.5471  -1.5438  -1.4911  -1.3689  -1.0378  -0.8302  -0.8152  -0.5371
    -0.5160   0.1842   0.3223   0.5553   0.5610   1.2501   1.5681   1.6112
     1.6535   1.9523   2.0719   2.0962   2.1328   2.2928   2.2946   2.3937
     2.4820   2.8229   2.8981   2.9282

          k = 0.0000 0.0154 0.0000 ( 35612 PWs)   bands (ev):

   -49.3963 -49.3876 -49.3802 -49.3714 -48.8933 -48.8768 -28.0533 -28.0502
   -28.0376 -28.0317 -27.9973 -27.9830 -27.9059 -27.8963 -27.8928 -27.8811
   -27.8245 -27.8103 -27.5679 -27.4778 -27.4731 -27.4611 -27.4491 -27.3851
    -5.9179  -4.3679  -3.8595  -3.7234  -3.5676  -3.5654  -3.5572  -3.5431
    -3.4230  -3.4164  -2.9372  -2.8853  -2.6548  -2.5208  -2.4247  -2.4027
    -2.2893  -2.2001  -2.1720  -2.1700  -2.1084  -1.9347  -1.8502  -1.7540
    -1.5748  -1.5515  -1.4915  -1.3589  -1.0598  -0.8422  -0.8379  -0.5438
    -0.5243  -0.1458   0.0930   0.3767   0.8571   1.4762   1.5407   1.5649
     1.5916   1.9459   2.0340   2.1353   2.1386   2.2622   2.3147   2.3445
     2.4696   2.7769   2.8117   2.8635

          k = 0.0000 0.0309 0.0000 ( 35598 PWs)   bands (ev):

   -49.3955 -49.3867 -49.3810 -49.3722 -48.8924 -48.8776 -28.0526 -28.0493
   -28.0386 -28.0328 -27.9889 -27.9745 -27.9056 -27.8966 -27.8940 -27.8829
   -27.8339 -27.8198 -27.5590 -27.4777 -27.4718 -27.4627 -27.4503 -27.3951
    -5.7872  -4.2493  -3.7645  -3.7434  -3.5308  -3.5042  -3.4934  -3.4662
    -3.3710  -3.3509  -2.8881  -2.8064  -2.6450  -2.4561  -2.4171  -2.3976
    -2.2515  -2.2446  -2.1701  -2.1538  -2.0608  -1.9124  -1.8525  -1.7745
    -1.6443  -1.5793  -1.4853  -1.3530  -1.1166  -0.9694  -0.8734  -0.6580
    -0.5258  -0.4860  -0.3474   0.0354   1.2162   1.3658   1.4185   1.5041
     1.7599   1.9394   1.9936   2.0830   2.1403   2.2205   2.3284   2.3431
     2.4330   2.6065   2.7330   2.7555

          k = 0.0000 0.0463 0.0000 ( 35595 PWs)   bands (ev):

   -49.3941 -49.3853 -49.3823 -49.3735 -48.8910 -48.8789 -28.0513 -28.0479
   -28.0400 -28.0343 -27.9753 -27.9610 -27.9051 -27.8969 -27.8957 -27.8855
   -27.8488 -27.8346 -27.5447 -27.4774 -27.4697 -27.4651 -27.4522 -27.4108
    -5.5770  -4.0687  -3.8659  -3.5598  -3.4975  -3.4005  -3.3815  -3.3481
    -3.2902  -3.2421  -2.8461  -2.6813  -2.6117  -2.4438  -2.3705  -2.3566
    -2.3099  -2.1964  -2.1740  -2.1165  -2.0231  -1.8613  -1.8482  -1.7809
    -1.7273  -1.6317  -1.4910  -1.3716  -1.3287  -1.1898  -0.9756  -0.9097
    -0.7717  -0.6179  -0.4236  -0.3045   1.0822   1.1810   1.4282   1.5120
     1.6708   1.9283   1.9796   2.0025   2.1489   2.2159   2.3442   2.3969
     2.4353   2.4782   2.6214   2.6591

          k = 0.0000 0.0618 0.0000 ( 35640 PWs)   bands (ev):

   -49.3923 -49.3839 -49.3835 -49.3752 -48.8892 -48.8806 -28.0498 -28.0460
   -28.0418 -28.0364 -27.9575 -27.9432 -27.9044 -27.8977 -27.8969 -27.8886
   -27.8680 -27.8538 -27.5259 -27.4767 -27.4679 -27.4670 -27.4547 -27.4311
    -5.2997  -4.0462  -3.8579  -3.4737  -3.3364  -3.2765  -3.2345  -3.2100
    -3.1853  -3.0946  -2.8286  -2.5811  -2.5197  -2.4843  -2.3796  -2.3299
    -2.2964  -2.1847  -2.1325  -2.0637  -1.9812  -1.8830  -1.8045  -1.7762
    -1.7303  -1.7070  -1.7022  -1.5449  -1.4055  -1.4022  -1.2694  -1.1486
    -0.9322  -0.6287  -0.5427  -0.3526   0.7924   1.0270   1.3219   1.3359
     1.7227   1.8601   1.8905   1.9736   2.1758   2.2842   2.3303   2.3793
     2.4096   2.4998   2.5612   2.5654

          k = 0.0000 0.0772 0.0000 ( 35618 PWs)   bands (ev):

   -49.3902 -49.3859 -49.3815 -49.3772 -48.8871 -48.8826 -28.0479 -28.0438
   -28.0437 -28.0388 -27.9366 -27.9223 -27.9036 -27.8996 -27.8963 -27.8915
   -27.8896 -27.8756 -27.5038 -27.4757 -27.4705 -27.4640 -27.4576 -27.4542
    -4.9750  -4.3092  -3.6665  -3.4794  -3.1675  -3.1609  -3.1015  -3.0920
    -2.9995  -2.9156  -2.8338  -2.5680  -2.5364  -2.4217  -2.3963  -2.3252
    -2.3206  -2.1808  -2.0975  -2.0074  -1.9628  -1.9255  -1.8955  -1.8594
    -1.7809  -1.7690  -1.6806  -1.6337  -1.6223  -1.4931  -1.4658  -1.3548
    -0.9244  -0.7424  -0.5393  -0.3335   0.6330   0.9757   0.9951   1.2125
     1.7659   1.7930   1.8523   1.9605   2.2142   2.2684   2.3391   2.3772
     2.4465   2.4649   2.4868   2.5409

          k = 0.0000-0.0927 0.0000 ( 35690 PWs)   bands (ev):

   -49.3881 -49.3880 -49.3793 -49.3793 -48.8851 -48.8846 -28.0459 -28.0459
   -28.0414 -28.0413 -27.9141 -27.9141 -27.9013 -27.9013 -27.9001 -27.9001
   -27.8931 -27.8931 -27.4808 -27.4804 -27.4722 -27.4718 -27.4610 -27.4606
    -4.6321  -4.6321  -3.5378  -3.5378  -3.0996  -3.0996  -3.0608  -3.0608
    -2.8573  -2.8573  -2.6591  -2.6591  -2.5650  -2.5650  -2.3820  -2.3820
    -2.1722  -2.1722  -2.0742  -2.0742  -1.9425  -1.9424  -1.9071  -1.9071
    -1.8506  -1.8506  -1.7096  -1.7095  -1.5560  -1.5560  -1.4536  -1.4536
    -0.8664  -0.8664  -0.4217  -0.4217   0.7135   0.7135   1.0741   1.0741
     1.7419   1.7420   1.9280   1.9280   2.2376   2.2378   2.3625   2.3627
     2.4412   2.4414   2.4997   2.5008

          k = 0.0145-0.0052 0.0000 ( 35612 PWs)   bands (ev):

   -49.3963 -49.3876 -49.3802 -49.3714 -48.8933 -48.8768 -28.0533 -28.0502
   -28.0376 -28.0317 -27.9973 -27.9830 -27.9059 -27.8963 -27.8928 -27.8811
   -27.8245 -27.8103 -27.5679 -27.4778 -27.4731 -27.4611 -27.4491 -27.3851
    -5.9179  -4.3679  -3.8595  -3.7234  -3.5676  -3.5654  -3.5572  -3.5431
    -3.4230  -3.4164  -2.9372  -2.8853  -2.6548  -2.5208  -2.4247  -2.4027
    -2.2893  -2.2001  -2.1720  -2.1700  -2.1084  -1.9347  -1.8502  -1.7540
    -1.5748  -1.5515  -1.4915  -1.3589  -1.0598  -0.8422  -0.8379  -0.5438
    -0.5243  -0.1458   0.0930   0.3767   0.8571   1.4762   1.5407   1.5649
     1.5916   1.9459   2.0340   2.1353   2.1386   2.2622   2.3148   2.3445
     2.4695   2.7777   2.8123   2.8645

          k = 0.0145 0.0102 0.0000 ( 35595 PWs)   bands (ev):

   -49.3966 -49.3878 -49.3799 -49.3711 -48.8935 -48.8765 -28.0539 -28.0504
   -28.0369 -28.0317 -28.0006 -27.9862 -27.9064 -27.8974 -27.8921 -27.8811
   -27.8214 -27.8072 -27.5714 -27.4786 -27.4731 -27.4609 -27.4491 -27.3818
    -5.9038  -4.3664  -3.8719  -3.7254  -3.5643  -3.5600  -3.5366  -3.5293
    -3.4284  -3.4015  -2.9318  -2.8865  -2.6901  -2.4759  -2.4515  -2.3666
    -2.2872  -2.1927  -2.1812  -2.1713  -2.1080  -1.9215  -1.8150  -1.7355
    -1.5496  -1.5364  -1.5000  -1.3694  -1.0332  -0.8773  -0.7847  -0.5495
    -0.5073   0.1866   0.3238   0.4696   0.5583   1.1779   1.3708   1.5663
     1.5792   1.8781   1.9280   2.0253   2.0995   2.2231   2.3070   2.3307
     2.4918   2.7143   2.7299   2.9111

          k = 0.0145 0.0257 0.0000 ( 35623 PWs)   bands (ev):

   -49.3963 -49.3875 -49.3802 -49.3714 -48.8932 -48.8768 -28.0541 -28.0500
   -28.0369 -28.0323 -27.9982 -27.9837 -27.9069 -27.8988 -27.8923 -27.8823
   -27.8247 -27.8106 -27.5687 -27.4792 -27.4722 -27.4618 -27.4498 -27.3854
    -5.8027  -4.2868  -3.8095  -3.7522  -3.5246  -3.5049  -3.4877  -3.4707
    -3.3912  -3.3514  -2.8928  -2.8352  -2.7005  -2.4530  -2.4103  -2.3440
    -2.2631  -2.2094  -2.1910  -2.1665  -2.0685  -1.9000  -1.7850  -1.7300
    -1.5865  -1.5491  -1.4959  -1.3615  -1.0518  -0.9261  -0.7853  -0.6055
    -0.4657  -0.1908   0.0748   0.3502   0.7685   1.1229   1.3210   1.4472
     1.5352   1.8324   1.8432   1.9943   2.0560   2.1159   2.2335   2.3386
     2.4808   2.5703   2.6408   2.8550

          k = 0.0145 0.0411 0.0000 ( 35627 PWs)   bands (ev):

   -49.3953 -49.3866 -49.3810 -49.3722 -48.8923 -48.8776 -28.0537 -28.0489
   -28.0375 -28.0335 -27.9900 -27.9756 -27.9071 -27.8998 -27.8932 -27.8843
   -27.8342 -27.8200 -27.5600 -27.4796 -27.4706 -27.4635 -27.4513 -27.3954
    -5.6198  -4.1415  -3.8312  -3.6770  -3.4712  -3.4057  -3.4045  -3.3667
    -3.3136  -3.2706  -2.8506  -2.7374  -2.6808  -2.4333  -2.3442  -2.3342
    -2.2379  -2.2156  -2.2118  -2.1431  -2.0266  -1.8510  -1.7701  -1.7198
    -1.6560  -1.5985  -1.4864  -1.3629  -1.1117  -0.9699  -0.9588  -0.7309
    -0.5663  -0.4017  -0.3344  -0.0611   0.8312   1.1149   1.2944   1.4126
     1.4371   1.8077   1.8278   1.9846   2.0233   2.0443   2.2220   2.3192
     2.4352   2.4447   2.5441   2.7698

          k = 0.0145 0.0566 0.0000 ( 35617 PWs)   bands (ev):

   -49.3940 -49.3852 -49.3823 -49.3735 -48.8909 -48.8789 -28.0529 -28.0472
   -28.0388 -28.0352 -27.9765 -27.9621 -27.9071 -27.9001 -27.8947 -27.8867
   -27.8490 -27.8348 -27.5458 -27.4794 -27.4683 -27.4657 -27.4534 -27.4111
    -5.3650  -3.9790  -3.9547  -3.4830  -3.4257  -3.2977  -3.2778  -3.2389
    -3.1993  -3.1662  -2.8252  -2.6464  -2.6073  -2.4120  -2.3705  -2.2888
    -2.2676  -2.2269  -2.1465  -2.1007  -1.9916  -1.7947  -1.7720  -1.7144
    -1.6757  -1.6696  -1.5083  -1.3974  -1.3748  -1.1967  -1.0403  -0.9869
    -0.8404  -0.5119  -0.4577  -0.3453   0.5700   1.1618   1.2298   1.2343
     1.4240   1.7620   1.8303   1.9982   2.0142   2.0968   2.2745   2.2906
     2.3768   2.3882   2.4707   2.8053

          k = 0.0145 0.0720 0.0000 ( 35626 PWs)   bands (ev):

   -49.3922 -49.3840 -49.3834 -49.3752 -48.8891 -48.8806 -28.0515 -28.0451
   -28.0404 -28.0372 -27.9587 -27.9443 -27.9068 -27.8994 -27.8964 -27.8891
   -27.8679 -27.8537 -27.5269 -27.4785 -27.4681 -27.4655 -27.4560 -27.4312
    -5.0543  -4.2053  -3.7646  -3.4043  -3.2438  -3.1915  -3.1510  -3.1236
    -3.0567  -3.0533  -2.8187  -2.6172  -2.4750  -2.4205  -2.4199  -2.3111
    -2.2378  -2.2324  -2.0988  -2.0499  -1.9453  -1.8627  -1.7612  -1.7496
    -1.7471  -1.6825  -1.5831  -1.5729  -1.4719  -1.4623  -1.2947  -1.2243
    -0.9654  -0.7459  -0.4243  -0.3861   0.4868   0.9510   1.0220   1.1297
     1.6283   1.6941   1.8245   2.0046   2.0574   2.1988   2.2570   2.2751
     2.3663   2.4179   2.4303   2.7039

          k = 0.0145-0.0979 0.0000 ( 35640 PWs)   bands (ev):

   -49.3901 -49.3860 -49.3814 -49.3772 -48.8871 -48.8826 -28.0497 -28.0427
   -28.0425 -28.0394 -27.9375 -27.9232 -27.9061 -27.8983 -27.8977 -27.8911
   -27.8894 -27.8754 -27.5046 -27.4770 -27.4703 -27.4625 -27.4590 -27.4541
    -4.7117  -4.4998  -3.6146  -3.4295  -3.1195  -3.1015  -3.0742  -3.0130
    -2.9383  -2.8989  -2.8176  -2.6172  -2.4746  -2.4706  -2.3702  -2.3333
    -2.2488  -2.1843  -2.0921  -2.0115  -1.9713  -1.9373  -1.8620  -1.8519
    -1.8177  -1.7889  -1.6667  -1.6659  -1.5480  -1.5286  -1.4697  -1.4100
    -0.8882  -0.8537  -0.5372  -0.3459   0.6474   0.7508   0.8268   1.1637
     1.6797   1.7719   1.8400   2.0184   2.1209   2.2374   2.2460   2.3170
     2.4207   2.4358   2.4603   2.6084

          k = 0.0145-0.0824 0.0000 ( 35646 PWs)   bands (ev):

   -49.3882 -49.3880 -49.3794 -49.3792 -48.8851 -48.8846 -28.0476 -28.0447
   -28.0417 -28.0402 -27.9145 -27.9135 -27.9037 -27.9006 -27.8999 -27.8994
   -27.8936 -27.8920 -27.4807 -27.4799 -27.4729 -27.4716 -27.4622 -27.4594
    -4.8310  -4.3722  -3.5281  -3.5249  -3.1495  -3.1339  -3.0978  -3.0455
    -2.8830  -2.8306  -2.6294  -2.6240  -2.6178  -2.4931  -2.4930  -2.2390
    -2.1771  -2.1618  -2.1040  -2.0380  -1.9844  -1.9538  -1.9287  -1.9281
    -1.9081  -1.7991  -1.7601  -1.7118  -1.6459  -1.5267  -1.4620  -1.3886
    -0.8929  -0.7492  -0.6648  -0.3194   0.7116   0.7434   0.9572   1.2170
     1.7710   1.8510   1.8983   2.0064   2.1632   2.2752   2.2873   2.4306
     2.4642   2.4681   2.5385   2.5534

          k = 0.0145-0.0670 0.0000 ( 35613 PWs)   bands (ev):

   -49.3903 -49.3859 -49.3816 -49.3771 -48.8871 -48.8827 -28.0469 -28.0453
   -28.0440 -28.0377 -27.9357 -27.9215 -27.9023 -27.9016 -27.8939 -27.8911
   -27.8900 -27.8760 -27.5030 -27.4743 -27.4708 -27.4653 -27.4564 -27.4545
    -5.1599  -4.0797  -3.7009  -3.4991  -3.2666  -3.2470  -3.1786  -3.1639
    -3.0761  -2.8878  -2.7872  -2.5878  -2.5043  -2.4806  -2.3865  -2.3717
    -2.2083  -2.1229  -2.1130  -2.0402  -1.9859  -1.9788  -1.9540  -1.8819
    -1.8393  -1.7464  -1.7348  -1.6673  -1.6244  -1.4656  -1.4153  -1.3112
    -0.8892  -0.7596  -0.5337  -0.3721   0.7331   0.9450   1.2650   1.3351
     1.8785   1.9299   1.9408   1.9972   2.2484   2.3194   2.3471   2.3614
     2.4869   2.5040   2.5527   2.6285

          k = 0.0145-0.0516 0.0000 ( 35579 PWs)   bands (ev):

   -49.3924 -49.3839 -49.3836 -49.3752 -48.8892 -48.8807 -28.0491 -28.0461
   -28.0429 -28.0355 -27.9567 -27.9424 -27.9034 -27.8991 -27.8942 -27.8878
   -27.8680 -27.8538 -27.5251 -27.4753 -27.4682 -27.4677 -27.4537 -27.4311
    -5.4529  -3.9238  -3.8720  -3.5074  -3.4297  -3.3779  -3.3035  -3.2850
    -3.2711  -3.1088  -2.7874  -2.5722  -2.5358  -2.5283  -2.4013  -2.4005
    -2.2493  -2.1736  -2.1222  -2.0795  -1.9981  -1.9507  -1.8506  -1.8356
    -1.8059  -1.7081  -1.6667  -1.5320  -1.4056  -1.3589  -1.2390  -1.1031
    -0.8653  -0.7635  -0.4434  -0.3610   0.9115   1.2478   1.3287   1.7074
     1.8245   1.8742   2.0686   2.1066   2.2739   2.3239   2.3432   2.4091
     2.4493   2.4648   2.6752   2.6971

          k = 0.0145-0.0361 0.0000 ( 35578 PWs)   bands (ev):

   -49.3942 -49.3854 -49.3823 -49.3735 -48.8910 -48.8790 -28.0509 -28.0479
   -28.0408 -28.0337 -27.9746 -27.9603 -27.9044 -27.8966 -27.8947 -27.8847
   -27.8487 -27.8346 -27.5440 -27.4762 -27.4705 -27.4648 -27.4515 -27.4107
    -5.6862  -4.1336  -3.7595  -3.6180  -3.5339  -3.4810  -3.4279  -3.4276
    -3.3520  -3.2642  -2.8303  -2.7241  -2.5736  -2.4884  -2.4848  -2.3184
    -2.3141  -2.2318  -2.1308  -2.1214  -2.0142  -1.9316  -1.9187  -1.8273
    -1.7214  -1.6107  -1.4887  -1.3800  -1.3142  -1.1786  -0.9358  -0.8404
    -0.7314  -0.6995  -0.4946  -0.1916   1.1927   1.3997   1.5533   1.5811
     1.8528   2.0633   2.0646   2.1811   2.2468   2.2993   2.3431   2.4007
     2.4245   2.4931   2.6579   2.8562

          k = 0.0145-0.0207 0.0000 ( 35573 PWs)   bands (ev):

   -49.3955 -49.3867 -49.3810 -49.3722 -48.8924 -48.8777 -28.0523 -28.0493
   -28.0390 -28.0324 -27.9885 -27.9742 -27.9052 -27.8953 -27.8943 -27.8823
   -27.8338 -27.8197 -27.5586 -27.4770 -27.4722 -27.4625 -27.4500 -27.3949
    -5.8442  -4.2882  -3.7719  -3.7246  -3.5597  -3.5333  -3.5207  -3.5143
    -3.4017  -3.3664  -2.8964  -2.8303  -2.6106  -2.5314  -2.4442  -2.3761
    -2.2708  -2.2477  -2.1570  -2.1494  -2.0647  -1.9458  -1.8852  -1.7891
    -1.6398  -1.5740  -1.4880  -1.3532  -1.1167  -0.9824  -0.8299  -0.6281
    -0.5207  -0.5203  -0.3408   0.0673   1.2561   1.4730   1.4852   1.6559
     1.8902   1.9224   2.0135   2.1917   2.2078   2.3327   2.3399   2.3647
     2.4206   2.6373   2.7446   2.8873

          k = 0.0291-0.0104 0.0000 ( 35598 PWs)   bands (ev):

   -49.3955 -49.3867 -49.3810 -49.3722 -48.8924 -48.8776 -28.0526 -28.0493
   -28.0386 -28.0328 -27.9889 -27.9745 -27.9056 -27.8966 -27.8940 -27.8829
   -27.8339 -27.8198 -27.5590 -27.4777 -27.4718 -27.4627 -27.4503 -27.3951
    -5.7872  -4.2493  -3.7645  -3.7434  -3.5308  -3.5042  -3.4934  -3.4662
    -3.3710  -3.3509  -2.8881  -2.8064  -2.6450  -2.4561  -2.4171  -2.3976
    -2.2515  -2.2446  -2.1701  -2.1538  -2.0608  -1.9124  -1.8525  -1.7745
    -1.6443  -1.5793  -1.4853  -1.3530  -1.1166  -0.9694  -0.8734  -0.6580
    -0.5258  -0.4860  -0.3474   0.0354   1.2162   1.3658   1.4185   1.5041
     1.7599   1.9394   1.9938   2.0830   2.1402   2.2205   2.3286   2.3432
     2.4329   2.6068   2.7333   2.7545

          k = 0.0291 0.0050 0.0000 ( 35623 PWs)   bands (ev):

   -49.3963 -49.3875 -49.3802 -49.3714 -48.8932 -48.8768 -28.0541 -28.0500
   -28.0369 -28.0323 -27.9982 -27.9837 -27.9069 -27.8988 -27.8923 -27.8823
   -27.8247 -27.8106 -27.5687 -27.4792 -27.4722 -27.4618 -27.4498 -27.3854
    -5.8027  -4.2868  -3.8095  -3.7522  -3.5246  -3.5049  -3.4877  -3.4707
    -3.3912  -3.3514  -2.8928  -2.8352  -2.7005  -2.4530  -2.4103  -2.3440
    -2.2631  -2.2094  -2.1910  -2.1665  -2.0685  -1.9000  -1.7850  -1.7300
    -1.5865  -1.5491  -1.4959  -1.3615  -1.0518  -0.9261  -0.7853  -0.6055
    -0.4657  -0.1908   0.0748   0.3502   0.7685   1.1229   1.3210   1.4472
     1.5352   1.8324   1.8432   1.9943   2.0562   2.1160   2.2335   2.3388
     2.4810   2.5700   2.6414   2.8573

          k = 0.0291 0.0204 0.0000 ( 35623 PWs)   bands (ev):

   -49.3965 -49.3877 -49.3799 -49.3711 -48.8935 -48.8764 -28.0552 -28.0499
   -28.0360 -28.0324 -28.0018 -27.9874 -27.9082 -27.9008 -27.8916 -27.8827
   -27.8218 -27.8076 -27.5725 -27.4806 -27.4719 -27.4618 -27.4500 -27.3823
    -5.7323  -4.2484  -3.8099  -3.7455  -3.4930  -3.4643  -3.4437  -3.4309
    -3.3804  -3.3024  -2.8571  -2.8100  -2.7327  -2.4776  -2.3528  -2.2780
    -2.2586  -2.2422  -2.1657  -2.1644  -2.0391  -1.8895  -1.7228  -1.6974
    -1.5759  -1.5324  -1.5124  -1.3679  -1.0169  -0.9887  -0.7115  -0.6320
    -0.4313   0.1949   0.2338   0.3253   0.5486   0.8361   0.9933   1.3666
     1.4308   1.5458   1.8016   1.9164   1.9643   2.0076   2.1913   2.3337
     2.4505   2.4748   2.5555   2.8693

          k = 0.0291 0.0359 0.0000 ( 35646 PWs)   bands (ev):

   -49.3961 -49.3873 -49.3801 -49.3714 -48.8931 -48.8767 -28.0558 -28.0492
   -28.0360 -28.0329 -27.9996 -27.9851 -27.9094 -27.9024 -27.8918 -27.8839
   -27.8252 -27.8110 -27.5700 -27.4817 -27.4708 -27.4628 -27.4509 -27.3860
    -5.5798  -4.1442  -3.7852  -3.7471  -3.4324  -3.3750  -3.3678  -3.3524
    -3.3282  -3.2227  -2.8143  -2.7364  -2.7312  -2.4750  -2.2952  -2.2775
    -2.2309  -2.2269  -2.1639  -2.1429  -2.0004  -1.8623  -1.6834  -1.6661
    -1.6162  -1.5792  -1.4936  -1.3661  -1.0431  -1.0283  -0.7253  -0.6894
    -0.3829  -0.3121   0.0590   0.2837   0.5411   0.6414   1.0742   1.2277
     1.2537   1.4709   1.8142   1.8488   1.8618   1.9732   2.1149   2.3010
     2.3307   2.4154   2.4829   2.8249

          k = 0.0291 0.0513 0.0000 ( 35624 PWs)   bands (ev):

   -49.3952 -49.3864 -49.3810 -49.3722 -48.8922 -48.8775 -28.0557 -28.0479
   -28.0368 -28.0338 -27.9914 -27.9769 -27.9104 -27.9030 -27.8928 -27.8855
   -27.8346 -27.8204 -27.5614 -27.4821 -27.4690 -27.4644 -27.4525 -27.3960
    -5.3532  -3.9928  -3.8914  -3.6292  -3.3632  -3.2741  -3.2458  -3.2454
    -3.2412  -3.1181  -2.7985  -2.6910  -2.6315  -2.4615  -2.3111  -2.2542
    -2.2266  -2.1768  -2.1634  -2.1022  -1.9785  -1.7973  -1.7226  -1.6550
    -1.6274  -1.6182  -1.4987  -1.3895  -1.0947  -1.0520  -1.0105  -0.8074
    -0.6549  -0.3705  -0.2859  -0.1937   0.3284   0.9779   0.9812   1.0750
     1.1697   1.5379   1.8091   1.8751   1.8828   1.9580   2.0772   2.2550
     2.2695   2.3575   2.3962   2.7635

          k = 0.0291 0.0668 0.0000 ( 35605 PWs)   bands (ev):

   -49.3938 -49.3850 -49.3823 -49.3735 -48.8908 -48.8788 -28.0550 -28.0461
   -28.0383 -28.0351 -27.9779 -27.9634 -27.9108 -27.9024 -27.8944 -27.8872
   -27.8492 -27.8350 -27.5471 -27.4817 -27.4667 -27.4663 -27.4547 -27.4115
    -5.0653  -4.0727  -3.8220  -3.4728  -3.3086  -3.1838  -3.1347  -3.1314
    -3.0859  -3.0006  -2.8052  -2.6407  -2.5354  -2.4671  -2.3434  -2.2431
    -2.2139  -2.1972  -2.0990  -2.0664  -1.9554  -1.8002  -1.7407  -1.7073
    -1.6605  -1.5454  -1.5434  -1.4601  -1.4376  -1.1888  -1.1149  -1.0220
    -0.9129  -0.7018  -0.4968  -0.3157   0.3460   0.7226   0.8706   1.1056
     1.3202   1.5996   1.8291   1.9055   1.9641   2.0021   2.1089   2.2187
     2.3015   2.3229   2.3595   2.6241

          k = 0.0291-0.1031 0.0000 ( 35632 PWs)   bands (ev):

   -49.3920 -49.3840 -49.3833 -49.3752 -48.8891 -48.8805 -28.0535 -28.0439
   -28.0403 -28.0367 -27.9597 -27.9453 -27.9103 -27.9007 -27.8964 -27.8886
   -27.8679 -27.8537 -27.5279 -27.4803 -27.4683 -27.4640 -27.4573 -27.4313
    -4.7355  -4.3272  -3.6677  -3.3228  -3.2952  -3.1113  -3.0638  -2.9955
    -2.9203  -2.9106  -2.8144  -2.6227  -2.5071  -2.4790  -2.3565  -2.2610
    -2.1748  -2.1701  -2.0901  -2.0469  -1.9141  -1.8878  -1.8289  -1.7905
    -1.7450  -1.6375  -1.6180  -1.5455  -1.5027  -1.4632  -1.3260  -1.3136
    -0.9297  -0.8425  -0.6861  -0.2964   0.4876   0.5754   0.7416   1.0958
     1.5485   1.6602   1.8676   1.9503   2.0057   2.1207   2.1804   2.1923
     2.3379   2.3944   2.4037   2.6092

          k = 0.0291-0.0877 0.0000 ( 35648 PWs)   bands (ev):

   -49.3900 -49.3860 -49.3813 -49.3772 -48.8870 -48.8826 -28.0514 -28.0425
   -28.0416 -28.0388 -27.9382 -27.9238 -27.9089 -27.8984 -27.8980 -27.8898
   -27.8893 -27.8752 -27.5051 -27.4779 -27.4702 -27.4612 -27.4602 -27.4541
    -4.6332  -4.3935  -3.5619  -3.3489  -3.2643  -3.1052  -3.0679  -2.9402
    -2.8076  -2.8016  -2.7713  -2.6728  -2.5737  -2.3945  -2.3665  -2.2579
    -2.1555  -2.1151  -2.1140  -2.0401  -2.0073  -1.9904  -1.9045  -1.8693
    -1.8463  -1.7981  -1.7852  -1.7102  -1.5922  -1.4762  -1.4529  -1.4068
    -0.8676  -0.8479  -0.7223  -0.3190   0.3502   0.7835   0.8946   1.1030
     1.6984   1.7809   1.9134   2.0275   2.0995   2.1240   2.2088   2.3660
     2.4109   2.4713   2.5307   2.6271

          k = 0.0291-0.0722 0.0000 ( 35600 PWs)   bands (ev):

   -49.3882 -49.3879 -49.3794 -49.3792 -48.8851 -48.8846 -28.0490 -28.0448
   -28.0410 -28.0393 -27.9146 -27.9127 -27.9060 -27.9006 -27.8998 -27.8985
   -27.8941 -27.8907 -27.4804 -27.4790 -27.4741 -27.4716 -27.4632 -27.4583
    -4.9546  -4.0838  -3.5144  -3.4936  -3.3115  -3.1913  -3.1370  -3.0599
    -2.9199  -2.7046  -2.6744  -2.6040  -2.5441  -2.5437  -2.4123  -2.1871
    -2.1824  -2.0926  -2.0778  -2.0768  -2.0554  -2.0425  -1.9664  -1.9322
    -1.9241  -1.8786  -1.7654  -1.7133  -1.6920  -1.5674  -1.4166  -1.3588
    -0.8912  -0.8582  -0.5091  -0.3865   0.3435   0.9902   1.1323   1.2736
     1.7674   1.9439   1.9810   2.0618   2.1271   2.2281   2.3518   2.4347
     2.4914   2.5006   2.5333   2.6635

          k = 0.0291-0.0568 0.0000 ( 35576 PWs)   bands (ev):

   -49.3904 -49.3859 -49.3816 -49.3771 -48.8871 -48.8827 -28.0470 -28.0462
   -28.0435 -28.0371 -27.9352 -27.9210 -27.9030 -27.9018 -27.8920 -27.8908
   -27.8905 -27.8763 -27.5025 -27.4734 -27.4710 -27.4661 -27.4557 -27.4548
    -5.2547  -3.8615  -3.7160  -3.5136  -3.3928  -3.3162  -3.2289  -3.2060
    -3.1174  -2.8842  -2.6880  -2.6187  -2.5117  -2.4475  -2.4146  -2.3952
    -2.1682  -2.1107  -2.0718  -2.0607  -2.0339  -2.0303  -1.9847  -1.8923
    -1.8789  -1.8360  -1.7043  -1.6556  -1.6206  -1.4480  -1.4185  -1.2853
    -0.8764  -0.8397  -0.4498  -0.3535   0.5295   1.1918   1.2794   1.6713
     1.7702   1.9562   2.0855   2.1017   2.2384   2.3066   2.3201   2.4269
     2.5192   2.5496   2.5807   2.6474

          k = 0.0291-0.0413 0.0000 ( 35595 PWs)   bands (ev):

   -49.3924 -49.3839 -49.3837 -49.3752 -48.8892 -48.8807 -28.0490 -28.0458
   -28.0434 -28.0352 -27.9563 -27.9421 -27.9031 -27.8997 -27.8931 -27.8874
   -27.8681 -27.8539 -27.5248 -27.4748 -27.4686 -27.4677 -27.4534 -27.4311
    -5.5049  -3.9475  -3.7649  -3.5302  -3.4617  -3.4486  -3.3372  -3.3039
    -3.3014  -3.1144  -2.7395  -2.5928  -2.5553  -2.5012  -2.4763  -2.4048
    -2.2129  -2.2039  -2.0956  -2.0815  -1.9799  -1.9660  -1.9293  -1.8627
    -1.8033  -1.7079  -1.6502  -1.5281  -1.4196  -1.3446  -1.2272  -1.0875
    -0.8302  -0.8137  -0.4857  -0.2799   0.8601   1.2880   1.5541   1.7295
     1.8108   2.0466   2.1473   2.1799   2.2386   2.2742   2.3514   2.3908
     2.4654   2.4822   2.7239   2.7648

          k = 0.0291-0.0259 0.0000 ( 35578 PWs)   bands (ev):

   -49.3942 -49.3854 -49.3823 -49.3735 -48.8910 -48.8790 -28.0509 -28.0479
   -28.0408 -28.0337 -27.9746 -27.9603 -27.9044 -27.8966 -27.8947 -27.8847
   -27.8487 -27.8346 -27.5440 -27.4762 -27.4705 -27.4648 -27.4515 -27.4107
    -5.6862  -4.1336  -3.7595  -3.6180  -3.5339  -3.4810  -3.4279  -3.4276
    -3.3520  -3.2642  -2.8303  -2.7241  -2.5736  -2.4884  -2.4848  -2.3184
    -2.3141  -2.2318  -2.1308  -2.1214  -2.0142  -1.9316  -1.9187  -1.8273
    -1.7214  -1.6107  -1.4887  -1.3800  -1.3142  -1.1786  -0.9358  -0.8404
    -0.7314  -0.6995  -0.4946  -0.1916   1.1928   1.3997   1.5533   1.5811
     1.8528   2.0635   2.0645   2.1811   2.2468   2.2993   2.3433   2.4008
     2.4245   2.4928   2.6589   2.8521

          k = 0.0436-0.0157 0.0000 ( 35595 PWs)   bands (ev):

   -49.3941 -49.3853 -49.3823 -49.3735 -48.8910 -48.8789 -28.0513 -28.0479
   -28.0400 -28.0343 -27.9753 -27.9610 -27.9051 -27.8969 -27.8957 -27.8855
   -27.8488 -27.8346 -27.5447 -27.4774 -27.4697 -27.4651 -27.4522 -27.4108
    -5.5770  -4.0687  -3.8659  -3.5598  -3.4975  -3.4005  -3.3815  -3.3481
    -3.2902  -3.2421  -2.8461  -2.6813  -2.6117  -2.4438  -2.3705  -2.3566
    -2.3099  -2.1964  -2.1740  -2.1165  -2.0231  -1.8613  -1.8482  -1.7809
    -1.7273  -1.6317  -1.4910  -1.3716  -1.3287  -1.1898  -0.9756  -0.9097
    -0.7717  -0.6178  -0.4236  -0.3045   1.0822   1.1810   1.4282   1.5120
     1.6708   1.9284   1.9795   2.0025   2.1490   2.2158   2.3445   2.3972
     2.4352   2.4783   2.6210   2.6606

          k = 0.0436-0.0002 0.0000 ( 35627 PWs)   bands (ev):

   -49.3953 -49.3866 -49.3810 -49.3722 -48.8923 -48.8776 -28.0537 -28.0489
   -28.0375 -28.0335 -27.9900 -27.9756 -27.9071 -27.8998 -27.8932 -27.8843
   -27.8342 -27.8200 -27.5600 -27.4796 -27.4706 -27.4635 -27.4513 -27.3954
    -5.6198  -4.1415  -3.8312  -3.6770  -3.4712  -3.4057  -3.4045  -3.3667
    -3.3136  -3.2706  -2.8506  -2.7374  -2.6809  -2.4333  -2.3442  -2.3342
    -2.2379  -2.2156  -2.2118  -2.1431  -2.0266  -1.8510  -1.7701  -1.7198
    -1.6560  -1.5985  -1.4864  -1.3629  -1.1117  -0.9699  -0.9588  -0.7309
    -0.5663  -0.4017  -0.3344  -0.0611   0.8312   1.1149   1.2944   1.4126
     1.4371   1.8077   1.8277   1.9846   2.0233   2.0443   2.2220   2.3189
     2.4348   2.4451   2.5436   2.7695

          k = 0.0436 0.0152 0.0000 ( 35646 PWs)   bands (ev):

   -49.3961 -49.3873 -49.3801 -49.3714 -48.8931 -48.8767 -28.0558 -28.0492
   -28.0360 -28.0329 -27.9996 -27.9851 -27.9094 -27.9024 -27.8918 -27.8839
   -27.8252 -27.8110 -27.5700 -27.4817 -27.4708 -27.4628 -27.4509 -27.3860
    -5.5798  -4.1442  -3.7852  -3.7471  -3.4324  -3.3750  -3.3678  -3.3525
    -3.3282  -3.2227  -2.8143  -2.7364  -2.7312  -2.4750  -2.2952  -2.2775
    -2.2309  -2.2269  -2.1639  -2.1429  -2.0004  -1.8623  -1.6834  -1.6661
    -1.6162  -1.5792  -1.4936  -1.3661  -1.0431  -1.0283  -0.7253  -0.6894
    -0.3829  -0.3121   0.0590   0.2837   0.5411   0.6414   1.0742   1.2277
     1.2537   1.4708   1.8142   1.8488   1.8617   1.9732   2.1150   2.3010
     2.3307   2.4153   2.4827   2.8250

          k = 0.0436 0.0307 0.0000 ( 35641 PWs)   bands (ev):

   -49.3963 -49.3875 -49.3798 -49.3711 -48.8934 -48.8763 -28.0573 -28.0489
   -28.0356 -28.0325 -28.0035 -27.9889 -27.9117 -27.9043 -27.8915 -27.8842
   -27.8223 -27.8081 -27.5740 -27.4835 -27.4703 -27.4631 -27.4513 -27.3830
    -5.4598  -4.0857  -3.7673  -3.7631  -3.3774  -3.3149  -3.3143  -3.2803
    -3.2794  -3.1465  -2.7633  -2.7577  -2.6811  -2.4844  -2.3055  -2.2602
    -2.2192  -2.1681  -2.1136  -2.1124  -1.9567  -1.8733  -1.6407  -1.6167
    -1.6099  -1.5976  -1.4884  -1.3530  -1.1026  -0.9869  -0.7436  -0.6109
    -0.3794  -0.0969   0.2038   0.2703   0.3280   0.5194   0.7621   0.9623
     1.1190   1.1692   1.6636   1.7274   1.8588   1.9149   2.0381   2.1905
     2.2579   2.3428   2.4668   2.8247

          k = 0.0436 0.0461 0.0000 ( 35648 PWs)   bands (ev):

   -49.3959 -49.3871 -49.3801 -49.3714 -48.8930 -48.8765 -28.0580 -28.0480
   -28.0361 -28.0323 -28.0012 -27.9866 -27.9137 -27.9052 -27.8922 -27.8849
   -27.8257 -27.8115 -27.5716 -27.4845 -27.4692 -27.4641 -27.4522 -27.3866
    -5.2665  -3.9812  -3.8136  -3.7282  -3.3048  -3.2448  -3.2277  -3.1904
    -3.1653  -3.0494  -2.7813  -2.7007  -2.5888  -2.4750  -2.3379  -2.2455
    -2.1746  -2.1498  -2.0726  -2.0658  -1.9418  -1.8388  -1.6979  -1.6592
    -1.5769  -1.5611  -1.4793  -1.3512  -1.1269  -0.9989  -0.7927  -0.6839
    -0.4961  -0.4636   0.0551   0.1446   0.1725   0.5261   0.6710   0.8147
     1.0540   1.2025   1.6191   1.6604   1.8648   1.8880   1.9493   2.1036
     2.2114   2.2876   2.4024   2.7328

          k = 0.0436 0.0616 0.0000 ( 35603 PWs)   bands (ev):

   -49.3950 -49.3862 -49.3809 -49.3722 -48.8921 -48.8773 -28.0578 -28.0466
   -28.0373 -28.0327 -27.9929 -27.9783 -27.9148 -27.9049 -27.8936 -27.8857
   -27.8350 -27.8207 -27.5627 -27.4846 -27.4675 -27.4654 -27.4538 -27.3965
    -5.0105  -3.9370  -3.8515  -3.6533  -3.2280  -3.1491  -3.1286  -3.1102
    -3.0186  -2.9375  -2.8011  -2.6476  -2.5105  -2.4762  -2.3672  -2.2320
    -2.1412  -2.1172  -2.0839  -2.0227  -1.9456  -1.7605  -1.7595  -1.7394
    -1.6069  -1.5050  -1.4941  -1.3708  -1.1462  -1.0976  -1.0677  -0.8505
    -0.7437  -0.6639  -0.4177  -0.1544   0.2381   0.3901   0.7296   0.9103
     1.0125   1.4254   1.6507   1.7679   1.8338   1.9170   1.9226   2.0958
     2.1846   2.2627   2.3487   2.5817

          k = 0.0436-0.1083 0.0000 ( 35638 PWs)   bands (ev):

   -49.3937 -49.3849 -49.3823 -49.3735 -48.8908 -48.8787 -28.0568 -28.0450
   -28.0390 -28.0339 -27.9790 -27.9645 -27.9148 -27.9036 -27.8953 -27.8867
   -27.8494 -27.8352 -27.5481 -27.4836 -27.4670 -27.4654 -27.4559 -27.4118
    -4.7077  -4.1378  -3.7231  -3.5615  -3.1689  -3.0644  -3.0378  -3.0328
    -2.8586  -2.8267  -2.8218  -2.6183  -2.5113  -2.5091  -2.3749  -2.2155
    -2.1561  -2.0965  -2.0731  -1.9948  -1.9278  -1.8519  -1.7871  -1.6831
    -1.6743  -1.6015  -1.5700  -1.4303  -1.4264  -1.1844  -1.1832  -1.0033
    -0.9833  -0.8427  -0.8232  -0.2435   0.1370   0.4832   0.6802   0.9657
     1.2441   1.6108   1.6909   1.8326   1.9312   1.9681   2.0168   2.1875
     2.1903   2.2773   2.3646   2.5311

          k = 0.0436-0.0929 0.0000 ( 35629 PWs)   bands (ev):

   -49.3919 -49.3840 -49.3832 -49.3752 -48.8890 -48.8805 -28.0550 -28.0430
   -28.0409 -28.0356 -27.9605 -27.9460 -27.9133 -27.9012 -27.8971 -27.8877
   -27.8680 -27.8538 -27.5286 -27.4815 -27.4686 -27.4630 -27.4583 -27.4315
    -4.4027  -4.3834  -3.6257  -3.4878  -3.1694  -3.0433  -3.0197  -2.8958
    -2.8217  -2.7896  -2.6943  -2.6687  -2.5583  -2.5101  -2.3264  -2.2297
    -2.2003  -2.0587  -2.0462  -2.0180  -1.9628  -1.8916  -1.8353  -1.8330
    -1.7974  -1.7477  -1.6455  -1.5427  -1.5332  -1.4268  -1.3859  -1.3223
    -0.9873  -0.8500  -0.7532  -0.3083  -0.0272   0.7455   0.7889   0.9675
     1.4928   1.7440   1.7464   1.9074   2.0265   2.0664   2.1954   2.2222
     2.3077   2.3462   2.4957   2.6851

          k = 0.0436-0.0774 0.0000 ( 35619 PWs)   bands (ev):

   -49.3900 -49.3860 -49.3812 -49.3773 -48.8870 -48.8825 -28.0525 -28.0429
   -28.0409 -28.0380 -27.9385 -27.9241 -27.9106 -27.8987 -27.8979 -27.8894
   -27.8888 -27.8752 -27.5054 -27.4784 -27.4701 -27.4610 -27.4604 -27.4541
    -4.7015  -4.0846  -3.5775  -3.4497  -3.2676  -3.1015  -3.0752  -2.9079
    -2.7894  -2.7381  -2.7378  -2.6330  -2.5594  -2.3838  -2.3218  -2.2005
    -2.1656  -2.1394  -2.0690  -2.0659  -2.0512  -2.0029  -1.9916  -1.9090
    -1.8309  -1.8261  -1.7930  -1.7553  -1.6593  -1.4651  -1.4476  -1.3867
    -1.0045  -0.8417  -0.4808  -0.3797  -0.0777   0.9219   1.0040   1.1276
     1.6437   1.8115   1.8741   2.0478   2.1025   2.1553   2.2251   2.4063
     2.4078   2.4887   2.5903   2.6935

          k = 0.0436-0.0620 0.0000 ( 35611 PWs)   bands (ev):

   -49.3882 -49.3879 -49.3794 -49.3792 -48.8851 -48.8846 -28.0495 -28.0450
   -28.0407 -28.0389 -27.9146 -27.9123 -27.9071 -27.9003 -27.9002 -27.8981
   -27.8943 -27.8902 -27.4802 -27.4783 -27.4748 -27.4717 -27.4637 -27.4580
    -4.9965  -3.8983  -3.5447  -3.4743  -3.4277  -3.2049  -3.1596  -3.0650
    -2.9341  -2.6918  -2.6401  -2.6123  -2.5502  -2.4532  -2.3708  -2.1996
    -2.1925  -2.1815  -2.1234  -2.1091  -2.0306  -1.9929  -1.9735  -1.9528
    -1.9225  -1.8910  -1.7512  -1.7390  -1.7128  -1.5750  -1.4128  -1.3495
    -0.9620  -0.8334  -0.4305  -0.3505   0.1359   1.0787   1.1355   1.4519
     1.7157   1.8968   2.0017   2.0901   2.1876   2.2146   2.4023   2.4274
     2.4842   2.5167   2.5512   2.6378

          k = 0.0436-0.0465 0.0000 ( 35576 PWs)   bands (ev):

   -49.3904 -49.3859 -49.3816 -49.3771 -48.8871 -48.8827 -28.0470 -28.0462
   -28.0435 -28.0371 -27.9352 -27.9210 -27.9030 -27.9018 -27.8920 -27.8908
   -27.8905 -27.8763 -27.5025 -27.4734 -27.4710 -27.4661 -27.4557 -27.4548
    -5.2547  -3.8615  -3.7160  -3.5136  -3.3928  -3.3162  -3.2289  -3.2060
    -3.1174  -2.8842  -2.6880  -2.6187  -2.5117  -2.4475  -2.4146  -2.3952
    -2.1682  -2.1107  -2.0718  -2.0607  -2.0339  -2.0303  -1.9847  -1.8923
    -1.8789  -1.8360  -1.7043  -1.6556  -1.6206  -1.4480  -1.4185  -1.2853
    -0.8764  -0.8397  -0.4498  -0.3535   0.5295   1.1918   1.2794   1.6713
     1.7702   1.9562   2.0854   2.1017   2.2380   2.3064   2.3199   2.4269
     2.5184   2.5511   2.5791   2.6460

          k = 0.0436-0.0311 0.0000 ( 35579 PWs)   bands (ev):

   -49.3924 -49.3839 -49.3836 -49.3752 -48.8892 -48.8807 -28.0491 -28.0461
   -28.0429 -28.0355 -27.9567 -27.9424 -27.9034 -27.8991 -27.8942 -27.8878
   -27.8680 -27.8538 -27.5251 -27.4753 -27.4682 -27.4677 -27.4537 -27.4311
    -5.4529  -3.9238  -3.8720  -3.5074  -3.4297  -3.3779  -3.3035  -3.2850
    -3.2711  -3.1088  -2.7874  -2.5722  -2.5358  -2.5283  -2.4013  -2.4005
    -2.2493  -2.1736  -2.1222  -2.0795  -1.9981  -1.9507  -1.8506  -1.8356
    -1.8059  -1.7081  -1.6667  -1.5320  -1.4056  -1.3589  -1.2390  -1.1031
    -0.8653  -0.7635  -0.4434  -0.3610   0.9115   1.2478   1.3287   1.7074
     1.8247   1.8742   2.0685   2.1066   2.2737   2.3238   2.3430   2.4091
     2.4493   2.4652   2.6680   2.6946

          k = 0.0581-0.0209 0.0000 ( 35640 PWs)   bands (ev):

   -49.3923 -49.3839 -49.3835 -49.3752 -48.8892 -48.8806 -28.0498 -28.0460
   -28.0418 -28.0364 -27.9575 -27.9432 -27.9044 -27.8977 -27.8969 -27.8886
   -27.8680 -27.8538 -27.5259 -27.4767 -27.4679 -27.4670 -27.4547 -27.4311
    -5.2997  -4.0462  -3.8579  -3.4737  -3.3364  -3.2765  -3.2345  -3.2100
    -3.1853  -3.0946  -2.8286  -2.5811  -2.5197  -2.4842  -2.3796  -2.3299
    -2.2964  -2.1847  -2.1325  -2.0637  -1.9812  -1.8830  -1.8045  -1.7762
    -1.7303  -1.7070  -1.7022  -1.5449  -1.4055  -1.4022  -1.2694  -1.1486
    -0.9322  -0.6287  -0.5427  -0.3526   0.7924   1.0270   1.3219   1.3359
     1.7227   1.8601   1.8904   1.9735   2.1761   2.2839   2.3297   2.3780
     2.4101   2.4991   2.5618   2.5635

          k = 0.0581-0.0054 0.0000 ( 35617 PWs)   bands (ev):

   -49.3940 -49.3852 -49.3823 -49.3735 -48.8909 -48.8789 -28.0529 -28.0472
   -28.0388 -28.0352 -27.9765 -27.9621 -27.9071 -27.9001 -27.8947 -27.8867
   -27.8490 -27.8348 -27.5458 -27.4794 -27.4683 -27.4657 -27.4534 -27.4111
    -5.3650  -3.9791  -3.9547  -3.4830  -3.4257  -3.2977  -3.2778  -3.2389
    -3.1993  -3.1662  -2.8252  -2.6464  -2.6073  -2.4120  -2.3705  -2.2888
    -2.2676  -2.2269  -2.1465  -2.1008  -1.9916  -1.7947  -1.7720  -1.7144
    -1.6757  -1.6696  -1.5083  -1.3974  -1.3748  -1.1967  -1.0403  -0.9869
    -0.8404  -0.5119  -0.4577  -0.3453   0.5701   1.1618   1.2298   1.2343
     1.4240   1.7619   1.8302   1.9981   2.0142   2.0964   2.2745   2.2901
     2.3770   2.3890   2.4706   2.7042

          k = 0.0581 0.0100 0.0000 ( 35624 PWs)   bands (ev):

   -49.3952 -49.3864 -49.3810 -49.3722 -48.8922 -48.8775 -28.0557 -28.0479
   -28.0368 -28.0338 -27.9914 -27.9769 -27.9104 -27.9030 -27.8928 -27.8855
   -27.8346 -27.8204 -27.5614 -27.4821 -27.4690 -27.4644 -27.4525 -27.3960
    -5.3532  -3.9928  -3.8914  -3.6292  -3.3632  -3.2741  -3.2458  -3.2454
    -3.2412  -3.1181  -2.7985  -2.6910  -2.6315  -2.4615  -2.3111  -2.2542
    -2.2266  -2.1768  -2.1634  -2.1022  -1.9785  -1.7973  -1.7226  -1.6550
    -1.6274  -1.6182  -1.4987  -1.3895  -1.0947  -1.0520  -1.0105  -0.8074
    -0.6549  -0.3705  -0.2859  -0.1937   0.3284   0.9779   0.9812   1.0750
     1.1697   1.5379   1.8091   1.8752   1.8827   1.9580   2.0772   2.2552
     2.2697   2.3576   2.3959   2.7611

          k = 0.0581 0.0255 0.0000 ( 35648 PWs)   bands (ev):

   -49.3959 -49.3871 -49.3801 -49.3714 -48.8930 -48.8765 -28.0580 -28.0480
   -28.0361 -28.0323 -28.0012 -27.9866 -27.9137 -27.9052 -27.8922 -27.8849
   -27.8257 -27.8115 -27.5716 -27.4845 -27.4692 -27.4641 -27.4522 -27.3866
    -5.2665  -3.9812  -3.8136  -3.7282  -3.3048  -3.2448  -3.2277  -3.1904
    -3.1653  -3.0494  -2.7813  -2.7007  -2.5888  -2.4750  -2.3379  -2.2455
    -2.1746  -2.1498  -2.0726  -2.0658  -1.9418  -1.8388  -1.6979  -1.6592
    -1.5769  -1.5611  -1.4793  -1.3512  -1.1269  -0.9989  -0.7927  -0.6839
    -0.4961  -0.4636   0.0551   0.1446   0.1725   0.5261   0.6710   0.8147
     1.0540   1.2025   1.6191   1.6604   1.8648   1.8880   1.9494   2.1035
     2.2113   2.2879   2.4035   2.7317

          k = 0.0581 0.0409 0.0000 ( 35649 PWs)   bands (ev):

   -49.3961 -49.3873 -49.3798 -49.3711 -48.8933 -48.8762 -28.0594 -28.0476
   -28.0363 -28.0312 -28.0051 -27.9904 -27.9165 -27.9065 -27.8925 -27.8847
   -27.8228 -27.8086 -27.5755 -27.4863 -27.4687 -27.4644 -27.4525 -27.3836
    -5.1111  -3.9376  -3.7855  -3.7723  -3.2435  -3.2080  -3.1702  -3.0891
    -3.0574  -2.9698  -2.7867  -2.6819  -2.4956  -2.4620  -2.3670  -2.2539
    -2.1443  -2.1141  -2.0186  -1.9775  -1.8906  -1.8827  -1.7279  -1.6931
    -1.5534  -1.5022  -1.4435  -1.3072  -1.1814  -0.9514  -0.8124  -0.6484
    -0.5480  -0.4535   0.0979   0.1915   0.3449   0.3532   0.4567   0.5464
     0.7459   1.0729   1.4087   1.5492   1.7815   1.8531   1.8877   1.9669
     2.1679   2.2410   2.3675   2.6883

          k = 0.0581 0.0563 0.0000 ( 35624 PWs)   bands (ev):

   -49.3957 -49.3870 -49.3801 -49.3713 -48.8929 -48.8764 -28.0599 -28.0468
   -28.0370 -28.0310 -28.0026 -27.9879 -27.9182 -27.9068 -27.8935 -27.8848
   -27.8262 -27.8119 -27.5729 -27.4870 -27.4678 -27.4651 -27.4533 -27.3872
    -4.8968  -3.8934  -3.8339  -3.7502  -3.1789  -3.1415  -3.0889  -2.9982
    -2.9374  -2.8761  -2.8014  -2.6586  -2.4512  -2.4265  -2.3793  -2.2739
    -2.0943  -2.0842  -1.9796  -1.9474  -1.9188  -1.8225  -1.7608  -1.7424
    -1.5686  -1.4487  -1.4408  -1.2906  -1.1834  -0.9721  -0.8574  -0.8530
    -0.8340  -0.5675  -0.0346   0.0409   0.1239   0.2090   0.4467   0.6215
     0.8049   1.1821   1.4600   1.5000   1.7169   1.7727   1.8982   1.9113
     2.1531   2.2102   2.3234   2.5810

          k = 0.0581-0.1135 0.0000 ( 35631 PWs)   bands (ev):

   -49.3949 -49.3861 -49.3809 -49.3722 -48.8921 -48.8773 -28.0594 -28.0457
   -28.0381 -28.0316 -27.9940 -27.9793 -27.9185 -27.9060 -27.8948 -27.8853
   -27.8353 -27.8210 -27.5638 -27.4865 -27.4664 -27.4662 -27.4547 -27.3969
    -4.6389  -3.9650  -3.8645  -3.6729  -3.1168  -3.0562  -3.0093  -2.9426
    -2.8313  -2.8311  -2.7482  -2.6356  -2.4760  -2.4413  -2.4043  -2.2890
    -2.0653  -2.0261  -2.0005  -1.9520  -1.9275  -1.8314  -1.7476  -1.7219
    -1.6210  -1.5379  -1.3958  -1.3436  -1.3056  -1.1221  -1.0542  -0.9733
    -0.8549  -0.8018  -0.5588  -0.1892  -0.1314   0.3965   0.5870   0.8012
     0.8791   1.4857   1.5165   1.6911   1.6996   1.7869   1.9288   1.9342
     2.1599   2.2350   2.3397   2.5425

          k = 0.0581-0.0981 0.0000 ( 35637 PWs)   bands (ev):

   -49.3936 -49.3848 -49.3822 -49.3735 -48.8907 -48.8786 -28.0579 -28.0443
   -28.0395 -28.0330 -27.9797 -27.9651 -27.9172 -27.9041 -27.8961 -27.8861
   -27.8496 -27.8353 -27.5487 -27.4847 -27.4674 -27.4646 -27.4565 -27.4120
    -4.3663  -4.1708  -3.8310  -3.5852  -3.0740  -2.9684  -2.9611  -2.9431
    -2.8507  -2.7208  -2.6617  -2.6245  -2.5173  -2.5149  -2.4333  -2.2836
    -2.1018  -2.0416  -1.9951  -1.9496  -1.9122  -1.8961  -1.7528  -1.7175
    -1.7148  -1.6311  -1.6233  -1.4751  -1.3678  -1.2258  -1.1783  -1.1041
    -1.0489  -0.8433  -0.8231  -0.3420  -0.2640   0.6454   0.6575   0.8481
     1.2016   1.5798   1.6849   1.7404   1.9116   1.9852   1.9919   2.0776
     2.1993   2.2710   2.4293   2.5899

          k = 0.0581-0.0827 0.0000 ( 35623 PWs)   bands (ev):

   -49.3919 -49.3840 -49.3831 -49.3752 -48.8890 -48.8804 -28.0555 -28.0426
   -28.0411 -28.0352 -27.9608 -27.9463 -27.9144 -27.9013 -27.8974 -27.8872
   -27.8680 -27.8538 -27.5288 -27.4819 -27.4687 -27.4626 -27.4587 -27.4315
    -4.4282  -4.1541  -3.7440  -3.5162  -3.1032  -3.0115  -3.0023  -2.8561
    -2.8134  -2.7354  -2.7283  -2.5730  -2.5700  -2.5045  -2.3558  -2.2400
    -2.1983  -2.0315  -2.0249  -1.9959  -1.9715  -1.9067  -1.8921  -1.8453
    -1.8370  -1.6723  -1.6613  -1.6216  -1.5327  -1.4634  -1.3680  -1.3195
    -1.0812  -0.8398  -0.5090  -0.4089  -0.3406   0.7879   0.9050   0.9062
     1.4689   1.6745   1.7804   1.8731   2.0539   2.0795   2.2207   2.2281
     2.2884   2.3283   2.6758   2.7402

          k = 0.0581-0.0672 0.0000 ( 35619 PWs)   bands (ev):

   -49.3900 -49.3860 -49.3812 -49.3773 -48.8870 -48.8825 -28.0525 -28.0429
   -28.0409 -28.0380 -27.9385 -27.9241 -27.9106 -27.8987 -27.8979 -27.8894
   -27.8888 -27.8752 -27.5054 -27.4784 -27.4701 -27.4610 -27.4604 -27.4541
    -4.7015  -4.0846  -3.5775  -3.4497  -3.2676  -3.1015  -3.0752  -2.9079
    -2.7894  -2.7381  -2.7378  -2.6330  -2.5594  -2.3838  -2.3218  -2.2005
    -2.1656  -2.1394  -2.0690  -2.0659  -2.0512  -2.0029  -1.9916  -1.9090
    -1.8309  -1.8261  -1.7930  -1.7553  -1.6593  -1.4651  -1.4476  -1.3867
    -1.0045  -0.8417  -0.4808  -0.3797  -0.0777   0.9219   1.0040   1.1276
     1.6437   1.8114   1.8741   2.0477   2.1025   2.1553   2.2249   2.4063
     2.4082   2.4889   2.5916   2.6933

          k = 0.0581-0.0518 0.0000 ( 35600 PWs)   bands (ev):

   -49.3882 -49.3879 -49.3794 -49.3792 -48.8851 -48.8846 -28.0490 -28.0448
   -28.0410 -28.0393 -27.9146 -27.9127 -27.9060 -27.9006 -27.8998 -27.8985
   -27.8941 -27.8907 -27.4804 -27.4790 -27.4741 -27.4716 -27.4632 -27.4583
    -4.9546  -4.0838  -3.5144  -3.4936  -3.3115  -3.1913  -3.1370  -3.0599
    -2.9199  -2.7046  -2.6744  -2.6040  -2.5441  -2.5437  -2.4123  -2.1871
    -2.1824  -2.0926  -2.0778  -2.0768  -2.0554  -2.0425  -1.9664  -1.9322
    -1.9241  -1.8786  -1.7654  -1.7133  -1.6920  -1.5674  -1.4166  -1.3588
    -0.8912  -0.8582  -0.5091  -0.3865   0.3435   0.9902   1.1323   1.2736
     1.7674   1.9440   1.9811   2.0617   2.1272   2.2286   2.3520   2.4331
     2.4904   2.5000   2.5331   2.6657

          k = 0.0581-0.0363 0.0000 ( 35613 PWs)   bands (ev):

   -49.3903 -49.3859 -49.3816 -49.3771 -48.8871 -48.8827 -28.0469 -28.0453
   -28.0440 -28.0377 -27.9357 -27.9215 -27.9023 -27.9016 -27.8939 -27.8911
   -27.8900 -27.8760 -27.5030 -27.4743 -27.4708 -27.4653 -27.4564 -27.4545
    -5.1599  -4.0797  -3.7009  -3.4991  -3.2666  -3.2470  -3.1786  -3.1639
    -3.0761  -2.8878  -2.7872  -2.5878  -2.5043  -2.4806  -2.3865  -2.3717
    -2.2083  -2.1229  -2.1130  -2.0402  -1.9859  -1.9788  -1.9540  -1.8819
    -1.8393  -1.7464  -1.7348  -1.6673  -1.6244  -1.4656  -1.4153  -1.3112
    -0.8892  -0.7596  -0.5337  -0.3721   0.7331   0.9450   1.2650   1.3351
     1.8786   1.9300   1.9407   1.9974   2.2484   2.3194   2.3478   2.3625
     2.4867   2.5027   2.5521   2.6254

          k = 0.0727-0.0261 0.0000 ( 35618 PWs)   bands (ev):

   -49.3902 -49.3859 -49.3815 -49.3772 -48.8871 -48.8826 -28.0479 -28.0438
   -28.0437 -28.0388 -27.9366 -27.9223 -27.9036 -27.8996 -27.8963 -27.8915
   -27.8896 -27.8756 -27.5038 -27.4756 -27.4705 -27.4640 -27.4576 -27.4542
    -4.9750  -4.3093  -3.6665  -3.4794  -3.1675  -3.1609  -3.1015  -3.0920
    -2.9995  -2.9156  -2.8338  -2.5680  -2.5364  -2.4217  -2.3963  -2.3252
    -2.3206  -2.1808  -2.0975  -2.0074  -1.9628  -1.9255  -1.8955  -1.8594
    -1.7809  -1.7690  -1.6806  -1.6336  -1.6223  -1.4931  -1.4658  -1.3548
    -0.9244  -0.7424  -0.5393  -0.3335   0.6330   0.9757   0.9951   1.2125
     1.7658   1.7928   1.8523   1.9605   2.2136   2.2682   2.3398   2.3716
     2.4477   2.4612   2.4863   2.5414

          k = 0.0727-0.0107 0.0000 ( 35626 PWs)   bands (ev):

   -49.3922 -49.3840 -49.3834 -49.3752 -48.8891 -48.8806 -28.0515 -28.0451
   -28.0404 -28.0372 -27.9587 -27.9443 -27.9068 -27.8994 -27.8964 -27.8891
   -27.8679 -27.8537 -27.5269 -27.4785 -27.4681 -27.4655 -27.4560 -27.4312
    -5.0543  -4.2053  -3.7646  -3.4043  -3.2438  -3.1915  -3.1510  -3.1236
    -3.0567  -3.0533  -2.8187  -2.6172  -2.4750  -2.4205  -2.4199  -2.3111
    -2.2378  -2.2324  -2.0988  -2.0499  -1.9453  -1.8627  -1.7612  -1.7496
    -1.7471  -1.6825  -1.5831  -1.5729  -1.4719  -1.4623  -1.2947  -1.2243
    -0.9654  -0.7459  -0.4243  -0.3861   0.4868   0.9510   1.0220   1.1297
     1.6283   1.6941   1.8246   2.0046   2.0572   2.1987   2.2572   2.2748
     2.3666   2.4182   2.4350   2.7048

          k = 0.0727 0.0048 0.0000 ( 35605 PWs)   bands (ev):

   -49.3938 -49.3850 -49.3823 -49.3735 -48.8908 -48.8788 -28.0550 -28.0461
   -28.0383 -28.0351 -27.9779 -27.9634 -27.9108 -27.9024 -27.8944 -27.8872
   -27.8492 -27.8350 -27.5471 -27.4817 -27.4667 -27.4664 -27.4547 -27.4115
    -5.0653  -4.0727  -3.8220  -3.4728  -3.3086  -3.1838  -3.1347  -3.1314
    -3.0859  -3.0006  -2.8052  -2.6407  -2.5354  -2.4671  -2.3434  -2.2431
    -2.2139  -2.1972  -2.0990  -2.0664  -1.9554  -1.8002  -1.7407  -1.7073
    -1.6605  -1.5454  -1.5434  -1.4601  -1.4376  -1.1888  -1.1149  -1.0220
    -0.9129  -0.7018  -0.4968  -0.3157   0.3460   0.7226   0.8706   1.1056
     1.3202   1.5996   1.8290   1.9054   1.9641   2.0020   2.1091   2.2189
     2.3007   2.3228   2.3591   2.6239

          k = 0.0727 0.0202 0.0000 ( 35603 PWs)   bands (ev):

   -49.3950 -49.3862 -49.3809 -49.3722 -48.8921 -48.8773 -28.0578 -28.0466
   -28.0373 -28.0327 -27.9929 -27.9783 -27.9148 -27.9049 -27.8936 -27.8857
   -27.8350 -27.8207 -27.5627 -27.4846 -27.4675 -27.4654 -27.4538 -27.3965
    -5.0105  -3.9370  -3.8515  -3.6533  -3.2280  -3.1491  -3.1286  -3.1102
    -3.0186  -2.9375  -2.8011  -2.6476  -2.5105  -2.4762  -2.3672  -2.2320
    -2.1412  -2.1172  -2.0839  -2.0227  -1.9456  -1.7605  -1.7595  -1.7394
    -1.6069  -1.5050  -1.4941  -1.3708  -1.1462  -1.0976  -1.0677  -0.8505
    -0.7437  -0.6639  -0.4177  -0.1544   0.2381   0.3901   0.7296   0.9103
     1.0125   1.4254   1.6507   1.7681   1.8339   1.9169   1.9226   2.0957
     2.1849   2.2631   2.3486   2.5824

          k = 0.0727 0.0357 0.0000 ( 35624 PWs)   bands (ev):

   -49.3957 -49.3870 -49.3801 -49.3713 -48.8929 -48.8764 -28.0599 -28.0468
   -28.0370 -28.0310 -28.0026 -27.9879 -27.9182 -27.9068 -27.8935 -27.8848
   -27.8262 -27.8119 -27.5729 -27.4870 -27.4678 -27.4651 -27.4533 -27.3872
    -4.8968  -3.8934  -3.8339  -3.7502  -3.1789  -3.1415  -3.0889  -2.9982
    -2.9374  -2.8761  -2.8014  -2.6586  -2.4512  -2.4265  -2.3793  -2.2739
    -2.0943  -2.0842  -1.9796  -1.9474  -1.9188  -1.8225  -1.7608  -1.7424
    -1.5686  -1.4487  -1.4408  -1.2906  -1.1834  -0.9721  -0.8574  -0.8530
    -0.8340  -0.5675  -0.0346   0.0409   0.1239   0.2090   0.4467   0.6215
     0.8049   1.1821   1.4600   1.5000   1.7169   1.7727   1.8982   1.9114
     2.1532   2.2124   2.3246   2.5806

          k = 0.0727 0.0511 0.0000 ( 35607 PWs)   bands (ev):

   -49.3959 -49.3872 -49.3798 -49.3710 -48.8932 -48.8761 -28.0610 -28.0467
   -28.0371 -28.0300 -28.0062 -27.9915 -27.9203 -27.9078 -27.8940 -27.8844
   -27.8232 -27.8089 -27.5766 -27.4883 -27.4676 -27.4653 -27.4534 -27.3841
    -4.7359  -3.9733  -3.7972  -3.7461  -3.1409  -3.1087  -3.0309  -2.8900
    -2.8820  -2.8027  -2.7881  -2.6759  -2.4439  -2.4182  -2.3275  -2.2828
    -2.0765  -2.0237  -1.9447  -1.8943  -1.8630  -1.8618  -1.7958  -1.7140
    -1.5424  -1.4149  -1.3891  -1.2622  -1.2326  -1.0344  -0.9274  -0.8419
    -0.7553  -0.5248  -0.2384   0.1624   0.2304   0.3042   0.3959   0.4624
     0.4911   1.0845   1.2346   1.4086   1.6288   1.6774   1.8130   1.8759
     2.1379   2.1685   2.2656   2.4806

          k = 0.0727-0.1188 0.0000 ( 35628 PWs)   bands (ev):

   -49.3956 -49.3869 -49.3801 -49.3713 -48.8929 -48.8764 -28.0610 -28.0462
   -28.0376 -28.0300 -28.0034 -27.9887 -27.9209 -27.9077 -27.8946 -27.8845
   -27.8264 -27.8121 -27.5736 -27.4884 -27.4670 -27.4658 -27.4540 -27.3875
    -4.5505  -4.0318  -3.8443  -3.7012  -3.1064  -3.0622  -2.9721  -2.8401
    -2.8315  -2.8177  -2.6816  -2.6753  -2.4805  -2.4233  -2.3609  -2.2741
    -2.0592  -1.9683  -1.9279  -1.9152  -1.8899  -1.8223  -1.8198  -1.6388
    -1.5546  -1.4636  -1.3555  -1.3137  -1.2179  -1.0961  -1.0346  -0.9545
    -0.8474  -0.5806  -0.4258  -0.1333   0.0985   0.3311   0.4375   0.5253
     0.6592   1.2385   1.3825   1.3925   1.5919   1.6304   1.7963   1.8861
     2.1439   2.1696   2.2629   2.4430

          k = 0.0727-0.1033 0.0000 ( 35654 PWs)   bands (ev):

   -49.3948 -49.3861 -49.3809 -49.3722 -48.8921 -48.8772 -28.0599 -28.0453
   -28.0384 -28.0311 -27.9944 -27.9797 -27.9198 -27.9064 -27.8954 -27.8850
   -27.8354 -27.8211 -27.5641 -27.4871 -27.4665 -27.4660 -27.4551 -27.3970
    -4.4022  -4.0051  -3.9744  -3.6436  -3.0770  -3.0134  -2.9355  -2.8755
    -2.8283  -2.7869  -2.6610  -2.5808  -2.5198  -2.4698  -2.3752  -2.3464
    -2.0466  -1.9843  -1.9561  -1.9309  -1.9116  -1.8532  -1.7531  -1.6669
    -1.5923  -1.5427  -1.4155  -1.4073  -1.3292  -1.1895  -1.0439  -0.9729
    -0.8475  -0.8237  -0.6139  -0.4775  -0.1453   0.4824   0.5681   0.7415
     0.8399   1.4541   1.5919   1.6290   1.6384   1.7268   1.8472   1.9319
     2.1604   2.2359   2.3507   2.4829

          k = 0.0727-0.0879 0.0000 ( 35637 PWs)   bands (ev):

   -49.3936 -49.3848 -49.3822 -49.3735 -48.8907 -48.8786 -28.0579 -28.0443
   -28.0395 -28.0330 -27.9797 -27.9651 -27.9172 -27.9041 -27.8961 -27.8861
   -27.8496 -27.8353 -27.5487 -27.4847 -27.4674 -27.4646 -27.4565 -27.4120
    -4.3663  -4.1708  -3.8310  -3.5852  -3.0740  -2.9684  -2.9611  -2.9431
    -2.8507  -2.7208  -2.6617  -2.6245  -2.5173  -2.5149  -2.4333  -2.2836
    -2.1018  -2.0416  -1.9951  -1.9496  -1.9122  -1.8961  -1.7528  -1.7175
    -1.7148  -1.6311  -1.6233  -1.4751  -1.3678  -1.2258  -1.1783  -1.1041
    -1.0489  -0.8433  -0.8231  -0.3420  -0.2640   0.6454   0.6575   0.8481
     1.2016   1.5798   1.6849   1.7404   1.9115   1.9851   1.9922   2.0775
     2.1995   2.2701   2.4285   2.5896

          k = 0.0727-0.0724 0.0000 ( 35629 PWs)   bands (ev):

   -49.3919 -49.3840 -49.3832 -49.3752 -48.8890 -48.8805 -28.0550 -28.0430
   -28.0409 -28.0356 -27.9605 -27.9460 -27.9133 -27.9012 -27.8971 -27.8877
   -27.8680 -27.8538 -27.5286 -27.4815 -27.4686 -27.4630 -27.4583 -27.4315
    -4.4027  -4.3834  -3.6257  -3.4878  -3.1694  -3.0433  -3.0197  -2.8958
    -2.8217  -2.7896  -2.6943  -2.6687  -2.5583  -2.5101  -2.3264  -2.2297
    -2.2003  -2.0587  -2.0462  -2.0180  -1.9628  -1.8916  -1.8353  -1.8330
    -1.7974  -1.7477  -1.6455  -1.5427  -1.5332  -1.4268  -1.3859  -1.3223
    -0.9873  -0.8500  -0.7532  -0.3083  -0.0272   0.7455   0.7889   0.9675
     1.4928   1.7440   1.7464   1.9071   2.0265   2.0664   2.1953   2.2221
     2.3076   2.3462   2.4931   2.6464

          k = 0.0727-0.0570 0.0000 ( 35648 PWs)   bands (ev):

   -49.3900 -49.3860 -49.3813 -49.3772 -48.8870 -48.8826 -28.0514 -28.0425
   -28.0416 -28.0388 -27.9382 -27.9238 -27.9089 -27.8984 -27.8980 -27.8898
   -27.8893 -27.8752 -27.5051 -27.4779 -27.4702 -27.4612 -27.4602 -27.4541
    -4.6332  -4.3935  -3.5619  -3.3489  -3.2643  -3.1052  -3.0679  -2.9402
    -2.8076  -2.8016  -2.7713  -2.6728  -2.5737  -2.3945  -2.3665  -2.2579
    -2.1555  -2.1151  -2.1140  -2.0401  -2.0073  -1.9904  -1.9045  -1.8693
    -1.8463  -1.7981  -1.7852  -1.7102  -1.5922  -1.4762  -1.4529  -1.4068
    -0.8676  -0.8479  -0.7223  -0.3190   0.3502   0.7835   0.8946   1.1030
     1.6984   1.7809   1.9131   2.0276   2.0996   2.1242   2.2088   2.3660
     2.4143   2.4714   2.5380   2.6235

          k = 0.0727-0.0415 0.0000 ( 35646 PWs)   bands (ev):

   -49.3882 -49.3880 -49.3794 -49.3792 -48.8851 -48.8846 -28.0476 -28.0447
   -28.0417 -28.0402 -27.9145 -27.9135 -27.9037 -27.9006 -27.8999 -27.8994
   -27.8936 -27.8920 -27.4807 -27.4799 -27.4729 -27.4716 -27.4622 -27.4594
    -4.8310  -4.3722  -3.5281  -3.5249  -3.1495  -3.1339  -3.0978  -3.0455
    -2.8830  -2.8306  -2.6294  -2.6240  -2.6178  -2.4931  -2.4930  -2.2390
    -2.1771  -2.1618  -2.1040  -2.0380  -1.9844  -1.9538  -1.9287  -1.9281
    -1.9081  -1.7991  -1.7601  -1.7118  -1.6459  -1.5267  -1.4620  -1.3886
    -0.8929  -0.7492  -0.6648  -0.3194   0.7116   0.7434   0.9572   1.2170
     1.7710   1.8510   1.8983   2.0064   2.1630   2.2749   2.2876   2.4293
     2.4641   2.4671   2.5381   2.5474

          k =-0.0872 0.0313 0.0000 ( 35690 PWs)   bands (ev):

   -49.3881 -49.3880 -49.3793 -49.3793 -48.8851 -48.8846 -28.0459 -28.0459
   -28.0414 -28.0413 -27.9141 -27.9141 -27.9013 -27.9013 -27.9001 -27.9001
   -27.8931 -27.8931 -27.4808 -27.4803 -27.4723 -27.4718 -27.4610 -27.4606
    -4.6321  -4.6321  -3.5378  -3.5378  -3.0996  -3.0996  -3.0608  -3.0608
    -2.8574  -2.8573  -2.6591  -2.6591  -2.5650  -2.5650  -2.3820  -2.3820
    -2.1722  -2.1722  -2.0742  -2.0742  -1.9425  -1.9424  -1.9071  -1.9071
    -1.8506  -1.8506  -1.7096  -1.7095  -1.5560  -1.5560  -1.4536  -1.4536
    -0.8664  -0.8664  -0.4217  -0.4217   0.7135   0.7135   1.0741   1.0741
     1.7419   1.7420   1.9280   1.9281   2.2373   2.2375   2.3623   2.3623
     2.4416   2.4421   2.4994   2.5013

          k =-0.0872 0.0468 0.0000 ( 35640 PWs)   bands (ev):

   -49.3901 -49.3860 -49.3814 -49.3772 -48.8871 -48.8826 -28.0497 -28.0427
   -28.0425 -28.0394 -27.9375 -27.9232 -27.9061 -27.8983 -27.8977 -27.8911
   -27.8894 -27.8754 -27.5046 -27.4770 -27.4703 -27.4625 -27.4590 -27.4541
    -4.7117  -4.4998  -3.6146  -3.4295  -3.1195  -3.1015  -3.0742  -3.0130
    -2.9383  -2.8989  -2.8176  -2.6172  -2.4746  -2.4706  -2.3702  -2.3333
    -2.2487  -2.1843  -2.0921  -2.0115  -1.9713  -1.9373  -1.8620  -1.8519
    -1.8177  -1.7889  -1.6667  -1.6659  -1.5480  -1.5286  -1.4697  -1.4100
    -0.8882  -0.8537  -0.5372  -0.3459   0.6474   0.7508   0.8268   1.1637
     1.6797   1.7720   1.8401   2.0185   2.1210   2.2371   2.2456   2.3168
     2.4206   2.4363   2.4595   2.6119

          k =-0.0872 0.0622 0.0000 ( 35632 PWs)   bands (ev):

   -49.3920 -49.3840 -49.3833 -49.3752 -48.8891 -48.8805 -28.0535 -28.0439
   -28.0403 -28.0367 -27.9597 -27.9453 -27.9103 -27.9007 -27.8964 -27.8886
   -27.8679 -27.8537 -27.5279 -27.4803 -27.4683 -27.4640 -27.4573 -27.4313
    -4.7355  -4.3272  -3.6677  -3.3228  -3.2952  -3.1114  -3.0638  -2.9955
    -2.9203  -2.9106  -2.8144  -2.6227  -2.5071  -2.4789  -2.3565  -2.2610
    -2.1748  -2.1701  -2.0901  -2.0469  -1.9141  -1.8878  -1.8289  -1.7905
    -1.7450  -1.6375  -1.6180  -1.5455  -1.5027  -1.4632  -1.3260  -1.3136
    -0.9297  -0.8425  -0.6861  -0.2964   0.4876   0.5754   0.7416   1.0958
     1.5485   1.6602   1.8680   1.9502   2.0053   2.1208   2.1802   2.1921
     2.3381   2.3924   2.4040   2.6093

          k =-0.0872 0.0777 0.0000 ( 35638 PWs)   bands (ev):

   -49.3937 -49.3849 -49.3823 -49.3735 -48.8908 -48.8787 -28.0568 -28.0450
   -28.0390 -28.0339 -27.9790 -27.9645 -27.9148 -27.9036 -27.8953 -27.8867
   -27.8494 -27.8352 -27.5481 -27.4836 -27.4670 -27.4654 -27.4559 -27.4118
    -4.7077  -4.1378  -3.7231  -3.5615  -3.1689  -3.0644  -3.0378  -3.0328
    -2.8586  -2.8267  -2.8218  -2.6183  -2.5113  -2.5091  -2.3749  -2.2155
    -2.1561  -2.0965  -2.0731  -1.9948  -1.9278  -1.8519  -1.7871  -1.6831
    -1.6743  -1.6015  -1.5700  -1.4303  -1.4264  -1.1844  -1.1832  -1.0033
    -0.9833  -0.8427  -0.8232  -0.2435   0.1370   0.4832   0.6802   0.9657
     1.2441   1.6108   1.6909   1.8326   1.9312   1.9682   2.0167   2.1874
     2.1903   2.2774   2.3647   2.5314

          k =-0.0872 0.0931 0.0000 ( 35631 PWs)   bands (ev):

   -49.3949 -49.3861 -49.3809 -49.3722 -48.8921 -48.8773 -28.0594 -28.0457
   -28.0381 -28.0316 -27.9940 -27.9793 -27.9185 -27.9060 -27.8948 -27.8853
   -27.8353 -27.8210 -27.5638 -27.4865 -27.4664 -27.4662 -27.4547 -27.3969
    -4.6389  -3.9650  -3.8645  -3.6729  -3.1168  -3.0562  -3.0093  -2.9426
    -2.8313  -2.8311  -2.7482  -2.6356  -2.4760  -2.4413  -2.4043  -2.2890
    -2.0653  -2.0261  -2.0005  -1.9520  -1.9275  -1.8314  -1.7476  -1.7219
    -1.6210  -1.5379  -1.3958  -1.3436  -1.3056  -1.1221  -1.0542  -0.9733
    -0.8549  -0.8018  -0.5588  -0.1892  -0.1314   0.3965   0.5870   0.8012
     0.8791   1.4857   1.5165   1.6911   1.6996   1.7869   1.9288   1.9343
     2.1599   2.2368   2.3408   2.5433

          k =-0.0872 0.1085 0.0000 ( 35628 PWs)   bands (ev):

   -49.3956 -49.3869 -49.3801 -49.3713 -48.8929 -48.8764 -28.0610 -28.0462
   -28.0376 -28.0300 -28.0034 -27.9887 -27.9209 -27.9077 -27.8946 -27.8845
   -27.8264 -27.8121 -27.5736 -27.4884 -27.4670 -27.4658 -27.4540 -27.3875
    -4.5505  -4.0318  -3.8443  -3.7012  -3.1064  -3.0622  -2.9721  -2.8401
    -2.8315  -2.8177  -2.6816  -2.6753  -2.4805  -2.4233  -2.3609  -2.2741
    -2.0592  -1.9683  -1.9279  -1.9152  -1.8899  -1.8223  -1.8198  -1.6388
    -1.5546  -1.4636  -1.3555  -1.3137  -1.2179  -1.0961  -1.0346  -0.9545
    -0.8474  -0.5806  -0.4258  -0.1333   0.0985   0.3311   0.4375   0.5253
     0.6592   1.2385   1.3825   1.3925   1.5919   1.6304   1.7962   1.8862
     2.1438   2.1680   2.2625   2.4428

          k =-0.0872-0.0613 0.0000 ( 35606 PWs)   bands (ev):

   -49.3959 -49.3871 -49.3798 -49.3710 -48.8932 -48.8760 -28.0616 -28.0463
   -28.0374 -28.0295 -28.0067 -27.9919 -27.9218 -27.9082 -27.8945 -27.8842
   -27.8234 -27.8091 -27.5770 -27.4890 -27.4672 -27.4656 -27.4537 -27.3843
    -4.4998  -4.1101  -3.8013  -3.7089  -3.1053  -3.0617  -2.9565  -2.8468
    -2.8087  -2.7776  -2.7006  -2.6495  -2.5054  -2.4001  -2.3927  -2.2079
    -2.0609  -1.9421  -1.9132  -1.9007  -1.8710  -1.8463  -1.8212  -1.5753
    -1.5315  -1.4140  -1.3687  -1.3382  -1.1961  -1.1813  -0.9206  -0.8847
    -0.8492  -0.5236  -0.5117   0.1463   0.2684   0.3067   0.3422   0.4004
     0.4940   1.1004   1.1811   1.3469   1.5548   1.5942   1.7577   1.8662
     2.1299   2.1452   2.2163   2.4049

     the Fermi energy is     1.1192 ev

!    total energy              =    -988.98882500 Ry
     estimated scf accuracy    <       0.00000339 Ry
     smearing contrib. (-TS)   =      -0.03678518 Ry
     internal energy E=F+TS    =    -988.95203982 Ry

     The total energy is F=E-TS. E is the sum of the following terms:
     one-electron contribution =   -7587.81594190 Ry
     hartree contribution      =    3824.62015003 Ry
     xc contribution           =    -257.33399507 Ry
     ewald contribution        =    3031.57772434 Ry
     electric field correction =       0.00002279 Ry

     convergence has been achieved in  21 iterations

     negative rho (up, down):  6.461E-04 0.000E+00

     Forces acting on atoms (cartesian axes, Ry/au):

     atom    1 type  1   force =    -0.00108271   -0.00073229   -0.00680759
     atom    2 type  1   force =    -0.00104425   -0.00076259   -0.00684298
     atom    3 type  2   force =    -0.00054826   -0.00036626    0.03186114
     atom    4 type  2   force =    -0.00051215   -0.00037490    0.03183157
     atom    5 type  1   force =     0.00061360    0.00041408   -0.02361599
     atom    6 type  1   force =     0.00057544    0.00042783   -0.02360641
     atom    7 type  2   force =     0.00004083    0.00004891   -0.00214799
     atom    8 type  2   force =     0.00003066    0.00003022   -0.00214279
     atom    9 type  1   force =     0.00049109    0.00033004   -0.00173731
     atom   10 type  1   force =     0.00050821    0.00035147   -0.00176673
     atom   11 type  2   force =     0.00046426    0.00031768    0.00249503
     atom   12 type  2   force =     0.00046330    0.00031585    0.00248004

     Total force =     0.057192     Total SCF correction =     0.004780

     Writing output data file ./Sc2Pt2/Sc2Pt2_beef.save/

     init_run     :    103.60s CPU    105.71s WALL (       1 calls)
     electrons    :   5482.69s CPU   5547.91s WALL (       1 calls)
     forces       :     62.05s CPU     62.34s WALL (       1 calls)

     Called by init_run:
     wfcinit      :     89.77s CPU     91.71s WALL (       1 calls)
     potinit      :      8.60s CPU      8.66s WALL (       1 calls)
     hinit0       :      2.77s CPU      2.78s WALL (       1 calls)

     Called by electrons:
     c_bands      :   4978.18s CPU   5022.98s WALL (      22 calls)
     sum_band     :    454.78s CPU    471.50s WALL (      22 calls)
     v_of_rho     :     35.12s CPU     36.49s WALL (      22 calls)
     newd         :     21.20s CPU     23.44s WALL (      22 calls)
     mix_rho      :      0.97s CPU      0.99s WALL (      22 calls)
     vdW_kernel   :      6.07s CPU      6.08s WALL (       1 calls)

     Called by c_bands:
     init_us_2    :     11.93s CPU     12.02s WALL (    3404 calls)
     cegterg      :   4934.85s CPU   4977.05s WALL (    1644 calls)

     Called by *egterg:
     cdiaghg      :    247.13s CPU    247.68s WALL (   15549 calls)
     h_psi        :   2361.44s CPU   2397.87s WALL (   15697 calls)
     s_psi        :    463.12s CPU    464.27s WALL (   15697 calls)
     g_psi        :      3.08s CPU      3.12s WALL (   13979 calls)

     Called by h_psi:
     h_psi:calbec :    904.74s CPU    908.36s WALL (   15697 calls)
     vloc_psi     :    966.12s CPU    997.61s WALL (   15697 calls)
     add_vuspsi   :    484.94s CPU    486.28s WALL (   15697 calls)

     General routines
     calbec       :   1217.68s CPU   1223.58s WALL (   17621 calls)
     fft          :     23.01s CPU     23.96s WALL (    1446 calls)
     ffts         :      0.12s CPU      0.13s WALL (      44 calls)
     fftw         :   1064.62s CPU   1107.73s WALL (  958512 calls)
     interpolate  :      0.36s CPU      0.37s WALL (      22 calls)

     Parallel routines
     fft_scatt_xy :     84.13s CPU     85.14s WALL (  960002 calls)
     fft_scatt_yz :    379.19s CPU    415.10s WALL (  960002 calls)

     PWSCF        :      1h34m CPU      1h35m WALL


   This run was terminated on:  23:14:32  24Jun2022            

=------------------------------------------------------------------------------=
   JOB DONE.
=------------------------------------------------------------------------------=
