
     Program PWSCF v.6.6 starts on 10Jul2022 at 19: 2:38 

     This program is part of the open-source Quantum ESPRESSO suite
     for quantum simulation of materials; please cite
         "P. Giannozzi et al., J. Phys.:Condens. Matter 21 395502 (2009);
         "P. Giannozzi et al., J. Phys.:Condens. Matter 29 465901 (2017);
          URL http://www.quantum-espresso.org", 
     in publications or presentations arising from this work. More details at
     http://www.quantum-espresso.org/quote

     Parallel version (MPI), running on    37 processors

     MPI processes distributed on     1 nodes
     R & G space division:  proc/nbgrp/npool/nimage =      37
     Fft bands division:     nmany     =       1
     Reading input from Sc2Rh2.in
Warning: card &CELL ignored
Warning: card / ignored

     Current dimensions of program PWSCF are:
     Max number of different atomic species (ntypx) = 10
     Max number of k-points (npk) =  40000
     Max angular momentum in pseudopotentials (lmaxx) =  3
     Presently stress not available with electric field and gates

     Message from routine cell_base_init:
     DEPRECATED: use true lattice parameter, not A to a.u. conversion factor
     file Sc.pbe-spn-rrkjus_psl.1.0.0.UPF: wavefunction(s)  3S 3P renormalized
     file Rh.pbe-spn-rrkjus_psl.1.0.0.UPF: wavefunction(s)  4S 5S renormalized

     **************************************************************************
     Initializing libbeef V0.1.2 with the BEEF-vdW functional.
     Citation: Wellendorff et al., PRB 85, 235149 (2012).
     **************************************************************************


     IMPORTANT: XC functional enforced from input :
     Exchange-correlation= BEEF-VDW
                           (   1   4  43  14   2   0   0)
     Any further DFT definition will be discarded
     Please, verify this is what you really want


     Subspace diagonalization in iterative solution of the eigenvalue problem:
     a serial algorithm will be used


     Parallelization info
     --------------------
     sticks:   dense  smooth     PW     G-vecs:    dense   smooth      PW
     Min         125      49     14                29021     7321    1102
     Max         126      50     15                29038     7348    1119
     Sum        4641    1845    531              1073991   271383   40951



     bravais-lattice index     =            0
     lattice parameter (alat)  =       1.8897  a.u.
     unit-cell volume          =    4913.3222 (a.u.)^3
     number of atoms/cell      =           12
     number of atomic types    =            2
     number of electrons       =       168.00
     number of Kohn-Sham states=          101
     kinetic-energy cutoff     =      55.1240  Ry
     charge density cutoff     =     551.2396  Ry
     convergence threshold     =      1.0E-05
     mixing beta               =       0.1000
     number of iterations used =           10  plain     mixing
     Exchange-correlation= BEEF-VDW
                           (   1   4  43  14   2   0   0)

     celldm(1)=   1.889726  celldm(2)=   0.000000  celldm(3)=   0.000000
     celldm(4)=   0.000000  celldm(5)=   0.000000  celldm(6)=   0.000000

     crystal axes: (cart. coord. in units of alat)
               a(1) = (   5.606305   0.000000   0.000000 )  
               a(2) = (   1.874524   5.283636   0.000000 )  
               a(3) = (   0.000000   0.000000  24.579278 )  

     reciprocal axes: (cart. coord. in units 2 pi/alat)
               b(1) = (  0.178371 -0.063282  0.000000 )  
               b(2) = (  0.000000  0.189264  0.000000 )  
               b(3) = (  0.000000  0.000000  0.040685 )  


     PseudoPot. # 1 for Sc read from file:
     ../pseudo/Sc.pbe-spn-rrkjus_psl.1.0.0.UPF
     MD5 check sum: f739f74c200e509e5c24cbe053202ee5
     Pseudo is Ultrasoft + core correction, Zval = 11.0
     Generated using "atomic" code by A. Dal Corso v.6.2.2
     Using radial grid of 1173 points,  6 beta functions with: 
                l(1) =   0
                l(2) =   0
                l(3) =   1
                l(4) =   1
                l(5) =   2
                l(6) =   2
     Q(r) pseudized with 0 coefficients 


     PseudoPot. # 2 for Rh read from file:
     ../pseudo/Rh.pbe-spn-rrkjus_psl.1.0.0.UPF
     MD5 check sum: 912a852783f0c9b7bd5e9eb06cc0cc10
     Pseudo is Ultrasoft + core correction, Zval = 17.0
     Generated using "atomic" code by A. Dal Corso v.6.3
     Using radial grid of 1233 points,  6 beta functions with: 
                l(1) =   0
                l(2) =   0
                l(3) =   1
                l(4) =   1
                l(5) =   2
                l(6) =   2
     Q(r) pseudized with 0 coefficients 


     atomic species   valence    mass     pseudopotential
        Sc            11.00    44.95591     Sc( 1.00)
        Rh            17.00   102.90550     Rh( 1.00)

     No symmetry found



   Cartesian axes

     site n.     atom                  positions (alat units)
         1           Sc  tau(   1) = (   0.0000000   0.0000000  10.0000000  )
         2           Sc  tau(   2) = (   3.7404145   2.6418180  10.0000000  )
         3           Rh  tau(   3) = (   2.8031523   0.0000000  10.0000000  )
         4           Rh  tau(   4) = (   0.9372622   2.6418180  10.0000000  )
         5           Sc  tau(   5) = (   5.6063046   3.9596779  12.2896392  )
         6           Sc  tau(   6) = (   1.8658901   1.3178598  12.2896392  )
         7           Rh  tau(   7) = (   2.8031523   3.9596779  12.2896392  )
         8           Rh  tau(   8) = (   4.6690424   1.3178598  12.2896392  )
         9           Sc  tau(   9) = (   3.7335535   2.6369289  14.6301085  )
        10           Sc  tau(  10) = (   7.4739189   5.2787981  14.6301056  )
        11           Rh  tau(  11) = (   6.5359664   2.6364430  14.4446095  )
        12           Rh  tau(  12) = (   4.6700920   5.2782861  14.4446108  )

     number of k points=    74  Fermi-Dirac smearing, width (Ry)=  0.0100
                       cart. coord. in units 2pi/alat
        k(    1) = (   0.0000000   0.0000000   0.0000000), wk =   0.0138889
        k(    2) = (   0.0000000   0.0157720   0.0000000), wk =   0.0277778
        k(    3) = (   0.0000000   0.0315439   0.0000000), wk =   0.0277778
        k(    4) = (   0.0000000   0.0473159   0.0000000), wk =   0.0277778
        k(    5) = (   0.0000000   0.0630879   0.0000000), wk =   0.0277778
        k(    6) = (   0.0000000   0.0788598   0.0000000), wk =   0.0277778
        k(    7) = (   0.0000000  -0.0946318   0.0000000), wk =   0.0138889
        k(    8) = (   0.0148642  -0.0052735   0.0000000), wk =   0.0277778
        k(    9) = (   0.0148642   0.0104985   0.0000000), wk =   0.0277778
        k(   10) = (   0.0148642   0.0262704   0.0000000), wk =   0.0277778
        k(   11) = (   0.0148642   0.0420424   0.0000000), wk =   0.0277778
        k(   12) = (   0.0148642   0.0578144   0.0000000), wk =   0.0277778
        k(   13) = (   0.0148642   0.0735863   0.0000000), wk =   0.0277778
        k(   14) = (   0.0148642  -0.0999053   0.0000000), wk =   0.0277778
        k(   15) = (   0.0148642  -0.0841334   0.0000000), wk =   0.0277778
        k(   16) = (   0.0148642  -0.0683614   0.0000000), wk =   0.0277778
        k(   17) = (   0.0148642  -0.0525894   0.0000000), wk =   0.0277778
        k(   18) = (   0.0148642  -0.0368174   0.0000000), wk =   0.0277778
        k(   19) = (   0.0148642  -0.0210455   0.0000000), wk =   0.0277778
        k(   20) = (   0.0297284  -0.0105470   0.0000000), wk =   0.0277778
        k(   21) = (   0.0297284   0.0052249   0.0000000), wk =   0.0277778
        k(   22) = (   0.0297284   0.0209969   0.0000000), wk =   0.0277778
        k(   23) = (   0.0297284   0.0367689   0.0000000), wk =   0.0277778
        k(   24) = (   0.0297284   0.0525408   0.0000000), wk =   0.0277778
        k(   25) = (   0.0297284   0.0683128   0.0000000), wk =   0.0277778
        k(   26) = (   0.0297284  -0.1051788   0.0000000), wk =   0.0277778
        k(   27) = (   0.0297284  -0.0894069   0.0000000), wk =   0.0277778
        k(   28) = (   0.0297284  -0.0736349   0.0000000), wk =   0.0277778
        k(   29) = (   0.0297284  -0.0578629   0.0000000), wk =   0.0277778
        k(   30) = (   0.0297284  -0.0420910   0.0000000), wk =   0.0277778
        k(   31) = (   0.0297284  -0.0263190   0.0000000), wk =   0.0277778
        k(   32) = (   0.0445927  -0.0158205   0.0000000), wk =   0.0277778
        k(   33) = (   0.0445927  -0.0000486   0.0000000), wk =   0.0277778
        k(   34) = (   0.0445927   0.0157234   0.0000000), wk =   0.0277778
        k(   35) = (   0.0445927   0.0314954   0.0000000), wk =   0.0277778
        k(   36) = (   0.0445927   0.0472673   0.0000000), wk =   0.0277778
        k(   37) = (   0.0445927   0.0630393   0.0000000), wk =   0.0277778
        k(   38) = (   0.0445927  -0.1104523   0.0000000), wk =   0.0277778
        k(   39) = (   0.0445927  -0.0946804   0.0000000), wk =   0.0277778
        k(   40) = (   0.0445927  -0.0789084   0.0000000), wk =   0.0277778
        k(   41) = (   0.0445927  -0.0631364   0.0000000), wk =   0.0277778
        k(   42) = (   0.0445927  -0.0473645   0.0000000), wk =   0.0277778
        k(   43) = (   0.0445927  -0.0315925   0.0000000), wk =   0.0277778
        k(   44) = (   0.0594569  -0.0210941   0.0000000), wk =   0.0277778
        k(   45) = (   0.0594569  -0.0053221   0.0000000), wk =   0.0277778
        k(   46) = (   0.0594569   0.0104499   0.0000000), wk =   0.0277778
        k(   47) = (   0.0594569   0.0262218   0.0000000), wk =   0.0277778
        k(   48) = (   0.0594569   0.0419938   0.0000000), wk =   0.0277778
        k(   49) = (   0.0594569   0.0577658   0.0000000), wk =   0.0277778
        k(   50) = (   0.0594569  -0.1157259   0.0000000), wk =   0.0277778
        k(   51) = (   0.0594569  -0.0999539   0.0000000), wk =   0.0277778
        k(   52) = (   0.0594569  -0.0841819   0.0000000), wk =   0.0277778
        k(   53) = (   0.0594569  -0.0684100   0.0000000), wk =   0.0277778
        k(   54) = (   0.0594569  -0.0526380   0.0000000), wk =   0.0277778
        k(   55) = (   0.0594569  -0.0368660   0.0000000), wk =   0.0277778
        k(   56) = (   0.0743211  -0.0263676   0.0000000), wk =   0.0277778
        k(   57) = (   0.0743211  -0.0105956   0.0000000), wk =   0.0277778
        k(   58) = (   0.0743211   0.0051764   0.0000000), wk =   0.0277778
        k(   59) = (   0.0743211   0.0209483   0.0000000), wk =   0.0277778
        k(   60) = (   0.0743211   0.0367203   0.0000000), wk =   0.0277778
        k(   61) = (   0.0743211   0.0524923   0.0000000), wk =   0.0277778
        k(   62) = (   0.0743211  -0.1209994   0.0000000), wk =   0.0277778
        k(   63) = (   0.0743211  -0.1052274   0.0000000), wk =   0.0277778
        k(   64) = (   0.0743211  -0.0894554   0.0000000), wk =   0.0277778
        k(   65) = (   0.0743211  -0.0736835   0.0000000), wk =   0.0277778
        k(   66) = (   0.0743211  -0.0579115   0.0000000), wk =   0.0277778
        k(   67) = (   0.0743211  -0.0421395   0.0000000), wk =   0.0277778
        k(   68) = (  -0.0891853   0.0316411   0.0000000), wk =   0.0138889
        k(   69) = (  -0.0891853   0.0474131   0.0000000), wk =   0.0277778
        k(   70) = (  -0.0891853   0.0631850   0.0000000), wk =   0.0277778
        k(   71) = (  -0.0891853   0.0789570   0.0000000), wk =   0.0277778
        k(   72) = (  -0.0891853   0.0947290   0.0000000), wk =   0.0277778
        k(   73) = (  -0.0891853   0.1105009   0.0000000), wk =   0.0277778
        k(   74) = (  -0.0891853  -0.0629907   0.0000000), wk =   0.0138889

     Dense  grid:  1073991 G-vectors     FFT dimensions: (  80,  80, 360)

     Smooth grid:   271383 G-vectors     FFT dimensions: (  54,  54, 225)

     Estimated max dynamical RAM per process >     221.45 MB

     Estimated total dynamical RAM >       8.00 GB

     Check: negative core charge=   -0.000002

     Initial potential from superposition of free atoms

     starting charge  167.98169, renormalised to  168.00000

     negative rho (up, down):  1.160E-03 0.000E+00


     %%%%%%%%%%%%%%%%%%%%%%%%%%%%%%%%%%%%%%%%%%%%%%%%%%%%%%%%%%%%%%%%%%%%%%%%
     %                                                                      %
     % You are using vdW-DF, which was implemented by the Thonhauser group. %
     % Please cite the following two papers that made this development      %
     % possible and the two reviews that describe the various versions:     %
     %                                                                      %
     %   T. Thonhauser et al., PRL 115, 136402 (2015).                      %
     %   T. Thonhauser et al., PRB 76, 125112 (2007).                       %
     %   K. Berland et al., Rep. Prog. Phys. 78, 066501 (2015).             %
     %   D.C. Langreth et al., J. Phys.: Condens. Matter 21, 084203 (2009). %
     %                                                                      %
     %                                                                      %
     % If you are calculating the stress with vdW-DF, please also cite:     %
     %                                                                      %
     %   R. Sabatini et al., J. Phys.: Condens. Matter 24, 424209 (2012).   %
     %                                                                      %
     %%%%%%%%%%%%%%%%%%%%%%%%%%%%%%%%%%%%%%%%%%%%%%%%%%%%%%%%%%%%%%%%%%%%%%%%



     Adding external electric field

     Computed dipole along edir(3) : 
        Dipole                0.0010 Ry au,          0.0024 Debye
        Dipole field          0.0000 Ry au, 

        Potential amp.       -0.0002 Ry
        Total length         45.2869 bohr

     Starting wfcs are  120 randomized atomic wfcs

     total cpu time spent up to now is       96.5 secs

     Self-consistent Calculation

     iteration #  1     ecut=    55.12 Ry     beta= 0.10
     Davidson diagonalization with overlap
     ethr =  1.00E-02,  avg # of iterations =  3.5

     negative rho (up, down):  9.030E-04 0.000E+00

     Adding external electric field

     Computed dipole along edir(3) : 
        Dipole                0.1303 Ry au,          0.3313 Debye
        Dipole field          0.0003 Ry au, 

        Potential amp.       -0.0302 Ry
        Total length         45.2869 bohr


     total cpu time spent up to now is      329.6 secs

     total energy              =   -1956.22463801 Ry
     estimated scf accuracy    <       8.60271858 Ry

     iteration #  2     ecut=    55.12 Ry     beta= 0.10
     Davidson diagonalization with overlap
     ethr =  5.12E-03,  avg # of iterations =  2.0

     negative rho (up, down):  8.004E-04 0.000E+00

     Adding external electric field

     Computed dipole along edir(3) : 
        Dipole               -0.2717 Ry au,         -0.6905 Debye
        Dipole field         -0.0007 Ry au, 

        Potential amp.        0.0629 Ry
        Total length         45.2869 bohr


     total cpu time spent up to now is      549.9 secs

     total energy              =   -1956.05414342 Ry
     estimated scf accuracy    <       2.45959404 Ry

     iteration #  3     ecut=    55.12 Ry     beta= 0.10
     Davidson diagonalization with overlap
     ethr =  1.46E-03,  avg # of iterations =  4.0

     negative rho (up, down):  8.062E-04 0.000E+00

     Adding external electric field

     Computed dipole along edir(3) : 
        Dipole                0.2339 Ry au,          0.5944 Debye
        Dipole field          0.0006 Ry au, 

        Potential amp.       -0.0542 Ry
        Total length         45.2869 bohr


     total cpu time spent up to now is      802.9 secs

     total energy              =   -1956.46597032 Ry
     estimated scf accuracy    <       4.67320300 Ry

     iteration #  4     ecut=    55.12 Ry     beta= 0.10
     Davidson diagonalization with overlap
     ethr =  1.46E-03,  avg # of iterations =  2.1

     negative rho (up, down):  8.400E-04 0.000E+00

     Adding external electric field

     Computed dipole along edir(3) : 
        Dipole                0.0244 Ry au,          0.0621 Debye
        Dipole field          0.0001 Ry au, 

        Potential amp.       -0.0057 Ry
        Total length         45.2869 bohr


     total cpu time spent up to now is     1013.6 secs

     total energy              =   -1956.49601269 Ry
     estimated scf accuracy    <       1.29464873 Ry

     iteration #  5     ecut=    55.12 Ry     beta= 0.10
     Davidson diagonalization with overlap
     ethr =  7.71E-04,  avg # of iterations =  2.0

     negative rho (up, down):  8.584E-04 0.000E+00

     Adding external electric field

     Computed dipole along edir(3) : 
        Dipole                0.0344 Ry au,          0.0874 Debye
        Dipole field          0.0001 Ry au, 

        Potential amp.       -0.0080 Ry
        Total length         45.2869 bohr


     total cpu time spent up to now is     1225.7 secs

     total energy              =   -1956.63188368 Ry
     estimated scf accuracy    <       0.42930054 Ry

     iteration #  6     ecut=    55.12 Ry     beta= 0.10
     Davidson diagonalization with overlap
     ethr =  2.56E-04,  avg # of iterations =  2.4

     negative rho (up, down):  9.723E-04 0.000E+00

     Adding external electric field

     Computed dipole along edir(3) : 
        Dipole                0.0903 Ry au,          0.2295 Debye
        Dipole field          0.0002 Ry au, 

        Potential amp.       -0.0209 Ry
        Total length         45.2869 bohr


     total cpu time spent up to now is     1442.0 secs

     total energy              =   -1956.57711804 Ry
     estimated scf accuracy    <       0.24698852 Ry

     iteration #  7     ecut=    55.12 Ry     beta= 0.10
     Davidson diagonalization with overlap
     c_bands:  3 eigenvalues not converged
     c_bands:  1 eigenvalues not converged
     c_bands:  1 eigenvalues not converged
     c_bands:  3 eigenvalues not converged
     ethr =  1.47E-04,  avg # of iterations = 12.1

     negative rho (up, down):  9.206E-04 0.000E+00

     Adding external electric field

     Computed dipole along edir(3) : 
        Dipole                0.0359 Ry au,          0.0912 Debye
        Dipole field          0.0001 Ry au, 

        Potential amp.       -0.0083 Ry
        Total length         45.2869 bohr


     total cpu time spent up to now is     1764.2 secs

     total energy              =   -1956.60244859 Ry
     estimated scf accuracy    <       0.10442644 Ry

     iteration #  8     ecut=    55.12 Ry     beta= 0.10
     Davidson diagonalization with overlap
     c_bands:  2 eigenvalues not converged
     c_bands:  2 eigenvalues not converged
     c_bands:  1 eigenvalues not converged
     c_bands:  2 eigenvalues not converged
     ethr =  6.22E-05,  avg # of iterations =  9.4

     negative rho (up, down):  1.024E-03 0.000E+00

     Adding external electric field

     Computed dipole along edir(3) : 
        Dipole                0.0653 Ry au,          0.1660 Debye
        Dipole field          0.0002 Ry au, 

        Potential amp.       -0.0151 Ry
        Total length         45.2869 bohr


     total cpu time spent up to now is     2066.7 secs

     total energy              =   -1956.61915853 Ry
     estimated scf accuracy    <       0.27177981 Ry

     iteration #  9     ecut=    55.12 Ry     beta= 0.10
     Davidson diagonalization with overlap
     ethr =  6.22E-05,  avg # of iterations =  2.0

     negative rho (up, down):  1.120E-03 0.000E+00

     Adding external electric field

     Computed dipole along edir(3) : 
        Dipole                0.0506 Ry au,          0.1287 Debye
        Dipole field          0.0001 Ry au, 

        Potential amp.       -0.0117 Ry
        Total length         45.2869 bohr


     total cpu time spent up to now is     2292.0 secs

     total energy              =   -1956.63959528 Ry
     estimated scf accuracy    <       0.01436442 Ry

     iteration # 10     ecut=    55.12 Ry     beta= 0.10
     Davidson diagonalization with overlap
     c_bands:  1 eigenvalues not converged
     c_bands:  3 eigenvalues not converged
     c_bands:  2 eigenvalues not converged
     c_bands:  1 eigenvalues not converged
     c_bands:  1 eigenvalues not converged
     c_bands:  4 eigenvalues not converged
     c_bands:  1 eigenvalues not converged
     c_bands:  1 eigenvalues not converged
     c_bands:  2 eigenvalues not converged
     c_bands:  1 eigenvalues not converged
     c_bands:  1 eigenvalues not converged
     c_bands:  1 eigenvalues not converged
     c_bands:  1 eigenvalues not converged
     c_bands:  1 eigenvalues not converged
     c_bands:  3 eigenvalues not converged
     c_bands:  1 eigenvalues not converged
     c_bands:  3 eigenvalues not converged
     c_bands:  4 eigenvalues not converged
     c_bands:  2 eigenvalues not converged
     c_bands:  3 eigenvalues not converged
     c_bands:  2 eigenvalues not converged
     c_bands:  5 eigenvalues not converged
     c_bands:  2 eigenvalues not converged
     c_bands:  3 eigenvalues not converged
     ethr =  8.55E-06,  avg # of iterations = 14.0

     negative rho (up, down):  1.138E-03 0.000E+00

     Adding external electric field

     Computed dipole along edir(3) : 
        Dipole                0.0746 Ry au,          0.1897 Debye
        Dipole field          0.0002 Ry au, 

        Potential amp.       -0.0173 Ry
        Total length         45.2869 bohr


     total cpu time spent up to now is     2691.3 secs

     total energy              =   -1956.64132524 Ry
     estimated scf accuracy    <       0.02055019 Ry

     iteration # 11     ecut=    55.12 Ry     beta= 0.10
     Davidson diagonalization with overlap
     c_bands:  1 eigenvalues not converged
     c_bands:  1 eigenvalues not converged
     c_bands:  1 eigenvalues not converged
     c_bands:  1 eigenvalues not converged
     c_bands:  1 eigenvalues not converged
     c_bands:  2 eigenvalues not converged
     c_bands:  1 eigenvalues not converged
     c_bands:  1 eigenvalues not converged
     c_bands:  1 eigenvalues not converged
     ethr =  8.55E-06,  avg # of iterations =  7.8

     negative rho (up, down):  1.137E-03 0.000E+00

     Adding external electric field

     Computed dipole along edir(3) : 
        Dipole                0.0666 Ry au,          0.1692 Debye
        Dipole field          0.0002 Ry au, 

        Potential amp.       -0.0154 Ry
        Total length         45.2869 bohr


     total cpu time spent up to now is     2948.5 secs

     total energy              =   -1956.64406014 Ry
     estimated scf accuracy    <       0.01148392 Ry

     iteration # 12     ecut=    55.12 Ry     beta= 0.10
     Davidson diagonalization with overlap
     ethr =  6.84E-06,  avg # of iterations =  1.7

     negative rho (up, down):  1.148E-03 0.000E+00

     Adding external electric field

     Computed dipole along edir(3) : 
        Dipole                0.0619 Ry au,          0.1574 Debye
        Dipole field          0.0002 Ry au, 

        Potential amp.       -0.0143 Ry
        Total length         45.2869 bohr


     total cpu time spent up to now is     3148.1 secs

     total energy              =   -1956.64335051 Ry
     estimated scf accuracy    <       0.00411328 Ry

     iteration # 13     ecut=    55.12 Ry     beta= 0.10
     Davidson diagonalization with overlap
     c_bands:  1 eigenvalues not converged
     c_bands:  1 eigenvalues not converged
     c_bands:  1 eigenvalues not converged
     c_bands:  1 eigenvalues not converged
     c_bands:  1 eigenvalues not converged
     c_bands:  4 eigenvalues not converged
     c_bands:  4 eigenvalues not converged
     c_bands:  1 eigenvalues not converged
     c_bands:  1 eigenvalues not converged
     c_bands:  1 eigenvalues not converged
     c_bands:  1 eigenvalues not converged
     c_bands:  1 eigenvalues not converged
     c_bands:  1 eigenvalues not converged
     c_bands:  1 eigenvalues not converged
     c_bands:  3 eigenvalues not converged
     c_bands:  1 eigenvalues not converged
     c_bands:  1 eigenvalues not converged
     c_bands:  1 eigenvalues not converged
     c_bands:  1 eigenvalues not converged
     c_bands:  1 eigenvalues not converged
     c_bands:  1 eigenvalues not converged
     c_bands:  1 eigenvalues not converged
     c_bands:  5 eigenvalues not converged
     c_bands:  2 eigenvalues not converged
     c_bands:  1 eigenvalues not converged
     c_bands:  2 eigenvalues not converged
     ethr =  2.45E-06,  avg # of iterations = 13.9

     negative rho (up, down):  1.134E-03 0.000E+00

     Adding external electric field

     Computed dipole along edir(3) : 
        Dipole                0.0631 Ry au,          0.1603 Debye
        Dipole field          0.0002 Ry au, 

        Potential amp.       -0.0146 Ry
        Total length         45.2869 bohr


     total cpu time spent up to now is     3464.6 secs

     total energy              =   -1956.64418373 Ry
     estimated scf accuracy    <       0.00048046 Ry

     iteration # 14     ecut=    55.12 Ry     beta= 0.10
     Davidson diagonalization with overlap
     c_bands:  1 eigenvalues not converged
     c_bands:  1 eigenvalues not converged
     c_bands:  2 eigenvalues not converged
     c_bands:  1 eigenvalues not converged
     c_bands:  1 eigenvalues not converged
     c_bands:  1 eigenvalues not converged
     c_bands:  1 eigenvalues not converged
     c_bands:  1 eigenvalues not converged
     c_bands:  4 eigenvalues not converged
     c_bands:  1 eigenvalues not converged
     c_bands:  1 eigenvalues not converged
     ethr =  2.86E-07,  avg # of iterations = 10.7

     negative rho (up, down):  1.146E-03 0.000E+00

     Adding external electric field

     Computed dipole along edir(3) : 
        Dipole                0.0654 Ry au,          0.1662 Debye
        Dipole field          0.0002 Ry au, 

        Potential amp.       -0.0151 Ry
        Total length         45.2869 bohr


     total cpu time spent up to now is     3771.3 secs

     total energy              =   -1956.64421901 Ry
     estimated scf accuracy    <       0.00041011 Ry

     iteration # 15     ecut=    55.12 Ry     beta= 0.10
     Davidson diagonalization with overlap
     c_bands:  1 eigenvalues not converged
     c_bands:  1 eigenvalues not converged
     c_bands:  3 eigenvalues not converged
     c_bands:  1 eigenvalues not converged
     c_bands:  1 eigenvalues not converged
     c_bands:  2 eigenvalues not converged
     c_bands:  1 eigenvalues not converged
     ethr =  2.44E-07,  avg # of iterations =  5.3

     negative rho (up, down):  1.141E-03 0.000E+00

     Adding external electric field

     Computed dipole along edir(3) : 
        Dipole                0.0652 Ry au,          0.1657 Debye
        Dipole field          0.0002 Ry au, 

        Potential amp.       -0.0151 Ry
        Total length         45.2869 bohr


     total cpu time spent up to now is     4017.8 secs

     total energy              =   -1956.64429755 Ry
     estimated scf accuracy    <       0.00004671 Ry

     iteration # 16     ecut=    55.12 Ry     beta= 0.10
     Davidson diagonalization with overlap
     ethr =  2.78E-08,  avg # of iterations =  8.4

     negative rho (up, down):  1.133E-03 0.000E+00

     Adding external electric field

     Computed dipole along edir(3) : 
        Dipole                0.0648 Ry au,          0.1646 Debye
        Dipole field          0.0002 Ry au, 

        Potential amp.       -0.0150 Ry
        Total length         45.2869 bohr


     total cpu time spent up to now is     4393.1 secs

     total energy              =   -1956.64431068 Ry
     estimated scf accuracy    <       0.00031905 Ry

     iteration # 17     ecut=    55.12 Ry     beta= 0.10
     Davidson diagonalization with overlap
     ethr =  2.78E-08,  avg # of iterations =  2.0

     negative rho (up, down):  1.130E-03 0.000E+00

     Adding external electric field

     Computed dipole along edir(3) : 
        Dipole                0.0646 Ry au,          0.1643 Debye
        Dipole field          0.0002 Ry au, 

        Potential amp.       -0.0150 Ry
        Total length         45.2869 bohr


     total cpu time spent up to now is     4614.8 secs

     total energy              =   -1956.64431372 Ry
     estimated scf accuracy    <       0.00006736 Ry

     iteration # 18     ecut=    55.12 Ry     beta= 0.10
     Davidson diagonalization with overlap
     ethr =  2.78E-08,  avg # of iterations =  2.6

     negative rho (up, down):  1.113E-03 0.000E+00

     Adding external electric field

     Computed dipole along edir(3) : 
        Dipole                0.0592 Ry au,          0.1505 Debye
        Dipole field          0.0002 Ry au, 

        Potential amp.       -0.0137 Ry
        Total length         45.2869 bohr


     total cpu time spent up to now is     4831.0 secs

     End of self-consistent calculation

          k = 0.0000 0.0000 0.0000 ( 34051 PWs)   bands (ev):

   -76.9307 -76.9277 -76.5180 -76.5151 -76.4512 -76.4482 -48.7132 -48.6914
   -48.6672 -48.6452 -47.9618 -47.9386 -44.8587 -44.8185 -44.8168 -44.8059
   -44.7790 -44.7740 -44.4763 -44.4714 -44.4578 -44.4345 -44.4295 -44.4055
   -44.3776 -44.3249 -44.3152 -44.3132 -44.2344 -44.2310 -27.3743 -27.3585
   -27.3529 -27.3273 -27.3192 -27.2983 -27.2058 -27.1894 -27.1650 -27.1486
   -27.1434 -27.1116 -26.6637 -26.5683 -26.5490 -26.5396 -26.5138 -26.4388
    -4.1173  -2.7263  -2.4072  -2.2364  -2.2230  -2.2173  -2.0894  -2.0537
    -2.0310  -1.9772  -1.6409  -1.5824  -1.1375  -1.1338  -1.0534  -0.9833
    -0.8617  -0.8106  -0.7600  -0.7535  -0.7369  -0.6198  -0.4593  -0.1365
    -0.1253  -0.0766  -0.0152   0.2257   0.4277   0.5704   0.5938   0.8169
     0.9730   1.5289   1.8787   2.0788   2.1810   2.3293   2.3588   2.5520
     2.6822   2.8687   2.9054   3.0763   3.1002   3.1792   3.1917   3.2125
     3.3811   3.6812   3.7200   3.7699   3.8129

          k = 0.0000 0.0158 0.0000 ( 34057 PWs)   bands (ev):

   -76.9306 -76.9278 -76.5180 -76.5151 -76.4511 -76.4483 -48.7129 -48.6919
   -48.6669 -48.6456 -47.9616 -47.9391 -44.8578 -44.8185 -44.8169 -44.8068
   -44.7788 -44.7739 -44.4761 -44.4714 -44.4568 -44.4343 -44.4295 -44.4063
   -44.3766 -44.3257 -44.3152 -44.3133 -44.2343 -44.2311 -27.3739 -27.3551
   -27.3533 -27.3239 -27.3189 -27.2987 -27.2059 -27.1901 -27.1652 -27.1494
   -27.1474 -27.1155 -26.6602 -26.5684 -26.5498 -26.5391 -26.5143 -26.4429
    -4.0715  -2.6838  -2.3723  -2.2086  -2.2054  -2.1937  -2.0709  -2.0468
    -2.0007  -1.9625  -1.6101  -1.5590  -1.1790  -1.0635  -1.0417  -0.9859
    -0.8465  -0.8055  -0.7680  -0.7526  -0.7189  -0.6088  -0.4561  -0.1480
    -0.1389  -0.0927  -0.0256   0.2355   0.3978   0.5352   0.5769   0.8345
     0.9347   1.2720   1.7151   2.0328   2.1051   2.3422   2.5394   2.6282
     2.6441   2.8532   2.9011   3.0306   3.0412   3.1425   3.1838   3.2478
     3.3656   3.5971   3.6731   3.6773   3.7774

          k = 0.0000 0.0315 0.0000 ( 34009 PWs)   bands (ev):

   -76.9305 -76.9279 -76.5178 -76.5153 -76.4509 -76.4484 -48.7120 -48.6932
   -48.6660 -48.6470 -47.9607 -47.9406 -44.8549 -44.8184 -44.8169 -44.8092
   -44.7781 -44.7737 -44.4756 -44.4713 -44.4541 -44.4337 -44.4294 -44.4087
   -44.3738 -44.3282 -44.3151 -44.3134 -44.2342 -44.2313 -27.3729 -27.3545
   -27.3452 -27.3179 -27.3140 -27.2998 -27.2061 -27.1920 -27.1657 -27.1588
   -27.1514 -27.1271 -26.6498 -26.5686 -26.5519 -26.5377 -26.5155 -26.4549
    -3.9367  -2.5618  -2.2720  -2.1686  -2.1343  -2.1273  -2.0170  -2.0139
    -1.9220  -1.9099  -1.5192  -1.5005  -1.1930  -1.0082  -0.9946  -0.9619
    -0.8045  -0.7990  -0.7922  -0.7453  -0.6805  -0.5564  -0.4489  -0.2090
    -0.1624  -0.1467  -0.0235   0.2283   0.3388   0.3870   0.5320   0.8077
     0.8828   0.9543   1.2261   1.7571   2.2956   2.3534   2.4565   2.4641
     2.7944   2.8215   2.8969   2.9372   2.9433   3.1200   3.1782   3.3162
     3.3193   3.4259   3.5670   3.6116   3.8016

          k = 0.0000 0.0473 0.0000 ( 34001 PWs)   bands (ev):

   -76.9302 -76.9281 -76.5176 -76.5155 -76.4507 -76.4487 -48.7106 -48.6952
   -48.6646 -48.6491 -47.9593 -47.9429 -44.8505 -44.8182 -44.8170 -44.8132
   -44.7771 -44.7735 -44.4748 -44.4713 -44.4497 -44.4329 -44.4293 -44.4127
   -44.3694 -44.3322 -44.3149 -44.3136 -44.2339 -44.2315 -27.3713 -27.3563
   -27.3291 -27.3164 -27.3016 -27.2979 -27.2064 -27.1948 -27.1768 -27.1663
   -27.1544 -27.1451 -26.6331 -26.5686 -26.5550 -26.5356 -26.5174 -26.4739
    -3.7209  -2.3791  -2.1840  -2.1206  -2.0455  -1.9986  -1.9317  -1.9258
    -1.8657  -1.7590  -1.4363  -1.3723  -1.1781  -1.0127  -0.9635  -0.8586
    -0.8430  -0.7883  -0.7468  -0.6864  -0.6526  -0.4532  -0.4417  -0.2801
    -0.2396  -0.1981  -0.0163   0.0762   0.1586   0.2902   0.4847   0.5654
     0.6731   0.8884   0.9636   1.4155   2.1755   2.2341   2.2375   2.5372
     2.6223   2.8024   2.8355   2.8969   2.9027   3.1642   3.2127   3.2423
     3.2975   3.3752   3.4576   3.4918   3.7672

          k = 0.0000 0.0631 0.0000 ( 33968 PWs)   bands (ev):

   -76.9299 -76.9284 -76.5173 -76.5158 -76.4504 -76.4489 -48.7087 -48.6978
   -48.6626 -48.6517 -47.9574 -47.9457 -44.8448 -44.8184 -44.8180 -44.8171
   -44.7760 -44.7735 -44.4738 -44.4714 -44.4441 -44.4319 -44.4294 -44.4179
   -44.3638 -44.3374 -44.3148 -44.3138 -44.2336 -44.2319 -27.3692 -27.3585
   -27.3144 -27.3084 -27.3034 -27.2767 -27.2075 -27.1988 -27.1979 -27.1711
   -27.1638 -27.1578 -26.6111 -26.5683 -26.5584 -26.5328 -26.5200 -26.4982
    -3.4389  -2.2888  -2.1753  -1.9482  -1.9461  -1.8315  -1.8223  -1.8108
    -1.8015  -1.5512  -1.3926  -1.1771  -1.1479  -1.0448  -0.9335  -0.9178
    -0.7941  -0.7679  -0.6795  -0.6272  -0.5992  -0.4372  -0.3582  -0.3265
    -0.2708  -0.2584  -0.2535  -0.0666   0.0994   0.2033   0.2040   0.3069
     0.4659   0.8519   1.0434   1.0877   1.8879   2.0208   2.1781   2.2521
     2.6978   2.7428   2.7971   2.8787   2.9089   3.1353   3.1679   3.1951
     3.2539   3.3802   3.3991   3.4028   3.5619

          k = 0.0000 0.0789 0.0000 ( 33929 PWs)   bands (ev):

   -76.9296 -76.9288 -76.5169 -76.5162 -76.4500 -76.4493 -48.7063 -48.7006
   -48.6602 -48.6545 -47.9549 -47.9489 -44.8382 -44.8246 -44.8178 -44.8173
   -44.7749 -44.7736 -44.4729 -44.4717 -44.4376 -44.4310 -44.4297 -44.4241
   -44.3573 -44.3436 -44.3145 -44.3140 -44.2332 -44.2323 -27.3667 -27.3612
   -27.3120 -27.3067 -27.2826 -27.2516 -27.2276 -27.2045 -27.2008 -27.1962
   -27.1648 -27.1610 -26.5853 -26.5674 -26.5612 -26.5297 -26.5258 -26.5230
    -3.1143  -2.4935  -2.0055  -1.8867  -1.7908  -1.7512  -1.7314  -1.7073
    -1.6266  -1.3820  -1.3053  -1.1281  -1.0890  -0.9976  -0.9414  -0.8864
    -0.8652  -0.7984  -0.6446  -0.5914  -0.5511  -0.4556  -0.4312  -0.3788
    -0.3218  -0.2600  -0.1575  -0.1534  -0.0972  -0.0186   0.0247   0.1113
     0.4721   0.7188   0.9403   1.2396   1.5523   1.8909   2.0135   2.1239
     2.6623   2.7487   2.7660   2.7918   2.9587   3.0920   3.1759   3.2240
     3.2311   3.3202   3.3323   3.3724   3.4451

          k = 0.0000-0.0946 0.0000 ( 33900 PWs)   bands (ev):

   -76.9292 -76.9292 -76.5166 -76.5165 -76.4497 -76.4497 -48.7036 -48.7034
   -48.6575 -48.6575 -47.9521 -47.9519 -44.8313 -44.8313 -44.8176 -44.8175
   -44.7741 -44.7741 -44.4722 -44.4722 -44.4308 -44.4308 -44.4302 -44.4302
   -44.3504 -44.3504 -44.3143 -44.3143 -44.2328 -44.2327 -27.3641 -27.3639
   -27.3094 -27.3094 -27.2554 -27.2552 -27.2241 -27.2241 -27.2032 -27.2031
   -27.1634 -27.1634 -26.5669 -26.5668 -26.5539 -26.5537 -26.5264 -26.5262
    -2.7833  -2.7833  -1.9056  -1.9056  -1.7095  -1.7095  -1.6962  -1.6961
    -1.4476  -1.4475  -1.1285  -1.1284  -1.0699  -1.0698  -0.9592  -0.9592
    -0.7458  -0.7458  -0.6564  -0.6564  -0.5130  -0.5130  -0.3988  -0.3988
    -0.3342  -0.3342  -0.2032  -0.2032  -0.0849  -0.0849   0.0138   0.0138
     0.5319   0.5319   1.1321   1.1321   1.6010   1.6010   2.0567   2.0568
     2.6545   2.6546   2.7867   2.7867   3.0233   3.0234   3.2322   3.2324
     3.2844   3.2850   3.3038   3.3041   3.4339

          k = 0.0149-0.0053 0.0000 ( 34057 PWs)   bands (ev):

   -76.9306 -76.9278 -76.5180 -76.5151 -76.4511 -76.4483 -48.7129 -48.6919
   -48.6669 -48.6456 -47.9616 -47.9391 -44.8578 -44.8185 -44.8169 -44.8068
   -44.7788 -44.7739 -44.4761 -44.4714 -44.4568 -44.4343 -44.4295 -44.4063
   -44.3766 -44.3257 -44.3152 -44.3133 -44.2343 -44.2311 -27.3739 -27.3551
   -27.3533 -27.3239 -27.3189 -27.2987 -27.2059 -27.1901 -27.1652 -27.1494
   -27.1474 -27.1155 -26.6602 -26.5684 -26.5498 -26.5391 -26.5143 -26.4429
    -4.0715  -2.6838  -2.3723  -2.2086  -2.2054  -2.1937  -2.0709  -2.0468
    -2.0007  -1.9625  -1.6101  -1.5590  -1.1790  -1.0635  -1.0417  -0.9859
    -0.8465  -0.8055  -0.7680  -0.7526  -0.7189  -0.6088  -0.4561  -0.1480
    -0.1389  -0.0927  -0.0256   0.2355   0.3978   0.5352   0.5769   0.8345
     0.9347   1.2720   1.7151   2.0328   2.1051   2.3422   2.5394   2.6282
     2.6441   2.8531   2.9011   3.0306   3.0413   3.1427   3.1838   3.2479
     3.3655   3.5975   3.6731   3.6780   3.7779

          k = 0.0149 0.0105 0.0000 ( 34029 PWs)   bands (ev):

   -76.9307 -76.9277 -76.5180 -76.5151 -76.4511 -76.4482 -48.7134 -48.6916
   -48.6674 -48.6453 -47.9622 -47.9387 -44.8584 -44.8185 -44.8168 -44.8059
   -44.7785 -44.7739 -44.4759 -44.4713 -44.4576 -44.4341 -44.4294 -44.4054
   -44.3773 -44.3249 -44.3152 -44.3133 -44.2344 -44.2310 -27.3744 -27.3592
   -27.3528 -27.3280 -27.3194 -27.2983 -27.2069 -27.1897 -27.1664 -27.1492
   -27.1436 -27.1118 -26.6644 -26.5694 -26.5496 -26.5392 -26.5141 -26.4390
    -4.0561  -2.6740  -2.3684  -2.2045  -2.1985  -2.1792  -2.0570  -2.0419
    -2.0138  -1.9449  -1.6127  -1.5537  -1.2309  -1.0638  -1.0050  -0.9465
    -0.8505  -0.8230  -0.7639  -0.7329  -0.7185  -0.5846  -0.4175  -0.1438
    -0.1163  -0.0781  -0.0205   0.2187   0.4341   0.5287   0.6117   0.8412
     0.9284   1.4540   1.8516   2.0859   2.1687   2.2408   2.3719   2.4617
     2.5802   2.7823   2.8426   2.9460   3.0152   3.0439   3.1370   3.2288
     3.3840   3.5204   3.6049   3.6997   3.7551

          k = 0.0149 0.0263 0.0000 ( 34010 PWs)   bands (ev):

   -76.9306 -76.9278 -76.5180 -76.5151 -76.4511 -76.4483 -48.7133 -48.6921
   -48.6673 -48.6459 -47.9622 -47.9393 -44.8572 -44.8185 -44.8167 -44.8067
   -44.7777 -44.7738 -44.4754 -44.4712 -44.4564 -44.4335 -44.4293 -44.4063
   -44.3762 -44.3257 -44.3152 -44.3133 -44.2343 -44.2311 -27.3742 -27.3564
   -27.3532 -27.3252 -27.3192 -27.2987 -27.2080 -27.1907 -27.1678 -27.1503
   -27.1477 -27.1159 -26.6614 -26.5704 -26.5509 -26.5384 -26.5148 -26.4434
    -3.9510  -2.5835  -2.2981  -2.1577  -2.1456  -2.1336  -2.0168  -2.0066
    -1.9674  -1.9006  -1.5550  -1.5090  -1.2525  -1.0589  -0.9211  -0.9187
    -0.8278  -0.8245  -0.7581  -0.7428  -0.6752  -0.5378  -0.3776  -0.1736
    -0.1195  -0.0921  -0.0279   0.2209   0.4071   0.4608   0.6011   0.8514
     0.8865   1.1776   1.6273   1.9961   2.0818   2.3025   2.3628   2.4402
     2.4524   2.7197   2.7960   2.8598   2.8677   3.0214   3.0826   3.2155
     3.3620   3.3746   3.5193   3.6455   3.7470

          k = 0.0149 0.0420 0.0000 ( 33986 PWs)   bands (ev):

   -76.9305 -76.9279 -76.5178 -76.5153 -76.4509 -76.4484 -48.7125 -48.6935
   -48.6666 -48.6473 -47.9616 -47.9409 -44.8542 -44.8184 -44.8167 -44.8092
   -44.7767 -44.7737 -44.4746 -44.4712 -44.4535 -44.4327 -44.4293 -44.4088
   -44.3732 -44.3282 -44.3151 -44.3135 -44.2341 -44.2313 -27.3734 -27.3543
   -27.3468 -27.3184 -27.3157 -27.2998 -27.2091 -27.1926 -27.1691 -27.1592
   -27.1525 -27.1274 -26.6515 -26.5712 -26.5532 -26.5368 -26.5162 -26.4555
    -3.7625  -2.4277  -2.1683  -2.1492  -2.0623  -2.0385  -1.9414  -1.9224
    -1.8636  -1.8398  -1.4498  -1.4403  -1.2421  -1.0347  -0.9175  -0.8288
    -0.8216  -0.7776  -0.7642  -0.7272  -0.6353  -0.4511  -0.3455  -0.2129
    -0.1736  -0.1503  -0.0052   0.1995   0.3267   0.4066   0.4113   0.7033
     0.8865   0.9777   1.1874   1.6065   2.0490   2.2256   2.2881   2.3354
     2.4160   2.6934   2.7709   2.7817   2.8229   3.0246   3.1390   3.1696
     3.2575   3.3054   3.3916   3.5690   3.7443

          k = 0.0149 0.0578 0.0000 ( 33972 PWs)   bands (ev):

   -76.9302 -76.9281 -76.5176 -76.5155 -76.4507 -76.4486 -48.7111 -48.6955
   -48.6652 -48.6493 -47.9602 -47.9431 -44.8497 -44.8183 -44.8168 -44.8133
   -44.7755 -44.7736 -44.4737 -44.4713 -44.4491 -44.4317 -44.4294 -44.4128
   -44.3688 -44.3323 -44.3149 -44.3137 -44.2339 -44.2316 -27.3718 -27.3561
   -27.3309 -27.3169 -27.3016 -27.2997 -27.2098 -27.1952 -27.1769 -27.1701
   -27.1553 -27.1452 -26.6349 -26.5715 -26.5561 -26.5344 -26.5183 -26.4742
    -3.5025  -2.2376  -2.2256  -1.9924  -1.9666  -1.8959  -1.8302  -1.8127
    -1.7789  -1.7055  -1.3989  -1.2750  -1.2125  -1.0118  -0.9427  -0.8266
    -0.8213  -0.7635  -0.6890  -0.6635  -0.5960  -0.3442  -0.3386  -0.2496
    -0.2199  -0.2056  -0.0038   0.0378   0.1120   0.2293   0.4115   0.4645
     0.5587   1.0222   1.1172   1.1358   1.7003   2.0895   2.1732   2.1866
     2.4934   2.6694   2.7031   2.7812   2.8250   3.0582   3.1133   3.1740
     3.2101   3.2603   3.2989   3.5070   3.6711

          k = 0.0149 0.0736 0.0000 ( 33936 PWs)   bands (ev):

   -76.9299 -76.9284 -76.5173 -76.5158 -76.4504 -76.4489 -48.7091 -48.6979
   -48.6631 -48.6518 -47.9582 -47.9458 -44.8440 -44.8186 -44.8181 -44.8169
   -44.7745 -44.7738 -44.4729 -44.4715 -44.4435 -44.4308 -44.4296 -44.4181
   -44.3631 -44.3376 -44.3147 -44.3139 -44.2335 -44.2319 -27.3698 -27.3583
   -27.3149 -27.3099 -27.3033 -27.2785 -27.2105 -27.1988 -27.1978 -27.1729
   -27.1652 -27.1580 -26.6128 -26.5708 -26.5589 -26.5316 -26.5210 -26.4982
    -3.1903  -2.3942  -2.0597  -1.8772  -1.8070  -1.7377  -1.7272  -1.7249
    -1.7016  -1.5064  -1.3702  -1.1882  -1.0672  -1.0138  -0.9856  -0.8602
    -0.8361  -0.7468  -0.6516  -0.6042  -0.5446  -0.3953  -0.3129  -0.2987
    -0.2713  -0.2309  -0.1069  -0.0605   0.0011   0.0979   0.1404   0.2172
     0.4318   0.7445   1.0762   1.2566   1.3851   1.8459   2.0540   2.0608
     2.6007   2.6112   2.7354   2.7873   2.8245   3.0484   3.0912   3.1649
     3.1996   3.2600   3.2945   3.4622   3.5568

          k = 0.0149-0.0999 0.0000 ( 33882 PWs)   bands (ev):

   -76.9296 -76.9288 -76.5169 -76.5162 -76.4500 -76.4493 -48.7066 -48.7006
   -48.6606 -48.6545 -47.9555 -47.9487 -44.8376 -44.8249 -44.8179 -44.8171
   -44.7743 -44.7737 -44.4721 -44.4720 -44.4371 -44.4301 -44.4301 -44.4244
   -44.3567 -44.3439 -44.3145 -44.3141 -44.2331 -44.2323 -27.3672 -27.3609
   -27.3124 -27.3063 -27.2839 -27.2530 -27.2272 -27.2069 -27.2000 -27.1957
   -27.1672 -27.1603 -26.5866 -26.5692 -26.5612 -26.5285 -26.5255 -26.5241
    -2.8559  -2.6525  -1.9348  -1.8432  -1.7111  -1.6894  -1.6875  -1.6607
    -1.5094  -1.3925  -1.3057  -1.1870  -1.0440  -1.0170  -0.8720  -0.8455
    -0.8402  -0.7863  -0.6461  -0.6084  -0.5187  -0.4775  -0.4157  -0.3970
    -0.3189  -0.2333  -0.1579  -0.1368  -0.0868  -0.0686   0.0221   0.0253
     0.4907   0.5469   0.9790   1.2080   1.5998   1.6053   1.9251   2.0422
     2.6175   2.6824   2.7301   2.8233   2.8728   3.0476   3.0987   3.2348
     3.2578   3.2582   3.3007   3.4112   3.5424

          k = 0.0149-0.0841 0.0000 ( 33913 PWs)   bands (ev):

   -76.9292 -76.9292 -76.5166 -76.5165 -76.4497 -76.4497 -48.7037 -48.7033
   -48.6576 -48.6573 -47.9524 -47.9516 -44.8318 -44.8308 -44.8177 -44.8173
   -44.7750 -44.7732 -44.4728 -44.4716 -44.4312 -44.4308 -44.4304 -44.4296
   -44.3508 -44.3500 -44.3144 -44.3142 -44.2328 -44.2327 -27.3644 -27.3636
   -27.3096 -27.3090 -27.2560 -27.2544 -27.2249 -27.2231 -27.2049 -27.2018
   -27.1649 -27.1619 -26.5672 -26.5658 -26.5548 -26.5536 -26.5274 -26.5252
    -2.9690  -2.5432  -1.9036  -1.8781  -1.7509  -1.7158  -1.7082  -1.6756
    -1.5213  -1.3695  -1.1805  -1.1229  -1.0863  -1.0282  -0.9976  -0.8322
    -0.7421  -0.7297  -0.7198  -0.5757  -0.5502  -0.4831  -0.4626  -0.4607
    -0.3765  -0.3463  -0.2391  -0.1862  -0.1667  -0.1045   0.0290   0.1131
     0.4948   0.6681   0.7662   1.1873   1.6715   1.8145   1.9294   2.0454
     2.7198   2.7425   2.7564   2.8549   2.9792   3.0681   3.0922   3.2545
     3.2990   3.3116   3.3428   3.3777   3.4254

          k = 0.0149-0.0684 0.0000 ( 33942 PWs)   bands (ev):

   -76.9296 -76.9288 -76.5169 -76.5162 -76.4500 -76.4493 -48.7060 -48.7006
   -48.6599 -48.6546 -47.9543 -47.9490 -44.8388 -44.8242 -44.8176 -44.8175
   -44.7760 -44.7731 -44.4736 -44.4714 -44.4381 -44.4317 -44.4293 -44.4238
   -44.3577 -44.3434 -44.3146 -44.3140 -44.2332 -44.2323 -27.3663 -27.3615
   -27.3115 -27.3068 -27.2814 -27.2503 -27.2276 -27.2030 -27.2018 -27.1963
   -27.1629 -27.1615 -26.5839 -26.5657 -26.5617 -26.5307 -26.5264 -26.5220
    -3.2968  -2.3036  -2.0498  -1.8949  -1.8781  -1.7981  -1.7963  -1.7709
    -1.7168  -1.3415  -1.3317  -1.1387  -1.0890  -1.0724  -0.9474  -0.8321
    -0.8150  -0.7364  -0.6523  -0.6198  -0.5933  -0.5293  -0.4588  -0.3970
    -0.3911  -0.3026  -0.2862  -0.1726  -0.0594   0.0295   0.0686   0.2204
     0.5056   0.6677   0.9895   1.0444   1.7986   1.9941   2.0604   2.2814
     2.7433   2.8172   2.8592   2.9130   3.0686   3.0941   3.1364   3.1517
     3.2798   3.3813   3.3888   3.4806   3.5241

          k = 0.0149-0.0526 0.0000 ( 34001 PWs)   bands (ev):

   -76.9299 -76.9284 -76.5173 -76.5158 -76.4504 -76.4490 -48.7083 -48.6977
   -48.6623 -48.6515 -47.9568 -47.9457 -44.8453 -44.8182 -44.8179 -44.8173
   -44.7771 -44.7732 -44.4746 -44.4713 -44.4445 -44.4327 -44.4293 -44.4178
   -44.3642 -44.3373 -44.3148 -44.3137 -44.2336 -44.2319 -27.3689 -27.3588
   -27.3140 -27.3074 -27.3032 -27.2754 -27.2048 -27.1995 -27.1981 -27.1695
   -27.1630 -27.1576 -26.6097 -26.5664 -26.5580 -26.5337 -26.5192 -26.4983
    -3.5946  -2.2552  -2.1671  -2.0373  -1.9828  -1.9070  -1.9054  -1.9013
    -1.8614  -1.5884  -1.3699  -1.2541  -1.1000  -1.0988  -0.9449  -0.8555
    -0.8376  -0.7394  -0.7183  -0.6459  -0.6218  -0.5276  -0.4506  -0.3726
    -0.3139  -0.2641  -0.2325  -0.0708   0.0743   0.2763   0.3036   0.3709
     0.5394   0.6797   0.9391   1.3258   1.9144   2.1050   2.3471   2.6191
     2.7633   2.7894   2.9211   2.9754   3.0565   3.1348   3.1971   3.2214
     3.2294   3.4196   3.5331   3.5498   3.6222

          k = 0.0149-0.0368 0.0000 ( 34010 PWs)   bands (ev):

   -76.9302 -76.9281 -76.5176 -76.5155 -76.4507 -76.4487 -48.7103 -48.6951
   -48.6643 -48.6489 -47.9588 -47.9427 -44.8509 -44.8181 -44.8171 -44.8131
   -44.7780 -44.7735 -44.4754 -44.4713 -44.4501 -44.4335 -44.4293 -44.4127
   -44.3698 -44.3322 -44.3150 -44.3135 -44.2339 -44.2315 -27.3711 -27.3564
   -27.3281 -27.3161 -27.3016 -27.2968 -27.2046 -27.1946 -27.1768 -27.1640
   -27.1539 -27.1452 -26.6320 -26.5670 -26.5543 -26.5363 -26.5169 -26.4738
    -3.8337  -2.4586  -2.1914  -2.1317  -2.0842  -2.0538  -2.0096  -1.9901
    -1.9143  -1.7894  -1.4399  -1.4257  -1.1153  -1.0628  -0.9727  -0.9258
    -0.8708  -0.7760  -0.7553  -0.7025  -0.6471  -0.5648  -0.5116  -0.2780
    -0.2284  -0.1879  -0.0307   0.0730   0.1405   0.3340   0.5770   0.6316
     0.7450   0.8039   0.8789   1.5738   2.1822   2.2036   2.5710   2.6139
     2.8525   2.9327   2.9433   2.9854   3.0091   3.1731   3.2327   3.2762
     3.2995   3.3997   3.6132   3.6400   3.6929

          k = 0.0149-0.0210 0.0000 ( 34051 PWs)   bands (ev):

   -76.9305 -76.9279 -76.5178 -76.5153 -76.4509 -76.4484 -48.7119 -48.6931
   -48.6658 -48.6469 -47.9604 -47.9405 -44.8552 -44.8183 -44.8170 -44.8092
   -44.7786 -44.7738 -44.4759 -44.4713 -44.4543 -44.4341 -44.4294 -44.4087
   -44.3741 -44.3282 -44.3151 -44.3134 -44.2342 -44.2313 -27.3728 -27.3545
   -27.3446 -27.3177 -27.3133 -27.2999 -27.2051 -27.1918 -27.1644 -27.1587
   -27.1510 -27.1269 -26.6492 -26.5676 -26.5514 -26.5381 -26.5152 -26.4548
    -3.9960  -2.6095  -2.3101  -2.1740  -2.1590  -2.1572  -2.0478  -2.0416
    -1.9510  -1.9265  -1.5467  -1.5161  -1.1156  -1.0778  -1.0256  -0.9935
    -0.8185  -0.8010  -0.7804  -0.7573  -0.6674  -0.6227  -0.4879  -0.1943
    -0.1601  -0.1487  -0.0307   0.2269   0.3456   0.3649   0.5936   0.8484
     0.8484   0.9735   1.2493   1.8003   2.2714   2.3866   2.5245   2.5863
     2.8998   2.9563   2.9734   3.0255   3.0457   3.1137   3.1181   3.3124
     3.3948   3.5251   3.5952   3.7290   3.7425

          k = 0.0297-0.0105 0.0000 ( 34009 PWs)   bands (ev):

   -76.9305 -76.9279 -76.5178 -76.5153 -76.4509 -76.4484 -48.7120 -48.6932
   -48.6660 -48.6470 -47.9607 -47.9406 -44.8549 -44.8184 -44.8169 -44.8092
   -44.7781 -44.7737 -44.4756 -44.4713 -44.4541 -44.4337 -44.4294 -44.4087
   -44.3738 -44.3282 -44.3151 -44.3134 -44.2342 -44.2313 -27.3729 -27.3545
   -27.3452 -27.3179 -27.3140 -27.2998 -27.2061 -27.1920 -27.1657 -27.1588
   -27.1514 -27.1271 -26.6498 -26.5686 -26.5519 -26.5377 -26.5155 -26.4549
    -3.9367  -2.5618  -2.2720  -2.1686  -2.1343  -2.1273  -2.0170  -2.0139
    -1.9220  -1.9099  -1.5192  -1.5005  -1.1930  -1.0082  -0.9946  -0.9619
    -0.8045  -0.7990  -0.7922  -0.7453  -0.6805  -0.5564  -0.4489  -0.2090
    -0.1624  -0.1467  -0.0235   0.2283   0.3388   0.3870   0.5320   0.8077
     0.8828   0.9543   1.2261   1.7571   2.2956   2.3534   2.4565   2.4640
     2.7944   2.8215   2.8969   2.9369   2.9434   3.1199   3.1782   3.3155
     3.3195   3.4258   3.5664   3.6129   3.8055

          k = 0.0297 0.0052 0.0000 ( 34010 PWs)   bands (ev):

   -76.9306 -76.9278 -76.5180 -76.5151 -76.4511 -76.4483 -48.7133 -48.6921
   -48.6673 -48.6459 -47.9622 -47.9393 -44.8572 -44.8185 -44.8167 -44.8067
   -44.7777 -44.7738 -44.4754 -44.4712 -44.4564 -44.4335 -44.4293 -44.4063
   -44.3762 -44.3257 -44.3152 -44.3133 -44.2343 -44.2311 -27.3742 -27.3564
   -27.3532 -27.3252 -27.3192 -27.2987 -27.2080 -27.1907 -27.1678 -27.1503
   -27.1477 -27.1159 -26.6614 -26.5704 -26.5509 -26.5384 -26.5148 -26.4434
    -3.9510  -2.5835  -2.2981  -2.1577  -2.1456  -2.1336  -2.0168  -2.0066
    -1.9674  -1.9006  -1.5550  -1.5090  -1.2525  -1.0589  -0.9211  -0.9187
    -0.8278  -0.8245  -0.7581  -0.7428  -0.6752  -0.5378  -0.3776  -0.1736
    -0.1195  -0.0921  -0.0278   0.2209   0.4071   0.4608   0.6011   0.8514
     0.8865   1.1776   1.6273   1.9961   2.0818   2.3025   2.3628   2.4402
     2.4524   2.7196   2.7960   2.8599   2.8677   3.0214   3.0827   3.2155
     3.3620   3.3749   3.5194   3.6456   3.7489

          k = 0.0297 0.0210 0.0000 ( 33941 PWs)   bands (ev):

   -76.9306 -76.9277 -76.5180 -76.5151 -76.4511 -76.4482 -48.7140 -48.6919
   -48.6680 -48.6456 -47.9631 -47.9391 -44.8577 -44.8186 -44.8166 -44.8059
   -44.7769 -44.7737 -44.4749 -44.4711 -44.4570 -44.4330 -44.4292 -44.4054
   -44.3767 -44.3248 -44.3152 -44.3133 -44.2343 -44.2311 -27.3749 -27.3609
   -27.3527 -27.3299 -27.3198 -27.2982 -27.2101 -27.1907 -27.1701 -27.1506
   -27.1442 -27.1123 -26.6662 -26.5723 -26.5513 -26.5382 -26.5148 -26.4397
    -3.8766  -2.5263  -2.2662  -2.1162  -2.1078  -2.0813  -2.0107  -1.9649
    -1.9577  -1.8514  -1.5318  -1.4735  -1.2844  -1.0767  -0.8560  -0.8550
    -0.8411  -0.8214  -0.7576  -0.7151  -0.6312  -0.5089  -0.3049  -0.1661
    -0.0933  -0.0629  -0.0445   0.1978   0.3743   0.4562   0.7060   0.8126
     0.9064   1.2455   1.7831   2.0164   2.0626   2.0891   2.1500   2.3292
     2.3311   2.5797   2.6203   2.7350   2.7865   2.8970   3.0375   3.1976
     3.2420   3.3407   3.4626   3.6382   3.7064

          k = 0.0297 0.0368 0.0000 ( 33961 PWs)   bands (ev):

   -76.9306 -76.9278 -76.5180 -76.5151 -76.4511 -76.4483 -48.7140 -48.6925
   -48.6680 -48.6463 -47.9633 -47.9398 -44.8563 -44.8186 -44.8165 -44.8067
   -44.7759 -44.7736 -44.4742 -44.4710 -44.4557 -44.4322 -44.4291 -44.4063
   -44.3754 -44.3257 -44.3152 -44.3134 -44.2343 -44.2311 -27.3748 -27.3585
   -27.3531 -27.3275 -27.3196 -27.2985 -27.2120 -27.1919 -27.1722 -27.1520
   -27.1483 -27.1165 -26.6636 -26.5739 -26.5528 -26.5372 -26.5156 -26.4441
    -3.7183  -2.4028  -2.1784  -2.0707  -2.0355  -2.0212  -1.9489  -1.9024
    -1.8733  -1.7839  -1.4517  -1.4182  -1.2842  -1.0681  -0.8786  -0.8033
    -0.7806  -0.7637  -0.7358  -0.7139  -0.5869  -0.4494  -0.2448  -0.1686
    -0.1372  -0.1022  -0.0096   0.1697   0.3167   0.4336   0.6681   0.7186
     0.9785   0.9985   1.4976   1.8038   1.8652   2.0104   2.1435   2.1917
     2.2157   2.5319   2.5459   2.7134   2.7548   2.8868   2.9681   3.1257
     3.1473   3.2720   3.3783   3.5904   3.6786

          k = 0.0297 0.0525 0.0000 ( 33972 PWs)   bands (ev):

   -76.9305 -76.9279 -76.5178 -76.5153 -76.4509 -76.4484 -48.7132 -48.6938
   -48.6673 -48.6476 -47.9627 -47.9412 -44.8533 -44.8186 -44.8165 -44.8093
   -44.7748 -44.7736 -44.4733 -44.4710 -44.4527 -44.4313 -44.4291 -44.4088
   -44.3724 -44.3282 -44.3151 -44.3136 -44.2341 -44.2313 -27.3740 -27.3542
   -27.3490 -27.3188 -27.3180 -27.2995 -27.2134 -27.1937 -27.1736 -27.1597
   -27.1540 -27.1280 -26.6538 -26.5749 -26.5550 -26.5355 -26.5171 -26.4562
    -3.4859  -2.2377  -2.1221  -2.0385  -1.9493  -1.9063  -1.8365  -1.7795
    -1.7589  -1.7151  -1.3677  -1.3224  -1.2582  -1.0508  -0.9066  -0.7650
    -0.7600  -0.7289  -0.7000  -0.6676  -0.5601  -0.3548  -0.2517  -0.1971
    -0.1587  -0.1468   0.0183   0.0782   0.3292   0.3443   0.3565   0.5830
     0.7637   1.1160   1.1914   1.3325   1.4605   1.9981   2.0440   2.0556
     2.2369   2.5172   2.5766   2.7001   2.7884   2.8791   3.0094   3.0982
     3.1173   3.1845   3.2510   3.5416   3.6036

          k = 0.0297 0.0683 0.0000 ( 33922 PWs)   bands (ev):

   -76.9302 -76.9281 -76.5176 -76.5155 -76.4507 -76.4486 -48.7118 -48.6957
   -48.6658 -48.6496 -47.9613 -47.9433 -44.8488 -44.8184 -44.8166 -44.8134
   -44.7737 -44.7737 -44.4725 -44.4712 -44.4483 -44.4304 -44.4293 -44.4129
   -44.3680 -44.3324 -44.3149 -44.3138 -44.2339 -44.2316 -27.3725 -27.3559
   -27.3329 -27.3172 -27.3022 -27.3009 -27.2137 -27.1959 -27.1773 -27.1740
   -27.1561 -27.1456 -26.6370 -26.5747 -26.5574 -26.5331 -26.5193 -26.4747
    -3.1949  -2.2546  -2.0678  -1.8525  -1.8521  -1.7875  -1.7290  -1.6663
    -1.6372  -1.6050  -1.3381  -1.2281  -1.1583  -1.0495  -0.9385  -0.7773
    -0.7527  -0.7234  -0.6463  -0.6200  -0.5327  -0.3394  -0.2856  -0.2439
    -0.1839  -0.0776  -0.0507  -0.0190   0.0077   0.2426   0.3549   0.3646
     0.4407   0.8157   1.0983   1.1641   1.3172   1.7676   1.8763   1.9651
     2.4000   2.5472   2.5686   2.7105   2.8355   2.8755   3.0456   3.0984
     3.1470   3.1620   3.2032   3.4784   3.5103

          k = 0.0297-0.1052 0.0000 ( 33898 PWs)   bands (ev):

   -76.9299 -76.9284 -76.5173 -76.5158 -76.4504 -76.4489 -48.7096 -48.6981
   -48.6636 -48.6519 -47.9590 -47.9458 -44.8432 -44.8188 -44.8183 -44.8167
   -44.7741 -44.7730 -44.4719 -44.4717 -44.4429 -44.4298 -44.4298 -44.4183
   -44.3625 -44.3378 -44.3147 -44.3140 -44.2335 -44.2320 -27.3703 -27.3581
   -27.3151 -27.3114 -27.3030 -27.2802 -27.2133 -27.1993 -27.1980 -27.1744
   -27.1667 -27.1581 -26.6144 -26.5733 -26.5597 -26.5304 -26.5220 -26.4983
    -2.8694  -2.4744  -1.9318  -1.7733  -1.6985  -1.6643  -1.6528  -1.6311
    -1.5632  -1.4140  -1.3445  -1.2212  -1.0770  -0.9788  -0.9405  -0.8145
    -0.7518  -0.7005  -0.6542  -0.5864  -0.4979  -0.4238  -0.3942  -0.3428
    -0.2797  -0.1450  -0.0706  -0.0494  -0.0102   0.0103   0.1040   0.1066
     0.4116   0.5540   0.7813   1.2155   1.5780   1.6014   1.7096   1.9189
     2.5272   2.5979   2.6338   2.7425   2.8505   2.9145   3.0317   3.1626
     3.2005   3.2013   3.2851   3.4386   3.4890

          k = 0.0297-0.0894 0.0000 ( 33921 PWs)   bands (ev):

   -76.9295 -76.9288 -76.5169 -76.5162 -76.4500 -76.4493 -48.7069 -48.7006
   -48.6609 -48.6545 -47.9561 -47.9486 -44.8370 -44.8252 -44.8181 -44.8169
   -44.7748 -44.7726 -44.4723 -44.4714 -44.4367 -44.4304 -44.4293 -44.4246
   -44.3563 -44.3442 -44.3145 -44.3142 -44.2331 -44.2324 -27.3677 -27.3607
   -27.3125 -27.3060 -27.2849 -27.2541 -27.2265 -27.2096 -27.1997 -27.1950
   -27.1695 -27.1597 -26.5873 -26.5705 -26.5615 -26.5275 -26.5253 -26.5251
    -2.7648  -2.5464  -1.8534  -1.7711  -1.6890  -1.6850  -1.6652  -1.6017
    -1.4106  -1.3975  -1.2494  -1.2446  -1.1241  -0.9097  -0.8454  -0.7750
    -0.7261  -0.6938  -0.6788  -0.6224  -0.5164  -0.5057  -0.4936  -0.4050
    -0.3902  -0.3710  -0.2347  -0.2191  -0.1033  -0.0500   0.0243   0.0972
     0.5132   0.5424   0.6013   1.1355   1.5874   1.7090   1.8967   1.8968
     2.6108   2.6999   2.7445   2.8139   2.8826   2.9967   3.0112   3.2511
     3.2795   3.3550   3.3615   3.3725   3.5332

          k = 0.0297-0.0736 0.0000 ( 33948 PWs)   bands (ev):

   -76.9292 -76.9292 -76.5166 -76.5165 -76.4497 -76.4497 -48.7038 -48.7032
   -48.6578 -48.6572 -47.9527 -47.9513 -44.8322 -44.8304 -44.8178 -44.8172
   -44.7757 -44.7726 -44.4732 -44.4712 -44.4315 -44.4313 -44.4301 -44.4291
   -44.3511 -44.3497 -44.3144 -44.3142 -44.2328 -44.2327 -27.3648 -27.3634
   -27.3097 -27.3085 -27.2565 -27.2536 -27.2254 -27.2223 -27.2065 -27.2011
   -27.1660 -27.1608 -26.5669 -26.5642 -26.5564 -26.5539 -26.5283 -26.5244
    -3.0851  -2.2777  -1.8766  -1.8357  -1.7812  -1.7788  -1.7357  -1.7091
    -1.5766  -1.2717  -1.2233  -1.1437  -1.0768  -1.0407  -0.8775  -0.7889
    -0.7199  -0.6835  -0.6721  -0.6022  -0.5992  -0.5701  -0.5191  -0.4600
    -0.4483  -0.3772  -0.3146  -0.2693  -0.1826  -0.1313   0.0524   0.1977
     0.4883   0.5372   0.8920   1.0083   1.5310   1.9037   1.9950   2.2486
     2.6555   2.8347   2.8411   2.9087   2.9637   2.9826   3.1592   3.2278
     3.2861   3.3716   3.3816   3.4497   3.5379

          k = 0.0297-0.0579 0.0000 ( 34004 PWs)   bands (ev):

   -76.9296 -76.9288 -76.5169 -76.5162 -76.4501 -76.4493 -48.7058 -48.7007
   -48.6598 -48.6546 -47.9540 -47.9491 -44.8391 -44.8240 -44.8176 -44.8175
   -44.7767 -44.7728 -44.4740 -44.4712 -44.4384 -44.4322 -44.4291 -44.4237
   -44.3580 -44.3432 -44.3146 -44.3139 -44.2332 -44.2323 -27.3662 -27.3618
   -27.3112 -27.3069 -27.2807 -27.2496 -27.2275 -27.2025 -27.2022 -27.1963
   -27.1618 -27.1617 -26.5828 -26.5647 -26.5621 -26.5314 -26.5268 -26.5215
    -3.3907  -2.1086  -2.0677  -1.9228  -1.9178  -1.8676  -1.8403  -1.8312
    -1.7653  -1.3529  -1.2710  -1.1742  -1.1361  -1.0204  -0.9777  -0.8015
    -0.7220  -0.6914  -0.6782  -0.6436  -0.6077  -0.5962  -0.5366  -0.4658
    -0.4178  -0.3833  -0.2628  -0.1772  -0.0355   0.0419   0.0538   0.2853
     0.5144   0.5720   0.9233   1.2762   1.5507   1.9568   2.3252   2.6135
     2.6653   2.8646   2.9169   2.9825   3.0408   3.0986   3.1169   3.1962
     3.3203   3.3961   3.4252   3.4761   3.6308

          k = 0.0297-0.0421 0.0000 ( 34003 PWs)   bands (ev):

   -76.9299 -76.9284 -76.5173 -76.5158 -76.4504 -76.4489 -48.7082 -48.6977
   -48.6622 -48.6515 -47.9565 -47.9457 -44.8455 -44.8181 -44.8178 -44.8174
   -44.7775 -44.7731 -44.4748 -44.4712 -44.4447 -44.4330 -44.4292 -44.4178
   -44.3644 -44.3373 -44.3148 -44.3137 -44.2336 -44.2319 -27.3688 -27.3589
   -27.3138 -27.3071 -27.3031 -27.2749 -27.2033 -27.2003 -27.1983 -27.1689
   -27.1627 -27.1575 -26.6092 -26.5657 -26.5579 -26.5341 -26.5190 -26.4984
    -3.6475  -2.2837  -2.0684  -2.0457  -2.0377  -1.9759  -1.9306  -1.9288
    -1.8837  -1.6031  -1.3452  -1.2812  -1.1220  -1.0524  -0.9523  -0.9188
    -0.8206  -0.7358  -0.7171  -0.6321  -0.6261  -0.5619  -0.5198  -0.3746
    -0.3071  -0.2829  -0.2207  -0.0728   0.0533   0.3038   0.3289   0.3950
     0.5900   0.6143   0.8855   1.4701   1.8280   2.0565   2.6358   2.6378
     2.7574   2.9604   2.9867   3.0069   3.0454   3.1120   3.1182   3.2399
     3.2438   3.4734   3.4805   3.6078   3.7536

          k = 0.0297-0.0263 0.0000 ( 34010 PWs)   bands (ev):

   -76.9302 -76.9281 -76.5176 -76.5155 -76.4507 -76.4487 -48.7103 -48.6951
   -48.6643 -48.6489 -47.9588 -47.9427 -44.8509 -44.8181 -44.8171 -44.8131
   -44.7780 -44.7735 -44.4754 -44.4713 -44.4501 -44.4335 -44.4293 -44.4127
   -44.3698 -44.3322 -44.3150 -44.3135 -44.2339 -44.2315 -27.3711 -27.3564
   -27.3281 -27.3161 -27.3016 -27.2968 -27.2046 -27.1946 -27.1768 -27.1640
   -27.1539 -27.1452 -26.6320 -26.5670 -26.5543 -26.5363 -26.5169 -26.4738
    -3.8337  -2.4586  -2.1914  -2.1317  -2.0842  -2.0538  -2.0096  -1.9901
    -1.9143  -1.7894  -1.4399  -1.4257  -1.1153  -1.0628  -0.9727  -0.9258
    -0.8708  -0.7760  -0.7553  -0.7025  -0.6471  -0.5648  -0.5116  -0.2780
    -0.2284  -0.1879  -0.0307   0.0730   0.1405   0.3340   0.5770   0.6316
     0.7450   0.8039   0.8789   1.5738   2.1822   2.2036   2.5710   2.6139
     2.8525   2.9327   2.9433   2.9854   3.0091   3.1730   3.2325   3.2762
     3.2995   3.3998   3.6132   3.6408   3.6968

          k = 0.0446-0.0158 0.0000 ( 34001 PWs)   bands (ev):

   -76.9302 -76.9281 -76.5176 -76.5155 -76.4507 -76.4487 -48.7106 -48.6952
   -48.6646 -48.6491 -47.9593 -47.9429 -44.8505 -44.8182 -44.8170 -44.8132
   -44.7771 -44.7735 -44.4748 -44.4713 -44.4497 -44.4329 -44.4293 -44.4127
   -44.3694 -44.3322 -44.3149 -44.3136 -44.2339 -44.2315 -27.3713 -27.3563
   -27.3291 -27.3164 -27.3016 -27.2979 -27.2064 -27.1948 -27.1768 -27.1663
   -27.1544 -27.1451 -26.6331 -26.5686 -26.5549 -26.5356 -26.5174 -26.4739
    -3.7209  -2.3791  -2.1840  -2.1206  -2.0455  -1.9986  -1.9317  -1.9258
    -1.8657  -1.7590  -1.4363  -1.3723  -1.1781  -1.0127  -0.9635  -0.8586
    -0.8430  -0.7883  -0.7468  -0.6864  -0.6526  -0.4532  -0.4417  -0.2801
    -0.2396  -0.1981  -0.0163   0.0762   0.1586   0.2902   0.4847   0.5654
     0.6731   0.8884   0.9636   1.4155   2.1755   2.2341   2.2375   2.5372
     2.6223   2.8025   2.8355   2.8970   2.9027   3.1646   3.2127   3.2424
     3.2981   3.3753   3.4578   3.4926   3.7721

          k = 0.0446-0.0000 0.0000 ( 33986 PWs)   bands (ev):

   -76.9305 -76.9279 -76.5178 -76.5153 -76.4509 -76.4484 -48.7125 -48.6935
   -48.6666 -48.6473 -47.9616 -47.9409 -44.8542 -44.8184 -44.8167 -44.8092
   -44.7767 -44.7737 -44.4746 -44.4712 -44.4535 -44.4327 -44.4293 -44.4088
   -44.3732 -44.3282 -44.3151 -44.3135 -44.2341 -44.2313 -27.3734 -27.3543
   -27.3468 -27.3184 -27.3157 -27.2998 -27.2091 -27.1926 -27.1691 -27.1592
   -27.1525 -27.1274 -26.6515 -26.5712 -26.5532 -26.5368 -26.5162 -26.4555
    -3.7625  -2.4277  -2.1683  -2.1492  -2.0623  -2.0385  -1.9414  -1.9224
    -1.8636  -1.8398  -1.4498  -1.4403  -1.2421  -1.0347  -0.9175  -0.8288
    -0.8216  -0.7776  -0.7642  -0.7272  -0.6353  -0.4511  -0.3455  -0.2129
    -0.1736  -0.1503  -0.0052   0.1995   0.3267   0.4066   0.4113   0.7033
     0.8865   0.9777   1.1874   1.6065   2.0490   2.2256   2.2881   2.3354
     2.4160   2.6934   2.7709   2.7817   2.8229   3.0245   3.1390   3.1697
     3.2572   3.3054   3.3925   3.5691   3.7425

          k = 0.0446 0.0157 0.0000 ( 33961 PWs)   bands (ev):

   -76.9306 -76.9278 -76.5180 -76.5151 -76.4511 -76.4483 -48.7140 -48.6925
   -48.6680 -48.6463 -47.9633 -47.9398 -44.8563 -44.8186 -44.8165 -44.8067
   -44.7759 -44.7736 -44.4742 -44.4710 -44.4557 -44.4322 -44.4291 -44.4063
   -44.3754 -44.3257 -44.3152 -44.3134 -44.2343 -44.2311 -27.3748 -27.3585
   -27.3531 -27.3275 -27.3196 -27.2985 -27.2120 -27.1919 -27.1722 -27.1520
   -27.1483 -27.1165 -26.6636 -26.5739 -26.5528 -26.5372 -26.5156 -26.4441
    -3.7183  -2.4028  -2.1784  -2.0707  -2.0355  -2.0212  -1.9489  -1.9024
    -1.8733  -1.7839  -1.4517  -1.4182  -1.2842  -1.0681  -0.8786  -0.8033
    -0.7806  -0.7637  -0.7358  -0.7139  -0.5869  -0.4494  -0.2448  -0.1686
    -0.1372  -0.1022  -0.0096   0.1697   0.3167   0.4336   0.6681   0.7186
     0.9785   0.9985   1.4976   1.8038   1.8652   2.0104   2.1435   2.1917
     2.2157   2.5319   2.5459   2.7134   2.7548   2.8867   2.9680   3.1256
     3.1474   3.2720   3.3784   3.5904   3.6787

          k = 0.0446 0.0315 0.0000 ( 33954 PWs)   bands (ev):

   -76.9306 -76.9277 -76.5180 -76.5151 -76.4511 -76.4482 -48.7147 -48.6923
   -48.6688 -48.6461 -47.9644 -47.9396 -44.8566 -44.8187 -44.8163 -44.8058
   -44.7749 -44.7735 -44.4735 -44.4708 -44.4561 -44.4314 -44.4290 -44.4054
   -44.3758 -44.3248 -44.3152 -44.3135 -44.2343 -44.2311 -27.3756 -27.3634
   -27.3526 -27.3324 -27.3202 -27.2980 -27.2148 -27.1923 -27.1750 -27.1525
   -27.1449 -27.1131 -26.6687 -26.5763 -26.5535 -26.5368 -26.5157 -26.4406
    -3.5922  -2.3158  -2.1471  -1.9872  -1.9721  -1.9643  -1.9373  -1.8674
    -1.7869  -1.7066  -1.4065  -1.3635  -1.2995  -1.0690  -0.8958  -0.7738
    -0.7520  -0.7010  -0.6956  -0.6604  -0.5254  -0.4400  -0.1653  -0.1516
    -0.1366  -0.1034   0.0040   0.1707   0.2256   0.4959   0.6635   0.8127
     0.9452   0.9948   1.5167   1.6764   1.7371   1.9428   2.0258   2.0488
     2.1032   2.1739   2.4202   2.6504   2.7488   2.7794   2.9110   2.9558
     3.0799   3.2194   3.3570   3.5596   3.6231

          k = 0.0446 0.0473 0.0000 ( 33942 PWs)   bands (ev):

   -76.9306 -76.9278 -76.5180 -76.5151 -76.4511 -76.4483 -48.7147 -48.6929
   -48.6688 -48.6467 -47.9646 -47.9402 -44.8552 -44.8187 -44.8163 -44.8067
   -44.7738 -44.7734 -44.4727 -44.4708 -44.4549 -44.4306 -44.4289 -44.4062
   -44.3745 -44.3256 -44.3152 -44.3136 -44.2343 -44.2312 -27.3756 -27.3610
   -27.3530 -27.3301 -27.3200 -27.2982 -27.2169 -27.1935 -27.1770 -27.1537
   -27.1491 -27.1173 -26.6662 -26.5780 -26.5550 -26.5358 -26.5166 -26.4450
    -3.3927  -2.1864  -2.0733  -2.0044  -1.9054  -1.8906  -1.8219  -1.7557
    -1.6690  -1.6254  -1.3190  -1.3115  -1.2826  -1.0521  -0.9191  -0.7469
    -0.7146  -0.6820  -0.6305  -0.6043  -0.5014  -0.3803  -0.2498  -0.1657
    -0.0978  -0.0898   0.0352   0.1030   0.2409   0.4738   0.5880   0.5918
     0.8573   1.0534   1.2293   1.3732   1.5709   1.7785   1.8462   1.9042
     1.9959   2.3448   2.3602   2.6133   2.7715   2.7725   2.8321   2.9233
     3.0333   3.1397   3.2630   3.5183   3.5563

          k = 0.0446 0.0630 0.0000 ( 33961 PWs)   bands (ev):

   -76.9304 -76.9279 -76.5178 -76.5153 -76.4509 -76.4484 -48.7139 -48.6942
   -48.6680 -48.6480 -47.9639 -47.9416 -44.8523 -44.8187 -44.8163 -44.8093
   -44.7735 -44.7728 -44.4720 -44.4709 -44.4520 -44.4299 -44.4290 -44.4088
   -44.3716 -44.3283 -44.3151 -44.3137 -44.2341 -44.2314 -27.3748 -27.3542
   -27.3511 -27.3204 -27.3191 -27.2992 -27.2179 -27.1951 -27.1778 -27.1603
   -27.1553 -27.1286 -26.6560 -26.5785 -26.5569 -26.5342 -26.5181 -26.4569
    -3.1328  -2.0995  -2.0413  -1.9649  -1.8156  -1.7968  -1.7054  -1.5945
    -1.5633  -1.5356  -1.3064  -1.2443  -1.1907  -1.0422  -0.9463  -0.7187
    -0.6844  -0.6611  -0.6026  -0.5808  -0.5020  -0.3404  -0.2814  -0.2567
    -0.1239  -0.0376   0.0347   0.0653   0.1796   0.2713   0.3796   0.5092
     0.6307   0.8468   1.0196   1.2227   1.2867   1.6419   1.6529   1.8230
     2.1518   2.3401   2.4950   2.6061   2.6998   2.8217   2.9404   3.0223
     3.0252   3.0612   3.1625   3.4356   3.4892

          k = 0.0446-0.1105 0.0000 ( 33912 PWs)   bands (ev):

   -76.9302 -76.9281 -76.5176 -76.5155 -76.4507 -76.4486 -48.7123 -48.6960
   -48.6664 -48.6498 -47.9622 -47.9436 -44.8480 -44.8186 -44.8164 -44.8135
   -44.7738 -44.7722 -44.4715 -44.4712 -44.4477 -44.4293 -44.4293 -44.4130
   -44.3674 -44.3324 -44.3149 -44.3139 -44.2338 -44.2317 -27.3731 -27.3558
   -27.3346 -27.3174 -27.3039 -27.3006 -27.2173 -27.1968 -27.1777 -27.1771
   -27.1568 -27.1460 -26.6387 -26.5774 -26.5587 -26.5320 -26.5202 -26.4751
    -2.8315  -2.2731  -1.9106  -1.8555  -1.7280  -1.6754  -1.6174  -1.5444
    -1.4355  -1.4090  -1.3241  -1.2201  -1.0726  -1.0558  -0.9666  -0.7039
    -0.6799  -0.6521  -0.6235  -0.5604  -0.4900  -0.3939  -0.3669  -0.2310
    -0.1808  -0.1723  -0.0283   0.0265   0.0426   0.2374   0.2381   0.2963
     0.3780   0.5783   0.5821   1.1983   1.4705   1.5207   1.5590   1.7644
     2.3302   2.4113   2.5520   2.6232   2.7425   2.8784   3.0084   3.0766
     3.0809   3.1596   3.1790   3.3662   3.4808

          k = 0.0446-0.0947 0.0000 ( 33916 PWs)   bands (ev):

   -76.9299 -76.9284 -76.5173 -76.5158 -76.4504 -76.4489 -48.7099 -48.6981
   -48.6640 -48.6520 -47.9596 -47.9459 -44.8426 -44.8190 -44.8184 -44.8166
   -44.7744 -44.7719 -44.4718 -44.4711 -44.4424 -44.4299 -44.4290 -44.4184
   -44.3620 -44.3379 -44.3147 -44.3141 -44.2335 -44.2320 -27.3709 -27.3580
   -27.3152 -27.3125 -27.3027 -27.2814 -27.2153 -27.1999 -27.1983 -27.1751
   -27.1681 -27.1581 -26.6154 -26.5749 -26.5604 -26.5295 -26.5228 -26.4985
    -2.5239  -2.5184  -1.8239  -1.8104  -1.6685  -1.5954  -1.5800  -1.5143
    -1.4510  -1.3427  -1.2596  -1.2218  -1.1051  -0.9795  -0.8799  -0.7294
    -0.7271  -0.6571  -0.6072  -0.5630  -0.4928  -0.4771  -0.4083  -0.3733
    -0.3428  -0.2120  -0.2045  -0.0737  -0.0411   0.0308   0.0803   0.0933
     0.3711   0.4449   0.5309   1.1038   1.3691   1.6628   1.7418   1.8057
     2.4699   2.5430   2.6197   2.6672   2.8677   2.9099   3.0065   3.1420
     3.2173   3.2997   3.3318   3.4714   3.4776

          k = 0.0446-0.0789 0.0000 ( 33893 PWs)   bands (ev):

   -76.9295 -76.9288 -76.5169 -76.5162 -76.4500 -76.4493 -48.7071 -48.7006
   -48.6611 -48.6545 -47.9564 -47.9485 -44.8366 -44.8254 -44.8181 -44.8168
   -44.7752 -44.7720 -44.4725 -44.4710 -44.4364 -44.4306 -44.4289 -44.4248
   -44.3560 -44.3443 -44.3144 -44.3142 -44.2331 -44.2324 -27.3680 -27.3606
   -27.3126 -27.3057 -27.2855 -27.2547 -27.2259 -27.2115 -27.1997 -27.1945
   -27.1708 -27.1593 -26.5876 -26.5712 -26.5618 -26.5269 -26.5256 -26.5253
    -2.8225  -2.2419  -1.8517  -1.7943  -1.7062  -1.6636  -1.6486  -1.5707
    -1.4235  -1.3332  -1.2861  -1.1706  -1.0951  -0.8618  -0.7486  -0.7382
    -0.7242  -0.6602  -0.6341  -0.6069  -0.5957  -0.5710  -0.4951  -0.4540
    -0.4210  -0.4152  -0.3535  -0.3076  -0.1750  -0.0405   0.0448   0.1363
     0.3449   0.5564   0.6926   1.0001   1.3321   1.7572   1.8928   2.1192
     2.5616   2.6794   2.7257   2.7690   2.9578   2.9663   3.0460   3.2583
     3.2958   3.3364   3.4208   3.5195   3.5208

          k = 0.0446-0.0631 0.0000 ( 33974 PWs)   bands (ev):

   -76.9292 -76.9292 -76.5166 -76.5166 -76.4497 -76.4497 -48.7039 -48.7032
   -48.6578 -48.6571 -47.9528 -47.9512 -44.8323 -44.8303 -44.8179 -44.8172
   -44.7760 -44.7723 -44.4733 -44.4710 -44.4316 -44.4314 -44.4300 -44.4289
   -44.3512 -44.3496 -44.3144 -44.3142 -44.2328 -44.2327 -27.3649 -27.3633
   -27.3097 -27.3084 -27.2567 -27.2533 -27.2256 -27.2220 -27.2072 -27.2009
   -27.1664 -27.1604 -26.5667 -26.5632 -26.5574 -26.5541 -26.5286 -26.5241
    -3.1245  -2.0829  -1.9188  -1.8563  -1.8099  -1.7888  -1.7515  -1.7196
    -1.5967  -1.2376  -1.2249  -1.1657  -1.0520  -1.0192  -0.8009  -0.7565
    -0.7169  -0.6933  -0.6606  -0.6414  -0.6100  -0.6002  -0.5509  -0.5377
    -0.4380  -0.4136  -0.2979  -0.2810  -0.2249  -0.1262   0.0380   0.2259
     0.3947   0.5773   0.9387   1.0556   1.3450   1.8325   2.1406   2.4253
     2.6147   2.7677   2.8551   2.9144   2.9460   3.0324   3.1991   3.2439
     3.2877   3.3946   3.3984   3.3996   3.5765

          k = 0.0446-0.0474 0.0000 ( 34004 PWs)   bands (ev):

   -76.9296 -76.9288 -76.5169 -76.5162 -76.4501 -76.4493 -48.7058 -48.7007
   -48.6598 -48.6546 -47.9540 -47.9491 -44.8391 -44.8240 -44.8176 -44.8175
   -44.7767 -44.7728 -44.4740 -44.4712 -44.4384 -44.4322 -44.4291 -44.4237
   -44.3580 -44.3432 -44.3146 -44.3139 -44.2332 -44.2323 -27.3662 -27.3618
   -27.3112 -27.3069 -27.2807 -27.2496 -27.2275 -27.2025 -27.2022 -27.1963
   -27.1618 -27.1617 -26.5828 -26.5647 -26.5621 -26.5314 -26.5268 -26.5215
    -3.3907  -2.1086  -2.0677  -1.9228  -1.9178  -1.8676  -1.8403  -1.8312
    -1.7653  -1.3529  -1.2710  -1.1742  -1.1361  -1.0204  -0.9777  -0.8015
    -0.7220  -0.6914  -0.6782  -0.6436  -0.6077  -0.5962  -0.5366  -0.4658
    -0.4178  -0.3833  -0.2628  -0.1772  -0.0355   0.0419   0.0538   0.2853
     0.5144   0.5720   0.9233   1.2762   1.5507   1.9568   2.3252   2.6135
     2.6652   2.8645   2.9170   2.9824   3.0408   3.0982   3.1168   3.1962
     3.3201   3.3950   3.4250   3.4755   3.6367

          k = 0.0446-0.0316 0.0000 ( 34001 PWs)   bands (ev):

   -76.9299 -76.9284 -76.5173 -76.5158 -76.4504 -76.4490 -48.7083 -48.6977
   -48.6623 -48.6515 -47.9568 -47.9457 -44.8453 -44.8182 -44.8179 -44.8173
   -44.7771 -44.7732 -44.4746 -44.4713 -44.4445 -44.4327 -44.4293 -44.4178
   -44.3642 -44.3373 -44.3148 -44.3137 -44.2336 -44.2319 -27.3689 -27.3588
   -27.3140 -27.3074 -27.3032 -27.2754 -27.2048 -27.1995 -27.1981 -27.1695
   -27.1630 -27.1576 -26.6097 -26.5664 -26.5580 -26.5337 -26.5192 -26.4983
    -3.5946  -2.2552  -2.1671  -2.0373  -1.9828  -1.9070  -1.9054  -1.9013
    -1.8614  -1.5884  -1.3699  -1.2541  -1.1000  -1.0988  -0.9449  -0.8555
    -0.8376  -0.7394  -0.7183  -0.6459  -0.6218  -0.5276  -0.4506  -0.3726
    -0.3139  -0.2641  -0.2325  -0.0708   0.0743   0.2763   0.3036   0.3709
     0.5394   0.6797   0.9391   1.3258   1.9144   2.1050   2.3471   2.6191
     2.7633   2.7894   2.9211   2.9754   3.0565   3.1347   3.1971   3.2216
     3.2294   3.4207   3.5328   3.5546   3.6679

          k = 0.0595-0.0211 0.0000 ( 33968 PWs)   bands (ev):

   -76.9299 -76.9284 -76.5173 -76.5158 -76.4504 -76.4489 -48.7087 -48.6978
   -48.6626 -48.6517 -47.9574 -47.9457 -44.8448 -44.8184 -44.8180 -44.8171
   -44.7760 -44.7735 -44.4738 -44.4714 -44.4441 -44.4319 -44.4294 -44.4179
   -44.3638 -44.3374 -44.3148 -44.3138 -44.2336 -44.2319 -27.3692 -27.3585
   -27.3144 -27.3084 -27.3034 -27.2767 -27.2075 -27.1988 -27.1979 -27.1711
   -27.1638 -27.1578 -26.6111 -26.5683 -26.5583 -26.5328 -26.5200 -26.4982
    -3.4389  -2.2888  -2.1752  -1.9482  -1.9461  -1.8315  -1.8223  -1.8108
    -1.8015  -1.5512  -1.3926  -1.1771  -1.1479  -1.0448  -0.9335  -0.9178
    -0.7941  -0.7679  -0.6795  -0.6272  -0.5992  -0.4372  -0.3582  -0.3265
    -0.2708  -0.2584  -0.2535  -0.0666   0.0994   0.2033   0.2040   0.3069
     0.4659   0.8519   1.0434   1.0877   1.8879   2.0208   2.1781   2.2521
     2.6978   2.7428   2.7970   2.8787   2.9089   3.1352   3.1681   3.1949
     3.2540   3.3812   3.3988   3.4036   3.5616

          k = 0.0595-0.0053 0.0000 ( 33972 PWs)   bands (ev):

   -76.9302 -76.9281 -76.5176 -76.5155 -76.4507 -76.4486 -48.7111 -48.6955
   -48.6652 -48.6493 -47.9602 -47.9431 -44.8497 -44.8183 -44.8168 -44.8133
   -44.7755 -44.7736 -44.4737 -44.4713 -44.4491 -44.4317 -44.4294 -44.4128
   -44.3688 -44.3323 -44.3149 -44.3137 -44.2339 -44.2316 -27.3718 -27.3561
   -27.3309 -27.3169 -27.3016 -27.2997 -27.2098 -27.1952 -27.1769 -27.1701
   -27.1553 -27.1452 -26.6349 -26.5715 -26.5561 -26.5344 -26.5183 -26.4742
    -3.5025  -2.2376  -2.2256  -1.9924  -1.9666  -1.8960  -1.8302  -1.8127
    -1.7789  -1.7055  -1.3989  -1.2750  -1.2125  -1.0118  -0.9427  -0.8266
    -0.8213  -0.7635  -0.6890  -0.6635  -0.5960  -0.3442  -0.3386  -0.2496
    -0.2199  -0.2056  -0.0038   0.0378   0.1120   0.2293   0.4115   0.4645
     0.5587   1.0222   1.1172   1.1358   1.7003   2.0895   2.1732   2.1866
     2.4934   2.6693   2.7031   2.7813   2.8251   3.0583   3.1134   3.1740
     3.2101   3.2605   3.2989   3.5066   3.6706

          k = 0.0595 0.0104 0.0000 ( 33972 PWs)   bands (ev):

   -76.9305 -76.9279 -76.5178 -76.5153 -76.4509 -76.4484 -48.7132 -48.6938
   -48.6673 -48.6476 -47.9627 -47.9412 -44.8533 -44.8186 -44.8165 -44.8093
   -44.7748 -44.7736 -44.4733 -44.4710 -44.4527 -44.4313 -44.4291 -44.4088
   -44.3724 -44.3282 -44.3151 -44.3136 -44.2341 -44.2313 -27.3740 -27.3542
   -27.3490 -27.3188 -27.3180 -27.2995 -27.2134 -27.1937 -27.1736 -27.1597
   -27.1540 -27.1280 -26.6538 -26.5749 -26.5550 -26.5355 -26.5171 -26.4562
    -3.4859  -2.2377  -2.1221  -2.0385  -1.9493  -1.9063  -1.8365  -1.7795
    -1.7589  -1.7151  -1.3677  -1.3224  -1.2582  -1.0508  -0.9066  -0.7650
    -0.7600  -0.7289  -0.7000  -0.6676  -0.5601  -0.3548  -0.2517  -0.1971
    -0.1587  -0.1468   0.0183   0.0782   0.3292   0.3443   0.3565   0.5830
     0.7637   1.1160   1.1914   1.3326   1.4605   1.9981   2.0440   2.0556
     2.2369   2.5171   2.5766   2.7001   2.7884   2.8791   3.0094   3.0983
     3.1172   3.1845   3.2509   3.5416   3.6036

          k = 0.0595 0.0262 0.0000 ( 33942 PWs)   bands (ev):

   -76.9306 -76.9278 -76.5180 -76.5151 -76.4511 -76.4483 -48.7147 -48.6929
   -48.6688 -48.6467 -47.9646 -47.9402 -44.8552 -44.8187 -44.8163 -44.8067
   -44.7738 -44.7734 -44.4727 -44.4708 -44.4549 -44.4306 -44.4289 -44.4062
   -44.3745 -44.3256 -44.3152 -44.3136 -44.2343 -44.2312 -27.3756 -27.3610
   -27.3530 -27.3301 -27.3200 -27.2982 -27.2169 -27.1935 -27.1770 -27.1537
   -27.1491 -27.1173 -26.6662 -26.5780 -26.5550 -26.5358 -26.5166 -26.4450
    -3.3927  -2.1864  -2.0733  -2.0044  -1.9054  -1.8906  -1.8219  -1.7557
    -1.6690  -1.6254  -1.3190  -1.3115  -1.2826  -1.0521  -0.9191  -0.7469
    -0.7146  -0.6820  -0.6305  -0.6043  -0.5014  -0.3803  -0.2498  -0.1657
    -0.0978  -0.0898   0.0352   0.1030   0.2409   0.4738   0.5880   0.5918
     0.8573   1.0534   1.2293   1.3732   1.5709   1.7785   1.8462   1.9042
     1.9959   2.3448   2.3602   2.6133   2.7715   2.7725   2.8321   2.9233
     3.0333   3.1396   3.2631   3.5183   3.5564

          k = 0.0595 0.0420 0.0000 ( 33978 PWs)   bands (ev):

   -76.9306 -76.9277 -76.5180 -76.5151 -76.4511 -76.4482 -48.7155 -48.6927
   -48.6696 -48.6466 -47.9657 -47.9401 -44.8556 -44.8188 -44.8161 -44.8058
   -44.7732 -44.7728 -44.4721 -44.4706 -44.4553 -44.4299 -44.4287 -44.4053
   -44.3750 -44.3247 -44.3152 -44.3136 -44.2343 -44.2312 -27.3764 -27.3658
   -27.3526 -27.3350 -27.3205 -27.2977 -27.2197 -27.1941 -27.1797 -27.1543
   -27.1457 -27.1140 -26.6712 -26.5804 -26.5559 -26.5356 -26.5167 -26.4416
    -3.2311  -2.1032  -2.0777  -1.9389  -1.8540  -1.8440  -1.7620  -1.6612
    -1.5524  -1.5285  -1.2909  -1.2739  -1.2445  -1.0283  -0.9370  -0.7256
    -0.6892  -0.6425  -0.5825  -0.4879  -0.4358  -0.4084  -0.3236  -0.1831
    -0.0514  -0.0264   0.0685   0.1374   0.1754   0.5429   0.5583   0.6065
     0.8337   0.8807   1.1694   1.4772   1.5251   1.6177   1.6885   1.7116
     1.8460   2.2191   2.2222   2.5510   2.6994   2.7294   2.7610   2.7721
     2.9749   3.0998   3.2191   3.4820   3.5149

          k = 0.0595 0.0578 0.0000 ( 33970 PWs)   bands (ev):

   -76.9306 -76.9278 -76.5180 -76.5151 -76.4511 -76.4483 -48.7154 -48.6933
   -48.6695 -48.6471 -47.9657 -47.9407 -44.8543 -44.8188 -44.8160 -44.8066
   -44.7732 -44.7720 -44.4715 -44.4706 -44.4541 -44.4293 -44.4287 -44.4062
   -44.3738 -44.3256 -44.3152 -44.3137 -44.2342 -44.2312 -27.3763 -27.3631
   -27.3530 -27.3323 -27.3202 -27.2979 -27.2214 -27.1951 -27.1811 -27.1552
   -27.1497 -27.1180 -26.6684 -26.5815 -26.5570 -26.5347 -26.5174 -26.4458
    -3.0134  -2.0671  -1.9889  -1.9712  -1.7872  -1.7752  -1.6557  -1.5311
    -1.4501  -1.4251  -1.2911  -1.2482  -1.1504  -1.0027  -0.9596  -0.7201
    -0.6278  -0.6243  -0.5406  -0.4571  -0.4412  -0.3937  -0.3398  -0.2398
    -0.0557   0.0009   0.0797   0.1306   0.1969   0.3262   0.4899   0.5268
     0.5985   0.8192   1.2506   1.2707   1.2813   1.4089   1.5128   1.6654
     1.9063   2.1689   2.3636   2.5217   2.5850   2.7388   2.7744   2.8371
     2.9563   3.0509   3.1401   3.4324   3.5157

          k = 0.0595-0.1157 0.0000 ( 33930 PWs)   bands (ev):

   -76.9304 -76.9279 -76.5178 -76.5153 -76.4509 -76.4484 -48.7144 -48.6944
   -48.6685 -48.6483 -47.9647 -47.9419 -44.8515 -44.8188 -44.8161 -44.8093
   -44.7734 -44.7714 -44.4711 -44.4708 -44.4514 -44.4289 -44.4288 -44.4088
   -44.3711 -44.3283 -44.3151 -44.3138 -44.2341 -44.2314 -27.3754 -27.3543
   -27.3525 -27.3220 -27.3192 -27.2988 -27.2213 -27.1963 -27.1808 -27.1607
   -27.1561 -27.1291 -26.6576 -26.5810 -26.5583 -26.5333 -26.5188 -26.4574
    -2.7570  -2.0862  -2.0339  -1.8843  -1.7056  -1.6953  -1.5574  -1.4219
    -1.3830  -1.3213  -1.3043  -1.2222  -1.1001  -0.9875  -0.9848  -0.7423
    -0.6305  -0.5705  -0.5116  -0.4919  -0.4719  -0.3778  -0.3091  -0.2463
    -0.1557  -0.0368   0.0105   0.0564   0.1400   0.1704   0.3235   0.4566
     0.5086   0.5358   0.7850   1.1897   1.2594   1.4273   1.4813   1.6192
     2.0962   2.2092   2.4914   2.5230   2.5898   2.8246   2.8477   2.9935
     3.0206   3.0216   3.1300   3.3445   3.4589

          k = 0.0595-0.1000 0.0000 ( 33907 PWs)   bands (ev):

   -76.9302 -76.9281 -76.5176 -76.5155 -76.4507 -76.4486 -48.7126 -48.6961
   -48.6667 -48.6500 -47.9627 -47.9437 -44.8475 -44.8186 -44.8162 -44.8135
   -44.7738 -44.7713 -44.4712 -44.4709 -44.4474 -44.4293 -44.4286 -44.4130
   -44.3670 -44.3325 -44.3149 -44.3139 -44.2338 -44.2317 -27.3735 -27.3558
[...]
    -3.1328  -2.0995  -2.0412  -1.9649  -1.8156  -1.7968  -1.7054  -1.5945
    -1.5633  -1.5356  -1.3064  -1.2443  -1.1907  -1.0422  -0.9463  -0.7187
    -0.6844  -0.6611  -0.6026  -0.5808  -0.5020  -0.3404  -0.2814  -0.2567
    -0.1239  -0.0376   0.0347   0.0653   0.1796   0.2713   0.3796   0.5092
     0.6307   0.8468   1.0196   1.2227   1.2867   1.6419   1.6529   1.8230
     2.1518   2.3401   2.4950   2.6061   2.6998   2.8217   2.9404   3.0223
     3.0252   3.0612   3.1625   3.4359   3.4891

          k = 0.0743 0.0367 0.0000 ( 33970 PWs)   bands (ev):

   -76.9306 -76.9278 -76.5180 -76.5151 -76.4511 -76.4483 -48.7154 -48.6933
   -48.6695 -48.6471 -47.9657 -47.9407 -44.8543 -44.8188 -44.8160 -44.8066
   -44.7732 -44.7720 -44.4715 -44.4706 -44.4541 -44.4293 -44.4287 -44.4062
   -44.3738 -44.3256 -44.3152 -44.3137 -44.2342 -44.2312 -27.3763 -27.3631
   -27.3530 -27.3323 -27.3202 -27.2979 -27.2214 -27.1951 -27.1811 -27.1552
   -27.1497 -27.1180 -26.6684 -26.5815 -26.5570 -26.5347 -26.5174 -26.4458
    -3.0134  -2.0671  -1.9889  -1.9712  -1.7872  -1.7752  -1.6557  -1.5311
    -1.4501  -1.4251  -1.2911  -1.2482  -1.1504  -1.0027  -0.9596  -0.7201
    -0.6278  -0.6243  -0.5406  -0.4571  -0.4412  -0.3937  -0.3398  -0.2398
    -0.0557   0.0009   0.0797   0.1306   0.1969   0.3262   0.4899   0.5268
     0.5986   0.8192   1.2506   1.2707   1.2813   1.4089   1.5128   1.6654
     1.9063   2.1689   2.3636   2.5218   2.5851   2.7388   2.7745   2.8371
     2.9570   3.0513   3.1409   3.4340   3.5131

          k = 0.0743 0.0525 0.0000 ( 33942 PWs)   bands (ev):

   -76.9306 -76.9277 -76.5180 -76.5151 -76.4511 -76.4482 -48.7161 -48.6931
   -48.6702 -48.6469 -47.9666 -47.9404 -44.8548 -44.8189 -44.8159 -44.8057
   -44.7730 -44.7713 -44.4711 -44.4704 -44.4547 -44.4288 -44.4285 -44.4053
   -44.3744 -44.3247 -44.3152 -44.3137 -44.2343 -44.2312 -27.3770 -27.3676
   -27.3526 -27.3369 -27.3206 -27.2973 -27.2235 -27.1956 -27.1830 -27.1554
   -27.1463 -27.1145 -26.6730 -26.5833 -26.5575 -26.5346 -26.5174 -26.4422
    -2.8514  -2.1372  -1.9292  -1.9181  -1.7558  -1.7367  -1.5751  -1.4510
    -1.3545  -1.3276  -1.2781  -1.2693  -1.0686  -0.9742  -0.9616  -0.7275
    -0.6005  -0.5478  -0.5085  -0.4374  -0.4122  -0.3932  -0.3305  -0.2475
    -0.0055   0.0343   0.0429   0.1157   0.2579   0.2933   0.3369   0.5225
     0.5741   0.8979   1.2104   1.2603   1.2942   1.3978   1.4067   1.4917
     1.7723   2.0685   2.3026   2.4728   2.5162   2.5875   2.7478   2.7708
     2.9036   3.0306   3.0930   3.3924   3.4337

          k = 0.0743-0.1210 0.0000 ( 33910 PWs)   bands (ev):

   -76.9306 -76.9278 -76.5180 -76.5151 -76.4511 -76.4483 -48.7158 -48.6935
   -48.6699 -48.6473 -47.9664 -47.9409 -44.8538 -44.8189 -44.8159 -44.8066
   -44.7731 -44.7709 -44.4708 -44.4704 -44.4537 -44.4285 -44.4285 -44.4062
   -44.3733 -44.3256 -44.3152 -44.3138 -44.2342 -44.2313 -27.3768 -27.3643
   -27.3530 -27.3336 -27.3202 -27.2976 -27.2240 -27.1961 -27.1833 -27.1559
   -27.1501 -27.1184 -26.6696 -26.5835 -26.5581 -26.5340 -26.5179 -26.4463
    -2.6712  -2.1747  -1.9566  -1.8684  -1.7068  -1.6991  -1.4893  -1.3685
    -1.3331  -1.3068  -1.2505  -1.2354  -1.0580  -0.9797  -0.9291  -0.7589
    -0.6093  -0.5002  -0.4758  -0.4451  -0.3830  -0.3559  -0.3319  -0.2390
    -0.0855   0.0171   0.0542   0.0590   0.1088   0.2062   0.2683   0.5201
     0.5383   0.7868   1.0959   1.1066   1.2066   1.3386   1.4077   1.4937
     1.8638   2.0651   2.4397   2.4612   2.4770   2.5859   2.7655   2.8625
     2.9067   3.0345   3.0619   3.3355   3.3827

          k = 0.0743-0.1052 0.0000 ( 33938 PWs)   bands (ev):

   -76.9304 -76.9279 -76.5178 -76.5153 -76.4509 -76.4484 -48.7146 -48.6945
   -48.6687 -48.6484 -47.9650 -47.9420 -44.8513 -44.8188 -44.8160 -44.8093
   -44.7734 -44.7709 -44.4708 -44.4707 -44.4512 -44.4288 -44.4285 -44.4088
   -44.3708 -44.3283 -44.3151 -44.3138 -44.2341 -44.2314 -27.3756 -27.3545
   -27.3530 -27.3227 -27.3192 -27.2986 -27.2226 -27.1968 -27.1818 -27.1609
   -27.1564 -27.1292 -26.6582 -26.5820 -26.5588 -26.5329 -26.5191 -26.4576
    -2.5275  -2.1478  -2.0820  -1.8224  -1.6643  -1.6485  -1.4337  -1.4050
    -1.3452  -1.2885  -1.2245  -1.1397  -1.1367  -1.0045  -0.8773  -0.8550
    -0.6427  -0.4992  -0.4965  -0.4717  -0.4171  -0.2488  -0.2398  -0.2342
    -0.1851  -0.1653  -0.1331  -0.0115   0.0891   0.2020   0.2386   0.4279
     0.4996   0.5288   0.6969   1.1066   1.1401   1.4702   1.4866   1.5235
     2.0762   2.1610   2.4668   2.4874   2.6079   2.7776   2.8200   2.9843
     3.0256   3.0539   3.1397   3.3398   3.3696

          k = 0.0743-0.0895 0.0000 ( 33907 PWs)   bands (ev):

   -76.9302 -76.9281 -76.5176 -76.5155 -76.4507 -76.4486 -48.7126 -48.6961
   -48.6667 -48.6500 -47.9627 -47.9437 -44.8475 -44.8186 -44.8162 -44.8135
   -44.7738 -44.7713 -44.4712 -44.4709 -44.4474 -44.4293 -44.4286 -44.4130
   -44.3670 -44.3325 -44.3149 -44.3139 -44.2338 -44.2317 -27.3735 -27.3558
   -27.3356 -27.3174 -27.3049 -27.3004 -27.2195 -27.1974 -27.1788 -27.1779
   -27.1571 -27.1463 -26.6397 -26.5790 -26.5595 -26.5314 -26.5208 -26.4753
    -2.4910  -2.2820  -2.0053  -1.8072  -1.6441  -1.5857  -1.5061  -1.4630
    -1.3601  -1.2840  -1.2232  -1.2226  -1.0464  -1.0021  -0.9985  -0.7995
    -0.6531  -0.5887  -0.5450  -0.5136  -0.4382  -0.3824  -0.3176  -0.2988
    -0.2393  -0.1920  -0.1534   0.0086   0.0712   0.1611   0.2038   0.2645
     0.3133   0.3186   0.5383   1.1044   1.2018   1.5664   1.6116   1.6575
     2.2916   2.3320   2.5303   2.5549   2.7262   2.8886   3.0222   3.0377
     3.0573   3.2221   3.2304   3.4021   3.4411

          k = 0.0743-0.0737 0.0000 ( 33916 PWs)   bands (ev):

   -76.9299 -76.9284 -76.5173 -76.5158 -76.4504 -76.4489 -48.7099 -48.6981
   -48.6640 -48.6520 -47.9596 -47.9459 -44.8426 -44.8190 -44.8184 -44.8166
   -44.7744 -44.7719 -44.4718 -44.4711 -44.4424 -44.4299 -44.4290 -44.4184
   -44.3620 -44.3379 -44.3147 -44.3141 -44.2335 -44.2320 -27.3709 -27.3580
   -27.3152 -27.3125 -27.3027 -27.2814 -27.2153 -27.1999 -27.1983 -27.1751
   -27.1681 -27.1581 -26.6154 -26.5749 -26.5604 -26.5295 -26.5228 -26.4985
    -2.5239  -2.5184  -1.8239  -1.8104  -1.6685  -1.5955  -1.5800  -1.5143
    -1.4510  -1.3427  -1.2596  -1.2218  -1.1051  -0.9795  -0.8799  -0.7294
    -0.7271  -0.6571  -0.6072  -0.5630  -0.4928  -0.4771  -0.4083  -0.3733
    -0.3428  -0.2120  -0.2045  -0.0737  -0.0411   0.0308   0.0803   0.0933
     0.3711   0.4449   0.5309   1.1038   1.3691   1.6628   1.7418   1.8057
     2.4699   2.5430   2.6197   2.6672   2.8677   2.9100   3.0066   3.1420
     3.2173   3.2995   3.3318   3.4713   3.4885

          k = 0.0743-0.0579 0.0000 ( 33921 PWs)   bands (ev):

   -76.9295 -76.9288 -76.5169 -76.5162 -76.4500 -76.4493 -48.7069 -48.7006
   -48.6609 -48.6545 -47.9561 -47.9486 -44.8370 -44.8252 -44.8181 -44.8169
   -44.7748 -44.7726 -44.4723 -44.4714 -44.4367 -44.4304 -44.4293 -44.4246
   -44.3563 -44.3442 -44.3145 -44.3142 -44.2331 -44.2324 -27.3677 -27.3607
   -27.3125 -27.3060 -27.2849 -27.2541 -27.2265 -27.2096 -27.1997 -27.1950
   -27.1695 -27.1597 -26.5874 -26.5705 -26.5615 -26.5275 -26.5253 -26.5251
    -2.7648  -2.5464  -1.8534  -1.7711  -1.6890  -1.6850  -1.6652  -1.6017
    -1.4106  -1.3975  -1.2494  -1.2446  -1.1241  -0.9097  -0.8454  -0.7750
    -0.7261  -0.6938  -0.6788  -0.6224  -0.5164  -0.5057  -0.4936  -0.4050
    -0.3902  -0.3710  -0.2347  -0.2191  -0.1033  -0.0500   0.0243   0.0972
     0.5132   0.5424   0.6014   1.1355   1.5874   1.7090   1.8967   1.8968
     2.6108   2.6999   2.7445   2.8139   2.8827   2.9967   3.0113   3.2513
     3.2791   3.3550   3.3663   3.5318   3.5684

          k = 0.0743-0.0421 0.0000 ( 33913 PWs)   bands (ev):

   -76.9292 -76.9292 -76.5166 -76.5165 -76.4497 -76.4497 -48.7037 -48.7033
   -48.6576 -48.6573 -47.9524 -47.9516 -44.8318 -44.8308 -44.8177 -44.8173
   -44.7750 -44.7732 -44.4728 -44.4716 -44.4312 -44.4308 -44.4304 -44.4296
   -44.3508 -44.3500 -44.3144 -44.3142 -44.2328 -44.2327 -27.3644 -27.3636
   -27.3096 -27.3090 -27.2560 -27.2544 -27.2249 -27.2231 -27.2049 -27.2018
   -27.1649 -27.1619 -26.5672 -26.5658 -26.5548 -26.5536 -26.5274 -26.5252
    -2.9690  -2.5432  -1.9036  -1.8781  -1.7509  -1.7158  -1.7082  -1.6756
    -1.5213  -1.3695  -1.1805  -1.1229  -1.0863  -1.0282  -0.9976  -0.8322
    -0.7421  -0.7297  -0.7198  -0.5757  -0.5502  -0.4831  -0.4626  -0.4607
    -0.3765  -0.3463  -0.2391  -0.1862  -0.1667  -0.1045   0.0290   0.1131
     0.4948   0.6681   0.7662   1.1873   1.6715   1.8145   1.9294   2.0454
     2.7198   2.7425   2.7564   2.8549   2.9792   3.0681   3.0922   3.2544
     3.2987   3.3115   3.3426   3.3776   3.4237

          k =-0.0892 0.0316 0.0000 ( 33900 PWs)   bands (ev):

   -76.9292 -76.9292 -76.5166 -76.5165 -76.4497 -76.4497 -48.7036 -48.7034
   -48.6575 -48.6575 -47.9521 -47.9519 -44.8313 -44.8313 -44.8176 -44.8175
   -44.7741 -44.7741 -44.4722 -44.4722 -44.4308 -44.4308 -44.4302 -44.4302
   -44.3504 -44.3504 -44.3143 -44.3143 -44.2328 -44.2327 -27.3641 -27.3639
   -27.3094 -27.3094 -27.2554 -27.2552 -27.2241 -27.2241 -27.2032 -27.2031
   -27.1634 -27.1634 -26.5670 -26.5668 -26.5538 -26.5537 -26.5264 -26.5262
    -2.7833  -2.7833  -1.9056  -1.9056  -1.7095  -1.7095  -1.6962  -1.6961
    -1.4476  -1.4475  -1.1285  -1.1284  -1.0699  -1.0698  -0.9592  -0.9592
    -0.7458  -0.7458  -0.6564  -0.6564  -0.5130  -0.5130  -0.3988  -0.3988
    -0.3342  -0.3342  -0.2032  -0.2032  -0.0849  -0.0849   0.0138   0.0138
     0.5319   0.5319   1.1321   1.1321   1.6010   1.6010   2.0567   2.0568
     2.6546   2.6546   2.7867   2.7867   3.0233   3.0235   3.2322   3.2326
     3.2842   3.2872   3.3039   3.3056   3.4328

          k =-0.0892 0.0474 0.0000 ( 33882 PWs)   bands (ev):

   -76.9296 -76.9288 -76.5169 -76.5162 -76.4500 -76.4493 -48.7066 -48.7006
   -48.6606 -48.6545 -47.9555 -47.9487 -44.8376 -44.8249 -44.8179 -44.8171
   -44.7743 -44.7737 -44.4721 -44.4720 -44.4371 -44.4301 -44.4301 -44.4244
   -44.3567 -44.3439 -44.3145 -44.3141 -44.2331 -44.2323 -27.3672 -27.3609
   -27.3124 -27.3063 -27.2839 -27.2530 -27.2272 -27.2069 -27.2000 -27.1957
   -27.1672 -27.1603 -26.5866 -26.5692 -26.5612 -26.5285 -26.5255 -26.5241
    -2.8559  -2.6525  -1.9348  -1.8432  -1.7111  -1.6894  -1.6875  -1.6607
    -1.5094  -1.3925  -1.3057  -1.1870  -1.0440  -1.0170  -0.8720  -0.8455
    -0.8402  -0.7863  -0.6461  -0.6084  -0.5187  -0.4775  -0.4157  -0.3970
    -0.3189  -0.2333  -0.1579  -0.1368  -0.0868  -0.0686   0.0221   0.0253
     0.4907   0.5469   0.9790   1.2080   1.5998   1.6053   1.9251   2.0422
     2.6175   2.6826   2.7301   2.8233   2.8728   3.0482   3.0985   3.2338
     3.2578   3.2581   3.3009   3.4110   3.5119

          k =-0.0892 0.0632 0.0000 ( 33898 PWs)   bands (ev):

   -76.9299 -76.9284 -76.5173 -76.5158 -76.4504 -76.4489 -48.7096 -48.6981
   -48.6636 -48.6519 -47.9590 -47.9458 -44.8432 -44.8188 -44.8183 -44.8167
   -44.7741 -44.7730 -44.4719 -44.4717 -44.4429 -44.4298 -44.4298 -44.4183
   -44.3625 -44.3378 -44.3147 -44.3140 -44.2335 -44.2320 -27.3703 -27.3581
   -27.3151 -27.3114 -27.3030 -27.2802 -27.2133 -27.1993 -27.1980 -27.1744
   -27.1667 -27.1581 -26.6144 -26.5733 -26.5597 -26.5304 -26.5220 -26.4983
    -2.8694  -2.4744  -1.9318  -1.7733  -1.6985  -1.6643  -1.6528  -1.6311
    -1.5632  -1.4140  -1.3445  -1.2212  -1.0770  -0.9788  -0.9405  -0.8145
    -0.7518  -0.7005  -0.6542  -0.5864  -0.4979  -0.4238  -0.3942  -0.3428
    -0.2797  -0.1450  -0.0706  -0.0494  -0.0102   0.0103   0.1040   0.1066
     0.4116   0.5540   0.7813   1.2155   1.5780   1.6014   1.7096   1.9189
     2.5272   2.5979   2.6336   2.7425   2.8505   2.9145   3.0317   3.1625
     3.2006   3.2014   3.2851   3.4385   3.4903

          k =-0.0892 0.0790 0.0000 ( 33912 PWs)   bands (ev):

   -76.9302 -76.9281 -76.5176 -76.5155 -76.4507 -76.4486 -48.7123 -48.6960
   -48.6664 -48.6498 -47.9622 -47.9436 -44.8480 -44.8186 -44.8164 -44.8135
   -44.7738 -44.7722 -44.4715 -44.4712 -44.4477 -44.4293 -44.4293 -44.4130
   -44.3674 -44.3324 -44.3149 -44.3139 -44.2338 -44.2317 -27.3731 -27.3558
   -27.3346 -27.3174 -27.3039 -27.3006 -27.2173 -27.1968 -27.1777 -27.1771
   -27.1568 -27.1460 -26.6387 -26.5774 -26.5587 -26.5320 -26.5202 -26.4751
    -2.8315  -2.2731  -1.9106  -1.8555  -1.7280  -1.6754  -1.6174  -1.5444
    -1.4355  -1.4090  -1.3241  -1.2201  -1.0726  -1.0558  -0.9666  -0.7039
    -0.6799  -0.6521  -0.6235  -0.5604  -0.4900  -0.3939  -0.3669  -0.2310
    -0.1808  -0.1723  -0.0283   0.0265   0.0426   0.2374   0.2381   0.2963
     0.3780   0.5783   0.5821   1.1983   1.4705   1.5207   1.5590   1.7644
     2.3302   2.4113   2.5520   2.6233   2.7426   2.8786   3.0086   3.0767
     3.0810   3.1602   3.1791   3.3668   3.4804

          k =-0.0892 0.0947 0.0000 ( 33930 PWs)   bands (ev):

   -76.9304 -76.9279 -76.5178 -76.5153 -76.4509 -76.4484 -48.7144 -48.6944
   -48.6685 -48.6483 -47.9647 -47.9419 -44.8515 -44.8188 -44.8161 -44.8093
   -44.7734 -44.7714 -44.4711 -44.4708 -44.4514 -44.4289 -44.4288 -44.4088
   -44.3711 -44.3283 -44.3151 -44.3138 -44.2341 -44.2314 -27.3754 -27.3543
   -27.3525 -27.3220 -27.3192 -27.2988 -27.2213 -27.1963 -27.1808 -27.1607
   -27.1561 -27.1291 -26.6576 -26.5810 -26.5583 -26.5333 -26.5188 -26.4574
    -2.7570  -2.0862  -2.0339  -1.8843  -1.7056  -1.6953  -1.5574  -1.4219
    -1.3830  -1.3213  -1.3043  -1.2222  -1.1001  -0.9875  -0.9848  -0.7423
    -0.6305  -0.5705  -0.5116  -0.4919  -0.4719  -0.3778  -0.3091  -0.2463
    -0.1557  -0.0368   0.0105   0.0564   0.1400   0.1704   0.3235   0.4566
     0.5086   0.5358   0.7850   1.1897   1.2594   1.4273   1.4813   1.6192
     2.0962   2.2092   2.4913   2.5230   2.5898   2.8245   2.8478   2.9934
     3.0206   3.0211   3.1296   3.3439   3.4589

          k =-0.0892 0.1105 0.0000 ( 33910 PWs)   bands (ev):

   -76.9306 -76.9278 -76.5180 -76.5151 -76.4511 -76.4483 -48.7158 -48.6935
   -48.6699 -48.6473 -47.9664 -47.9409 -44.8538 -44.8189 -44.8159 -44.8066
   -44.7731 -44.7709 -44.4708 -44.4704 -44.4537 -44.4285 -44.4285 -44.4062
   -44.3733 -44.3256 -44.3152 -44.3138 -44.2342 -44.2313 -27.3768 -27.3643
   -27.3530 -27.3336 -27.3202 -27.2976 -27.2240 -27.1961 -27.1833 -27.1559
   -27.1501 -27.1184 -26.6696 -26.5835 -26.5581 -26.5340 -26.5179 -26.4463
    -2.6712  -2.1747  -1.9566  -1.8684  -1.7068  -1.6991  -1.4893  -1.3685
    -1.3331  -1.3068  -1.2505  -1.2355  -1.0580  -0.9797  -0.9291  -0.7589
    -0.6093  -0.5002  -0.4758  -0.4451  -0.3830  -0.3559  -0.3319  -0.2390
    -0.0855   0.0171   0.0542   0.0590   0.1088   0.2062   0.2683   0.5201
     0.5383   0.7868   1.0959   1.1066   1.2066   1.3386   1.4077   1.4937
     1.8638   2.0651   2.4397   2.4612   2.4770   2.5859   2.7655   2.8625
     2.9066   3.0345   3.0619   3.3355   3.3829

          k =-0.0892-0.0630 0.0000 ( 33850 PWs)   bands (ev):

   -76.9306 -76.9277 -76.5180 -76.5151 -76.4511 -76.4482 -48.7163 -48.6932
   -48.6704 -48.6470 -47.9669 -47.9406 -44.8545 -44.8189 -44.8158 -44.8057
   -44.7729 -44.7707 -44.4707 -44.4703 -44.4545 -44.4284 -44.4284 -44.4053
   -44.3741 -44.3247 -44.3152 -44.3138 -44.2343 -44.2312 -27.3773 -27.3682
   -27.3526 -27.3375 -27.3206 -27.2971 -27.2250 -27.1960 -27.1842 -27.1557
   -27.1464 -27.1147 -26.6737 -26.5843 -26.5580 -26.5343 -26.5176 -26.4425
    -2.6263  -2.2365  -1.9112  -1.8635  -1.7103  -1.6985  -1.4513  -1.3653
    -1.3261  -1.2735  -1.2695  -1.2161  -1.0493  -0.9545  -0.9224  -0.7470
    -0.5832  -0.4809  -0.4347  -0.4194  -0.4065  -0.4008  -0.2679  -0.2526
    -0.0621  -0.0070   0.0891   0.0937   0.1280   0.1361   0.3080   0.5175
     0.5818   0.8918   1.0493   1.2262   1.3008   1.3099   1.3789   1.3838
     1.7480   2.0118   2.3853   2.4408   2.4485   2.4749   2.7451   2.7902
     2.8652   3.0047   3.0516   3.2877   3.4193

     the Fermi energy is     1.4176 ev

!    total energy              =   -1956.64431153 Ry
     estimated scf accuracy    <       0.00000700 Ry
     smearing contrib. (-TS)   =      -0.03593384 Ry
     internal energy E=F+TS    =   -1956.60837769 Ry

     The total energy is F=E-TS. E is the sum of the following terms:
     one-electron contribution =  -14633.51911147 Ry
     hartree contribution      =    7312.05536238 Ry
     xc contribution           =    -293.71472656 Ry
     ewald contribution        =    5658.57008899 Ry
     electric field correction =       0.00000897 Ry

     convergence has been achieved in  18 iterations

     negative rho (up, down):  1.113E-03 0.000E+00

     Forces acting on atoms (cartesian axes, Ry/au):

     atom    1 type  1   force =    -0.00031883   -0.00022520   -0.01053897
     atom    2 type  1   force =    -0.00031004   -0.00022634   -0.01053470
     atom    3 type  2   force =    -0.00009165   -0.00006602    0.02069352
     atom    4 type  2   force =    -0.00009916   -0.00005853    0.02069535
     atom    5 type  1   force =     0.00014003    0.00009676   -0.01061992
     atom    6 type  1   force =     0.00014181    0.00010272   -0.01061388
     atom    7 type  2   force =    -0.00002437   -0.00002139   -0.00086216
     atom    8 type  2   force =    -0.00002534   -0.00000880   -0.00086777
     atom    9 type  1   force =     0.00013388    0.00009654   -0.00035535
     atom   10 type  1   force =     0.00013630    0.00008708   -0.00035154
     atom   11 type  2   force =     0.00015100    0.00011595    0.00167121
     atom   12 type  2   force =     0.00016638    0.00010724    0.00168422

     Total force =     0.036220     Total SCF correction =     0.019585
     SCF correction compared to forces is large: reduce conv_thr to get better values

     Writing output data file ./Sc2Rh2/Sc2Rh2_beef.save/

     init_run     :     93.87s CPU     94.46s WALL (       1 calls)
     electrons    :   4715.73s CPU   4734.65s WALL (       1 calls)
     forces       :     64.47s CPU     64.75s WALL (       1 calls)

     Called by init_run:
     wfcinit      :     82.47s CPU     82.81s WALL (       1 calls)
     potinit      :      7.69s CPU      7.77s WALL (       1 calls)
     hinit0       :      2.04s CPU      2.05s WALL (       1 calls)

     Called by electrons:
     c_bands      :   4264.11s CPU   4275.36s WALL (      18 calls)
     sum_band     :    415.45s CPU    419.52s WALL (      18 calls)
     v_of_rho     :     23.81s CPU     25.02s WALL (      19 calls)
     newd         :     18.92s CPU     21.35s WALL (      19 calls)
     mix_rho      :      0.69s CPU      0.71s WALL (      18 calls)
     vdW_kernel   :      5.70s CPU      5.70s WALL (       1 calls)

     Called by c_bands:
     init_us_2    :     13.51s CPU     13.56s WALL (    2812 calls)
     cegterg      :   4229.81s CPU   4239.18s WALL (    1333 calls)

     Called by *egterg:
     cdiaghg      :    278.69s CPU    278.76s WALL (    9176 calls)
     h_psi        :   1913.76s CPU   1921.80s WALL (    9250 calls)
     s_psi        :    654.76s CPU    654.91s WALL (    9250 calls)
     g_psi        :      1.54s CPU      1.55s WALL (    7843 calls)

     Called by h_psi:
     h_psi:calbec :    660.74s CPU    661.57s WALL (    9250 calls)
     vloc_psi     :    564.57s CPU    571.59s WALL (    9250 calls)
     add_vuspsi   :    680.76s CPU    680.92s WALL (    9250 calls)

     General routines
     calbec       :    975.99s CPU    977.28s WALL (   10878 calls)
     fft          :     12.72s CPU     13.17s WALL (    1256 calls)
     ffts         :      0.07s CPU      0.07s WALL (      37 calls)
     fftw         :    642.18s CPU    650.09s WALL (  816074 calls)
     interpolate  :      0.23s CPU      0.24s WALL (      19 calls)

     Parallel routines
     fft_scatt_xy :     54.73s CPU     55.42s WALL (  817367 calls)
     fft_scatt_yz :    102.26s CPU    103.88s WALL (  817367 calls)

     PWSCF        :      1h21m CPU      1h22m WALL


   This run was terminated on:  20:24:38  10Jul2022            

=------------------------------------------------------------------------------=
   JOB DONE.
=------------------------------------------------------------------------------=
