
     Program PWSCF v.6.6 starts on 25Jun2022 at 23: 9:53 

     This program is part of the open-source Quantum ESPRESSO suite
     for quantum simulation of materials; please cite
         "P. Giannozzi et al., J. Phys.:Condens. Matter 21 395502 (2009);
         "P. Giannozzi et al., J. Phys.:Condens. Matter 29 465901 (2017);
          URL http://www.quantum-espresso.org", 
     in publications or presentations arising from this work. More details at
     http://www.quantum-espresso.org/quote

     Parallel version (MPI), running on    37 processors

     MPI processes distributed on     1 nodes
     R & G space division:  proc/nbgrp/npool/nimage =      37
     Fft bands division:     nmany     =       1
     Reading input from Sc2Ta2.in
Warning: card &CELL ignored
Warning: card / ignored

     Current dimensions of program PWSCF are:
     Max number of different atomic species (ntypx) = 10
     Max number of k-points (npk) =  40000
     Max angular momentum in pseudopotentials (lmaxx) =  3
     Presently stress not available with electric field and gates

     Message from routine cell_base_init:
     DEPRECATED: use true lattice parameter, not A to a.u. conversion factor
     file Sc.pbe-spn-rrkjus_psl.1.0.0.UPF: wavefunction(s)  3S 3P renormalized
     file Ta.pbe-spfn-rrkjus_psl.1.0.0.UPF: wavefunction(s)  5S 5P renormalized

     **************************************************************************
     Initializing libbeef V0.1.2 with the BEEF-vdW functional.
     Citation: Wellendorff et al., PRB 85, 235149 (2012).
     **************************************************************************


     IMPORTANT: XC functional enforced from input :
     Exchange-correlation= BEEF-VDW
                           (   1   4  43  14   2   0   0)
     Any further DFT definition will be discarded
     Please, verify this is what you really want


     Subspace diagonalization in iterative solution of the eigenvalue problem:
     a serial algorithm will be used


     Parallelization info
     --------------------
     sticks:   dense  smooth     PW     G-vecs:    dense   smooth      PW
     Min         139      55     15                32636     8257    1255
     Max         140      56     16                32655     8272    1272
     Sum        5145    2059    591              1207981   305773   46937



     bravais-lattice index     =            0
     lattice parameter (alat)  =       1.8897  a.u.
     unit-cell volume          =    5527.8878 (a.u.)^3
     number of atoms/cell      =           12
     number of atomic types    =            2
     number of electrons       =       228.00
     number of Kohn-Sham states=          137
     kinetic-energy cutoff     =      55.1240  Ry
     charge density cutoff     =     551.2396  Ry
     convergence threshold     =      1.0E-05
     mixing beta               =       0.1000
     number of iterations used =           10  plain     mixing
     Exchange-correlation= BEEF-VDW
                           (   1   4  43  14   2   0   0)

     celldm(1)=   1.889726  celldm(2)=   0.000000  celldm(3)=   0.000000
     celldm(4)=   0.000000  celldm(5)=   0.000000  celldm(6)=   0.000000

     crystal axes: (cart. coord. in units of alat)
               a(1) = (   5.745038   0.000000   0.000000 )  
               a(2) = (  -2.872519   5.711230   0.000000 )  
               a(3) = (   0.000000   0.000000  24.965493 )  

     reciprocal axes: (cart. coord. in units 2 pi/alat)
               b(1) = (  0.174063  0.087547 -0.000000 )  
               b(2) = (  0.000000  0.175094  0.000000 )  
               b(3) = (  0.000000 -0.000000  0.040055 )  


     PseudoPot. # 1 for Sc read from file:
     ../pseudo/Sc.pbe-spn-rrkjus_psl.1.0.0.UPF
     MD5 check sum: f739f74c200e509e5c24cbe053202ee5
     Pseudo is Ultrasoft + core correction, Zval = 11.0
     Generated using "atomic" code by A. Dal Corso v.6.2.2
     Using radial grid of 1173 points,  6 beta functions with: 
                l(1) =   0
                l(2) =   0
                l(3) =   1
                l(4) =   1
                l(5) =   2
                l(6) =   2
     Q(r) pseudized with 0 coefficients 


     PseudoPot. # 2 for Ta read from file:
     ../pseudo/Ta.pbe-spfn-rrkjus_psl.1.0.0.UPF
     MD5 check sum: 39d7d349fe394e56adf8454eb9315fbb
     Pseudo is Ultrasoft + core correction, Zval = 27.0
     Generated using "atomic" code by A. Dal Corso v.6.3
     Using radial grid of 1273 points,  8 beta functions with: 
                l(1) =   0
                l(2) =   0
                l(3) =   1
                l(4) =   1
                l(5) =   2
                l(6) =   2
                l(7) =   3
                l(8) =   3
     Q(r) pseudized with 0 coefficients 


     atomic species   valence    mass     pseudopotential
        Sc            11.00    44.95591     Sc( 1.00)
        Ta            27.00   180.94788     Ta( 1.00)

     No symmetry found



   Cartesian axes

     site n.     atom                  positions (alat units)
         1           Sc  tau(   1) = (   0.0000000   0.0000000  10.0000000  )
         2           Sc  tau(   2) = (   2.8725191   0.0000000  10.0000000  )
         3           Ta  tau(   3) = (   1.4362595   2.8556149  10.0000000  )
         4           Ta  tau(   4) = (  -1.4362595   2.8556149  10.0000000  )
         5           Sc  tau(   5) = (   2.8725191   1.4447617  12.4827464  )
         6           Sc  tau(   6) = (   0.0000000   1.4447617  12.4827464  )
         7           Ta  tau(   7) = (  -1.4362595   4.3003765  12.4827464  )
         8           Ta  tau(   8) = (   1.4362595   4.3003765  12.4827464  )
         9           Sc  tau(   9) = (  -0.0000994   3.1037620  14.9904022  )
        10           Sc  tau(  10) = (   2.8723909   3.1037811  14.9903996  )
        11           Ta  tau(  11) = (   4.3087859   0.1132187  14.7474590  )
        12           Ta  tau(  12) = (   1.4363330   0.1132057  14.7474532  )

     number of k points=    74  Fermi-Dirac smearing, width (Ry)=  0.0100
                       cart. coord. in units 2pi/alat
        k(    1) = (   0.0000000   0.0000000   0.0000000), wk =   0.0138889
        k(    2) = (   0.0000000   0.0145911   0.0000000), wk =   0.0277778
        k(    3) = (   0.0000000   0.0291823   0.0000000), wk =   0.0277778
        k(    4) = (   0.0000000   0.0437734   0.0000000), wk =   0.0277778
        k(    5) = (   0.0000000   0.0583645   0.0000000), wk =   0.0277778
        k(    6) = (   0.0000000   0.0729557   0.0000000), wk =   0.0277778
        k(    7) = (   0.0000000  -0.0875468   0.0000000), wk =   0.0138889
        k(    8) = (   0.0145053   0.0072956   0.0000000), wk =   0.0277778
        k(    9) = (   0.0145053   0.0218867   0.0000000), wk =   0.0277778
        k(   10) = (   0.0145053   0.0364778   0.0000000), wk =   0.0277778
        k(   11) = (   0.0145053   0.0510690   0.0000000), wk =   0.0277778
        k(   12) = (   0.0145053   0.0656601   0.0000000), wk =   0.0277778
        k(   13) = (   0.0145053   0.0802512   0.0000000), wk =   0.0277778
        k(   14) = (   0.0145053  -0.0802512   0.0000000), wk =   0.0277778
        k(   15) = (   0.0145053  -0.0656601   0.0000000), wk =   0.0277778
        k(   16) = (   0.0145053  -0.0510690   0.0000000), wk =   0.0277778
        k(   17) = (   0.0145053  -0.0364778   0.0000000), wk =   0.0277778
        k(   18) = (   0.0145053  -0.0218867   0.0000000), wk =   0.0277778
        k(   19) = (   0.0145053  -0.0072956   0.0000000), wk =   0.0277778
        k(   20) = (   0.0290105   0.0145911   0.0000000), wk =   0.0277778
        k(   21) = (   0.0290105   0.0291823   0.0000000), wk =   0.0277778
        k(   22) = (   0.0290105   0.0437734   0.0000000), wk =   0.0277778
        k(   23) = (   0.0290105   0.0583645   0.0000000), wk =   0.0277778
        k(   24) = (   0.0290105   0.0729557   0.0000000), wk =   0.0277778
        k(   25) = (   0.0290105   0.0875468   0.0000000), wk =   0.0277778
        k(   26) = (   0.0290105  -0.0729557   0.0000000), wk =   0.0277778
        k(   27) = (   0.0290105  -0.0583645   0.0000000), wk =   0.0277778
        k(   28) = (   0.0290105  -0.0437734   0.0000000), wk =   0.0277778
        k(   29) = (   0.0290105  -0.0291823   0.0000000), wk =   0.0277778
        k(   30) = (   0.0290105  -0.0145911   0.0000000), wk =   0.0277778
        k(   31) = (   0.0290105  -0.0000000   0.0000000), wk =   0.0277778
        k(   32) = (   0.0435158   0.0218867   0.0000000), wk =   0.0277778
        k(   33) = (   0.0435158   0.0364778   0.0000000), wk =   0.0277778
        k(   34) = (   0.0435158   0.0510690   0.0000000), wk =   0.0277778
        k(   35) = (   0.0435158   0.0656601   0.0000000), wk =   0.0277778
        k(   36) = (   0.0435158   0.0802512   0.0000000), wk =   0.0277778
        k(   37) = (   0.0435158   0.0948424   0.0000000), wk =   0.0277778
        k(   38) = (   0.0435158  -0.0656601   0.0000000), wk =   0.0277778
        k(   39) = (   0.0435158  -0.0510690   0.0000000), wk =   0.0277778
        k(   40) = (   0.0435158  -0.0364778   0.0000000), wk =   0.0277778
        k(   41) = (   0.0435158  -0.0218867   0.0000000), wk =   0.0277778
        k(   42) = (   0.0435158  -0.0072956   0.0000000), wk =   0.0277778
        k(   43) = (   0.0435158   0.0072956   0.0000000), wk =   0.0277778
        k(   44) = (   0.0580211   0.0291823   0.0000000), wk =   0.0277778
        k(   45) = (   0.0580211   0.0437734   0.0000000), wk =   0.0277778
        k(   46) = (   0.0580211   0.0583645   0.0000000), wk =   0.0277778
        k(   47) = (   0.0580211   0.0729557   0.0000000), wk =   0.0277778
        k(   48) = (   0.0580211   0.0875468   0.0000000), wk =   0.0277778
        k(   49) = (   0.0580211   0.1021380   0.0000000), wk =   0.0277778
        k(   50) = (   0.0580211  -0.0583645   0.0000000), wk =   0.0277778
        k(   51) = (   0.0580211  -0.0437734   0.0000000), wk =   0.0277778
        k(   52) = (   0.0580211  -0.0291823   0.0000000), wk =   0.0277778
        k(   53) = (   0.0580211  -0.0145911   0.0000000), wk =   0.0277778
        k(   54) = (   0.0580211   0.0000000   0.0000000), wk =   0.0277778
        k(   55) = (   0.0580211   0.0145911   0.0000000), wk =   0.0277778
        k(   56) = (   0.0725264   0.0364778   0.0000000), wk =   0.0277778
        k(   57) = (   0.0725264   0.0510690   0.0000000), wk =   0.0277778
        k(   58) = (   0.0725264   0.0656601   0.0000000), wk =   0.0277778
        k(   59) = (   0.0725264   0.0802512   0.0000000), wk =   0.0277778
        k(   60) = (   0.0725264   0.0948424   0.0000000), wk =   0.0277778
        k(   61) = (   0.0725264   0.1094335   0.0000000), wk =   0.0277778
        k(   62) = (   0.0725264  -0.0510690   0.0000000), wk =   0.0277778
        k(   63) = (   0.0725264  -0.0364778   0.0000000), wk =   0.0277778
        k(   64) = (   0.0725264  -0.0218867   0.0000000), wk =   0.0277778
        k(   65) = (   0.0725264  -0.0072956   0.0000000), wk =   0.0277778
        k(   66) = (   0.0725264   0.0072956   0.0000000), wk =   0.0277778
        k(   67) = (   0.0725264   0.0218867   0.0000000), wk =   0.0277778
        k(   68) = (  -0.0870316  -0.0437734   0.0000000), wk =   0.0138889
        k(   69) = (  -0.0870316  -0.0291823   0.0000000), wk =   0.0277778
        k(   70) = (  -0.0870316  -0.0145911   0.0000000), wk =   0.0277778
        k(   71) = (  -0.0870316   0.0000000   0.0000000), wk =   0.0277778
        k(   72) = (  -0.0870316   0.0145911   0.0000000), wk =   0.0277778
        k(   73) = (  -0.0870316   0.0291823   0.0000000), wk =   0.0277778
        k(   74) = (  -0.0870316  -0.1313202   0.0000000), wk =   0.0138889

     Dense  grid:  1207981 G-vectors     FFT dimensions: (  81,  96, 360)

     Smooth grid:   305773 G-vectors     FFT dimensions: (  54,  60, 225)

     Estimated max dynamical RAM per process >     482.12 MB

     Estimated total dynamical RAM >      17.42 GB

     Check: negative core charge=   -0.000001

     Initial potential from superposition of free atoms

     starting charge  227.97957, renormalised to  228.00000

     negative rho (up, down):  3.968E-04 0.000E+00


     %%%%%%%%%%%%%%%%%%%%%%%%%%%%%%%%%%%%%%%%%%%%%%%%%%%%%%%%%%%%%%%%%%%%%%%%
     %                                                                      %
     % You are using vdW-DF, which was implemented by the Thonhauser group. %
     % Please cite the following two papers that made this development      %
     % possible and the two reviews that describe the various versions:     %
     %                                                                      %
     %   T. Thonhauser et al., PRL 115, 136402 (2015).                      %
     %   T. Thonhauser et al., PRB 76, 125112 (2007).                       %
     %   K. Berland et al., Rep. Prog. Phys. 78, 066501 (2015).             %
     %   D.C. Langreth et al., J. Phys.: Condens. Matter 21, 084203 (2009). %
     %                                                                      %
     %                                                                      %
     % If you are calculating the stress with vdW-DF, please also cite:     %
     %                                                                      %
     %   R. Sabatini et al., J. Phys.: Condens. Matter 24, 424209 (2012).   %
     %                                                                      %
     %%%%%%%%%%%%%%%%%%%%%%%%%%%%%%%%%%%%%%%%%%%%%%%%%%%%%%%%%%%%%%%%%%%%%%%%



     Adding external electric field

     Computed dipole along edir(3) : 
        Dipole                0.0014 Ry au,          0.0037 Debye
        Dipole field          0.0000 Ry au, 

        Potential amp.       -0.0003 Ry
        Total length         45.9985 bohr

     Starting wfcs are  162 randomized atomic wfcs

     total cpu time spent up to now is      173.6 secs

     Self-consistent Calculation

     iteration #  1     ecut=    55.12 Ry     beta= 0.10
     Davidson diagonalization with overlap
     ethr =  1.00E-02,  avg # of iterations =  2.2

     negative rho (up, down):  1.664E-04 0.000E+00

     Adding external electric field

     Computed dipole along edir(3) : 
        Dipole               -0.4012 Ry au,         -1.0199 Debye
        Dipole field         -0.0009 Ry au, 

        Potential amp.        0.0839 Ry
        Total length         45.9985 bohr


     total cpu time spent up to now is      716.5 secs

     total energy              =   -4681.81943886 Ry
     estimated scf accuracy    <       7.04488998 Ry

     iteration #  2     ecut=    55.12 Ry     beta= 0.10
     Davidson diagonalization with overlap
     ethr =  3.09E-03,  avg # of iterations =  3.1

     negative rho (up, down):  1.623E-04 0.000E+00

     Adding external electric field

     Computed dipole along edir(3) : 
        Dipole                0.9658 Ry au,          2.4549 Debye
        Dipole field          0.0022 Ry au, 

        Potential amp.       -0.2020 Ry
        Total length         45.9985 bohr


     total cpu time spent up to now is     1367.5 secs

     total energy              =   -4682.04489227 Ry
     estimated scf accuracy    <      12.53548945 Ry

     iteration #  3     ecut=    55.12 Ry     beta= 0.10
     Davidson diagonalization with overlap
     ethr =  3.09E-03,  avg # of iterations =  3.2

     negative rho (up, down):  1.703E-04 0.000E+00

     Adding external electric field

     Computed dipole along edir(3) : 
        Dipole                0.0393 Ry au,          0.1000 Debye
        Dipole field          0.0001 Ry au, 

        Potential amp.       -0.0082 Ry
        Total length         45.9985 bohr


     total cpu time spent up to now is     1989.3 secs

     total energy              =   -4682.23363426 Ry
     estimated scf accuracy    <      49.76153570 Ry

     iteration #  4     ecut=    55.12 Ry     beta= 0.10
     Davidson diagonalization with overlap
     ethr =  3.09E-03,  avg # of iterations =  1.1

     negative rho (up, down):  1.800E-04 0.000E+00

     Adding external electric field

     Computed dipole along edir(3) : 
        Dipole                0.0026 Ry au,          0.0067 Debye
        Dipole field          0.0000 Ry au, 

        Potential amp.       -0.0006 Ry
        Total length         45.9985 bohr


     total cpu time spent up to now is     2315.8 secs

     total energy              =   -4682.76071496 Ry
     estimated scf accuracy    <       0.70639513 Ry

     iteration #  5     ecut=    55.12 Ry     beta= 0.10
     Davidson diagonalization with overlap
     ethr =  3.10E-04,  avg # of iterations =  6.1

     negative rho (up, down):  1.976E-04 0.000E+00

     Adding external electric field

     Computed dipole along edir(3) : 
        Dipole                0.0861 Ry au,          0.2189 Debye
        Dipole field          0.0002 Ry au, 

        Potential amp.       -0.0180 Ry
        Total length         45.9985 bohr


     total cpu time spent up to now is     2803.1 secs

     total energy              =   -4682.70720292 Ry
     estimated scf accuracy    <       0.30577501 Ry

     iteration #  6     ecut=    55.12 Ry     beta= 0.10
     Davidson diagonalization with overlap
     ethr =  1.34E-04,  avg # of iterations =  9.6

     negative rho (up, down):  1.974E-04 0.000E+00

     Adding external electric field

     Computed dipole along edir(3) : 
        Dipole                0.0257 Ry au,          0.0654 Debye
        Dipole field          0.0001 Ry au, 

        Potential amp.       -0.0054 Ry
        Total length         45.9985 bohr


     total cpu time spent up to now is     3508.5 secs

     total energy              =   -4682.75481800 Ry
     estimated scf accuracy    <       0.08737720 Ry

     iteration #  7     ecut=    55.12 Ry     beta= 0.10
     Davidson diagonalization with overlap
     c_bands:  1 eigenvalues not converged
     c_bands:  1 eigenvalues not converged
     ethr =  3.83E-05,  avg # of iterations =  8.1

     negative rho (up, down):  2.271E-04 0.000E+00

     Adding external electric field

     Computed dipole along edir(3) : 
        Dipole                0.0641 Ry au,          0.1629 Debye
        Dipole field          0.0001 Ry au, 

        Potential amp.       -0.0134 Ry
        Total length         45.9985 bohr


     total cpu time spent up to now is     4155.0 secs

     total energy              =   -4682.75942299 Ry
     estimated scf accuracy    <       0.08585119 Ry

     iteration #  8     ecut=    55.12 Ry     beta= 0.10
     Davidson diagonalization with overlap
     ethr =  3.77E-05,  avg # of iterations =  2.0

     negative rho (up, down):  2.762E-04 0.000E+00

     Adding external electric field

     Computed dipole along edir(3) : 
        Dipole                0.0633 Ry au,          0.1610 Debye
        Dipole field          0.0001 Ry au, 

        Potential amp.       -0.0132 Ry
        Total length         45.9985 bohr


     total cpu time spent up to now is     4641.9 secs

     total energy              =   -4682.75853190 Ry
     estimated scf accuracy    <       0.07388707 Ry

     iteration #  9     ecut=    55.12 Ry     beta= 0.10
     Davidson diagonalization with overlap
     ethr =  3.24E-05,  avg # of iterations =  1.7

     negative rho (up, down):  3.191E-04 0.000E+00

     Adding external electric field

     Computed dipole along edir(3) : 
        Dipole                0.0420 Ry au,          0.1067 Debye
        Dipole field          0.0001 Ry au, 

        Potential amp.       -0.0088 Ry
        Total length         45.9985 bohr


     total cpu time spent up to now is     5005.8 secs

     total energy              =   -4682.76010829 Ry
     estimated scf accuracy    <       0.02454072 Ry

     iteration # 10     ecut=    55.12 Ry     beta= 0.10
     Davidson diagonalization with overlap
     c_bands:  1 eigenvalues not converged
     c_bands:  1 eigenvalues not converged
     c_bands:  1 eigenvalues not converged
     c_bands:  1 eigenvalues not converged
     c_bands:  1 eigenvalues not converged
     c_bands:  1 eigenvalues not converged
     c_bands:  2 eigenvalues not converged
     c_bands:  1 eigenvalues not converged
     c_bands:  2 eigenvalues not converged
     c_bands:  2 eigenvalues not converged
     c_bands:  2 eigenvalues not converged
     c_bands:  1 eigenvalues not converged
     ethr =  1.08E-05,  avg # of iterations = 12.6

     negative rho (up, down):  3.498E-04 0.000E+00

     Adding external electric field

     Computed dipole along edir(3) : 
        Dipole                0.0733 Ry au,          0.1863 Debye
        Dipole field          0.0002 Ry au, 

        Potential amp.       -0.0153 Ry
        Total length         45.9985 bohr


     total cpu time spent up to now is     5782.8 secs

     total energy              =   -4682.76290828 Ry
     estimated scf accuracy    <       0.01341874 Ry

     iteration # 11     ecut=    55.12 Ry     beta= 0.10
     Davidson diagonalization with overlap
     c_bands:  1 eigenvalues not converged
     c_bands:  1 eigenvalues not converged
     ethr =  5.89E-06,  avg # of iterations =  3.9

     negative rho (up, down):  3.583E-04 0.000E+00

     Adding external electric field

     Computed dipole along edir(3) : 
        Dipole                0.0677 Ry au,          0.1720 Debye
        Dipole field          0.0002 Ry au, 

        Potential amp.       -0.0142 Ry
        Total length         45.9985 bohr


     total cpu time spent up to now is     6387.1 secs

     total energy              =   -4682.76372024 Ry
     estimated scf accuracy    <       0.00219640 Ry

     iteration # 12     ecut=    55.12 Ry     beta= 0.10
     Davidson diagonalization with overlap
     c_bands:  1 eigenvalues not converged
     c_bands:  1 eigenvalues not converged
     c_bands:  1 eigenvalues not converged
     c_bands:  1 eigenvalues not converged
     c_bands:  1 eigenvalues not converged
     c_bands:  1 eigenvalues not converged
     c_bands:  1 eigenvalues not converged
     c_bands:  3 eigenvalues not converged
     c_bands:  1 eigenvalues not converged
     c_bands:  2 eigenvalues not converged
     c_bands:  2 eigenvalues not converged
     ethr =  9.63E-07,  avg # of iterations = 11.4

     negative rho (up, down):  3.579E-04 0.000E+00

     Adding external electric field

     Computed dipole along edir(3) : 
        Dipole                0.0607 Ry au,          0.1544 Debye
        Dipole field          0.0001 Ry au, 

        Potential amp.       -0.0127 Ry
        Total length         45.9985 bohr


     total cpu time spent up to now is     7234.6 secs

     total energy              =   -4682.76367458 Ry
     estimated scf accuracy    <       0.00314270 Ry

     iteration # 13     ecut=    55.12 Ry     beta= 0.10
     Davidson diagonalization with overlap
     c_bands:  1 eigenvalues not converged
     c_bands:  2 eigenvalues not converged
     ethr =  9.63E-07,  avg # of iterations =  2.6

     negative rho (up, down):  3.631E-04 0.000E+00

     Adding external electric field

     Computed dipole along edir(3) : 
        Dipole                0.0619 Ry au,          0.1573 Debye
        Dipole field          0.0001 Ry au, 

        Potential amp.       -0.0129 Ry
        Total length         45.9985 bohr


     total cpu time spent up to now is     7640.5 secs

     total energy              =   -4682.76401024 Ry
     estimated scf accuracy    <       0.00024123 Ry

     iteration # 14     ecut=    55.12 Ry     beta= 0.10
     Davidson diagonalization with overlap
     ethr =  1.06E-07,  avg # of iterations =  7.9

     negative rho (up, down):  3.610E-04 0.000E+00

     Adding external electric field

     Computed dipole along edir(3) : 
        Dipole                0.0620 Ry au,          0.1576 Debye
        Dipole field          0.0001 Ry au, 

        Potential amp.       -0.0130 Ry
        Total length         45.9985 bohr


     total cpu time spent up to now is     8372.4 secs

     total energy              =   -4682.76410333 Ry
     estimated scf accuracy    <       0.00022842 Ry

     iteration # 15     ecut=    55.12 Ry     beta= 0.10
     Davidson diagonalization with overlap
     ethr =  1.00E-07,  avg # of iterations =  1.0

     negative rho (up, down):  3.618E-04 0.000E+00

     Adding external electric field

     Computed dipole along edir(3) : 
        Dipole                0.0607 Ry au,          0.1543 Debye
        Dipole field          0.0001 Ry au, 

        Potential amp.       -0.0127 Ry
        Total length         45.9985 bohr


     total cpu time spent up to now is     8783.2 secs

     total energy              =   -4682.76410345 Ry
     estimated scf accuracy    <       0.00006634 Ry

     iteration # 16     ecut=    55.12 Ry     beta= 0.10
     Davidson diagonalization with overlap
     ethr =  2.91E-08,  avg # of iterations =  2.1

     negative rho (up, down):  3.624E-04 0.000E+00

     Adding external electric field

     Computed dipole along edir(3) : 
        Dipole                0.0620 Ry au,          0.1577 Debye
        Dipole field          0.0001 Ry au, 

        Potential amp.       -0.0130 Ry
        Total length         45.9985 bohr


     total cpu time spent up to now is     9234.3 secs

     total energy              =   -4682.76410667 Ry
     estimated scf accuracy    <       0.00002210 Ry

     iteration # 17     ecut=    55.12 Ry     beta= 0.10
     Davidson diagonalization with overlap
     c_bands:  1 eigenvalues not converged
     c_bands:  1 eigenvalues not converged
     c_bands:  1 eigenvalues not converged
     c_bands:  1 eigenvalues not converged
     ethr =  9.69E-09,  avg # of iterations =  9.0

     negative rho (up, down):  3.634E-04 0.000E+00

     Adding external electric field

     Computed dipole along edir(3) : 
        Dipole                0.0615 Ry au,          0.1563 Debye
        Dipole field          0.0001 Ry au, 

        Potential amp.       -0.0129 Ry
        Total length         45.9985 bohr


     total cpu time spent up to now is     9786.6 secs

     total energy              =   -4682.76411084 Ry
     estimated scf accuracy    <       0.00001402 Ry

     iteration # 18     ecut=    55.12 Ry     beta= 0.10
     Davidson diagonalization with overlap
     c_bands:  1 eigenvalues not converged
     ethr =  6.15E-09,  avg # of iterations =  2.2

     negative rho (up, down):  3.848E-04 0.000E+00

     Adding external electric field

     Computed dipole along edir(3) : 
        Dipole                0.0627 Ry au,          0.1594 Debye
        Dipole field          0.0001 Ry au, 

        Potential amp.       -0.0131 Ry
        Total length         45.9985 bohr


     total cpu time spent up to now is    10383.1 secs

     End of self-consistent calculation

          k = 0.0000 0.0000 0.0000 ( 38207 PWs)   bands (ev):

   -66.6700 -66.6253 -66.5340 -66.4887 -66.3483 -66.3029 -48.1495 -48.1183
   -48.0643 -48.0333 -47.5612 -47.4754 -33.2289 -33.1640 -33.1610 -33.0740
   -33.0158 -32.9826 -32.9259 -32.9033 -32.8431 -32.8210 -32.7365 -32.6292
   -32.5442 -32.5112 -32.4311 -32.4075 -32.3372 -32.2961 -27.0851 -27.0638
   -26.8211 -26.7734 -26.7415 -26.6969 -26.6571 -26.6038 -26.5844 -26.5301
   -26.5179 -26.4530 -26.4326 -26.1610 -26.0902 -26.0624 -25.9880 -25.8822
   -18.3766 -18.3760 -18.3684 -18.3680 -18.3665 -18.3584 -18.3559 -18.3551
   -18.3477 -18.3335 -18.3302 -18.3270 -18.2987 -18.2927 -18.2303 -18.2281
   -18.2115 -18.2107 -18.2095 -18.2092 -18.2076 -18.2040 -18.2010 -18.1954
   -18.1929 -18.1911 -18.1642 -18.1592 -18.0380 -18.0354 -18.0265 -18.0208
   -18.0143 -18.0135 -18.0088 -18.0058 -17.9985 -17.9891 -17.9835 -17.9818
   -17.9816 -17.9783  -4.4794  -3.1186  -1.9236  -1.3953  -1.1373  -1.1203
    -1.0251  -0.9544  -0.6003  -0.5061  -0.4396  -0.1993  -0.1444  -0.0274
     0.0542   0.2921   0.9008   0.9527   1.0823   1.2063   1.5639   1.5992
     1.8889   1.9386   2.0727   2.1113   2.1804   2.3081   2.3676   2.4848
     2.5856   2.6142   2.7484   2.9090   3.2571   3.3298   3.4751   3.5958
     3.7301   3.7361   3.7647   3.7752   3.8041   3.9840   3.9911   4.0593
     4.3879

          k = 0.0000 0.0146 0.0000 ( 38219 PWs)   bands (ev):

   -66.6700 -66.6253 -66.5340 -66.4887 -66.3483 -66.3029 -48.1495 -48.1183
   -48.0643 -48.0333 -47.5612 -47.4754 -33.2288 -33.1638 -33.1609 -33.0739
   -33.0158 -32.9827 -32.9256 -32.9033 -32.8430 -32.8208 -32.7364 -32.6290
   -32.5442 -32.5112 -32.4311 -32.4075 -32.3372 -32.2961 -27.0853 -27.0640
   -26.8216 -26.7732 -26.7416 -26.6968 -26.6578 -26.6044 -26.5846 -26.5303
   -26.5181 -26.4531 -26.4327 -26.1610 -26.0901 -26.0630 -25.9882 -25.8822
   -18.3767 -18.3760 -18.3684 -18.3680 -18.3665 -18.3584 -18.3558 -18.3552
   -18.3477 -18.3335 -18.3302 -18.3271 -18.2987 -18.2927 -18.2303 -18.2281
   -18.2115 -18.2107 -18.2094 -18.2093 -18.2076 -18.2040 -18.2011 -18.1954
   -18.1929 -18.1912 -18.1642 -18.1592 -18.0380 -18.0354 -18.0266 -18.0208
   -18.0144 -18.0134 -18.0088 -18.0058 -17.9985 -17.9891 -17.9835 -17.9818
   -17.9816 -17.9783  -4.4416  -3.0880  -1.9060  -1.3763  -1.1479  -1.1182
    -1.0280  -0.9235  -0.5647  -0.4867  -0.4090  -0.1450  -0.1331  -0.0043
     0.0808   0.2863   0.9037   0.9564   1.0548   1.2131   1.5425   1.5844
     1.7940   1.9685   2.0178   2.0837   2.2014   2.2688   2.3091   2.4718
     2.5222   2.6149   2.6570   2.9338   3.1584   3.2362   3.4321   3.6137
     3.6399   3.7059   3.7209   3.7860   3.8243   3.9977   4.0226   4.1087
     4.3826

          k = 0.0000 0.0292 0.0000 ( 38199 PWs)   bands (ev):

   -66.6700 -66.6253 -66.5340 -66.4887 -66.3483 -66.3029 -48.1495 -48.1184
   -48.0643 -48.0333 -47.5612 -47.4754 -33.2285 -33.1633 -33.1607 -33.0738
   -33.0156 -32.9829 -32.9247 -32.9034 -32.8427 -32.8202 -32.7361 -32.6285
   -32.5442 -32.5112 -32.4311 -32.4074 -32.3372 -32.2961 -27.0860 -27.0647
   -26.8228 -26.7726 -26.7420 -26.6966 -26.6598 -26.6061 -26.5853 -26.5309
   -26.5187 -26.4531 -26.4327 -26.1609 -26.0901 -26.0645 -25.9887 -25.8823
   -18.3767 -18.3760 -18.3684 -18.3681 -18.3665 -18.3584 -18.3558 -18.3552
   -18.3478 -18.3335 -18.3302 -18.3271 -18.2987 -18.2927 -18.2303 -18.2281
   -18.2115 -18.2107 -18.2095 -18.2093 -18.2076 -18.2040 -18.2011 -18.1954
   -18.1930 -18.1911 -18.1642 -18.1592 -18.0380 -18.0354 -18.0266 -18.0208
   -18.0144 -18.0134 -18.0088 -18.0058 -17.9985 -17.9891 -17.9835 -17.9818
   -17.9816 -17.9782  -4.3307  -3.0032  -1.8730  -1.3224  -1.2162  -1.0638
    -1.0173  -0.8334  -0.4775  -0.4232  -0.3215  -0.1016   0.0057   0.0567
     0.1606   0.2753   0.9109   0.9661   0.9749   1.2295   1.4536   1.5248
     1.6521   1.8888   1.9913   1.9928   2.1372   2.1974   2.1996   2.3562
     2.4699   2.4839   2.5612   2.8775   2.9376   3.1869   3.2377   3.4045
     3.6037   3.6320   3.6639   3.8465   3.8467   4.0452   4.1088   4.1325
     4.3231

          k = 0.0000 0.0438 0.0000 ( 38150 PWs)   bands (ev):

   -66.6700 -66.6253 -66.5340 -66.4887 -66.3483 -66.3029 -48.1495 -48.1184
   -48.0643 -48.0333 -47.5613 -47.4754 -33.2281 -33.1625 -33.1603 -33.0735
   -33.0155 -32.9832 -32.9235 -32.9034 -32.8422 -32.8194 -32.7357 -32.6278
   -32.5443 -32.5112 -32.4311 -32.4074 -32.3372 -32.2961 -27.0869 -27.0656
   -26.8245 -26.7718 -26.7426 -26.6963 -26.6625 -26.6084 -26.5862 -26.5316
   -26.5195 -26.4532 -26.4328 -26.1609 -26.0900 -26.0665 -25.9894 -25.8824
   -18.3767 -18.3760 -18.3684 -18.3681 -18.3665 -18.3584 -18.3559 -18.3552
   -18.3477 -18.3335 -18.3303 -18.3271 -18.2987 -18.2927 -18.2303 -18.2281
   -18.2115 -18.2107 -18.2095 -18.2093 -18.2076 -18.2040 -18.2011 -18.1955
   -18.1930 -18.1911 -18.1642 -18.1592 -18.0380 -18.0354 -18.0266 -18.0208
   -18.0144 -18.0134 -18.0088 -18.0058 -17.9985 -17.9891 -17.9835 -17.9818
   -17.9816 -17.9782  -4.1559  -2.8902  -1.8790  -1.2698  -1.2433  -0.9843
    -0.9758  -0.6937  -0.3647  -0.3133  -0.1918  -0.0575   0.1073   0.2182
     0.3016   0.3022   0.8419   0.9254   0.9775   1.2106   1.3169   1.4021
     1.5109   1.7708   1.8335   1.8823   2.0328   2.0840   2.1402   2.2350
     2.2359   2.4112   2.4925   2.6069   2.9105   2.9782   3.1292   3.1462
     3.5016   3.5455   3.7366   3.7856   3.9421   4.0862   4.1249   4.1794
     4.2460

          k = 0.0000 0.0584 0.0000 ( 38172 PWs)   bands (ev):

   -66.6700 -66.6253 -66.5340 -66.4887 -66.3483 -66.3029 -48.1496 -48.1184
   -48.0643 -48.0333 -47.5613 -47.4754 -33.2277 -33.1618 -33.1600 -33.0733
   -33.0153 -32.9834 -32.9222 -32.9035 -32.8419 -32.8186 -32.7353 -32.6271
   -32.5443 -32.5111 -32.4311 -32.4073 -32.3373 -32.2961 -27.0878 -27.0665
   -26.8261 -26.7710 -26.7432 -26.6960 -26.6652 -26.6107 -26.5872 -26.5324
   -26.5203 -26.4533 -26.4329 -26.1608 -26.0900 -26.0685 -25.9901 -25.8824
   -18.3767 -18.3760 -18.3685 -18.3681 -18.3665 -18.3584 -18.3559 -18.3552
   -18.3477 -18.3335 -18.3304 -18.3271 -18.2987 -18.2927 -18.2303 -18.2281
   -18.2115 -18.2107 -18.2095 -18.2093 -18.2076 -18.2040 -18.2011 -18.1956
   -18.1930 -18.1912 -18.1642 -18.1592 -18.0380 -18.0354 -18.0266 -18.0210
   -18.0144 -18.0135 -18.0088 -18.0058 -17.9985 -17.9891 -17.9835 -17.9818
   -17.9817 -17.9783  -3.9364  -2.8102  -1.9274  -1.3079  -1.1561  -0.8968
    -0.8705  -0.5231  -0.2433  -0.1710  -0.0540  -0.0126   0.0876   0.4087
     0.4227   0.5428   0.6537   0.9380   0.9862   1.0992   1.2029   1.2438
     1.4220   1.6149   1.6373   1.7557   1.9575   1.9639   1.9792   2.1108
     2.1516   2.1625   2.3672   2.5125   2.7611   2.7803   2.9736   3.1479
     3.4297   3.4784   3.7277   3.8152   3.9813   4.0130   4.0553   4.1853
     4.2308

          k = 0.0000 0.0730 0.0000 ( 38164 PWs)   bands (ev):

   -66.6700 -66.6253 -66.5340 -66.4887 -66.3483 -66.3029 -48.1496 -48.1185
   -48.0643 -48.0333 -47.5613 -47.4754 -33.2274 -33.1613 -33.1597 -33.0732
   -33.0152 -32.9836 -32.9214 -32.9036 -32.8415 -32.8180 -32.7350 -32.6266
   -32.5444 -32.5111 -32.4310 -32.4073 -32.3373 -32.2961 -27.0885 -27.0671
   -26.8273 -26.7706 -26.7435 -26.6958 -26.6672 -26.6125 -26.5879 -26.5330
   -26.5209 -26.4533 -26.4329 -26.1609 -26.0899 -26.0700 -25.9906 -25.8825
   -18.3767 -18.3760 -18.3684 -18.3682 -18.3665 -18.3584 -18.3559 -18.3552
   -18.3478 -18.3335 -18.3304 -18.3271 -18.2987 -18.2927 -18.2303 -18.2281
   -18.2115 -18.2107 -18.2095 -18.2094 -18.2076 -18.2041 -18.2011 -18.1956
   -18.1930 -18.1911 -18.1642 -18.1592 -18.0380 -18.0354 -18.0266 -18.0210
   -18.0144 -18.0135 -18.0088 -18.0058 -17.9985 -17.9891 -17.9836 -17.9819
   -17.9816 -17.9782  -3.7159  -2.8372  -1.9209  -1.3778  -1.0854  -0.8262
    -0.7139  -0.3562  -0.1332  -0.0334  -0.0185   0.0216   0.1039   0.4351
     0.5644   0.5721   0.7728   0.9323   0.9738   1.0084   1.0999   1.1805
     1.3771   1.4681   1.4972   1.6980   1.7544   1.8111   1.8910   1.9359
     2.0688   2.1038   2.1334   2.5316   2.5741   2.6692   2.9787   3.1892
     3.3760   3.4593   3.7413   3.7845   3.8788   3.9699   4.0415   4.1563
     4.2226

          k = 0.0000-0.0875 0.0000 ( 38234 PWs)   bands (ev):

   -66.6700 -66.6253 -66.5340 -66.4887 -66.3483 -66.3029 -48.1496 -48.1185
   -48.0643 -48.0333 -47.5613 -47.4754 -33.2273 -33.1611 -33.1596 -33.0731
   -33.0152 -32.9837 -32.9211 -32.9036 -32.8415 -32.8178 -32.7349 -32.6264
   -32.5444 -32.5111 -32.4310 -32.4073 -32.3373 -32.2961 -27.0888 -27.0674
   -26.8277 -26.7704 -26.7438 -26.6958 -26.6680 -26.6131 -26.5881 -26.5332
   -26.5211 -26.4534 -26.4330 -26.1609 -26.0899 -26.0706 -25.9908 -25.8825
   -18.3767 -18.3760 -18.3685 -18.3682 -18.3666 -18.3584 -18.3559 -18.3552
   -18.3478 -18.3335 -18.3305 -18.3272 -18.2987 -18.2927 -18.2303 -18.2281
   -18.2115 -18.2107 -18.2096 -18.2094 -18.2077 -18.2041 -18.2011 -18.1956
   -18.1931 -18.1912 -18.1642 -18.1592 -18.0380 -18.0354 -18.0267 -18.0211
   -18.0145 -18.0135 -18.0088 -18.0058 -17.9986 -17.9891 -17.9836 -17.9819
   -17.9817 -17.9783  -3.6055  -2.8917  -1.8856  -1.4275  -1.0576  -0.7986
    -0.6281  -0.2689  -0.0807  -0.0568   0.0291   0.0385   0.1406   0.3181
     0.6369   0.6471   0.8373   0.8814   0.9299   1.0153   1.0767   1.3050
     1.3178   1.3975   1.4913   1.6289   1.6580   1.6759   1.8662   1.8867
     1.9693   2.0455   2.1361   2.4893   2.5390   2.6487   2.9920   3.2173
     3.3506   3.4765   3.6825   3.7872   3.9041   3.9637   3.9841   4.0892
     4.1993

          k = 0.0145 0.0073 0.0000 ( 38230 PWs)   bands (ev):

   -66.6692 -66.6261 -66.5333 -66.4895 -66.3475 -66.3037 -48.1480 -48.1169
   -48.0658 -48.0347 -47.5597 -47.4769 -33.2172 -33.1624 -33.1491 -33.0754
   -33.0042 -32.9813 -32.9244 -32.9047 -32.8444 -32.8195 -32.7379 -32.6277
   -32.5456 -32.5240 -32.4442 -32.4062 -32.3384 -32.3090 -27.0748 -27.0535
   -26.8199 -26.7721 -26.7430 -26.6981 -26.6561 -26.6027 -26.5859 -26.5316
   -26.5075 -26.4643 -26.4439 -26.1598 -26.0914 -26.0613 -25.9895 -25.8936
   -18.3764 -18.3756 -18.3685 -18.3680 -18.3665 -18.3587 -18.3557 -18.3549
   -18.3479 -18.3340 -18.3297 -18.3266 -18.2992 -18.2935 -18.2299 -18.2277
   -18.2117 -18.2108 -18.2093 -18.2092 -18.2076 -18.2040 -18.2012 -18.1950
   -18.1925 -18.1916 -18.1647 -18.1600 -18.0373 -18.0350 -18.0261 -18.0206
   -18.0146 -18.0133 -18.0093 -18.0060 -17.9990 -17.9900 -17.9835 -17.9818
   -17.9817 -17.9784  -4.4229  -3.0621  -1.8653  -1.3675  -1.1745  -1.0874
    -0.9889  -0.9392  -0.5431  -0.5291  -0.3687  -0.1920  -0.1141   0.0070
     0.0740   0.3225   0.9114   0.9629   1.0862   1.2362   1.5720   1.5811
     1.8670   1.9566   2.0511   2.0644   2.1932   2.2697   2.3922   2.4841
     2.5160   2.5815   2.7040   2.8866   3.2288   3.2451   3.4205   3.5495
     3.6423   3.6864   3.6971   3.7287   3.8666   3.9183   3.9548   4.0458
     4.2907

          k = 0.0145 0.0219 0.0000 ( 38219 PWs)   bands (ev):

   -66.6692 -66.6261 -66.5333 -66.4895 -66.3475 -66.3037 -48.1480 -48.1169
   -48.0658 -48.0347 -47.5598 -47.4769 -33.2170 -33.1621 -33.1490 -33.0753
   -33.0041 -32.9814 -32.9238 -32.9047 -32.8442 -32.8191 -32.7377 -32.6274
   -32.5456 -32.5240 -32.4442 -32.4062 -32.3384 -32.3090 -27.0752 -27.0540
   -26.8208 -26.7716 -26.7433 -26.6980 -26.6575 -26.6039 -26.5863 -26.5319
   -26.5079 -26.4644 -26.4439 -26.1597 -26.0913 -26.0624 -25.9898 -25.8936
   -18.3764 -18.3756 -18.3685 -18.3680 -18.3665 -18.3587 -18.3557 -18.3549
   -18.3479 -18.3340 -18.3297 -18.3266 -18.2992 -18.2935 -18.2299 -18.2277
   -18.2117 -18.2108 -18.2093 -18.2092 -18.2076 -18.2040 -18.2012 -18.1950
   -18.1925 -18.1916 -18.1647 -18.1600 -18.0373 -18.0350 -18.0261 -18.0206
   -18.0146 -18.0133 -18.0093 -18.0060 -17.9990 -17.9900 -17.9835 -17.9818
   -17.9817 -17.9784  -4.3480  -3.0025  -1.8346  -1.3318  -1.1562  -1.1430
    -0.9866  -0.8620  -0.4891  -0.4784  -0.3097  -0.0923  -0.0923   0.0536
     0.1261   0.3140   0.9169   0.9696   1.0316   1.2479   1.5212   1.5471
     1.7272   1.9481   1.9881   2.0080   2.1535   2.2307   2.3040   2.3861
     2.5003   2.5264   2.5888   2.9039   2.9824   3.2034   3.3144   3.4878
     3.5762   3.6467   3.6626   3.7608   3.8684   3.9592   4.0122   4.0993
     4.2630

          k = 0.0145 0.0365 0.0000 ( 38187 PWs)   bands (ev):

   -66.6692 -66.6261 -66.5333 -66.4895 -66.3475 -66.3037 -48.1481 -48.1170
   -48.0658 -48.0347 -47.5598 -47.4769 -33.2166 -33.1614 -33.1487 -33.0752
   -33.0039 -32.9817 -32.9227 -32.9048 -32.8438 -32.8184 -32.7373 -32.6267
   -32.5457 -32.5240 -32.4442 -32.4062 -32.3384 -32.3090 -27.0760 -27.0548
   -26.8223 -26.7709 -26.7437 -26.6977 -26.6598 -26.6059 -26.5871 -26.5326
   -26.5086 -26.4644 -26.4440 -26.1597 -26.0913 -26.0642 -25.9904 -25.8937
   -18.3764 -18.3756 -18.3685 -18.3680 -18.3665 -18.3586 -18.3557 -18.3549
   -18.3479 -18.3340 -18.3298 -18.3266 -18.2992 -18.2935 -18.2299 -18.2277
   -18.2117 -18.2108 -18.2093 -18.2092 -18.2076 -18.2040 -18.2012 -18.1950
   -18.1925 -18.1916 -18.1647 -18.1600 -18.0373 -18.0350 -18.0261 -18.0207
   -18.0146 -18.0133 -18.0093 -18.0060 -17.9990 -17.9900 -17.9835 -17.9818
   -17.9817 -17.9784  -4.2038  -2.8980  -1.8147  -1.2662  -1.2108  -1.1145
    -0.9650  -0.7254  -0.4041  -0.3766  -0.2001  -0.0534   0.0782   0.1288
     0.2333   0.3165   0.9144   0.9401   0.9802   1.2541   1.3897   1.4575
     1.5809   1.8349   1.8671   1.9491   2.0388   2.1753   2.1893   2.2635
     2.3183   2.4871   2.5033   2.6977   2.9055   3.0707   3.1490   3.2525
     3.5488   3.5619   3.6685   3.8419   3.8446   4.0343   4.1013   4.1258
     4.1885

          k = 0.0145 0.0511 0.0000 ( 38169 PWs)   bands (ev):

   -66.6692 -66.6261 -66.5333 -66.4895 -66.3475 -66.3037 -48.1481 -48.1170
   -48.0658 -48.0347 -47.5598 -47.4769 -33.2162 -33.1607 -33.1483 -33.0750
   -33.0037 -32.9819 -32.9215 -32.9048 -32.8434 -32.8176 -32.7369 -32.6260
   -32.5457 -32.5240 -32.4442 -32.4061 -32.3385 -32.3090 -27.0770 -27.0557
   -26.8239 -26.7701 -26.7443 -26.6975 -26.6626 -26.6083 -26.5880 -26.5333
   -26.5095 -26.4645 -26.4440 -26.1596 -26.0912 -26.0662 -25.9910 -25.8937
   -18.3764 -18.3756 -18.3685 -18.3681 -18.3665 -18.3587 -18.3557 -18.3549
   -18.3479 -18.3340 -18.3298 -18.3266 -18.2992 -18.2935 -18.2299 -18.2277
   -18.2117 -18.2108 -18.2094 -18.2093 -18.2076 -18.2040 -18.2012 -18.1951
   -18.1925 -18.1916 -18.1647 -18.1600 -18.0374 -18.0350 -18.0261 -18.0207
   -18.0146 -18.0133 -18.0093 -18.0060 -17.9990 -17.9900 -17.9835 -17.9818
   -17.9817 -17.9784  -4.0033  -2.7901  -1.8549  -1.2457  -1.1830  -1.0548
    -0.8988  -0.5514  -0.2783  -0.2585  -0.0627  -0.0074   0.1337   0.2971
     0.3842   0.4246   0.7656   0.9434   0.9881   1.1713   1.2701   1.3147
     1.4476   1.6987   1.7003   1.7896   1.9793   2.0306   2.0827   2.1246
     2.1763   2.3175   2.4678   2.5194   2.7751   2.8860   3.0167   3.1240
     3.4679   3.4922   3.7444   3.7735   3.9403   4.0316   4.0458   4.1576
     4.2989

          k = 0.0145 0.0657 0.0000 ( 38167 PWs)   bands (ev):

   -66.6692 -66.6261 -66.5333 -66.4895 -66.3475 -66.3037 -48.1481 -48.1170
   -48.0658 -48.0348 -47.5599 -47.4769 -33.2159 -33.1601 -33.1480 -33.0747
   -33.0036 -32.9822 -32.9204 -32.9049 -32.8431 -32.8169 -32.7366 -32.6254
   -32.5458 -32.5240 -32.4442 -32.4061 -32.3385 -32.3090 -27.0778 -27.0564
   -26.8253 -26.7695 -26.7447 -26.6972 -26.6650 -26.6103 -26.5888 -26.5340
   -26.5102 -26.4645 -26.4441 -26.1596 -26.0911 -26.0680 -25.9916 -25.8937
   -18.3764 -18.3757 -18.3685 -18.3681 -18.3665 -18.3587 -18.3558 -18.3549
   -18.3479 -18.3339 -18.3299 -18.3267 -18.2992 -18.2935 -18.2299 -18.2277
   -18.2118 -18.2108 -18.2094 -18.2093 -18.2076 -18.2040 -18.2012 -18.1952
   -18.1926 -18.1915 -18.1647 -18.1600 -18.0374 -18.0350 -18.0262 -18.0208
   -18.0146 -18.0133 -18.0092 -18.0060 -17.9990 -17.9900 -17.9836 -17.9818
   -17.9817 -17.9783  -3.7747  -2.7594  -1.8894  -1.2978  -1.1018  -0.9951
    -0.7570  -0.3683  -0.1419  -0.1357   0.0334   0.0504   0.1052   0.4900
     0.5257   0.5504   0.6654   0.9581   0.9788   1.0483   1.1403   1.1846
     1.3990   1.5248   1.5362   1.7080   1.7587   1.9104   1.9473   2.0743
     2.0931   2.1492   2.2386   2.5400   2.5748   2.7361   2.9668   3.1491
     3.4061   3.4439   3.7294   3.8047   3.8666   3.9954   3.9986   4.1725
     4.2864

          k = 0.0145 0.0803 0.0000 ( 38201 PWs)   bands (ev):

   -66.6692 -66.6261 -66.5333 -66.4895 -66.3475 -66.3037 -48.1482 -48.1170
   -48.0658 -48.0348 -47.5599 -47.4769 -33.2157 -33.1597 -33.1478 -33.0747
   -33.0035 -32.9823 -32.9198 -32.9050 -32.8429 -32.8165 -32.7364 -32.6251
   -32.5459 -32.5240 -32.4441 -32.4061 -32.3385 -32.3090 -27.0783 -27.0569
   -26.8261 -26.7692 -26.7450 -26.6971 -26.6663 -26.6115 -26.5892 -26.5344
   -26.5106 -26.4646 -26.4441 -26.1597 -26.0911 -26.0690 -25.9920 -25.8938
   -18.3764 -18.3757 -18.3685 -18.3682 -18.3665 -18.3587 -18.3558 -18.3549
   -18.3479 -18.3340 -18.3300 -18.3267 -18.2992 -18.2935 -18.2299 -18.2277
   -18.2118 -18.2108 -18.2094 -18.2093 -18.2077 -18.2040 -18.2012 -18.1952
   -18.1926 -18.1916 -18.1647 -18.1600 -18.0374 -18.0350 -18.0262 -18.0209
   -18.0146 -18.0133 -18.0093 -18.0060 -17.9990 -17.9900 -17.9836 -17.9818
   -17.9817 -17.9784  -3.5885  -2.8262  -1.8495  -1.3755  -1.0493  -0.9577
    -0.6088  -0.2230  -0.0594  -0.0425   0.0308   0.0614   0.1549   0.3602
     0.6143   0.6648   0.8370   0.8994   0.9231   1.0186   1.0872   1.2125
     1.3268   1.3725   1.4889   1.5744   1.6643   1.8109   1.8673   1.9440
     2.0313   2.0330   2.1557   2.4779   2.5532   2.6285   3.0004   3.1963
     3.3580   3.4366   3.6942   3.7253   3.8903   3.9373   4.0131   4.1776
     4.1892

          k = 0.0145-0.0803 0.0000 ( 38201 PWs)   bands (ev):

   -66.6692 -66.6261 -66.5333 -66.4895 -66.3475 -66.3037 -48.1482 -48.1170
   -48.0658 -48.0348 -47.5599 -47.4769 -33.2157 -33.1597 -33.1478 -33.0747
   -33.0035 -32.9823 -32.9198 -32.9050 -32.8429 -32.8165 -32.7364 -32.6251
   -32.5459 -32.5240 -32.4441 -32.4061 -32.3385 -32.3090 -27.0783 -27.0569
   -26.8261 -26.7692 -26.7450 -26.6971 -26.6663 -26.6115 -26.5892 -26.5344
   -26.5106 -26.4646 -26.4441 -26.1597 -26.0911 -26.0690 -25.9920 -25.8938
   -18.3764 -18.3757 -18.3685 -18.3682 -18.3665 -18.3587 -18.3558 -18.3549
   -18.3479 -18.3340 -18.3300 -18.3267 -18.2992 -18.2935 -18.2299 -18.2277
   -18.2118 -18.2108 -18.2094 -18.2093 -18.2077 -18.2040 -18.2012 -18.1952
   -18.1926 -18.1916 -18.1647 -18.1600 -18.0374 -18.0350 -18.0262 -18.0209
   -18.0146 -18.0133 -18.0093 -18.0060 -17.9990 -17.9900 -17.9836 -17.9818
   -17.9817 -17.9784  -3.5885  -2.8262  -1.8495  -1.3755  -1.0493  -0.9577
    -0.6088  -0.2230  -0.0594  -0.0425   0.0308   0.0614   0.1549   0.3602
     0.6143   0.6648   0.8370   0.8994   0.9231   1.0186   1.0871   1.2125
     1.3268   1.3724   1.4889   1.5744   1.6643   1.8109   1.8673   1.9440
     2.0313   2.0330   2.1557   2.4779   2.5532   2.6285   3.0004   3.1962
     3.3580   3.4366   3.6942   3.7253   3.8902   3.9371   4.0128   4.1776
     4.1892

          k = 0.0145-0.0657 0.0000 ( 38167 PWs)   bands (ev):

   -66.6692 -66.6261 -66.5333 -66.4895 -66.3475 -66.3037 -48.1481 -48.1170
   -48.0658 -48.0348 -47.5599 -47.4769 -33.2159 -33.1601 -33.1480 -33.0747
   -33.0036 -32.9822 -32.9204 -32.9049 -32.8431 -32.8169 -32.7366 -32.6254
   -32.5458 -32.5240 -32.4442 -32.4061 -32.3385 -32.3090 -27.0778 -27.0564
   -26.8253 -26.7695 -26.7447 -26.6972 -26.6650 -26.6103 -26.5888 -26.5340
   -26.5102 -26.4645 -26.4441 -26.1596 -26.0911 -26.0680 -25.9916 -25.8937
   -18.3764 -18.3757 -18.3685 -18.3681 -18.3665 -18.3587 -18.3558 -18.3549
   -18.3479 -18.3339 -18.3299 -18.3267 -18.2992 -18.2935 -18.2299 -18.2277
   -18.2118 -18.2108 -18.2094 -18.2093 -18.2076 -18.2040 -18.2012 -18.1952
   -18.1926 -18.1915 -18.1647 -18.1600 -18.0374 -18.0350 -18.0262 -18.0208
   -18.0146 -18.0133 -18.0092 -18.0060 -17.9990 -17.9900 -17.9836 -17.9818
   -17.9817 -17.9783  -3.7747  -2.7594  -1.8894  -1.2978  -1.1018  -0.9951
    -0.7570  -0.3683  -0.1419  -0.1357   0.0334   0.0504   0.1052   0.4900
     0.5257   0.5504   0.6653   0.9581   0.9789   1.0483   1.1403   1.1846
     1.3990   1.5248   1.5362   1.7080   1.7587   1.9104   1.9473   2.0743
     2.0931   2.1492   2.2387   2.5400   2.5748   2.7362   2.9668   3.1491
     3.4062   3.4439   3.7295   3.8047   3.8667   3.9955   3.9985   4.1723
     4.2860

          k = 0.0145-0.0511 0.0000 ( 38169 PWs)   bands (ev):

   -66.6692 -66.6261 -66.5333 -66.4895 -66.3475 -66.3037 -48.1481 -48.1170
   -48.0658 -48.0347 -47.5598 -47.4769 -33.2162 -33.1607 -33.1483 -33.0750
   -33.0037 -32.9819 -32.9215 -32.9048 -32.8434 -32.8176 -32.7369 -32.6260
   -32.5457 -32.5240 -32.4442 -32.4061 -32.3385 -32.3090 -27.0770 -27.0557
   -26.8239 -26.7701 -26.7443 -26.6975 -26.6626 -26.6083 -26.5880 -26.5333
   -26.5095 -26.4645 -26.4440 -26.1596 -26.0912 -26.0662 -25.9910 -25.8937
   -18.3764 -18.3756 -18.3685 -18.3681 -18.3665 -18.3587 -18.3557 -18.3549
   -18.3479 -18.3340 -18.3298 -18.3266 -18.2992 -18.2935 -18.2299 -18.2277
   -18.2117 -18.2108 -18.2094 -18.2093 -18.2076 -18.2040 -18.2012 -18.1951
   -18.1925 -18.1916 -18.1647 -18.1600 -18.0374 -18.0350 -18.0261 -18.0207
   -18.0146 -18.0133 -18.0093 -18.0060 -17.9990 -17.9900 -17.9835 -17.9818
   -17.9817 -17.9784  -4.0033  -2.7901  -1.8549  -1.2457  -1.1830  -1.0548
    -0.8988  -0.5514  -0.2783  -0.2585  -0.0627  -0.0074   0.1337   0.2971
     0.3841   0.4246   0.7656   0.9434   0.9881   1.1713   1.2701   1.3147
     1.4476   1.6987   1.7003   1.7896   1.9793   2.0306   2.0827   2.1246
     2.1763   2.3175   2.4678   2.5194   2.7751   2.8860   3.0166   3.1240
     3.4679   3.4923   3.7442   3.7735   3.9401   4.0314   4.0453   4.1574
     4.2982

          k = 0.0145-0.0365 0.0000 ( 38187 PWs)   bands (ev):

   -66.6692 -66.6261 -66.5333 -66.4895 -66.3475 -66.3037 -48.1481 -48.1170
   -48.0658 -48.0347 -47.5598 -47.4769 -33.2166 -33.1614 -33.1487 -33.0752
   -33.0039 -32.9817 -32.9227 -32.9048 -32.8438 -32.8184 -32.7373 -32.6267
   -32.5457 -32.5240 -32.4442 -32.4062 -32.3384 -32.3090 -27.0760 -27.0548
   -26.8223 -26.7709 -26.7437 -26.6977 -26.6598 -26.6059 -26.5871 -26.5326
   -26.5086 -26.4644 -26.4440 -26.1597 -26.0913 -26.0642 -25.9904 -25.8937
   -18.3764 -18.3756 -18.3685 -18.3680 -18.3665 -18.3586 -18.3557 -18.3549
   -18.3479 -18.3340 -18.3298 -18.3266 -18.2992 -18.2935 -18.2299 -18.2277
   -18.2117 -18.2108 -18.2093 -18.2092 -18.2076 -18.2040 -18.2012 -18.1950
   -18.1925 -18.1916 -18.1647 -18.1600 -18.0373 -18.0350 -18.0261 -18.0207
   -18.0146 -18.0133 -18.0093 -18.0060 -17.9990 -17.9900 -17.9835 -17.9818
   -17.9817 -17.9784  -4.2038  -2.8980  -1.8147  -1.2662  -1.2108  -1.1145
    -0.9650  -0.7253  -0.4041  -0.3766  -0.2001  -0.0534   0.0782   0.1288
     0.2333   0.3166   0.9144   0.9401   0.9802   1.2541   1.3897   1.4575
     1.5810   1.8349   1.8671   1.9491   2.0388   2.1753   2.1893   2.2635
     2.3182   2.4871   2.5033   2.6977   2.9055   3.0706   3.1490   3.2525
     3.5487   3.5619   3.6685   3.8420   3.8445   4.0343   4.1013   4.1258
     4.1884

          k = 0.0145-0.0219 0.0000 ( 38219 PWs)   bands (ev):

   -66.6692 -66.6261 -66.5333 -66.4895 -66.3475 -66.3037 -48.1480 -48.1169
   -48.0658 -48.0347 -47.5598 -47.4769 -33.2170 -33.1621 -33.1490 -33.0753
   -33.0041 -32.9814 -32.9238 -32.9047 -32.8442 -32.8191 -32.7377 -32.6274
   -32.5456 -32.5240 -32.4442 -32.4062 -32.3384 -32.3090 -27.0752 -27.0540
   -26.8208 -26.7716 -26.7433 -26.6980 -26.6575 -26.6039 -26.5863 -26.5319
   -26.5079 -26.4644 -26.4439 -26.1597 -26.0913 -26.0624 -25.9898 -25.8936
   -18.3764 -18.3756 -18.3685 -18.3680 -18.3665 -18.3587 -18.3557 -18.3549
   -18.3479 -18.3340 -18.3297 -18.3266 -18.2992 -18.2935 -18.2299 -18.2277
   -18.2117 -18.2108 -18.2093 -18.2092 -18.2076 -18.2040 -18.2012 -18.1950
   -18.1925 -18.1916 -18.1647 -18.1600 -18.0373 -18.0350 -18.0261 -18.0206
   -18.0146 -18.0133 -18.0093 -18.0060 -17.9990 -17.9900 -17.9835 -17.9818
   -17.9817 -17.9784  -4.3480  -3.0025  -1.8346  -1.3318  -1.1562  -1.1430
    -0.9866  -0.8619  -0.4890  -0.4784  -0.3097  -0.0923  -0.0923   0.0536
     0.1261   0.3140   0.9169   0.9696   1.0316   1.2479   1.5212   1.5471
     1.7272   1.9481   1.9881   2.0080   2.1535   2.2307   2.3040   2.3861
     2.5003   2.5264   2.5887   2.9038   2.9825   3.2034   3.3144   3.4878
     3.5762   3.6467   3.6626   3.7607   3.8685   3.9593   4.0122   4.0993
     4.2626

          k = 0.0145-0.0073 0.0000 ( 38230 PWs)   bands (ev):

   -66.6692 -66.6261 -66.5333 -66.4895 -66.3475 -66.3037 -48.1480 -48.1169
   -48.0658 -48.0347 -47.5597 -47.4769 -33.2172 -33.1624 -33.1491 -33.0754
   -33.0042 -32.9813 -32.9244 -32.9047 -32.8444 -32.8195 -32.7379 -32.6277
   -32.5456 -32.5240 -32.4442 -32.4062 -32.3384 -32.3090 -27.0748 -27.0535
   -26.8199 -26.7721 -26.7430 -26.6981 -26.6561 -26.6027 -26.5859 -26.5316
   -26.5075 -26.4643 -26.4439 -26.1598 -26.0914 -26.0613 -25.9895 -25.8936
   -18.3764 -18.3756 -18.3685 -18.3680 -18.3665 -18.3587 -18.3557 -18.3549
   -18.3479 -18.3340 -18.3297 -18.3266 -18.2992 -18.2935 -18.2299 -18.2277
   -18.2117 -18.2108 -18.2093 -18.2092 -18.2076 -18.2040 -18.2012 -18.1950
   -18.1925 -18.1916 -18.1647 -18.1600 -18.0373 -18.0350 -18.0261 -18.0206
   -18.0146 -18.0133 -18.0093 -18.0060 -17.9990 -17.9900 -17.9835 -17.9818
   -17.9817 -17.9784  -4.4229  -3.0621  -1.8653  -1.3675  -1.1745  -1.0874
    -0.9889  -0.9392  -0.5431  -0.5291  -0.3687  -0.1920  -0.1141   0.0070
     0.0740   0.3225   0.9114   0.9629   1.0862   1.2362   1.5720   1.5811
     1.8671   1.9566   2.0511   2.0644   2.1932   2.2697   2.3922   2.4841
     2.5160   2.5815   2.7039   2.8866   3.2288   3.2451   3.4204   3.5496
     3.6423   3.6864   3.6972   3.7287   3.8666   3.9183   3.9548   4.0460
     4.2908

          k = 0.0290 0.0146 0.0000 ( 38190 PWs)   bands (ev):

   -66.6670 -66.6283 -66.5310 -66.4918 -66.3453 -66.3060 -48.1438 -48.1127
   -48.0701 -48.0390 -47.5555 -47.4812 -33.1828 -33.1578 -33.1143 -33.0797
   -32.9774 -32.9699 -32.9200 -32.9086 -32.8482 -32.8151 -32.7419 -32.6234
   -32.5614 -32.5498 -32.4823 -32.4027 -32.3465 -32.3419 -27.0445 -27.0233
   -26.8164 -26.7681 -26.7474 -26.7018 -26.6532 -26.5997 -26.5902 -26.5358
   -26.4973 -26.4770 -26.4768 -26.1562 -26.0949 -26.0581 -25.9937 -25.9267
   -18.3757 -18.3745 -18.3687 -18.3679 -18.3666 -18.3594 -18.3553 -18.3542
   -18.3483 -18.3353 -18.3283 -18.3252 -18.3007 -18.2959 -18.2286 -18.2264
   -18.2124 -18.2112 -18.2091 -18.2089 -18.2077 -18.2037 -18.2016 -18.1937
   -18.1927 -18.1912 -18.1662 -18.1624 -18.0354 -18.0336 -18.0247 -18.0201
   -18.0150 -18.0129 -18.0105 -18.0064 -18.0003 -17.9925 -17.9834 -17.9818
   -17.9816 -17.9787  -4.2563  -2.8966  -1.6962  -1.3361  -1.2553  -1.0027
    -0.8854  -0.8736  -0.5404  -0.3789  -0.2313  -0.1647  -0.0221   0.0866
     0.1504   0.4088   0.9378   0.9922   1.0944   1.3235   1.5254   1.5861
     1.8080   1.9189   1.9368   2.0354   2.1073   2.2768   2.3508   2.4034
     2.4891   2.5528   2.5846   2.7877   3.0037   3.1985   3.3043   3.4147
     3.4464   3.5391   3.5991   3.6605   3.7813   3.8733   3.8979   4.0087
     4.0761

          k = 0.0290 0.0292 0.0000 ( 38165 PWs)   bands (ev):

   -66.6670 -66.6283 -66.5310 -66.4918 -66.3453 -66.3060 -48.1439 -48.1127
   -48.0701 -48.0390 -47.5555 -47.4812 -33.1825 -33.1573 -33.1141 -33.0796
   -32.9776 -32.9698 -32.9192 -32.9086 -32.8480 -32.8145 -32.7416 -32.6229
   -32.5614 -32.5498 -32.4823 -32.4027 -32.3465 -32.3420 -27.0451 -27.0239
   -26.8175 -26.7675 -26.7477 -26.7016 -26.6549 -26.6012 -26.5907 -26.5363
   -26.4973 -26.4776 -26.4768 -26.1561 -26.0949 -26.0595 -25.9941 -25.9267
   -18.3757 -18.3746 -18.3687 -18.3679 -18.3666 -18.3593 -18.3553 -18.3542
   -18.3483 -18.3353 -18.3283 -18.3252 -18.3007 -18.2959 -18.2287 -18.2264
   -18.2124 -18.2112 -18.2091 -18.2089 -18.2077 -18.2037 -18.2016 -18.1938
   -18.1927 -18.1911 -18.1662 -18.1624 -18.0354 -18.0336 -18.0247 -18.0201
   -18.0150 -18.0129 -18.0105 -18.0064 -18.0003 -17.9925 -17.9834 -17.9819
   -17.9816 -17.9787  -4.1464  -2.8108  -1.6628  -1.3478  -1.2099  -1.0776
    -0.8653  -0.7466  -0.4891  -0.2942  -0.1427  -0.0394   0.0084   0.1505
     0.2282   0.4053   0.9449   0.9982   1.0191   1.3228   1.4697   1.4856
     1.6508   1.8376   1.8801   1.9578   2.0068   2.2278   2.2656   2.2787
     2.3685   2.4936   2.5588   2.6940   2.8518   3.1205   3.1359   3.3044
     3.4423   3.5709   3.5872   3.7031   3.8749   3.8971   3.9529   4.0525
     4.0569

          k = 0.0290 0.0438 0.0000 ( 38168 PWs)   bands (ev):

   -66.6670 -66.6283 -66.5310 -66.4918 -66.3453 -66.3060 -48.1439 -48.1128
   -48.0701 -48.0390 -47.5556 -47.4812 -33.1821 -33.1566 -33.1138 -33.0795
   -32.9779 -32.9696 -32.9181 -32.9087 -32.8477 -32.8138 -32.7413 -32.6222
   -32.5614 -32.5499 -32.4823 -32.4026 -32.3466 -32.3420 -27.0460 -27.0247
   -26.8190 -26.7668 -26.7481 -26.7014 -26.6574 -26.6033 -26.5914 -26.5368
   -26.4973 -26.4783 -26.4768 -26.1561 -26.0948 -26.0613 -25.9946 -25.9267
   -18.3757 -18.3746 -18.3687 -18.3679 -18.3666 -18.3594 -18.3553 -18.3542
   -18.3483 -18.3353 -18.3284 -18.3253 -18.3007 -18.2959 -18.2287 -18.2264
   -18.2124 -18.2112 -18.2091 -18.2089 -18.2077 -18.2037 -18.2016 -18.1938
   -18.1927 -18.1912 -18.1662 -18.1624 -18.0354 -18.0336 -18.0247 -18.0202
   -18.0150 -18.0129 -18.0105 -18.0064 -18.0003 -17.9925 -17.9834 -17.9819
   -17.9817 -17.9787  -3.9725  -2.6952  -1.6809  -1.3461  -1.1392  -1.1198
    -0.8375  -0.5636  -0.3949  -0.1842  -0.0196   0.0514   0.1372   0.2187
     0.3569   0.4383   0.8800   0.9693   1.0016   1.2723   1.3312   1.3633
     1.4938   1.7191   1.7599   1.8036   1.9574   2.0597   2.1407   2.2089
     2.2125   2.3978   2.4889   2.5711   2.7719   2.8849   3.0812   3.1060
     3.4519   3.5138   3.6195   3.8162   3.8496   3.9248   4.0535   4.0616
     4.1201

          k = 0.0290 0.0584 0.0000 ( 38180 PWs)   bands (ev):

   -66.6670 -66.6283 -66.5310 -66.4918 -66.3453 -66.3060 -48.1439 -48.1128
   -48.0701 -48.0390 -47.5556 -47.4812 -33.1818 -33.1560 -33.1134 -33.0793
   -32.9781 -32.9694 -32.9170 -32.9087 -32.8474 -32.8131 -32.7410 -32.6216
   -32.5615 -32.5500 -32.4824 -32.4026 -32.3466 -32.3420 -27.0468 -27.0255
   -26.8205 -26.7661 -26.7485 -26.7012 -26.6599 -26.6054 -26.5921 -26.5374
   -26.4973 -26.4791 -26.4768 -26.1561 -26.0947 -26.0632 -25.9951 -25.9267
   -18.3757 -18.3746 -18.3687 -18.3680 -18.3666 -18.3594 -18.3554 -18.3542
   -18.3483 -18.3353 -18.3284 -18.3253 -18.3007 -18.2959 -18.2287 -18.2264
   -18.2124 -18.2112 -18.2091 -18.2090 -18.2077 -18.2037 -18.2016 -18.1939
   -18.1927 -18.1912 -18.1662 -18.1624 -18.0354 -18.0336 -18.0248 -18.0203
   -18.0150 -18.0129 -18.0105 -18.0064 -18.0003 -17.9925 -17.9835 -17.9819
   -17.9817 -17.9787  -3.7530  -2.6127  -1.7493  -1.3310  -1.1433  -1.0594
    -0.7396  -0.3810  -0.2538  -0.0673   0.0960   0.0983   0.2013   0.3764
     0.5046   0.5759   0.6851   0.9830   0.9865   1.1292   1.2035   1.2426
     1.3875   1.5772   1.5967   1.6997   1.7833   1.9156   2.0447   2.0549
     2.1972   2.2550   2.3451   2.5025   2.5913   2.8251   2.9408   3.0762
     3.4138   3.4603   3.6914   3.7580   3.8227   3.9302   4.0362   4.1567
     4.2390

          k = 0.0290 0.0730 0.0000 ( 38176 PWs)   bands (ev):

   -66.6670 -66.6283 -66.5310 -66.4918 -66.3453 -66.3060 -48.1439 -48.1128
   -48.0701 -48.0390 -47.5556 -47.4812 -33.1815 -33.1555 -33.1132 -33.0792
   -32.9783 -32.9693 -32.9161 -32.9088 -32.8472 -32.8126 -32.7408 -32.6211
   -32.5615 -32.5501 -32.4824 -32.4026 -32.3466 -32.3420 -27.0474 -27.0261
   -26.8216 -26.7657 -26.7488 -26.7010 -26.6617 -26.6070 -26.5926 -26.5378
   -26.4973 -26.4796 -26.4769 -26.1561 -26.0947 -26.0645 -25.9954 -25.9268
   -18.3757 -18.3746 -18.3687 -18.3680 -18.3666 -18.3594 -18.3554 -18.3542
   -18.3483 -18.3353 -18.3285 -18.3253 -18.3007 -18.2959 -18.2287 -18.2265
   -18.2125 -18.2112 -18.2092 -18.2090 -18.2077 -18.2037 -18.2016 -18.1939
   -18.1927 -18.1913 -18.1662 -18.1624 -18.0354 -18.0336 -18.0248 -18.0204
   -18.0151 -18.0129 -18.0105 -18.0065 -18.0003 -17.9925 -17.9835 -17.9819
   -17.9817 -17.9786  -3.5304  -2.6454  -1.7432  -1.3135  -1.2238  -0.9939
    -0.5638  -0.2476  -0.0855   0.0243   0.1317   0.1319   0.2078   0.4655
     0.5700   0.6650   0.7670   0.9168   0.9546   1.0239   1.1245   1.1632
     1.3247   1.4082   1.4928   1.5757   1.6341   1.8692   1.9118   1.9949
     2.0542   2.1904   2.2105   2.4036   2.6063   2.6388   2.9887   3.1264
     3.3681   3.3951   3.6734   3.6865   3.7940   3.9138   4.0695   4.1455
     4.3081

          k = 0.0290 0.0875 0.0000 ( 38214 PWs)   bands (ev):

   -66.6670 -66.6283 -66.5310 -66.4918 -66.3453 -66.3060 -48.1439 -48.1128
   -48.0701 -48.0390 -47.5556 -47.4812 -33.1814 -33.1553 -33.1131 -33.0791
   -32.9784 -32.9693 -32.9158 -32.9088 -32.8471 -32.8124 -32.7407 -32.6210
   -32.5615 -32.5501 -32.4824 -32.4026 -32.3467 -32.3420 -27.0477 -27.0264
   -26.8219 -26.7655 -26.7489 -26.7010 -26.6623 -26.6075 -26.5928 -26.5380
   -26.4973 -26.4799 -26.4769 -26.1561 -26.0947 -26.0650 -25.9956 -25.9268
   -18.3757 -18.3746 -18.3687 -18.3681 -18.3666 -18.3594 -18.3554 -18.3542
   -18.3483 -18.3353 -18.3285 -18.3254 -18.3007 -18.2959 -18.2287 -18.2265
   -18.2125 -18.2112 -18.2092 -18.2090 -18.2077 -18.2037 -18.2016 -18.1939
   -18.1927 -18.1913 -18.1662 -18.1624 -18.0354 -18.0336 -18.0248 -18.0204
   -18.0151 -18.0129 -18.0106 -18.0064 -18.0004 -17.9925 -17.9835 -17.9819
   -17.9818 -17.9787  -3.4173  -2.7064  -1.6976  -1.3059  -1.2871  -0.9681
    -0.4550  -0.1950   0.0197   0.0434   0.0883   0.1536   0.2290   0.3607
     0.6365   0.7765   0.8421   0.8740   0.9330   1.0542   1.0966   1.1232
     1.2335   1.2830   1.4709   1.5733   1.6081   1.8235   1.8487   1.9562
     1.9728   2.1273   2.2214   2.3994   2.5455   2.6102   3.0351   3.1726
     3.3374   3.3482   3.6393   3.6458   3.8179   3.8881   4.1364   4.1387
     4.2267

          k = 0.0290-0.0730 0.0000 ( 38176 PWs)   bands (ev):

   -66.6670 -66.6283 -66.5310 -66.4918 -66.3453 -66.3060 -48.1439 -48.1128
   -48.0701 -48.0390 -47.5556 -47.4812 -33.1815 -33.1555 -33.1132 -33.0792
   -32.9783 -32.9693 -32.9161 -32.9088 -32.8472 -32.8126 -32.7408 -32.6211
   -32.5615 -32.5501 -32.4824 -32.4026 -32.3466 -32.3420 -27.0474 -27.0261
   -26.8216 -26.7657 -26.7488 -26.7010 -26.6617 -26.6070 -26.5926 -26.5378
   -26.4973 -26.4796 -26.4769 -26.1561 -26.0947 -26.0645 -25.9954 -25.9268
   -18.3757 -18.3746 -18.3687 -18.3680 -18.3666 -18.3594 -18.3554 -18.3542
   -18.3483 -18.3353 -18.3285 -18.3253 -18.3007 -18.2959 -18.2287 -18.2265
   -18.2125 -18.2112 -18.2092 -18.2090 -18.2077 -18.2037 -18.2016 -18.1939
   -18.1927 -18.1913 -18.1662 -18.1624 -18.0354 -18.0336 -18.0248 -18.0204
   -18.0151 -18.0129 -18.0105 -18.0065 -18.0003 -17.9925 -17.9835 -17.9819
   -17.9817 -17.9786  -3.5304  -2.6454  -1.7432  -1.3135  -1.2238  -0.9939
    -0.5638  -0.2476  -0.0854   0.0243   0.1317   0.1319   0.2079   0.4655
     0.5700   0.6650   0.7670   0.9169   0.9546   1.0239   1.1245   1.1632
     1.3247   1.4082   1.4928   1.5756   1.6340   1.8692   1.9118   1.9949
     2.0542   2.1904   2.2105   2.4036   2.6063   2.6388   2.9887   3.1264
     3.3681   3.3951   3.6734   3.6866   3.7940   3.9139   4.0699   4.1454
     4.3093

          k = 0.0290-0.0584 0.0000 ( 38180 PWs)   bands (ev):

   -66.6670 -66.6283 -66.5310 -66.4918 -66.3453 -66.3060 -48.1439 -48.1128
   -48.0701 -48.0390 -47.5556 -47.4812 -33.1818 -33.1560 -33.1134 -33.0793
   -32.9781 -32.9694 -32.9170 -32.9087 -32.8474 -32.8131 -32.7410 -32.6216
   -32.5615 -32.5500 -32.4824 -32.4026 -32.3466 -32.3420 -27.0468 -27.0255
   -26.8205 -26.7661 -26.7485 -26.7012 -26.6599 -26.6054 -26.5921 -26.5374
   -26.4973 -26.4791 -26.4768 -26.1561 -26.0947 -26.0632 -25.9951 -25.9267
   -18.3757 -18.3746 -18.3687 -18.3680 -18.3666 -18.3594 -18.3554 -18.3542
   -18.3483 -18.3353 -18.3284 -18.3253 -18.3007 -18.2959 -18.2287 -18.2264
   -18.2124 -18.2112 -18.2091 -18.2090 -18.2077 -18.2037 -18.2016 -18.1939
   -18.1927 -18.1912 -18.1662 -18.1624 -18.0354 -18.0336 -18.0248 -18.0203
   -18.0150 -18.0129 -18.0105 -18.0064 -18.0003 -17.9925 -17.9835 -17.9819
   -17.9817 -17.9787  -3.7530  -2.6127  -1.7493  -1.3310  -1.1433  -1.0594
    -0.7396  -0.3810  -0.2537  -0.0673   0.0960   0.0983   0.2013   0.3764
     0.5046   0.5759   0.6851   0.9830   0.9865   1.1292   1.2035   1.2426
     1.3875   1.5773   1.5967   1.6996   1.7832   1.9156   2.0447   2.0549
     2.1972   2.2550   2.3451   2.5025   2.5913   2.8252   2.9407   3.0762
     3.4138   3.4604   3.6913   3.7580   3.8226   3.9300   4.0360   4.1559
     4.2365

          k = 0.0290-0.0438 0.0000 ( 38168 PWs)   bands (ev):

   -66.6670 -66.6283 -66.5310 -66.4918 -66.3453 -66.3060 -48.1439 -48.1128
   -48.0701 -48.0390 -47.5556 -47.4812 -33.1821 -33.1566 -33.1138 -33.0795
   -32.9779 -32.9696 -32.9181 -32.9087 -32.8477 -32.8138 -32.7413 -32.6222
   -32.5614 -32.5499 -32.4823 -32.4026 -32.3466 -32.3420 -27.0460 -27.0247
   -26.8190 -26.7668 -26.7481 -26.7014 -26.6574 -26.6033 -26.5914 -26.5368
   -26.4973 -26.4783 -26.4768 -26.1561 -26.0948 -26.0613 -25.9946 -25.9267
   -18.3757 -18.3746 -18.3687 -18.3679 -18.3666 -18.3594 -18.3553 -18.3542
   -18.3483 -18.3353 -18.3284 -18.3253 -18.3007 -18.2959 -18.2287 -18.2264
   -18.2124 -18.2112 -18.2091 -18.2089 -18.2077 -18.2037 -18.2016 -18.1938
   -18.1927 -18.1912 -18.1662 -18.1624 -18.0354 -18.0336 -18.0247 -18.0202
   -18.0150 -18.0129 -18.0105 -18.0064 -18.0003 -17.9925 -17.9834 -17.9819
   -17.9817 -17.9787  -3.9725  -2.6952  -1.6809  -1.3461  -1.1392  -1.1198
    -0.8375  -0.5636  -0.3948  -0.1842  -0.0196   0.0514   0.1373   0.2187
     0.3568   0.4383   0.8800   0.9693   1.0016   1.2723   1.3312   1.3633
     1.4938   1.7192   1.7599   1.8036   1.9574   2.0596   2.1407   2.2088
     2.2125   2.3978   2.4889   2.5711   2.7718   2.8848   3.0812   3.1060
     3.4519   3.5138   3.6196   3.8163   3.8496   3.9251   4.0538   4.0615
     4.1209

          k = 0.0290-0.0292 0.0000 ( 38165 PWs)   bands (ev):

   -66.6670 -66.6283 -66.5310 -66.4918 -66.3453 -66.3060 -48.1439 -48.1127
   -48.0701 -48.0390 -47.5555 -47.4812 -33.1825 -33.1573 -33.1141 -33.0796
   -32.9776 -32.9698 -32.9192 -32.9086 -32.8480 -32.8145 -32.7416 -32.6229
   -32.5614 -32.5498 -32.4823 -32.4027 -32.3465 -32.3420 -27.0451 -27.0239
   -26.8175 -26.7675 -26.7477 -26.7016 -26.6549 -26.6012 -26.5907 -26.5363
   -26.4973 -26.4776 -26.4768 -26.1561 -26.0949 -26.0595 -25.9941 -25.9267
   -18.3757 -18.3746 -18.3687 -18.3679 -18.3666 -18.3593 -18.3553 -18.3542
   -18.3483 -18.3353 -18.3283 -18.3252 -18.3007 -18.2959 -18.2287 -18.2264
   -18.2124 -18.2112 -18.2091 -18.2089 -18.2077 -18.2037 -18.2016 -18.1938
   -18.1927 -18.1911 -18.1662 -18.1624 -18.0354 -18.0336 -18.0247 -18.0201
   -18.0150 -18.0129 -18.0105 -18.0064 -18.0003 -17.9925 -17.9834 -17.9819
   -17.9816 -17.9787  -4.1464  -2.8108  -1.6628  -1.3478  -1.2100  -1.0776
    -0.8654  -0.7466  -0.4891  -0.2942  -0.1427  -0.0394   0.0084   0.1504
     0.2282   0.4053   0.9449   0.9982   1.0191   1.3228   1.4696   1.4857
     1.6508   1.8376   1.8801   1.9578   2.0068   2.2278   2.2656   2.2787
     2.3684   2.4937   2.5588   2.6940   2.8518   3.1205   3.1358   3.3044
     3.4424   3.5709   3.5872   3.7030   3.8749   3.8971   3.9529   4.0525
     4.0569

          k = 0.0290-0.0146 0.0000 ( 38190 PWs)   bands (ev):

   -66.6670 -66.6283 -66.5310 -66.4918 -66.3453 -66.3060 -48.1438 -48.1127
   -48.0701 -48.0390 -47.5555 -47.4812 -33.1828 -33.1578 -33.1143 -33.0797
   -32.9774 -32.9699 -32.9200 -32.9086 -32.8482 -32.8151 -32.7419 -32.6234
   -32.5614 -32.5498 -32.4823 -32.4027 -32.3465 -32.3419 -27.0445 -27.0233
   -26.8164 -26.7681 -26.7474 -26.7018 -26.6532 -26.5997 -26.5902 -26.5358
   -26.4973 -26.4770 -26.4768 -26.1562 -26.0949 -26.0581 -25.9937 -25.9267
   -18.3757 -18.3745 -18.3687 -18.3679 -18.3666 -18.3594 -18.3553 -18.3542
   -18.3483 -18.3353 -18.3283 -18.3252 -18.3007 -18.2959 -18.2286 -18.2264
   -18.2124 -18.2112 -18.2091 -18.2089 -18.2077 -18.2037 -18.2016 -18.1937
   -18.1927 -18.1912 -18.1662 -18.1624 -18.0354 -18.0336 -18.0247 -18.0201
   -18.0150 -18.0129 -18.0105 -18.0064 -18.0003 -17.9925 -17.9834 -17.9818
   -17.9816 -17.9787  -4.2563  -2.8966  -1.6962  -1.3361  -1.2553  -1.0027
    -0.8853  -0.8736  -0.5404  -0.3789  -0.2313  -0.1647  -0.0221   0.0866
     0.1504   0.4088   0.9378   0.9922   1.0944   1.3235   1.5254   1.5861
     1.8081   1.9189   1.9368   2.0354   2.1073   2.2768   2.3508   2.4034
     2.4891   2.5528   2.5846   2.7877   3.0038   3.1985   3.3044   3.4147
     3.4463   3.5391   3.5992   3.6605   3.7813   3.8733   3.8979   4.0088
     4.0760

          k = 0.0290-0.0000 0.0000 ( 38203 PWs)   bands (ev):

   -66.6670 -66.6283 -66.5310 -66.4918 -66.3453 -66.3060 -48.1438 -48.1127
   -48.0701 -48.0390 -47.5555 -47.4812 -33.1829 -33.1580 -33.1144 -33.0797
   -32.9774 -32.9699 -32.9203 -32.9085 -32.8483 -32.8153 -32.7419 -32.6236
   -32.5614 -32.5497 -32.4824 -32.4028 -32.3465 -32.3419 -27.0443 -27.0230
   -26.8160 -26.7683 -26.7472 -26.7018 -26.6525 -26.5991 -26.5900 -26.5357
   -26.4973 -26.4768 -26.4768 -26.1562 -26.0949 -26.0576 -25.9935 -25.9267
   -18.3757 -18.3745 -18.3687 -18.3679 -18.3665 -18.3594 -18.3553 -18.3542
   -18.3483 -18.3353 -18.3282 -18.3253 -18.3007 -18.2959 -18.2286 -18.2265
   -18.2125 -18.2112 -18.2091 -18.2088 -18.2077 -18.2037 -18.2017 -18.1937
   -18.1927 -18.1912 -18.1662 -18.1624 -18.0353 -18.0336 -18.0247 -18.0200
   -18.0151 -18.0128 -18.0105 -18.0065 -18.0003 -17.9925 -17.9835 -17.9818
   -17.9817 -17.9786  -4.2938  -2.9274  -1.7149  -1.3284  -1.2685  -0.9681
    -0.9401  -0.8745  -0.5557  -0.4131  -0.2631  -0.2103  -0.0330   0.0629
     0.1247   0.4119   0.9347   0.9898   1.1213   1.3214   1.5401   1.6099
     1.8974   1.9401   1.9491   2.0560   2.1541   2.2832   2.4000   2.4601
     2.5005   2.5476   2.6573   2.7706   3.1671   3.2261   3.3037   3.4026
     3.5055   3.5074   3.5905   3.6688   3.7295   3.8557   3.9074   3.9791
     4.0832

          k = 0.0435 0.0219 0.0000 ( 38200 PWs)   bands (ev):

   -66.6635 -66.6319 -66.5274 -66.4954 -66.3417 -66.3096 -48.1371 -48.1060
   -48.0769 -48.0459 -47.5488 -47.4881 -33.1505 -33.1278 -33.0869 -33.0582
   -32.9713 -32.9193 -32.9131 -32.9106 -32.8544 -32.8081 -32.7483 -32.6206
   -32.6165 -32.5564 -32.5425 -32.4064 -32.3968 -32.3475 -26.9961 -26.9749
   -26.8107 -26.7617 -26.7543 -26.7077 -26.6483 -26.5969 -26.5946 -26.5494
   -26.5425 -26.5288 -26.4283 -26.1505 -26.1005 -26.0529 -26.0003 -25.9791
   -18.3747 -18.3729 -18.3691 -18.3678 -18.3667 -18.3606 -18.3546 -18.3529
   -18.3490 -18.3374 -18.3260 -18.3231 -18.3030 -18.2996 -18.2268 -18.2245
   -18.2136 -18.2119 -18.2089 -18.2082 -18.2078 -18.2033 -18.2023 -18.1944
   -18.1916 -18.1890 -18.1686 -18.1661 -18.0324 -18.0315 -18.0225 -18.0192
   -18.0159 -18.0126 -18.0121 -18.0072 -18.0025 -17.9964 -17.9833 -17.9821
   -17.9815 -17.9791  -3.9885  -2.6340  -1.5519  -1.4349  -1.1705  -0.8870
    -0.7978  -0.6844  -0.5422  -0.1318  -0.1225  -0.0638   0.1341   0.1900
     0.3028   0.5375   0.9600   1.0315   1.1102   1.4117   1.4361   1.5676
     1.7032   1.7813   1.7946   1.9135   1.9884   2.2106   2.2885   2.3647
     2.4249   2.4570   2.5516   2.6644   2.8151   3.0900   3.1166   3.2256
     3.2547   3.4203   3.5158   3.5173   3.6761   3.8013   3.9185   3.9264
     3.9826

          k = 0.0435 0.0365 0.0000 ( 38195 PWs)   bands (ev):

   -66.6635 -66.6319 -66.5274 -66.4954 -66.3417 -66.3096 -48.1372 -48.1060
   -48.0769 -48.0459 -47.5488 -47.4881 -33.1499 -33.1275 -33.0869 -33.0579
   -32.9715 -32.9192 -32.9122 -32.9106 -32.8542 -32.8075 -32.7481 -32.6206
   -32.6159 -32.5565 -32.5426 -32.4064 -32.3968 -32.3475 -26.9968 -26.9756
   -26.8118 -26.7612 -26.7545 -26.7075 -26.6502 -26.5972 -26.5963 -26.5493
   -26.5428 -26.5288 -26.4290 -26.1505 -26.1005 -26.0544 -26.0005 -25.9790
   -18.3747 -18.3729 -18.3691 -18.3678 -18.3667 -18.3605 -18.3547 -18.3529
   -18.3490 -18.3374 -18.3261 -18.3231 -18.3030 -18.2995 -18.2268 -18.2245
   -18.2136 -18.2119 -18.2089 -18.2082 -18.2078 -18.2033 -18.2023 -18.1944
   -18.1917 -18.1890 -18.1686 -18.1661 -18.0324 -18.0315 -18.0225 -18.0193
   -18.0158 -18.0126 -18.0122 -18.0072 -18.0025 -17.9964 -17.9833 -17.9821
   -17.9815 -17.9791  -3.8472  -2.5279  -1.6200  -1.4259  -1.1101  -0.9512
    -0.6829  -0.6134  -0.4809  -0.0348   0.0000   0.0444   0.1703   0.2674
     0.3996   0.5478   0.9680   1.0183   1.0207   1.3293   1.3779   1.4126
     1.5563   1.7187   1.7532   1.8047   1.9010   2.0423   2.1954   2.2944
     2.3078   2.3556   2.4548   2.6746   2.6984   2.9102   3.0236   3.1164
     3.2714   3.5192   3.5423   3.6425   3.7757   3.9091   3.9122   3.9602
     4.0448

          k = 0.0435 0.0511 0.0000 ( 38196 PWs)   bands (ev):

   -66.6635 -66.6319 -66.5274 -66.4954 -66.3417 -66.3096 -48.1372 -48.1061
   -48.0769 -48.0459 -47.5488 -47.4881 -33.1493 -33.1272 -33.0868 -33.0576
   -32.9717 -32.9191 -32.9111 -32.9105 -32.8541 -32.8069 -32.7479 -32.6207
   -32.6153 -32.5567 -32.5426 -32.4064 -32.3967 -32.3476 -26.9976 -26.9764
   -26.8132 -26.7605 -26.7548 -26.7074 -26.6525 -26.5982 -26.5977 -26.5492
   -26.5431 -26.5287 -26.4297 -26.1505 -26.1004 -26.0561 -26.0008 -25.9790
   -18.3747 -18.3729 -18.3691 -18.3678 -18.3667 -18.3606 -18.3547 -18.3529
   -18.3490 -18.3373 -18.3261 -18.3231 -18.3030 -18.2996 -18.2268 -18.2245
   -18.2136 -18.2120 -18.2089 -18.2083 -18.2078 -18.2033 -18.2023 -18.1944
   -18.1918 -18.1890 -18.1686 -18.1661 -18.0324 -18.0315 -18.0225 -18.0194
   -18.0158 -18.0126 -18.0122 -18.0072 -18.0025 -17.9964 -17.9834 -17.9821
   -17.9815 -17.9791  -3.6494  -2.4153  -1.6683  -1.5092  -1.0446  -0.9421
    -0.6545  -0.4506  -0.3361   0.0791   0.1262   0.1737   0.2142   0.3601
     0.5162   0.6135   0.8247   0.9871   1.0033   1.2164   1.2697   1.3077
     1.3775   1.6222   1.6320   1.6909   1.8279   1.9048   2.0644   2.1010
     2.2729   2.2801   2.3645   2.5041   2.6999   2.8101   2.9394   2.9777
     3.3324   3.5259   3.5297   3.7619   3.8073   3.8374   4.0517   4.0656
     4.1301

          k = 0.0435 0.0657 0.0000 ( 38184 PWs)   bands (ev):

   -66.6635 -66.6319 -66.5274 -66.4954 -66.3417 -66.3096 -48.1372 -48.1061
   -48.0769 -48.0459 -47.5488 -47.4881 -33.1488 -33.1269 -33.0867 -33.0573
   -32.9719 -32.9191 -32.9105 -32.9103 -32.8539 -32.8063 -32.7477 -32.6207
   -32.6148 -32.5568 -32.5427 -32.4065 -32.3967 -32.3476 -26.9983 -26.9771
   -26.8144 -26.7600 -26.7550 -26.7073 -26.6544 -26.5999 -26.5980 -26.5492
   -26.5434 -26.5286 -26.4303 -26.1505 -26.1004 -26.0575 -26.0011 -25.9789
   -18.3747 -18.3729 -18.3691 -18.3679 -18.3667 -18.3606 -18.3547 -18.3529
   -18.3489 -18.3374 -18.3261 -18.3231 -18.3030 -18.2996 -18.2268 -18.2245
   -18.2136 -18.2119 -18.2090 -18.2083 -18.2078 -18.2033 -18.2023 -18.1944
   -18.1918 -18.1891 -18.1686 -18.1661 -18.0324 -18.0315 -18.0225 -18.0194
   -18.0159 -18.0126 -18.0122 -18.0072 -18.0025 -17.9964 -17.9834 -17.9821
   -17.9815 -17.9791  -3.4207  -2.3871  -1.6964  -1.5688  -0.9903  -0.9831
    -0.5114  -0.3506  -0.1220   0.1863   0.1864   0.2530   0.2625   0.5023
     0.5910   0.6313   0.7445   0.9258   1.0016   1.0667   1.1938   1.2495
     1.2634   1.4968   1.5024   1.6087   1.6408   1.8802   1.9422   1.9649
     2.1423   2.2882   2.2910   2.3237   2.6643   2.7177   2.9310   3.0059
     3.3275   3.4581   3.5666   3.6825   3.7059   3.9235   4.1036   4.1103
     4.2352

          k = 0.0435 0.0803 0.0000 ( 38216 PWs)   bands (ev):

   -66.6635 -66.6319 -66.5274 -66.4954 -66.3417 -66.3096 -48.1372 -48.1061
   -48.0769 -48.0459 -47.5489 -47.4881 -33.1485 -33.1267 -33.0867 -33.0571
   -32.9721 -32.9190 -32.9105 -32.9097 -32.8539 -32.8060 -32.7476 -32.6208
   -32.6145 -32.5569 -32.5427 -32.4065 -32.3967 -32.3476 -26.9987 -26.9775
   -26.8150 -26.7597 -26.7551 -26.7072 -26.6555 -26.6008 -26.5982 -26.5491
   -26.5436 -26.5286 -26.4307 -26.1505 -26.1003 -26.0584 -26.0013 -25.9789
   -18.3747 -18.3730 -18.3691 -18.3679 -18.3667 -18.3605 -18.3547 -18.3529
   -18.3490 -18.3374 -18.3262 -18.3232 -18.3030 -18.2996 -18.2268 -18.2246
   -18.2136 -18.2119 -18.2090 -18.2083 -18.2078 -18.2033 -18.2023 -18.1944
   -18.1918 -18.1891 -18.1686 -18.1661 -18.0324 -18.0315 -18.0226 -18.0195
   -18.0158 -18.0126 -18.0122 -18.0072 -18.0025 -17.9964 -17.9834 -17.9821
   -17.9816 -17.9791  -3.2300  -2.4708  -1.7086  -1.5090  -1.1044  -0.9441
    -0.3135  -0.2859   0.0430   0.1843   0.1939   0.2758   0.2894   0.4451
     0.6448   0.7036   0.8546   0.8694   0.9586   1.0643   1.1495   1.1512
     1.2431   1.2818   1.4291   1.5608   1.6276   1.8387   1.8708   1.9177
     1.9512   2.2415   2.3184   2.3220   2.4860   2.7136   3.0288   3.0996
     3.2523   3.3321   3.5836   3.6454   3.7068   3.8825   4.0717   4.1400
     4.2817

          k = 0.0435 0.0948 0.0000 ( 38216 PWs)   bands (ev):

   -66.6635 -66.6319 -66.5274 -66.4954 -66.3417 -66.3096 -48.1372 -48.1061
   -48.0769 -48.0459 -47.5489 -47.4881 -33.1485 -33.1267 -33.0867 -33.0571
   -32.9721 -32.9190 -32.9105 -32.9097 -32.8539 -32.8060 -32.7476 -32.6208
   -32.6145 -32.5569 -32.5427 -32.4065 -32.3967 -32.3476 -26.9987 -26.9775
   -26.8150 -26.7597 -26.7551 -26.7072 -26.6555 -26.6008 -26.5982 -26.5491
   -26.5436 -26.5286 -26.4307 -26.1505 -26.1003 -26.0584 -26.0013 -25.9789
   -18.3747 -18.3730 -18.3691 -18.3679 -18.3667 -18.3605 -18.3547 -18.3529
   -18.3490 -18.3374 -18.3262 -18.3232 -18.3030 -18.2996 -18.2268 -18.2246
   -18.2136 -18.2119 -18.2090 -18.2083 -18.2078 -18.2033 -18.2023 -18.1944
   -18.1918 -18.1891 -18.1686 -18.1661 -18.0324 -18.0315 -18.0226 -18.0195
   -18.0158 -18.0126 -18.0122 -18.0072 -18.0025 -17.9964 -17.9834 -17.9821
   -17.9816 -17.9791  -3.2300  -2.4708  -1.7086  -1.5090  -1.1044  -0.9441
    -0.3135  -0.2859   0.0430   0.1843   0.1939   0.2758   0.2894   0.4451
     0.6448   0.7036   0.8546   0.8694   0.9586   1.0643   1.1495   1.1511
     1.2431   1.2818   1.4291   1.5607   1.6276   1.8387   1.8708   1.9177
     1.9512   2.2415   2.3184   2.3220   2.4860   2.7136   3.0288   3.0996
     3.2523   3.3321   3.5836   3.6454   3.7069   3.8830   4.0729   4.1399
     4.2816

          k = 0.0435-0.0657 0.0000 ( 38184 PWs)   bands (ev):

   -66.6635 -66.6319 -66.5274 -66.4954 -66.3417 -66.3096 -48.1372 -48.1061
   -48.0769 -48.0459 -47.5488 -47.4881 -33.1488 -33.1269 -33.0867 -33.0573
   -32.9719 -32.9191 -32.9105 -32.9103 -32.8539 -32.8063 -32.7477 -32.6207
   -32.6148 -32.5568 -32.5427 -32.4065 -32.3967 -32.3476 -26.9983 -26.9771
   -26.8144 -26.7600 -26.7550 -26.7073 -26.6544 -26.5999 -26.5980 -26.5492
   -26.5434 -26.5286 -26.4303 -26.1505 -26.1004 -26.0575 -26.0011 -25.9789
   -18.3747 -18.3729 -18.3691 -18.3679 -18.3667 -18.3606 -18.3547 -18.3529
   -18.3489 -18.3374 -18.3261 -18.3231 -18.3030 -18.2996 -18.2268 -18.2245
   -18.2136 -18.2119 -18.2090 -18.2083 -18.2078 -18.2033 -18.2023 -18.1944
   -18.1918 -18.1891 -18.1686 -18.1661 -18.0324 -18.0315 -18.0225 -18.0194
   -18.0159 -18.0126 -18.0122 -18.0072 -18.0025 -17.9964 -17.9834 -17.9821
   -17.9815 -17.9791  -3.4207  -2.3871  -1.6964  -1.5688  -0.9903  -0.9831
    -0.5114  -0.3506  -0.1219   0.1863   0.1864   0.2530   0.2626   0.5023
     0.5910   0.6312   0.7445   0.9258   1.0016   1.0667   1.1938   1.2495
     1.2634   1.4969   1.5024   1.6086   1.6406   1.8802   1.9422   1.9648
     2.1423   2.2882   2.2911   2.3236   2.6643   2.7177   2.9310   3.0059
     3.3275   3.4580   3.5666   3.6823   3.7059   3.9234   4.1032   4.1104
     4.2375

          k = 0.0435-0.0511 0.0000 ( 38196 PWs)   bands (ev):

   -66.6635 -66.6319 -66.5274 -66.4954 -66.3417 -66.3096 -48.1372 -48.1061
   -48.0769 -48.0459 -47.5488 -47.4881 -33.1493 -33.1272 -33.0868 -33.0576
   -32.9717 -32.9191 -32.9111 -32.9105 -32.8541 -32.8069 -32.7479 -32.6207
   -32.6153 -32.5567 -32.5426 -32.4064 -32.3967 -32.3476 -26.9976 -26.9764
   -26.8132 -26.7605 -26.7548 -26.7074 -26.6525 -26.5982 -26.5977 -26.5492
   -26.5431 -26.5287 -26.4297 -26.1505 -26.1004 -26.0561 -26.0008 -25.9790
   -18.3747 -18.3729 -18.3691 -18.3678 -18.3667 -18.3606 -18.3547 -18.3529
   -18.3490 -18.3373 -18.3261 -18.3231 -18.3030 -18.2996 -18.2268 -18.2245
   -18.2136 -18.2120 -18.2089 -18.2083 -18.2078 -18.2033 -18.2023 -18.1944
   -18.1918 -18.1890 -18.1686 -18.1661 -18.0324 -18.0315 -18.0225 -18.0194
   -18.0158 -18.0126 -18.0122 -18.0072 -18.0025 -17.9964 -17.9834 -17.9821
   -17.9815 -17.9791  -3.6494  -2.4153  -1.6683  -1.5092  -1.0446  -0.9421
    -0.6545  -0.4506  -0.3360   0.0791   0.1262   0.1737   0.2142   0.3601
     0.5161   0.6136   0.8247   0.9871   1.0033   1.2164   1.2697   1.3077
     1.3775   1.6222   1.6320   1.6909   1.8278   1.9048   2.0644   2.1010
     2.2729   2.2801   2.3645   2.5040   2.6999   2.8101   2.9393   2.9777
     3.3324   3.5259   3.5298   3.7618   3.8073   3.8374   4.0509   4.0658
     4.1291

          k = 0.0435-0.0365 0.0000 ( 38195 PWs)   bands (ev):

   -66.6635 -66.6319 -66.5274 -66.4954 -66.3417 -66.3096 -48.1372 -48.1060
   -48.0769 -48.0459 -47.5488 -47.4881 -33.1499 -33.1275 -33.0869 -33.0579
   -32.9715 -32.9192 -32.9122 -32.9106 -32.8542 -32.8075 -32.7481 -32.6206
   -32.6159 -32.5565 -32.5426 -32.4064 -32.3968 -32.3475 -26.9968 -26.9756
   -26.8118 -26.7612 -26.7545 -26.7075 -26.6502 -26.5972 -26.5963 -26.5493
[...]
   -18.3723 -18.3703 -18.3686 -18.3674 -18.3670 -18.3641 -18.3529 -18.3508
   -18.3487 -18.3429 -18.3188 -18.3169 -18.3095 -18.3092 -18.2220 -18.2195
   -18.2172 -18.2148 -18.2085 -18.2081 -18.2064 -18.2042 -18.2016 -18.1985
   -18.1850 -18.1828 -18.1756 -18.1752 -18.0254 -18.0244 -18.0185 -18.0185
   -18.0162 -18.0162 -18.0102 -18.0100 -18.0088 -18.0056 -17.9830 -17.9826
   -17.9809 -17.9801  -3.2151  -2.3027  -1.9148  -1.2506  -0.8478  -0.6918
    -0.5721  -0.3588  -0.2587  -0.1426   0.2082   0.3265   0.5596   0.6115
     0.7171   0.7897   0.8414   1.0040   1.1199   1.2568   1.3235   1.3479
     1.4363   1.5377   1.6092   1.6905   1.7509   1.9468   2.0487   2.1191
     2.2136   2.3615   2.4425   2.5030   2.6668   2.7213   2.8389   2.8843
     3.1113   3.4604   3.5529   3.5759   3.7094   3.8227   3.8365   4.0259
     4.0711

          k = 0.0725-0.0219 0.0000 ( 38248 PWs)   bands (ev):

   -66.6535 -66.6419 -66.5173 -66.5056 -66.3315 -66.3198 -48.1181 -48.0961
   -48.0870 -48.0651 -47.5296 -47.5075 -33.1303 -33.1066 -32.9707 -32.9537
   -32.9338 -32.8984 -32.8945 -32.8722 -32.7891 -32.7848 -32.7668 -32.7571
   -32.7097 -32.5977 -32.5750 -32.5710 -32.3815 -32.3633 -26.8572 -26.8362
   -26.7931 -26.7733 -26.7446 -26.7243 -26.6945 -26.6738 -26.6324 -26.6151
   -26.5784 -26.5607 -26.2887 -26.1348 -26.1249 -26.1164 -26.0365 -26.0184
   -18.3723 -18.3703 -18.3686 -18.3674 -18.3670 -18.3641 -18.3528 -18.3508
   -18.3487 -18.3429 -18.3188 -18.3169 -18.3095 -18.3092 -18.2220 -18.2195
   -18.2172 -18.2148 -18.2085 -18.2081 -18.2063 -18.2042 -18.2016 -18.1985
   -18.1849 -18.1828 -18.1757 -18.1753 -18.0254 -18.0244 -18.0186 -18.0185
   -18.0162 -18.0161 -18.0103 -18.0100 -18.0088 -18.0056 -17.9830 -17.9826
   -17.9809 -17.9801  -3.3437  -2.1396  -2.0097  -1.2763  -0.8237  -0.8020
    -0.5163  -0.4942  -0.2081  -0.1318   0.1245   0.2653   0.4922   0.5857
     0.6368   0.7763   0.8017   1.0699   1.2204   1.2878   1.3695   1.4592
     1.5051   1.5981   1.6414   1.6919   1.7996   1.9591   2.0372   2.1809
     2.3308   2.3497   2.5072   2.6464   2.7235   2.7814   2.8266   2.9558
     3.1115   3.2292   3.4497   3.4852   3.5504   3.7403   3.9074   3.9534
     4.0913

          k = 0.0725-0.0073 0.0000 ( 38247 PWs)   bands (ev):

   -66.6535 -66.6419 -66.5173 -66.5056 -66.3315 -66.3198 -48.1181 -48.0961
   -48.0870 -48.0651 -47.5296 -47.5075 -33.1305 -33.1065 -32.9709 -32.9536
   -32.9339 -32.8985 -32.8948 -32.8721 -32.7893 -32.7848 -32.7667 -32.7572
   -32.7096 -32.5979 -32.5748 -32.5710 -32.3815 -32.3632 -26.8569 -26.8359
   -26.7927 -26.7734 -26.7448 -26.7243 -26.6947 -26.6739 -26.6317 -26.6153
   -26.5778 -26.5609 -26.2884 -26.1348 -26.1251 -26.1164 -26.0360 -26.0186
   -18.3722 -18.3703 -18.3686 -18.3674 -18.3670 -18.3641 -18.3528 -18.3508
   -18.3487 -18.3429 -18.3187 -18.3169 -18.3095 -18.3092 -18.2220 -18.2195
   -18.2172 -18.2148 -18.2085 -18.2081 -18.2063 -18.2042 -18.2016 -18.1985
   -18.1849 -18.1828 -18.1757 -18.1753 -18.0254 -18.0244 -18.0186 -18.0185
   -18.0162 -18.0160 -18.0103 -18.0100 -18.0088 -18.0056 -17.9830 -17.9826
   -17.9809 -17.9801  -3.4099  -2.0621  -1.9966  -1.3878  -0.8308  -0.7944
    -0.6300  -0.4181  -0.1858  -0.0821   0.0338   0.2165   0.4435   0.5716
     0.5912   0.7677   0.7901   1.1281   1.2656   1.2790   1.4209   1.4950
     1.5595   1.6155   1.6934   1.7047   1.8306   1.9682   1.9799   2.2342
     2.3215   2.4613   2.5858   2.6943   2.7198   2.8141   2.9924   2.9951
     3.0432   3.1355   3.3108   3.3123   3.5145   3.6803   3.8883   3.9807
     4.0859

          k = 0.0725 0.0073 0.0000 ( 38247 PWs)   bands (ev):

   -66.6535 -66.6419 -66.5173 -66.5056 -66.3315 -66.3198 -48.1181 -48.0961
   -48.0870 -48.0651 -47.5296 -47.5075 -33.1305 -33.1065 -32.9709 -32.9536
   -32.9339 -32.8985 -32.8948 -32.8721 -32.7893 -32.7848 -32.7667 -32.7572
   -32.7096 -32.5979 -32.5748 -32.5710 -32.3815 -32.3632 -26.8569 -26.8359
   -26.7927 -26.7734 -26.7448 -26.7243 -26.6947 -26.6739 -26.6317 -26.6153
   -26.5778 -26.5609 -26.2884 -26.1348 -26.1251 -26.1164 -26.0360 -26.0186
   -18.3722 -18.3703 -18.3686 -18.3674 -18.3670 -18.3641 -18.3528 -18.3508
   -18.3487 -18.3429 -18.3187 -18.3169 -18.3095 -18.3092 -18.2220 -18.2195
   -18.2172 -18.2148 -18.2085 -18.2081 -18.2063 -18.2042 -18.2016 -18.1985
   -18.1849 -18.1828 -18.1757 -18.1753 -18.0254 -18.0244 -18.0186 -18.0185
   -18.0162 -18.0160 -18.0103 -18.0100 -18.0088 -18.0056 -17.9830 -17.9826
   -17.9809 -17.9801  -3.4099  -2.0621  -1.9966  -1.3878  -0.8308  -0.7944
    -0.6300  -0.4181  -0.1858  -0.0821   0.0338   0.2165   0.4435   0.5716
     0.5912   0.7677   0.7901   1.1281   1.2656   1.2790   1.4209   1.4950
     1.5595   1.6155   1.6934   1.7048   1.8306   1.9682   1.9799   2.2342
     2.3215   2.4612   2.5858   2.6943   2.7198   2.8142   2.9924   2.9951
     3.0432   3.1355   3.3108   3.3122   3.5145   3.6803   3.8864   3.9783
     4.0862

          k = 0.0725 0.0219 0.0000 ( 38248 PWs)   bands (ev):

   -66.6535 -66.6419 -66.5173 -66.5056 -66.3315 -66.3198 -48.1181 -48.0961
   -48.0870 -48.0651 -47.5296 -47.5075 -33.1303 -33.1066 -32.9707 -32.9537
   -32.9338 -32.8984 -32.8945 -32.8722 -32.7891 -32.7848 -32.7668 -32.7571
   -32.7097 -32.5977 -32.5750 -32.5710 -32.3815 -32.3633 -26.8572 -26.8362
   -26.7931 -26.7733 -26.7446 -26.7243 -26.6945 -26.6738 -26.6324 -26.6151
   -26.5784 -26.5607 -26.2887 -26.1348 -26.1249 -26.1164 -26.0365 -26.0184
   -18.3723 -18.3703 -18.3686 -18.3674 -18.3670 -18.3641 -18.3528 -18.3508
   -18.3487 -18.3429 -18.3188 -18.3169 -18.3095 -18.3092 -18.2220 -18.2195
   -18.2172 -18.2148 -18.2085 -18.2081 -18.2063 -18.2042 -18.2016 -18.1985
   -18.1849 -18.1828 -18.1757 -18.1753 -18.0254 -18.0244 -18.0186 -18.0185
   -18.0162 -18.0161 -18.0103 -18.0100 -18.0088 -18.0056 -17.9830 -17.9826
   -17.9809 -17.9801  -3.3437  -2.1396  -2.0097  -1.2763  -0.8237  -0.8020
    -0.5163  -0.4942  -0.2081  -0.1318   0.1245   0.2653   0.4922   0.5856
     0.6368   0.7763   0.8017   1.0699   1.2203   1.2878   1.3695   1.4591
     1.5051   1.5981   1.6415   1.6919   1.7996   1.9591   2.0372   2.1809
     2.3308   2.3497   2.5072   2.6464   2.7235   2.7814   2.8266   2.9558
     3.1114   3.2292   3.4497   3.4853   3.5504   3.7403   3.9070   3.9531
     4.0907

          k =-0.0870-0.0438 0.0000 ( 38260 PWs)   bands (ev):

   -66.6477 -66.6477 -66.5114 -66.5114 -66.3257 -66.3256 -48.1072 -48.1072
   -48.0761 -48.0761 -47.5186 -47.5185 -33.1183 -33.1183 -32.9437 -32.9437
   -32.8832 -32.8832 -32.8782 -32.8782 -32.8048 -32.8046 -32.7777 -32.7777
   -32.6647 -32.6646 -32.5862 -32.5862 -32.3724 -32.3723 -26.7837 -26.7837
   -26.7764 -26.7764 -26.7556 -26.7556 -26.7342 -26.7342 -26.6244 -26.6244
   -26.5701 -26.5701 -26.2075 -26.2075 -26.1255 -26.1255 -26.0280 -26.0279
   -18.3712 -18.3712 -18.3672 -18.3672 -18.3663 -18.3663 -18.3518 -18.3518
   -18.3460 -18.3459 -18.3142 -18.3142 -18.3132 -18.3132 -18.2195 -18.2195
   -18.2170 -18.2170 -18.2083 -18.2083 -18.2053 -18.2053 -18.2003 -18.2003
   -18.1806 -18.1805 -18.1791 -18.1790 -18.0220 -18.0219 -18.0209 -18.0209
   -18.0133 -18.0133 -18.0125 -18.0125 -18.0085 -18.0084 -17.9829 -17.9828
   -17.9806 -17.9805  -2.7593  -2.7593  -1.5420  -1.5420  -0.7212  -0.7212
    -0.3418  -0.3417  -0.1977  -0.1976   0.2958   0.2958   0.6790   0.6791
     0.8466   0.8467   0.9612   0.9612   1.0834   1.0834   1.3109   1.3109
     1.4263   1.4263   1.6325   1.6325   1.7821   1.7822   1.9998   1.9999
     2.3030   2.3031   2.4757   2.4757   2.5660   2.5661   2.8248   2.8248
     3.3521   3.3521   3.6422   3.6423   3.7747   3.7749   3.9421   3.9453
     4.0702

          k =-0.0870-0.0292 0.0000 ( 38235 PWs)   bands (ev):

   -66.6477 -66.6477 -66.5114 -66.5114 -66.3257 -66.3256 -48.1072 -48.1071
   -48.0761 -48.0761 -47.5186 -47.5185 -33.1185 -33.1180 -32.9438 -32.9436
   -32.8836 -32.8827 -32.8784 -32.8780 -32.8049 -32.8045 -32.7779 -32.7774
   -32.6647 -32.6646 -32.5866 -32.5858 -32.3724 -32.3723 -26.7843 -26.7832
   -26.7768 -26.7759 -26.7560 -26.7551 -26.7345 -26.7340 -26.6252 -26.6235
   -26.5709 -26.5694 -26.2079 -26.2070 -26.1255 -26.1255 -26.0286 -26.0273
   -18.3712 -18.3712 -18.3672 -18.3672 -18.3663 -18.3663 -18.3518 -18.3518
   -18.3460 -18.3459 -18.3142 -18.3142 -18.3132 -18.3132 -18.2195 -18.2195
   -18.2169 -18.2169 -18.2083 -18.2083 -18.2053 -18.2053 -18.2003 -18.2002
   -18.1806 -18.1805 -18.1791 -18.1790 -18.0220 -18.0219 -18.0209 -18.0208
   -18.0134 -18.0132 -18.0125 -18.0125 -18.0085 -18.0084 -17.9829 -17.9828
   -17.9805 -17.9805  -2.9000  -2.5767  -1.6264  -1.4866  -0.9110  -0.5167
    -0.3880  -0.3719  -0.2290  -0.0723   0.2634   0.2860   0.6335   0.6968
     0.7914   0.8450   0.8891   1.0046   1.0744   1.1886   1.2607   1.3849
     1.4032   1.4967   1.5740   1.6637   1.7636   1.7992   1.9283   2.1023
     2.2439   2.2644   2.3731   2.5463   2.5536   2.7076   2.7925   2.8970
     3.2736   3.3975   3.5182   3.6416   3.6718   3.8209   3.8847   3.9145
     4.0007

          k =-0.0870-0.0146 0.0000 ( 38227 PWs)   bands (ev):

   -66.6477 -66.6477 -66.5114 -66.5114 -66.3257 -66.3256 -48.1072 -48.1071
   -48.0761 -48.0761 -47.5186 -47.5185 -33.1187 -33.1178 -32.9439 -32.9435
   -32.8839 -32.8823 -32.8786 -32.8779 -32.8050 -32.8044 -32.7781 -32.7773
   -32.6648 -32.6645 -32.5869 -32.5855 -32.3724 -32.3723 -26.7847 -26.7827
   -26.7771 -26.7756 -26.7563 -26.7548 -26.7346 -26.7338 -26.6259 -26.6229
   -26.5714 -26.5688 -26.2081 -26.2067 -26.1256 -26.1254 -26.0291 -26.0268
   -18.3712 -18.3712 -18.3672 -18.3672 -18.3663 -18.3662 -18.3519 -18.3518
   -18.3460 -18.3459 -18.3142 -18.3141 -18.3133 -18.3132 -18.2195 -18.2195
   -18.2169 -18.2169 -18.2083 -18.2083 -18.2053 -18.2052 -18.2003 -18.2003
   -18.1806 -18.1805 -18.1791 -18.1790 -18.0220 -18.0219 -18.0209 -18.0208
   -18.0134 -18.0132 -18.0125 -18.0125 -18.0085 -18.0084 -17.9829 -17.9828
   -17.9806 -17.9805  -2.9876  -2.3831  -1.6862  -1.5637  -0.9199  -0.5617
    -0.4905  -0.2743  -0.1003   0.0150   0.1829   0.2419   0.5987   0.6364
     0.7454   0.8316   0.8575   1.0222   1.1668   1.2201   1.2520   1.4133
     1.4592   1.5002   1.5850   1.6839   1.7513   1.7812   1.9463   2.1276
     2.1584   2.2042   2.3619   2.5351   2.5711   2.8399   2.8634   3.0243
     3.1399   3.3887   3.3941   3.5814   3.6318   3.7154   3.8152   3.8480
     4.0081

          k =-0.0870 0.0000 0.0000 ( 38213 PWs)   bands (ev):

   -66.6477 -66.6477 -66.5114 -66.5114 -66.3257 -66.3256 -48.1072 -48.1071
   -48.0761 -48.0760 -47.5186 -47.5185 -33.1188 -33.1177 -32.9439 -32.9435
   -32.8839 -32.8822 -32.8787 -32.8779 -32.8050 -32.8043 -32.7781 -32.7772
   -32.6649 -32.6644 -32.5870 -32.5854 -32.3724 -32.3723 -26.7848 -26.7826
   -26.7772 -26.7755 -26.7564 -26.7546 -26.7347 -26.7338 -26.6261 -26.6227
   -26.5716 -26.5686 -26.2082 -26.2066 -26.1256 -26.1254 -26.0293 -26.0266
   -18.3712 -18.3712 -18.3672 -18.3672 -18.3663 -18.3662 -18.3518 -18.3518
   -18.3459 -18.3459 -18.3142 -18.3141 -18.3132 -18.3132 -18.2195 -18.2195
   -18.2170 -18.2169 -18.2083 -18.2082 -18.2053 -18.2052 -18.2003 -18.2002
   -18.1805 -18.1805 -18.1791 -18.1790 -18.0220 -18.0219 -18.0209 -18.0208
   -18.0133 -18.0132 -18.0125 -18.0125 -18.0085 -18.0084 -17.9828 -17.9828
   -17.9805 -17.9805  -3.0172  -2.2789  -1.7071  -1.6518  -0.8071  -0.7213
    -0.5005  -0.2047   0.0123   0.0556   0.0871   0.2045   0.5873   0.6004
     0.7287   0.8249   0.8510   1.0556   1.1920   1.2032   1.2731   1.4319
     1.4570   1.4887   1.6241   1.6921   1.7514   1.7648   1.9894   2.0826
     2.1006   2.2204   2.3735   2.5143   2.5808   2.9060   2.9232   3.0220
     3.1963   3.2710   3.3540   3.5628   3.6185   3.6820   3.7633   3.8241
     4.0144

          k =-0.0870 0.0146 0.0000 ( 38227 PWs)   bands (ev):

   -66.6477 -66.6477 -66.5114 -66.5114 -66.3257 -66.3256 -48.1072 -48.1071
   -48.0761 -48.0761 -47.5186 -47.5185 -33.1187 -33.1178 -32.9439 -32.9435
   -32.8839 -32.8823 -32.8786 -32.8779 -32.8050 -32.8044 -32.7781 -32.7773
   -32.6648 -32.6645 -32.5869 -32.5855 -32.3724 -32.3723 -26.7847 -26.7827
   -26.7771 -26.7756 -26.7563 -26.7548 -26.7346 -26.7338 -26.6259 -26.6229
   -26.5714 -26.5688 -26.2081 -26.2067 -26.1256 -26.1254 -26.0291 -26.0268
   -18.3712 -18.3712 -18.3672 -18.3672 -18.3663 -18.3662 -18.3519 -18.3518
   -18.3460 -18.3459 -18.3142 -18.3141 -18.3133 -18.3132 -18.2195 -18.2195
   -18.2169 -18.2169 -18.2083 -18.2083 -18.2053 -18.2052 -18.2003 -18.2003
   -18.1806 -18.1805 -18.1791 -18.1790 -18.0220 -18.0219 -18.0209 -18.0208
   -18.0134 -18.0132 -18.0125 -18.0125 -18.0085 -18.0084 -17.9829 -17.9828
   -17.9806 -17.9805  -2.9876  -2.3831  -1.6862  -1.5637  -0.9199  -0.5617
    -0.4905  -0.2743  -0.1003   0.0150   0.1829   0.2419   0.5987   0.6364
     0.7454   0.8316   0.8575   1.0222   1.1668   1.2201   1.2520   1.4133
     1.4592   1.5002   1.5849   1.6839   1.7513   1.7812   1.9463   2.1276
     2.1584   2.2042   2.3619   2.5351   2.5711   2.8399   2.8634   3.0243
     3.1400   3.3887   3.3942   3.5815   3.6319   3.7156   3.8151   3.8481
     4.0093

          k =-0.0870 0.0292 0.0000 ( 38235 PWs)   bands (ev):

   -66.6477 -66.6477 -66.5114 -66.5114 -66.3257 -66.3256 -48.1072 -48.1071
   -48.0761 -48.0761 -47.5186 -47.5185 -33.1185 -33.1180 -32.9438 -32.9436
   -32.8836 -32.8827 -32.8783 -32.8780 -32.8049 -32.8045 -32.7779 -32.7774
   -32.6647 -32.6646 -32.5866 -32.5858 -32.3724 -32.3723 -26.7843 -26.7832
   -26.7768 -26.7759 -26.7560 -26.7551 -26.7345 -26.7340 -26.6252 -26.6235
   -26.5709 -26.5694 -26.2079 -26.2070 -26.1255 -26.1255 -26.0286 -26.0273
   -18.3712 -18.3712 -18.3672 -18.3672 -18.3663 -18.3663 -18.3519 -18.3518
   -18.3460 -18.3459 -18.3142 -18.3142 -18.3132 -18.3132 -18.2195 -18.2195
   -18.2169 -18.2169 -18.2083 -18.2083 -18.2053 -18.2053 -18.2003 -18.2002
   -18.1806 -18.1805 -18.1791 -18.1790 -18.0220 -18.0219 -18.0209 -18.0208
   -18.0134 -18.0132 -18.0125 -18.0125 -18.0085 -18.0084 -17.9829 -17.9828
   -17.9805 -17.9805  -2.9000  -2.5767  -1.6264  -1.4866  -0.9110  -0.5167
    -0.3880  -0.3719  -0.2290  -0.0723   0.2634   0.2860   0.6335   0.6968
     0.7914   0.8450   0.8891   1.0046   1.0744   1.1886   1.2607   1.3849
     1.4032   1.4966   1.5740   1.6637   1.7636   1.7993   1.9283   2.1023
     2.2439   2.2644   2.3731   2.5463   2.5536   2.7076   2.7925   2.8970
     3.2736   3.3975   3.5181   3.6416   3.6718   3.8205   3.8847   3.9143
     4.0007

          k =-0.0870-0.1313 0.0000 ( 38260 PWs)   bands (ev):

   -66.6477 -66.6477 -66.5114 -66.5114 -66.3257 -66.3256 -48.1072 -48.1072
   -48.0761 -48.0761 -47.5186 -47.5185 -33.1183 -33.1183 -32.9437 -32.9437
   -32.8832 -32.8832 -32.8782 -32.8782 -32.8048 -32.8046 -32.7777 -32.7777
   -32.6647 -32.6646 -32.5862 -32.5862 -32.3724 -32.3723 -26.7837 -26.7837
   -26.7764 -26.7764 -26.7556 -26.7556 -26.7342 -26.7342 -26.6244 -26.6244
   -26.5701 -26.5701 -26.2075 -26.2075 -26.1255 -26.1255 -26.0280 -26.0279
   -18.3712 -18.3712 -18.3672 -18.3672 -18.3663 -18.3663 -18.3518 -18.3518
   -18.3460 -18.3459 -18.3142 -18.3142 -18.3132 -18.3132 -18.2195 -18.2195
   -18.2170 -18.2170 -18.2083 -18.2083 -18.2053 -18.2053 -18.2003 -18.2003
   -18.1806 -18.1805 -18.1791 -18.1790 -18.0220 -18.0219 -18.0209 -18.0209
   -18.0133 -18.0133 -18.0125 -18.0125 -18.0085 -18.0084 -17.9829 -17.9828
   -17.9806 -17.9805  -2.7593  -2.7593  -1.5420  -1.5420  -0.7212  -0.7212
    -0.3417  -0.3417  -0.1977  -0.1977   0.2958   0.2958   0.6791   0.6791
     0.8466   0.8467   0.9611   0.9612   1.0834   1.0835   1.3109   1.3109
     1.4263   1.4263   1.6325   1.6325   1.7822   1.7822   1.9999   1.9999
     2.3030   2.3030   2.4757   2.4757   2.5660   2.5661   2.8248   2.8248
     3.3521   3.3522   3.6423   3.6425   3.7748   3.7752   3.9424   3.9452
     4.0709

     the Fermi energy is     1.6261 ev

!    total energy              =   -4682.76411300 Ry
     estimated scf accuracy    <       0.00000237 Ry
     smearing contrib. (-TS)   =      -0.08939062 Ry
     internal energy E=F+TS    =   -4682.67472238 Ry

     The total energy is F=E-TS. E is the sum of the following terms:
     one-electron contribution =  -26428.43816461 Ry
     hartree contribution      =   13305.88247073 Ry
     xc contribution           =    -522.60689856 Ry
     ewald contribution        =    8962.48786112 Ry
     electric field correction =       0.00000894 Ry

     convergence has been achieved in  18 iterations

     negative rho (up, down):  3.848E-04 0.000E+00

     Forces acting on atoms (cartesian axes, Ry/au):

     atom    1 type  1   force =    -0.00000176   -0.01495022   -0.01108279
     atom    2 type  1   force =     0.00000049   -0.01495083   -0.01108795
     atom    3 type  2   force =     0.00001030    0.00822985    0.03836114
     atom    4 type  2   force =    -0.00001991    0.00824065    0.03833692
     atom    5 type  1   force =    -0.00000400    0.01235982   -0.00576600
     atom    6 type  1   force =     0.00001015    0.01236501   -0.00577349
     atom    7 type  2   force =    -0.00003249   -0.00701661   -0.01661489
     atom    8 type  2   force =     0.00003654   -0.00701061   -0.01664591
     atom    9 type  1   force =     0.00000699    0.00237102   -0.00242959
     atom   10 type  1   force =     0.00001391    0.00236777   -0.00241670
     atom   11 type  2   force =    -0.00001216   -0.00098553   -0.00244264
     atom   12 type  2   force =    -0.00000805   -0.00102033   -0.00243809

     Total force =     0.069501     Total SCF correction =     0.008496
     SCF correction compared to forces is large: reduce conv_thr to get better values

     Writing output data file ./Sc2Ta2/Sc2Ta2_beef.save/

     init_run     :    166.13s CPU    166.93s WALL (       1 calls)
     electrons    :  10180.03s CPU  10209.74s WALL (       1 calls)
     forces       :    134.80s CPU    135.06s WALL (       1 calls)

     Called by init_run:
     wfcinit      :    153.03s CPU    153.53s WALL (       1 calls)
     potinit      :      8.01s CPU      8.09s WALL (       1 calls)
     hinit0       :      2.51s CPU      2.53s WALL (       1 calls)

     Called by electrons:
     c_bands      :   9313.87s CPU   9332.79s WALL (      18 calls)
     sum_band     :    790.58s CPU    796.96s WALL (      18 calls)
     v_of_rho     :     42.40s CPU     43.46s WALL (      19 calls)
     newd         :     37.11s CPU     40.55s WALL (      19 calls)
     mix_rho      :      3.57s CPU      3.59s WALL (      18 calls)
     vdW_kernel   :      5.69s CPU      5.69s WALL (       1 calls)

     Called by c_bands:
     init_us_2    :     16.71s CPU     16.76s WALL (    2812 calls)
     cegterg      :   9237.00s CPU   9253.87s WALL (    1332 calls)

     Called by *egterg:
     cdiaghg      :    546.21s CPU    546.49s WALL (    7986 calls)
     h_psi        :   5075.98s CPU   5089.64s WALL (    8060 calls)
     s_psi        :   1063.04s CPU   1063.41s WALL (    8060 calls)
     g_psi        :      2.02s CPU      2.03s WALL (    6654 calls)

     Called by h_psi:
     h_psi:calbec :   1148.44s CPU   1149.85s WALL (    8060 calls)
     vloc_psi     :   2825.01s CPU   2836.77s WALL (    8060 calls)
     add_vuspsi   :   1094.48s CPU   1094.94s WALL (    8060 calls)

     General routines
     calbec       :   1719.96s CPU   1722.00s WALL (    9688 calls)
     fft          :     41.10s CPU     41.54s WALL (    1256 calls)
     ffts         :      0.64s CPU      0.65s WALL (      37 calls)
     fftw         :   3045.35s CPU   3058.59s WALL ( 1059430 calls)
     interpolate  :      0.81s CPU      0.83s WALL (      19 calls)

     Parallel routines
     fft_scatt_xy :     74.11s CPU     74.93s WALL ( 1060723 calls)
     fft_scatt_yz :   2315.75s CPU   2321.20s WALL ( 1060723 calls)

     PWSCF        :      3h 1m CPU      3h 2m WALL


   This run was terminated on:   2:12:36  26Jun2022            

=------------------------------------------------------------------------------=
   JOB DONE.
=------------------------------------------------------------------------------=
