
     Program PWSCF v.6.6 starts on 10Jul2022 at 20:24:41 

     This program is part of the open-source Quantum ESPRESSO suite
     for quantum simulation of materials; please cite
         "P. Giannozzi et al., J. Phys.:Condens. Matter 21 395502 (2009);
         "P. Giannozzi et al., J. Phys.:Condens. Matter 29 465901 (2017);
          URL http://www.quantum-espresso.org", 
     in publications or presentations arising from this work. More details at
     http://www.quantum-espresso.org/quote

     Parallel version (MPI), running on    37 processors

     MPI processes distributed on     1 nodes
     R & G space division:  proc/nbgrp/npool/nimage =      37
     Fft bands division:     nmany     =       1
     Reading input from Sc2Zr2.in
Warning: card &CELL ignored
Warning: card / ignored

     Current dimensions of program PWSCF are:
     Max number of different atomic species (ntypx) = 10
     Max number of k-points (npk) =  40000
     Max angular momentum in pseudopotentials (lmaxx) =  3
     Presently stress not available with electric field and gates

     Message from routine cell_base_init:
     DEPRECATED: use true lattice parameter, not A to a.u. conversion factor
     file Sc.pbe-spn-rrkjus_psl.1.0.0.UPF: wavefunction(s)  3S 3P renormalized
     file Zr.pbe-spn-rrkjus_psl.1.0.0.UPF: wavefunction(s)  4S renormalized

     **************************************************************************
     Initializing libbeef V0.1.2 with the BEEF-vdW functional.
     Citation: Wellendorff et al., PRB 85, 235149 (2012).
     **************************************************************************


     IMPORTANT: XC functional enforced from input :
     Exchange-correlation= BEEF-VDW
                           (   1   4  43  14   2   0   0)
     Any further DFT definition will be discarded
     Please, verify this is what you really want


     Subspace diagonalization in iterative solution of the eigenvalue problem:
     a serial algorithm will be used


     Parallelization info
     --------------------
     sticks:   dense  smooth     PW     G-vecs:    dense   smooth      PW
     Min         151      60     17                35923     9080    1387
     Max         152      61     18                35940     9101    1402
     Sum        5599    2233    645              1329351   336285   51521



     bravais-lattice index     =            0
     lattice parameter (alat)  =       1.8897  a.u.
     unit-cell volume          =    6081.9265 (a.u.)^3
     number of atoms/cell      =           12
     number of atomic types    =            2
     number of electrons       =       138.00
     number of Kohn-Sham states=           83
     kinetic-energy cutoff     =      55.1240  Ry
     charge density cutoff     =     551.2396  Ry
     convergence threshold     =      1.0E-05
     mixing beta               =       0.1000
     number of iterations used =           10  plain     mixing
     Exchange-correlation= BEEF-VDW
                           (   1   4  43  14   2   0   0)

     celldm(1)=   1.889726  celldm(2)=   0.000000  celldm(3)=   0.000000
     celldm(4)=   0.000000  celldm(5)=   0.000000  celldm(6)=   0.000000

     crystal axes: (cart. coord. in units of alat)
               a(1) = (   6.388562   0.000000   0.000000 )  
               a(2) = (  -3.194281   5.588742   0.000000 )  
               a(3) = (   0.000000   0.000000  25.242216 )  

     reciprocal axes: (cart. coord. in units 2 pi/alat)
               b(1) = (  0.156530  0.089466 -0.000000 )  
               b(2) = (  0.000000  0.178931  0.000000 )  
               b(3) = (  0.000000 -0.000000  0.039616 )  


     PseudoPot. # 1 for Sc read from file:
     ../pseudo/Sc.pbe-spn-rrkjus_psl.1.0.0.UPF
     MD5 check sum: f739f74c200e509e5c24cbe053202ee5
     Pseudo is Ultrasoft + core correction, Zval = 11.0
     Generated using "atomic" code by A. Dal Corso v.6.2.2
     Using radial grid of 1173 points,  6 beta functions with: 
                l(1) =   0
                l(2) =   0
                l(3) =   1
                l(4) =   1
                l(5) =   2
                l(6) =   2
     Q(r) pseudized with 0 coefficients 


     PseudoPot. # 2 for Zr read from file:
     ../pseudo/Zr.pbe-spn-rrkjus_psl.1.0.0.UPF
     MD5 check sum: 3d17ee99aa1707c2ccb6b09ed65e51a1
     Pseudo is Ultrasoft + core correction, Zval = 12.0
     Generated using "atomic" code by A. Dal Corso v.6.2.2
     Using radial grid of 1225 points,  6 beta functions with: 
                l(1) =   0
                l(2) =   0
                l(3) =   1
                l(4) =   1
                l(5) =   2
                l(6) =   2
     Q(r) pseudized with 0 coefficients 


     atomic species   valence    mass     pseudopotential
        Sc            11.00    44.95591     Sc( 1.00)
        Zr            12.00    91.22400     Zr( 1.00)

     No symmetry found



   Cartesian axes

     site n.     atom                  positions (alat units)
         1           Sc  tau(   1) = (   0.0000000   0.0000000  10.0000000  )
         2           Sc  tau(   2) = (   3.1942809   0.0000000  10.0000000  )
         3           Zr  tau(   3) = (   1.5971404   2.7943711  10.0000000  )
         4           Zr  tau(   4) = (  -1.5971404   2.7943711  10.0000000  )
         5           Sc  tau(   5) = (   3.1942809   1.8257114  12.6211082  )
         6           Sc  tau(   6) = (   0.0000000   1.8257114  12.6211082  )
         7           Zr  tau(   7) = (  -1.5971404   4.6200825  12.6211082  )
         8           Zr  tau(   8) = (   1.5971404   4.6200825  12.6211082  )
         9           Sc  tau(   9) = (  -0.0000034   3.6548078  15.2161083  )
        10           Sc  tau(  10) = (   3.1942916   3.6547443  15.2160466  )
        11           Zr  tau(  11) = (   4.7914522   0.8399397  15.0761942  )
        12           Zr  tau(  12) = (   1.5971099   0.8399556  15.0761990  )

     number of k points=    74  Fermi-Dirac smearing, width (Ry)=  0.0100
                       cart. coord. in units 2pi/alat
        k(    1) = (   0.0000000   0.0000000   0.0000000), wk =   0.0138889
        k(    2) = (   0.0000000   0.0149109   0.0000000), wk =   0.0277778
        k(    3) = (   0.0000000   0.0298219   0.0000000), wk =   0.0277778
        k(    4) = (   0.0000000   0.0447328   0.0000000), wk =   0.0277778
        k(    5) = (   0.0000000   0.0596437   0.0000000), wk =   0.0277778
        k(    6) = (   0.0000000   0.0745546   0.0000000), wk =   0.0277778
        k(    7) = (   0.0000000  -0.0894656   0.0000000), wk =   0.0138889
        k(    8) = (   0.0130441   0.0074555   0.0000000), wk =   0.0277778
        k(    9) = (   0.0130441   0.0223664   0.0000000), wk =   0.0277778
        k(   10) = (   0.0130441   0.0372773   0.0000000), wk =   0.0277778
        k(   11) = (   0.0130441   0.0521883   0.0000000), wk =   0.0277778
        k(   12) = (   0.0130441   0.0670992   0.0000000), wk =   0.0277778
        k(   13) = (   0.0130441   0.0820101   0.0000000), wk =   0.0277778
        k(   14) = (   0.0130441  -0.0820101   0.0000000), wk =   0.0277778
        k(   15) = (   0.0130441  -0.0670992   0.0000000), wk =   0.0277778
        k(   16) = (   0.0130441  -0.0521883   0.0000000), wk =   0.0277778
        k(   17) = (   0.0130441  -0.0372773   0.0000000), wk =   0.0277778
        k(   18) = (   0.0130441  -0.0223664   0.0000000), wk =   0.0277778
        k(   19) = (   0.0130441  -0.0074555   0.0000000), wk =   0.0277778
        k(   20) = (   0.0260883   0.0149109   0.0000000), wk =   0.0277778
        k(   21) = (   0.0260883   0.0298219   0.0000000), wk =   0.0277778
        k(   22) = (   0.0260883   0.0447328   0.0000000), wk =   0.0277778
        k(   23) = (   0.0260883   0.0596437   0.0000000), wk =   0.0277778
        k(   24) = (   0.0260883   0.0745546   0.0000000), wk =   0.0277778
        k(   25) = (   0.0260883   0.0894656   0.0000000), wk =   0.0277778
        k(   26) = (   0.0260883  -0.0745546   0.0000000), wk =   0.0277778
        k(   27) = (   0.0260883  -0.0596437   0.0000000), wk =   0.0277778
        k(   28) = (   0.0260883  -0.0447328   0.0000000), wk =   0.0277778
        k(   29) = (   0.0260883  -0.0298219   0.0000000), wk =   0.0277778
        k(   30) = (   0.0260883  -0.0149109   0.0000000), wk =   0.0277778
        k(   31) = (   0.0260883  -0.0000000   0.0000000), wk =   0.0277778
        k(   32) = (   0.0391324   0.0223664   0.0000000), wk =   0.0277778
        k(   33) = (   0.0391324   0.0372773   0.0000000), wk =   0.0277778
        k(   34) = (   0.0391324   0.0521883   0.0000000), wk =   0.0277778
        k(   35) = (   0.0391324   0.0670992   0.0000000), wk =   0.0277778
        k(   36) = (   0.0391324   0.0820101   0.0000000), wk =   0.0277778
        k(   37) = (   0.0391324   0.0969210   0.0000000), wk =   0.0277778
        k(   38) = (   0.0391324  -0.0670992   0.0000000), wk =   0.0277778
        k(   39) = (   0.0391324  -0.0521883   0.0000000), wk =   0.0277778
        k(   40) = (   0.0391324  -0.0372773   0.0000000), wk =   0.0277778
        k(   41) = (   0.0391324  -0.0223664   0.0000000), wk =   0.0277778
        k(   42) = (   0.0391324  -0.0074555   0.0000000), wk =   0.0277778
        k(   43) = (   0.0391324   0.0074555   0.0000000), wk =   0.0277778
        k(   44) = (   0.0521766   0.0298219   0.0000000), wk =   0.0277778
        k(   45) = (   0.0521766   0.0447328   0.0000000), wk =   0.0277778
        k(   46) = (   0.0521766   0.0596437   0.0000000), wk =   0.0277778
        k(   47) = (   0.0521766   0.0745546   0.0000000), wk =   0.0277778
        k(   48) = (   0.0521766   0.0894656   0.0000000), wk =   0.0277778
        k(   49) = (   0.0521766   0.1043765   0.0000000), wk =   0.0277778
        k(   50) = (   0.0521766  -0.0596437   0.0000000), wk =   0.0277778
        k(   51) = (   0.0521766  -0.0447328   0.0000000), wk =   0.0277778
        k(   52) = (   0.0521766  -0.0298219   0.0000000), wk =   0.0277778
        k(   53) = (   0.0521766  -0.0149109   0.0000000), wk =   0.0277778
        k(   54) = (   0.0521766   0.0000000   0.0000000), wk =   0.0277778
        k(   55) = (   0.0521766   0.0149109   0.0000000), wk =   0.0277778
        k(   56) = (   0.0652207   0.0372773   0.0000000), wk =   0.0277778
        k(   57) = (   0.0652207   0.0521883   0.0000000), wk =   0.0277778
        k(   58) = (   0.0652207   0.0670992   0.0000000), wk =   0.0277778
        k(   59) = (   0.0652207   0.0820101   0.0000000), wk =   0.0277778
        k(   60) = (   0.0652207   0.0969210   0.0000000), wk =   0.0277778
        k(   61) = (   0.0652207   0.1118320   0.0000000), wk =   0.0277778
        k(   62) = (   0.0652207  -0.0521883   0.0000000), wk =   0.0277778
        k(   63) = (   0.0652207  -0.0372773   0.0000000), wk =   0.0277778
        k(   64) = (   0.0652207  -0.0223664   0.0000000), wk =   0.0277778
        k(   65) = (   0.0652207  -0.0074555   0.0000000), wk =   0.0277778
        k(   66) = (   0.0652207   0.0074555   0.0000000), wk =   0.0277778
        k(   67) = (   0.0652207   0.0223664   0.0000000), wk =   0.0277778
        k(   68) = (  -0.0782649  -0.0447328   0.0000000), wk =   0.0138889
        k(   69) = (  -0.0782649  -0.0298219   0.0000000), wk =   0.0277778
        k(   70) = (  -0.0782649  -0.0149109   0.0000000), wk =   0.0277778
        k(   71) = (  -0.0782649   0.0000000   0.0000000), wk =   0.0277778
        k(   72) = (  -0.0782649   0.0149109   0.0000000), wk =   0.0277778
        k(   73) = (  -0.0782649   0.0298219   0.0000000), wk =   0.0277778
        k(   74) = (  -0.0782649  -0.1341984   0.0000000), wk =   0.0138889

     Dense  grid:  1329351 G-vectors     FFT dimensions: (  96,  96, 360)

     Smooth grid:   336285 G-vectors     FFT dimensions: (  60,  60, 225)

     Estimated max dynamical RAM per process >     250.85 MB

     Estimated total dynamical RAM >       9.06 GB

     Check: negative core charge=   -0.000001

     Initial potential from superposition of free atoms

     starting charge  137.97173, renormalised to  138.00000

     negative rho (up, down):  4.992E-04 0.000E+00


     %%%%%%%%%%%%%%%%%%%%%%%%%%%%%%%%%%%%%%%%%%%%%%%%%%%%%%%%%%%%%%%%%%%%%%%%
     %                                                                      %
     % You are using vdW-DF, which was implemented by the Thonhauser group. %
     % Please cite the following two papers that made this development      %
     % possible and the two reviews that describe the various versions:     %
     %                                                                      %
     %   T. Thonhauser et al., PRL 115, 136402 (2015).                      %
     %   T. Thonhauser et al., PRB 76, 125112 (2007).                       %
     %   K. Berland et al., Rep. Prog. Phys. 78, 066501 (2015).             %
     %   D.C. Langreth et al., J. Phys.: Condens. Matter 21, 084203 (2009). %
     %                                                                      %
     %                                                                      %
     % If you are calculating the stress with vdW-DF, please also cite:     %
     %                                                                      %
     %   R. Sabatini et al., J. Phys.: Condens. Matter 24, 424209 (2012).   %
     %                                                                      %
     %%%%%%%%%%%%%%%%%%%%%%%%%%%%%%%%%%%%%%%%%%%%%%%%%%%%%%%%%%%%%%%%%%%%%%%%



     Adding external electric field

     Computed dipole along edir(3) : 
        Dipole                0.0002 Ry au,          0.0004 Debye
        Dipole field          0.0000 Ry au, 

        Potential amp.       -0.0000 Ry
        Total length         46.5084 bohr

     Starting wfcs are  138 randomized atomic wfcs

     total cpu time spent up to now is      153.7 secs

     Self-consistent Calculation

     iteration #  1     ecut=    55.12 Ry     beta= 0.10
     Davidson diagonalization with overlap
     ethr =  1.00E-02,  avg # of iterations =  2.0

     negative rho (up, down):  2.533E-04 0.000E+00

     Adding external electric field

     Computed dipole along edir(3) : 
        Dipole               -0.2464 Ry au,         -0.6264 Debye
        Dipole field         -0.0005 Ry au, 

        Potential amp.        0.0474 Ry
        Total length         46.5084 bohr


     total cpu time spent up to now is      361.2 secs

     total energy              =   -1190.05388408 Ry
     estimated scf accuracy    <       7.12932363 Ry

     iteration #  2     ecut=    55.12 Ry     beta= 0.10
     Davidson diagonalization with overlap
     ethr =  5.17E-03,  avg # of iterations =  2.0

     negative rho (up, down):  2.222E-04 0.000E+00

     Adding external electric field

     Computed dipole along edir(3) : 
        Dipole                0.7046 Ry au,          1.7909 Debye
        Dipole field          0.0015 Ry au, 

        Potential amp.       -0.1354 Ry
        Total length         46.5084 bohr


     total cpu time spent up to now is      580.0 secs

     total energy              =   -1190.63198628 Ry
     estimated scf accuracy    <       3.14121010 Ry

     iteration #  3     ecut=    55.12 Ry     beta= 0.10
     Davidson diagonalization with overlap
     ethr =  2.28E-03,  avg # of iterations =  4.6

     negative rho (up, down):  2.241E-04 0.000E+00

     Adding external electric field

     Computed dipole along edir(3) : 
        Dipole               -0.0608 Ry au,         -0.1545 Debye
        Dipole field         -0.0001 Ry au, 

        Potential amp.        0.0117 Ry
        Total length         46.5084 bohr


     total cpu time spent up to now is      807.2 secs

     total energy              =   -1190.62582622 Ry
     estimated scf accuracy    <      22.56870725 Ry

     iteration #  4     ecut=    55.12 Ry     beta= 0.10
     Davidson diagonalization with overlap
     ethr =  2.28E-03,  avg # of iterations =  1.8

     negative rho (up, down):  2.182E-04 0.000E+00

     Adding external electric field

     Computed dipole along edir(3) : 
        Dipole               -0.0562 Ry au,         -0.1429 Debye
        Dipole field         -0.0001 Ry au, 

        Potential amp.        0.0108 Ry
        Total length         46.5084 bohr


     total cpu time spent up to now is     1008.4 secs

     total energy              =   -1190.83137470 Ry
     estimated scf accuracy    <       0.46644294 Ry

     iteration #  5     ecut=    55.12 Ry     beta= 0.10
     Davidson diagonalization with overlap
     ethr =  3.38E-04,  avg # of iterations = 12.9

     negative rho (up, down):  2.068E-04 0.000E+00

     Adding external electric field

     Computed dipole along edir(3) : 
        Dipole                0.0633 Ry au,          0.1608 Debye
        Dipole field          0.0001 Ry au, 

        Potential amp.       -0.0122 Ry
        Total length         46.5084 bohr


     total cpu time spent up to now is     1375.7 secs

     total energy              =   -1190.95904599 Ry
     estimated scf accuracy    <       0.36696292 Ry

     iteration #  6     ecut=    55.12 Ry     beta= 0.10
     Davidson diagonalization with overlap
     ethr =  2.66E-04,  avg # of iterations =  2.0

     negative rho (up, down):  2.202E-04 0.000E+00

     Adding external electric field

     Computed dipole along edir(3) : 
        Dipole                0.0213 Ry au,          0.0542 Debye
        Dipole field          0.0000 Ry au, 

        Potential amp.       -0.0041 Ry
        Total length         46.5084 bohr


     total cpu time spent up to now is     1589.4 secs

     total energy              =   -1190.99117287 Ry
     estimated scf accuracy    <       0.18973147 Ry

     iteration #  7     ecut=    55.12 Ry     beta= 0.10
     Davidson diagonalization with overlap
     ethr =  1.37E-04,  avg # of iterations =  3.0

     negative rho (up, down):  2.535E-04 0.000E+00

     Adding external electric field

     Computed dipole along edir(3) : 
        Dipole                0.0518 Ry au,          0.1316 Debye
        Dipole field          0.0001 Ry au, 

        Potential amp.       -0.0100 Ry
        Total length         46.5084 bohr


     total cpu time spent up to now is     1800.6 secs

     total energy              =   -1190.98991859 Ry
     estimated scf accuracy    <       0.10886581 Ry

     iteration #  8     ecut=    55.12 Ry     beta= 0.10
     Davidson diagonalization with overlap
     c_bands:  3 eigenvalues not converged
     ethr =  7.89E-05,  avg # of iterations =  3.2

     negative rho (up, down):  2.755E-04 0.000E+00

     Adding external electric field

     Computed dipole along edir(3) : 
        Dipole                0.0178 Ry au,          0.0452 Debye
        Dipole field          0.0000 Ry au, 

        Potential amp.       -0.0034 Ry
        Total length         46.5084 bohr


     total cpu time spent up to now is     2017.5 secs

     total energy              =   -1190.97720967 Ry
     estimated scf accuracy    <       0.14125971 Ry

     iteration #  9     ecut=    55.12 Ry     beta= 0.10
     Davidson diagonalization with overlap
     ethr =  7.89E-05,  avg # of iterations =  2.1

     negative rho (up, down):  3.286E-04 0.000E+00

     Adding external electric field

     Computed dipole along edir(3) : 
        Dipole                0.0190 Ry au,          0.0482 Debye
        Dipole field          0.0000 Ry au, 

        Potential amp.       -0.0036 Ry
        Total length         46.5084 bohr


     total cpu time spent up to now is     2227.8 secs

     total energy              =   -1190.98531854 Ry
     estimated scf accuracy    <       0.00626640 Ry

     iteration # 10     ecut=    55.12 Ry     beta= 0.10
     Davidson diagonalization with overlap
     c_bands:  5 eigenvalues not converged
     c_bands:  2 eigenvalues not converged
     c_bands:  3 eigenvalues not converged
     c_bands:  3 eigenvalues not converged
     c_bands:  2 eigenvalues not converged
     c_bands:  2 eigenvalues not converged
     c_bands:  5 eigenvalues not converged
     c_bands:  3 eigenvalues not converged
     c_bands:  3 eigenvalues not converged
     c_bands:  4 eigenvalues not converged
     c_bands:  2 eigenvalues not converged
     c_bands:  3 eigenvalues not converged
     c_bands:  2 eigenvalues not converged
     c_bands:  1 eigenvalues not converged
     c_bands:  1 eigenvalues not converged
     c_bands:  1 eigenvalues not converged
     c_bands:  5 eigenvalues not converged
     c_bands:  1 eigenvalues not converged
     c_bands:  1 eigenvalues not converged
     c_bands:  2 eigenvalues not converged
     c_bands:  1 eigenvalues not converged
     c_bands:  5 eigenvalues not converged
     c_bands:  4 eigenvalues not converged
     c_bands:  1 eigenvalues not converged
     c_bands:  2 eigenvalues not converged
     c_bands:  5 eigenvalues not converged
     c_bands:  2 eigenvalues not converged
     c_bands:  2 eigenvalues not converged
     c_bands:  5 eigenvalues not converged
     c_bands:  1 eigenvalues not converged
     c_bands:  1 eigenvalues not converged
     c_bands:  2 eigenvalues not converged
     c_bands:  3 eigenvalues not converged
     c_bands:  2 eigenvalues not converged
     c_bands:  4 eigenvalues not converged
     c_bands:  2 eigenvalues not converged
     c_bands:  3 eigenvalues not converged
     c_bands:  2 eigenvalues not converged
     c_bands:  5 eigenvalues not converged
     c_bands:  1 eigenvalues not converged
     c_bands:  1 eigenvalues not converged
     c_bands:  1 eigenvalues not converged
     c_bands:  4 eigenvalues not converged
     c_bands:  4 eigenvalues not converged
     c_bands:  1 eigenvalues not converged
     c_bands:  1 eigenvalues not converged
     c_bands:  2 eigenvalues not converged
     c_bands:  2 eigenvalues not converged
     c_bands:  1 eigenvalues not converged
     c_bands:  4 eigenvalues not converged
     ethr =  4.54E-06,  avg # of iterations = 24.8

     negative rho (up, down):  3.303E-04 0.000E+00

     Adding external electric field

     Computed dipole along edir(3) : 
        Dipole                0.0078 Ry au,          0.0198 Debye
        Dipole field          0.0000 Ry au, 

        Potential amp.       -0.0015 Ry
        Total length         46.5084 bohr


     total cpu time spent up to now is     2969.0 secs

     total energy              =   -1190.99193553 Ry
     estimated scf accuracy    <       0.00530900 Ry

     iteration # 11     ecut=    55.12 Ry     beta= 0.10
     Davidson diagonalization with overlap
     c_bands:  1 eigenvalues not converged
     c_bands:  1 eigenvalues not converged
     c_bands:  1 eigenvalues not converged
     c_bands:  1 eigenvalues not converged
     c_bands:  1 eigenvalues not converged
     c_bands:  1 eigenvalues not converged
     c_bands:  1 eigenvalues not converged
     c_bands:  1 eigenvalues not converged
     c_bands:  2 eigenvalues not converged
     c_bands:  1 eigenvalues not converged
     c_bands:  1 eigenvalues not converged
     c_bands:  1 eigenvalues not converged
     ethr =  3.85E-06,  avg # of iterations =  6.9

     negative rho (up, down):  3.872E-04 0.000E+00

     Adding external electric field

     Computed dipole along edir(3) : 
        Dipole               -0.0225 Ry au,         -0.0573 Debye
        Dipole field         -0.0000 Ry au, 

        Potential amp.        0.0043 Ry
        Total length         46.5084 bohr


     total cpu time spent up to now is     3188.1 secs

     total energy              =   -1190.99238346 Ry
     estimated scf accuracy    <       0.00240627 Ry

     iteration # 12     ecut=    55.12 Ry     beta= 0.10
     Davidson diagonalization with overlap
     c_bands:  2 eigenvalues not converged
     c_bands:  1 eigenvalues not converged
     c_bands:  1 eigenvalues not converged
     c_bands:  5 eigenvalues not converged
     c_bands:  1 eigenvalues not converged
     c_bands:  2 eigenvalues not converged
     c_bands:  2 eigenvalues not converged
     c_bands:  2 eigenvalues not converged
     c_bands:  1 eigenvalues not converged
     c_bands:  1 eigenvalues not converged
     c_bands:  2 eigenvalues not converged
     c_bands:  2 eigenvalues not converged
     c_bands:  4 eigenvalues not converged
     c_bands:  1 eigenvalues not converged
     c_bands:  1 eigenvalues not converged
     c_bands:  1 eigenvalues not converged
     c_bands:  1 eigenvalues not converged
     c_bands:  1 eigenvalues not converged
     c_bands:  2 eigenvalues not converged
     c_bands:  1 eigenvalues not converged
     c_bands:  1 eigenvalues not converged
     c_bands:  1 eigenvalues not converged
     ethr =  1.74E-06,  avg # of iterations = 13.9

     negative rho (up, down):  4.076E-04 0.000E+00

     Adding external electric field

     Computed dipole along edir(3) : 
        Dipole               -0.0140 Ry au,         -0.0355 Debye
        Dipole field         -0.0000 Ry au, 

        Potential amp.        0.0027 Ry
        Total length         46.5084 bohr


     total cpu time spent up to now is     3547.2 secs

     total energy              =   -1190.99282111 Ry
     estimated scf accuracy    <       0.00913860 Ry

     iteration # 13     ecut=    55.12 Ry     beta= 0.10
     Davidson diagonalization with overlap
     c_bands:  2 eigenvalues not converged
     c_bands:  2 eigenvalues not converged
     c_bands:  1 eigenvalues not converged
     c_bands:  1 eigenvalues not converged
     ethr =  1.74E-06,  avg # of iterations =  4.0

     negative rho (up, down):  4.070E-04 0.000E+00

     Adding external electric field

     Computed dipole along edir(3) : 
        Dipole               -0.0065 Ry au,         -0.0165 Debye
        Dipole field         -0.0000 Ry au, 

        Potential amp.        0.0012 Ry
        Total length         46.5084 bohr


     total cpu time spent up to now is     3772.4 secs

     total energy              =   -1190.99289709 Ry
     estimated scf accuracy    <       0.00332613 Ry

     iteration # 14     ecut=    55.12 Ry     beta= 0.10
     Davidson diagonalization with overlap
     c_bands:  2 eigenvalues not converged
     ethr =  1.74E-06,  avg # of iterations =  2.3

     negative rho (up, down):  4.093E-04 0.000E+00

     Adding external electric field

     Computed dipole along edir(3) : 
        Dipole               -0.0073 Ry au,         -0.0184 Debye
        Dipole field         -0.0000 Ry au, 

        Potential amp.        0.0014 Ry
        Total length         46.5084 bohr


     total cpu time spent up to now is     3982.5 secs

     total energy              =   -1190.99297752 Ry
     estimated scf accuracy    <       0.00022132 Ry

     iteration # 15     ecut=    55.12 Ry     beta= 0.10
     Davidson diagonalization with overlap
     c_bands:  1 eigenvalues not converged
     c_bands:  1 eigenvalues not converged
     c_bands:  1 eigenvalues not converged
     c_bands:  3 eigenvalues not converged
     c_bands:  1 eigenvalues not converged
     c_bands:  1 eigenvalues not converged
     ethr =  1.60E-07,  avg # of iterations = 14.0

     negative rho (up, down):  4.099E-04 0.000E+00

     Adding external electric field

     Computed dipole along edir(3) : 
        Dipole               -0.0080 Ry au,         -0.0203 Debye
        Dipole field         -0.0000 Ry au, 

        Potential amp.        0.0015 Ry
        Total length         46.5084 bohr


     total cpu time spent up to now is     4408.3 secs

     total energy              =   -1190.99311795 Ry
     estimated scf accuracy    <       0.00040124 Ry

     iteration # 16     ecut=    55.12 Ry     beta= 0.10
     Davidson diagonalization with overlap
     ethr =  1.60E-07,  avg # of iterations =  2.0

     negative rho (up, down):  4.114E-04 0.000E+00

     Adding external electric field

     Computed dipole along edir(3) : 
        Dipole               -0.0080 Ry au,         -0.0205 Debye
        Dipole field         -0.0000 Ry au, 

        Potential amp.        0.0015 Ry
        Total length         46.5084 bohr


     total cpu time spent up to now is     4613.0 secs

     total energy              =   -1190.99308469 Ry
     estimated scf accuracy    <       0.00020650 Ry

     iteration # 17     ecut=    55.12 Ry     beta= 0.10
     Davidson diagonalization with overlap
     ethr =  1.50E-07,  avg # of iterations =  2.6

     negative rho (up, down):  4.127E-04 0.000E+00

     Adding external electric field

     Computed dipole along edir(3) : 
        Dipole               -0.0068 Ry au,         -0.0172 Debye
        Dipole field         -0.0000 Ry au, 

        Potential amp.        0.0013 Ry
        Total length         46.5084 bohr


     total cpu time spent up to now is     4842.8 secs

     total energy              =   -1190.99311737 Ry
     estimated scf accuracy    <       0.00005549 Ry

     iteration # 18     ecut=    55.12 Ry     beta= 0.10
     Davidson diagonalization with overlap
     ethr =  4.02E-08,  avg # of iterations =  7.3

     negative rho (up, down):  4.212E-04 0.000E+00

     Adding external electric field

     Computed dipole along edir(3) : 
        Dipole               -0.0189 Ry au,         -0.0481 Debye
        Dipole field         -0.0000 Ry au, 

        Potential amp.        0.0036 Ry
        Total length         46.5084 bohr


     total cpu time spent up to now is     5085.4 secs

     End of self-consistent calculation

          k = 0.0000 0.0000 0.0000 ( 42023 PWs)   bands (ev):

   -48.9703 -48.9694 -48.9437 -48.9429 -48.3927 -48.3599 -48.2977 -48.2559
   -48.1558 -48.1137 -47.8857 -47.8411 -27.6880 -27.6796 -27.6237 -27.5982
   -27.5880 -27.5734 -27.5706 -27.5633 -27.5254 -27.5174 -27.4212 -27.4173
   -27.1318 -27.0498 -27.0185 -26.9848 -26.9798 -26.8433 -26.4261 -26.3317
   -26.3057 -26.2939 -26.2441 -26.2071 -26.1912 -26.1600 -26.0965 -26.0702
   -26.0684 -25.9624 -25.8468 -25.8457 -25.8126 -25.7363 -25.6985 -25.6005
    -3.8989  -2.8065  -1.7138  -1.3413  -1.2264  -1.0757  -1.0362  -0.8402
    -0.8000  -0.7419  -0.6496  -0.3764  -0.2973  -0.2827  -0.1868   0.1376
     0.3673   0.4900   0.9291   0.9902   1.4259   1.4402   1.4592   1.5397
     1.5731   1.6695   1.8709   1.9676   2.0742   2.1053   2.1889   2.2688
     2.2804   2.3342   2.3966

          k = 0.0000 0.0149 0.0000 ( 42113 PWs)   bands (ev):

   -48.9702 -48.9693 -48.9437 -48.9429 -48.3926 -48.3599 -48.2978 -48.2559
   -48.1559 -48.1137 -47.8858 -47.8411 -27.6871 -27.6787 -27.6232 -27.5986
   -27.5877 -27.5709 -27.5707 -27.5609 -27.5240 -27.5163 -27.4211 -27.4172
   -27.1305 -27.0473 -27.0181 -26.9833 -26.9802 -26.8432 -26.4277 -26.3338
   -26.3071 -26.2949 -26.2447 -26.2075 -26.1935 -26.1608 -26.0987 -26.0712
   -26.0701 -25.9626 -25.8472 -25.8470 -25.8133 -25.7374 -25.6987 -25.6006
    -3.8554  -2.7646  -1.6718  -1.3143  -1.1954  -1.1125  -1.0486  -0.8472
    -0.7634  -0.7172  -0.6150  -0.3198  -0.2772  -0.2630  -0.1631   0.1397
     0.3733   0.5018   0.9233   0.9973   1.3671   1.4254   1.4570   1.5262
     1.5462   1.6546   1.8311   1.9240   2.0458   2.0513   2.1698   2.2192
     2.2418   2.3307   2.4283

          k = 0.0000 0.0298 0.0000 ( 42085 PWs)   bands (ev):

   -48.9700 -48.9691 -48.9437 -48.9429 -48.3922 -48.3599 -48.2981 -48.2559
   -48.1562 -48.1137 -47.8861 -47.8411 -27.6843 -27.6761 -27.6216 -27.5997
   -27.5867 -27.5717 -27.5632 -27.5545 -27.5199 -27.5128 -27.4208 -27.4169
   -27.1270 -27.0410 -27.0164 -26.9817 -26.9788 -26.8429 -26.4321 -26.3398
   -26.3110 -26.2975 -26.2470 -26.2087 -26.1994 -26.1629 -26.1047 -26.0749
   -26.0738 -25.9631 -25.8515 -25.8475 -25.8153 -25.7403 -25.6993 -25.6011
    -3.7267  -2.6413  -1.5486  -1.2551  -1.2364  -1.1055  -1.0444  -0.8594
    -0.6567  -0.6388  -0.5365  -0.2182  -0.2059  -0.1698  -0.0924   0.1440
     0.3912   0.5357   0.8965   1.0127   1.2225   1.3629   1.4055   1.4450
     1.5187   1.6037   1.7244   1.8335   1.8691   1.9657   2.0232   2.1336
     2.1949   2.2075   2.3082

          k = 0.0000 0.0447 0.0000 ( 42049 PWs)   bands (ev):

   -48.9697 -48.9688 -48.9437 -48.9429 -48.3918 -48.3599 -48.2985 -48.2559
   -48.1566 -48.1137 -47.8866 -47.8411 -27.6806 -27.6725 -27.6191 -27.6014
   -27.5852 -27.5728 -27.5529 -27.5455 -27.5144 -27.5081 -27.4204 -27.4164
   -27.1221 -27.0350 -27.0112 -26.9833 -26.9730 -26.8424 -26.4382 -26.3479
   -26.3163 -26.3010 -26.2518 -26.2107 -26.2064 -26.1656 -26.1127 -26.0815
   -26.0773 -25.9637 -25.8580 -25.8481 -25.8180 -25.7437 -25.7000 -25.6016
    -3.5185  -2.4450  -1.4819  -1.3529  -1.1178  -1.0557  -0.9678  -0.8625
    -0.5128  -0.4912  -0.4490  -0.1243  -0.1204   0.0077   0.0568   0.1489
     0.4189   0.5853   0.8266   1.0145   1.0466   1.2194   1.2829   1.3040
     1.4663   1.4929   1.5596   1.6384   1.7318   1.8579   1.8907   1.9939
     2.0372   2.0651   2.1414

          k = 0.0000 0.0596 0.0000 ( 41973 PWs)   bands (ev):

   -48.9694 -48.9685 -48.9437 -48.9429 -48.3913 -48.3599 -48.2989 -48.2559
   -48.1570 -48.1137 -47.8870 -47.8411 -27.6768 -27.6689 -27.6161 -27.6034
   -27.5833 -27.5743 -27.5424 -27.5364 -27.5089 -27.5034 -27.4200 -27.4160
   -27.1172 -27.0322 -27.0024 -26.9850 -26.9670 -26.8418 -26.4443 -26.3560
   -26.3216 -26.3045 -26.2585 -26.2130 -26.2121 -26.1680 -26.1204 -26.0881
   -26.0809 -25.9643 -25.8651 -25.8487 -25.8209 -25.7465 -25.7007 -25.6022
    -3.2408  -2.1944  -1.7776  -1.1391  -1.0876  -0.9772  -0.8554  -0.8078
    -0.3866  -0.3570  -0.2954  -0.0281  -0.0031   0.1492   0.1712   0.3131
     0.4468   0.6375   0.7006   0.8707   1.0071   1.0167   1.1100   1.1442
     1.3124   1.3261   1.3514   1.4729   1.6065   1.7232   1.7701   1.8467
     1.8494   2.0349   2.0395

          k = 0.0000 0.0746 0.0000 ( 42013 PWs)   bands (ev):

   -48.9692 -48.9683 -48.9437 -48.9429 -48.3909 -48.3599 -48.2992 -48.2559
   -48.1574 -48.1137 -47.8873 -47.8411 -27.6741 -27.6663 -27.6131 -27.6057
   -27.5814 -27.5760 -27.5346 -27.5297 -27.5049 -27.4998 -27.4197 -27.4157
   -27.1137 -27.0315 -26.9944 -26.9863 -26.9625 -26.8415 -26.4489 -26.3622
   -26.3256 -26.3071 -26.2644 -26.2158 -26.2149 -26.1697 -26.1258 -26.0930
   -26.0834 -25.9648 -25.8707 -25.8492 -25.8231 -25.7483 -25.7011 -25.6026
    -2.9094  -2.1594  -1.8803  -1.2815  -0.8478  -0.8454  -0.8278  -0.6764
    -0.4005  -0.2075  -0.1346   0.0355   0.1266   0.2656   0.2853   0.4551
     0.5688   0.5781   0.6936   0.7386   0.7877   0.9298   0.9820   1.0352
     1.0761   1.1838   1.1945   1.3088   1.5313   1.6075   1.6685   1.6693
     1.7209   1.9995   2.0385

          k = 0.0000-0.0895 0.0000 ( 41986 PWs)   bands (ev):

   -48.9691 -48.9682 -48.9437 -48.9429 -48.3908 -48.3599 -48.2993 -48.2559
   -48.1575 -48.1137 -47.8874 -47.8411 -27.6731 -27.6653 -27.6112 -27.6074
   -27.5803 -27.5770 -27.5317 -27.5272 -27.5034 -27.4985 -27.4196 -27.4156
   -27.1123 -27.0314 -26.9912 -26.9869 -26.9609 -26.8413 -26.4505 -26.3644
   -26.3270 -26.3081 -26.2667 -26.2171 -26.2156 -26.1702 -26.1277 -26.0948
   -26.0843 -25.9649 -25.8728 -25.8494 -25.8239 -25.7489 -25.7013 -25.6028
    -2.6019  -2.4666  -1.6882  -1.4374  -0.8410  -0.7889  -0.6418  -0.6294
    -0.4864  -0.1382  -0.0729   0.0534   0.1987   0.3469   0.3749   0.4408
     0.5417   0.6589   0.6643   0.6693   0.7547   0.9033   0.9393   0.9519
     1.0295   1.0437   1.1483   1.2156   1.5102   1.5626   1.5969   1.6270
     1.6692   1.9601   2.0616

          k = 0.0130 0.0075 0.0000 ( 42034 PWs)   bands (ev):

   -48.9698 -48.9689 -48.9441 -48.9433 -48.3921 -48.3604 -48.2970 -48.2566
   -48.1551 -48.1144 -47.8850 -47.8419 -27.6834 -27.6750 -27.6229 -27.5979
   -27.5882 -27.5716 -27.5713 -27.5616 -27.5250 -27.5172 -27.4255 -27.4216
   -27.1269 -27.0477 -27.0177 -26.9843 -26.9805 -26.8482 -26.4192 -26.3316
   -26.3004 -26.2937 -26.2436 -26.2079 -26.1916 -26.1613 -26.0969 -26.0715
   -26.0613 -25.9711 -25.8557 -25.8455 -25.8137 -25.7360 -25.6994 -25.6093
    -3.8542  -2.7629  -1.6721  -1.3179  -1.2242  -1.0531  -1.0075  -0.9220
    -0.7520  -0.6858  -0.6038  -0.3526  -0.2720  -0.2560  -0.1714   0.1555
     0.3771   0.4933   0.9311   0.9987   1.3850   1.4122   1.4373   1.5347
     1.5532   1.6416   1.8412   1.9445   2.0682   2.0776   2.1491   2.2222
     2.2331   2.3107   2.3503

          k = 0.0130 0.0224 0.0000 ( 42068 PWs)   bands (ev):

   -48.9697 -48.9688 -48.9441 -48.9433 -48.3919 -48.3604 -48.2972 -48.2566
   -48.1553 -48.1144 -47.8852 -47.8419 -27.6815 -27.6732 -27.6218 -27.5987
   -27.5876 -27.5718 -27.5664 -27.5572 -27.5223 -27.5150 -27.4253 -27.4214
   -27.1244 -27.0431 -27.0168 -26.9821 -26.9808 -26.8480 -26.4222 -26.3356
   -26.3029 -26.2957 -26.2449 -26.2087 -26.1958 -26.1627 -26.1010 -26.0733
   -26.0646 -25.9714 -25.8560 -25.8483 -25.8150 -25.7381 -25.6998 -25.6096
    -3.7680  -2.6801  -1.5893  -1.2690  -1.1858  -1.1412  -1.0143  -0.8974
    -0.6964  -0.6319  -0.5424  -0.2514  -0.2326  -0.2158  -0.1244   0.1600
     0.3881   0.5161   0.9151   1.0101   1.2976   1.3364   1.4593   1.4742
     1.5101   1.6164   1.7662   1.8712   1.9530   2.0023   2.0645   2.1399
     2.1827   2.2605   2.2985

          k = 0.0130 0.0373 0.0000 ( 42076 PWs)   bands (ev):

   -48.9694 -48.9685 -48.9441 -48.9433 -48.3915 -48.3604 -48.2976 -48.2566
   -48.1557 -48.1144 -47.8856 -47.8419 -27.6782 -27.6701 -27.6197 -27.6001
   -27.5863 -27.5728 -27.5575 -27.5494 -27.5176 -27.5110 -27.4250 -27.4211
   -27.1202 -27.0365 -27.0137 -26.9830 -26.9764 -26.8476 -26.4275 -26.3427
   -26.3075 -26.2988 -26.2483 -26.2103 -26.2024 -26.1650 -26.1081 -26.0763
   -26.0703 -25.9719 -25.8567 -25.8536 -25.8173 -25.7413 -25.7004 -25.6100
    -3.5993  -2.5195  -1.4296  -1.3272  -1.1841  -1.1195  -1.0134  -0.8371
    -0.5908  -0.5125  -0.4554  -0.1564  -0.1475  -0.0756  -0.0283   0.1675
     0.4098   0.5581   0.8665   1.0213   1.1256   1.2430   1.3508   1.3797
     1.4957   1.5175   1.6113   1.7506   1.7799   1.8942   1.9283   2.0185
     2.0851   2.1253   2.2037

          k = 0.0130 0.0522 0.0000 ( 42002 PWs)   bands (ev):

   -48.9691 -48.9682 -48.9441 -48.9433 -48.3910 -48.3604 -48.2980 -48.2566
   -48.1561 -48.1144 -47.8860 -47.8419 -27.6744 -27.6665 -27.6170 -27.6019
   -27.5847 -27.5741 -27.5469 -27.5402 -27.5122 -27.5064 -27.4247 -27.4208
   -27.1152 -27.0321 -27.0064 -26.9846 -26.9706 -26.8473 -26.4337 -26.3509
   -26.3128 -26.3023 -26.2541 -26.2123 -26.2088 -26.1675 -26.1160 -26.0799
   -26.0768 -25.9724 -25.8610 -25.8566 -25.8201 -25.7444 -25.7011 -25.6105
    -3.3557  -2.2930  -1.5929  -1.2052  -1.1093  -1.0471  -1.0177  -0.7277
    -0.4505  -0.3748  -0.3391  -0.0537  -0.0489   0.0714   0.1433   0.2121
     0.4372   0.6096   0.7646   0.9421   1.0210   1.0926   1.1985   1.2058
     1.3668   1.3791   1.4587   1.5616   1.6453   1.7604   1.7847   1.8763
     1.9421   2.0384   2.0734

          k = 0.0130 0.0671 0.0000 ( 42009 PWs)   bands (ev):

   -48.9688 -48.9679 -48.9441 -48.9433 -48.3905 -48.3604 -48.2984 -48.2566
   -48.1565 -48.1144 -47.8864 -47.8419 -27.6711 -27.6633 -27.6140 -27.6041
   -27.5829 -27.5757 -27.5376 -27.5322 -27.5076 -27.5024 -27.4244 -27.4205
   -27.1108 -27.0307 -26.9976 -26.9862 -26.9656 -26.8470 -26.4391 -26.3581
   -26.3176 -26.3052 -26.2606 -26.2144 -26.2134 -26.1695 -26.1226 -26.0838
   -26.0818 -25.9729 -25.8674 -25.8573 -25.8225 -25.7467 -25.7016 -25.6109
    -3.0495  -2.0447  -1.8978  -1.1629  -1.0693  -0.9339  -0.8916  -0.5905
    -0.3437  -0.3109  -0.1542   0.0314   0.0787   0.1882   0.2421   0.4346
     0.4558   0.6267   0.6519   0.7961   0.9106   0.9951   1.0057   1.0552
     1.1323   1.2339   1.3231   1.4049   1.5311   1.6223   1.6613   1.7355
     1.7358   1.9839   2.0616

          k = 0.0130 0.0820 0.0000 ( 42009 PWs)   bands (ev):

   -48.9687 -48.9678 -48.9441 -48.9433 -48.3903 -48.3604 -48.2986 -48.2566
   -48.1567 -48.1144 -47.8866 -47.8419 -27.6692 -27.6615 -27.6112 -27.6064
   -27.5813 -27.5771 -27.5322 -27.5276 -27.5049 -27.5000 -27.4243 -27.4203
   -27.1083 -27.0304 -26.9918 -26.9871 -26.9626 -26.8468 -26.4422 -26.3623
   -26.3203 -26.3069 -26.2649 -26.2159 -26.2157 -26.1706 -26.1263 -26.0868
   -26.0839 -25.9732 -25.8713 -25.8576 -25.8240 -25.7479 -25.7019 -25.6112
    -2.7027  -2.3043  -1.7258  -1.3506  -1.0507  -0.7996  -0.6753  -0.4888
    -0.4145  -0.2338  -0.0159   0.0667   0.1923   0.3106   0.3619   0.4481
     0.5479   0.6049   0.6585   0.6779   0.7733   0.8442   0.9304   1.0037
     1.0225   1.1550   1.1622   1.2625   1.4816   1.5331   1.5811   1.6157
     1.6420   1.8952   2.0878

          k = 0.0130-0.0820 0.0000 ( 42009 PWs)   bands (ev):

   -48.9687 -48.9678 -48.9441 -48.9433 -48.3903 -48.3604 -48.2986 -48.2566
   -48.1567 -48.1144 -47.8866 -47.8419 -27.6692 -27.6615 -27.6112 -27.6064
   -27.5813 -27.5771 -27.5322 -27.5276 -27.5049 -27.5000 -27.4243 -27.4203
   -27.1083 -27.0304 -26.9918 -26.9871 -26.9626 -26.8468 -26.4422 -26.3623
   -26.3203 -26.3069 -26.2649 -26.2159 -26.2157 -26.1706 -26.1263 -26.0868
   -26.0839 -25.9732 -25.8713 -25.8576 -25.8240 -25.7479 -25.7019 -25.6112
    -2.7027  -2.3043  -1.7258  -1.3506  -1.0507  -0.7996  -0.6753  -0.4889
    -0.4145  -0.2338  -0.0159   0.0667   0.1923   0.3106   0.3619   0.4481
     0.5479   0.6049   0.6585   0.6779   0.7733   0.8442   0.9304   1.0037
     1.0225   1.1550   1.1622   1.2625   1.4816   1.5331   1.5811   1.6157
     1.6420   1.8942   2.0870

          k = 0.0130-0.0671 0.0000 ( 42009 PWs)   bands (ev):

   -48.9688 -48.9679 -48.9441 -48.9433 -48.3905 -48.3604 -48.2984 -48.2566
   -48.1565 -48.1144 -47.8864 -47.8419 -27.6711 -27.6633 -27.6140 -27.6041
   -27.5829 -27.5757 -27.5376 -27.5322 -27.5076 -27.5024 -27.4244 -27.4205
   -27.1108 -27.0307 -26.9976 -26.9862 -26.9656 -26.8470 -26.4391 -26.3581
   -26.3176 -26.3052 -26.2606 -26.2144 -26.2134 -26.1695 -26.1226 -26.0838
   -26.0818 -25.9729 -25.8674 -25.8573 -25.8225 -25.7467 -25.7016 -25.6109
    -3.0495  -2.0447  -1.8978  -1.1629  -1.0693  -0.9339  -0.8916  -0.5906
    -0.3437  -0.3109  -0.1542   0.0314   0.0787   0.1882   0.2421   0.4346
     0.4558   0.6267   0.6519   0.7961   0.9106   0.9951   1.0057   1.0552
     1.1323   1.2339   1.3231   1.4049   1.5311   1.6223   1.6614   1.7354
     1.7358   1.9844   2.0616

          k = 0.0130-0.0522 0.0000 ( 42002 PWs)   bands (ev):

   -48.9691 -48.9682 -48.9441 -48.9433 -48.3910 -48.3604 -48.2980 -48.2566
   -48.1561 -48.1144 -47.8860 -47.8419 -27.6744 -27.6665 -27.6170 -27.6019
   -27.5847 -27.5741 -27.5469 -27.5402 -27.5122 -27.5064 -27.4247 -27.4208
   -27.1152 -27.0321 -27.0064 -26.9846 -26.9706 -26.8473 -26.4337 -26.3509
   -26.3128 -26.3023 -26.2541 -26.2123 -26.2088 -26.1675 -26.1160 -26.0799
   -26.0768 -25.9724 -25.8610 -25.8566 -25.8201 -25.7444 -25.7011 -25.6105
    -3.3557  -2.2930  -1.5929  -1.2052  -1.1093  -1.0471  -1.0177  -0.7277
    -0.4505  -0.3748  -0.3391  -0.0537  -0.0489   0.0714   0.1433   0.2121
     0.4372   0.6096   0.7646   0.9421   1.0210   1.0926   1.1985   1.2058
     1.3668   1.3791   1.4587   1.5616   1.6453   1.7604   1.7847   1.8764
     1.9420   2.0385   2.0744

          k = 0.0130-0.0373 0.0000 ( 42076 PWs)   bands (ev):

   -48.9694 -48.9685 -48.9441 -48.9433 -48.3915 -48.3604 -48.2976 -48.2566
   -48.1557 -48.1144 -47.8856 -47.8419 -27.6782 -27.6701 -27.6197 -27.6001
   -27.5863 -27.5728 -27.5575 -27.5494 -27.5176 -27.5110 -27.4250 -27.4211
   -27.1202 -27.0365 -27.0137 -26.9830 -26.9764 -26.8476 -26.4275 -26.3427
   -26.3075 -26.2988 -26.2483 -26.2103 -26.2024 -26.1650 -26.1081 -26.0763
   -26.0703 -25.9719 -25.8567 -25.8536 -25.8173 -25.7413 -25.7004 -25.6100
    -3.5993  -2.5195  -1.4296  -1.3272  -1.1841  -1.1195  -1.0134  -0.8371
    -0.5908  -0.5125  -0.4554  -0.1564  -0.1475  -0.0756  -0.0283   0.1675
     0.4098   0.5581   0.8664   1.0213   1.1256   1.2430   1.3508   1.3797
     1.4957   1.5175   1.6113   1.7506   1.7798   1.8942   1.9283   2.0184
     2.0852   2.1252   2.1949

          k = 0.0130-0.0224 0.0000 ( 42068 PWs)   bands (ev):

   -48.9697 -48.9688 -48.9441 -48.9433 -48.3919 -48.3604 -48.2972 -48.2566
   -48.1553 -48.1144 -47.8852 -47.8419 -27.6815 -27.6732 -27.6218 -27.5987
   -27.5876 -27.5718 -27.5664 -27.5572 -27.5223 -27.5150 -27.4253 -27.4214
   -27.1244 -27.0431 -27.0168 -26.9821 -26.9808 -26.8480 -26.4222 -26.3356
   -26.3029 -26.2956 -26.2449 -26.2087 -26.1958 -26.1627 -26.1010 -26.0733
   -26.0646 -25.9714 -25.8560 -25.8483 -25.8150 -25.7381 -25.6998 -25.6096
    -3.7680  -2.6801  -1.5893  -1.2690  -1.1858  -1.1412  -1.0143  -0.8974
    -0.6964  -0.6319  -0.5424  -0.2514  -0.2326  -0.2158  -0.1244   0.1600
     0.3881   0.5161   0.9151   1.0101   1.2976   1.3364   1.4593   1.4742
     1.5101   1.6163   1.7662   1.8712   1.9529   2.0021   2.0645   2.1394
     2.1826   2.2601   2.3008

          k = 0.0130-0.0075 0.0000 ( 42034 PWs)   bands (ev):

   -48.9698 -48.9689 -48.9441 -48.9433 -48.3921 -48.3604 -48.2970 -48.2566
   -48.1551 -48.1144 -47.8850 -47.8419 -27.6834 -27.6750 -27.6229 -27.5979
   -27.5882 -27.5716 -27.5713 -27.5616 -27.5250 -27.5172 -27.4255 -27.4216
   -27.1269 -27.0477 -27.0177 -26.9843 -26.9805 -26.8482 -26.4192 -26.3316
   -26.3004 -26.2937 -26.2436 -26.2079 -26.1916 -26.1613 -26.0969 -26.0715
   -26.0613 -25.9711 -25.8557 -25.8455 -25.8137 -25.7360 -25.6994 -25.6093
    -3.8542  -2.7629  -1.6721  -1.3179  -1.2242  -1.0531  -1.0075  -0.9220
    -0.7520  -0.6858  -0.6038  -0.3526  -0.2720  -0.2560  -0.1714   0.1555
     0.3771   0.4933   0.9311   0.9987   1.3850   1.4122   1.4373   1.5347
     1.5532   1.6416   1.8412   1.9445   2.0679   2.0779   2.1491   2.2207
     2.2350   2.3119   2.3504

          k = 0.0261 0.0149 0.0000 ( 42086 PWs)   bands (ev):

   -48.9685 -48.9676 -48.9454 -48.9446 -48.3904 -48.3619 -48.2950 -48.2588
   -48.1531 -48.1166 -47.8828 -47.8442 -27.6698 -27.6617 -27.6203 -27.5971
   -27.5889 -27.5734 -27.5663 -27.5570 -27.5240 -27.5167 -27.4382 -27.4343
   -27.1125 -27.0417 -27.0153 -26.9837 -26.9822 -26.8624 -26.3987 -26.3312
   -26.2998 -26.2782 -26.2422 -26.2103 -26.1925 -26.1646 -26.0979 -26.0749
   -26.0407 -25.9964 -25.8811 -25.8452 -25.8169 -25.7351 -25.7021 -25.6350
    -3.7221  -2.6344  -1.5503  -1.2918  -1.2290  -0.9954  -0.9896  -0.9152
    -0.7220  -0.5453  -0.4725  -0.2897  -0.1972  -0.1784  -0.1245   0.2074
     0.4040   0.5031   0.9303   1.0175   1.2723   1.3443   1.3565   1.4285
     1.5524   1.5699   1.7448   1.8772   1.9586   1.9801   2.0492   2.0559
     2.1043   2.2571   2.2732

          k = 0.0261 0.0298 0.0000 ( 42075 PWs)   bands (ev):

   -48.9682 -48.9674 -48.9454 -48.9446 -48.3901 -48.3620 -48.2953 -48.2588
   -48.1534 -48.1166 -47.8831 -47.8442 -27.6672 -27.6593 -27.6188 -27.5981
   -27.5880 -27.5741 -27.5596 -27.5511 -27.5208 -27.5141 -27.4381 -27.4342
   -27.1092 -27.0361 -27.0136 -26.9840 -26.9796 -26.8623 -26.4028 -26.3365
   -26.3019 -26.2817 -26.2444 -26.2113 -26.1977 -26.1662 -26.1033 -26.0769
   -26.0451 -25.9966 -25.8813 -25.8492 -25.8184 -25.7377 -25.7024 -25.6351
    -3.5957  -2.5138  -1.4311  -1.3229  -1.1731  -1.1323  -0.9175  -0.8832
    -0.6371  -0.4553  -0.3936  -0.1747  -0.1409  -0.1142  -0.0555   0.2173
     0.4165   0.5341   0.8924   1.0236   1.1920   1.2105   1.3322   1.3593
     1.4941   1.5042   1.6281   1.8031   1.8088   1.8938   1.9375   1.9536
     2.0317   2.1549   2.2168

          k = 0.0261 0.0447 0.0000 ( 42008 PWs)   bands (ev):

   -48.9680 -48.9671 -48.9454 -48.9446 -48.3896 -48.3620 -48.2957 -48.2588
   -48.1538 -48.1166 -47.8836 -47.8442 -27.6637 -27.6560 -27.6165 -27.5997
   -27.5868 -27.5751 -27.5502 -27.5429 -27.5164 -27.5104 -27.4380 -27.4341
   -27.1046 -27.0307 -27.0087 -26.9853 -26.9751 -26.8622 -26.4083 -26.3437
   -26.3051 -26.2862 -26.2487 -26.2128 -26.2039 -26.1683 -26.1105 -26.0796
   -26.0510 -25.9968 -25.8816 -25.8551 -25.8206 -25.7408 -25.7029 -25.6353
    -3.3910  -2.3208  -1.3653  -1.3500  -1.2361  -1.0757  -0.9299  -0.7474
    -0.5024  -0.3131  -0.3044  -0.0648  -0.0515   0.0067   0.0678   0.2419
     0.4361   0.5795   0.8092   1.0018   1.0249   1.1160   1.1975   1.2632
     1.3728   1.3846   1.4985   1.6348   1.6659   1.7585   1.7918   1.8288
     1.9624   2.0207   2.1334

          k = 0.0261 0.0596 0.0000 ( 42023 PWs)   bands (ev):

   -48.9677 -48.9668 -48.9454 -48.9447 -48.3892 -48.3620 -48.2961 -48.2588
   -48.1542 -48.1166 -47.8840 -47.8442 -27.6602 -27.6526 -27.6136 -27.6017
   -27.5853 -27.5764 -27.5407 -27.5347 -27.5122 -27.5067 -27.4379 -27.4340
   -27.1000 -27.0282 -27.0006 -26.9868 -26.9706 -26.8623 -26.4139 -26.3511
   -26.3085 -26.2904 -26.2546 -26.2146 -26.2091 -26.1703 -26.1175 -26.0824
   -26.0570 -25.9971 -25.8820 -25.8615 -25.8228 -25.7434 -25.7034 -25.6356
    -3.1171  -2.0712  -1.6653  -1.3651  -1.0096  -0.9820  -0.9583  -0.5954
    -0.3471  -0.2406  -0.1473   0.0356   0.0635   0.1090   0.2124   0.3439
     0.4527   0.6230   0.6757   0.8478   0.9851   0.9952   1.0591   1.0814
     1.1712   1.2447   1.4313   1.4908   1.4991   1.6079   1.6465   1.6887
     1.7351   2.0052   2.0693

          k = 0.0261 0.0746 0.0000 ( 42021 PWs)   bands (ev):

   -48.9675 -48.9666 -48.9455 -48.9447 -48.3888 -48.3621 -48.2964 -48.2587
   -48.1545 -48.1166 -47.8843 -47.8441 -27.6576 -27.6501 -27.6107 -27.6041
   -27.5838 -27.5777 -27.5334 -27.5285 -27.5091 -27.5041 -27.4379 -27.4341
   -27.0964 -27.0275 -26.9931 -26.9879 -26.9674 -26.8625 -26.4179 -26.3565
   -26.3112 -26.2932 -26.2597 -26.2161 -26.2124 -26.1717 -26.1224 -26.0845
   -26.0613 -25.9974 -25.8823 -25.8663 -25.8245 -25.7450 -25.7037 -25.6358
    -2.7888  -2.0383  -1.7682  -1.3712  -1.1643  -0.8536  -0.7144  -0.4445
    -0.2619  -0.2555  -0.0101   0.1229   0.1869   0.2102   0.3414   0.4529
     0.4960   0.5633   0.6363   0.7054   0.8491   0.8877   0.9055   1.0052
     1.0402   1.1581   1.3136   1.3669   1.4019   1.4777   1.5425   1.5686
     1.5895   1.8352   2.1156

          k = 0.0261 0.0895 0.0000 ( 41990 PWs)   bands (ev):

   -48.9674 -48.9665 -48.9455 -48.9447 -48.3887 -48.3621 -48.2965 -48.2587
   -48.1546 -48.1166 -47.8844 -47.8441 -27.6566 -27.6492 -27.6087 -27.6058
   -27.5831 -27.5783 -27.5307 -27.5263 -27.5080 -27.5031 -27.4380 -27.4341
   -27.0951 -27.0274 -26.9902 -26.9883 -26.9662 -26.8626 -26.4194 -26.3585
   -26.3123 -26.2942 -26.2618 -26.2167 -26.2135 -26.1722 -26.1241 -26.0853
   -26.0629 -25.9974 -25.8824 -25.8682 -25.8251 -25.7456 -25.7038 -25.6359
    -2.4785  -2.3544  -1.5638  -1.3726  -1.3329  -0.8093  -0.5120  -0.3689
    -0.3471  -0.2760   0.0749   0.1361   0.2559   0.2715   0.4459   0.4653
     0.5380   0.5417   0.6190   0.6526   0.6976   0.7786   0.8598   1.0036
     1.1345   1.1361   1.1510   1.3167   1.3679   1.4264   1.5079   1.5178
     1.5400   1.7700   2.1335

          k = 0.0261-0.0746 0.0000 ( 42021 PWs)   bands (ev):

   -48.9675 -48.9666 -48.9455 -48.9447 -48.3888 -48.3621 -48.2964 -48.2587
   -48.1545 -48.1166 -47.8843 -47.8441 -27.6576 -27.6501 -27.6107 -27.6041
   -27.5838 -27.5777 -27.5334 -27.5285 -27.5091 -27.5041 -27.4379 -27.4341
   -27.0964 -27.0275 -26.9931 -26.9879 -26.9674 -26.8625 -26.4179 -26.3565
   -26.3112 -26.2932 -26.2597 -26.2161 -26.2124 -26.1717 -26.1224 -26.0845
   -26.0613 -25.9974 -25.8823 -25.8663 -25.8245 -25.7450 -25.7037 -25.6358
    -2.7888  -2.0383  -1.7682  -1.3712  -1.1643  -0.8536  -0.7144  -0.4445
    -0.2619  -0.2555  -0.0101   0.1229   0.1869   0.2102   0.3414   0.4529
     0.4960   0.5633   0.6363   0.7054   0.8491   0.8877   0.9055   1.0052
     1.0402   1.1581   1.3136   1.3669   1.4019   1.4777   1.5425   1.5686
     1.5894   1.8349   2.1158

          k = 0.0261-0.0596 0.0000 ( 42023 PWs)   bands (ev):

   -48.9677 -48.9668 -48.9454 -48.9447 -48.3892 -48.3620 -48.2961 -48.2588
   -48.1542 -48.1166 -47.8840 -47.8442 -27.6602 -27.6526 -27.6136 -27.6017
   -27.5853 -27.5764 -27.5407 -27.5347 -27.5122 -27.5067 -27.4379 -27.4340
   -27.1000 -27.0282 -27.0006 -26.9868 -26.9706 -26.8624 -26.4139 -26.3511
   -26.3085 -26.2904 -26.2546 -26.2146 -26.2091 -26.1703 -26.1175 -26.0824
   -26.0570 -25.9971 -25.8820 -25.8614 -25.8228 -25.7434 -25.7034 -25.6356
    -3.1171  -2.0712  -1.6653  -1.3651  -1.0096  -0.9820  -0.9583  -0.5954
    -0.3471  -0.2406  -0.1473   0.0356   0.0635   0.1090   0.2124   0.3439
     0.4527   0.6230   0.6757   0.8478   0.9851   0.9952   1.0591   1.0814
     1.1712   1.2447   1.4313   1.4908   1.4991   1.6079   1.6465   1.6887
     1.7351   2.0068   2.0693

          k = 0.0261-0.0447 0.0000 ( 42008 PWs)   bands (ev):

   -48.9680 -48.9671 -48.9454 -48.9446 -48.3896 -48.3620 -48.2957 -48.2588
   -48.1538 -48.1166 -47.8836 -47.8442 -27.6637 -27.6560 -27.6165 -27.5997
   -27.5868 -27.5751 -27.5502 -27.5429 -27.5164 -27.5104 -27.4380 -27.4341
   -27.1046 -27.0307 -27.0087 -26.9853 -26.9751 -26.8622 -26.4083 -26.3437
   -26.3051 -26.2862 -26.2487 -26.2128 -26.2039 -26.1683 -26.1105 -26.0796
   -26.0510 -25.9968 -25.8816 -25.8551 -25.8206 -25.7408 -25.7029 -25.6353
    -3.3910  -2.3208  -1.3653  -1.3500  -1.2361  -1.0757  -0.9299  -0.7474
    -0.5024  -0.3131  -0.3044  -0.0648  -0.0515   0.0067   0.0678   0.2419
     0.4361   0.5795   0.8092   1.0018   1.0249   1.1160   1.1975   1.2632
     1.3728   1.3847   1.4985   1.6348   1.6659   1.7586   1.7918   1.8290
     1.9624   2.0206   2.1326

          k = 0.0261-0.0298 0.0000 ( 42075 PWs)   bands (ev):

   -48.9682 -48.9674 -48.9454 -48.9446 -48.3901 -48.3620 -48.2953 -48.2588
   -48.1534 -48.1166 -47.8831 -47.8442 -27.6672 -27.6593 -27.6188 -27.5981
   -27.5880 -27.5741 -27.5596 -27.5511 -27.5208 -27.5141 -27.4381 -27.4342
   -27.1092 -27.0361 -27.0136 -26.9840 -26.9796 -26.8623 -26.4028 -26.3365
   -26.3019 -26.2817 -26.2444 -26.2113 -26.1977 -26.1662 -26.1033 -26.0769
   -26.0451 -25.9966 -25.8813 -25.8492 -25.8184 -25.7377 -25.7024 -25.6351
    -3.5957  -2.5138  -1.4311  -1.3229  -1.1731  -1.1323  -0.9175  -0.8832
    -0.6371  -0.4553  -0.3936  -0.1747  -0.1409  -0.1142  -0.0555   0.2173
     0.4165   0.5341   0.8924   1.0236   1.1920   1.2105   1.3322   1.3593
     1.4941   1.5042   1.6280   1.8030   1.8088   1.8938   1.9375   1.9536
     2.0319   2.1545   2.2129

          k = 0.0261-0.0149 0.0000 ( 42086 PWs)   bands (ev):

   -48.9685 -48.9676 -48.9454 -48.9446 -48.3904 -48.3619 -48.2950 -48.2588
   -48.1531 -48.1166 -47.8828 -47.8442 -27.6698 -27.6617 -27.6203 -27.5971
   -27.5889 -27.5734 -27.5663 -27.5570 -27.5240 -27.5167 -27.4382 -27.4343
   -27.1125 -27.0417 -27.0153 -26.9837 -26.9822 -26.8624 -26.3987 -26.3312
   -26.2998 -26.2782 -26.2422 -26.2103 -26.1925 -26.1646 -26.0979 -26.0749
   -26.0407 -25.9964 -25.8811 -25.8452 -25.8169 -25.7351 -25.7021 -25.6350
    -3.7221  -2.6344  -1.5503  -1.2918  -1.2290  -0.9954  -0.9896  -0.9152
    -0.7220  -0.5453  -0.4725  -0.2897  -0.1972  -0.1784  -0.1245   0.2074
     0.4040   0.5031   0.9303   1.0175   1.2723   1.3443   1.3565   1.4285
     1.5524   1.5699   1.7448   1.8772   1.9586   1.9801   2.0493   2.0563
     2.1045   2.2549   2.2732

          k = 0.0261-0.0000 0.0000 ( 42065 PWs)   bands (ev):

   -48.9685 -48.9676 -48.9454 -48.9446 -48.3905 -48.3619 -48.2949 -48.2588
   -48.1530 -48.1166 -47.8827 -47.8443 -27.6707 -27.6625 -27.6209 -27.5967
   -27.5892 -27.5732 -27.5688 -27.5591 -27.5252 -27.5177 -27.4383 -27.4344
   -27.1136 -27.0440 -27.0156 -26.9845 -26.9822 -26.8624 -26.3972 -26.3292
   -26.2990 -26.2769 -26.2416 -26.2100 -26.1904 -26.1640 -26.0959 -26.0742
   -26.0391 -25.9964 -25.8810 -25.8438 -25.8164 -25.7341 -25.7019 -25.6350
    -3.7647  -2.6754  -1.5909  -1.2854  -1.2334  -1.0365  -0.9649  -0.8964
    -0.7503  -0.5756  -0.5069  -0.3353  -0.2165  -0.1981  -0.1480   0.2040
     0.4000   0.4923   0.9404   1.0133   1.3025   1.3373   1.4119   1.4632
     1.5713   1.5733   1.7821   1.9246   1.9842   2.0105   2.0827   2.1550
     2.1702   2.2182   2.3737

          k = 0.0391 0.0224 0.0000 ( 42051 PWs)   bands (ev):

   -48.9663 -48.9654 -48.9474 -48.9466 -48.3876 -48.3644 -48.2918 -48.2623
   -48.1499 -48.1201 -47.8794 -47.8479 -27.6482 -27.6405 -27.6164 -27.5956
   -27.5901 -27.5767 -27.5586 -27.5500 -27.5232 -27.5166 -27.4585 -27.4545
   -27.0897 -27.0329 -27.0113 -26.9865 -26.9820 -26.8848 -26.3656 -26.3302
   -26.3044 -26.2475 -26.2401 -26.2133 -26.1932 -26.1695 -26.0991 -26.0797
   -26.0360 -26.0073 -25.9209 -25.8447 -25.8217 -25.7335 -25.7061 -25.6753
    -3.5085  -2.4290  -1.4654  -1.3599  -1.1578  -0.9689  -0.9110  -0.7662
    -0.6780  -0.3779  -0.2715  -0.1983  -0.0764  -0.0710  -0.0303   0.2879
     0.4417   0.5203   0.9059   1.0173   1.1557   1.2043   1.2242   1.2729
     1.4390   1.4608   1.5618   1.7570   1.7962   1.8367   1.8766   1.9355
     1.9428   2.0900   2.2237

          k = 0.0391 0.0373 0.0000 ( 42029 PWs)   bands (ev):

   -48.9660 -48.9652 -48.9475 -48.9467 -48.3873 -48.3645 -48.2921 -48.2622
   -48.1502 -48.1201 -47.8798 -47.8479 -27.6454 -27.6379 -27.6145 -27.5969
   -27.5893 -27.5773 -27.5514 -27.5437 -27.5204 -27.5143 -27.4586 -27.4546
   -27.0860 -27.0278 -27.0085 -26.9875 -26.9793 -26.8851 -26.3701 -26.3359
   -26.3062 -26.2513 -26.2430 -26.2143 -26.1984 -26.1707 -26.1048 -26.0813
   -26.0357 -26.0120 -25.9208 -25.8492 -25.8228 -25.7362 -25.7063 -25.6750
    -3.3462  -2.2761  -1.5725  -1.2202  -1.1164  -1.0853  -0.8095  -0.7739
    -0.5488  -0.2658  -0.1818  -0.1007  -0.0072   0.0213   0.0514   0.3101
     0.4499   0.5566   0.8310   0.9851   1.0677   1.1058   1.1538   1.2035
     1.3204   1.3582   1.4757   1.6530   1.6631   1.7122   1.7672   1.8201
     1.9234   1.9522   2.2212

          k = 0.0391 0.0522 0.0000 ( 42019 PWs)   bands (ev):

   -48.9658 -48.9649 -48.9475 -48.9467 -48.3868 -48.3646 -48.2925 -48.2622
   -48.1506 -48.1200 -47.8802 -47.8478 -27.6421 -27.6347 -27.6121 -27.5986
   -27.5883 -27.5782 -27.5428 -27.5362 -27.5174 -27.5118 -27.4589 -27.4549
   -27.0815 -27.0243 -27.0023 -26.9887 -26.9763 -26.8858 -26.3752 -26.3424
   -26.3084 -26.2553 -26.2476 -26.2156 -26.2035 -26.1722 -26.1112 -26.0832
   -26.0356 -26.0174 -25.9207 -25.8548 -25.8243 -25.7387 -25.7065 -25.6747
    -3.1109  -2.0576  -1.6511  -1.3757  -1.0562  -0.9893  -0.8124  -0.6579
    -0.3739  -0.1089  -0.0964  -0.0327   0.0898   0.1290   0.1719   0.3675
     0.4548   0.6000   0.7071   0.8694   0.9584   1.0302   1.0538   1.1063
     1.1999   1.2108   1.4269   1.4547   1.5230   1.5850   1.6301   1.6605
     1.7267   2.0177   2.0394

          k = 0.0391 0.0671 0.0000 ( 42015 PWs)   bands (ev):

   -48.9655 -48.9646 -48.9476 -48.9468 -48.3865 -48.3646 -48.2928 -48.2621
   -48.1509 -48.1200 -47.8805 -47.8477 -27.6391 -27.6319 -27.6093 -27.6008
   -27.5872 -27.5791 -27.5351 -27.5296 -27.5150 -27.5097 -27.4593 -27.4554
   -27.0774 -27.0230 -26.9948 -26.9898 -26.9739 -26.8866 -26.3795 -26.3481
   -26.3104 -26.2585 -26.2525 -26.2170 -26.2071 -26.1735 -26.1166 -26.0849
   -26.0355 -26.0221 -25.9207 -25.8599 -25.8256 -25.7406 -25.7067 -25.6747
    -2.8132  -1.7992  -1.7015  -1.7004  -0.9915  -0.9381  -0.7271  -0.5067
    -0.2142  -0.0672  -0.0092   0.0643   0.2041   0.2159   0.3026   0.4412
     0.4736   0.5753   0.6242   0.7288   0.8796   0.9184   0.9490   0.9852
     1.1085   1.1176   1.3025   1.3873   1.4286   1.4386   1.4903   1.4905
     1.5828   1.8284   2.1299

          k = 0.0391 0.0820 0.0000 ( 41991 PWs)   bands (ev):

   -48.9654 -48.9645 -48.9476 -48.9468 -48.3862 -48.3647 -48.2930 -48.2621
   -48.1511 -48.1199 -47.8807 -47.8477 -27.6373 -27.6301 -27.6066 -27.6031
   -27.5864 -27.5797 -27.5304 -27.5257 -27.5137 -27.5085 -27.4596 -27.4558
   -27.0750 -27.0227 -26.9904 -26.9898 -26.9727 -26.8872 -26.3820 -26.3514
   -26.3116 -26.2601 -26.2557 -26.2179 -26.2090 -26.1743 -26.1196 -26.0859
   -26.0355 -26.0247 -25.9207 -25.8629 -25.8265 -25.7415 -25.7068 -25.6747
    -2.4716  -2.0826  -1.7258  -1.5019  -1.1467  -0.9477  -0.4548  -0.3707
    -0.1953  -0.1735   0.0444   0.1812   0.2709   0.3046   0.4416   0.4547
     0.5154   0.5490   0.5965   0.6250   0.7328   0.8067   0.8284   0.9696
     1.1180   1.1449   1.2209   1.2692   1.3338   1.3795   1.3854   1.4274
     1.5180   1.6885   2.1816

          k = 0.0391 0.0969 0.0000 ( 41991 PWs)   bands (ev):

   -48.9654 -48.9645 -48.9476 -48.9468 -48.3862 -48.3647 -48.2930 -48.2621
   -48.1511 -48.1199 -47.8807 -47.8477 -27.6373 -27.6301 -27.6066 -27.6031
   -27.5864 -27.5797 -27.5304 -27.5257 -27.5137 -27.5085 -27.4596 -27.4558
   -27.0750 -27.0227 -26.9904 -26.9898 -26.9727 -26.8872 -26.3820 -26.3514
   -26.3116 -26.2601 -26.2557 -26.2179 -26.2090 -26.1743 -26.1196 -26.0859
   -26.0355 -26.0247 -25.9207 -25.8629 -25.8265 -25.7415 -25.7068 -25.6747
    -2.4716  -2.0826  -1.7258  -1.5019  -1.1467  -0.9477  -0.4548  -0.3707
    -0.1953  -0.1735   0.0444   0.1812   0.2709   0.3046   0.4416   0.4547
     0.5154   0.5490   0.5965   0.6250   0.7328   0.8067   0.8284   0.9696
     1.1180   1.1449   1.2209   1.2692   1.3338   1.3795   1.3854   1.4274
     1.5180   1.6885   2.1827

          k = 0.0391-0.0671 0.0000 ( 42015 PWs)   bands (ev):

   -48.9655 -48.9646 -48.9476 -48.9468 -48.3865 -48.3646 -48.2928 -48.2621
   -48.1509 -48.1200 -47.8805 -47.8477 -27.6391 -27.6319 -27.6093 -27.6008
   -27.5872 -27.5791 -27.5351 -27.5296 -27.5150 -27.5097 -27.4593 -27.4554
   -27.0774 -27.0230 -26.9948 -26.9898 -26.9739 -26.8866 -26.3795 -26.3481
   -26.3104 -26.2584 -26.2525 -26.2170 -26.2071 -26.1735 -26.1166 -26.0849
   -26.0355 -26.0221 -25.9207 -25.8599 -25.8256 -25.7406 -25.7067 -25.6747
    -2.8132  -1.7992  -1.7015  -1.7004  -0.9915  -0.9381  -0.7271  -0.5067
    -0.2142  -0.0672  -0.0092   0.0643   0.2041   0.2159   0.3026   0.4412
     0.4736   0.5753   0.6242   0.7288   0.8796   0.9184   0.9490   0.9852
     1.1085   1.1176   1.3025   1.3873   1.4286   1.4386   1.4903   1.4905
     1.5828   1.8285   2.1302

          k = 0.0391-0.0522 0.0000 ( 42019 PWs)   bands (ev):

   -48.9658 -48.9649 -48.9475 -48.9467 -48.3868 -48.3646 -48.2925 -48.2622
   -48.1506 -48.1200 -47.8802 -47.8478 -27.6421 -27.6347 -27.6121 -27.5986
   -27.5883 -27.5782 -27.5428 -27.5362 -27.5174 -27.5118 -27.4589 -27.4549
   -27.0815 -27.0243 -27.0023 -26.9887 -26.9763 -26.8858 -26.3752 -26.3424
   -26.3084 -26.2553 -26.2476 -26.2156 -26.2035 -26.1722 -26.1112 -26.0832
   -26.0356 -26.0174 -25.9207 -25.8548 -25.8243 -25.7387 -25.7065 -25.6747
    -3.1109  -2.0576  -1.6511  -1.3757  -1.0562  -0.9893  -0.8124  -0.6579
    -0.3739  -0.1089  -0.0964  -0.0327   0.0898   0.1290   0.1719   0.3675
     0.4548   0.6000   0.7071   0.8693   0.9584   1.0302   1.0538   1.1063
     1.1999   1.2108   1.4269   1.4547   1.5230   1.5851   1.6302   1.6605
     1.7267   2.0186   2.0394

          k = 0.0391-0.0373 0.0000 ( 42029 PWs)   bands (ev):

   -48.9660 -48.9652 -48.9475 -48.9467 -48.3873 -48.3645 -48.2921 -48.2622
   -48.1502 -48.1201 -47.8798 -47.8479 -27.6454 -27.6379 -27.6145 -27.5969
   -27.5893 -27.5773 -27.5514 -27.5437 -27.5204 -27.5143 -27.4586 -27.4546
   -27.0860 -27.0278 -27.0085 -26.9875 -26.9793 -26.8852 -26.3701 -26.3359
   -26.3062 -26.2513 -26.2430 -26.2143 -26.1984 -26.1707 -26.1048 -26.0813
   -26.0357 -26.0120 -25.9208 -25.8492 -25.8229 -25.7362 -25.7063 -25.6750
    -3.3462  -2.2761  -1.5725  -1.2202  -1.1164  -1.0853  -0.8095  -0.7739
    -0.5488  -0.2658  -0.1818  -0.1007  -0.0072   0.0213   0.0514   0.3101
     0.4499   0.5566   0.8310   0.9851   1.0677   1.1058   1.1538   1.2035
     1.3204   1.3582   1.4757   1.6529   1.6631   1.7122   1.7675   1.8198
     1.9230   1.9520   2.1635

          k = 0.0391-0.0224 0.0000 ( 42051 PWs)   bands (ev):

   -48.9663 -48.9654 -48.9474 -48.9466 -48.3876 -48.3644 -48.2918 -48.2623
   -48.1499 -48.1201 -47.8794 -47.8479 -27.6482 -27.6405 -27.6164 -27.5956
   -27.5901 -27.5767 -27.5586 -27.5500 -27.5232 -27.5166 -27.4585 -27.4545
   -27.0897 -27.0329 -27.0113 -26.9865 -26.9820 -26.8848 -26.3656 -26.3302
   -26.3044 -26.2475 -26.2401 -26.2133 -26.1932 -26.1695 -26.0991 -26.0797
   -26.0360 -26.0073 -25.9209 -25.8447 -25.8217 -25.7335 -25.7061 -25.6753
    -3.5085  -2.4290  -1.4654  -1.3599  -1.1578  -0.9689  -0.9110  -0.7662
    -0.6780  -0.3779  -0.2715  -0.1983  -0.0764  -0.0710  -0.0303   0.2879
     0.4417   0.5203   0.9059   1.0173   1.1557   1.2043   1.2242   1.2729
     1.4390   1.4608   1.5618   1.7569   1.7968   1.8366   1.8765   1.9351
     1.9428   2.0856   2.2224

          k = 0.0391-0.0075 0.0000 ( 42052 PWs)   bands (ev):

   -48.9664 -48.9655 -48.9474 -48.9466 -48.3879 -48.3644 -48.2916 -48.2623
   -48.1497 -48.1201 -47.8792 -47.8479 -27.6498 -27.6420 -27.6173 -27.5949
   -27.5905 -27.5763 -27.5628 -27.5536 -27.5248 -27.5179 -27.4585 -27.4545
   -27.0917 -27.0366 -27.0122 -26.9860 -26.9836 -26.8847 -26.3630 -26.3270
   -26.3034 -26.2452 -26.2389 -26.2128 -26.1898 -26.1688 -26.0957 -26.0789
   -26.0361 -26.0045 -25.9210 -25.8421 -25.8210 -25.7318 -25.7060 -25.6757
    -3.5912  -2.5075  -1.4357  -1.3414  -1.1784  -1.1235  -0.8420  -0.7416
    -0.7383  -0.4347  -0.3337  -0.2707  -0.1125  -0.1118  -0.0744   0.2785
     0.4380   0.5008   0.9396   1.0242   1.1866   1.2124   1.2590   1.4009
     1.4809   1.5059   1.6237   1.7764   1.8637   1.8920   1.9291   2.0068
     2.0227   2.1777   2.2454

          k = 0.0391 0.0075 0.0000 ( 42052 PWs)   bands (ev):

   -48.9664 -48.9655 -48.9474 -48.9466 -48.3879 -48.3644 -48.2916 -48.2623
   -48.1497 -48.1201 -47.8792 -47.8479 -27.6498 -27.6420 -27.6173 -27.5949
   -27.5905 -27.5763 -27.5628 -27.5536 -27.5248 -27.5179 -27.4585 -27.4545
   -27.0917 -27.0366 -27.0122 -26.9860 -26.9836 -26.8847 -26.3630 -26.3270
   -26.3034 -26.2452 -26.2389 -26.2128 -26.1898 -26.1688 -26.0957 -26.0789
   -26.0361 -26.0045 -25.9210 -25.8421 -25.8210 -25.7318 -25.7060 -25.6757
    -3.5912  -2.5075  -1.4357  -1.3414  -1.1784  -1.1235  -0.8420  -0.7416
    -0.7383  -0.4347  -0.3337  -0.2707  -0.1125  -0.1118  -0.0744   0.2785
     0.4380   0.5008   0.9396   1.0242   1.1866   1.2124   1.2590   1.4009
     1.4809   1.5059   1.6237   1.7762   1.8636   1.8919   1.9290   2.0062
     2.0225   2.1742   2.2419

          k = 0.0522 0.0298 0.0000 ( 42051 PWs)   bands (ev):

   -48.9634 -48.9626 -48.9501 -48.9493 -48.3841 -48.3677 -48.2876 -48.2668
   -48.1457 -48.1246 -47.8749 -47.8527 -27.6206 -27.6132 -27.6113 -27.5937
   -27.5920 -27.5804 -27.5499 -27.5421 -27.5235 -27.5176 -27.4850 -27.4808
   -27.0603 -27.0230 -27.0060 -26.9912 -26.9823 -26.9140 -26.3285 -26.3218
   -26.3099 -26.2375 -26.2229 -26.2001 -26.1933 -26.1746 -26.1019 -26.0849
   -26.0844 -25.9717 -25.9625 -25.8436 -25.8271 -25.7338 -25.7240 -25.7110
    -3.2236  -2.1610  -1.7600  -1.1478  -1.1247  -0.8969  -0.8091  -0.6014
    -0.5859  -0.2777  -0.0408  -0.0302   0.0354   0.0804   0.1334   0.3866
     0.4844   0.5517   0.8141   0.9247   1.0540   1.0824   1.0848   1.1132
     1.2336   1.2902   1.3284   1.5398   1.6112   1.6811   1.7184   1.7963
     1.8487   1.9171   2.1523

          k = 0.0522 0.0447 0.0000 ( 42034 PWs)   bands (ev):

   -48.9632 -48.9623 -48.9502 -48.9494 -48.3837 -48.3678 -48.2880 -48.2666
   -48.1460 -48.1245 -47.8753 -47.8525 -27.6178 -27.6107 -27.6094 -27.5951
   -27.5915 -27.5809 -27.5435 -27.5364 -27.5222 -27.5166 -27.4855 -27.4813
   -27.0566 -27.0193 -27.0022 -26.9921 -26.9811 -26.9150 -26.3335 -26.3261
   -26.3105 -26.2407 -26.2234 -26.2037 -26.1975 -26.1750 -26.1064 -26.0855
   -26.0842 -25.9710 -25.9670 -25.8480 -25.8274 -25.7355 -25.7235 -25.7108
    -3.0317  -1.9849  -1.9065  -1.1751  -1.0874  -0.9123  -0.7109  -0.6133
    -0.4337  -0.2047   0.0378   0.0643   0.1442   0.1567   0.2205   0.4360
     0.4755   0.5956   0.7003   0.8394   0.9315   1.0049   1.0583   1.0673
     1.1122   1.2341   1.2909   1.3828   1.4959   1.5345   1.6240   1.6704
     1.7700   1.9608   2.0196

          k = 0.0522 0.0596 0.0000 ( 42025 PWs)   bands (ev):

   -48.9630 -48.9621 -48.9503 -48.9495 -48.3834 -48.3679 -48.2883 -48.2665
   -48.1463 -48.1244 -47.8756 -47.8524 -27.6150 -27.6079 -27.6071 -27.5969
   -27.5909 -27.5814 -27.5364 -27.5303 -27.5213 -27.5158 -27.4864 -27.4822
   -27.0525 -27.0175 -26.9960 -26.9930 -26.9805 -26.9165 -26.3385 -26.3302
   -26.3113 -26.2446 -26.2234 -26.2074 -26.2009 -26.1757 -26.1110 -26.0862
   -26.0839 -25.9712 -25.9705 -25.8524 -25.8279 -25.7363 -25.7239 -25.7107
    -2.7733  -2.0117  -1.7512  -1.3743  -1.1852  -0.7437  -0.6698  -0.5586
    -0.2619  -0.1184   0.0956   0.1372   0.2476   0.2535   0.3183   0.4281
     0.5237   0.5711   0.6370   0.7106   0.8603   0.9289   0.9707   0.9903
     1.0376   1.1912   1.2168   1.2985   1.3855   1.4061   1.4946   1.4986
     1.6413   1.8563   2.0912

          k = 0.0522 0.0746 0.0000 ( 42021 PWs)   bands (ev):

   -48.9628 -48.9619 -48.9503 -48.9495 -48.3831 -48.3680 -48.2885 -48.2665
   -48.1465 -48.1243 -47.8758 -47.8524 -27.6128 -27.6057 -27.6046 -27.5990
   -27.5903 -27.5817 -27.5308 -27.5256 -27.5209 -27.5154 -27.4874 -27.4833
   -27.0491 -27.0169 -26.9937 -26.9902 -26.9805 -26.9181 -26.3423 -26.3331
   -26.3119 -26.2479 -26.2229 -26.2104 -26.2030 -26.1763 -26.1143 -26.0869
   -26.0837 -25.9742 -25.9702 -25.8557 -25.8284 -25.7365 -25.7246 -25.7106
    -2.4600  -2.0748  -1.7298  -1.4763  -1.1848  -0.8920  -0.4458  -0.4207
    -0.1945  -0.0472   0.0867   0.1595   0.3301   0.3485   0.4065   0.4192
     0.4852   0.5978   0.6009   0.6430   0.8054   0.8390   0.8910   0.9286
     1.0133   1.1382   1.1822   1.2516   1.2917   1.3528   1.3583   1.4021
     1.5435   1.7092   2.1873

          k = 0.0522 0.0895 0.0000 ( 42014 PWs)   bands (ev):

   -48.9627 -48.9619 -48.9503 -48.9495 -48.3830 -48.3681 -48.2886 -48.2664
   -48.1466 -48.1243 -47.8759 -47.8523 -27.6119 -27.6048 -27.6028 -27.6006
   -27.5901 -27.5819 -27.5285 -27.5239 -27.5208 -27.5152 -27.4878 -27.4839
   -27.0478 -27.0168 -26.9940 -26.9878 -26.9805 -26.9188 -26.3437 -26.3341
   -26.3121 -26.2492 -26.2226 -26.2117 -26.2037 -26.1766 -26.1155 -26.0871
   -26.0837 -25.9753 -25.9701 -25.8569 -25.8286 -25.7365 -25.7249 -25.7106
    -2.1485  -2.0958  -2.0575  -1.2486  -1.1832  -1.0925  -0.3310  -0.2320
    -0.2249  -0.0892  -0.0108   0.1974   0.3706   0.4260   0.4307   0.4483
     0.4674   0.5470   0.6208   0.6551   0.7529   0.7628   0.8572   0.9204
     1.0331   1.1303   1.1898   1.2092   1.2547   1.2552   1.3539   1.4020
     1.5077   1.6400   2.2165

          k = 0.0522 0.1044 0.0000 ( 42021 PWs)   bands (ev):

   -48.9628 -48.9619 -48.9503 -48.9495 -48.3831 -48.3680 -48.2885 -48.2665
   -48.1465 -48.1243 -47.8758 -47.8524 -27.6128 -27.6057 -27.6046 -27.5990
   -27.5903 -27.5817 -27.5308 -27.5256 -27.5209 -27.5154 -27.4874 -27.4833
   -27.0491 -27.0169 -26.9937 -26.9902 -26.9805 -26.9181 -26.3423 -26.3331
   -26.3119 -26.2479 -26.2229 -26.2104 -26.2030 -26.1763 -26.1143 -26.0869
   -26.0837 -25.9742 -25.9702 -25.8557 -25.8284 -25.7365 -25.7245 -25.7106
    -2.4600  -2.0748  -1.7298  -1.4763  -1.1848  -0.8920  -0.4458  -0.4207
    -0.1945  -0.0472   0.0867   0.1595   0.3301   0.3485   0.4065   0.4192
     0.4852   0.5977   0.6009   0.6430   0.8054   0.8390   0.8910   0.9286
     1.0133   1.1382   1.1822   1.2516   1.2917   1.3528   1.3583   1.4021
     1.5435   1.7092   2.1850

          k = 0.0522-0.0596 0.0000 ( 42025 PWs)   bands (ev):

   -48.9630 -48.9621 -48.9503 -48.9495 -48.3834 -48.3679 -48.2883 -48.2665
   -48.1463 -48.1244 -47.8756 -47.8524 -27.6150 -27.6079 -27.6071 -27.5969
   -27.5909 -27.5813 -27.5365 -27.5303 -27.5213 -27.5158 -27.4864 -27.4822
   -27.0525 -27.0175 -26.9960 -26.9930 -26.9805 -26.9165 -26.3385 -26.3302
   -26.3113 -26.2446 -26.2234 -26.2074 -26.2009 -26.1757 -26.1110 -26.0862
   -26.0839 -25.9712 -25.9705 -25.8524 -25.8279 -25.7364 -25.7238 -25.7107
    -2.7733  -2.0117  -1.7512  -1.3743  -1.1852  -0.7437  -0.6698  -0.5586
    -0.2619  -0.1184   0.0956   0.1372   0.2476   0.2535   0.3182   0.4281
     0.5237   0.5711   0.6370   0.7106   0.8603   0.9289   0.9707   0.9903
     1.0376   1.1912   1.2168   1.2986   1.3855   1.4061   1.4946   1.4986
     1.6413   1.8562   2.0910

          k = 0.0522-0.0447 0.0000 ( 42034 PWs)   bands (ev):

   -48.9632 -48.9623 -48.9502 -48.9494 -48.3837 -48.3678 -48.2880 -48.2666
   -48.1460 -48.1245 -47.8753 -47.8525 -27.6178 -27.6107 -27.6094 -27.5951
   -27.5915 -27.5809 -27.5435 -27.5364 -27.5222 -27.5166 -27.4855 -27.4813
   -27.0566 -27.0193 -27.0022 -26.9921 -26.9811 -26.9150 -26.3335 -26.3261
   -26.3105 -26.2407 -26.2234 -26.2037 -26.1975 -26.1750 -26.1064 -26.0855
   -26.0842 -25.9710 -25.9670 -25.8480 -25.8274 -25.7355 -25.7235 -25.7108
    -3.0317  -1.9849  -1.9065  -1.1751  -1.0874  -0.9123  -0.7109  -0.6133
    -0.4337  -0.2047   0.0378   0.0643   0.1442   0.1567   0.2205   0.4360
     0.4755   0.5956   0.7003   0.8394   0.9315   1.0050   1.0583   1.0673
     1.1122   1.2342   1.2909   1.3828   1.4959   1.5345   1.6241   1.6704
     1.7699   1.9612   2.0194

          k = 0.0522-0.0298 0.0000 ( 42051 PWs)   bands (ev):

   -48.9634 -48.9626 -48.9501 -48.9493 -48.3841 -48.3677 -48.2876 -48.2668
   -48.1457 -48.1246 -47.8749 -47.8527 -27.6206 -27.6132 -27.6113 -27.5937
   -27.5920 -27.5804 -27.5499 -27.5421 -27.5235 -27.5176 -27.4850 -27.4808
   -27.0603 -27.0230 -27.0060 -26.9912 -26.9823 -26.9140 -26.3285 -26.3218
   -26.3099 -26.2375 -26.2229 -26.2001 -26.1933 -26.1746 -26.1019 -26.0849
   -26.0844 -25.9717 -25.9625 -25.8436 -25.8271 -25.7338 -25.7239 -25.7110
    -3.2236  -2.1610  -1.7600  -1.1478  -1.1247  -0.8969  -0.8091  -0.6014
    -0.5859  -0.2777  -0.0408  -0.0302   0.0354   0.0804   0.1334   0.3866
     0.4844   0.5517   0.8141   0.9247   1.0540   1.0824   1.0848   1.1132
     1.2336   1.2902   1.3284   1.5398   1.6112   1.6810   1.7184   1.7962
     1.8487   1.9169   2.1489

          k = 0.0522-0.0149 0.0000 ( 42051 PWs)   bands (ev):

   -48.9636 -48.9627 -48.9500 -48.9492 -48.3844 -48.3676 -48.2874 -48.2668
   -48.1454 -48.1247 -47.8747 -47.8527 -27.6225 -27.6150 -27.6126 -27.5928
   -27.5924 -27.5801 -27.5545 -27.5461 -27.5246 -27.5183 -27.4848 -27.4807
   -27.0626 -27.0267 -27.0075 -26.9906 -26.9835 -26.9136 -26.3248 -26.3184
   -26.3094 -26.2357 -26.2223 -26.1976 -26.1895 -26.1744 -26.0990 -26.0847
   -26.0842 -25.9724 -25.9592 -25.8405 -25.8270 -25.7313 -25.7255 -25.7112
    -3.3414  -2.2699  -1.5759  -1.2211  -1.1286  -1.0995  -0.7193  -0.6985
    -0.5489  -0.3068  -0.1449  -0.1130  -0.0284   0.0323   0.0728   0.3664
     0.4854   0.5224   0.8962   0.9638   1.0726   1.0833   1.1238   1.2283
     1.3253   1.3650   1.3806   1.5895   1.7097   1.7255   1.7943   1.8452
     1.8570   2.0468   2.1143

          k = 0.0522 0.0000 0.0000 ( 42038 PWs)   bands (ev):

   -48.9637 -48.9628 -48.9500 -48.9492 -48.3845 -48.3675 -48.2873 -48.2669
   -48.1454 -48.1247 -47.8746 -47.8528 -27.6231 -27.6156 -27.6130 -27.5926
   -27.5924 -27.5800 -27.5561 -27.5475 -27.5251 -27.5186 -27.4848 -27.4807
   -27.0634 -27.0283 -27.0078 -26.9903 -26.9839 -26.9134 -26.3235 -26.3172
   -26.3093 -26.2352 -26.2221 -26.1966 -26.1880 -26.1744 -26.0982 -26.0846
   -26.0839 -25.9726 -25.9579 -25.8393 -25.8269 -25.7291 -25.7273 -25.7113
    -3.3811  -2.3067  -1.3892  -1.3258  -1.2548  -1.0825  -0.7665  -0.6781
    -0.5147  -0.3019  -0.2029  -0.1497  -0.0470   0.0158   0.0509   0.3610
     0.4861   0.5123   0.9293   0.9754   1.0722   1.0863   1.1221   1.2851
     1.3377   1.4011   1.4266   1.5889   1.7071   1.7493   1.8217   1.8720
     1.8747   2.1230   2.1401

          k = 0.0522 0.0149 0.0000 ( 42051 PWs)   bands (ev):

   -48.9636 -48.9627 -48.9500 -48.9492 -48.3844 -48.3676 -48.2874 -48.2668
   -48.1454 -48.1247 -47.8747 -47.8527 -27.6225 -27.6150 -27.6126 -27.5928
   -27.5924 -27.5801 -27.5545 -27.5461 -27.5246 -27.5183 -27.4848 -27.4807
   -27.0626 -27.0267 -27.0075 -26.9906 -26.9835 -26.9136 -26.3248 -26.3184
   -26.3094 -26.2357 -26.2223 -26.1976 -26.1895 -26.1744 -26.0990 -26.0847
   -26.0842 -25.9724 -25.9592 -25.8405 -25.8270 -25.7312 -25.7255 -25.7112
    -3.3414  -2.2699  -1.5759  -1.2211  -1.1286  -1.0995  -0.7193  -0.6985
    -0.5489  -0.3068  -0.1449  -0.1130  -0.0284   0.0323   0.0728   0.3664
     0.4854   0.5224   0.8962   0.9638   1.0726   1.0833   1.1238   1.2283
     1.3253   1.3650   1.3806   1.5895   1.7097   1.7254   1.7945   1.8453
     1.8572   2.0484   2.1161

          k = 0.0652 0.0373 0.0000 ( 42031 PWs)   bands (ev):

   -48.9602 -48.9593 -48.9533 -48.9525 -48.3800 -48.3715 -48.2827 -48.2719
   -48.1407 -48.1298 -47.8697 -47.8581 -27.6057 -27.5966 -27.5915 -27.5897
   -27.5832 -27.5805 -27.5428 -27.5352 -27.5256 -27.5203 -27.5149 -27.5105
   -27.0272 -27.0136 -27.0001 -26.9968 -26.9840 -26.9475 -26.3256 -26.3162
   -26.2690 -26.2345 -26.2254 -26.1930 -26.1810 -26.1494 -26.1449 -26.0977
   -26.0892 -26.0290 -25.9090 -25.8420 -25.8322 -25.7862 -25.7261 -25.7163
    -2.8823  -2.1197  -1.8538  -1.2870  -0.9011  -0.8189  -0.6916  -0.5041
    -0.4222  -0.3016   0.1215   0.1732   0.1888   0.2418   0.3276   0.4984
     0.5433   0.6196   0.6508   0.8134   0.8939   0.9004   1.0030   1.0340
     1.0611   1.0773   1.2460   1.2919   1.3781   1.4908   1.6093   1.6190
     1.8469   1.8992   2.0494

          k = 0.0652 0.0522 0.0000 ( 42055 PWs)   bands (ev):

   -48.9600 -48.9591 -48.9534 -48.9526 -48.3797 -48.3717 -48.2830 -48.2717
   -48.1410 -48.1296 -47.8700 -47.8580 -27.6040 -27.5971 -27.5929 -27.5872
   -27.5823 -27.5787 -27.5384 -27.5312 -27.5265 -27.5211 -27.5156 -27.5111
   -27.0240 -27.0115 -26.9976 -26.9963 -26.9850 -26.9493 -26.3293 -26.3158
   -26.2720 -26.2372 -26.2248 -26.1955 -26.1809 -26.1522 -26.1437 -26.1013
   -26.0885 -26.0277 -25.9125 -25.8453 -25.8315 -25.7846 -25.7277 -25.7157
    -2.6699  -2.2835  -1.6695  -1.3790  -1.0504  -0.6661  -0.6486  -0.4855
    -0.3642  -0.2502   0.1600   0.2366   0.2599   0.3069   0.4098   0.5033
     0.5595   0.5955   0.6799   0.6856   0.8147   0.8607   0.9047   1.0017
     1.0270   1.1054   1.1713   1.2810   1.3139   1.3552   1.5314   1.5435
     1.7446   1.9129   2.0197

          k = 0.0652 0.0671 0.0000 ( 42049 PWs)   bands (ev):

   -48.9598 -48.9589 -48.9535 -48.9527 -48.3794 -48.3719 -48.2832 -48.2716
   -48.1412 -48.1295 -47.8702 -47.8578 -27.6020 -27.5975 -27.5944 -27.5853
   -27.5812 -27.5766 -27.5332 -27.5279 -27.5268 -27.5222 -27.5174 -27.5128
   -27.0201 -27.0105 -26.9983 -26.9911 -26.9870 -26.9520 -26.3325 -26.3155
   -26.2740 -26.2398 -26.2242 -26.1969 -26.1811 -26.1543 -26.1434 -26.1040
   -26.0882 -26.0269 -25.9152 -25.8479 -25.8311 -25.7833 -25.7293 -25.7152
    -2.3983  -2.3943  -1.4392  -1.4384  -1.3697  -0.6760  -0.5741  -0.4307
    -0.2437  -0.1535   0.1631   0.2633   0.3188   0.3227   0.3833   0.4917
     0.5272   0.5812   0.6747   0.7142   0.7691   0.8529   0.8883   0.9468
     0.9595   1.1213   1.1722   1.2161   1.2284   1.3771   1.4241   1.4543
     1.6021   1.8024   2.1464

          k = 0.0652 0.0820 0.0000 ( 42014 PWs)   bands (ev):

   -48.9597 -48.9588 -48.9535 -48.9527 -48.3793 -48.3720 -48.2834 -48.2715
   -48.1413 -48.1294 -47.8703 -47.8577 -27.6004 -27.5977 -27.5959 -27.5845
   -27.5800 -27.5750 -27.5290 -27.5285 -27.5238 -27.5230 -27.5191 -27.5153
   -27.0170 -27.0101 -26.9990 -26.9888 -26.9871 -26.9542 -26.3344 -26.3154
   -26.2749 -26.2414 -26.2239 -26.1975 -26.1813 -26.1554 -26.1434 -26.1054
   -26.0882 -26.0265 -25.9166 -25.8493 -25.8310 -25.7826 -25.7303 -25.7150
    -2.4502  -2.0806  -1.7244  -1.4686  -1.1749  -0.8944  -0.5445  -0.2075
    -0.1888  -0.0712   0.0861   0.1495   0.3081   0.3424   0.3785   0.4984
     0.5480   0.6263   0.7046   0.7163   0.7266   0.8701   0.8842   0.8996
     0.9434   1.0800   1.1783   1.1840   1.2219   1.3037   1.3906   1.4443
     1.5388   1.7202   2.1836

          k = 0.0652 0.0969 0.0000 ( 42014 PWs)   bands (ev):

   -48.9597 -48.9588 -48.9535 -48.9527 -48.3793 -48.3720 -48.2834 -48.2715
   -48.1413 -48.1294 -47.8703 -47.8577 -27.6004 -27.5977 -27.5959 -27.5845
   -27.5800 -27.5750 -27.5290 -27.5285 -27.5238 -27.5230 -27.5191 -27.5153
   -27.0170 -27.0101 -26.9990 -26.9888 -26.9871 -26.9542 -26.3344 -26.3155
   -26.2749 -26.2414 -26.2239 -26.1975 -26.1813 -26.1554 -26.1434 -26.1054
   -26.0882 -26.0265 -25.9166 -25.8493 -25.8310 -25.7826 -25.7303 -25.7150
    -2.4502  -2.0806  -1.7244  -1.4686  -1.1749  -0.8944  -0.5445  -0.2075
    -0.1888  -0.0712   0.0862   0.1495   0.3081   0.3424   0.3785   0.4984
     0.5480   0.6263   0.7046   0.7163   0.7266   0.8701   0.8842   0.8996
     0.9434   1.0800   1.1783   1.1840   1.2219   1.3037   1.3906   1.4443
     1.5388   1.7203   2.1834

          k = 0.0652 0.1118 0.0000 ( 42049 PWs)   bands (ev):

   -48.9598 -48.9589 -48.9535 -48.9527 -48.3794 -48.3719 -48.2832 -48.2716
   -48.1412 -48.1295 -47.8702 -47.8578 -27.6020 -27.5975 -27.5945 -27.5853
   -27.5812 -27.5765 -27.5332 -27.5279 -27.5268 -27.5222 -27.5174 -27.5128
   -27.0201 -27.0105 -26.9984 -26.9911 -26.9870 -26.9520 -26.3325 -26.3155
   -26.2739 -26.2398 -26.2242 -26.1969 -26.1811 -26.1543 -26.1434 -26.1040
   -26.0882 -26.0269 -25.9152 -25.8479 -25.8311 -25.7833 -25.7293 -25.7152
    -2.3983  -2.3943  -1.4392  -1.4384  -1.3697  -0.6760  -0.5741  -0.4307
    -0.2437  -0.1535   0.1631   0.2633   0.3188   0.3227   0.3833   0.4916
     0.5273   0.5812   0.6747   0.7142   0.7691   0.8529   0.8883   0.9468
     0.9595   1.1213   1.1722   1.2161   1.2285   1.3771   1.4241   1.4543
     1.6021   1.8022   2.1437

          k = 0.0652-0.0522 0.0000 ( 42055 PWs)   bands (ev):

   -48.9600 -48.9591 -48.9534 -48.9526 -48.3797 -48.3717 -48.2830 -48.2717
   -48.1410 -48.1296 -47.8700 -47.8580 -27.6040 -27.5971 -27.5929 -27.5872
   -27.5823 -27.5787 -27.5384 -27.5312 -27.5265 -27.5211 -27.5156 -27.5111
   -27.0240 -27.0115 -26.9976 -26.9963 -26.9850 -26.9493 -26.3293 -26.3158
   -26.2719 -26.2372 -26.2248 -26.1955 -26.1809 -26.1522 -26.1437 -26.1013
   -26.0885 -26.0277 -25.9125 -25.8453 -25.8315 -25.7846 -25.7277 -25.7157
    -2.6699  -2.2835  -1.6695  -1.3790  -1.0504  -0.6661  -0.6486  -0.4855
    -0.3642  -0.2502   0.1600   0.2366   0.2598   0.3069   0.4098   0.5033
     0.5595   0.5955   0.6799   0.6856   0.8147   0.8607   0.9047   1.0017
     1.0270   1.1054   1.1713   1.2810   1.3139   1.3552   1.5314   1.5435
     1.7448   1.9159   2.0200

          k = 0.0652-0.0373 0.0000 ( 42031 PWs)   bands (ev):

   -48.9602 -48.9593 -48.9533 -48.9525 -48.3800 -48.3715 -48.2827 -48.2719
   -48.1407 -48.1298 -47.8697 -47.8581 -27.6057 -27.5966 -27.5915 -27.5898
   -27.5832 -27.5805 -27.5428 -27.5352 -27.5256 -27.5203 -27.5149 -27.5105
   -27.0272 -27.0136 -27.0001 -26.9969 -26.9840 -26.9475 -26.3256 -26.3162
   -26.2690 -26.2345 -26.2254 -26.1930 -26.1810 -26.1494 -26.1449 -26.0977
   -26.0892 -26.0290 -25.9090 -25.8420 -25.8322 -25.7862 -25.7261 -25.7163
    -2.8823  -2.1197  -1.8538  -1.2870  -0.9011  -0.8189  -0.6916  -0.5041
    -0.4222  -0.3016   0.1215   0.1732   0.1888   0.2418   0.3276   0.4984
     0.5433   0.6196   0.6508   0.8134   0.8939   0.9004   1.0030   1.0340
     1.0611   1.0773   1.2460   1.2919   1.3781   1.4908   1.6092   1.6190
     1.8464   1.8991   2.0497

          k = 0.0652-0.0224 0.0000 ( 42000 PWs)   bands (ev):

   -48.9603 -48.9595 -48.9532 -48.9523 -48.3803 -48.3714 -48.2825 -48.2720
   -48.1405 -48.1299 -47.8694 -47.8583 -27.6070 -27.5961 -27.5920 -27.5904
   -27.5840 -27.5812 -27.5460 -27.5381 -27.5254 -27.5197 -27.5149 -27.5105
   -27.0290 -27.0162 -27.0019 -26.9962 -26.9840 -26.9466 -26.3224 -26.3166
   -26.2659 -26.2324 -26.2259 -26.1896 -26.1815 -26.1467 -26.1467 -26.0941
   -26.0902 -26.0305 -25.9056 -25.8388 -25.8332 -25.7878 -25.7248 -25.7170
    -3.0277  -1.9807  -1.9072  -1.1707  -1.0737  -0.9737  -0.6443  -0.5555
    -0.3640  -0.2852   0.0602   0.0844   0.0907   0.1939   0.2537   0.4457
     0.5482   0.5705   0.7462   0.8690   0.9288   1.0125   1.0169   1.0750
     1.0873   1.1795   1.2081   1.3882   1.4586   1.6105   1.6512   1.6560
     1.7038   2.0188   2.1795

          k = 0.0652-0.0075 0.0000 ( 42036 PWs)   bands (ev):

   -48.9604 -48.9596 -48.9531 -48.9523 -48.3805 -48.3713 -48.2823 -48.2721
   -48.1403 -48.1300 -47.8693 -47.8584 -27.6078 -27.5955 -27.5934 -27.5899
   -27.5846 -27.5814 -27.5476 -27.5397 -27.5255 -27.5196 -27.5151 -27.5108
   -27.0298 -27.0180 -27.0025 -26.9959 -26.9843 -26.9464 -26.3206 -26.3169
   -26.2638 -26.2314 -26.2262 -26.1870 -26.1819 -26.1484 -26.1450 -26.0918
   -26.0910 -26.0315 -25.9034 -25.8368 -25.8339 -25.7888 -25.7241 -25.7174
    -3.1016  -2.0452  -1.6537  -1.3721  -1.0310  -1.0242  -0.7850  -0.5065
    -0.2868  -0.2126  -0.0698   0.0200   0.0508   0.1698   0.2072   0.4340
     0.5423   0.5486   0.8217   0.8862   0.9596   0.9945   1.0591   1.0979
     1.1200   1.1683   1.3098   1.4158   1.5199   1.5870   1.6485   1.6707
     1.7192   1.9751   2.0856

          k = 0.0652 0.0075 0.0000 ( 42036 PWs)   bands (ev):

   -48.9604 -48.9596 -48.9531 -48.9523 -48.3805 -48.3713 -48.2823 -48.2721
   -48.1403 -48.1300 -47.8693 -47.8584 -27.6078 -27.5955 -27.5934 -27.5899
   -27.5846 -27.5814 -27.5476 -27.5397 -27.5255 -27.5196 -27.5151 -27.5108
   -27.0298 -27.0180 -27.0025 -26.9959 -26.9843 -26.9464 -26.3206 -26.3169
   -26.2638 -26.2314 -26.2262 -26.1870 -26.1819 -26.1484 -26.1450 -26.0918
   -26.0910 -26.0315 -25.9034 -25.8368 -25.8339 -25.7888 -25.7241 -25.7174
    -3.1016  -2.0452  -1.6537  -1.3721  -1.0310  -1.0242  -0.7850  -0.5065
    -0.2868  -0.2126  -0.0699   0.0200   0.0508   0.1698   0.2072   0.4340
     0.5423   0.5486   0.8217   0.8862   0.9596   0.9945   1.0591   1.0979
     1.1200   1.1683   1.3098   1.4158   1.5199   1.5870   1.6489   1.6707
     1.7192   1.9735   2.0901

          k = 0.0652 0.0224 0.0000 ( 42000 PWs)   bands (ev):

   -48.9603 -48.9595 -48.9532 -48.9523 -48.3803 -48.3714 -48.2825 -48.2720
   -48.1405 -48.1299 -47.8694 -47.8583 -27.6070 -27.5961 -27.5919 -27.5904
   -27.5840 -27.5812 -27.5460 -27.5381 -27.5254 -27.5197 -27.5149 -27.5105
   -27.0290 -27.0163 -27.0019 -26.9962 -26.9840 -26.9466 -26.3224 -26.3166
   -26.2659 -26.2324 -26.2259 -26.1896 -26.1815 -26.1467 -26.1467 -26.0941
   -26.0902 -26.0305 -25.9056 -25.8388 -25.8332 -25.7878 -25.7248 -25.7170
    -3.0277  -1.9807  -1.9072  -1.1707  -1.0737  -0.9737  -0.6443  -0.5555
    -0.3640  -0.2852   0.0602   0.0844   0.0907   0.1939   0.2537   0.4457
     0.5482   0.5705   0.7462   0.8690   0.9288   1.0125   1.0169   1.0750
     1.0873   1.1794   1.2081   1.3882   1.4586   1.6104   1.6512   1.6558
     1.7037   2.0188   2.1674

          k =-0.0783-0.0447 0.0000 ( 42068 PWs)   bands (ev):

   -48.9569 -48.9565 -48.9559 -48.9558 -48.3758 -48.3757 -48.2774 -48.2772
   -48.1353 -48.1352 -47.8640 -47.8639 -27.6005 -27.6002 -27.5890 -27.5887
   -27.5548 -27.5545 -27.5493 -27.5492 -27.5288 -27.5284 -27.5242 -27.5240
   -27.0068 -27.0067 -26.9979 -26.9979 -26.9787 -26.9786 -26.3215 -26.3213
   -26.2317 -26.2316 -26.2118 -26.2116 -26.1821 -26.1820 -26.1023 -26.1022
   -26.0827 -26.0826 -25.8525 -25.8524 -25.8338 -25.8337 -25.7216 -25.7215
    -2.5052  -2.5052  -1.5442  -1.5442  -0.7991  -0.7991  -0.5379  -0.5379
    -0.3448  -0.3448   0.2036   0.2037   0.3033   0.3033   0.5050   0.5050
     0.6324   0.6324   0.7104   0.7104   0.7792   0.7793   0.9032   0.9033
     1.0347   1.0348   1.2083   1.2083   1.3314   1.3315   1.5554   1.5555
     1.9015   1.9067   1.9957

          k =-0.0783-0.0298 0.0000 ( 42068 PWs)   bands (ev):

   -48.9569 -48.9564 -48.9560 -48.9557 -48.3760 -48.3755 -48.2776 -48.2771
   -48.1355 -48.1351 -47.8642 -47.8637 -27.6014 -27.5991 -27.5900 -27.5879
   -27.5553 -27.5529 -27.5502 -27.5474 -27.5315 -27.5270 -27.5269 -27.5221
   -27.0078 -27.0053 -26.9978 -26.9966 -26.9800 -26.9790 -26.3234 -26.3194
   -26.2333 -26.2296 -26.2131 -26.2093 -26.1837 -26.1816 -26.1022 -26.1012
   -26.0836 -26.0829 -25.8533 -25.8502 -25.8355 -25.8332 -25.7227 -25.7205
    -2.6673  -2.2846  -1.6687  -1.3758  -1.0484  -0.7470  -0.5640  -0.4369
    -0.3760  -0.2571   0.1803   0.1832   0.2839   0.2999   0.4279   0.5199
     0.5602   0.6442   0.6875   0.7740   0.7846   0.8333   0.8768   0.9792
     1.0004   1.0856   1.1941   1.2357   1.2512   1.4326   1.5264   1.5560
     1.7049   1.9236   2.0650

          k =-0.0783-0.0149 0.0000 ( 42026 PWs)   bands (ev):

   -48.9570 -48.9564 -48.9561 -48.9556 -48.3762 -48.3753 -48.2777 -48.2770
   -48.1356 -48.1349 -47.8643 -47.8636 -27.6022 -27.5979 -27.5911 -27.5873
   -27.5552 -27.5505 -27.5503 -27.5448 -27.5351 -27.5300 -27.5263 -27.5210
   -27.0084 -27.0043 -26.9970 -26.9938 -26.9828 -26.9802 -26.3250 -26.3180
   -26.2342 -26.2280 -26.2134 -26.2067 -26.1859 -26.1821 -26.1014 -26.0994
   -26.0852 -26.0837 -25.8533 -25.8467 -25.8385 -25.8335 -25.7236 -25.7197
    -2.7662  -2.0133  -1.7445  -1.3740  -1.1657  -0.7743  -0.7217  -0.3479
    -0.2557  -0.1381   0.1099   0.1137   0.2022   0.3019   0.3398   0.4815
     0.5905   0.6040   0.7360   0.8092   0.8228   0.8794   0.9142   0.9534
     1.0034   1.1097   1.1847   1.2584   1.2794   1.4665   1.5098   1.5407
     1.5879   1.8567   2.1170

          k =-0.0783 0.0000 0.0000 ( 42024 PWs)   bands (ev):

   -48.9571 -48.9563 -48.9562 -48.9555 -48.3762 -48.3752 -48.2778 -48.2769
   -48.1357 -48.1349 -47.8644 -47.8635 -27.6024 -27.5974 -27.5916 -27.5871
   -27.5551 -27.5504 -27.5489 -27.5433 -27.5372 -27.5315 -27.5262 -27.5207
   -27.0085 -27.0040 -26.9965 -26.9915 -26.9850 -26.9810 -26.3255 -26.3175
   -26.2345 -26.2275 -26.2134 -26.2054 -26.1870 -26.1824 -26.1009 -26.0985
   -26.0861 -26.0842 -25.8532 -25.8434 -25.8417 -25.8337 -25.7240 -25.7195
    -2.7995  -1.7699  -1.7205  -1.6851  -0.9620  -0.9189  -0.7867  -0.3272
    -0.1191  -0.0347  -0.0167   0.0308   0.1739   0.3035   0.3088   0.4861
     0.5852   0.5965   0.7766   0.8238   0.8444   0.8960   0.9122   0.9911
     1.0016   1.0145   1.2285   1.2731   1.3303   1.4134   1.4810   1.5275
     1.6138   1.8245   2.1350

          k =-0.0783 0.0149 0.0000 ( 42026 PWs)   bands (ev):

   -48.9570 -48.9564 -48.9561 -48.9556 -48.3762 -48.3753 -48.2777 -48.2770
   -48.1356 -48.1349 -47.8643 -47.8636 -27.6022 -27.5979 -27.5911 -27.5873
   -27.5552 -27.5505 -27.5503 -27.5448 -27.5351 -27.5300 -27.5263 -27.5210
   -27.0083 -27.0043 -26.9970 -26.9938 -26.9828 -26.9802 -26.3250 -26.3180
   -26.2342 -26.2280 -26.2134 -26.2067 -26.1859 -26.1821 -26.1014 -26.0994
   -26.0852 -26.0838 -25.8533 -25.8467 -25.8385 -25.8335 -25.7236 -25.7197
    -2.7662  -2.0133  -1.7445  -1.3740  -1.1657  -0.7743  -0.7217  -0.3479
    -0.2557  -0.1381   0.1099   0.1137   0.2022   0.3019   0.3398   0.4815
     0.5905   0.6040   0.7360   0.8092   0.8228   0.8794   0.9142   0.9534
     1.0034   1.1097   1.1847   1.2584   1.2793   1.4665   1.5098   1.5407
     1.5879   1.8559   2.1186

          k =-0.0783 0.0298 0.0000 ( 42068 PWs)   bands (ev):

   -48.9569 -48.9564 -48.9560 -48.9557 -48.3760 -48.3755 -48.2776 -48.2771
   -48.1355 -48.1351 -47.8642 -47.8637 -27.6014 -27.5991 -27.5900 -27.5879
   -27.5553 -27.5529 -27.5502 -27.5474 -27.5315 -27.5270 -27.5269 -27.5221
   -27.0078 -27.0053 -26.9978 -26.9966 -26.9800 -26.9790 -26.3234 -26.3194
   -26.2333 -26.2296 -26.2131 -26.2093 -26.1837 -26.1816 -26.1022 -26.1012
   -26.0836 -26.0829 -25.8533 -25.8502 -25.8355 -25.8333 -25.7227 -25.7205
    -2.6673  -2.2846  -1.6687  -1.3758  -1.0484  -0.7470  -0.5640  -0.4368
    -0.3760  -0.2571   0.1803   0.1832   0.2839   0.2999   0.4279   0.5199
     0.5602   0.6442   0.6874   0.7740   0.7846   0.8333   0.8768   0.9792
     1.0004   1.0856   1.1941   1.2357   1.2512   1.4326   1.5264   1.5560
     1.7047   1.9215   2.0613

          k =-0.0783-0.1342 0.0000 ( 42068 PWs)   bands (ev):

   -48.9569 -48.9565 -48.9559 -48.9558 -48.3758 -48.3757 -48.2774 -48.2772
   -48.1353 -48.1352 -47.8640 -47.8639 -27.6005 -27.6002 -27.5890 -27.5887
   -27.5548 -27.5545 -27.5493 -27.5492 -27.5288 -27.5284 -27.5242 -27.5240
   -27.0068 -27.0067 -26.9979 -26.9978 -26.9786 -26.9786 -26.3215 -26.3213
   -26.2317 -26.2316 -26.2118 -26.2116 -26.1821 -26.1820 -26.1022 -26.1022
   -26.0827 -26.0827 -25.8525 -25.8524 -25.8338 -25.8337 -25.7216 -25.7215
    -2.5052  -2.5052  -1.5442  -1.5442  -0.7991  -0.7991  -0.5379  -0.5379
    -0.3448  -0.3447   0.2036   0.2037   0.3033   0.3033   0.5050   0.5050
     0.6324   0.6324   0.7104   0.7104   0.7793   0.7793   0.9033   0.9033
     1.0347   1.0348   1.2083   1.2083   1.3314   1.3315   1.5554   1.5555
     1.9015   1.9062   1.9969

     the Fermi energy is     0.9270 ev

!    total energy              =   -1190.99312391 Ry
     estimated scf accuracy    <       0.00000603 Ry
     smearing contrib. (-TS)   =      -0.10135461 Ry
     internal energy E=F+TS    =   -1190.89176930 Ry

     The total energy is F=E-TS. E is the sum of the following terms:
     one-electron contribution =   -7757.38002745 Ry
     hartree contribution      =    3866.48589164 Ry
     xc contribution           =    -220.37867700 Ry
     ewald contribution        =    2920.38104277 Ry
     electric field correction =       0.00000074 Ry

     convergence has been achieved in  18 iterations

     negative rho (up, down):  4.212E-04 0.000E+00

     Forces acting on atoms (cartesian axes, Ry/au):

     atom    1 type  1   force =    -0.00000806   -0.00160738    0.00086633
     atom    2 type  1   force =     0.00000568   -0.00160144    0.00082659
     atom    3 type  2   force =    -0.00001511    0.00319250    0.01655383
     atom    4 type  2   force =     0.00001417    0.00319946    0.01657844
     atom    5 type  1   force =    -0.00001087    0.00204529   -0.01006258
     atom    6 type  1   force =     0.00000843    0.00204890   -0.01007719
     atom    7 type  2   force =    -0.00000430   -0.00256936   -0.00404585
     atom    8 type  2   force =     0.00001169   -0.00258915   -0.00403062
     atom    9 type  1   force =     0.00001401   -0.00142205   -0.00171257
     atom   10 type  1   force =    -0.00001758   -0.00140685   -0.00171261
     atom   11 type  2   force =    -0.00000997    0.00035248   -0.00158155
     atom   12 type  2   force =     0.00001192    0.00035759   -0.00160221

     Total force =     0.029124     Total SCF correction =     0.005868
     SCF correction compared to forces is large: reduce conv_thr to get better values

     Writing output data file ./Sc2Zr2/Sc2Zr2_beef.save/

     init_run     :    150.87s CPU    151.57s WALL (       1 calls)
     electrons    :   4912.13s CPU   4931.88s WALL (       1 calls)
     forces       :     69.16s CPU     69.47s WALL (       1 calls)

     Called by init_run:
     wfcinit      :    137.50s CPU    137.91s WALL (       1 calls)
     potinit      :      8.64s CPU      8.74s WALL (       1 calls)
     hinit0       :      2.48s CPU      2.49s WALL (       1 calls)

     Called by electrons:
     c_bands      :   4417.81s CPU   4428.29s WALL (      18 calls)
     sum_band     :    440.03s CPU    444.52s WALL (      18 calls)
     v_of_rho     :     36.75s CPU     38.48s WALL (      19 calls)
     newd         :     24.48s CPU     27.57s WALL (      19 calls)
     mix_rho      :      1.08s CPU      1.12s WALL (      18 calls)
     vdW_kernel   :      5.69s CPU      5.70s WALL (       1 calls)

     Called by c_bands:
     init_us_2    :     17.54s CPU     17.63s WALL (    2812 calls)
     cegterg      :   4381.50s CPU   4390.19s WALL (    1358 calls)

     Called by *egterg:
     cdiaghg      :    166.92s CPU    167.01s WALL (    9600 calls)
     h_psi        :   2150.04s CPU   2157.88s WALL (    9674 calls)
     s_psi        :    736.73s CPU    736.90s WALL (    9674 calls)
     g_psi        :      1.74s CPU      1.76s WALL (    8242 calls)

     Called by h_psi:
     h_psi:calbec :    740.57s CPU    741.29s WALL (    9674 calls)
     vloc_psi     :    633.13s CPU    640.05s WALL (    9674 calls)
     add_vuspsi   :    768.28s CPU    768.45s WALL (    9674 calls)

     General routines
     calbec       :   1068.12s CPU   1069.20s WALL (   11302 calls)
     fft          :     22.49s CPU     23.16s WALL (    1256 calls)
     ffts         :      0.08s CPU      0.09s WALL (      37 calls)
     fftw         :    711.50s CPU    719.27s WALL (  715208 calls)
     interpolate  :      0.41s CPU      0.42s WALL (      19 calls)

     Parallel routines
     fft_scatt_xy :     53.33s CPU     53.77s WALL (  716501 calls)
     fft_scatt_yz :    125.18s CPU    127.14s WALL (  716501 calls)

     PWSCF        :      1h25m CPU      1h26m WALL


   This run was terminated on:  21:51: 3  10Jul2022            

=------------------------------------------------------------------------------=
   JOB DONE.
=------------------------------------------------------------------------------=
