
     Program PWSCF v.6.6 starts on 26Jun2022 at  4: 8:30 

     This program is part of the open-source Quantum ESPRESSO suite
     for quantum simulation of materials; please cite
         "P. Giannozzi et al., J. Phys.:Condens. Matter 21 395502 (2009);
         "P. Giannozzi et al., J. Phys.:Condens. Matter 29 465901 (2017);
          URL http://www.quantum-espresso.org", 
     in publications or presentations arising from this work. More details at
     http://www.quantum-espresso.org/quote

     Parallel version (MPI), running on    37 processors

     MPI processes distributed on     1 nodes
     R & G space division:  proc/nbgrp/npool/nimage =      37
     Fft bands division:     nmany     =       1
     Reading input from Ta2Hg2.in
Warning: card &CELL ignored
Warning: card / ignored

     Current dimensions of program PWSCF are:
     Max number of different atomic species (ntypx) = 10
     Max number of k-points (npk) =  40000
     Max angular momentum in pseudopotentials (lmaxx) =  3
     Presently stress not available with electric field and gates

     Message from routine cell_base_init:
     DEPRECATED: use true lattice parameter, not A to a.u. conversion factor
     file Ta.pbe-spfn-rrkjus_psl.1.0.0.UPF: wavefunction(s)  5S 5P renormalized
     file Hg.pbe-n-rrkjus_psl.1.0.0.UPF: wavefunction(s)  6S renormalized

     **************************************************************************
     Initializing libbeef V0.1.2 with the BEEF-vdW functional.
     Citation: Wellendorff et al., PRB 85, 235149 (2012).
     **************************************************************************


     IMPORTANT: XC functional enforced from input :
     Exchange-correlation= BEEF-VDW
                           (   1   4  43  14   2   0   0)
     Any further DFT definition will be discarded
     Please, verify this is what you really want


     Subspace diagonalization in iterative solution of the eigenvalue problem:
     a serial algorithm will be used

     Found symmetry operation: I + (  0.5000  0.0000  0.0000)
     This is a supercell, fractional translations are disabled

     Parallelization info
     --------------------
     sticks:   dense  smooth     PW     G-vecs:    dense   smooth      PW
     Min         133      53     15                31279     7905    1221
     Max         134      54     16                31296     7912    1234
     Sum        4943    1981    571              1157605   292627   45329



     bravais-lattice index     =            0
     lattice parameter (alat)  =       1.8897  a.u.
     unit-cell volume          =    5295.8217 (a.u.)^3
     number of atoms/cell      =           12
     number of atomic types    =            2
     number of electrons       =       234.00
     number of Kohn-Sham states=          140
     kinetic-energy cutoff     =      55.1240  Ry
     charge density cutoff     =     551.2396  Ry
     convergence threshold     =      1.0E-05
     mixing beta               =       0.1000
     number of iterations used =           10  plain     mixing
     Exchange-correlation= BEEF-VDW
                           (   1   4  43  14   2   0   0)

     celldm(1)=   1.889726  celldm(2)=   0.000000  celldm(3)=   0.000000
     celldm(4)=   0.000000  celldm(5)=   0.000000  celldm(6)=   0.000000

     crystal axes: (cart. coord. in units of alat)
               a(1) = (   5.872653   0.000000   0.000000 )  
               a(2) = (  -2.936326   5.363542   0.000000 )  
               a(3) = (   0.000000   0.000000  24.914422 )  

     reciprocal axes: (cart. coord. in units 2 pi/alat)
               b(1) = (  0.170281  0.093222 -0.000000 )  
               b(2) = (  0.000000  0.186444  0.000000 )  
               b(3) = (  0.000000 -0.000000  0.040137 )  


     PseudoPot. # 1 for Ta read from file:
     ../pseudo/Ta.pbe-spfn-rrkjus_psl.1.0.0.UPF
     MD5 check sum: 39d7d349fe394e56adf8454eb9315fbb
     Pseudo is Ultrasoft + core correction, Zval = 27.0
     Generated using "atomic" code by A. Dal Corso v.6.3
     Using radial grid of 1273 points,  8 beta functions with: 
                l(1) =   0
                l(2) =   0
                l(3) =   1
                l(4) =   1
                l(5) =   2
                l(6) =   2
                l(7) =   3
                l(8) =   3
     Q(r) pseudized with 0 coefficients 


     PseudoPot. # 2 for Hg read from file:
     ../pseudo/Hg.pbe-n-rrkjus_psl.1.0.0.UPF
     MD5 check sum: 7519ac2e5b9cac440d3cfd4127d6ea3c
     Pseudo is Ultrasoft + core correction, Zval = 12.0
     Generated using "atomic" code by A. Dal Corso v.6.3
     Using radial grid of 1279 points,  6 beta functions with: 
                l(1) =   0
                l(2) =   0
                l(3) =   1
                l(4) =   1
                l(5) =   2
                l(6) =   2
     Q(r) pseudized with 0 coefficients 


     atomic species   valence    mass     pseudopotential
        Ta            27.00   180.94788     Ta( 1.00)
        Hg            12.00   200.59200     Hg( 1.00)

     No symmetry found



   Cartesian axes

     site n.     atom                  positions (alat units)
         1           Ta  tau(   1) = (   0.0000000   0.0000000  10.0000000  )
         2           Ta  tau(   2) = (   2.9363264   0.0000000  10.0000000  )
         3           Hg  tau(   3) = (   1.4681632   2.6817708  10.0000000  )
         4           Hg  tau(   4) = (  -1.4681632   2.6817708  10.0000000  )
         5           Ta  tau(   5) = (   2.9363264   1.6075224  12.4572108  )
         6           Ta  tau(   6) = (  -0.0000000   1.6075224  12.4572108  )
         7           Hg  tau(   7) = (  -1.4681632   4.2892931  12.4572108  )
         8           Hg  tau(   8) = (   1.4681632   4.2892931  12.4572108  )
         9           Ta  tau(   9) = (  -0.0000004   3.0013747  14.7897486  )
        10           Ta  tau(  10) = (   2.9363309   3.0013441  14.7897338  )
        11           Hg  tau(  11) = (   4.4045041   0.3695610  15.2697303  )
        12           Hg  tau(  12) = (   1.4681592   0.3695783  15.2696938  )

     number of k points=    74  Fermi-Dirac smearing, width (Ry)=  0.0100
                       cart. coord. in units 2pi/alat
        k(    1) = (   0.0000000   0.0000000   0.0000000), wk =   0.0138889
        k(    2) = (   0.0000000   0.0155370   0.0000000), wk =   0.0277778
        k(    3) = (   0.0000000   0.0310740   0.0000000), wk =   0.0277778
        k(    4) = (   0.0000000   0.0466110   0.0000000), wk =   0.0277778
        k(    5) = (   0.0000000   0.0621480   0.0000000), wk =   0.0277778
        k(    6) = (   0.0000000   0.0776850   0.0000000), wk =   0.0277778
        k(    7) = (   0.0000000  -0.0932220   0.0000000), wk =   0.0138889
        k(    8) = (   0.0141901   0.0077685   0.0000000), wk =   0.0277778
        k(    9) = (   0.0141901   0.0233055   0.0000000), wk =   0.0277778
        k(   10) = (   0.0141901   0.0388425   0.0000000), wk =   0.0277778
        k(   11) = (   0.0141901   0.0543795   0.0000000), wk =   0.0277778
        k(   12) = (   0.0141901   0.0699165   0.0000000), wk =   0.0277778
        k(   13) = (   0.0141901   0.0854535   0.0000000), wk =   0.0277778
        k(   14) = (   0.0141901  -0.0854535   0.0000000), wk =   0.0277778
        k(   15) = (   0.0141901  -0.0699165   0.0000000), wk =   0.0277778
        k(   16) = (   0.0141901  -0.0543795   0.0000000), wk =   0.0277778
        k(   17) = (   0.0141901  -0.0388425   0.0000000), wk =   0.0277778
        k(   18) = (   0.0141901  -0.0233055   0.0000000), wk =   0.0277778
        k(   19) = (   0.0141901  -0.0077685   0.0000000), wk =   0.0277778
        k(   20) = (   0.0283801   0.0155370   0.0000000), wk =   0.0277778
        k(   21) = (   0.0283801   0.0310740   0.0000000), wk =   0.0277778
        k(   22) = (   0.0283801   0.0466110   0.0000000), wk =   0.0277778
        k(   23) = (   0.0283801   0.0621480   0.0000000), wk =   0.0277778
        k(   24) = (   0.0283801   0.0776850   0.0000000), wk =   0.0277778
        k(   25) = (   0.0283801   0.0932220   0.0000000), wk =   0.0277778
        k(   26) = (   0.0283801  -0.0776850   0.0000000), wk =   0.0277778
        k(   27) = (   0.0283801  -0.0621480   0.0000000), wk =   0.0277778
        k(   28) = (   0.0283801  -0.0466110   0.0000000), wk =   0.0277778
        k(   29) = (   0.0283801  -0.0310740   0.0000000), wk =   0.0277778
        k(   30) = (   0.0283801  -0.0155370   0.0000000), wk =   0.0277778
        k(   31) = (   0.0283801  -0.0000000   0.0000000), wk =   0.0277778
        k(   32) = (   0.0425702   0.0233055   0.0000000), wk =   0.0277778
        k(   33) = (   0.0425702   0.0388425   0.0000000), wk =   0.0277778
        k(   34) = (   0.0425702   0.0543795   0.0000000), wk =   0.0277778
        k(   35) = (   0.0425702   0.0699165   0.0000000), wk =   0.0277778
        k(   36) = (   0.0425702   0.0854535   0.0000000), wk =   0.0277778
        k(   37) = (   0.0425702   0.1009905   0.0000000), wk =   0.0277778
        k(   38) = (   0.0425702  -0.0699165   0.0000000), wk =   0.0277778
        k(   39) = (   0.0425702  -0.0543795   0.0000000), wk =   0.0277778
        k(   40) = (   0.0425702  -0.0388425   0.0000000), wk =   0.0277778
        k(   41) = (   0.0425702  -0.0233055   0.0000000), wk =   0.0277778
        k(   42) = (   0.0425702  -0.0077685   0.0000000), wk =   0.0277778
        k(   43) = (   0.0425702   0.0077685   0.0000000), wk =   0.0277778
        k(   44) = (   0.0567603   0.0310740   0.0000000), wk =   0.0277778
        k(   45) = (   0.0567603   0.0466110   0.0000000), wk =   0.0277778
        k(   46) = (   0.0567603   0.0621480   0.0000000), wk =   0.0277778
        k(   47) = (   0.0567603   0.0776850   0.0000000), wk =   0.0277778
        k(   48) = (   0.0567603   0.0932220   0.0000000), wk =   0.0277778
        k(   49) = (   0.0567603   0.1087590   0.0000000), wk =   0.0277778
        k(   50) = (   0.0567603  -0.0621480   0.0000000), wk =   0.0277778
        k(   51) = (   0.0567603  -0.0466110   0.0000000), wk =   0.0277778
        k(   52) = (   0.0567603  -0.0310740   0.0000000), wk =   0.0277778
        k(   53) = (   0.0567603  -0.0155370   0.0000000), wk =   0.0277778
        k(   54) = (   0.0567603  -0.0000000   0.0000000), wk =   0.0277778
        k(   55) = (   0.0567603   0.0155370   0.0000000), wk =   0.0277778
        k(   56) = (   0.0709503   0.0388425   0.0000000), wk =   0.0277778
        k(   57) = (   0.0709503   0.0543795   0.0000000), wk =   0.0277778
        k(   58) = (   0.0709503   0.0699165   0.0000000), wk =   0.0277778
        k(   59) = (   0.0709503   0.0854535   0.0000000), wk =   0.0277778
        k(   60) = (   0.0709503   0.1009905   0.0000000), wk =   0.0277778
        k(   61) = (   0.0709503   0.1165275   0.0000000), wk =   0.0277778
        k(   62) = (   0.0709503  -0.0543795   0.0000000), wk =   0.0277778
        k(   63) = (   0.0709503  -0.0388425   0.0000000), wk =   0.0277778
        k(   64) = (   0.0709503  -0.0233055   0.0000000), wk =   0.0277778
        k(   65) = (   0.0709503  -0.0077685   0.0000000), wk =   0.0277778
        k(   66) = (   0.0709503   0.0077685   0.0000000), wk =   0.0277778
        k(   67) = (   0.0709503   0.0233055   0.0000000), wk =   0.0277778
        k(   68) = (  -0.0851404  -0.0466110   0.0000000), wk =   0.0138889
        k(   69) = (  -0.0851404  -0.0310740   0.0000000), wk =   0.0277778
        k(   70) = (  -0.0851404  -0.0155370   0.0000000), wk =   0.0277778
        k(   71) = (  -0.0851404   0.0000000   0.0000000), wk =   0.0277778
        k(   72) = (  -0.0851404   0.0155370   0.0000000), wk =   0.0277778
        k(   73) = (  -0.0851404   0.0310740   0.0000000), wk =   0.0277778
        k(   74) = (  -0.0851404  -0.1398330   0.0000000), wk =   0.0138889

     Dense  grid:  1157605 G-vectors     FFT dimensions: (  90,  90, 360)

     Smooth grid:   292627 G-vectors     FFT dimensions: (  54,  60, 225)

     Estimated max dynamical RAM per process >     466.13 MB

     Estimated total dynamical RAM >      16.84 GB

     Initial potential from superposition of free atoms

     starting charge  233.99444, renormalised to  234.00000

     negative rho (up, down):  1.135E-03 0.000E+00


     %%%%%%%%%%%%%%%%%%%%%%%%%%%%%%%%%%%%%%%%%%%%%%%%%%%%%%%%%%%%%%%%%%%%%%%%
     %                                                                      %
     % You are using vdW-DF, which was implemented by the Thonhauser group. %
     % Please cite the following two papers that made this development      %
     % possible and the two reviews that describe the various versions:     %
     %                                                                      %
     %   T. Thonhauser et al., PRL 115, 136402 (2015).                      %
     %   T. Thonhauser et al., PRB 76, 125112 (2007).                       %
     %   K. Berland et al., Rep. Prog. Phys. 78, 066501 (2015).             %
     %   D.C. Langreth et al., J. Phys.: Condens. Matter 21, 084203 (2009). %
     %                                                                      %
     %                                                                      %
     % If you are calculating the stress with vdW-DF, please also cite:     %
     %                                                                      %
     %   R. Sabatini et al., J. Phys.: Condens. Matter 24, 424209 (2012).   %
     %                                                                      %
     %%%%%%%%%%%%%%%%%%%%%%%%%%%%%%%%%%%%%%%%%%%%%%%%%%%%%%%%%%%%%%%%%%%%%%%%



     Adding external electric field

     Computed dipole along edir(3) : 
        Dipole               -0.0004 Ry au,         -0.0009 Debye
        Dipole field         -0.0000 Ry au, 

        Potential amp.        0.0001 Ry
        Total length         45.9044 bohr

     Starting wfcs are  156 randomized atomic wfcs

     total cpu time spent up to now is      156.4 secs

     Self-consistent Calculation

     iteration #  1     ecut=    55.12 Ry     beta= 0.10
     Davidson diagonalization with overlap
     ethr =  1.00E-02,  avg # of iterations =  2.5

     Threshold (ethr) on eigenvalues was too large:
     Diagonalizing with lowered threshold

     Davidson diagonalization with overlap
     ethr =  8.37E-04,  avg # of iterations =  3.7

     negative rho (up, down):  1.095E-03 0.000E+00

     Adding external electric field

     Computed dipole along edir(3) : 
        Dipole               -0.4679 Ry au,         -1.1892 Debye
        Dipole field         -0.0011 Ry au, 

        Potential amp.        0.1019 Ry
        Total length         45.9044 bohr


     total cpu time spent up to now is     1463.3 secs

     total energy              =   -4698.09442042 Ry
     estimated scf accuracy    <       1.96579638 Ry

     iteration #  2     ecut=    55.12 Ry     beta= 0.10
     Davidson diagonalization with overlap
     ethr =  8.40E-04,  avg # of iterations =  2.9

     negative rho (up, down):  1.094E-03 0.000E+00

     Adding external electric field

     Computed dipole along edir(3) : 
        Dipole                0.1815 Ry au,          0.4612 Debye
        Dipole field          0.0004 Ry au, 

        Potential amp.       -0.0395 Ry
        Total length         45.9044 bohr


     total cpu time spent up to now is     2054.1 secs

     total energy              =   -4697.98246847 Ry
     estimated scf accuracy    <       9.26750213 Ry

     iteration #  3     ecut=    55.12 Ry     beta= 0.10
     Davidson diagonalization with overlap
     ethr =  8.40E-04,  avg # of iterations =  1.3

     negative rho (up, down):  1.067E-03 0.000E+00

     Adding external electric field

     Computed dipole along edir(3) : 
        Dipole               -0.0177 Ry au,         -0.0449 Debye
        Dipole field         -0.0000 Ry au, 

        Potential amp.        0.0038 Ry
        Total length         45.9044 bohr


     total cpu time spent up to now is     2562.0 secs

     total energy              =   -4698.10955580 Ry
     estimated scf accuracy    <       2.19500401 Ry

     iteration #  4     ecut=    55.12 Ry     beta= 0.10
     Davidson diagonalization with overlap
     ethr =  8.40E-04,  avg # of iterations =  1.0

     negative rho (up, down):  1.032E-03 0.000E+00

     Adding external electric field

     Computed dipole along edir(3) : 
        Dipole                0.0017 Ry au,          0.0044 Debye
        Dipole field          0.0000 Ry au, 

        Potential amp.       -0.0004 Ry
        Total length         45.9044 bohr


     total cpu time spent up to now is     3092.1 secs

     total energy              =   -4698.08513568 Ry
     estimated scf accuracy    <       0.29966365 Ry

     iteration #  5     ecut=    55.12 Ry     beta= 0.10
     Davidson diagonalization with overlap
     c_bands:  1 eigenvalues not converged
     ethr =  1.28E-04,  avg # of iterations =  9.1

     negative rho (up, down):  1.010E-03 0.000E+00

     Adding external electric field

     Computed dipole along edir(3) : 
        Dipole               -0.0740 Ry au,         -0.1882 Debye
        Dipole field         -0.0002 Ry au, 

        Potential amp.        0.0161 Ry
        Total length         45.9044 bohr


     total cpu time spent up to now is     3771.9 secs

     total energy              =   -4698.11908847 Ry
     estimated scf accuracy    <       0.07443264 Ry

     iteration #  6     ecut=    55.12 Ry     beta= 0.10
     Davidson diagonalization with overlap
     c_bands:  1 eigenvalues not converged
     c_bands:  1 eigenvalues not converged
     ethr =  3.18E-05,  avg # of iterations =  7.2

     negative rho (up, down):  1.011E-03 0.000E+00

     Adding external electric field

     Computed dipole along edir(3) : 
        Dipole               -0.0644 Ry au,         -0.1637 Debye
        Dipole field         -0.0002 Ry au, 

        Potential amp.        0.0140 Ry
        Total length         45.9044 bohr


     total cpu time spent up to now is     4454.7 secs

     total energy              =   -4698.12845129 Ry
     estimated scf accuracy    <       0.03137205 Ry

     iteration #  7     ecut=    55.12 Ry     beta= 0.10
     Davidson diagonalization with overlap
     c_bands:  1 eigenvalues not converged
     c_bands:  1 eigenvalues not converged
     ethr =  1.34E-05,  avg # of iterations =  4.5

     negative rho (up, down):  1.023E-03 0.000E+00

     Adding external electric field

     Computed dipole along edir(3) : 
        Dipole               -0.0324 Ry au,         -0.0823 Debye
        Dipole field         -0.0001 Ry au, 

        Potential amp.        0.0071 Ry
        Total length         45.9044 bohr


     total cpu time spent up to now is     5099.5 secs

     total energy              =   -4698.13133937 Ry
     estimated scf accuracy    <       0.01231411 Ry

     iteration #  8     ecut=    55.12 Ry     beta= 0.10
     Davidson diagonalization with overlap
     c_bands:  1 eigenvalues not converged
     c_bands:  1 eigenvalues not converged
     c_bands:  1 eigenvalues not converged
     c_bands:  1 eigenvalues not converged
     c_bands:  1 eigenvalues not converged
     c_bands:  1 eigenvalues not converged
     ethr =  5.26E-06,  avg # of iterations =  9.7

     negative rho (up, down):  1.027E-03 0.000E+00

     Adding external electric field

     Computed dipole along edir(3) : 
        Dipole               -0.0414 Ry au,         -0.1052 Debye
        Dipole field         -0.0001 Ry au, 

        Potential amp.        0.0090 Ry
        Total length         45.9044 bohr


     total cpu time spent up to now is     5667.1 secs

     total energy              =   -4698.13270239 Ry
     estimated scf accuracy    <       0.00444802 Ry

     iteration #  9     ecut=    55.12 Ry     beta= 0.10
     Davidson diagonalization with overlap
     c_bands:  1 eigenvalues not converged
     ethr =  1.90E-06,  avg # of iterations =  6.6

     negative rho (up, down):  1.034E-03 0.000E+00

     Adding external electric field

     Computed dipole along edir(3) : 
        Dipole               -0.0461 Ry au,         -0.1172 Debye
        Dipole field         -0.0001 Ry au, 

        Potential amp.        0.0100 Ry
        Total length         45.9044 bohr


     total cpu time spent up to now is     6113.0 secs

     total energy              =   -4698.13312532 Ry
     estimated scf accuracy    <       0.00139662 Ry

     iteration # 10     ecut=    55.12 Ry     beta= 0.10
     Davidson diagonalization with overlap
     ethr =  5.97E-07,  avg # of iterations =  4.1

     negative rho (up, down):  1.033E-03 0.000E+00

     Adding external electric field

     Computed dipole along edir(3) : 
        Dipole               -0.0391 Ry au,         -0.0993 Debye
        Dipole field         -0.0001 Ry au, 

        Potential amp.        0.0085 Ry
        Total length         45.9044 bohr


     total cpu time spent up to now is     6850.7 secs

     total energy              =   -4698.13331641 Ry
     estimated scf accuracy    <       0.00030866 Ry

     iteration # 11     ecut=    55.12 Ry     beta= 0.10
     Davidson diagonalization with overlap
     ethr =  1.32E-07,  avg # of iterations =  5.0

     negative rho (up, down):  1.029E-03 0.000E+00

     Adding external electric field

     Computed dipole along edir(3) : 
        Dipole               -0.0411 Ry au,         -0.1044 Debye
        Dipole field         -0.0001 Ry au, 

        Potential amp.        0.0090 Ry
        Total length         45.9044 bohr


     total cpu time spent up to now is     7778.0 secs

     total energy              =   -4698.13336858 Ry
     estimated scf accuracy    <       0.00042538 Ry

     iteration # 12     ecut=    55.12 Ry     beta= 0.10
     Davidson diagonalization with overlap
     ethr =  1.32E-07,  avg # of iterations =  2.0

     negative rho (up, down):  1.026E-03 0.000E+00

     Adding external electric field

     Computed dipole along edir(3) : 
        Dipole               -0.0433 Ry au,         -0.1101 Debye
        Dipole field         -0.0001 Ry au, 

        Potential amp.        0.0094 Ry
        Total length         45.9044 bohr


     total cpu time spent up to now is     8660.8 secs

     total energy              =   -4698.13342418 Ry
     estimated scf accuracy    <       0.00002570 Ry

     iteration # 13     ecut=    55.12 Ry     beta= 0.10
     Davidson diagonalization with overlap
     ethr =  1.10E-08,  avg # of iterations =  5.0

     negative rho (up, down):  1.023E-03 0.000E+00

     Adding external electric field

     Computed dipole along edir(3) : 
        Dipole               -0.0439 Ry au,         -0.1115 Debye
        Dipole field         -0.0001 Ry au, 

        Potential amp.        0.0096 Ry
        Total length         45.9044 bohr


     total cpu time spent up to now is     9664.7 secs

     total energy              =   -4698.13343371 Ry
     estimated scf accuracy    <       0.00001249 Ry

     iteration # 14     ecut=    55.12 Ry     beta= 0.10
     Davidson diagonalization with overlap
     ethr =  5.34E-09,  avg # of iterations =  2.0

     negative rho (up, down):  1.027E-03 0.000E+00

     Adding external electric field

     Computed dipole along edir(3) : 
        Dipole               -0.0411 Ry au,         -0.1045 Debye
        Dipole field         -0.0001 Ry au, 

        Potential amp.        0.0090 Ry
        Total length         45.9044 bohr


     total cpu time spent up to now is    10146.1 secs

     End of self-consistent calculation

          k = 0.0000 0.0000 0.0000 ( 36549 PWs)   bands (ev):

   -66.9594 -66.9265 -66.7308 -66.6975 -66.5195 -66.4857 -33.4025 -33.3402
   -33.2882 -33.2788 -33.2229 -33.1832 -33.1373 -33.1205 -33.0969 -33.0335
   -33.0167 -32.9725 -32.9082 -32.7064 -32.5550 -32.5175 -32.4621 -32.4370
   -18.7091 -18.7075 -18.7058 -18.7048 -18.6635 -18.6537 -18.6455 -18.6392
   -18.6220 -18.5993 -18.5882 -18.5877 -18.5651 -18.5514 -18.4530 -18.4509
   -18.4494 -18.4481 -18.4293 -18.4192 -18.4166 -18.4090 -18.3999 -18.3774
   -18.3696 -18.3689 -18.3463 -18.3347 -18.2378 -18.2362 -18.2220 -18.2205
   -18.2193 -18.2186 -18.2156 -18.2118 -18.1872 -18.1778 -18.1615 -18.1514
   -18.1342 -18.1340  -7.1066  -6.5423  -6.4953  -6.4199  -6.3737  -6.1949
    -6.0994  -6.0576  -5.9892  -5.8878  -5.8807  -5.6797  -5.5211  -5.5054
    -5.4918  -5.2005  -5.1941  -5.1905  -5.1122  -5.0772  -5.0636  -4.9908
    -4.8617  -4.8431  -4.7230  -4.6509  -4.5262  -4.4387  -4.4079  -4.3953
    -4.2170  -3.9299  -2.6444  -1.5380  -0.7724  -0.7503  -0.6319  -0.4287
    -0.0520   0.1463   0.3550   0.3622   0.4520   0.9505   1.2454   1.3397
     1.4429   1.7793   1.9492   2.0849   2.1419   2.1448   2.4174   2.6639
     2.6943   2.8994   3.5084   3.5502   3.6226   3.7654   4.0536   4.0608
     4.2018   4.3915   4.7135   4.7660   4.9052   5.0419   5.0480   5.1439
     5.2183   5.3282   5.5473   5.7250

          k = 0.0000 0.0155 0.0000 ( 36618 PWs)   bands (ev):

   -66.9594 -66.9265 -66.7308 -66.6975 -66.5195 -66.4857 -33.4026 -33.3402
   -33.2884 -33.2788 -33.2229 -33.1833 -33.1374 -33.1205 -33.0971 -33.0335
   -33.0167 -32.9726 -32.9083 -32.7064 -32.5551 -32.5175 -32.4621 -32.4371
   -18.7091 -18.7076 -18.7058 -18.7048 -18.6636 -18.6537 -18.6455 -18.6392
   -18.6221 -18.5993 -18.5883 -18.5878 -18.5652 -18.5514 -18.4530 -18.4510
   -18.4494 -18.4481 -18.4293 -18.4192 -18.4166 -18.4091 -18.3999 -18.3774
   -18.3696 -18.3690 -18.3463 -18.3347 -18.2379 -18.2363 -18.2221 -18.2205
   -18.2193 -18.2186 -18.2156 -18.2119 -18.1872 -18.1778 -18.1615 -18.1514
   -18.1343 -18.1340  -7.0782  -6.5298  -6.4794  -6.4121  -6.3613  -6.1800
    -6.0953  -6.0462  -5.9765  -5.8843  -5.8692  -5.6702  -5.5010  -5.4942
    -5.4916  -5.1976  -5.1938  -5.1770  -5.1082  -5.0761  -5.0577  -4.9871
    -4.8550  -4.8404  -4.7195  -4.6498  -4.5262  -4.4265  -4.4053  -4.3956
    -4.2171  -3.9293  -2.6454  -1.5243  -1.0560  -0.7901  -0.6211  -0.2667
    -0.1543  -0.1199   0.3254   0.3416   0.6067   0.9405   1.1266   1.2636
     1.4741   1.7419   1.9043   1.9399   1.9973   2.1045   2.3783   2.5577
     2.7444   2.9128   3.3295   3.5771   3.7089   3.7517   3.8618   4.0357
     4.3850   4.7018   4.7076   4.8643   4.8879   5.0234   5.1638   5.2072
     5.2129   5.3605   5.6266   5.7494

          k = 0.0000 0.0311 0.0000 ( 36554 PWs)   bands (ev):

   -66.9593 -66.9265 -66.7308 -66.6975 -66.5195 -66.4857 -33.4028 -33.3402
   -33.2888 -33.2790 -33.2230 -33.1834 -33.1376 -33.1206 -33.0975 -33.0335
   -33.0169 -32.9727 -32.9086 -32.7064 -32.5551 -32.5175 -32.4621 -32.4371
   -18.7091 -18.7075 -18.7058 -18.7048 -18.6636 -18.6537 -18.6456 -18.6392
   -18.6220 -18.5993 -18.5883 -18.5878 -18.5651 -18.5514 -18.4530 -18.4509
   -18.4494 -18.4481 -18.4293 -18.4192 -18.4166 -18.4090 -18.3999 -18.3774
   -18.3696 -18.3689 -18.3463 -18.3347 -18.2379 -18.2362 -18.2221 -18.2205
   -18.2193 -18.2187 -18.2156 -18.2118 -18.1872 -18.1778 -18.1615 -18.1514
   -18.1343 -18.1340  -7.0042  -6.4933  -6.4365  -6.3895  -6.3265  -6.1352
    -6.0840  -6.0102  -5.9409  -5.8751  -5.8379  -5.6444  -5.4902  -5.4616
    -5.4450  -5.1929  -5.1898  -5.1409  -5.0973  -5.0733  -5.0416  -4.9770
    -4.8369  -4.8320  -4.7100  -4.6460  -4.5263  -4.3982  -4.3958  -4.3844
    -4.2172  -3.9277  -2.6673  -1.5326  -1.4815  -0.8402  -0.5880  -0.5325
    -0.4886  -0.1253   0.2505   0.2911   0.7000   0.8094   1.0169   1.0769
     1.3710   1.4994   1.5835   1.7710   1.8096   2.1379   2.2359   2.4102
     2.8108   2.9780   3.0373   3.5111   3.5244   3.9702   3.9881   4.0074
     4.6467   4.7898   4.8163   4.8701   4.9672   5.0241   5.1772   5.3698
     5.5081   5.5355   5.8838   5.9719

          k = 0.0000 0.0466 0.0000 ( 36598 PWs)   bands (ev):

   -66.9593 -66.9265 -66.7308 -66.6975 -66.5195 -66.4857 -33.4030 -33.3403
   -33.2893 -33.2793 -33.2232 -33.1836 -33.1378 -33.1205 -33.0981 -33.0335
   -33.0170 -32.9730 -32.9090 -32.7065 -32.5551 -32.5176 -32.4622 -32.4371
   -18.7093 -18.7075 -18.7058 -18.7048 -18.6636 -18.6538 -18.6456 -18.6393
   -18.6221 -18.5993 -18.5884 -18.5878 -18.5651 -18.5515 -18.4531 -18.4509
   -18.4494 -18.4481 -18.4294 -18.4192 -18.4166 -18.4091 -18.4000 -18.3774
   -18.3696 -18.3690 -18.3463 -18.3348 -18.2379 -18.2363 -18.2222 -18.2205
   -18.2194 -18.2188 -18.2156 -18.2119 -18.1872 -18.1778 -18.1616 -18.1515
   -18.1343 -18.1340  -6.9159  -6.4422  -6.3865  -6.3476  -6.2731  -6.0722
    -6.0628  -5.9350  -5.8896  -5.8636  -5.7955  -5.6107  -5.4849  -5.4118
    -5.3681  -5.1920  -5.1782  -5.0946  -5.0822  -5.0695  -5.0184  -4.9629
    -4.8188  -4.8124  -4.6969  -4.6397  -4.5265  -4.3937  -4.3881  -4.3026
    -4.2175  -3.9252  -2.7936  -1.9328  -1.4054  -0.9328  -0.9255  -0.9129
    -0.5325  -0.1652   0.1566   0.2317   0.5610   0.5970   0.8537   0.9117
     1.2033   1.2329   1.2639   1.5190   1.6625   1.8920   2.0805   2.6298
     2.8312   2.8346   3.0679   3.4463   3.4780   3.9257   4.0471   4.3439
     4.5480   4.6619   4.8723   4.8897   5.1173   5.1374   5.1900   5.5596
     5.9644   5.9767   6.0402   6.2629

          k = 0.0000 0.0621 0.0000 ( 36574 PWs)   bands (ev):

   -66.9593 -66.9265 -66.7308 -66.6975 -66.5195 -66.4857 -33.4032 -33.3403
   -33.2898 -33.2796 -33.2234 -33.1838 -33.1380 -33.1205 -33.0986 -33.0335
   -33.0172 -32.9732 -32.9094 -32.7065 -32.5552 -32.5176 -32.4622 -32.4372
   -18.7093 -18.7075 -18.7058 -18.7048 -18.6637 -18.6538 -18.6457 -18.6392
   -18.6221 -18.5994 -18.5885 -18.5879 -18.5651 -18.5515 -18.4531 -18.4509
   -18.4494 -18.4481 -18.4294 -18.4192 -18.4167 -18.4090 -18.4000 -18.3774
   -18.3697 -18.3691 -18.3463 -18.3347 -18.2380 -18.2364 -18.2223 -18.2206
   -18.2193 -18.2189 -18.2156 -18.2119 -18.1872 -18.1778 -18.1616 -18.1515
   -18.1343 -18.1340  -6.8460  -6.3988  -6.3538  -6.2852  -6.2139  -6.0579
    -5.9962  -5.8530  -5.8358  -5.7828  -5.7534  -5.5816  -5.4725  -5.3555
    -5.3018  -5.1917  -5.1535  -5.0673  -5.0655  -5.0552  -4.9889  -4.9473
    -4.8036  -4.7859  -4.6836  -4.6328  -4.5267  -4.3886  -4.3779  -4.2179
    -4.2063  -3.9223  -3.0732  -2.1634  -1.3081  -1.2962  -1.2624  -0.9886
    -0.4651  -0.3974   0.0672   0.1862   0.3356   0.3782   0.6148   0.8292
     0.8297   1.0954   1.1605   1.2331   1.6214   1.6505   1.9532   2.6570
     2.8476   2.9748   3.1455   3.3723   3.5702   3.8653   4.1237   4.4458
     4.4482   4.5490   4.7965   4.8962   5.1001   5.2998   5.3000   5.9538
     5.9713   6.2635   6.4104   6.5514

          k = 0.0000 0.0777 0.0000 ( 36566 PWs)   bands (ev):

   -66.9593 -66.9265 -66.7307 -66.6975 -66.5194 -66.4857 -33.4034 -33.3404
   -33.2902 -33.2798 -33.2235 -33.1839 -33.1382 -33.1205 -33.0990 -33.0335
   -33.0173 -32.9734 -32.9096 -32.7066 -32.5552 -32.5177 -32.4623 -32.4373
   -18.7093 -18.7076 -18.7059 -18.7048 -18.6637 -18.6538 -18.6457 -18.6393
   -18.6221 -18.5993 -18.5886 -18.5880 -18.5651 -18.5515 -18.4531 -18.4509
   -18.4494 -18.4481 -18.4294 -18.4193 -18.4167 -18.4091 -18.4000 -18.3773
   -18.3697 -18.3691 -18.3463 -18.3348 -18.2381 -18.2364 -18.2223 -18.2205
   -18.2194 -18.2190 -18.2156 -18.2120 -18.1873 -18.1778 -18.1616 -18.1515
   -18.1343 -18.1340  -6.8060  -6.3742  -6.3343  -6.2326  -6.1723  -6.0500
    -5.9518  -5.8457  -5.7957  -5.7226  -5.5800  -5.5647  -5.4560  -5.3097
    -5.2877  -5.1921  -5.0974  -5.0632  -5.0556  -5.0332  -4.9438  -4.9346
    -4.7793  -4.7632  -4.6739  -4.6281  -4.5268  -4.3827  -4.3702  -4.2453
    -4.2182  -3.9197  -3.2087  -2.4554  -1.4798  -1.3856  -1.1812  -1.0352
    -0.7500  -0.4362   0.0355   0.1496   0.1987   0.2235   0.4430   0.4973
     0.7864   0.9952   1.0598   1.0881   1.5170   1.6310   1.8270   2.6479
     2.8553   3.1605   3.2068   3.3108   3.7055   3.8219   4.2363   4.2496
     4.3724   4.6230   4.7338   4.9079   5.0749   5.1999   5.3749   6.1097
     6.2642   6.5446   6.7491   6.7684

          k = 0.0000-0.0932 0.0000 ( 36530 PWs)   bands (ev):

   -66.9593 -66.9265 -66.7307 -66.6975 -66.5194 -66.4857 -33.4034 -33.3403
   -33.2904 -33.2798 -33.2236 -33.1840 -33.1382 -33.1205 -33.0992 -33.0335
   -33.0174 -32.9734 -32.9097 -32.7066 -32.5552 -32.5177 -32.4623 -32.4373
   -18.7093 -18.7075 -18.7059 -18.7048 -18.6637 -18.6538 -18.6457 -18.6393
   -18.6221 -18.5993 -18.5886 -18.5880 -18.5651 -18.5515 -18.4531 -18.4508
   -18.4494 -18.4481 -18.4293 -18.4192 -18.4167 -18.4091 -18.4001 -18.3773
   -18.3697 -18.3692 -18.3462 -18.3348 -18.2381 -18.2364 -18.2223 -18.2205
   -18.2194 -18.2190 -18.2155 -18.2119 -18.1873 -18.1778 -18.1615 -18.1515
   -18.1343 -18.1340  -6.7933  -6.3665  -6.3275  -6.2123  -6.1581  -6.0474
    -5.9361  -5.8431  -5.7812  -5.7113  -5.5593  -5.4704  -5.4481  -5.3058
    -5.2919  -5.1925  -5.0632  -5.0622  -5.0515  -5.0269  -4.9299  -4.9057
    -4.7536  -4.7334  -4.6704  -4.6267  -4.5269  -4.3801  -4.3795  -4.3674
    -4.2184  -3.9187  -3.1172  -2.6948  -1.5558  -1.2684  -1.1405  -1.0294
    -0.9972  -0.4556   0.0798   0.1291   0.1322   0.1983   0.3326   0.3826
     0.7733   0.9055   1.0498   1.0633   1.4732   1.6503   1.7645   2.6530
     2.8579   3.2246   3.2536   3.2636   3.7881   3.8062   4.1476   4.3154
     4.3460   4.6392   4.7109   4.9118   5.0664   5.0920   5.3955   6.2646
     6.3040   6.5682   6.9173   7.0317

          k = 0.0142 0.0078 0.0000 ( 36605 PWs)   bands (ev):

   -66.9588 -66.9271 -66.7302 -66.6981 -66.5189 -66.4863 -33.4015 -33.3413
   -33.2872 -33.2694 -33.2240 -33.1821 -33.1280 -33.1215 -33.0959 -33.0346
   -33.0072 -32.9715 -32.9094 -32.7166 -32.5654 -32.5165 -32.4631 -32.4474
   -18.7091 -18.7076 -18.7058 -18.7048 -18.6634 -18.6539 -18.6454 -18.6393
   -18.6217 -18.5997 -18.5878 -18.5872 -18.5656 -18.5521 -18.4529 -18.4510
   -18.4494 -18.4481 -18.4291 -18.4194 -18.4165 -18.4092 -18.3996 -18.3778
   -18.3691 -18.3686 -18.3467 -18.3354 -18.2375 -18.2359 -18.2219 -18.2208
   -18.2196 -18.2185 -18.2158 -18.2120 -18.1871 -18.1780 -18.1611 -18.1511
   -18.1348 -18.1343  -7.0540  -6.5091  -6.4747  -6.4012  -6.3425  -6.1798
    -6.0705  -6.0391  -5.9712  -5.8911  -5.8767  -5.6608  -5.5054  -5.5046
    -5.4762  -5.2004  -5.1862  -5.1802  -5.1337  -5.0998  -5.0574  -4.9924
    -4.8613  -4.8382  -4.7421  -4.6549  -4.5470  -4.4346  -4.4118  -4.4079
    -4.2345  -3.9608  -2.6305  -1.7864  -0.9471  -0.8115  -0.7513  -0.3166
    -0.0238   0.1710   0.3570   0.3756   0.6161   0.9833   1.2268   1.4077
     1.4902   1.6244   1.9456   2.0389   2.0759   2.1810   2.3912   2.5562
     2.7032   2.8889   3.3882   3.4027   3.6062   3.7492   4.0400   4.0788
     4.2124   4.5921   4.6453   4.7301   4.9811   5.0229   5.1105   5.2006
     5.2369   5.4233   5.7035   5.7524

          k = 0.0142 0.0233 0.0000 ( 36608 PWs)   bands (ev):

   -66.9588 -66.9271 -66.7302 -66.6981 -66.5189 -66.4863 -33.4016 -33.3413
   -33.2875 -33.2696 -33.2241 -33.1823 -33.1281 -33.1215 -33.0962 -33.0346
   -33.0073 -32.9716 -32.9096 -32.7166 -32.5654 -32.5166 -32.4631 -32.4474
   -18.7091 -18.7076 -18.7058 -18.7048 -18.6634 -18.6539 -18.6455 -18.6394
   -18.6217 -18.5997 -18.5879 -18.5873 -18.5656 -18.5521 -18.4530 -18.4510
   -18.4494 -18.4481 -18.4292 -18.4194 -18.4165 -18.4092 -18.3996 -18.3778
   -18.3691 -18.3686 -18.3467 -18.3354 -18.2375 -18.2360 -18.2219 -18.2208
   -18.2196 -18.2185 -18.2157 -18.2120 -18.1871 -18.1780 -18.1612 -18.1511
   -18.1349 -18.1343  -7.0003  -6.4837  -6.4445  -6.3860  -6.3202  -6.1516
    -6.0613  -6.0170  -5.9473  -5.8845  -5.8550  -5.6428  -5.4852  -5.4737
    -5.4681  -5.1950  -5.1797  -5.1610  -5.1265  -5.1000  -5.0446  -4.9856
    -4.8488  -4.8330  -4.7359  -4.6526  -4.5466  -4.4300  -4.4123  -4.3812
    -4.2339  -3.9600  -2.6358  -1.7915  -1.2533  -0.9797  -0.7589  -0.2622
    -0.1149  -0.1119   0.3154   0.3440   0.7086   0.9270   1.0957   1.2258
     1.4547   1.5056   1.7866   1.8820   1.9551   2.0903   2.3629   2.4309
     2.7907   2.9009   3.1294   3.4174   3.7599   3.8276   3.8836   4.0360
     4.4686   4.6571   4.8259   4.8888   4.8938   5.0635   5.1381   5.2265
     5.3885   5.5642   5.8175   5.8428

          k = 0.0142 0.0388 0.0000 ( 36579 PWs)   bands (ev):

   -66.9588 -66.9271 -66.7302 -66.6981 -66.5189 -66.4863 -33.4018 -33.3413
   -33.2879 -33.2698 -33.2243 -33.1824 -33.1283 -33.1215 -33.0967 -33.0346
   -33.0074 -32.9718 -32.9099 -32.7166 -32.5655 -32.5166 -32.4631 -32.4474
   -18.7092 -18.7076 -18.7058 -18.7048 -18.6634 -18.6539 -18.6455 -18.6393
   -18.6217 -18.5997 -18.5880 -18.5873 -18.5655 -18.5521 -18.4530 -18.4509
   -18.4494 -18.4481 -18.4292 -18.4194 -18.4165 -18.4092 -18.3996 -18.3778
   -18.3691 -18.3686 -18.3467 -18.3354 -18.2376 -18.2360 -18.2221 -18.2207
   -18.2196 -18.2186 -18.2157 -18.2120 -18.1871 -18.1780 -18.1612 -18.1512
   -18.1349 -18.1343  -6.9152  -6.4357  -6.3947  -6.3556  -6.2802  -6.0952
    -6.0458  -5.9665  -5.9046  -5.8729  -5.8182  -5.6123  -5.4742  -5.4417
    -5.4022  -5.1855  -5.1787  -5.1193  -5.1142  -5.1002  -5.0221  -4.9736
    -4.8277  -4.8227  -4.7253  -4.6479  -4.5460  -4.4213  -4.4117  -4.3219
    -4.2311  -3.9585  -2.6906  -1.8168  -1.7177  -1.0338  -0.7992  -0.6520
    -0.3341  -0.0715   0.1940   0.2924   0.6912   0.7206   0.9460   1.0002
     1.2499   1.3462   1.4566   1.7252   1.7605   2.1071   2.1808   2.5101
     2.7915   2.8716   2.9712   3.4059   3.6465   3.9027   4.0614   4.1461
     4.5991   4.6862   4.7997   4.8931   5.0138   5.0249   5.2398   5.4529
     5.7207   5.7828   5.9874   6.1755

          k = 0.0142 0.0544 0.0000 ( 36562 PWs)   bands (ev):

   -66.9588 -66.9271 -66.7302 -66.6981 -66.5189 -66.4862 -33.4021 -33.3414
   -33.2885 -33.2700 -33.2244 -33.1826 -33.1285 -33.1215 -33.0973 -33.0346
   -33.0076 -32.9720 -32.9103 -32.7167 -32.5655 -32.5167 -32.4632 -32.4475
   -18.7092 -18.7076 -18.7058 -18.7048 -18.6635 -18.6539 -18.6455 -18.6394
   -18.6217 -18.5997 -18.5881 -18.5873 -18.5655 -18.5522 -18.4531 -18.4509
   -18.4494 -18.4481 -18.4291 -18.4194 -18.4165 -18.4092 -18.3997 -18.3778
   -18.3691 -18.3687 -18.3467 -18.3354 -18.2376 -18.2361 -18.2221 -18.2208
   -18.2196 -18.2187 -18.2157 -18.2120 -18.1871 -18.1780 -18.1611 -18.1512
   -18.1349 -18.1343  -6.8344  -6.3824  -6.3527  -6.3017  -6.2282  -6.0323
    -6.0214  -5.8677  -5.8591  -5.8450  -5.7762  -5.5800  -5.4651  -5.3903
    -5.3288  -5.1781  -5.1700  -5.1042  -5.0961  -5.0762  -4.9934  -4.9590
    -4.8089  -4.8027  -4.7131  -4.6413  -4.5454  -4.4110  -4.4085  -4.2554
    -4.2019  -3.9565  -2.8946  -2.0280  -1.8865  -1.0896  -1.0783  -0.8775
    -0.4058  -0.2080   0.0423   0.2437   0.4652   0.5043   0.6803   0.9110
     1.0478   1.1253   1.2481   1.5445   1.6479   1.9139   2.0159   2.6503
     2.8096   2.8413   3.0567   3.3807   3.6323   3.8607   4.1081   4.4245
     4.4797   4.5814   4.7945   4.8250   5.0204   5.2520   5.3445   5.7372
     6.0128   6.0976   6.2071   6.3560

          k = 0.0142 0.0699 0.0000 ( 36561 PWs)   bands (ev):

   -66.9588 -66.9271 -66.7302 -66.6981 -66.5189 -66.4862 -33.4023 -33.3414
   -33.2889 -33.2703 -33.2246 -33.1828 -33.1287 -33.1215 -33.0978 -33.0346
   -33.0078 -32.9722 -32.9106 -32.7167 -32.5655 -32.5167 -32.4632 -32.4475
   -18.7093 -18.7076 -18.7059 -18.7048 -18.6635 -18.6539 -18.6456 -18.6394
   -18.6217 -18.5997 -18.5881 -18.5874 -18.5655 -18.5522 -18.4531 -18.4509
   -18.4494 -18.4481 -18.4291 -18.4194 -18.4165 -18.4092 -18.3997 -18.3778
   -18.3691 -18.3687 -18.3467 -18.3355 -18.2377 -18.2361 -18.2222 -18.2208
   -18.2197 -18.2188 -18.2157 -18.2121 -18.1872 -18.1780 -18.1612 -18.1512
   -18.1349 -18.1343  -6.7807  -6.3464  -6.3271  -6.2406  -6.1810  -6.0183
    -5.9667  -5.8565  -5.7989  -5.7404  -5.6740  -5.5570  -5.4492  -5.3403
    -5.2869  -5.1782  -5.1351  -5.1017  -5.0825  -5.0462  -4.9566  -4.9449
    -4.7913  -4.7785  -4.7030  -4.6354  -4.5449  -4.4032  -4.4020  -4.2480
    -4.1609  -3.9545  -3.1351  -2.2665  -1.9907  -1.3369  -1.1072  -0.8875
    -0.5219  -0.4239  -0.0862   0.2084   0.2770   0.2979   0.4858   0.7553
     0.8561   0.9948   1.1621   1.3581   1.6425   1.7236   1.8963   2.6175
     2.8289   3.0577   3.1373   3.3273   3.7163   3.8236   4.1664   4.3666
     4.3736   4.5865   4.7158   4.8493   4.9971   5.3644   5.3764   6.0479
     6.2082   6.2313   6.4502   6.7342

          k = 0.0142 0.0855 0.0000 ( 36557 PWs)   bands (ev):

   -66.9588 -66.9271 -66.7302 -66.6981 -66.5189 -66.4862 -33.4024 -33.3414
   -33.2892 -33.2704 -33.2247 -33.1829 -33.1288 -33.1215 -33.0980 -33.0346
   -33.0079 -32.9723 -32.9108 -32.7168 -32.5655 -32.5168 -32.4632 -32.4475
   -18.7093 -18.7076 -18.7059 -18.7049 -18.6636 -18.6539 -18.6456 -18.6394
   -18.6217 -18.5997 -18.5882 -18.5874 -18.5655 -18.5522 -18.4531 -18.4509
   -18.4493 -18.4481 -18.4292 -18.4194 -18.4166 -18.4092 -18.3997 -18.3777
   -18.3692 -18.3688 -18.3467 -18.3355 -18.2377 -18.2361 -18.2222 -18.2208
   -18.2197 -18.2189 -18.2157 -18.2121 -18.1872 -18.1780 -18.1612 -18.1512
   -18.1349 -18.1344  -6.7558  -6.3303  -6.3138  -6.2020  -6.1552  -6.0118
    -5.9367  -5.8513  -5.7714  -5.7197  -5.5460  -5.4991  -5.4354  -5.3091
    -5.2981  -5.1788  -5.1095  -5.0903  -5.0595  -5.0329  -4.9365  -4.9086
    -4.7621  -4.7469  -4.7005  -4.6324  -4.5446  -4.3990  -4.3985  -4.3094
    -4.2258  -3.9531  -3.1057  -2.5876  -2.0678  -1.2664  -1.1376  -0.8674
    -0.7779  -0.5438  -0.0722   0.1010   0.1770   0.2393   0.4096   0.5306
     0.8322   0.9376   1.1157   1.2581   1.6298   1.6631   1.8018   2.6185
     2.8390   3.1826   3.2041   3.2695   3.8035   3.8226   4.2161   4.2459
     4.3073   4.6238   4.6666   4.8894   4.9723   5.2353   5.4135   6.1973
     6.2695   6.6423   6.6795   6.8701

          k = 0.0142-0.0855 0.0000 ( 36557 PWs)   bands (ev):

   -66.9588 -66.9271 -66.7302 -66.6981 -66.5189 -66.4862 -33.4024 -33.3414
   -33.2892 -33.2704 -33.2247 -33.1829 -33.1288 -33.1215 -33.0980 -33.0346
   -33.0079 -32.9723 -32.9108 -32.7168 -32.5655 -32.5168 -32.4632 -32.4475
   -18.7093 -18.7076 -18.7059 -18.7049 -18.6636 -18.6539 -18.6456 -18.6394
   -18.6217 -18.5997 -18.5882 -18.5874 -18.5655 -18.5522 -18.4531 -18.4509
   -18.4493 -18.4481 -18.4292 -18.4194 -18.4166 -18.4092 -18.3997 -18.3777
   -18.3692 -18.3688 -18.3467 -18.3355 -18.2377 -18.2361 -18.2222 -18.2208
   -18.2197 -18.2189 -18.2157 -18.2121 -18.1872 -18.1780 -18.1612 -18.1512
   -18.1349 -18.1344  -6.7558  -6.3303  -6.3138  -6.2020  -6.1552  -6.0118
    -5.9367  -5.8513  -5.7714  -5.7197  -5.5460  -5.4991  -5.4354  -5.3091
    -5.2981  -5.1788  -5.1095  -5.0903  -5.0595  -5.0329  -4.9365  -4.9086
    -4.7621  -4.7469  -4.7005  -4.6324  -4.5446  -4.3990  -4.3985  -4.3094
    -4.2258  -3.9531  -3.1057  -2.5876  -2.0678  -1.2664  -1.1376  -0.8674
    -0.7779  -0.5438  -0.0722   0.1010   0.1770   0.2393   0.4096   0.5306
     0.8322   0.9376   1.1157   1.2581   1.6298   1.6631   1.8018   2.6185
     2.8390   3.1826   3.2041   3.2695   3.8035   3.8226   4.2161   4.2459
     4.3073   4.6238   4.6666   4.8894   4.9723   5.2353   5.4135   6.1973
     6.2696   6.6423   6.6795   6.8701

          k = 0.0142-0.0699 0.0000 ( 36561 PWs)   bands (ev):

   -66.9588 -66.9271 -66.7302 -66.6981 -66.5189 -66.4862 -33.4023 -33.3414
   -33.2889 -33.2703 -33.2246 -33.1828 -33.1287 -33.1215 -33.0978 -33.0346
   -33.0078 -32.9722 -32.9106 -32.7167 -32.5655 -32.5167 -32.4632 -32.4475
   -18.7093 -18.7076 -18.7059 -18.7048 -18.6635 -18.6539 -18.6456 -18.6394
   -18.6217 -18.5997 -18.5881 -18.5874 -18.5655 -18.5522 -18.4531 -18.4509
   -18.4494 -18.4481 -18.4291 -18.4194 -18.4165 -18.4092 -18.3997 -18.3778
   -18.3691 -18.3687 -18.3467 -18.3355 -18.2377 -18.2361 -18.2222 -18.2208
   -18.2197 -18.2188 -18.2157 -18.2121 -18.1872 -18.1780 -18.1612 -18.1512
   -18.1349 -18.1343  -6.7807  -6.3464  -6.3271  -6.2406  -6.1810  -6.0183
    -5.9667  -5.8565  -5.7989  -5.7404  -5.6740  -5.5570  -5.4492  -5.3403
    -5.2869  -5.1782  -5.1351  -5.1017  -5.0825  -5.0462  -4.9566  -4.9449
    -4.7913  -4.7785  -4.7030  -4.6354  -4.5449  -4.4032  -4.4020  -4.2480
    -4.1609  -3.9545  -3.1351  -2.2665  -1.9907  -1.3369  -1.1072  -0.8875
    -0.5219  -0.4239  -0.0862   0.2084   0.2770   0.2979   0.4858   0.7553
     0.8561   0.9948   1.1621   1.3581   1.6425   1.7236   1.8963   2.6175
     2.8289   3.0577   3.1373   3.3273   3.7163   3.8236   4.1664   4.3666
     4.3736   4.5865   4.7158   4.8493   4.9971   5.3644   5.3764   6.0479
     6.2082   6.2313   6.4502   6.7342

          k = 0.0142-0.0544 0.0000 ( 36562 PWs)   bands (ev):

   -66.9588 -66.9271 -66.7302 -66.6981 -66.5189 -66.4862 -33.4021 -33.3414
   -33.2885 -33.2700 -33.2244 -33.1826 -33.1285 -33.1215 -33.0973 -33.0346
   -33.0076 -32.9720 -32.9103 -32.7167 -32.5655 -32.5167 -32.4632 -32.4475
   -18.7092 -18.7076 -18.7058 -18.7048 -18.6635 -18.6539 -18.6455 -18.6394
   -18.6217 -18.5997 -18.5881 -18.5873 -18.5655 -18.5522 -18.4531 -18.4509
   -18.4494 -18.4481 -18.4291 -18.4194 -18.4165 -18.4092 -18.3997 -18.3778
   -18.3691 -18.3687 -18.3467 -18.3354 -18.2376 -18.2361 -18.2221 -18.2208
   -18.2196 -18.2187 -18.2157 -18.2120 -18.1871 -18.1780 -18.1611 -18.1512
   -18.1349 -18.1343  -6.8344  -6.3824  -6.3527  -6.3017  -6.2282  -6.0323
    -6.0214  -5.8677  -5.8591  -5.8450  -5.7762  -5.5800  -5.4651  -5.3903
    -5.3288  -5.1781  -5.1700  -5.1042  -5.0961  -5.0762  -4.9934  -4.9590
    -4.8089  -4.8027  -4.7131  -4.6413  -4.5454  -4.4110  -4.4085  -4.2554
    -4.2019  -3.9565  -2.8946  -2.0280  -1.8865  -1.0896  -1.0783  -0.8775
    -0.4058  -0.2080   0.0423   0.2437   0.4652   0.5043   0.6803   0.9110
     1.0478   1.1253   1.2481   1.5445   1.6479   1.9139   2.0159   2.6503
     2.8096   2.8413   3.0567   3.3807   3.6323   3.8607   4.1081   4.4245
     4.4797   4.5814   4.7945   4.8250   5.0204   5.2520   5.3445   5.7372
     6.0129   6.0976   6.2072   6.3561

          k = 0.0142-0.0388 0.0000 ( 36579 PWs)   bands (ev):

   -66.9588 -66.9271 -66.7302 -66.6981 -66.5189 -66.4863 -33.4018 -33.3413
   -33.2879 -33.2698 -33.2243 -33.1824 -33.1283 -33.1215 -33.0967 -33.0346
   -33.0074 -32.9718 -32.9099 -32.7166 -32.5655 -32.5166 -32.4631 -32.4474
   -18.7092 -18.7076 -18.7058 -18.7048 -18.6634 -18.6539 -18.6455 -18.6393
   -18.6217 -18.5997 -18.5880 -18.5873 -18.5655 -18.5521 -18.4530 -18.4509
   -18.4494 -18.4481 -18.4292 -18.4194 -18.4165 -18.4092 -18.3996 -18.3778
   -18.3691 -18.3686 -18.3467 -18.3354 -18.2376 -18.2360 -18.2221 -18.2207
   -18.2196 -18.2186 -18.2157 -18.2120 -18.1871 -18.1780 -18.1612 -18.1512
   -18.1349 -18.1343  -6.9152  -6.4357  -6.3947  -6.3556  -6.2802  -6.0952
    -6.0458  -5.9665  -5.9046  -5.8729  -5.8182  -5.6123  -5.4742  -5.4417
    -5.4022  -5.1855  -5.1787  -5.1193  -5.1142  -5.1002  -5.0221  -4.9736
    -4.8277  -4.8227  -4.7253  -4.6479  -4.5460  -4.4213  -4.4117  -4.3219
    -4.2311  -3.9585  -2.6906  -1.8168  -1.7177  -1.0338  -0.7992  -0.6520
    -0.3341  -0.0715   0.1940   0.2924   0.6912   0.7206   0.9460   1.0002
     1.2499   1.3462   1.4566   1.7252   1.7605   2.1071   2.1808   2.5101
     2.7915   2.8716   2.9712   3.4059   3.6465   3.9027   4.0614   4.1461
     4.5991   4.6862   4.7997   4.8931   5.0138   5.0249   5.2398   5.4529
     5.7207   5.7828   5.9866   6.1754

          k = 0.0142-0.0233 0.0000 ( 36608 PWs)   bands (ev):

   -66.9588 -66.9271 -66.7302 -66.6981 -66.5189 -66.4863 -33.4016 -33.3413
   -33.2875 -33.2696 -33.2241 -33.1823 -33.1281 -33.1215 -33.0962 -33.0346
   -33.0073 -32.9716 -32.9096 -32.7166 -32.5654 -32.5166 -32.4631 -32.4474
   -18.7091 -18.7076 -18.7058 -18.7048 -18.6634 -18.6539 -18.6455 -18.6394
   -18.6217 -18.5997 -18.5879 -18.5873 -18.5656 -18.5521 -18.4530 -18.4510
   -18.4494 -18.4481 -18.4292 -18.4194 -18.4165 -18.4092 -18.3996 -18.3778
   -18.3691 -18.3686 -18.3467 -18.3354 -18.2375 -18.2360 -18.2219 -18.2208
   -18.2196 -18.2185 -18.2157 -18.2120 -18.1871 -18.1780 -18.1612 -18.1511
   -18.1349 -18.1343  -7.0003  -6.4837  -6.4445  -6.3860  -6.3202  -6.1516
    -6.0613  -6.0170  -5.9473  -5.8845  -5.8550  -5.6428  -5.4852  -5.4737
    -5.4681  -5.1950  -5.1797  -5.1610  -5.1265  -5.1000  -5.0446  -4.9856
    -4.8488  -4.8330  -4.7359  -4.6526  -4.5466  -4.4300  -4.4123  -4.3812
    -4.2339  -3.9600  -2.6358  -1.7915  -1.2533  -0.9797  -0.7589  -0.2622
    -0.1149  -0.1119   0.3154   0.3440   0.7086   0.9270   1.0957   1.2258
     1.4547   1.5056   1.7866   1.8820   1.9551   2.0903   2.3629   2.4309
     2.7907   2.9009   3.1294   3.4174   3.7599   3.8276   3.8836   4.0360
     4.4686   4.6571   4.8259   4.8888   4.8938   5.0635   5.1381   5.2265
     5.3885   5.5642   5.8175   5.8427

          k = 0.0142-0.0078 0.0000 ( 36605 PWs)   bands (ev):

   -66.9588 -66.9271 -66.7302 -66.6981 -66.5189 -66.4863 -33.4015 -33.3413
   -33.2872 -33.2694 -33.2240 -33.1821 -33.1280 -33.1215 -33.0959 -33.0346
   -33.0072 -32.9715 -32.9094 -32.7166 -32.5654 -32.5165 -32.4631 -32.4474
   -18.7091 -18.7076 -18.7058 -18.7048 -18.6634 -18.6539 -18.6454 -18.6393
   -18.6217 -18.5997 -18.5878 -18.5872 -18.5656 -18.5521 -18.4529 -18.4510
   -18.4494 -18.4481 -18.4291 -18.4194 -18.4165 -18.4092 -18.3996 -18.3778
   -18.3691 -18.3686 -18.3467 -18.3354 -18.2375 -18.2359 -18.2219 -18.2208
   -18.2196 -18.2185 -18.2158 -18.2120 -18.1871 -18.1780 -18.1611 -18.1511
   -18.1348 -18.1343  -7.0540  -6.5091  -6.4747  -6.4012  -6.3425  -6.1798
    -6.0705  -6.0391  -5.9712  -5.8911  -5.8767  -5.6608  -5.5054  -5.5046
    -5.4762  -5.2004  -5.1862  -5.1802  -5.1337  -5.0998  -5.0574  -4.9924
    -4.8613  -4.8382  -4.7421  -4.6549  -4.5470  -4.4346  -4.4118  -4.4079
    -4.2345  -3.9608  -2.6305  -1.7864  -0.9471  -0.8115  -0.7513  -0.3166
    -0.0238   0.1710   0.3570   0.3756   0.6161   0.9833   1.2268   1.4077
     1.4902   1.6244   1.9456   2.0389   2.0759   2.1810   2.3912   2.5562
     2.7032   2.8889   3.3882   3.4027   3.6062   3.7492   4.0400   4.0788
     4.2124   4.5921   4.6453   4.7301   4.9811   5.0229   5.1105   5.2006
     5.2369   5.4233   5.7035   5.7524

          k = 0.0284 0.0155 0.0000 ( 36615 PWs)   bands (ev):

   -66.9572 -66.9287 -66.7285 -66.6997 -66.5172 -66.4879 -33.3985 -33.3445
   -33.2841 -33.2419 -33.2275 -33.1791 -33.1250 -33.0998 -33.0928 -33.0379
   -32.9794 -32.9684 -32.9127 -32.7463 -32.5957 -32.5139 -32.4775 -32.4658
   -18.7090 -18.7077 -18.7057 -18.7049 -18.6629 -18.6544 -18.6451 -18.6397
   -18.6206 -18.6009 -18.5868 -18.5857 -18.5668 -18.5542 -18.4528 -18.4511
   -18.4493 -18.4482 -18.4286 -18.4199 -18.4161 -18.4096 -18.3985 -18.3790
   -18.3676 -18.3675 -18.3479 -18.3375 -18.2365 -18.2351 -18.2216 -18.2214
   -18.2205 -18.2182 -18.2160 -18.2123 -18.1867 -18.1787 -18.1601 -18.1503
   -18.1365 -18.1353  -6.8986  -6.4195  -6.4145  -6.3459  -6.2487  -6.1393
    -6.0209  -5.9440  -5.9292  -5.8929  -5.8623  -5.6069  -5.5014  -5.4653
    -5.4328  -5.2246  -5.1918  -5.1746  -5.1400  -5.1383  -5.0393  -4.9981
    -4.8606  -4.8337  -4.7900  -4.6673  -4.6015  -4.4917  -4.4624  -4.3530
    -4.2722  -4.0553  -2.5884  -2.3367  -1.4302  -0.9468  -0.9056  -0.0783
     0.0022   0.0456   0.4323   0.5868   0.7375   1.0631   1.2364   1.4091
     1.5368   1.5566   1.8537   1.9327   2.0052   2.0793   2.3499   2.4172
     2.7717   2.8287   3.1116   3.1751   3.6041   3.7304   4.0450   4.0919
     4.2571   4.5221   4.6729   4.7383   4.9419   5.0568   5.1213   5.2217
     5.4041   5.7963   5.8494   5.9854

          k = 0.0284 0.0311 0.0000 ( 36598 PWs)   bands (ev):

   -66.9572 -66.9287 -66.7285 -66.6997 -66.5172 -66.4879 -33.3986 -33.3445
   -33.2844 -33.2421 -33.2275 -33.1792 -33.1249 -33.0999 -33.0932 -33.0379
   -32.9795 -32.9685 -32.9129 -32.7464 -32.5957 -32.5139 -32.4775 -32.4659
   -18.7090 -18.7076 -18.7057 -18.7049 -18.6629 -18.6544 -18.6451 -18.6397
   -18.6206 -18.6009 -18.5868 -18.5857 -18.5668 -18.5542 -18.4529 -18.4510
   -18.4493 -18.4482 -18.4286 -18.4199 -18.4161 -18.4096 -18.3985 -18.3790
   -18.3677 -18.3675 -18.3479 -18.3375 -18.2366 -18.2351 -18.2216 -18.2214
   -18.2205 -18.2182 -18.2160 -18.2123 -18.1868 -18.1787 -18.1601 -18.1504
   -18.1365 -18.1353  -6.8266  -6.3806  -6.3744  -6.3243  -6.2241  -6.1032
    -5.9915  -5.9253  -5.9096  -5.8727  -5.8342  -5.5831  -5.4752  -5.4306
    -5.4204  -5.2205  -5.1810  -5.1432  -5.1413  -5.1390  -5.0204  -4.9895
    -4.8451  -4.8274  -4.7830  -4.6646  -4.6006  -4.4896  -4.4627  -4.3253
    -4.2473  -4.0556  -2.6039  -2.4013  -1.4543  -1.3853  -0.9579  -0.2997
    -0.1306   0.0692   0.3946   0.4065   0.6919   0.9214   1.1439   1.1655
     1.3370   1.4744   1.6294   1.7682   2.0308   2.0640   2.3770   2.4059
     2.7285   2.8761   2.8861   3.3170   3.8172   3.8533   3.9587   4.0934
     4.4709   4.5470   4.7386   4.8211   4.9208   5.0249   5.1294   5.3391
     5.4118   5.9584   6.0048   6.0662

          k = 0.0284 0.0466 0.0000 ( 36598 PWs)   bands (ev):

   -66.9572 -66.9287 -66.7285 -66.6997 -66.5172 -66.4879 -33.3988 -33.3445
   -33.2849 -33.2424 -33.2277 -33.1794 -33.1249 -33.1001 -33.0938 -33.0379
   -32.9797 -32.9687 -32.9133 -32.7464 -32.5957 -32.5139 -32.4775 -32.4659
   -18.7091 -18.7076 -18.7058 -18.7049 -18.6630 -18.6544 -18.6452 -18.6397
   -18.6206 -18.6009 -18.5869 -18.5857 -18.5667 -18.5542 -18.4529 -18.4510
   -18.4493 -18.4482 -18.4286 -18.4198 -18.4161 -18.4096 -18.3986 -18.3790
   -18.3677 -18.3676 -18.3479 -18.3375 -18.2366 -18.2351 -18.2217 -18.2214
   -18.2205 -18.2183 -18.2160 -18.2124 -18.1868 -18.1786 -18.1601 -18.1504
   -18.1365 -18.1353  -6.7427  -6.3261  -6.3183  -6.2848  -6.1963  -6.0426
    -5.9473  -5.8928  -5.8787  -5.8335  -5.7963  -5.5523  -5.4395  -5.4207
    -5.3592  -5.2143  -5.1665  -5.1443  -5.1384  -5.1034  -4.9928  -4.9772
    -4.8243  -4.8181  -4.7731  -4.6599  -4.5990  -4.4853  -4.4615  -4.3094
    -4.1751  -4.0560  -2.7039  -2.5084  -1.7944  -1.4821  -0.9712  -0.7369
    -0.2291   0.0330   0.1370   0.3690   0.5934   0.6656   0.8598   1.0726
     1.1430   1.3524   1.3968   1.7021   1.9045   2.0293   2.2721   2.5905
     2.7185   2.7233   2.9315   3.3542   3.8094   3.8538   4.1231   4.2232
     4.5145   4.6015   4.6544   4.7508   4.9175   5.0922   5.3941   5.4748
     5.8017   5.9764   6.1108   6.1802

          k = 0.0284 0.0621 0.0000 ( 36580 PWs)   bands (ev):

   -66.9571 -66.9287 -66.7285 -66.6997 -66.5172 -66.4879 -33.3990 -33.3445
   -33.2854 -33.2426 -33.2278 -33.1796 -33.1249 -33.1003 -33.0943 -33.0378
   -32.9798 -32.9689 -32.9136 -32.7464 -32.5957 -32.5140 -32.4775 -32.4659
   -18.7092 -18.7076 -18.7058 -18.7049 -18.6630 -18.6544 -18.6452 -18.6397
   -18.6206 -18.6009 -18.5869 -18.5858 -18.5667 -18.5543 -18.4530 -18.4510
   -18.4493 -18.4482 -18.4286 -18.4199 -18.4161 -18.4096 -18.3986 -18.3789
   -18.3677 -18.3676 -18.3478 -18.3375 -18.2367 -18.2352 -18.2218 -18.2214
   -18.2205 -18.2184 -18.2160 -18.2124 -18.1868 -18.1786 -18.1601 -18.1504
   -18.1365 -18.1353  -6.6792  -6.2930  -6.2584  -6.2248  -6.1686  -5.9808
    -5.9187  -5.8811  -5.7888  -5.7576  -5.7482  -5.5256  -5.4166  -5.3870
    -5.3072  -5.2074  -5.1616  -5.1383  -5.1265  -5.0700  -4.9642  -4.9597
    -4.8084  -4.8027  -4.7603  -4.6543  -4.5969  -4.4801  -4.4584  -4.3060
    -4.0928  -4.0565  -2.9222  -2.6351  -2.0543  -1.5125  -1.0977  -0.9561
    -0.3035  -0.2083  -0.0755   0.3386   0.4544   0.4556   0.6141   0.9957
     1.0246   1.0901   1.3198   1.6927   1.7529   1.9616   2.1201   2.5505
     2.7617   2.8936   3.0042   3.3258   3.7886   3.8642   4.1196   4.3554
     4.4103   4.5538   4.6434   4.6882   4.8978   5.3423   5.5058   5.8164
     5.9918   6.0943   6.1708   6.3992

          k = 0.0284 0.0777 0.0000 ( 36559 PWs)   bands (ev):

   -66.9571 -66.9287 -66.7285 -66.6997 -66.5172 -66.4879 -33.3992 -33.3445
   -33.2858 -33.2428 -33.2279 -33.1797 -33.1249 -33.1005 -33.0947 -33.0378
   -32.9799 -32.9690 -32.9139 -32.7464 -32.5957 -32.5140 -32.4775 -32.4660
   -18.7092 -18.7076 -18.7058 -18.7049 -18.6630 -18.6544 -18.6452 -18.6397
   -18.6206 -18.6009 -18.5870 -18.5858 -18.5667 -18.5543 -18.4530 -18.4510
   -18.4493 -18.4481 -18.4286 -18.4199 -18.4162 -18.4096 -18.3986 -18.3789
   -18.3677 -18.3676 -18.3478 -18.3375 -18.2367 -18.2352 -18.2218 -18.2214
   -18.2205 -18.2185 -18.2160 -18.2124 -18.1868 -18.1786 -18.1601 -18.1504
   -18.1365 -18.1353  -6.6445  -6.2734  -6.2257  -6.1718  -6.1451  -5.9395
    -5.9049  -5.8739  -5.7585  -5.7257  -5.5661  -5.5093  -5.3988  -5.3541
    -5.2989  -5.2045  -5.1618  -5.1389  -5.0785  -5.0511  -4.9543  -4.9191
    -4.7993  -4.7851  -4.7364  -4.6499  -4.5937  -4.4775  -4.4550  -4.3116
    -4.1267  -4.0569  -3.0102  -2.7385  -2.3458  -1.5442  -1.1702  -0.8787
    -0.5652  -0.4947  -0.0594   0.2875   0.3084   0.3609   0.4812   0.8012
     0.9865   1.0010   1.2641   1.6396   1.7064   1.8894   1.9996   2.5261
     2.7921   3.0575   3.0898   3.2661   3.7815   3.9313   4.1189   4.2306
     4.3407   4.5653   4.5797   4.6986   4.9564   5.4477   5.4534   6.0288
     6.0464   6.2465   6.4459   6.6805

          k = 0.0284 0.0932 0.0000 ( 36559 PWs)   bands (ev):

   -66.9571 -66.9287 -66.7285 -66.6997 -66.5172 -66.4879 -33.3992 -33.3446
   -33.2859 -33.2429 -33.2279 -33.1798 -33.1249 -33.1005 -33.0948 -33.0378
   -32.9800 -32.9691 -32.9140 -32.7464 -32.5957 -32.5141 -32.4775 -32.4660
   -18.7092 -18.7076 -18.7058 -18.7049 -18.6630 -18.6544 -18.6453 -18.6397
   -18.6206 -18.6009 -18.5870 -18.5859 -18.5667 -18.5543 -18.4530 -18.4510
   -18.4493 -18.4482 -18.4286 -18.4199 -18.4162 -18.4096 -18.3986 -18.3789
   -18.3677 -18.3676 -18.3478 -18.3375 -18.2368 -18.2352 -18.2218 -18.2215
   -18.2205 -18.2185 -18.2160 -18.2124 -18.1868 -18.1786 -18.1601 -18.1504
   -18.1365 -18.1353  -6.6338  -6.2667  -6.2165  -6.1509  -6.1358  -5.9252
    -5.9004  -5.8715  -5.7488  -5.7129  -5.5039  -5.4639  -5.3907  -5.3415
    -5.3213  -5.2050  -5.1606  -5.1393  -5.0502  -5.0455  -4.9508  -4.8922
    -4.7939  -4.7780  -4.7035  -4.6483  -4.5892  -4.4802  -4.4536  -4.3302
    -4.2067  -4.0570  -2.9069  -2.7782  -2.5826  -1.5587  -1.0545  -0.8149
    -0.7797  -0.6472   0.0582   0.1225   0.2886   0.3432   0.4604   0.7061
     0.9636   0.9944   1.2442   1.5980   1.7180   1.8539   1.9559   2.5252
     2.8020   3.1145   3.1492   3.2155   3.7818   3.9825   4.1351   4.1728
     4.2708   4.5349   4.5960   4.6996   5.0219   5.3535   5.4648   6.0349
     6.1265   6.4327   6.5513   6.6782

          k = 0.0284-0.0777 0.0000 ( 36559 PWs)   bands (ev):

   -66.9571 -66.9287 -66.7285 -66.6997 -66.5172 -66.4879 -33.3992 -33.3445
   -33.2858 -33.2428 -33.2279 -33.1797 -33.1249 -33.1005 -33.0947 -33.0378
   -32.9799 -32.9690 -32.9139 -32.7464 -32.5957 -32.5140 -32.4775 -32.4660
   -18.7092 -18.7076 -18.7058 -18.7049 -18.6630 -18.6544 -18.6452 -18.6397
   -18.6206 -18.6009 -18.5870 -18.5858 -18.5667 -18.5543 -18.4530 -18.4510
   -18.4493 -18.4481 -18.4286 -18.4199 -18.4162 -18.4096 -18.3986 -18.3789
   -18.3677 -18.3676 -18.3478 -18.3375 -18.2367 -18.2352 -18.2218 -18.2214
   -18.2205 -18.2185 -18.2160 -18.2124 -18.1868 -18.1786 -18.1601 -18.1504
   -18.1365 -18.1353  -6.6445  -6.2734  -6.2257  -6.1718  -6.1451  -5.9395
    -5.9049  -5.8739  -5.7585  -5.7257  -5.5661  -5.5093  -5.3988  -5.3541
    -5.2989  -5.2045  -5.1618  -5.1389  -5.0785  -5.0511  -4.9543  -4.9191
    -4.7993  -4.7851  -4.7364  -4.6499  -4.5937  -4.4775  -4.4550  -4.3116
    -4.1267  -4.0569  -3.0102  -2.7385  -2.3458  -1.5442  -1.1702  -0.8787
    -0.5652  -0.4947  -0.0594   0.2875   0.3084   0.3609   0.4812   0.8012
     0.9865   1.0010   1.2641   1.6396   1.7064   1.8894   1.9996   2.5261
     2.7921   3.0575   3.0898   3.2661   3.7815   3.9313   4.1189   4.2306
     4.3407   4.5653   4.5797   4.6986   4.9564   5.4477   5.4534   6.0288
     6.0464   6.2465   6.4460   6.6808

          k = 0.0284-0.0621 0.0000 ( 36580 PWs)   bands (ev):

   -66.9571 -66.9287 -66.7285 -66.6997 -66.5172 -66.4879 -33.3990 -33.3445
   -33.2854 -33.2426 -33.2278 -33.1796 -33.1249 -33.1003 -33.0943 -33.0378
   -32.9798 -32.9689 -32.9136 -32.7464 -32.5957 -32.5140 -32.4775 -32.4659
   -18.7092 -18.7076 -18.7058 -18.7049 -18.6630 -18.6544 -18.6452 -18.6397
   -18.6206 -18.6009 -18.5869 -18.5858 -18.5667 -18.5543 -18.4530 -18.4510
   -18.4493 -18.4482 -18.4286 -18.4199 -18.4161 -18.4096 -18.3986 -18.3789
   -18.3677 -18.3676 -18.3478 -18.3375 -18.2367 -18.2352 -18.2218 -18.2214
   -18.2205 -18.2184 -18.2160 -18.2124 -18.1868 -18.1786 -18.1601 -18.1504
   -18.1365 -18.1353  -6.6792  -6.2930  -6.2584  -6.2248  -6.1686  -5.9808
    -5.9187  -5.8811  -5.7888  -5.7576  -5.7482  -5.5256  -5.4166  -5.3870
    -5.3072  -5.2074  -5.1616  -5.1383  -5.1265  -5.0700  -4.9642  -4.9597
    -4.8084  -4.8027  -4.7603  -4.6543  -4.5969  -4.4801  -4.4584  -4.3060
    -4.0928  -4.0565  -2.9222  -2.6351  -2.0543  -1.5125  -1.0977  -0.9561
    -0.3035  -0.2083  -0.0755   0.3386   0.4544   0.4556   0.6141   0.9957
     1.0246   1.0901   1.3198   1.6927   1.7529   1.9616   2.1201   2.5505
     2.7617   2.8936   3.0042   3.3258   3.7886   3.8642   4.1196   4.3554
     4.4103   4.5538   4.6434   4.6882   4.8978   5.3423   5.5058   5.8164
     5.9918   6.0943   6.1708   6.3992

          k = 0.0284-0.0466 0.0000 ( 36598 PWs)   bands (ev):

   -66.9572 -66.9287 -66.7285 -66.6997 -66.5172 -66.4879 -33.3988 -33.3445
   -33.2849 -33.2424 -33.2277 -33.1794 -33.1249 -33.1001 -33.0938 -33.0379
   -32.9797 -32.9687 -32.9133 -32.7464 -32.5957 -32.5139 -32.4775 -32.4659
   -18.7091 -18.7076 -18.7058 -18.7049 -18.6630 -18.6544 -18.6452 -18.6397
   -18.6206 -18.6009 -18.5869 -18.5857 -18.5667 -18.5542 -18.4529 -18.4510
   -18.4493 -18.4482 -18.4286 -18.4198 -18.4161 -18.4096 -18.3986 -18.3790
   -18.3677 -18.3676 -18.3479 -18.3375 -18.2366 -18.2351 -18.2217 -18.2214
   -18.2205 -18.2183 -18.2160 -18.2124 -18.1868 -18.1786 -18.1601 -18.1504
   -18.1365 -18.1353  -6.7427  -6.3261  -6.3183  -6.2848  -6.1963  -6.0426
    -5.9473  -5.8927  -5.8787  -5.8335  -5.7963  -5.5523  -5.4395  -5.4207
    -5.3592  -5.2143  -5.1665  -5.1443  -5.1384  -5.1034  -4.9928  -4.9772
    -4.8243  -4.8181  -4.7731  -4.6599  -4.5990  -4.4853  -4.4615  -4.3094
    -4.1751  -4.0560  -2.7039  -2.5084  -1.7944  -1.4821  -0.9712  -0.7369
    -0.2291   0.0330   0.1370   0.3690   0.5934   0.6656   0.8598   1.0726
     1.1430   1.3524   1.3968   1.7021   1.9045   2.0293   2.2721   2.5905
     2.7185   2.7233   2.9315   3.3542   3.8094   3.8538   4.1231   4.2232
     4.5145   4.6015   4.6544   4.7508   4.9175   5.0922   5.3941   5.4748
     5.8017   5.9764   6.1108   6.1807

          k = 0.0284-0.0311 0.0000 ( 36598 PWs)   bands (ev):

   -66.9572 -66.9287 -66.7285 -66.6997 -66.5172 -66.4879 -33.3986 -33.3445
   -33.2844 -33.2421 -33.2275 -33.1792 -33.1249 -33.0999 -33.0932 -33.0379
   -32.9795 -32.9685 -32.9129 -32.7464 -32.5957 -32.5139 -32.4775 -32.4659
   -18.7090 -18.7076 -18.7057 -18.7049 -18.6629 -18.6544 -18.6451 -18.6397
   -18.6206 -18.6009 -18.5868 -18.5857 -18.5668 -18.5542 -18.4529 -18.4510
   -18.4493 -18.4482 -18.4286 -18.4199 -18.4161 -18.4096 -18.3985 -18.3790
   -18.3677 -18.3675 -18.3479 -18.3375 -18.2366 -18.2351 -18.2216 -18.2214
   -18.2205 -18.2182 -18.2160 -18.2123 -18.1868 -18.1787 -18.1601 -18.1504
   -18.1365 -18.1353  -6.8266  -6.3806  -6.3744  -6.3243  -6.2241  -6.1032
    -5.9915  -5.9253  -5.9096  -5.8727  -5.8342  -5.5831  -5.4752  -5.4306
    -5.4204  -5.2205  -5.1810  -5.1432  -5.1413  -5.1390  -5.0204  -4.9895
    -4.8451  -4.8274  -4.7830  -4.6646  -4.6006  -4.4896  -4.4627  -4.3253
    -4.2473  -4.0556  -2.6039  -2.4013  -1.4543  -1.3853  -0.9579  -0.2997
    -0.1306   0.0692   0.3946   0.4065   0.6919   0.9214   1.1439   1.1655
     1.3370   1.4744   1.6294   1.7682   2.0308   2.0640   2.3770   2.4059
     2.7285   2.8761   2.8861   3.3170   3.8172   3.8533   3.9587   4.0934
     4.4709   4.5470   4.7386   4.8211   4.9208   5.0249   5.1295   5.3391
     5.4119   5.9584   6.0048   6.0662

          k = 0.0284-0.0155 0.0000 ( 36615 PWs)   bands (ev):

   -66.9572 -66.9287 -66.7285 -66.6997 -66.5172 -66.4879 -33.3985 -33.3445
   -33.2841 -33.2419 -33.2275 -33.1791 -33.1250 -33.0998 -33.0928 -33.0379
   -32.9794 -32.9684 -32.9127 -32.7463 -32.5957 -32.5139 -32.4775 -32.4658
   -18.7090 -18.7077 -18.7057 -18.7049 -18.6629 -18.6544 -18.6451 -18.6397
   -18.6206 -18.6009 -18.5868 -18.5857 -18.5668 -18.5542 -18.4528 -18.4511
   -18.4493 -18.4482 -18.4286 -18.4199 -18.4161 -18.4096 -18.3985 -18.3790
   -18.3676 -18.3675 -18.3479 -18.3375 -18.2365 -18.2351 -18.2216 -18.2214
   -18.2205 -18.2182 -18.2160 -18.2123 -18.1867 -18.1787 -18.1601 -18.1503
   -18.1365 -18.1353  -6.8986  -6.4195  -6.4145  -6.3459  -6.2487  -6.1393
    -6.0209  -5.9440  -5.9292  -5.8929  -5.8623  -5.6069  -5.5014  -5.4653
    -5.4328  -5.2246  -5.1918  -5.1746  -5.1400  -5.1383  -5.0393  -4.9981
    -4.8606  -4.8337  -4.7900  -4.6673  -4.6015  -4.4917  -4.4624  -4.3530
    -4.2722  -4.0553  -2.5884  -2.3367  -1.4302  -0.9468  -0.9056  -0.0783
     0.0022   0.0456   0.4323   0.5868   0.7375   1.0631   1.2364   1.4091
     1.5368   1.5566   1.8537   1.9327   2.0052   2.0793   2.3499   2.4172
     2.7717   2.8287   3.1116   3.1751   3.6041   3.7304   4.0450   4.0919
     4.2571   4.5221   4.6729   4.7383   4.9419   5.0568   5.1213   5.2217
     5.4041   5.7963   5.8494   5.9854

          k = 0.0284-0.0000 0.0000 ( 36619 PWs)   bands (ev):

   -66.9572 -66.9287 -66.7285 -66.6997 -66.5172 -66.4879 -33.3984 -33.3445
   -33.2839 -33.2419 -33.2274 -33.1790 -33.1250 -33.0997 -33.0927 -33.0379
   -32.9793 -32.9683 -32.9126 -32.7463 -32.5957 -32.5138 -32.4775 -32.4658
   -18.7090 -18.7077 -18.7057 -18.7049 -18.6629 -18.6544 -18.6451 -18.6397
   -18.6206 -18.6009 -18.5868 -18.5856 -18.5668 -18.5542 -18.4528 -18.4511
   -18.4493 -18.4482 -18.4286 -18.4199 -18.4161 -18.4096 -18.3985 -18.3790
   -18.3676 -18.3675 -18.3479 -18.3375 -18.2365 -18.2351 -18.2215 -18.2214
   -18.2205 -18.2182 -18.2160 -18.2123 -18.1867 -18.1787 -18.1600 -18.1503
   -18.1365 -18.1353  -6.9265  -6.4320  -6.4291  -6.3533  -6.2590  -6.1504
    -6.0304  -5.9502  -5.9379  -5.8984  -5.8726  -5.6157  -5.5106  -5.4816
    -5.4331  -5.2260  -5.1958  -5.1865  -5.1404  -5.1373  -5.0461  -5.0013
    -4.8664  -4.8359  -4.7926  -4.6682  -4.6018  -4.4922  -4.4621  -4.3655
    -4.2767  -4.0553  -2.5889  -2.3161  -1.4202  -0.9434  -0.5886  -0.2643
     0.0701   0.1685   0.4393   0.6407   0.7700   1.0859   1.3131   1.4485
     1.5584   1.6675   1.8901   1.9783   2.0036   2.2681   2.3665   2.4549
     2.5801   2.8766   3.0628   3.2564   3.5208   3.6227   4.0356   4.1300
     4.2829   4.5069   4.5767   4.6131   4.9366   5.1419   5.1658   5.2143
     5.3845   5.7160   5.8226   5.9546

          k = 0.0426 0.0233 0.0000 ( 36619 PWs)   bands (ev):

   -66.9546 -66.9313 -66.7259 -66.7024 -66.5145 -66.4906 -33.3936 -33.3495
   -33.2791 -33.2329 -33.1980 -33.1742 -33.1300 -33.0880 -33.0552 -33.0430
   -32.9635 -32.9349 -32.9180 -32.7934 -32.6435 -32.5257 -32.5090 -32.4703
   -18.7089 -18.7078 -18.7056 -18.7050 -18.6621 -18.6551 -18.6446 -18.6402
   -18.6188 -18.6028 -18.5850 -18.5832 -18.5687 -18.5575 -18.4526 -18.4512
   -18.4492 -18.4483 -18.4277 -18.4206 -18.4155 -18.4102 -18.3968 -18.3808
   -18.3658 -18.3653 -18.3498 -18.3406 -18.2350 -18.2337 -18.2225 -18.2219
   -18.2210 -18.2177 -18.2165 -18.2129 -18.1862 -18.1796 -18.1583 -18.1491
   -18.1391 -18.1368  -6.6484  -6.3206  -6.3062  -6.2572  -6.1030  -6.0680
    -5.9542  -5.9307  -5.8663  -5.8037  -5.7681  -5.5292  -5.4980  -5.4317
    -5.3638  -5.3091  -5.2694  -5.1614  -5.1368  -5.0779  -5.0109  -5.0084
    -4.8992  -4.8617  -4.7955  -4.6921  -4.6803  -4.5843  -4.5486  -4.3907
    -4.2163  -4.1921  -2.9837  -2.5170  -1.9848  -1.2215  -0.9787  -0.2380
     0.0992   0.2195   0.5581   0.5672   0.8681   1.1427   1.2871   1.3140
     1.5725   1.6073   1.6946   1.7084   1.9962   2.1035   2.3477   2.3607
     2.6073   2.8274   2.8718   3.1494   3.6303   3.6464   4.0172   4.1274
     4.2577   4.3882   4.5931   4.6700   4.8559   5.0451   5.0889   5.1093
     5.5550   5.7301   6.0283   6.0771

          k = 0.0426 0.0388 0.0000 ( 36613 PWs)   bands (ev):

   -66.9546 -66.9313 -66.7259 -66.7024 -66.5145 -66.4906 -33.3938 -33.3495
   -33.2795 -33.2329 -33.1981 -33.1744 -33.1299 -33.0884 -33.0553 -33.0429
   -32.9636 -32.9351 -32.9182 -32.7934 -32.6435 -32.5257 -32.5090 -32.4703
   -18.7089 -18.7077 -18.7057 -18.7049 -18.6621 -18.6551 -18.6447 -18.6402
   -18.6189 -18.6028 -18.5851 -18.5832 -18.5687 -18.5575 -18.4527 -18.4512
   -18.4492 -18.4483 -18.4277 -18.4206 -18.4155 -18.4102 -18.3968 -18.3808
   -18.3658 -18.3653 -18.3497 -18.3406 -18.2351 -18.2338 -18.2225 -18.2219
   -18.2211 -18.2177 -18.2165 -18.2129 -18.1862 -18.1796 -18.1583 -18.1491
   -18.1391 -18.1368  -6.5702  -6.2774  -6.2615  -6.2300  -6.0672  -6.0445
    -5.9225  -5.9043  -5.8391  -5.7675  -5.7524  -5.5044  -5.4731  -5.4014
    -5.3601  -5.3074  -5.2511  -5.1387  -5.1308  -5.0760  -4.9996  -4.9895
    -4.8934  -4.8473  -4.7885  -4.6897  -4.6783  -4.5837  -4.5485  -4.3898
    -4.2197  -4.1127  -3.1010  -2.5499  -2.0055  -1.4381  -1.2278  -0.3062
    -0.2795   0.2791   0.2874   0.5537   0.7582   0.9063   1.0814   1.2757
     1.3293   1.5103   1.5733   1.7193   1.9838   2.1140   2.3677   2.4778
     2.6212   2.6692   2.9003   3.2952   3.6977   3.9085   4.0603   4.1388
     4.3946   4.4504   4.5916   4.7429   4.7839   4.9910   5.0734   5.3118
     5.4552   5.7364   6.0699   6.2721

          k = 0.0426 0.0544 0.0000 ( 36607 PWs)   bands (ev):

   -66.9545 -66.9313 -66.7259 -66.7024 -66.5145 -66.4906 -33.3940 -33.3495
   -33.2799 -33.2330 -33.1984 -33.1745 -33.1299 -33.0889 -33.0555 -33.0429
   -32.9638 -32.9352 -32.9185 -32.7934 -32.6435 -32.5257 -32.5091 -32.4703
   -18.7090 -18.7078 -18.7057 -18.7049 -18.6621 -18.6551 -18.6447 -18.6402
   -18.6189 -18.6028 -18.5851 -18.5832 -18.5686 -18.5575 -18.4528 -18.4512
   -18.4492 -18.4482 -18.4277 -18.4206 -18.4155 -18.4102 -18.3968 -18.3808
   -18.3658 -18.3653 -18.3497 -18.3406 -18.2351 -18.2338 -18.2225 -18.2219
   -18.2212 -18.2178 -18.2165 -18.2129 -18.1862 -18.1796 -18.1583 -18.1491
   -18.1391 -18.1368  -6.5034  -6.2360  -6.1973  -6.1825  -6.0535  -5.9893
    -5.9135  -5.8112  -5.8093  -5.7303  -5.7226  -5.4787  -5.4437  -5.3743
    -5.3492  -5.3060  -5.2238  -5.1350  -5.1020  -5.0735  -4.9890  -4.9644
    -4.8861  -4.8313  -4.7764  -4.6861  -4.6748  -4.5829  -4.5474  -4.3899
    -4.2244  -4.0156  -3.2424  -2.6758  -2.0479  -1.7791  -1.2113  -0.7106
    -0.3578   0.0841   0.1592   0.5302   0.6450   0.6606   0.8546   1.1524
     1.2586   1.3001   1.5235   1.7556   1.9645   2.0700   2.3547   2.4858
     2.6647   2.7196   2.9180   3.3150   3.7061   4.0049   4.0889   4.2586
     4.3474   4.4861   4.5263   4.5865   4.9112   4.9548   5.3214   5.5461
     5.7479   5.7671   6.0585   6.3678

          k = 0.0426 0.0699 0.0000 ( 36597 PWs)   bands (ev):

   -66.9545 -66.9313 -66.7259 -66.7024 -66.5145 -66.4906 -33.3941 -33.3495
   -33.2803 -33.2331 -33.1986 -33.1747 -33.1299 -33.0894 -33.0557 -33.0428
   -32.9639 -32.9353 -32.9188 -32.7934 -32.6435 -32.5257 -32.5091 -32.4704
   -18.7090 -18.7078 -18.7057 -18.7050 -18.6622 -18.6551 -18.6447 -18.6402
   -18.6189 -18.6028 -18.5851 -18.5833 -18.5686 -18.5575 -18.4528 -18.4512
   -18.4492 -18.4483 -18.4277 -18.4206 -18.4156 -18.4102 -18.3969 -18.3808
   -18.3658 -18.3653 -18.3497 -18.3406 -18.2352 -18.2338 -18.2225 -18.2219
   -18.2212 -18.2179 -18.2165 -18.2129 -18.1862 -18.1796 -18.1583 -18.1491
   -18.1391 -18.1368  -6.4647  -6.2097  -6.1424  -6.1236  -6.0447  -5.9416
    -5.9061  -5.7868  -5.7396  -5.6799  -5.6384  -5.4603  -5.4182  -5.3651
    -5.3313  -5.3108  -5.2010  -5.1054  -5.0865  -5.0690  -4.9795  -4.9480
    -4.8728  -4.8174  -4.7533  -4.6819  -4.6660  -4.5834  -4.5459  -4.3918
    -4.2293  -3.9809  -3.3693  -2.8070  -2.1027  -2.0499  -1.1629  -0.9187
    -0.5143  -0.1610   0.0783   0.4906   0.5564   0.5641   0.6565   1.0039
     1.1307   1.2556   1.4771   1.7736   1.9696   1.9902   2.3003   2.4248
     2.7323   2.8695   2.9657   3.2668   3.7045   4.0221   4.0399   4.1745
     4.3730   4.4363   4.4923   4.5246   4.9737   5.1527   5.5402   5.6072
     5.8240   5.8734   6.1333   6.3169

          k = 0.0426 0.0855 0.0000 ( 36540 PWs)   bands (ev):

   -66.9545 -66.9313 -66.7259 -66.7024 -66.5145 -66.4906 -33.3942 -33.3495
   -33.2805 -33.2331 -33.1987 -33.1748 -33.1299 -33.0896 -33.0558 -33.0427
   -32.9639 -32.9354 -32.9189 -32.7933 -32.6435 -32.5257 -32.5091 -32.4704
   -18.7090 -18.7077 -18.7057 -18.7050 -18.6622 -18.6551 -18.6447 -18.6402
   -18.6188 -18.6028 -18.5851 -18.5833 -18.5685 -18.5575 -18.4528 -18.4511
   -18.4492 -18.4482 -18.4277 -18.4206 -18.4155 -18.4102 -18.3968 -18.3808
   -18.3658 -18.3653 -18.3497 -18.3406 -18.2352 -18.2338 -18.2225 -18.2219
   -18.2212 -18.2179 -18.2164 -18.2129 -18.1863 -18.1796 -18.1583 -18.1491
   -18.1391 -18.1368  -6.4482  -6.1963  -6.1144  -6.0829  -6.0400  -5.9153
    -5.9019  -5.7765  -5.7275  -5.6536  -5.5039  -5.4509  -5.4034  -5.3841
    -5.3223  -5.3169  -5.1956  -5.0832  -5.0647  -5.0564  -4.9741  -4.9478
    -4.8576  -4.8092  -4.7215  -4.6789  -4.6355  -4.5900  -4.5450  -4.3973
    -4.2326  -4.0618  -3.4442  -2.7365  -2.3539  -2.1418  -1.1087  -0.8512
    -0.6464  -0.5030   0.1927   0.4336   0.4557   0.5346   0.5752   0.8770
     1.0675   1.2582   1.4485   1.7766   1.9357   1.9780   2.2541   2.4002
     2.7696   2.9567   3.0399   3.1950   3.7050   3.9870   4.0532   4.0842
     4.3420   4.4047   4.4432   4.5496   5.0975   5.2783   5.5407   5.5926
     5.8170   5.8858   6.1110   6.4451

          k = 0.0426 0.1010 0.0000 ( 36540 PWs)   bands (ev):

   -66.9545 -66.9313 -66.7259 -66.7024 -66.5145 -66.4906 -33.3942 -33.3495
   -33.2805 -33.2331 -33.1987 -33.1748 -33.1299 -33.0896 -33.0558 -33.0427
   -32.9639 -32.9354 -32.9189 -32.7933 -32.6435 -32.5257 -32.5091 -32.4704
   -18.7090 -18.7077 -18.7057 -18.7050 -18.6622 -18.6551 -18.6447 -18.6402
   -18.6188 -18.6028 -18.5851 -18.5833 -18.5685 -18.5575 -18.4528 -18.4511
   -18.4492 -18.4482 -18.4277 -18.4206 -18.4155 -18.4102 -18.3968 -18.3808
   -18.3658 -18.3653 -18.3497 -18.3406 -18.2352 -18.2338 -18.2225 -18.2219
   -18.2212 -18.2179 -18.2164 -18.2129 -18.1863 -18.1796 -18.1583 -18.1491
   -18.1391 -18.1368  -6.4482  -6.1963  -6.1144  -6.0829  -6.0400  -5.9153
    -5.9019  -5.7765  -5.7275  -5.6536  -5.5039  -5.4509  -5.4034  -5.3842
    -5.3223  -5.3169  -5.1956  -5.0832  -5.0647  -5.0564  -4.9741  -4.9478
    -4.8576  -4.8092  -4.7215  -4.6789  -4.6355  -4.5900  -4.5450  -4.3973
    -4.2326  -4.0618  -3.4442  -2.7365  -2.3539  -2.1418  -1.1087  -0.8512
    -0.6464  -0.5030   0.1927   0.4336   0.4557   0.5346   0.5752   0.8770
     1.0675   1.2582   1.4485   1.7766   1.9357   1.9780   2.2541   2.4002
     2.7696   2.9567   3.0399   3.1950   3.7050   3.9870   4.0532   4.0842
     4.3420   4.4047   4.4432   4.5496   5.0975   5.2783   5.5407   5.5926
     5.8170   5.8858   6.1110   6.4451

          k = 0.0426-0.0699 0.0000 ( 36597 PWs)   bands (ev):

   -66.9545 -66.9313 -66.7259 -66.7024 -66.5145 -66.4906 -33.3941 -33.3495
   -33.2803 -33.2331 -33.1986 -33.1747 -33.1299 -33.0894 -33.0557 -33.0428
   -32.9639 -32.9353 -32.9188 -32.7934 -32.6435 -32.5257 -32.5091 -32.4704
   -18.7090 -18.7078 -18.7057 -18.7050 -18.6622 -18.6551 -18.6447 -18.6402
   -18.6189 -18.6028 -18.5851 -18.5833 -18.5686 -18.5575 -18.4528 -18.4512
   -18.4492 -18.4483 -18.4277 -18.4206 -18.4156 -18.4102 -18.3969 -18.3808
   -18.3658 -18.3653 -18.3497 -18.3406 -18.2352 -18.2338 -18.2225 -18.2219
   -18.2212 -18.2179 -18.2165 -18.2129 -18.1862 -18.1796 -18.1583 -18.1491
   -18.1391 -18.1368  -6.4647  -6.2097  -6.1424  -6.1236  -6.0447  -5.9416
    -5.9061  -5.7868  -5.7396  -5.6799  -5.6384  -5.4603  -5.4182  -5.3651
    -5.3313  -5.3108  -5.2010  -5.1054  -5.0865  -5.0690  -4.9795  -4.9480
    -4.8728  -4.8174  -4.7533  -4.6819  -4.6660  -4.5834  -4.5459  -4.3918
    -4.2293  -3.9809  -3.3693  -2.8070  -2.1027  -2.0499  -1.1629  -0.9187
    -0.5143  -0.1610   0.0783   0.4906   0.5564   0.5641   0.6565   1.0039
     1.1307   1.2556   1.4771   1.7736   1.9696   1.9902   2.3003   2.4248
     2.7323   2.8695   2.9657   3.2668   3.7045   4.0221   4.0399   4.1745
     4.3730   4.4363   4.4923   4.5246   4.9737   5.1527   5.5402   5.6072
     5.8240   5.8734   6.1333   6.3168

          k = 0.0426-0.0544 0.0000 ( 36607 PWs)   bands (ev):

   -66.9545 -66.9313 -66.7259 -66.7024 -66.5145 -66.4906 -33.3940 -33.3495
   -33.2799 -33.2330 -33.1984 -33.1745 -33.1299 -33.0889 -33.0555 -33.0429
   -32.9638 -32.9352 -32.9185 -32.7934 -32.6435 -32.5257 -32.5091 -32.4703
   -18.7090 -18.7078 -18.7057 -18.7049 -18.6621 -18.6551 -18.6447 -18.6402
   -18.6189 -18.6028 -18.5851 -18.5832 -18.5686 -18.5575 -18.4528 -18.4512
   -18.4492 -18.4482 -18.4277 -18.4206 -18.4155 -18.4102 -18.3968 -18.3808
   -18.3658 -18.3653 -18.3497 -18.3406 -18.2351 -18.2338 -18.2225 -18.2219
   -18.2212 -18.2178 -18.2165 -18.2129 -18.1862 -18.1796 -18.1583 -18.1491
   -18.1391 -18.1368  -6.5034  -6.2360  -6.1973  -6.1825  -6.0535  -5.9893
    -5.9135  -5.8112  -5.8093  -5.7303  -5.7226  -5.4787  -5.4437  -5.3743
    -5.3492  -5.3060  -5.2238  -5.1350  -5.1020  -5.0735  -4.9890  -4.9644
    -4.8861  -4.8313  -4.7764  -4.6861  -4.6748  -4.5829  -4.5474  -4.3899
    -4.2244  -4.0156  -3.2424  -2.6758  -2.0479  -1.7791  -1.2113  -0.7106
    -0.3578   0.0841   0.1592   0.5302   0.6450   0.6606   0.8546   1.1524
     1.2586   1.3001   1.5235   1.7556   1.9645   2.0700   2.3547   2.4858
     2.6647   2.7196   2.9180   3.3150   3.7061   4.0049   4.0889   4.2586
     4.3474   4.4861   4.5263   4.5865   4.9112   4.9548   5.3214   5.5461
     5.7479   5.7671   6.0585   6.3680

          k = 0.0426-0.0388 0.0000 ( 36613 PWs)   bands (ev):

   -66.9546 -66.9313 -66.7259 -66.7024 -66.5145 -66.4906 -33.3938 -33.3495
   -33.2795 -33.2329 -33.1981 -33.1744 -33.1299 -33.0884 -33.0553 -33.0429
   -32.9636 -32.9351 -32.9182 -32.7934 -32.6435 -32.5257 -32.5090 -32.4703
   -18.7089 -18.7077 -18.7057 -18.7049 -18.6621 -18.6551 -18.6447 -18.6402
   -18.6189 -18.6028 -18.5851 -18.5832 -18.5687 -18.5575 -18.4527 -18.4512
   -18.4492 -18.4483 -18.4277 -18.4206 -18.4155 -18.4102 -18.3968 -18.3808
   -18.3658 -18.3653 -18.3497 -18.3406 -18.2351 -18.2338 -18.2225 -18.2219
   -18.2211 -18.2177 -18.2165 -18.2129 -18.1862 -18.1796 -18.1583 -18.1491
   -18.1391 -18.1368  -6.5702  -6.2774  -6.2615  -6.2300  -6.0672  -6.0445
    -5.9225  -5.9043  -5.8391  -5.7675  -5.7524  -5.5044  -5.4731  -5.4014
    -5.3601  -5.3074  -5.2511  -5.1387  -5.1308  -5.0760  -4.9996  -4.9895
    -4.8934  -4.8473  -4.7885  -4.6897  -4.6783  -4.5837  -4.5485  -4.3898
    -4.2197  -4.1127  -3.1010  -2.5499  -2.0055  -1.4381  -1.2278  -0.3062
    -0.2795   0.2791   0.2874   0.5537   0.7582   0.9063   1.0814   1.2757
     1.3293   1.5103   1.5733   1.7193   1.9838   2.1140   2.3677   2.4778
     2.6212   2.6692   2.9003   3.2952   3.6977   3.9085   4.0603   4.1388
     4.3946   4.4504   4.5916   4.7429   4.7839   4.9910   5.0734   5.3118
     5.4552   5.7364   6.0699   6.2718

          k = 0.0426-0.0233 0.0000 ( 36619 PWs)   bands (ev):

   -66.9546 -66.9313 -66.7259 -66.7024 -66.5145 -66.4906 -33.3936 -33.3495
   -33.2791 -33.2329 -33.1980 -33.1742 -33.1300 -33.0880 -33.0552 -33.0430
   -32.9635 -32.9349 -32.9180 -32.7934 -32.6435 -32.5257 -32.5090 -32.4703
   -18.7089 -18.7078 -18.7056 -18.7050 -18.6621 -18.6551 -18.6446 -18.6402
   -18.6188 -18.6028 -18.5850 -18.5832 -18.5687 -18.5575 -18.4526 -18.4512
   -18.4492 -18.4483 -18.4277 -18.4206 -18.4155 -18.4102 -18.3968 -18.3808
   -18.3658 -18.3653 -18.3498 -18.3406 -18.2350 -18.2337 -18.2225 -18.2219
   -18.2210 -18.2177 -18.2165 -18.2129 -18.1862 -18.1796 -18.1583 -18.1491
   -18.1391 -18.1368  -6.6484  -6.3206  -6.3062  -6.2572  -6.1030  -6.0680
    -5.9542  -5.9307  -5.8663  -5.8037  -5.7681  -5.5292  -5.4980  -5.4317
    -5.3638  -5.3091  -5.2694  -5.1614  -5.1368  -5.0779  -5.0109  -5.0084
    -4.8992  -4.8617  -4.7955  -4.6921  -4.6803  -4.5843  -4.5486  -4.3907
    -4.2163  -4.1921  -2.9837  -2.5170  -1.9848  -1.2215  -0.9787  -0.2380
     0.0992   0.2195   0.5581   0.5672   0.8681   1.1427   1.2871   1.3140
     1.5725   1.6073   1.6946   1.7084   1.9962   2.1035   2.3477   2.3607
     2.6073   2.8274   2.8718   3.1494   3.6303   3.6464   4.0172   4.1274
[...]
    -5.2839  -5.2466  -5.1815  -5.1474  -5.1204  -5.0767  -5.0728  -4.9546
    -4.9436  -4.8871  -4.8661  -4.8632  -4.8085  -4.7353  -4.7320  -4.6826
    -4.5891  -4.1993  -3.7466  -2.9991  -2.2754  -1.8406  -0.9825  -0.7132
     0.1267   0.2430   0.6657   0.8182   0.9401   1.1199   1.2639   1.4505
     1.4955   1.6032   1.7643   1.9574   1.9726   2.1464   2.3026   2.3472
     2.3651   2.6700   2.7277   3.2304   3.3767   3.4353   3.7429   4.0161
     4.0830   4.2050   4.5466   4.5569   4.7568   4.8742   4.8875   5.1067
     5.3740   5.7415   5.8154   6.1298

          k = 0.0710-0.0233 0.0000 ( 36618 PWs)   bands (ev):

   -66.9472 -66.9387 -66.7185 -66.7098 -66.5070 -66.4982 -33.3797 -33.3637
   -33.2645 -33.2480 -33.1602 -33.1442 -33.0738 -33.0722 -33.0579 -32.9494
   -32.9326 -32.9270 -32.9243 -32.8077 -32.7767 -32.6580 -32.4970 -32.4827
   -18.7085 -18.7082 -18.7054 -18.7052 -18.6598 -18.6573 -18.6432 -18.6416
   -18.6138 -18.6080 -18.5799 -18.5756 -18.5740 -18.5662 -18.4521 -18.4517
   -18.4489 -18.4486 -18.4253 -18.4227 -18.4138 -18.4119 -18.3918 -18.3860
   -18.3608 -18.3581 -18.3549 -18.3491 -18.2307 -18.2299 -18.2259 -18.2258
   -18.2194 -18.2179 -18.2162 -18.2145 -18.1844 -18.1821 -18.1529 -18.1459
   -18.1454 -18.1409  -6.1533  -6.1151  -6.0350  -6.0239  -5.9713  -5.9594
    -5.8637  -5.8228  -5.6807  -5.5976  -5.5661  -5.5615  -5.4979  -5.3377
    -5.2771  -5.2493  -5.1898  -5.1608  -5.1278  -5.0846  -5.0798  -4.9561
    -4.9347  -4.8930  -4.8725  -4.8653  -4.8164  -4.7480  -4.7290  -4.6732
    -4.5910  -4.0594  -3.8400  -2.9760  -2.2660  -1.8288  -0.8612  -0.6021
     0.3329   0.4340   0.6752   0.9162   0.9753   1.1202   1.3260   1.3919
     1.5002   1.6291   1.7869   1.8976   1.9297   2.2000   2.3309   2.3583
     2.4619   2.6363   2.7676   3.1001   3.2979   3.3721   3.5122   3.8399
     4.0675   4.2913   4.3838   4.6025   4.6502   4.8029   4.9148   5.3209
     5.5658   5.7750   5.8925   6.3779

          k = 0.0710-0.0078 0.0000 ( 36640 PWs)   bands (ev):

   -66.9472 -66.9387 -66.7185 -66.7098 -66.5070 -66.4982 -33.3796 -33.3637
   -33.2644 -33.2480 -33.1601 -33.1443 -33.0736 -33.0721 -33.0580 -32.9494
   -32.9326 -32.9269 -32.9244 -32.8077 -32.7767 -32.6581 -32.4970 -32.4827
   -18.7085 -18.7082 -18.7054 -18.7052 -18.6598 -18.6573 -18.6432 -18.6416
   -18.6138 -18.6080 -18.5799 -18.5756 -18.5740 -18.5662 -18.4521 -18.4517
   -18.4489 -18.4486 -18.4253 -18.4227 -18.4138 -18.4119 -18.3918 -18.3861
   -18.3608 -18.3581 -18.3550 -18.3491 -18.2307 -18.2299 -18.2259 -18.2258
   -18.2194 -18.2179 -18.2161 -18.2145 -18.1844 -18.1821 -18.1529 -18.1459
   -18.1454 -18.1409  -6.1690  -6.1222  -6.0430  -6.0380  -5.9786  -5.9619
    -5.8745  -5.8322  -5.6803  -5.6031  -5.5829  -5.5754  -5.5050  -5.3428
    -5.2676  -5.2497  -5.1959  -5.1673  -5.1412  -5.0869  -5.0835  -4.9520
    -4.9295  -4.8984  -4.8798  -4.8651  -4.8222  -4.7523  -4.7284  -4.6680
    -4.5910  -3.9662  -3.8946  -2.9885  -2.2732  -1.7990  -0.9604  -0.2452
     0.2567   0.6820   0.7938   0.9058   1.0488   1.1286   1.2380   1.2831
     1.4061   1.7260   1.7918   1.8592   2.0162   2.2937   2.3198   2.4430
     2.4705   2.6569   2.8045   2.9848   3.2267   3.2669   3.3489   3.6592
     4.0671   4.2185   4.3190   4.5897   4.6566   4.8047   4.9347   5.5511
     5.7763   5.8637   5.9977   6.1718

          k = 0.0710 0.0078 0.0000 ( 36640 PWs)   bands (ev):

   -66.9472 -66.9387 -66.7185 -66.7098 -66.5070 -66.4982 -33.3796 -33.3637
   -33.2644 -33.2480 -33.1601 -33.1443 -33.0736 -33.0721 -33.0580 -32.9494
   -32.9326 -32.9269 -32.9244 -32.8077 -32.7767 -32.6581 -32.4970 -32.4827
   -18.7085 -18.7082 -18.7054 -18.7052 -18.6598 -18.6573 -18.6432 -18.6416
   -18.6138 -18.6080 -18.5799 -18.5756 -18.5740 -18.5662 -18.4521 -18.4517
   -18.4489 -18.4486 -18.4253 -18.4227 -18.4138 -18.4119 -18.3918 -18.3861
   -18.3608 -18.3581 -18.3550 -18.3491 -18.2307 -18.2299 -18.2259 -18.2258
   -18.2194 -18.2179 -18.2161 -18.2145 -18.1844 -18.1821 -18.1529 -18.1459
   -18.1454 -18.1409  -6.1690  -6.1222  -6.0430  -6.0380  -5.9786  -5.9619
    -5.8745  -5.8322  -5.6803  -5.6031  -5.5829  -5.5754  -5.5050  -5.3428
    -5.2676  -5.2497  -5.1959  -5.1673  -5.1412  -5.0869  -5.0835  -4.9520
    -4.9295  -4.8984  -4.8798  -4.8651  -4.8222  -4.7523  -4.7284  -4.6680
    -4.5910  -3.9662  -3.8946  -2.9885  -2.2732  -1.7990  -0.9604  -0.2452
     0.2567   0.6820   0.7938   0.9058   1.0488   1.1286   1.2380   1.2831
     1.4061   1.7260   1.7918   1.8592   2.0162   2.2937   2.3198   2.4430
     2.4705   2.6569   2.8045   2.9848   3.2267   3.2669   3.3489   3.6592
     4.0671   4.2185   4.3190   4.5897   4.6566   4.8047   4.9347   5.5511
     5.7763   5.8637   5.9977   6.1719

          k = 0.0710 0.0233 0.0000 ( 36618 PWs)   bands (ev):

   -66.9472 -66.9387 -66.7185 -66.7098 -66.5070 -66.4982 -33.3797 -33.3637
   -33.2645 -33.2480 -33.1602 -33.1442 -33.0738 -33.0722 -33.0579 -32.9494
   -32.9326 -32.9270 -32.9243 -32.8077 -32.7767 -32.6580 -32.4970 -32.4827
   -18.7085 -18.7082 -18.7054 -18.7052 -18.6598 -18.6573 -18.6432 -18.6416
   -18.6138 -18.6080 -18.5799 -18.5756 -18.5740 -18.5662 -18.4521 -18.4517
   -18.4489 -18.4486 -18.4253 -18.4227 -18.4138 -18.4119 -18.3918 -18.3860
   -18.3608 -18.3581 -18.3549 -18.3491 -18.2307 -18.2299 -18.2259 -18.2258
   -18.2194 -18.2179 -18.2162 -18.2145 -18.1844 -18.1821 -18.1529 -18.1459
   -18.1454 -18.1409  -6.1533  -6.1151  -6.0350  -6.0239  -5.9713  -5.9594
    -5.8637  -5.8228  -5.6807  -5.5976  -5.5661  -5.5615  -5.4979  -5.3377
    -5.2771  -5.2493  -5.1898  -5.1608  -5.1278  -5.0846  -5.0798  -4.9561
    -4.9347  -4.8930  -4.8725  -4.8653  -4.8164  -4.7480  -4.7290  -4.6732
    -4.5910  -4.0594  -3.8400  -2.9760  -2.2660  -1.8288  -0.8612  -0.6021
     0.3329   0.4340   0.6752   0.9162   0.9753   1.1202   1.3260   1.3919
     1.5002   1.6291   1.7869   1.8976   1.9297   2.2000   2.3309   2.3583
     2.4619   2.6363   2.7676   3.1001   3.2979   3.3722   3.5122   3.8399
     4.0675   4.2913   4.3838   4.6025   4.6502   4.8029   4.9148   5.3209
     5.5658   5.7750   5.8926   6.3779

          k =-0.0851-0.0466 0.0000 ( 36588 PWs)   bands (ev):

   -66.9430 -66.9429 -66.7142 -66.7141 -66.5026 -66.5026 -33.3717 -33.3717
   -33.2564 -33.2564 -33.1522 -33.1522 -33.0659 -33.0659 -32.9987 -32.9987
   -32.9411 -32.9411 -32.8523 -32.8523 -32.7333 -32.7333 -32.4899 -32.4898
   -18.7083 -18.7083 -18.7053 -18.7053 -18.6586 -18.6585 -18.6424 -18.6424
   -18.6109 -18.6109 -18.5769 -18.5769 -18.5711 -18.5710 -18.4519 -18.4519
   -18.4487 -18.4487 -18.4240 -18.4240 -18.4128 -18.4128 -18.3889 -18.3889
   -18.3579 -18.3579 -18.3537 -18.3537 -18.2284 -18.2283 -18.2278 -18.2278
   -18.2187 -18.2186 -18.2154 -18.2153 -18.1833 -18.1833 -18.1495 -18.1494
   -18.1432 -18.1431  -6.0840  -6.0840  -5.9634  -5.9634  -5.8585  -5.8585
    -5.8172  -5.8172  -5.6811  -5.6811  -5.4538  -5.4538  -5.3451  -5.3451
    -5.2489  -5.2489  -5.1225  -5.1225  -5.0867  -5.0867  -5.0322  -5.0322
    -4.9843  -4.9843  -4.8738  -4.8737  -4.7910  -4.7910  -4.7633  -4.7633
    -4.5581  -4.5581  -3.4104  -3.4103  -2.0884  -2.0884  -0.8818  -0.8818
     0.1532   0.1532   0.7651   0.7652   1.0091   1.0091   1.3667   1.3667
     1.5892   1.5893   1.9233   1.9233   2.1203   2.1203   2.2872   2.2873
     2.4706   2.4706   2.9483   2.9484   3.2914   3.2914   3.8683   3.8683
     4.1307   4.1307   4.5725   4.5726   4.7827   4.7827   4.9599   4.9599
     5.5872   5.5872   5.8769   5.8769

          k =-0.0851-0.0311 0.0000 ( 36650 PWs)   bands (ev):

   -66.9430 -66.9429 -66.7142 -66.7141 -66.5026 -66.5026 -33.3718 -33.3717
   -33.2566 -33.2562 -33.1524 -33.1522 -33.0662 -33.0657 -32.9988 -32.9986
   -32.9412 -32.9410 -32.8524 -32.8522 -32.7334 -32.7332 -32.4899 -32.4898
   -18.7084 -18.7083 -18.7053 -18.7053 -18.6586 -18.6585 -18.6425 -18.6424
   -18.6109 -18.6109 -18.5770 -18.5769 -18.5711 -18.5711 -18.4519 -18.4519
   -18.4487 -18.4487 -18.4240 -18.4240 -18.4129 -18.4128 -18.3890 -18.3890
   -18.3579 -18.3579 -18.3537 -18.3537 -18.2284 -18.2283 -18.2279 -18.2278
   -18.2187 -18.2186 -18.2154 -18.2153 -18.1834 -18.1833 -18.1495 -18.1495
   -18.1432 -18.1431  -6.0885  -6.0771  -5.9617  -5.9557  -5.8699  -5.8447
    -5.8324  -5.8008  -5.6858  -5.6783  -5.4812  -5.4549  -5.3530  -5.3277
    -5.2516  -5.2399  -5.1301  -5.1293  -5.0883  -5.0830  -5.0346  -5.0239
    -4.9883  -4.9798  -4.8903  -4.8624  -4.8226  -4.7733  -4.7624  -4.7604
    -4.6126  -4.4575  -3.5050  -3.3516  -2.1051  -2.0736  -1.1166  -0.6117
     0.1251   0.2480   0.7533   0.8271   0.9173   1.0194   1.2992   1.3539
     1.5404   1.6722   1.8356   1.9399   2.1514   2.1590   2.3289   2.3317
     2.4808   2.5446   2.9338   2.9347   3.2392   3.2422   3.6840   3.8995
     4.0135   4.2789   4.4365   4.5659   4.6555   4.7773   4.8674   5.3870
     5.5501   5.6089   5.8592   6.0903

          k =-0.0851-0.0155 0.0000 ( 36631 PWs)   bands (ev):

   -66.9430 -66.9429 -66.7142 -66.7141 -66.5026 -66.5026 -33.3719 -33.3716
   -33.2567 -33.2561 -33.1524 -33.1521 -33.0664 -33.0654 -32.9989 -32.9985
   -32.9412 -32.9410 -32.8525 -32.8521 -32.7335 -32.7332 -32.4899 -32.4898
   -18.7084 -18.7083 -18.7053 -18.7053 -18.6586 -18.6585 -18.6425 -18.6424
   -18.6109 -18.6109 -18.5770 -18.5769 -18.5711 -18.5710 -18.4519 -18.4518
   -18.4487 -18.4487 -18.4240 -18.4240 -18.4129 -18.4128 -18.3890 -18.3889
   -18.3579 -18.3578 -18.3537 -18.3537 -18.2284 -18.2283 -18.2279 -18.2278
   -18.2187 -18.2185 -18.2154 -18.2153 -18.1834 -18.1833 -18.1495 -18.1495
   -18.1432 -18.1431  -6.0906  -6.0704  -5.9520  -5.9437  -5.8788  -5.8472
    -5.8373  -5.7700  -5.6968  -5.6766  -5.5390  -5.4578  -5.3366  -5.3223
    -5.2494  -5.2292  -5.1509  -5.1396  -5.0906  -5.0780  -5.0340  -5.0137
    -4.9858  -4.9776  -4.9057  -4.8568  -4.8519  -4.7701  -4.7611  -4.7545
    -4.6330  -4.3440  -3.5836  -3.3592  -2.0788  -2.0752  -1.3159  -0.3410
     0.2236   0.3021   0.6685   0.8210   0.9646   0.9746   1.2387   1.2959
     1.5601   1.5709   1.7940   2.0135   2.1279   2.2671   2.3721   2.4542
     2.6263   2.6295   2.8630   2.8992   3.0962   3.1651   3.5317   3.6584
     4.0754   4.1950   4.3414   4.5114   4.6363   4.8429   4.8982   5.5588
     5.5872   5.8366   5.9191   6.2642

          k =-0.0851 0.0000 0.0000 ( 36659 PWs)   bands (ev):

   -66.9430 -66.9429 -66.7142 -66.7141 -66.5026 -66.5026 -33.3719 -33.3716
   -33.2568 -33.2560 -33.1525 -33.1520 -33.0665 -33.0654 -32.9990 -32.9985
   -32.9413 -32.9409 -32.8525 -32.8521 -32.7335 -32.7332 -32.4899 -32.4898
   -18.7084 -18.7082 -18.7054 -18.7053 -18.6586 -18.6585 -18.6425 -18.6424
   -18.6109 -18.6109 -18.5771 -18.5769 -18.5711 -18.5710 -18.4520 -18.4518
   -18.4487 -18.4487 -18.4241 -18.4240 -18.4129 -18.4128 -18.3890 -18.3889
   -18.3579 -18.3579 -18.3537 -18.3537 -18.2284 -18.2283 -18.2279 -18.2278
   -18.2188 -18.2185 -18.2155 -18.2153 -18.1834 -18.1833 -18.1495 -18.1495
   -18.1432 -18.1432  -6.0911  -6.0677  -5.9451  -5.9378  -5.8841  -5.8533
    -5.8365  -5.7311  -5.7219  -5.6760  -5.5703  -5.4583  -5.3255  -5.3222
    -5.2462  -5.2245  -5.1648  -5.1437  -5.0918  -5.0761  -5.0334  -5.0102
    -4.9808  -4.9772  -4.9121  -4.8646  -4.8552  -4.7698  -4.7605  -4.7525
    -4.6378  -4.2905  -3.6133  -3.3803  -2.0844  -2.0394  -1.4089  -0.2094
     0.3088   0.3769   0.4797   0.8474   0.9411   1.0239   1.1891   1.3469
     1.4535   1.5576   1.7869   2.0854   2.1214   2.2352   2.5129   2.5187
     2.6720   2.6752   2.8196   2.8723   3.0008   3.1289   3.4465   3.5566
     4.0873   4.1177   4.3572   4.5042   4.6253   4.8453   4.9058   5.6253
     5.7722   5.7754   5.9517   6.3014

          k =-0.0851 0.0155 0.0000 ( 36631 PWs)   bands (ev):

   -66.9430 -66.9429 -66.7142 -66.7141 -66.5026 -66.5026 -33.3719 -33.3716
   -33.2567 -33.2561 -33.1524 -33.1521 -33.0664 -33.0654 -32.9989 -32.9985
   -32.9412 -32.9410 -32.8525 -32.8521 -32.7335 -32.7332 -32.4899 -32.4898
   -18.7084 -18.7083 -18.7053 -18.7053 -18.6586 -18.6585 -18.6425 -18.6424
   -18.6109 -18.6109 -18.5770 -18.5769 -18.5711 -18.5710 -18.4519 -18.4518
   -18.4487 -18.4487 -18.4240 -18.4240 -18.4129 -18.4128 -18.3890 -18.3889
   -18.3579 -18.3578 -18.3537 -18.3537 -18.2284 -18.2283 -18.2279 -18.2278
   -18.2187 -18.2185 -18.2154 -18.2153 -18.1834 -18.1833 -18.1495 -18.1495
   -18.1432 -18.1431  -6.0906  -6.0704  -5.9520  -5.9437  -5.8788  -5.8472
    -5.8373  -5.7700  -5.6968  -5.6766  -5.5390  -5.4578  -5.3366  -5.3223
    -5.2494  -5.2292  -5.1509  -5.1396  -5.0906  -5.0780  -5.0340  -5.0137
    -4.9859  -4.9776  -4.9057  -4.8568  -4.8519  -4.7701  -4.7611  -4.7545
    -4.6330  -4.3440  -3.5836  -3.3592  -2.0788  -2.0752  -1.3159  -0.3410
     0.2236   0.3021   0.6685   0.8210   0.9646   0.9746   1.2387   1.2959
     1.5601   1.5709   1.7940   2.0135   2.1279   2.2671   2.3721   2.4542
     2.6263   2.6295   2.8630   2.8992   3.0962   3.1651   3.5317   3.6584
     4.0754   4.1950   4.3414   4.5114   4.6363   4.8429   4.8982   5.5588
     5.5872   5.8367   5.9191   6.2641

          k =-0.0851 0.0311 0.0000 ( 36650 PWs)   bands (ev):

   -66.9430 -66.9429 -66.7142 -66.7141 -66.5026 -66.5026 -33.3718 -33.3717
   -33.2566 -33.2562 -33.1524 -33.1522 -33.0662 -33.0657 -32.9988 -32.9986
   -32.9412 -32.9410 -32.8524 -32.8522 -32.7334 -32.7332 -32.4899 -32.4898
   -18.7084 -18.7083 -18.7053 -18.7053 -18.6586 -18.6585 -18.6425 -18.6424
   -18.6109 -18.6109 -18.5770 -18.5769 -18.5711 -18.5711 -18.4519 -18.4519
   -18.4487 -18.4487 -18.4240 -18.4240 -18.4129 -18.4128 -18.3890 -18.3890
   -18.3579 -18.3579 -18.3537 -18.3537 -18.2284 -18.2283 -18.2279 -18.2278
   -18.2187 -18.2186 -18.2154 -18.2153 -18.1834 -18.1833 -18.1495 -18.1495
   -18.1432 -18.1431  -6.0885  -6.0771  -5.9617  -5.9557  -5.8699  -5.8447
    -5.8324  -5.8008  -5.6858  -5.6783  -5.4812  -5.4549  -5.3530  -5.3277
    -5.2516  -5.2399  -5.1301  -5.1293  -5.0883  -5.0830  -5.0346  -5.0239
    -4.9883  -4.9798  -4.8903  -4.8624  -4.8226  -4.7733  -4.7624  -4.7604
    -4.6126  -4.4575  -3.5050  -3.3516  -2.1051  -2.0736  -1.1166  -0.6117
     0.1251   0.2480   0.7533   0.8271   0.9173   1.0194   1.2992   1.3539
     1.5404   1.6722   1.8356   1.9399   2.1514   2.1590   2.3289   2.3317
     2.4808   2.5446   2.9338   2.9346   3.2392   3.2422   3.6840   3.8995
     4.0135   4.2789   4.4365   4.5659   4.6555   4.7773   4.8674   5.3870
     5.5502   5.6089   5.8592   6.0903

          k =-0.0851-0.1398 0.0000 ( 36588 PWs)   bands (ev):

   -66.9430 -66.9429 -66.7142 -66.7141 -66.5026 -66.5026 -33.3717 -33.3717
   -33.2564 -33.2564 -33.1522 -33.1522 -33.0659 -33.0659 -32.9987 -32.9987
   -32.9411 -32.9411 -32.8523 -32.8523 -32.7333 -32.7333 -32.4899 -32.4898
   -18.7083 -18.7083 -18.7053 -18.7053 -18.6586 -18.6585 -18.6424 -18.6424
   -18.6109 -18.6109 -18.5769 -18.5769 -18.5711 -18.5710 -18.4519 -18.4519
   -18.4487 -18.4487 -18.4240 -18.4240 -18.4128 -18.4128 -18.3889 -18.3889
   -18.3579 -18.3579 -18.3537 -18.3537 -18.2284 -18.2283 -18.2278 -18.2278
   -18.2187 -18.2186 -18.2154 -18.2153 -18.1833 -18.1833 -18.1495 -18.1494
   -18.1432 -18.1431  -6.0840  -6.0840  -5.9634  -5.9634  -5.8585  -5.8585
    -5.8172  -5.8172  -5.6811  -5.6811  -5.4538  -5.4538  -5.3451  -5.3451
    -5.2489  -5.2489  -5.1225  -5.1225  -5.0867  -5.0867  -5.0322  -5.0322
    -4.9843  -4.9843  -4.8738  -4.8737  -4.7910  -4.7910  -4.7633  -4.7633
    -4.5581  -4.5581  -3.4104  -3.4103  -2.0884  -2.0884  -0.8818  -0.8818
     0.1532   0.1532   0.7651   0.7652   1.0091   1.0091   1.3667   1.3667
     1.5893   1.5893   1.9233   1.9233   2.1203   2.1203   2.2872   2.2873
     2.4706   2.4706   2.9484   2.9484   3.2914   3.2914   3.8683   3.8683
     4.1307   4.1307   4.5726   4.5726   4.7827   4.7827   4.9599   4.9599
     5.5872   5.5872   5.8769   5.8770

     the Fermi energy is     2.0370 ev

!    total energy              =   -4698.13343418 Ry
     estimated scf accuracy    <       0.00000620 Ry
     smearing contrib. (-TS)   =      -0.05588957 Ry
     internal energy E=F+TS    =   -4698.07754460 Ry

     The total energy is F=E-TS. E is the sum of the following terms:
     one-electron contribution =  -27741.59832405 Ry
     hartree contribution      =   14011.54870524 Ry
     xc contribution           =    -614.18786924 Ry
     ewald contribution        =    9646.15993943 Ry
     electric field correction =       0.00000401 Ry

     convergence has been achieved in  14 iterations

     negative rho (up, down):  1.027E-03 0.000E+00

     Forces acting on atoms (cartesian axes, Ry/au):

     atom    1 type  1   force =    -0.00000334    0.01449746    0.03327009
     atom    2 type  1   force =     0.00000076    0.01450278    0.03327638
     atom    3 type  2   force =     0.00000341   -0.00496014   -0.03599724
     atom    4 type  2   force =    -0.00000327   -0.00495835   -0.03599296
     atom    5 type  1   force =     0.00000270   -0.02484157   -0.01151864
     atom    6 type  1   force =    -0.00000256   -0.02483203   -0.01150537
     atom    7 type  2   force =     0.00000362    0.01277599    0.01182408
     atom    8 type  2   force =    -0.00000250    0.01276971    0.01182356
     atom    9 type  1   force =    -0.00000504    0.00247788    0.00328135
     atom   10 type  1   force =     0.00000667    0.00247052    0.00327129
     atom   11 type  2   force =    -0.00000387    0.00004602   -0.00086685
     atom   12 type  2   force =     0.00000343    0.00005173   -0.00086568

     Total force =     0.086111     Total SCF correction =     0.018144
     SCF correction compared to forces is large: reduce conv_thr to get better values

     Writing output data file ./Ta2Hg2/Ta2Hg2_beef.save/

     init_run     :    152.52s CPU    153.35s WALL (       1 calls)
     electrons    :   9941.78s CPU   9989.95s WALL (       1 calls)
     forces       :    371.79s CPU    372.12s WALL (       1 calls)

     Called by init_run:
     wfcinit      :    139.50s CPU    140.02s WALL (       1 calls)
     potinit      :      7.97s CPU      8.05s WALL (       1 calls)
     hinit0       :      2.53s CPU      2.55s WALL (       1 calls)

     Called by electrons:
     c_bands      :   8941.67s CPU   8980.63s WALL (      15 calls)
     sum_band     :    945.82s CPU    951.50s WALL (      15 calls)
     v_of_rho     :     32.13s CPU     33.07s WALL (      15 calls)
     newd         :     28.05s CPU     30.61s WALL (      15 calls)
     mix_rho      :      1.88s CPU      1.89s WALL (      15 calls)
     vdW_kernel   :      5.69s CPU      5.69s WALL (       1 calls)

     Called by c_bands:
     init_us_2    :     13.57s CPU     13.65s WALL (    2368 calls)
     cegterg      :   8841.37s CPU   8878.36s WALL (    1110 calls)

     Called by *egterg:
     cdiaghg      :    510.62s CPU    511.19s WALL (    5973 calls)
     h_psi        :   5011.45s CPU   5041.99s WALL (    6121 calls)
     s_psi        :    867.08s CPU    867.82s WALL (    6121 calls)
     g_psi        :      1.64s CPU      1.67s WALL (    4937 calls)

     Called by h_psi:
     h_psi:calbec :   1077.15s CPU   1080.08s WALL (    6121 calls)
     vloc_psi     :   3033.54s CPU   3060.19s WALL (    6121 calls)
     add_vuspsi   :    894.09s CPU    895.01s WALL (    6121 calls)

     General routines
     calbec       :   1808.90s CPU   1812.67s WALL (    7527 calls)
     fft          :     38.33s CPU     38.69s WALL (    1005 calls)
     ffts         :      0.41s CPU      0.41s WALL (      30 calls)
     fftw         :   3495.97s CPU   3523.86s WALL (  905742 calls)
     interpolate  :      0.51s CPU      0.52s WALL (      15 calls)

     Parallel routines
     fft_scatt_xy :     66.80s CPU     67.48s WALL (  906777 calls)
     fft_scatt_yz :   2854.06s CPU   2875.64s WALL (  906777 calls)

     PWSCF        :      2h57m CPU      2h59m WALL


   This run was terminated on:   7: 7:39  26Jun2022            

=------------------------------------------------------------------------------=
   JOB DONE.
=------------------------------------------------------------------------------=
