
     Program PWSCF v.6.6 starts on 26Jun2022 at  7: 7:47 

     This program is part of the open-source Quantum ESPRESSO suite
     for quantum simulation of materials; please cite
         "P. Giannozzi et al., J. Phys.:Condens. Matter 21 395502 (2009);
         "P. Giannozzi et al., J. Phys.:Condens. Matter 29 465901 (2017);
          URL http://www.quantum-espresso.org", 
     in publications or presentations arising from this work. More details at
     http://www.quantum-espresso.org/quote

     Parallel version (MPI), running on    37 processors

     MPI processes distributed on     1 nodes
     R & G space division:  proc/nbgrp/npool/nimage =      37
     Fft bands division:     nmany     =       1
     Reading input from Ta2Ir2.in
Warning: card &CELL ignored
Warning: card / ignored

     Current dimensions of program PWSCF are:
     Max number of different atomic species (ntypx) = 10
     Max number of k-points (npk) =  40000
     Max angular momentum in pseudopotentials (lmaxx) =  3
     Presently stress not available with electric field and gates

     Message from routine cell_base_init:
     DEPRECATED: use true lattice parameter, not A to a.u. conversion factor
     file Ta.pbe-spfn-rrkjus_psl.1.0.0.UPF: wavefunction(s)  5S 5P renormalized
     file Ir.pbe-n-rrkjus_psl.0.2.3.UPF: wavefunction(s)  5D renormalized

     **************************************************************************
     Initializing libbeef V0.1.2 with the BEEF-vdW functional.
     Citation: Wellendorff et al., PRB 85, 235149 (2012).
     **************************************************************************


     IMPORTANT: XC functional enforced from input :
     Exchange-correlation= BEEF-VDW
                           (   1   4  43  14   2   0   0)
     Any further DFT definition will be discarded
     Please, verify this is what you really want


     Subspace diagonalization in iterative solution of the eigenvalue problem:
     a serial algorithm will be used

     Found symmetry operation: I + ( -0.5000 -0.5000  0.0000)
     This is a supercell, fractional translations are disabled

     Parallelization info
     --------------------
     sticks:   dense  smooth     PW     G-vecs:    dense   smooth      PW
     Min         118      47     13                27400     6925    1055
     Max         119      48     14                27411     6938    1080
     Sum        4373    1751    503              1013923   256399   39431



     bravais-lattice index     =            0
     lattice parameter (alat)  =       1.8897  a.u.
     unit-cell volume          =    4638.9002 (a.u.)^3
     number of atoms/cell      =           12
     number of atomic types    =            2
     number of electrons       =       216.00
     number of Kohn-Sham states=          130
     kinetic-energy cutoff     =      55.1240  Ry
     charge density cutoff     =     551.2396  Ry
     convergence threshold     =      1.0E-05
     mixing beta               =       0.1000
     number of iterations used =           10  plain     mixing
     Exchange-correlation= BEEF-VDW
                           (   1   4  43  14   2   0   0)

     celldm(1)=   1.889726  celldm(2)=   0.000000  celldm(3)=   0.000000
     celldm(4)=   0.000000  celldm(5)=   0.000000  celldm(6)=   0.000000

     crystal axes: (cart. coord. in units of alat)
               a(1) = (   5.628548   0.000000   0.000000 )  
               a(2) = (   2.663501   4.958459   0.000000 )  
               a(3) = (   0.000000   0.000000  24.630624 )  

     reciprocal axes: (cart. coord. in units 2 pi/alat)
               b(1) = (  0.177666 -0.095435  0.000000 )  
               b(2) = (  0.000000  0.201676  0.000000 )  
               b(3) = (  0.000000  0.000000  0.040600 )  


     PseudoPot. # 1 for Ta read from file:
     ../pseudo/Ta.pbe-spfn-rrkjus_psl.1.0.0.UPF
     MD5 check sum: 39d7d349fe394e56adf8454eb9315fbb
     Pseudo is Ultrasoft + core correction, Zval = 27.0
     Generated using "atomic" code by A. Dal Corso v.6.3
     Using radial grid of 1273 points,  8 beta functions with: 
                l(1) =   0
                l(2) =   0
                l(3) =   1
                l(4) =   1
                l(5) =   2
                l(6) =   2
                l(7) =   3
                l(8) =   3
     Q(r) pseudized with 0 coefficients 


     PseudoPot. # 2 for Ir read from file:
     ../pseudo/Ir.pbe-n-rrkjus_psl.0.2.3.UPF
     MD5 check sum: a93e608e8ddc29ee62145620b5f41564
     Pseudo is Ultrasoft + core correction, Zval =  9.0
     Generated using "atomic" code by A. Dal Corso v.5.0.2 svn rev. 9415
     Using radial grid of 1277 points,  6 beta functions with: 
                l(1) =   0
                l(2) =   0
                l(3) =   1
                l(4) =   1
                l(5) =   2
                l(6) =   2
     Q(r) pseudized with 0 coefficients 


     atomic species   valence    mass     pseudopotential
        Ta            27.00   180.94788     Ta( 1.00)
        Ir             9.00   192.21700     Ir( 1.00)

     No symmetry found



   Cartesian axes

     site n.     atom                  positions (alat units)
         1           Ta  tau(   1) = (   0.0000000   0.0000000  10.0000000  )
         2           Ta  tau(   2) = (   4.1460248   2.4792296  10.0000000  )
         3           Ir  tau(   3) = (   2.8142742   0.0000000  10.0000000  )
         4           Ir  tau(   4) = (   1.3317506   2.4792296  10.0000000  )
         5           Ta  tau(   5) = (   5.6285484   3.3657455  12.3153119  )
         6           Ta  tau(   6) = (   1.4825236   0.8865158  12.3153119  )
         7           Ir  tau(   7) = (   2.8142742   3.3657455  12.3153119  )
         8           Ir  tau(   8) = (   4.2967978   0.8865158  12.3153119  )
         9           Ta  tau(   9) = (   3.1414613   1.8785201  14.5930534  )
        10           Ta  tau(  10) = (   7.2874849   4.3577537  14.5930546  )
        11           Ir  tau(  11) = (   5.9605834   1.8814207  14.5474899  )
        12           Ir  tau(  12) = (   4.4780584   4.3606520  14.5474898  )

     number of k points=    74  Fermi-Dirac smearing, width (Ry)=  0.0100
                       cart. coord. in units 2pi/alat
        k(    1) = (   0.0000000   0.0000000   0.0000000), wk =   0.0138889
        k(    2) = (   0.0000000   0.0168063   0.0000000), wk =   0.0277778
        k(    3) = (   0.0000000   0.0336126   0.0000000), wk =   0.0277778
        k(    4) = (   0.0000000   0.0504189   0.0000000), wk =   0.0277778
        k(    5) = (   0.0000000   0.0672252   0.0000000), wk =   0.0277778
        k(    6) = (   0.0000000   0.0840315   0.0000000), wk =   0.0277778
        k(    7) = (   0.0000000  -0.1008378   0.0000000), wk =   0.0138889
        k(    8) = (   0.0148055  -0.0079530   0.0000000), wk =   0.0277778
        k(    9) = (   0.0148055   0.0088533   0.0000000), wk =   0.0277778
        k(   10) = (   0.0148055   0.0256596   0.0000000), wk =   0.0277778
        k(   11) = (   0.0148055   0.0424659   0.0000000), wk =   0.0277778
        k(   12) = (   0.0148055   0.0592722   0.0000000), wk =   0.0277778
        k(   13) = (   0.0148055   0.0760785   0.0000000), wk =   0.0277778
        k(   14) = (   0.0148055  -0.1087907   0.0000000), wk =   0.0277778
        k(   15) = (   0.0148055  -0.0919844   0.0000000), wk =   0.0277778
        k(   16) = (   0.0148055  -0.0751781   0.0000000), wk =   0.0277778
        k(   17) = (   0.0148055  -0.0583718   0.0000000), wk =   0.0277778
        k(   18) = (   0.0148055  -0.0415655   0.0000000), wk =   0.0277778
        k(   19) = (   0.0148055  -0.0247593   0.0000000), wk =   0.0277778
        k(   20) = (   0.0296110  -0.0159059   0.0000000), wk =   0.0277778
        k(   21) = (   0.0296110   0.0009004   0.0000000), wk =   0.0277778
        k(   22) = (   0.0296110   0.0177067   0.0000000), wk =   0.0277778
        k(   23) = (   0.0296110   0.0345130   0.0000000), wk =   0.0277778
        k(   24) = (   0.0296110   0.0513193   0.0000000), wk =   0.0277778
        k(   25) = (   0.0296110   0.0681256   0.0000000), wk =   0.0277778
        k(   26) = (   0.0296110  -0.1167437   0.0000000), wk =   0.0277778
        k(   27) = (   0.0296110  -0.0999374   0.0000000), wk =   0.0277778
        k(   28) = (   0.0296110  -0.0831311   0.0000000), wk =   0.0277778
        k(   29) = (   0.0296110  -0.0663248   0.0000000), wk =   0.0277778
        k(   30) = (   0.0296110  -0.0495185   0.0000000), wk =   0.0277778
        k(   31) = (   0.0296110  -0.0327122   0.0000000), wk =   0.0277778
        k(   32) = (   0.0444164  -0.0238589   0.0000000), wk =   0.0277778
        k(   33) = (   0.0444164  -0.0070526   0.0000000), wk =   0.0277778
        k(   34) = (   0.0444164   0.0097537   0.0000000), wk =   0.0277778
        k(   35) = (   0.0444164   0.0265600   0.0000000), wk =   0.0277778
        k(   36) = (   0.0444164   0.0433663   0.0000000), wk =   0.0277778
        k(   37) = (   0.0444164   0.0601726   0.0000000), wk =   0.0277778
        k(   38) = (   0.0444164  -0.1246966   0.0000000), wk =   0.0277778
        k(   39) = (   0.0444164  -0.1078903   0.0000000), wk =   0.0277778
        k(   40) = (   0.0444164  -0.0910841   0.0000000), wk =   0.0277778
        k(   41) = (   0.0444164  -0.0742778   0.0000000), wk =   0.0277778
        k(   42) = (   0.0444164  -0.0574715   0.0000000), wk =   0.0277778
        k(   43) = (   0.0444164  -0.0406652   0.0000000), wk =   0.0277778
        k(   44) = (   0.0592219  -0.0318118   0.0000000), wk =   0.0277778
        k(   45) = (   0.0592219  -0.0150055   0.0000000), wk =   0.0277778
        k(   46) = (   0.0592219   0.0018008   0.0000000), wk =   0.0277778
        k(   47) = (   0.0592219   0.0186071   0.0000000), wk =   0.0277778
        k(   48) = (   0.0592219   0.0354134   0.0000000), wk =   0.0277778
        k(   49) = (   0.0592219   0.0522197   0.0000000), wk =   0.0277778
        k(   50) = (   0.0592219  -0.1326496   0.0000000), wk =   0.0277778
        k(   51) = (   0.0592219  -0.1158433   0.0000000), wk =   0.0277778
        k(   52) = (   0.0592219  -0.0990370   0.0000000), wk =   0.0277778
        k(   53) = (   0.0592219  -0.0822307   0.0000000), wk =   0.0277778
        k(   54) = (   0.0592219  -0.0654244   0.0000000), wk =   0.0277778
        k(   55) = (   0.0592219  -0.0486181   0.0000000), wk =   0.0277778
        k(   56) = (   0.0740274  -0.0397648   0.0000000), wk =   0.0277778
        k(   57) = (   0.0740274  -0.0229585   0.0000000), wk =   0.0277778
        k(   58) = (   0.0740274  -0.0061522   0.0000000), wk =   0.0277778
        k(   59) = (   0.0740274   0.0106541   0.0000000), wk =   0.0277778
        k(   60) = (   0.0740274   0.0274604   0.0000000), wk =   0.0277778
        k(   61) = (   0.0740274   0.0442667   0.0000000), wk =   0.0277778
        k(   62) = (   0.0740274  -0.1406026   0.0000000), wk =   0.0277778
        k(   63) = (   0.0740274  -0.1237963   0.0000000), wk =   0.0277778
        k(   64) = (   0.0740274  -0.1069900   0.0000000), wk =   0.0277778
        k(   65) = (   0.0740274  -0.0901837   0.0000000), wk =   0.0277778
        k(   66) = (   0.0740274  -0.0733774   0.0000000), wk =   0.0277778
        k(   67) = (   0.0740274  -0.0565711   0.0000000), wk =   0.0277778
        k(   68) = (  -0.0888329   0.0477177   0.0000000), wk =   0.0138889
        k(   69) = (  -0.0888329   0.0645240   0.0000000), wk =   0.0277778
        k(   70) = (  -0.0888329   0.0813303   0.0000000), wk =   0.0277778
        k(   71) = (  -0.0888329   0.0981366   0.0000000), wk =   0.0277778
        k(   72) = (  -0.0888329   0.1149429   0.0000000), wk =   0.0277778
        k(   73) = (  -0.0888329   0.1317492   0.0000000), wk =   0.0277778
        k(   74) = (  -0.0888329  -0.0531201   0.0000000), wk =   0.0138889

     Dense  grid:  1013923 G-vectors     FFT dimensions: (  80,  80, 360)

     Smooth grid:   256399 G-vectors     FFT dimensions: (  54,  54, 225)

     Estimated max dynamical RAM per process >     399.01 MB

     Estimated total dynamical RAM >      14.42 GB

     Initial potential from superposition of free atoms

     starting charge  215.99404, renormalised to  216.00000

     negative rho (up, down):  3.365E-04 0.000E+00


     %%%%%%%%%%%%%%%%%%%%%%%%%%%%%%%%%%%%%%%%%%%%%%%%%%%%%%%%%%%%%%%%%%%%%%%%
     %                                                                      %
     % You are using vdW-DF, which was implemented by the Thonhauser group. %
     % Please cite the following two papers that made this development      %
     % possible and the two reviews that describe the various versions:     %
     %                                                                      %
     %   T. Thonhauser et al., PRL 115, 136402 (2015).                      %
     %   T. Thonhauser et al., PRB 76, 125112 (2007).                       %
     %   K. Berland et al., Rep. Prog. Phys. 78, 066501 (2015).             %
     %   D.C. Langreth et al., J. Phys.: Condens. Matter 21, 084203 (2009). %
     %                                                                      %
     %                                                                      %
     % If you are calculating the stress with vdW-DF, please also cite:     %
     %                                                                      %
     %   R. Sabatini et al., J. Phys.: Condens. Matter 24, 424209 (2012).   %
     %                                                                      %
     %%%%%%%%%%%%%%%%%%%%%%%%%%%%%%%%%%%%%%%%%%%%%%%%%%%%%%%%%%%%%%%%%%%%%%%%



     Adding external electric field

     Computed dipole along edir(3) : 
        Dipole                0.0000 Ry au,          0.0000 Debye
        Dipole field          0.0000 Ry au, 

        Potential amp.       -0.0000 Ry
        Total length         45.3815 bohr

     Starting wfcs are  156 randomized atomic wfcs

     total cpu time spent up to now is      136.1 secs

     Self-consistent Calculation

     iteration #  1     ecut=    55.12 Ry     beta= 0.10
     Davidson diagonalization with overlap
     ethr =  1.00E-02,  avg # of iterations =  2.0

     negative rho (up, down):  2.485E-04 0.000E+00

     Adding external electric field

     Computed dipole along edir(3) : 
        Dipole                0.1087 Ry au,          0.2763 Debye
        Dipole field          0.0003 Ry au, 

        Potential amp.       -0.0267 Ry
        Total length         45.3815 bohr


     total cpu time spent up to now is      451.6 secs

     total energy              =   -4470.50331208 Ry
     estimated scf accuracy    <       3.65449527 Ry

     iteration #  2     ecut=    55.12 Ry     beta= 0.10
     Davidson diagonalization with overlap
     ethr =  1.69E-03,  avg # of iterations =  2.0

     negative rho (up, down):  2.403E-04 0.000E+00

     Adding external electric field

     Computed dipole along edir(3) : 
        Dipole               -0.3508 Ry au,         -0.8915 Debye
        Dipole field         -0.0010 Ry au, 

        Potential amp.        0.0862 Ry
        Total length         45.3815 bohr


     total cpu time spent up to now is     1041.2 secs

     total energy              =   -4470.69905621 Ry
     estimated scf accuracy    <       0.96592414 Ry

     iteration #  3     ecut=    55.12 Ry     beta= 0.10
     Davidson diagonalization with overlap
     ethr =  4.47E-04,  avg # of iterations =  2.1

     negative rho (up, down):  2.625E-04 0.000E+00

     Adding external electric field

     Computed dipole along edir(3) : 
        Dipole                0.1074 Ry au,          0.2729 Debye
        Dipole field          0.0003 Ry au, 

        Potential amp.       -0.0264 Ry
        Total length         45.3815 bohr


     total cpu time spent up to now is     1505.8 secs

     total energy              =   -4470.64390108 Ry
     estimated scf accuracy    <       6.39068921 Ry

     iteration #  4     ecut=    55.12 Ry     beta= 0.10
     Davidson diagonalization with overlap
     ethr =  4.47E-04,  avg # of iterations =  1.1

     negative rho (up, down):  2.613E-04 0.000E+00

     Adding external electric field

     Computed dipole along edir(3) : 
        Dipole                0.0342 Ry au,          0.0869 Debye
        Dipole field          0.0001 Ry au, 

        Potential amp.       -0.0084 Ry
        Total length         45.3815 bohr


     total cpu time spent up to now is     1947.9 secs

     total energy              =   -4470.74122774 Ry
     estimated scf accuracy    <       0.49110145 Ry

     iteration #  5     ecut=    55.12 Ry     beta= 0.10
     Davidson diagonalization with overlap
     ethr =  2.27E-04,  avg # of iterations =  1.7

     negative rho (up, down):  3.308E-04 0.000E+00

     Adding external electric field

     Computed dipole along edir(3) : 
        Dipole                0.0472 Ry au,          0.1199 Debye
        Dipole field          0.0001 Ry au, 

        Potential amp.       -0.0116 Ry
        Total length         45.3815 bohr


     total cpu time spent up to now is     2391.0 secs

     total energy              =   -4470.72831024 Ry
     estimated scf accuracy    <       0.12363485 Ry

     iteration #  6     ecut=    55.12 Ry     beta= 0.10
     Davidson diagonalization with overlap
     ethr =  5.72E-05,  avg # of iterations = 10.0

     negative rho (up, down):  4.579E-04 0.000E+00

     Adding external electric field

     Computed dipole along edir(3) : 
        Dipole                0.0327 Ry au,          0.0830 Debye
        Dipole field          0.0001 Ry au, 

        Potential amp.       -0.0080 Ry
        Total length         45.3815 bohr


     total cpu time spent up to now is     2747.9 secs

     total energy              =   -4470.73859353 Ry
     estimated scf accuracy    <       0.03862530 Ry

     iteration #  7     ecut=    55.12 Ry     beta= 0.10
     Davidson diagonalization with overlap
     c_bands:  1 eigenvalues not converged
     ethr =  1.79E-05,  avg # of iterations =  8.4

     negative rho (up, down):  5.684E-04 0.000E+00

     Adding external electric field

     Computed dipole along edir(3) : 
        Dipole                0.0414 Ry au,          0.1053 Debye
        Dipole field          0.0001 Ry au, 

        Potential amp.       -0.0102 Ry
        Total length         45.3815 bohr


     total cpu time spent up to now is     3498.2 secs

     total energy              =   -4470.74161211 Ry
     estimated scf accuracy    <       0.01800298 Ry

     iteration #  8     ecut=    55.12 Ry     beta= 0.10
     Davidson diagonalization with overlap
     ethr =  8.33E-06,  avg # of iterations =  2.6

     negative rho (up, down):  5.745E-04 0.000E+00

     Adding external electric field

     Computed dipole along edir(3) : 
        Dipole                0.0435 Ry au,          0.1105 Debye
        Dipole field          0.0001 Ry au, 

        Potential amp.       -0.0107 Ry
        Total length         45.3815 bohr


     total cpu time spent up to now is     3848.0 secs

     total energy              =   -4470.74354275 Ry
     estimated scf accuracy    <       0.00456943 Ry

     iteration #  9     ecut=    55.12 Ry     beta= 0.10
     Davidson diagonalization with overlap
     c_bands:  1 eigenvalues not converged
     c_bands:  1 eigenvalues not converged
     c_bands:  1 eigenvalues not converged
     ethr =  2.12E-06,  avg # of iterations =  7.8

     negative rho (up, down):  5.626E-04 0.000E+00

     Adding external electric field

     Computed dipole along edir(3) : 
        Dipole                0.0407 Ry au,          0.1033 Debye
        Dipole field          0.0001 Ry au, 

        Potential amp.       -0.0100 Ry
        Total length         45.3815 bohr


     total cpu time spent up to now is     4372.7 secs

     total energy              =   -4470.74359182 Ry
     estimated scf accuracy    <       0.00213001 Ry

     iteration # 10     ecut=    55.12 Ry     beta= 0.10
     Davidson diagonalization with overlap
     ethr =  9.86E-07,  avg # of iterations =  2.9

     negative rho (up, down):  5.927E-04 0.000E+00

     Adding external electric field

     Computed dipole along edir(3) : 
        Dipole                0.0437 Ry au,          0.1112 Debye
        Dipole field          0.0001 Ry au, 

        Potential amp.       -0.0108 Ry
        Total length         45.3815 bohr


     total cpu time spent up to now is     4899.1 secs

     total energy              =   -4470.74390058 Ry
     estimated scf accuracy    <       0.00094229 Ry

     iteration # 11     ecut=    55.12 Ry     beta= 0.10
     Davidson diagonalization with overlap
     ethr =  4.36E-07,  avg # of iterations =  2.4

     negative rho (up, down):  5.752E-04 0.000E+00

     Adding external electric field

     Computed dipole along edir(3) : 
        Dipole                0.0446 Ry au,          0.1134 Debye
        Dipole field          0.0001 Ry au, 

        Potential amp.       -0.0110 Ry
        Total length         45.3815 bohr


     total cpu time spent up to now is     5417.9 secs

     total energy              =   -4470.74398398 Ry
     estimated scf accuracy    <       0.00029786 Ry

     iteration # 12     ecut=    55.12 Ry     beta= 0.10
     Davidson diagonalization with overlap
     ethr =  1.38E-07,  avg # of iterations =  4.3

     negative rho (up, down):  5.436E-04 0.000E+00

     Adding external electric field

     Computed dipole along edir(3) : 
        Dipole                0.0443 Ry au,          0.1125 Debye
        Dipole field          0.0001 Ry au, 

        Potential amp.       -0.0109 Ry
        Total length         45.3815 bohr


     total cpu time spent up to now is     6028.4 secs

     total energy              =   -4470.74398055 Ry
     estimated scf accuracy    <       0.00012001 Ry

     iteration # 13     ecut=    55.12 Ry     beta= 0.10
     Davidson diagonalization with overlap
     ethr =  5.56E-08,  avg # of iterations =  4.4

     negative rho (up, down):  5.195E-04 0.000E+00

     Adding external electric field

     Computed dipole along edir(3) : 
        Dipole                0.0442 Ry au,          0.1123 Debye
        Dipole field          0.0001 Ry au, 

        Potential amp.       -0.0109 Ry
        Total length         45.3815 bohr


     total cpu time spent up to now is     6556.7 secs

     total energy              =   -4470.74400453 Ry
     estimated scf accuracy    <       0.00001204 Ry

     iteration # 14     ecut=    55.12 Ry     beta= 0.10
     Davidson diagonalization with overlap
     c_bands:  1 eigenvalues not converged
     ethr =  5.57E-09,  avg # of iterations =  6.5

     negative rho (up, down):  4.256E-04 0.000E+00

     Adding external electric field

     Computed dipole along edir(3) : 
        Dipole                0.0474 Ry au,          0.1205 Debye
        Dipole field          0.0001 Ry au, 

        Potential amp.       -0.0117 Ry
        Total length         45.3815 bohr


     total cpu time spent up to now is     7128.8 secs

     End of self-consistent calculation

          k = 0.0000 0.0000 0.0000 ( 32095 PWs)   bands (ev):

   -66.5047 -66.4632 -66.4177 -66.3761 -66.3201 -66.2777 -32.9843 -32.9831
   -32.9553 -32.9079 -32.8892 -32.8847 -32.8079 -32.7597 -32.6928 -32.6899
   -32.6765 -32.6189 -32.5912 -32.4524 -32.3816 -32.2977 -32.2588 -32.2103
   -18.1970 -18.1952 -18.1944 -18.1933 -18.1726 -18.1542 -18.1511 -18.1490
   -18.1410 -18.1242 -18.1087 -18.1059 -18.1049 -18.1046 -18.1041 -18.1000
   -18.0924 -18.0730 -18.0723 -18.0703 -18.0702 -18.0649 -18.0570 -18.0449
   -18.0212 -18.0168 -17.9893 -17.9879 -17.9674 -17.9660 -17.9461 -17.9458
   -17.9420 -17.9399 -17.9356 -17.9318 -17.9266 -17.9258 -17.9210 -17.9144
   -17.8979 -17.8950  -6.3340  -4.4590  -3.9000  -3.4920  -3.4856  -3.4452
    -3.2484  -3.2079  -3.1836  -2.7677  -2.4829  -2.4657  -2.4566  -2.3259
    -2.3235  -1.1686  -1.1278  -0.8171  -0.7257  -0.5668  -0.2967  -0.2635
    -0.1770  -0.1137  -0.0426   0.1274   0.3007   0.3939   0.4975   1.3293
     1.4041   1.4263   1.6395   1.6747   1.6866   1.8636   2.0228   2.0303
     2.5222   2.5798   2.6119   2.7597   2.7711   3.2063   3.6139   3.7127
     3.7829   3.8151   3.9659   4.0901   4.1546   4.3302   4.4199   4.6175
     5.1293   5.1758   5.1831   5.2845   5.9049   5.9436   6.0649   6.2842
     6.4351   6.4621

          k = 0.0000 0.0168 0.0000 ( 32084 PWs)   bands (ev):

   -66.5040 -66.4639 -66.4170 -66.3768 -66.3194 -66.2784 -32.9821 -32.9733
   -32.9441 -32.9095 -32.8833 -32.8782 -32.8091 -32.7589 -32.6943 -32.6894
   -32.6748 -32.6206 -32.5928 -32.4512 -32.3828 -32.3101 -32.2714 -32.2226
   -18.1969 -18.1952 -18.1945 -18.1933 -18.1722 -18.1545 -18.1506 -18.1488
   -18.1412 -18.1247 -18.1086 -18.1059 -18.1049 -18.1042 -18.1041 -18.0997
   -18.0920 -18.0733 -18.0728 -18.0709 -18.0699 -18.0648 -18.0571 -18.0454
   -18.0208 -18.0165 -17.9898 -17.9887 -17.9670 -17.9656 -17.9464 -17.9461
   -17.9418 -17.9398 -17.9357 -17.9319 -17.9262 -17.9257 -17.9208 -17.9147
   -17.8984 -17.8957  -6.2707  -4.3952  -3.8358  -3.4877  -3.4406  -3.3959
    -3.2195  -3.1727  -3.1431  -2.7331  -2.4740  -2.4364  -2.4029  -2.2710
    -2.2693  -1.1648  -1.1141  -0.8165  -0.6926  -0.5460  -0.3215  -0.3002
    -0.1827  -0.1138  -0.0827   0.0937   0.2824   0.3915   0.4761   1.2162
     1.2440   1.4176   1.6060   1.6570   1.7246   1.8913   1.9806   2.0816
     2.4550   2.4927   2.5832   2.6244   2.7473   3.0312   3.5390   3.5550
     3.6816   3.7173   3.8217   4.0597   4.2955   4.3811   4.4298   4.5799
     5.1328   5.1658   5.2611   5.3106   5.6565   6.0129   6.0214   6.1229
     6.3083   6.4108

          k = 0.0000 0.0336 0.0000 ( 32104 PWs)   bands (ev):

   -66.5019 -66.4660 -66.4149 -66.3789 -66.3173 -66.2805 -32.9791 -32.9410
   -32.9143 -32.9107 -32.8791 -32.8460 -32.8126 -32.7565 -32.6986 -32.6878
   -32.6703 -32.6255 -32.5974 -32.4479 -32.3865 -32.3463 -32.3082 -32.2583
   -18.1968 -18.1951 -18.1947 -18.1935 -18.1713 -18.1554 -18.1494 -18.1485
   -18.1416 -18.1261 -18.1083 -18.1059 -18.1051 -18.1043 -18.1030 -18.0984
   -18.0910 -18.0743 -18.0742 -18.0732 -18.0687 -18.0644 -18.0575 -18.0468
   -18.0197 -18.0152 -17.9912 -17.9908 -17.9659 -17.9645 -17.9472 -17.9471
   -17.9413 -17.9394 -17.9359 -17.9324 -17.9254 -17.9251 -17.9200 -17.9156
   -17.8997 -17.8979  -6.0845  -4.2092  -3.6473  -3.5012  -3.3042  -3.2532
    -3.1441  -3.0590  -3.0281  -2.6294  -2.4429  -2.3367  -2.2720  -2.1077
    -2.1035  -1.1597  -1.0790  -0.8124  -0.6071  -0.4826  -0.4670  -0.3764
    -0.2465  -0.1514  -0.0708  -0.0019   0.2284   0.3654   0.4210   0.8529
     0.9775   1.3560   1.4962   1.6217   1.8154   1.8530   1.9183   1.9969
     2.2008   2.3509   2.4273   2.4995   2.5807   2.7829   3.2219   3.2298
     3.4257   3.6264   3.6814   4.0028   4.2922   4.3348   4.4684   4.6463
     5.0092   5.1142   5.1467   5.3075   5.4803   5.5077   5.8760   6.0851
     6.0903   6.2219

          k = 0.0000 0.0504 0.0000 ( 32129 PWs)   bands (ev):

   -66.4986 -66.4693 -66.4115 -66.3822 -66.3139 -66.2839 -32.9742 -32.9212
   -32.8889 -32.8726 -32.8584 -32.8182 -32.7944 -32.7524 -32.7052 -32.6844
   -32.6635 -32.6330 -32.6045 -32.4426 -32.4034 -32.3923 -32.3663 -32.3147
   -18.1966 -18.1950 -18.1949 -18.1936 -18.1698 -18.1568 -18.1479 -18.1474
   -18.1423 -18.1284 -18.1079 -18.1058 -18.1053 -18.1045 -18.1009 -18.0963
   -18.0894 -18.0766 -18.0766 -18.0757 -18.0669 -18.0638 -18.0582 -18.0489
   -18.0177 -18.0131 -17.9942 -17.9936 -17.9640 -17.9627 -17.9486 -17.9485
   -17.9405 -17.9389 -17.9363 -17.9332 -17.9248 -17.9233 -17.9186 -17.9169
   -17.9019 -17.9011  -5.7864  -3.9199  -3.5718  -3.3486  -3.1238  -3.0349
    -3.0069  -2.8830  -2.8573  -2.4601  -2.3832  -2.1745  -2.0981  -1.8429
    -1.8303  -1.1667  -1.0454  -0.7981  -0.6826  -0.5363  -0.5129  -0.4258
    -0.3943  -0.1564  -0.1177   0.0002   0.1224   0.2708   0.3641   0.4303
     0.7091   1.2108   1.2524   1.3669   1.5217   1.6079   1.7906   1.9589
     2.1037   2.1399   2.3269   2.4200   2.4611   2.7804   2.8156   2.8918
     3.1408   3.5427   3.6115   3.8960   4.1288   4.2127   4.3800   4.6230
     4.7455   4.7775   4.9177   5.1023   5.3570   5.3840   5.6201   5.8134
     5.8311   6.3306

          k = 0.0000 0.0672 0.0000 ( 32085 PWs)   bands (ev):

   -66.4943 -66.4736 -66.4072 -66.3864 -66.3095 -66.2883 -32.9674 -32.9299
   -32.8643 -32.8268 -32.8199 -32.7885 -32.7467 -32.7267 -32.7132 -32.6790
   -32.6550 -32.6422 -32.6136 -32.4774 -32.4412 -32.4350 -32.3998 -32.3872
   -18.1963 -18.1951 -18.1948 -18.1939 -18.1678 -18.1586 -18.1471 -18.1447
   -18.1431 -18.1313 -18.1074 -18.1057 -18.1056 -18.1048 -18.0980 -18.0935
   -18.0873 -18.0808 -18.0796 -18.0776 -18.0644 -18.0630 -18.0590 -18.0517
   -18.0149 -18.0104 -17.9982 -17.9965 -17.9616 -17.9604 -17.9507 -17.9503
   -17.9396 -17.9382 -17.9367 -17.9341 -17.9239 -17.9207 -17.9184 -17.9166
   -17.9051 -17.9047  -5.3962  -3.7498  -3.5665  -2.9898  -2.9680  -2.7809
    -2.7784  -2.6802  -2.6575  -2.3026  -2.2420  -1.9713  -1.8908  -1.5326
    -1.5013  -1.1798  -1.0262  -0.9201  -0.7776  -0.7519  -0.6250  -0.5341
    -0.4460  -0.1903  -0.0985   0.0381   0.0525   0.1467   0.2158   0.2720
     0.4783   0.6194   0.9211   0.9790   1.2368   1.3694   1.4649   1.8101
     2.0601   2.1379   2.2081   2.3573   2.4471   2.5751   2.7024   2.9452
     3.0444   3.4855   3.5089   3.6274   3.9778   4.0287   4.2699   4.3782
     4.4135   4.5223   4.7422   5.0253   5.0267   5.0736   5.3734   5.7226
     5.7400   6.2677

          k = 0.0000 0.0840 0.0000 ( 32072 PWs)   bands (ev):

   -66.4893 -66.4786 -66.4022 -66.3914 -66.3043 -66.2934 -32.9591 -32.9397
   -32.8548 -32.8350 -32.7404 -32.7397 -32.7219 -32.7065 -32.6715 -32.6528
   -32.6461 -32.6453 -32.6237 -32.5619 -32.5267 -32.4712 -32.4265 -32.4084
   -18.1960 -18.1954 -18.1946 -18.1941 -18.1655 -18.1607 -18.1462 -18.1441
   -18.1415 -18.1346 -18.1069 -18.1060 -18.1055 -18.1051 -18.0944 -18.0902
   -18.0854 -18.0849 -18.0830 -18.0799 -18.0621 -18.0615 -18.0600 -18.0549
   -18.0114 -18.0071 -18.0027 -18.0000 -17.9589 -17.9578 -17.9532 -17.9525
   -17.9387 -17.9375 -17.9370 -17.9351 -17.9228 -17.9200 -17.9175 -17.9140
   -17.9094 -17.9078  -4.9453  -4.0610  -3.2232  -2.9277  -2.5761  -2.5652
    -2.5596  -2.4959  -2.4560  -2.2322  -2.0220  -1.7888  -1.6660  -1.3669
    -1.3572  -1.2207  -0.9967  -0.9835  -0.9211  -0.8503  -0.7731  -0.6526
    -0.4069  -0.2425  -0.0831  -0.0579   0.0690   0.0894   0.1423   0.1773
     0.2353   0.3135   0.3203   0.7149   1.0804   1.1342   1.2941   1.5952
     1.8156   1.8707   2.2503   2.3363   2.3745   2.7219   2.7383   3.0788
     3.2144   3.3610   3.4880   3.5055   3.8943   3.9348   4.0455   4.1565
     4.2302   4.3967   4.4090   4.5781   4.7493   4.8186   5.5436   5.6955
     5.7433   6.1445

          k = 0.0000-0.1008 0.0000 ( 32074 PWs)   bands (ev):

   -66.4839 -66.4839 -66.3968 -66.3968 -66.2989 -66.2989 -32.9497 -32.9497
   -32.8448 -32.8448 -32.7316 -32.7315 -32.6626 -32.6626 -32.6513 -32.6513
   -32.6350 -32.6350 -32.6170 -32.6170 -32.5594 -32.5594 -32.4176 -32.4176
   -18.1957 -18.1957 -18.1944 -18.1944 -18.1631 -18.1631 -18.1451 -18.1451
   -18.1381 -18.1381 -18.1064 -18.1064 -18.1053 -18.1053 -18.0901 -18.0901
   -18.0867 -18.0866 -18.0824 -18.0824 -18.0611 -18.0610 -18.0582 -18.0582
   -18.0073 -18.0072 -18.0036 -18.0036 -17.9560 -17.9560 -17.9551 -17.9551
   -17.9379 -17.9379 -17.9362 -17.9362 -17.9215 -17.9215 -17.9136 -17.9136
   -17.9110 -17.9110  -4.4798  -4.4798  -2.9922  -2.9922  -2.4743  -2.4743
    -2.4134  -2.4134  -2.2578  -2.2578  -1.8214  -1.8214  -1.4479  -1.4479
    -1.3830  -1.3830  -1.0679  -1.0679  -0.8321  -0.8321  -0.6160  -0.6160
    -0.3005  -0.3005  -0.2116  -0.2116  -0.0576  -0.0576   0.0799   0.0799
     0.2343   0.2344   0.4770   0.4770   0.9856   0.9856   1.3848   1.3848
     1.7257   1.7257   2.2924   2.2924   2.5355   2.5355   2.9221   2.9221
     3.4053   3.4053   3.6654   3.6654   3.8399   3.8399   3.9388   3.9388
     4.0640   4.0640   4.4363   4.4363   4.6898   4.6898   5.6625   5.6625
     5.9072   5.9072

          k = 0.0148-0.0080 0.0000 ( 32084 PWs)   bands (ev):

   -66.5040 -66.4639 -66.4170 -66.3768 -66.3194 -66.2784 -32.9821 -32.9733
   -32.9441 -32.9095 -32.8833 -32.8782 -32.8091 -32.7589 -32.6943 -32.6894
   -32.6748 -32.6206 -32.5928 -32.4512 -32.3828 -32.3101 -32.2714 -32.2226
   -18.1969 -18.1952 -18.1945 -18.1933 -18.1722 -18.1545 -18.1506 -18.1488
   -18.1412 -18.1247 -18.1086 -18.1059 -18.1049 -18.1042 -18.1041 -18.0997
   -18.0920 -18.0733 -18.0728 -18.0709 -18.0699 -18.0648 -18.0571 -18.0454
   -18.0208 -18.0165 -17.9898 -17.9887 -17.9670 -17.9656 -17.9464 -17.9461
   -17.9418 -17.9398 -17.9357 -17.9319 -17.9262 -17.9257 -17.9208 -17.9147
   -17.8984 -17.8957  -6.2707  -4.3952  -3.8358  -3.4877  -3.4406  -3.3959
    -3.2195  -3.1727  -3.1431  -2.7331  -2.4740  -2.4364  -2.4029  -2.2710
    -2.2693  -1.1648  -1.1141  -0.8165  -0.6926  -0.5460  -0.3215  -0.3002
    -0.1827  -0.1138  -0.0827   0.0937   0.2824   0.3915   0.4761   1.2162
     1.2440   1.4176   1.6060   1.6570   1.7246   1.8913   1.9806   2.0816
     2.4550   2.4927   2.5832   2.6244   2.7473   3.0312   3.5390   3.5550
     3.6816   3.7173   3.8217   4.0597   4.2955   4.3811   4.4298   4.5799
     5.1328   5.1658   5.2611   5.3106   5.6565   6.0129   6.0214   6.1229
     6.3083   6.4113

          k = 0.0148 0.0089 0.0000 ( 32071 PWs)   bands (ev):

   -66.5047 -66.4632 -66.4176 -66.3761 -66.3201 -66.2777 -32.9851 -32.9840
   -32.9555 -32.9081 -32.8895 -32.8844 -32.8078 -32.7609 -32.6927 -32.6926
   -32.6748 -32.6197 -32.5918 -32.4524 -32.3817 -32.2977 -32.2589 -32.2104
   -18.1970 -18.1952 -18.1945 -18.1933 -18.1726 -18.1543 -18.1511 -18.1490
   -18.1410 -18.1242 -18.1087 -18.1060 -18.1049 -18.1047 -18.1041 -18.1001
   -18.0924 -18.0730 -18.0723 -18.0703 -18.0702 -18.0649 -18.0570 -18.0449
   -18.0213 -18.0169 -17.9893 -17.9880 -17.9675 -17.9660 -17.9461 -17.9459
   -17.9421 -17.9400 -17.9356 -17.9318 -17.9266 -17.9258 -17.9210 -17.9144
   -17.8979 -17.8950  -6.2670  -4.3917  -3.8426  -3.4419  -3.4364  -3.4300
    -3.2068  -3.1598  -3.1535  -2.7460  -2.4619  -2.4432  -2.3911  -2.2992
    -2.2447  -1.1627  -1.1336  -0.8126  -0.6978  -0.5389  -0.3336  -0.2197
    -0.1761  -0.0931  -0.0311   0.0808   0.3083   0.4239   0.5412   1.2608
     1.3130   1.4130   1.4898   1.6505   1.6975   1.8156   1.9709   2.0292
     2.4208   2.4401   2.5294   2.6873   2.7677   3.1626   3.4846   3.5716
     3.6393   3.7264   3.7872   4.0931   4.1239   4.3642   4.4171   4.5994
     5.0883   5.1427   5.1814   5.3178   5.8287   5.8976   6.0465   6.0852
     6.2503   6.4570

          k = 0.0148 0.0257 0.0000 ( 32097 PWs)   bands (ev):

   -66.5040 -66.4639 -66.4169 -66.3768 -66.3194 -66.2784 -32.9838 -32.9748
   -32.9444 -32.9098 -32.8827 -32.8788 -32.8089 -32.7612 -32.6941 -32.6938
   -32.6725 -32.6220 -32.5940 -32.4512 -32.3832 -32.3102 -32.2716 -32.2228
   -18.1970 -18.1953 -18.1946 -18.1934 -18.1723 -18.1546 -18.1506 -18.1489
   -18.1412 -18.1247 -18.1086 -18.1060 -18.1050 -18.1044 -18.1042 -18.0997
   -18.0920 -18.0733 -18.0728 -18.0710 -18.0699 -18.0648 -18.0571 -18.0454
   -18.0210 -18.0166 -17.9898 -17.9888 -17.9672 -17.9657 -17.9464 -17.9462
   -17.9419 -17.9399 -17.9358 -17.9320 -17.9262 -17.9258 -17.9208 -17.9147
   -17.8984 -17.8957  -6.1387  -4.2636  -3.7265  -3.4401  -3.3663  -3.3041
    -3.1430  -3.0961  -3.0597  -2.6909  -2.4411  -2.3682  -2.2909  -2.2173
    -2.1133  -1.1558  -1.1263  -0.8088  -0.6422  -0.4977  -0.3960  -0.2785
    -0.1289  -0.0810  -0.0547   0.0198   0.2915   0.4459   0.5523   1.0862
     1.1238   1.3299   1.3971   1.6216   1.6719   1.8400   1.8837   2.0599
     2.2511   2.3115   2.3619   2.5150   2.7131   2.9227   3.2354   3.2910
     3.4235   3.6334   3.6692   4.0081   4.1262   4.4058   4.5217   4.5235
     4.9695   5.0808   5.1589   5.3253   5.5890   5.7535   5.8741   5.9954
     6.0959   6.2451

          k = 0.0148 0.0425 0.0000 ( 32096 PWs)   bands (ev):

   -66.5019 -66.4660 -66.4148 -66.3789 -66.3172 -66.2805 -32.9813 -32.9430
   -32.9147 -32.9112 -32.8783 -32.8469 -32.8123 -32.7597 -32.6981 -32.6925
   -32.6680 -32.6271 -32.5991 -32.4478 -32.3870 -32.3464 -32.3084 -32.2585
   -18.1969 -18.1952 -18.1947 -18.1935 -18.1713 -18.1555 -18.1494 -18.1486
   -18.1416 -18.1262 -18.1083 -18.1060 -18.1052 -18.1044 -18.1032 -18.0985
   -18.0911 -18.0743 -18.0743 -18.0733 -18.0687 -18.0645 -18.0575 -18.0468
   -18.0199 -18.0153 -17.9912 -17.9910 -17.9661 -17.9646 -17.9472 -17.9472
   -17.9413 -17.9396 -17.9360 -17.9325 -17.9254 -17.9251 -17.9200 -17.9156
   -17.8998 -17.8979  -5.8933  -4.0233  -3.5001  -3.4771  -3.2111  -3.1282
    -3.0089  -2.9601  -2.8995  -2.5713  -2.3932  -2.2247  -2.1397  -2.0301
    -1.8662  -1.1548  -1.1036  -0.8029  -0.5566  -0.5439  -0.4365  -0.4179
    -0.2438  -0.0944  -0.0543   0.0172   0.2381   0.4263   0.4960   0.6848
     0.8922   1.2066   1.2930   1.5016   1.6797   1.7385   1.7654   1.9476
     2.0492   2.1499   2.2184   2.3467   2.4424   2.6353   2.8484   2.8710
     3.2067   3.5287   3.5865   3.9398   4.0445   4.2835   4.4565   4.5589
     4.7801   4.9210   4.9849   5.0487   5.4289   5.4590   5.7860   5.9034
     6.0026   6.2604

          k = 0.0148 0.0593 0.0000 ( 32081 PWs)   bands (ev):

   -66.4986 -66.4693 -66.4115 -66.3821 -66.3139 -66.2839 -32.9766 -32.9214
   -32.8911 -32.8717 -32.8589 -32.8180 -32.7953 -32.7562 -32.7043 -32.6886
   -32.6616 -32.6342 -32.6066 -32.4424 -32.4033 -32.3928 -32.3664 -32.3148
   -18.1966 -18.1951 -18.1949 -18.1937 -18.1698 -18.1568 -18.1480 -18.1474
   -18.1423 -18.1284 -18.1079 -18.1059 -18.1054 -18.1046 -18.1012 -18.0964
   -18.0895 -18.0767 -18.0765 -18.0757 -18.0669 -18.0639 -18.0582 -18.0490
   -18.0180 -18.0133 -17.9943 -17.9935 -17.9642 -17.9628 -17.9487 -17.9485
   -17.9405 -17.9391 -17.9363 -17.9332 -17.9248 -17.9233 -17.9186 -17.9169
   -17.9019 -17.9011  -5.5460  -3.6989  -3.6000  -3.1907  -2.9898  -2.9818
    -2.7768  -2.7724  -2.7001  -2.3927  -2.3122  -2.0300  -1.9538  -1.7564
    -1.5517  -1.1692  -1.0813  -0.7818  -0.7602  -0.6175  -0.5121  -0.4611
    -0.4247  -0.1177  -0.0568   0.0837   0.1437   0.3002   0.3305   0.4152
     0.6517   1.0276   1.0501   1.1589   1.3486   1.4250   1.5509   1.8433
     1.8588   1.9868   2.2032   2.3138   2.4215   2.4360   2.4689   2.7829
     2.9691   3.4711   3.5014   3.7020   3.9500   4.0761   4.3410   4.3685
     4.4927   4.7404   4.7848   5.0643   5.2813   5.3008   5.4857   5.7904
     5.8334   6.3650

          k = 0.0148 0.0761 0.0000 ( 32062 PWs)   bands (ev):

   -66.4943 -66.4736 -66.4072 -66.3864 -66.3095 -66.2882 -32.9697 -32.9296
   -32.8634 -32.8277 -32.8210 -32.7890 -32.7507 -32.7276 -32.7118 -32.6820
   -32.6535 -32.6427 -32.6158 -32.4769 -32.4413 -32.4347 -32.4003 -32.3872
   -18.1964 -18.1951 -18.1949 -18.1939 -18.1679 -18.1586 -18.1472 -18.1447
   -18.1431 -18.1313 -18.1075 -18.1058 -18.1056 -18.1048 -18.0982 -18.0936
   -18.0874 -18.0809 -18.0795 -18.0776 -18.0644 -18.0631 -18.0590 -18.0517
   -18.0151 -18.0105 -17.9983 -17.9965 -17.9618 -17.9605 -17.9507 -17.9502
   -17.9396 -17.9384 -17.9367 -17.9341 -17.9240 -17.9208 -17.9184 -17.9166
   -17.9051 -17.9047  -5.1214  -3.8500  -3.3456  -2.8912  -2.8692  -2.6945
    -2.5913  -2.5476  -2.4770  -2.2113  -2.1721  -1.8259  -1.7471  -1.4587
    -1.3494  -1.1740  -0.9940  -0.9906  -0.8537  -0.7938  -0.6714  -0.5776
    -0.4988  -0.1609  -0.0169   0.0062   0.1239   0.1386   0.2392   0.2652
     0.4382   0.4768   0.7167   0.7907   1.0495   1.1950   1.2462   1.6713
     1.7503   1.8320   2.1157   2.2934   2.4030   2.4872   2.7295   2.7474
     2.9914   3.3072   3.4597   3.4901   3.9081   3.9444   4.1279   4.2206
     4.4152   4.4925   4.6034   4.9575   4.9906   5.0204   5.2989   5.7221
     5.7975   6.2724

          k = 0.0148-0.1088 0.0000 ( 32055 PWs)   bands (ev):

   -66.4892 -66.4786 -66.4021 -66.3915 -66.3043 -66.2934 -32.9610 -32.9389
   -32.8541 -32.8352 -32.7433 -32.7418 -32.7200 -32.7070 -32.6732 -32.6523
   -32.6466 -32.6440 -32.6261 -32.5611 -32.5265 -32.4710 -32.4262 -32.4089
   -18.1961 -18.1954 -18.1946 -18.1941 -18.1656 -18.1607 -18.1462 -18.1441
   -18.1415 -18.1346 -18.1069 -18.1060 -18.1056 -18.1050 -18.0944 -18.0904
   -18.0855 -18.0850 -18.0829 -18.0799 -18.0621 -18.0615 -18.0600 -18.0549
   -18.0115 -18.0073 -18.0028 -17.9998 -17.9590 -17.9579 -17.9532 -17.9524
   -17.9388 -17.9375 -17.9371 -17.9351 -17.9229 -17.9200 -17.9175 -17.9140
   -17.9094 -17.9078  -4.6573  -4.2257  -3.0562  -2.8834  -2.6776  -2.4720
    -2.4158  -2.3603  -2.3282  -2.1291  -1.9601  -1.7050  -1.5532  -1.3711
    -1.3496  -1.2759  -1.1195  -1.0451  -0.8758  -0.8063  -0.7863  -0.5380
    -0.3948  -0.2571  -0.1894  -0.0826  -0.0302   0.0173   0.0464   0.1719
     0.2348   0.2720   0.4191   0.6026   0.8451   1.0567   1.2646   1.4882
     1.6479   1.7126   2.2563   2.2665   2.5197   2.5414   2.6710   3.0480
     3.1643   3.3164   3.4838   3.5676   3.8600   3.9265   4.0278   4.0800
     4.2224   4.3195   4.4119   4.5281   4.7465   4.8101   5.4458   5.6881
     5.8736   6.0989

          k = 0.0148-0.0920 0.0000 ( 32048 PWs)   bands (ev):

   -66.4840 -66.4839 -66.3968 -66.3968 -66.2989 -66.2989 -32.9509 -32.9484
   -32.8451 -32.8443 -32.7345 -32.7291 -32.6631 -32.6607 -32.6523 -32.6501
   -32.6374 -32.6338 -32.6174 -32.6166 -32.5599 -32.5589 -32.4179 -32.4172
   -18.1958 -18.1956 -18.1944 -18.1943 -18.1631 -18.1630 -18.1452 -18.1451
   -18.1381 -18.1381 -18.1064 -18.1064 -18.1054 -18.1052 -18.0901 -18.0900
   -18.0868 -18.0865 -18.0824 -18.0823 -18.0611 -18.0610 -18.0582 -18.0582
   -18.0073 -18.0072 -18.0037 -18.0034 -17.9560 -17.9559 -17.9551 -17.9550
   -17.9380 -17.9379 -17.9363 -17.9361 -17.9216 -17.9215 -17.9136 -17.9136
   -17.9110 -17.9110  -4.6782  -4.2072  -3.0366  -2.9215  -2.6746  -2.4824
    -2.4386  -2.4000  -2.1847  -2.1596  -1.8458  -1.7899  -1.5158  -1.4422
    -1.4399  -1.3323  -1.0782  -0.9729  -0.8571  -0.8182  -0.6532  -0.6406
    -0.4022  -0.3319  -0.2219  -0.2023  -0.1554  -0.0272  -0.0106   0.1308
     0.1834   0.2996   0.3676   0.5751   0.8975   1.0970   1.3611   1.4492
     1.7616   1.8692   2.2493   2.3484   2.3980   2.7578   2.8678   2.9513
     3.3510   3.4244   3.6071   3.7258   3.8192   3.8898   3.9574   4.0527
     4.0763   4.2288   4.4193   4.5445   4.7178   4.7327   5.5315   5.6501
     5.8463   6.0560

          k = 0.0148-0.0752 0.0000 ( 32071 PWs)   bands (ev):

   -66.4893 -66.4785 -66.4022 -66.3914 -66.3044 -66.2934 -32.9575 -32.9404
   -32.8552 -32.8347 -32.7387 -32.7371 -32.7244 -32.7060 -32.6682 -32.6521
   -32.6479 -32.6456 -32.6226 -32.5627 -32.5269 -32.4715 -32.4267 -32.4080
   -18.1959 -18.1954 -18.1946 -18.1941 -18.1654 -18.1608 -18.1461 -18.1441
   -18.1416 -18.1346 -18.1069 -18.1060 -18.1054 -18.1051 -18.0942 -18.0901
   -18.0854 -18.0848 -18.0831 -18.0799 -18.0620 -18.0615 -18.0600 -18.0549
   -18.0113 -18.0070 -18.0027 -18.0000 -17.9588 -17.9577 -17.9532 -17.9525
   -17.9387 -17.9374 -17.9370 -17.9352 -17.9228 -17.9200 -17.9174 -17.9140
   -17.9094 -17.9078  -5.1430  -3.8364  -3.3439  -2.9539  -2.8114  -2.7091
    -2.6241  -2.5966  -2.4027  -2.2126  -2.0504  -1.8903  -1.7438  -1.4437
    -1.4115  -1.1903  -0.9967  -0.9828  -0.8569  -0.8489  -0.7265  -0.6648
    -0.3963  -0.3216  -0.1322  -0.0540   0.0063   0.0996   0.1190   0.1299
     0.2158   0.3647   0.3676   0.8186   1.2455   1.2718   1.4200   1.6154
     2.0209   2.2118   2.2643   2.3549   2.4446   2.7023   2.9262   3.0673
     3.3106   3.3936   3.5008   3.5150   3.8354   3.9848   4.1927   4.2700
     4.3757   4.4710   4.6093   4.8041   4.8729   4.8926   5.5355   5.5977
     5.6748   6.1401

          k = 0.0148-0.0584 0.0000 ( 32116 PWs)   bands (ev):

   -66.4944 -66.4736 -66.4073 -66.3864 -66.3095 -66.2883 -32.9657 -32.9301
   -32.8648 -32.8263 -32.8188 -32.7882 -32.7443 -32.7260 -32.7146 -32.6748
   -32.6577 -32.6411 -32.6125 -32.4778 -32.4412 -32.4353 -32.3994 -32.3873
   -18.1962 -18.1951 -18.1948 -18.1938 -18.1677 -18.1586 -18.1470 -18.1447
   -18.1431 -18.1313 -18.1074 -18.1056 -18.1056 -18.1048 -18.0979 -18.0934
   -18.0872 -18.0808 -18.0796 -18.0777 -18.0644 -18.0630 -18.0590 -18.0517
   -18.0148 -18.0103 -17.9982 -17.9966 -17.9615 -17.9603 -17.9507 -17.9503
   -17.9396 -17.9380 -17.9366 -17.9341 -17.9239 -17.9207 -17.9184 -17.9165
   -17.9051 -17.9047  -5.5661  -3.7079  -3.5943  -3.1170  -3.1034  -2.9578
    -2.8226  -2.8172  -2.6783  -2.2919  -2.2796  -2.0953  -1.9676  -1.7372
    -1.5894  -1.1921  -0.9903  -0.8766  -0.8023  -0.6418  -0.5716  -0.4714
    -0.3832  -0.2694  -0.2078  -0.0543  -0.0173   0.1485   0.2370   0.2427
     0.5041   0.7072   1.0398   1.0588   1.3603   1.6282   1.6296   1.8850
     2.1154   2.2303   2.4694   2.5426   2.5488   2.6525   2.8263   3.0192
     3.1072   3.5138   3.5616   3.7918   3.9771   4.1199   4.3045   4.5259
     4.6164   4.6814   5.0775   5.1137   5.2209   5.2362   5.4265   5.6216
     5.7327   6.1894

          k = 0.0148-0.0416 0.0000 ( 32073 PWs)   bands (ev):

   -66.4987 -66.4693 -66.4116 -66.3822 -66.3139 -66.2839 -32.9727 -32.9211
   -32.8876 -32.8731 -32.8581 -32.8182 -32.7939 -32.7505 -32.7059 -32.6803
   -32.6660 -32.6318 -32.6036 -32.4426 -32.4035 -32.3920 -32.3662 -32.3146
   -18.1965 -18.1949 -18.1948 -18.1936 -18.1697 -18.1568 -18.1478 -18.1474
   -18.1422 -18.1284 -18.1078 -18.1057 -18.1053 -18.1045 -18.1008 -18.0962
   -18.0893 -18.0766 -18.0765 -18.0757 -18.0669 -18.0637 -18.0581 -18.0489
   -18.0175 -18.0131 -17.9941 -17.9935 -17.9639 -17.9627 -17.9486 -17.9484
   -17.9404 -17.9388 -17.9362 -17.9331 -17.9247 -17.9233 -17.9185 -17.9169
   -17.9019 -17.9011  -5.9097  -4.0354  -3.4796  -3.4521  -3.3053  -3.0743
    -3.0616  -3.0087  -2.8944  -2.4935  -2.3645  -2.2757  -2.1650  -2.0253
    -1.8901  -1.1682  -1.0148  -0.8129  -0.6494  -0.5195  -0.4624  -0.4415
    -0.3790  -0.2577  -0.0871  -0.0493   0.1051   0.2427   0.3244   0.4964
     0.7399   1.2605   1.3445   1.4488   1.6884   1.7927   1.9105   1.9797
     2.1666   2.2333   2.3192   2.4887   2.6249   2.9306   3.0503   3.1073
     3.1862   3.5662   3.7005   3.9538   4.2670   4.2842   4.3491   4.6495
     4.8974   5.0934   5.1636   5.2320   5.4341   5.5257   5.6923   5.7730
     6.0149   6.2390

          k = 0.0148-0.0248 0.0000 ( 32103 PWs)   bands (ev):

   -66.5020 -66.4660 -66.4149 -66.3789 -66.3173 -66.2805 -32.9783 -32.9403
   -32.9142 -32.9105 -32.8794 -32.8457 -32.8127 -32.7554 -32.6989 -32.6852
   -32.6720 -32.6247 -32.5969 -32.4479 -32.3863 -32.3463 -32.3082 -32.2582
   -18.1967 -18.1951 -18.1946 -18.1934 -18.1713 -18.1554 -18.1494 -18.1484
   -18.1416 -18.1261 -18.1083 -18.1058 -18.1051 -18.1043 -18.1029 -18.0983
   -18.0910 -18.0743 -18.0742 -18.0731 -18.0688 -18.0644 -18.0575 -18.0468
   -18.0196 -18.0152 -17.9912 -17.9908 -17.9658 -17.9645 -17.9472 -17.9471
   -17.9413 -17.9394 -17.9358 -17.9324 -17.9253 -17.9251 -17.9200 -17.9156
   -17.8997 -17.8979  -6.1495  -4.2730  -3.7032  -3.4542  -3.4300  -3.2679
    -3.1669  -3.1302  -3.0506  -2.6490  -2.4241  -2.3959  -2.3220  -2.2003
    -2.1290  -1.1623  -1.0695  -0.8160  -0.6265  -0.5154  -0.4524  -0.3102
    -0.2800  -0.1998  -0.0885   0.0390   0.2195   0.3405   0.3925   0.9123
     1.0037   1.3868   1.5339   1.7799   1.8212   1.8994   1.9789   2.0086
     2.1959   2.4353   2.5379   2.5936   2.6232   2.7772   3.2994   3.4204
     3.5719   3.6371   3.7472   4.0070   4.3114   4.4843   4.4909   4.5361
     5.0688   5.1641   5.3634   5.3871   5.4951   5.5930   5.9733   6.1200
     6.2142   6.3069

          k = 0.0296-0.0159 0.0000 ( 32104 PWs)   bands (ev):

   -66.5019 -66.4660 -66.4149 -66.3789 -66.3173 -66.2805 -32.9791 -32.9410
   -32.9143 -32.9107 -32.8791 -32.8460 -32.8126 -32.7565 -32.6986 -32.6878
   -32.6703 -32.6255 -32.5974 -32.4479 -32.3865 -32.3463 -32.3082 -32.2583
   -18.1968 -18.1951 -18.1947 -18.1935 -18.1713 -18.1554 -18.1494 -18.1485
   -18.1416 -18.1261 -18.1083 -18.1059 -18.1051 -18.1043 -18.1030 -18.0984
   -18.0910 -18.0743 -18.0742 -18.0732 -18.0687 -18.0644 -18.0575 -18.0468
   -18.0197 -18.0152 -17.9912 -17.9908 -17.9659 -17.9645 -17.9472 -17.9471
   -17.9413 -17.9394 -17.9359 -17.9324 -17.9254 -17.9251 -17.9200 -17.9156
   -17.8997 -17.8979  -6.0845  -4.2092  -3.6473  -3.5012  -3.3042  -3.2532
    -3.1441  -3.0590  -3.0281  -2.6294  -2.4429  -2.3367  -2.2720  -2.1077
    -2.1035  -1.1597  -1.0790  -0.8124  -0.6071  -0.4826  -0.4670  -0.3764
    -0.2465  -0.1514  -0.0708  -0.0019   0.2284   0.3654   0.4210   0.8529
     0.9775   1.3560   1.4962   1.6217   1.8154   1.8530   1.9183   1.9969
     2.2008   2.3509   2.4273   2.4995   2.5807   2.7829   3.2219   3.2298
     3.4257   3.6264   3.6814   4.0028   4.2922   4.3348   4.4684   4.6463
     5.0092   5.1142   5.1467   5.3075   5.4803   5.5077   5.8760   6.0851
     6.0902   6.2218

          k = 0.0296 0.0009 0.0000 ( 32097 PWs)   bands (ev):

   -66.5040 -66.4639 -66.4169 -66.3768 -66.3194 -66.2784 -32.9838 -32.9748
   -32.9444 -32.9098 -32.8827 -32.8788 -32.8089 -32.7612 -32.6941 -32.6938
   -32.6725 -32.6220 -32.5940 -32.4512 -32.3832 -32.3102 -32.2716 -32.2228
   -18.1970 -18.1953 -18.1946 -18.1934 -18.1723 -18.1546 -18.1506 -18.1489
   -18.1412 -18.1247 -18.1086 -18.1060 -18.1050 -18.1044 -18.1042 -18.0997
   -18.0920 -18.0733 -18.0728 -18.0710 -18.0699 -18.0648 -18.0571 -18.0454
   -18.0210 -18.0166 -17.9898 -17.9888 -17.9672 -17.9657 -17.9464 -17.9462
   -17.9419 -17.9399 -17.9358 -17.9320 -17.9262 -17.9258 -17.9208 -17.9147
   -17.8984 -17.8957  -6.1387  -4.2636  -3.7265  -3.4401  -3.3663  -3.3041
    -3.1430  -3.0961  -3.0597  -2.6909  -2.4411  -2.3682  -2.2909  -2.2173
    -2.1133  -1.1558  -1.1263  -0.8088  -0.6422  -0.4977  -0.3960  -0.2785
    -0.1289  -0.0810  -0.0547   0.0198   0.2915   0.4459   0.5523   1.0862
     1.1238   1.3299   1.3971   1.6216   1.6719   1.8400   1.8837   2.0599
     2.2511   2.3115   2.3619   2.5150   2.7131   2.9227   3.2354   3.2910
     3.4235   3.6334   3.6692   4.0081   4.1262   4.4058   4.5217   4.5235
     4.9695   5.0808   5.1589   5.3253   5.5890   5.7535   5.8741   5.9954
     6.0960   6.2451

          k = 0.0296 0.0177 0.0000 ( 32065 PWs)   bands (ev):

   -66.5047 -66.4632 -66.4176 -66.3761 -66.3201 -66.2777 -32.9872 -32.9864
   -32.9559 -32.9087 -32.8904 -32.8834 -32.8074 -32.7644 -32.6975 -32.6925
   -32.6727 -32.6215 -32.5937 -32.4523 -32.3823 -32.2980 -32.2592 -32.2107
   -18.1971 -18.1953 -18.1946 -18.1934 -18.1727 -18.1543 -18.1510 -18.1491
   -18.1410 -18.1243 -18.1087 -18.1061 -18.1050 -18.1050 -18.1042 -18.1003
   -18.0924 -18.0730 -18.0723 -18.0704 -18.0702 -18.0650 -18.0570 -18.0450
   -18.0216 -18.0171 -17.9892 -17.9881 -17.9677 -17.9662 -17.9462 -17.9460
   -17.9421 -17.9402 -17.9358 -17.9319 -17.9266 -17.9259 -17.9211 -17.9144
   -17.8979 -17.8950  -6.0700  -4.1958  -3.6947  -3.3817  -3.2968  -3.2965
    -3.0899  -3.0893  -2.9946  -2.6820  -2.3797  -2.3579  -2.2219  -2.2211
    -2.0291  -1.1490  -1.1474  -0.8038  -0.6210  -0.4904  -0.4156  -0.2152
    -0.0940  -0.0304   0.0009   0.0022   0.3117   0.5058   0.6673   1.0611
     1.0752   1.1475   1.3792   1.5532   1.7155   1.7269   1.8245   1.9611
     2.1327   2.1825   2.2692   2.5057   2.5978   2.9487   3.0999   3.1802
     3.2638   3.5750   3.6595   3.9756   3.9766   4.4100   4.4316   4.5246
     4.8653   5.0202   5.1746   5.3610   5.5559   5.8055   5.8181   5.8433
     5.9442   6.1376

          k = 0.0296 0.0345 0.0000 ( 32047 PWs)   bands (ev):

   -66.5039 -66.4639 -66.4168 -66.3768 -66.3193 -66.2784 -32.9867 -32.9773
   -32.9450 -32.9104 -32.8815 -32.8799 -32.8084 -32.7657 -32.6984 -32.6938
   -32.6710 -32.6238 -32.5965 -32.4511 -32.3838 -32.3104 -32.2719 -32.2231
   -18.1971 -18.1953 -18.1946 -18.1934 -18.1723 -18.1546 -18.1506 -18.1490
   -18.1412 -18.1247 -18.1086 -18.1062 -18.1051 -18.1047 -18.1043 -18.0999
   -18.0921 -18.0734 -18.0727 -18.0712 -18.0699 -18.0649 -18.0571 -18.0454
   -18.0213 -18.0167 -17.9897 -17.9890 -17.9674 -17.9659 -17.9464 -17.9464
   -17.9419 -17.9401 -17.9359 -17.9321 -17.9262 -17.9258 -17.9208 -17.9147
   -17.8984 -17.8958  -5.8826  -4.0133  -3.5725  -3.3085  -3.2863  -3.1024
    -3.0048  -2.9805  -2.8584  -2.6085  -2.3356  -2.2379  -2.1189  -2.0905
    -1.8319  -1.1459  -1.1438  -0.8081  -0.5578  -0.4970  -0.4732  -0.3092
    -0.0685  -0.0367  -0.0255   0.0532   0.2971   0.5367   0.6822   0.8022
     0.9051   1.0124   1.2968   1.5357   1.6275   1.7021   1.7571   1.8732
     1.9487   1.9946   2.1372   2.3102   2.4267   2.6349   2.7532   2.8434
     3.1262   3.4508   3.6030   3.8735   3.9695   4.2823   4.3345   4.5264
     4.8007   4.9215   5.0680   5.1165   5.3576   5.5410   5.7643   5.8956
     5.9419   6.0817

          k = 0.0296 0.0513 0.0000 ( 32061 PWs)   bands (ev):

   -66.5018 -66.4660 -66.4147 -66.3788 -66.3172 -66.2805 -32.9844 -32.9457
   -32.9151 -32.9119 -32.8770 -32.8481 -32.8118 -32.7648 -32.6978 -32.6963
   -32.6672 -32.6282 -32.6020 -32.4477 -32.3876 -32.3465 -32.3087 -32.2588
   -18.1970 -18.1953 -18.1948 -18.1935 -18.1714 -18.1555 -18.1494 -18.1487
   -18.1416 -18.1262 -18.1084 -18.1062 -18.1052 -18.1044 -18.1035 -18.0987
   -18.0912 -18.0743 -18.0742 -18.0734 -18.0687 -18.0645 -18.0575 -18.0468
   -18.0203 -18.0155 -17.9912 -17.9911 -17.9663 -17.9648 -17.9473 -17.9472
   -17.9414 -17.9399 -17.9361 -17.9326 -17.9255 -17.9252 -17.9200 -17.9156
   -17.8998 -17.8979  -5.5872  -3.7361  -3.3940  -3.3859  -3.0742  -2.9451
    -2.8499  -2.7596  -2.6784  -2.4761  -2.2594  -2.0561  -1.9282  -1.9191
    -1.5547  -1.1601  -1.1219  -0.8126  -0.6464  -0.5424  -0.4831  -0.4306
    -0.2485  -0.0789  -0.0172   0.1296   0.2609   0.4503   0.4852   0.5624
     0.7501   0.9017   1.1251   1.3250   1.4508   1.5782   1.6098   1.6581
     1.7937   1.8789   2.0455   2.2010   2.2368   2.3496   2.3508   2.6312
     2.9442   3.3539   3.5206   3.7093   3.8604   4.0922   4.2258   4.4445
     4.5856   4.8440   4.9470   4.9592   5.2776   5.4209   5.6536   5.8458
     5.8515   6.1586

          k = 0.0296 0.0681 0.0000 ( 32025 PWs)   bands (ev):

   -66.4985 -66.4693 -66.4114 -66.3821 -66.3138 -66.2838 -32.9794 -32.9215
   -32.8936 -32.8705 -32.8596 -32.8176 -32.7964 -32.7612 -32.7037 -32.6911
   -32.6612 -32.6344 -32.6098 -32.4422 -32.4032 -32.3934 -32.3665 -32.3150
   -18.1968 -18.1951 -18.1949 -18.1937 -18.1699 -18.1568 -18.1480 -18.1474
   -18.1422 -18.1284 -18.1080 -18.1061 -18.1054 -18.1046 -18.1014 -18.0966
   -18.0896 -18.0768 -18.0765 -18.0757 -18.0669 -18.0639 -18.0581 -18.0489
   -18.0182 -18.0134 -17.9944 -17.9934 -17.9644 -17.9630 -17.9488 -17.9485
   -17.9406 -17.9393 -17.9363 -17.9332 -17.9249 -17.9233 -17.9186 -17.9169
   -17.9019 -17.9011  -5.2023  -3.5776  -3.4072  -3.1912  -2.8195  -2.7672
    -2.6576  -2.5223  -2.4629  -2.2890  -2.1434  -1.8525  -1.7418  -1.6485
    -1.3838  -1.1966  -1.0063  -0.8444  -0.8026  -0.7140  -0.6037  -0.4865
    -0.4292  -0.1542   0.0073   0.0759   0.1208   0.2769   0.3291   0.4025
     0.5908   0.7208   0.7562   1.0222   1.0861   1.2026   1.2940   1.5705
     1.6004   1.8581   1.8990   2.2024   2.2228   2.3882   2.4532   2.7051
     2.7110   3.2233   3.4447   3.4879   3.8165   3.9569   4.2095   4.2260
     4.4522   4.7164   4.8047   5.0647   5.1744   5.2225   5.4077   5.6942
     5.7914   6.2228

          k = 0.0296-0.1167 0.0000 ( 32036 PWs)   bands (ev):

   -66.4942 -66.4736 -66.4071 -66.3865 -66.3094 -66.2882 -32.9720 -32.9294
   -32.8624 -32.8288 -32.8216 -32.7895 -32.7552 -32.7284 -32.7110 -32.6834
   -32.6532 -32.6415 -32.6192 -32.4765 -32.4412 -32.4346 -32.4008 -32.3872
   -18.1965 -18.1951 -18.1950 -18.1939 -18.1679 -18.1586 -18.1472 -18.1447
   -18.1431 -18.1313 -18.1075 -18.1060 -18.1056 -18.1048 -18.0984 -18.0938
   -18.0875 -18.0810 -18.0794 -18.0776 -18.0644 -18.0631 -18.0590 -18.0517
   -18.0153 -18.0107 -17.9985 -17.9964 -17.9619 -17.9606 -17.9508 -17.9502
   -17.9397 -17.9385 -17.9367 -17.9341 -17.9240 -17.9208 -17.9184 -17.9166
   -17.9051 -17.9047  -4.7566  -3.9034  -3.1275  -2.9826  -2.7467  -2.4979
    -2.4104  -2.3566  -2.2640  -2.0656  -2.0179  -1.6873  -1.5870  -1.4057
    -1.3600  -1.2068  -1.0328  -1.0036  -0.9547  -0.8261  -0.6713  -0.5604
    -0.4789  -0.2386  -0.0975  -0.0348   0.0047   0.1111   0.1365   0.1816
     0.3533   0.3949   0.5633   0.5724   0.8747   1.0503   1.1669   1.4886
     1.5590   1.6154   2.0932   2.2269   2.3274   2.4892   2.5818   2.8823
     2.9550   3.0274   3.4539   3.4630   3.8031   3.9539   4.1458   4.1906
     4.4204   4.4878   4.6015   4.8872   4.9687   5.0367   5.2360   5.5988
     5.8316   6.1428

          k = 0.0296-0.0999 0.0000 ( 32057 PWs)   bands (ev):

   -66.4892 -66.4786 -66.4021 -66.3915 -66.3043 -66.2933 -32.9626 -32.9382
   -32.8533 -32.8352 -32.7469 -32.7429 -32.7191 -32.7075 -32.6736 -32.6502
   -32.6469 -32.6437 -32.6296 -32.5604 -32.5264 -32.4707 -32.4260 -32.4093
   -18.1962 -18.1953 -18.1947 -18.1941 -18.1656 -18.1607 -18.1463 -18.1441
   -18.1415 -18.1346 -18.1070 -18.1060 -18.1057 -18.1050 -18.0945 -18.0905
   -18.0855 -18.0850 -18.0829 -18.0798 -18.0622 -18.0615 -18.0600 -18.0549
   -18.0116 -18.0074 -18.0029 -17.9998 -17.9591 -17.9580 -17.9532 -17.9524
   -17.9388 -17.9375 -17.9372 -17.9351 -17.9229 -17.9200 -17.9175 -17.9141
   -17.9094 -17.9078  -4.3313  -4.2933  -3.0245  -2.8085  -2.8049  -2.4487
    -2.3075  -2.2151  -2.0981  -1.9563  -1.8773  -1.6414  -1.5367  -1.4422
    -1.3631  -1.2993  -1.1747  -1.0827  -0.8259  -0.8181  -0.7459  -0.4766
    -0.4474  -0.3846  -0.3645  -0.2916  -0.1799  -0.0790  -0.0653   0.1801
     0.2258   0.3023   0.5117   0.5292   0.5982   1.0304   1.3470   1.3832
     1.6073   1.7622   2.2574   2.2619   2.3612   2.5809   2.8226   2.8911
     3.1225   3.4170   3.4888   3.6263   3.8153   4.0135   4.0418   4.2785
     4.2918   4.3048   4.5028   4.5228   4.7865   4.8614   5.3187   5.5473
     5.9576   6.0618

          k = 0.0296-0.0831 0.0000 ( 32072 PWs)   bands (ev):

   -66.4840 -66.4839 -66.3969 -66.3968 -66.2989 -66.2989 -32.9519 -32.9475
   -32.8452 -32.8438 -32.7369 -32.7277 -32.6627 -32.6576 -32.6530 -32.6493
   -32.6406 -32.6333 -32.6178 -32.6165 -32.5603 -32.5586 -32.4182 -32.4169
   -18.1958 -18.1956 -18.1944 -18.1943 -18.1632 -18.1630 -18.1452 -18.1451
   -18.1381 -18.1381 -18.1065 -18.1064 -18.1054 -18.1052 -18.0901 -18.0900
   -18.0869 -18.0865 -18.0825 -18.0823 -18.0611 -18.0610 -18.0582 -18.0582
   -18.0073 -18.0072 -18.0038 -18.0034 -17.9561 -17.9559 -17.9552 -17.9549
   -17.9380 -17.9379 -17.9363 -17.9361 -17.9216 -17.9215 -17.9136 -17.9136
   -17.9110 -17.9110  -4.7980  -3.8735  -3.0743  -3.0523  -2.7603  -2.5456
    -2.4317  -2.4067  -2.0652  -2.0533  -1.8448  -1.7851  -1.5487  -1.5146
    -1.4550  -1.3251  -1.0646  -0.9605  -0.8678  -0.7941  -0.6651  -0.6625
    -0.4734  -0.4701  -0.2811  -0.2186  -0.1942  -0.1109  -0.0499   0.0954
     0.1354   0.2695   0.3827   0.6437   0.9015   1.1730   1.3776   1.4707
     1.8757   2.0625   2.2532   2.3978   2.4193   2.7736   2.9328   2.9897
     3.2778   3.4579   3.5815   3.6888   3.8396   3.9140   4.0528   4.1030
     4.3514   4.4045   4.6194   4.7391   4.7998   4.9828   5.3928   5.4871
     5.8949   5.9049

          k = 0.0296-0.0663 0.0000 ( 32103 PWs)   bands (ev):

   -66.4894 -66.4785 -66.4023 -66.3914 -66.3044 -66.2934 -32.9566 -32.9408
   -32.8555 -32.8345 -32.7374 -32.7358 -32.7264 -32.7056 -32.6646 -32.6513
   -32.6508 -32.6453 -32.6223 -32.5631 -32.5270 -32.4716 -32.4269 -32.4078
   -18.1959 -18.1954 -18.1946 -18.1941 -18.1654 -18.1608 -18.1461 -18.1442
   -18.1416 -18.1346 -18.1069 -18.1060 -18.1054 -18.1051 -18.0942 -18.0901
   -18.0854 -18.0848 -18.0832 -18.0800 -18.0620 -18.0615 -18.0600 -18.0549
   -18.0112 -18.0070 -18.0027 -18.0001 -17.9587 -17.9577 -17.9532 -17.9526
   -17.9387 -17.9373 -17.9370 -17.9352 -17.9228 -17.9201 -17.9174 -17.9140
   -17.9094 -17.9078  -5.2434  -3.5653  -3.4054  -3.2059  -2.8250  -2.7745
    -2.7308  -2.6234  -2.3849  -2.1385  -2.0563  -1.9825  -1.7499  -1.5936
    -1.4472  -1.1864  -1.0454  -1.0032  -0.8311  -0.7287  -0.6815  -0.5799
    -0.4278  -0.3832  -0.2271  -0.1046  -0.0968   0.0760   0.0949   0.1381
     0.2197   0.4047   0.4063   0.8583   1.3416   1.3935   1.5000   1.5832
     2.1526   2.2877   2.4091   2.4517   2.6220   2.6293   2.9612   3.0943
     3.3379   3.4214   3.5025   3.5487   3.7772   4.0337   4.2496   4.2879
     4.4781   4.7132   4.8522   5.0035   5.1832   5.3076   5.4000   5.6043
     5.6973   5.8707

          k = 0.0296-0.0495 0.0000 ( 32129 PWs)   bands (ev):

   -66.4944 -66.4736 -66.4073 -66.3864 -66.3095 -66.2883 -32.9651 -32.9302
   -32.8650 -32.8261 -32.8184 -32.7881 -32.7435 -32.7257 -32.7152 -32.6724
   -32.6595 -32.6405 -32.6122 -32.4779 -32.4411 -32.4354 -32.3993 -32.3873
   -18.1962 -18.1951 -18.1948 -18.1938 -18.1677 -18.1587 -18.1470 -18.1447
   -18.1431 -18.1313 -18.1074 -18.1056 -18.1056 -18.1048 -18.0978 -18.0934
   -18.0872 -18.0807 -18.0797 -18.0777 -18.0644 -18.0629 -18.0590 -18.0517
   -18.0147 -18.0103 -17.9982 -17.9966 -17.9615 -17.9603 -17.9507 -17.9503
   -17.9396 -17.9380 -17.9366 -17.9341 -17.9239 -17.9207 -17.9184 -17.9165
   -17.9051 -17.9047  -5.6235  -3.7562  -3.4274  -3.3170  -3.1506  -2.9382
    -2.9121  -2.8353  -2.6840  -2.2913  -2.2406  -2.1712  -1.9729  -1.8625
    -1.6102  -1.1970  -0.9669  -0.8659  -0.8194  -0.5880  -0.5226  -0.4244
    -0.3880  -0.3441  -0.2404  -0.0938  -0.0532   0.1488   0.2202   0.2575
     0.5134   0.7336   1.0763   1.0780   1.4065   1.6875   1.7437   1.9055
     2.1231   2.3171   2.3691   2.6067   2.6716   2.8678   2.8996   2.9233
     3.1322   3.5337   3.5913   3.8708   3.9186   4.1738   4.2510   4.6252
     4.7172   4.7874   5.1923   5.3081   5.3345   5.4164   5.5160   5.5683
     6.0235   6.1020

          k = 0.0296-0.0327 0.0000 ( 32073 PWs)   bands (ev):

   -66.4987 -66.4693 -66.4116 -66.3822 -66.3139 -66.2839 -32.9727 -32.9211
   -32.8876 -32.8731 -32.8581 -32.8182 -32.7939 -32.7505 -32.7059 -32.6803
   -32.6660 -32.6318 -32.6036 -32.4426 -32.4035 -32.3920 -32.3662 -32.3146
   -18.1965 -18.1949 -18.1948 -18.1936 -18.1697 -18.1568 -18.1478 -18.1474
   -18.1422 -18.1284 -18.1078 -18.1057 -18.1053 -18.1045 -18.1008 -18.0962
   -18.0893 -18.0766 -18.0765 -18.0757 -18.0669 -18.0637 -18.0581 -18.0489
   -18.0175 -18.0131 -17.9941 -17.9935 -17.9639 -17.9627 -17.9486 -17.9484
   -17.9404 -17.9388 -17.9362 -17.9331 -17.9247 -17.9233 -17.9185 -17.9169
   -17.9019 -17.9011  -5.9097  -4.0354  -3.4796  -3.4521  -3.3053  -3.0743
    -3.0616  -3.0087  -2.8944  -2.4935  -2.3645  -2.2757  -2.1650  -2.0253
    -1.8901  -1.1682  -1.0148  -0.8129  -0.6494  -0.5195  -0.4624  -0.4415
    -0.3790  -0.2577  -0.0871  -0.0493   0.1051   0.2427   0.3244   0.4964
     0.7399   1.2605   1.3445   1.4488   1.6884   1.7927   1.9105   1.9797
     2.1666   2.2333   2.3192   2.4887   2.6249   2.9306   3.0503   3.1073
     3.1862   3.5662   3.7005   3.9538   4.2670   4.2842   4.3491   4.6495
     4.8974   5.0934   5.1636   5.2320   5.4341   5.5257   5.6923   5.7730
     6.0149   6.2391

          k = 0.0444-0.0239 0.0000 ( 32129 PWs)   bands (ev):

   -66.4986 -66.4693 -66.4115 -66.3822 -66.3139 -66.2839 -32.9742 -32.9212
   -32.8889 -32.8726 -32.8584 -32.8182 -32.7944 -32.7524 -32.7052 -32.6844
   -32.6635 -32.6330 -32.6045 -32.4426 -32.4034 -32.3923 -32.3663 -32.3147
   -18.1966 -18.1950 -18.1949 -18.1936 -18.1698 -18.1568 -18.1479 -18.1474
   -18.1423 -18.1284 -18.1079 -18.1058 -18.1053 -18.1045 -18.1009 -18.0963
   -18.0894 -18.0766 -18.0766 -18.0757 -18.0669 -18.0638 -18.0582 -18.0489
   -18.0177 -18.0131 -17.9942 -17.9936 -17.9640 -17.9627 -17.9486 -17.9485
   -17.9405 -17.9389 -17.9363 -17.9332 -17.9248 -17.9233 -17.9186 -17.9169
   -17.9019 -17.9011  -5.7864  -3.9199  -3.5718  -3.3486  -3.1238  -3.0349
    -3.0069  -2.8830  -2.8573  -2.4601  -2.3832  -2.1745  -2.0981  -1.8429
    -1.8303  -1.1667  -1.0454  -0.7981  -0.6826  -0.5363  -0.5129  -0.4258
    -0.3943  -0.1564  -0.1177   0.0002   0.1224   0.2708   0.3641   0.4303
     0.7091   1.2108   1.2524   1.3669   1.5217   1.6079   1.7906   1.9589
     2.1037   2.1399   2.3269   2.4200   2.4611   2.7804   2.8156   2.8918
     3.1408   3.5427   3.6115   3.8960   4.1288   4.2127   4.3800   4.6230
     4.7455   4.7775   4.9177   5.1023   5.3570   5.3840   5.6201   5.8134
     5.8311   6.3306

          k = 0.0444-0.0071 0.0000 ( 32096 PWs)   bands (ev):

   -66.5019 -66.4660 -66.4148 -66.3789 -66.3172 -66.2805 -32.9813 -32.9430
   -32.9147 -32.9112 -32.8783 -32.8469 -32.8123 -32.7597 -32.6981 -32.6925
   -32.6680 -32.6271 -32.5991 -32.4478 -32.3870 -32.3464 -32.3084 -32.2585
   -18.1969 -18.1952 -18.1947 -18.1935 -18.1713 -18.1555 -18.1494 -18.1486
   -18.1416 -18.1262 -18.1083 -18.1060 -18.1052 -18.1044 -18.1032 -18.0985
   -18.0911 -18.0743 -18.0743 -18.0733 -18.0687 -18.0645 -18.0575 -18.0468
   -18.0199 -18.0153 -17.9912 -17.9910 -17.9661 -17.9646 -17.9472 -17.9472
   -17.9413 -17.9396 -17.9360 -17.9325 -17.9254 -17.9251 -17.9200 -17.9156
   -17.8998 -17.8979  -5.8933  -4.0233  -3.5001  -3.4771  -3.2111  -3.1282
    -3.0089  -2.9601  -2.8995  -2.5713  -2.3932  -2.2247  -2.1397  -2.0301
    -1.8662  -1.1548  -1.1036  -0.8029  -0.5566  -0.5439  -0.4365  -0.4179
    -0.2438  -0.0944  -0.0543   0.0172   0.2381   0.4263   0.4960   0.6848
     0.8922   1.2066   1.2930   1.5016   1.6797   1.7385   1.7654   1.9476
     2.0492   2.1499   2.2184   2.3467   2.4424   2.6353   2.8484   2.8710
     3.2067   3.5287   3.5865   3.9398   4.0445   4.2835   4.4565   4.5589
     4.7801   4.9210   4.9849   5.0487   5.4289   5.4590   5.7860   5.9034
     6.0025   6.2601

          k = 0.0444 0.0098 0.0000 ( 32047 PWs)   bands (ev):

   -66.5039 -66.4639 -66.4168 -66.3768 -66.3193 -66.2784 -32.9867 -32.9773
   -32.9450 -32.9104 -32.8815 -32.8799 -32.8084 -32.7657 -32.6984 -32.6938
   -32.6710 -32.6238 -32.5965 -32.4511 -32.3838 -32.3104 -32.2719 -32.2231
   -18.1971 -18.1953 -18.1946 -18.1934 -18.1723 -18.1546 -18.1506 -18.1490
   -18.1412 -18.1247 -18.1086 -18.1062 -18.1051 -18.1047 -18.1043 -18.0999
   -18.0921 -18.0734 -18.0727 -18.0712 -18.0699 -18.0649 -18.0571 -18.0454
   -18.0213 -18.0167 -17.9897 -17.9890 -17.9674 -17.9659 -17.9464 -17.9464
   -17.9419 -17.9401 -17.9359 -17.9321 -17.9262 -17.9258 -17.9208 -17.9147
   -17.8984 -17.8958  -5.8826  -4.0133  -3.5725  -3.3085  -3.2863  -3.1024
    -3.0048  -2.9805  -2.8584  -2.6085  -2.3356  -2.2379  -2.1189  -2.0905
    -1.8319  -1.1459  -1.1438  -0.8081  -0.5578  -0.4970  -0.4732  -0.3092
    -0.0685  -0.0367  -0.0255   0.0532   0.2971   0.5367   0.6822   0.8022
     0.9051   1.0124   1.2968   1.5357   1.6275   1.7021   1.7571   1.8732
     1.9487   1.9946   2.1372   2.3102   2.4267   2.6349   2.7532   2.8434
     3.1262   3.4508   3.6030   3.8735   3.9695   4.2823   4.3345   4.5264
     4.8007   4.9215   5.0680   5.1165   5.3576   5.5410   5.7642   5.8956
     5.9419   6.0820

          k = 0.0444 0.0266 0.0000 ( 32022 PWs)   bands (ev):

   -66.5046 -66.4632 -66.4175 -66.3761 -66.3200 -66.2776 -32.9901 -32.9898
   -32.9566 -32.9094 -32.8917 -32.8820 -32.8068 -32.7699 -32.7015 -32.6926
   -32.6721 -32.6229 -32.5969 -32.4522 -32.3829 -32.2983 -32.2596 -32.2112
   -18.1972 -18.1954 -18.1946 -18.1934 -18.1727 -18.1543 -18.1511 -18.1492
   -18.1411 -18.1243 -18.1088 -18.1063 -18.1053 -18.1050 -18.1042 -18.1005
   -18.0925 -18.0731 -18.0722 -18.0706 -18.0703 -18.0651 -18.0570 -18.0450
   -18.0220 -18.0173 -17.9892 -17.9884 -17.9680 -17.9664 -17.9462 -17.9461
   -17.9422 -17.9404 -17.9358 -17.9320 -17.9266 -17.9260 -17.9211 -17.9144
   -17.8979 -17.8950  -5.7558  -3.8954  -3.5879  -3.2323  -3.0928  -3.0735
    -2.9807  -2.9163  -2.7460  -2.5792  -2.2449  -2.1962  -2.1018  -1.9664
    -1.7018  -1.1576  -1.1419  -0.8306  -0.5175  -0.5157  -0.5006  -0.3156
    -0.0112   0.0442   0.0470   0.1006   0.3273   0.6168   0.6991   0.7023
     0.8571   0.8652   1.3405   1.4052   1.5632   1.6048   1.7207   1.7684
     1.7966   1.8760   1.9452   2.1857   2.2244   2.4790   2.6357   2.6893
     2.9493   3.3680   3.5790   3.8467   3.8485   4.1451   4.1841   4.5780
     4.8058   4.8143   4.9601   5.0948   5.2010   5.6176   5.6627   5.7012
     5.9182   5.9205

          k = 0.0444 0.0434 0.0000 ( 32019 PWs)   bands (ev):

   -66.5038 -66.4639 -66.4167 -66.3768 -66.3193 -66.2783 -32.9901 -32.9802
   -32.9457 -32.9112 -32.8812 -32.8800 -32.8077 -32.7716 -32.7015 -32.6941
   -32.6711 -32.6244 -32.6003 -32.4510 -32.3845 -32.3107 -32.2724 -32.2235
   -18.1972 -18.1954 -18.1947 -18.1934 -18.1725 -18.1547 -18.1506 -18.1491
   -18.1412 -18.1248 -18.1087 -18.1064 -18.1051 -18.1050 -18.1043 -18.1002
   -18.0922 -18.0734 -18.0727 -18.0714 -18.0699 -18.0650 -18.0571 -18.0454
   -18.0217 -18.0170 -17.9897 -17.9892 -17.9677 -17.9661 -17.9465 -17.9464
   -17.9420 -17.9404 -17.9359 -17.9322 -17.9263 -17.9259 -17.9209 -17.9147
   -17.8984 -17.8958  -5.5198  -3.6968  -3.5392  -3.1212  -3.0572  -2.8827
    -2.8814  -2.7479  -2.5855  -2.4897  -2.1727  -2.0437  -1.9861  -1.8165
    -1.4825  -1.1565  -1.1391  -0.8711  -0.5955  -0.5449  -0.4406  -0.4263
    -0.0375   0.0059   0.0221   0.1842   0.3437   0.4569   0.5512   0.6347
     0.7369   0.8814   1.2013   1.3532   1.3651   1.5323   1.5416   1.6043
     1.6440   1.8063   1.9411   1.9614   2.0882   2.1502   2.3035   2.4854
     2.8131   3.2512   3.5225   3.6570   3.7914   4.0238   4.0874   4.4854
     4.6266   4.8275   4.8464   5.0204   5.0908   5.5546   5.6148   5.6236
     5.7844   6.0359

          k = 0.0444 0.0602 0.0000 ( 31989 PWs)   bands (ev):

   -66.5017 -66.4660 -66.4146 -66.3788 -66.3172 -66.2804 -32.9874 -32.9482
   -32.9155 -32.9127 -32.8756 -32.8492 -32.8112 -32.7703 -32.6983 -32.6980
   -32.6676 -32.6279 -32.6061 -32.4475 -32.3882 -32.3466 -32.3090 -32.2591
   -18.1971 -18.1954 -18.1948 -18.1935 -18.1715 -18.1555 -18.1494 -18.1487
   -18.1416 -18.1262 -18.1084 -18.1064 -18.1052 -18.1044 -18.1038 -18.0988
   -18.0912 -18.0743 -18.0741 -18.0736 -18.0687 -18.0646 -18.0575 -18.0468
   -18.0205 -18.0157 -17.9913 -17.9911 -17.9666 -17.9649 -17.9474 -17.9472
   -17.9415 -17.9401 -17.9361 -17.9326 -17.9256 -17.9252 -17.9201 -17.9156
   -17.8997 -17.8979  -5.1876  -3.5426  -3.3338  -3.2599  -2.7915  -2.7491
    -2.7178  -2.4871  -2.4047  -2.3431  -2.0635  -1.8521  -1.7903  -1.6543
    -1.3673  -1.2063  -1.0062  -0.8816  -0.7187  -0.6252  -0.5983  -0.3810
    -0.2592  -0.1219   0.0203   0.1003   0.1498   0.4102   0.4762   0.5011
     0.6432   0.7848   0.9066   0.9153   1.2392   1.3028   1.3521   1.4751
     1.4773   1.6748   1.8108   1.9438   2.1000   2.1380   2.2571   2.4584
     2.6467   3.0809   3.4523   3.4795   3.7329   3.8988   4.1367   4.2864
     4.4725   4.8699   4.9198   4.9322   5.0079   5.3997   5.5502   5.5692
     5.7226   5.8497

          k = 0.0444-0.1247 0.0000 ( 32019 PWs)   bands (ev):

   -66.4984 -66.4693 -66.4113 -66.3821 -66.3138 -66.2838 -32.9819 -32.9217
   -32.8956 -32.8693 -32.8602 -32.8171 -32.7973 -32.7660 -32.7037 -32.6922
   -32.6617 -32.6329 -32.6139 -32.4420 -32.4031 -32.3939 -32.3667 -32.3151
   -18.1969 -18.1952 -18.1950 -18.1937 -18.1700 -18.1568 -18.1481 -18.1474
   -18.1423 -18.1284 -18.1080 -18.1063 -18.1054 -18.1046 -18.1016 -18.0968
   -18.0896 -18.0770 -18.0764 -18.0757 -18.0669 -18.0640 -18.0582 -18.0490
   -18.0184 -18.0136 -17.9946 -17.9934 -17.9646 -17.9631 -17.9489 -17.9485
   -17.9407 -17.9395 -17.9364 -17.9333 -17.9250 -17.9234 -17.9187 -17.9168
   -17.9019 -17.9011  -4.7800  -3.5324  -3.4518  -3.0261  -2.6364  -2.5378
    -2.4707  -2.2745  -2.2144  -2.1361  -1.9213  -1.6964  -1.5602  -1.5518
    -1.3510  -1.2889  -0.9067  -0.8819  -0.8636  -0.8087  -0.6446  -0.4713
    -0.4304  -0.2952  -0.0613  -0.0421   0.0619   0.1546   0.3013   0.3323
     0.3464   0.5303   0.5754   0.8238   1.0069   1.0113   1.1473   1.3359
     1.4687   1.5483   1.8664   2.0453   2.1374   2.4105   2.4617   2.5679
     2.7039   2.9084   3.4179   3.4260   3.7126   3.9303   4.1851   4.1984
     4.4391   4.6861   4.8234   4.9668   5.0201   5.1812   5.4218   5.5916
     5.5967   5.6682

          k = 0.0444-0.1079 0.0000 ( 32030 PWs)   bands (ev):

   -66.4942 -66.4736 -66.4070 -66.3865 -66.3094 -66.2882 -32.9737 -32.9292
   -32.8616 -32.8298 -32.8218 -32.7900 -32.7588 -32.7290 -32.7108 -32.6837
   -32.6536 -32.6391 -32.6231 -32.4761 -32.4410 -32.4346 -32.4012 -32.3872
   -18.1966 -18.1951 -18.1950 -18.1939 -18.1680 -18.1586 -18.1473 -18.1447
   -18.1431 -18.1313 -18.1075 -18.1061 -18.1056 -18.1048 -18.0985 -18.0939
   -18.0875 -18.0811 -18.0794 -18.0776 -18.0644 -18.0632 -18.0590 -18.0517
   -18.0154 -18.0108 -17.9986 -17.9963 -17.9621 -17.9607 -17.9509 -17.9502
   -17.9398 -17.9386 -17.9368 -17.9341 -17.9241 -17.9208 -17.9184 -17.9167
   -17.9051 -17.9047  -4.3293  -3.9256  -3.3954  -2.7689  -2.6038  -2.4298
    -2.1593  -2.1305  -2.0808  -1.9034  -1.8316  -1.6642  -1.5556  -1.4473
    -1.2424  -1.2038  -1.1499  -1.0800  -0.9811  -0.8834  -0.6044  -0.5267
    -0.4448  -0.4360  -0.3397  -0.3152  -0.1319  -0.0324   0.1029   0.2177
     0.2262   0.3367   0.3755   0.6125   0.8076   0.9173   1.2796   1.3387
     1.4384   1.5859   2.0650   2.2102   2.2421   2.3372   2.7435   2.8128
     2.9026   3.0719   3.4455   3.4998   3.7467   4.0410   4.2184   4.2864
     4.4983   4.5253   4.6151   4.7783   4.9630   5.0843   5.1440   5.4477
     5.5744   5.6591

          k = 0.0444-0.0911 0.0000 ( 32096 PWs)   bands (ev):

   -66.4892 -66.4786 -66.4021 -66.3915 -66.3043 -66.2933 -32.9635 -32.9379
   -32.8528 -32.8351 -32.7491 -32.7435 -32.7189 -32.7077 -32.6734 -32.6485
   -32.6462 -32.6438 -32.6329 -32.5600 -32.5263 -32.4706 -32.4258 -32.4095
   -18.1962 -18.1954 -18.1947 -18.1941 -18.1657 -18.1607 -18.1463 -18.1440
   -18.1415 -18.1346 -18.1070 -18.1060 -18.1058 -18.1050 -18.0946 -18.0906
   -18.0856 -18.0851 -18.0828 -18.0798 -18.0622 -18.0614 -18.0599 -18.0549
   -18.0117 -18.0075 -18.0029 -17.9998 -17.9592 -17.9580 -17.9532 -17.9524
   -17.9389 -17.9376 -17.9373 -17.9351 -17.9230 -17.9200 -17.9175 -17.9141
   -17.9094 -17.9078  -4.3823  -3.8883  -3.3894  -2.7471  -2.6531  -2.4665
    -2.2384  -2.1248  -1.8654  -1.8115  -1.7879  -1.6539  -1.5686  -1.5516
    -1.4827  -1.2245  -1.1187  -1.0164  -0.9184  -0.8188  -0.7713  -0.6119
    -0.5606  -0.4776  -0.4087  -0.3600  -0.3491  -0.1327  -0.0867   0.1650
     0.1976   0.3634   0.3777   0.5579   0.5939   1.0206   1.3363   1.3906
     1.6326   1.8420   2.2194   2.2568   2.3988   2.5546   2.7571   3.0242
     3.0654   3.5029   3.5188   3.5829   3.8072   4.0588   4.2090   4.2950
     4.3688   4.4646   4.6329   4.7594   4.8299   5.0469   5.1921   5.4044
     5.4553   5.6546

          k = 0.0444-0.0743 0.0000 ( 32107 PWs)   bands (ev):

   -66.4840 -66.4839 -66.3969 -66.3967 -66.2989 -66.2988 -32.9523 -32.9472
   -32.8453 -32.8436 -32.7379 -32.7272 -32.6624 -32.6559 -32.6530 -32.6489
   -32.6425 -32.6332 -32.6180 -32.6165 -32.5604 -32.5585 -32.4183 -32.4168
   -18.1958 -18.1956 -18.1944 -18.1943 -18.1632 -18.1630 -18.1452 -18.1451
   -18.1381 -18.1381 -18.1065 -18.1064 -18.1055 -18.1052 -18.0902 -18.0901
   -18.0869 -18.0865 -18.0825 -18.0823 -18.0611 -18.0610 -18.0582 -18.0582
   -18.0074 -18.0072 -18.0038 -18.0034 -17.9561 -17.9559 -17.9552 -17.9550
   -17.9380 -17.9379 -17.9364 -17.9361 -17.9216 -17.9215 -17.9136 -17.9136
   -17.9110 -17.9110  -4.8380  -3.5776  -3.3732  -3.0547  -2.6802  -2.6105
    -2.4318  -2.4048  -2.0338  -1.9821  -1.8333  -1.8011  -1.5590  -1.5514
    -1.3778  -1.3349  -1.2486  -0.8831  -0.8616  -0.7792  -0.6681  -0.5821
    -0.5693  -0.4635  -0.4011  -0.2389  -0.2104  -0.1281  -0.0586   0.0607
     0.1147   0.2374   0.4358   0.6516   0.9163   1.2335   1.3400   1.4697
     1.9607   2.1392   2.2265   2.4715   2.4787   2.6925   2.9116   3.0951
     3.2441   3.4762   3.5865   3.6435   3.8488   3.9119   4.0890   4.1430
     4.4145   4.5291   4.7727   4.8521   5.1626   5.3212   5.3505   5.3952
     5.5535   5.5864

          k = 0.0444-0.0575 0.0000 ( 32103 PWs)   bands (ev):

   -66.4894 -66.4785 -66.4023 -66.3914 -66.3044 -66.2934 -32.9566 -32.9408
   -32.8555 -32.8345 -32.7374 -32.7358 -32.7264 -32.7056 -32.6646 -32.6513
   -32.6508 -32.6453 -32.6223 -32.5631 -32.5270 -32.4716 -32.4269 -32.4078
   -18.1959 -18.1954 -18.1946 -18.1941 -18.1654 -18.1608 -18.1461 -18.1442
   -18.1416 -18.1346 -18.1069 -18.1060 -18.1054 -18.1051 -18.0942 -18.0901
   -18.0854 -18.0848 -18.0832 -18.0800 -18.0620 -18.0615 -18.0600 -18.0549
   -18.0112 -18.0070 -18.0027 -18.0001 -17.9587 -17.9577 -17.9532 -17.9526
   -17.9387 -17.9373 -17.9370 -17.9352 -17.9228 -17.9201 -17.9174 -17.9140
   -17.9094 -17.9078  -5.2434  -3.5653  -3.4054  -3.2059  -2.8250  -2.7745
    -2.7308  -2.6234  -2.3849  -2.1385  -2.0563  -1.9825  -1.7499  -1.5936
    -1.4472  -1.1864  -1.0454  -1.0032  -0.8311  -0.7287  -0.6815  -0.5799
    -0.4278  -0.3832  -0.2271  -0.1046  -0.0968   0.0760   0.0949   0.1381
     0.2197   0.4047   0.4063   0.8583   1.3416   1.3935   1.5000   1.5832
     2.1526   2.2877   2.4091   2.4517   2.6220   2.6293   2.9612   3.0943
     3.3379   3.4214   3.5025   3.5487   3.7772   4.0337   4.2496   4.2879
     4.4781   4.7132   4.8522   5.0035   5.1832   5.3076   5.4000   5.6043
     5.6973   5.8708

          k = 0.0444-0.0407 0.0000 ( 32116 PWs)   bands (ev):

   -66.4944 -66.4736 -66.4073 -66.3864 -66.3095 -66.2883 -32.9657 -32.9301
   -32.8648 -32.8263 -32.8188 -32.7882 -32.7443 -32.7260 -32.7146 -32.6748
   -32.6577 -32.6411 -32.6125 -32.4778 -32.4412 -32.4353 -32.3994 -32.3873
   -18.1962 -18.1951 -18.1948 -18.1938 -18.1677 -18.1586 -18.1470 -18.1447
   -18.1431 -18.1313 -18.1074 -18.1056 -18.1056 -18.1048 -18.0979 -18.0934
   -18.0872 -18.0808 -18.0796 -18.0777 -18.0644 -18.0630 -18.0590 -18.0517
   -18.0148 -18.0103 -17.9982 -17.9966 -17.9615 -17.9603 -17.9507 -17.9503
   -17.9396 -17.9380 -17.9366 -17.9341 -17.9239 -17.9207 -17.9184 -17.9165
   -17.9051 -17.9047  -5.5661  -3.7079  -3.5943  -3.1170  -3.1034  -2.9578
    -2.8226  -2.8172  -2.6783  -2.2919  -2.2796  -2.0953  -1.9676  -1.7372
    -1.5894  -1.1921  -0.9903  -0.8766  -0.8023  -0.6418  -0.5716  -0.4714
    -0.3832  -0.2694  -0.2078  -0.0543  -0.0173   0.1485   0.2370   0.2427
     0.5041   0.7072   1.0398   1.0588   1.3603   1.6282   1.6296   1.8850
     2.1154   2.2303   2.4694   2.5426   2.5488   2.6525   2.8263   3.0192
     3.1072   3.5138   3.5616   3.7918   3.9771   4.1199   4.3045   4.5259
     4.6164   4.6814   5.0775   5.1137   5.2209   5.2362   5.4265   5.6216
     5.7327   6.1894

          k = 0.0592-0.0318 0.0000 ( 32085 PWs)   bands (ev):

   -66.4943 -66.4736 -66.4072 -66.3864 -66.3095 -66.2883 -32.9674 -32.9299
   -32.8643 -32.8268 -32.8199 -32.7885 -32.7467 -32.7267 -32.7132 -32.6790
   -32.6550 -32.6422 -32.6136 -32.4774 -32.4412 -32.4350 -32.3998 -32.3872
   -18.1963 -18.1951 -18.1948 -18.1939 -18.1678 -18.1586 -18.1471 -18.1447
   -18.1431 -18.1313 -18.1074 -18.1057 -18.1056 -18.1048 -18.0980 -18.0935
   -18.0873 -18.0808 -18.0796 -18.0776 -18.0644 -18.0630 -18.0590 -18.0517
   -18.0149 -18.0104 -17.9982 -17.9965 -17.9616 -17.9604 -17.9507 -17.9503
   -17.9396 -17.9382 -17.9367 -17.9341 -17.9239 -17.9207 -17.9184 -17.9166
   -17.9051 -17.9047  -5.3962  -3.7498  -3.5665  -2.9898  -2.9680  -2.7809
    -2.7784  -2.6802  -2.6575  -2.3026  -2.2420  -1.9713  -1.8908  -1.5326
    -1.5013  -1.1798  -1.0262  -0.9201  -0.7776  -0.7519  -0.6250  -0.5341
    -0.4460  -0.1903  -0.0985   0.0381   0.0525   0.1467   0.2158   0.2720
     0.4783   0.6194   0.9211   0.9790   1.2368   1.3694   1.4649   1.8101
     2.0601   2.1379   2.2081   2.3573   2.4471   2.5751   2.7024   2.9452
     3.0444   3.4855   3.5089   3.6274   3.9778   4.0287   4.2699   4.3782
     4.4135   4.5223   4.7422   5.0253   5.0267   5.0736   5.3734   5.7226
     5.7399   6.2678

          k = 0.0592-0.0150 0.0000 ( 32081 PWs)   bands (ev):

   -66.4986 -66.4693 -66.4115 -66.3821 -66.3139 -66.2839 -32.9766 -32.9214
   -32.8911 -32.8717 -32.8589 -32.8180 -32.7953 -32.7562 -32.7043 -32.6886
   -32.6616 -32.6342 -32.6066 -32.4424 -32.4033 -32.3928 -32.3664 -32.3148
[...]
     0.7100   0.7217   0.7566   0.8713   0.9609   0.9632   1.1980   1.2195
     1.4170   1.5056   1.5239   1.6312   1.8276   1.9079   1.9329   2.0616
     2.3636   2.5860   3.4050   3.4326   3.5740   3.6518   4.0341   4.2008
     4.3430   4.6033   4.7709   4.8937   4.9435   5.0410   5.1376   5.4279
     5.7171   5.7342

          k = 0.0740-0.1238 0.0000 ( 31965 PWs)   bands (ev):

   -66.5016 -66.4659 -66.4146 -66.3788 -66.3171 -66.2804 -32.9904 -32.9507
   -32.9159 -32.9136 -32.8741 -32.8504 -32.8104 -32.7764 -32.6993 -32.6989
   -32.6689 -32.6246 -32.6126 -32.4473 -32.3888 -32.3467 -32.3093 -32.2594
   -18.1973 -18.1955 -18.1949 -18.1936 -18.1716 -18.1555 -18.1493 -18.1488
   -18.1416 -18.1262 -18.1085 -18.1066 -18.1053 -18.1045 -18.1040 -18.0991
   -18.0913 -18.0744 -18.0741 -18.0738 -18.0687 -18.0647 -18.0575 -18.0468
   -18.0208 -18.0160 -17.9915 -17.9911 -17.9668 -17.9651 -17.9476 -17.9472
   -17.9416 -17.9403 -17.9362 -17.9327 -17.9256 -17.9252 -17.9202 -17.9155
   -17.8997 -17.8979  -4.3719  -4.1022  -3.1033  -2.8332  -2.5859  -2.5305
    -2.4667  -2.1069  -2.0155  -1.9344  -1.8773  -1.6659  -1.6595  -1.4205
    -1.3893  -1.1799  -1.0605  -0.8247  -0.8066  -0.6061  -0.5182  -0.4239
    -0.4097  -0.2170  -0.1631  -0.0861  -0.0163   0.0328   0.4208   0.4683
     0.5521   0.6252   0.6694   0.7391   0.9130   1.0077   1.0894   1.2105
     1.3200   1.4623   1.6899   1.7142   1.9654   2.0610   2.3359   2.3390
     2.3937   2.5878   3.4035   3.4089   3.6363   3.7372   4.1271   4.1588
     4.4204   4.6719   4.8296   4.8633   4.9021   4.9958   5.1405   5.4441
     5.4487   5.7546

          k = 0.0740-0.1070 0.0000 ( 32009 PWs)   bands (ev):

   -66.4984 -66.4693 -66.4113 -66.3821 -66.3138 -66.2838 -32.9833 -32.9217
   -32.8968 -32.8686 -32.8605 -32.8167 -32.7978 -32.7690 -32.7040 -32.6925
   -32.6623 -32.6306 -32.6175 -32.4419 -32.4030 -32.3942 -32.3668 -32.3152
   -18.1970 -18.1953 -18.1950 -18.1937 -18.1700 -18.1568 -18.1482 -18.1474
   -18.1423 -18.1284 -18.1081 -18.1064 -18.1054 -18.1046 -18.1017 -18.0968
   -18.0897 -18.0771 -18.0764 -18.0757 -18.0669 -18.0641 -18.0582 -18.0490
   -18.0185 -18.0137 -17.9947 -17.9934 -17.9647 -17.9632 -17.9490 -17.9485
   -17.9408 -17.9395 -17.9365 -17.9333 -17.9250 -17.9234 -17.9188 -17.9168
   -17.9019 -17.9011  -4.3306  -3.8004  -3.4976  -2.7624  -2.5149  -2.4722
    -2.2961  -2.0562  -1.9656  -1.9103  -1.8075  -1.7379  -1.5420  -1.5087
    -1.4152  -1.1553  -1.0004  -0.9279  -0.8823  -0.7415  -0.5444  -0.5086
    -0.4948  -0.3972  -0.3157  -0.2667  -0.0524   0.0690   0.1293   0.2228
     0.3980   0.4897   0.5438   0.7046   0.8574   1.0709   1.1206   1.2274
     1.3685   1.4267   1.8532   1.9482   2.0876   2.3347   2.4239   2.6623
     2.6903   2.7783   3.4122   3.4238   3.6668   3.9460   4.2155   4.2177
     4.5085   4.6700   4.7970   4.8198   4.9278   5.1066   5.2239   5.3276
     5.4264   5.5518

          k = 0.0740-0.0902 0.0000 ( 32030 PWs)   bands (ev):

   -66.4942 -66.4736 -66.4070 -66.3865 -66.3094 -66.2882 -32.9737 -32.9292
   -32.8616 -32.8298 -32.8218 -32.7900 -32.7588 -32.7290 -32.7108 -32.6837
   -32.6536 -32.6391 -32.6231 -32.4761 -32.4410 -32.4346 -32.4012 -32.3872
   -18.1966 -18.1951 -18.1950 -18.1939 -18.1680 -18.1586 -18.1473 -18.1447
   -18.1431 -18.1313 -18.1075 -18.1061 -18.1056 -18.1048 -18.0985 -18.0939
   -18.0875 -18.0811 -18.0794 -18.0776 -18.0644 -18.0632 -18.0590 -18.0517
   -18.0154 -18.0108 -17.9986 -17.9963 -17.9621 -17.9607 -17.9509 -17.9502
   -17.9398 -17.9386 -17.9368 -17.9341 -17.9241 -17.9208 -17.9184 -17.9167
   -17.9051 -17.9047  -4.3293  -3.9256  -3.3954  -2.7689  -2.6038  -2.4298
    -2.1593  -2.1305  -2.0808  -1.9034  -1.8316  -1.6642  -1.5556  -1.4473
    -1.2424  -1.2038  -1.1499  -1.0800  -0.9811  -0.8834  -0.6044  -0.5267
    -0.4448  -0.4360  -0.3397  -0.3152  -0.1319  -0.0324   0.1029   0.2177
     0.2262   0.3367   0.3755   0.6125   0.8076   0.9173   1.2796   1.3387
     1.4384   1.5859   2.0650   2.2102   2.2421   2.3372   2.7435   2.8129
     2.9026   3.0719   3.4455   3.4998   3.7467   4.0410   4.2184   4.2864
     4.4983   4.5253   4.6151   4.7783   4.9630   5.0843   5.1440   5.4477
     5.5744   5.6592

          k = 0.0740-0.0734 0.0000 ( 32057 PWs)   bands (ev):

   -66.4892 -66.4786 -66.4021 -66.3915 -66.3043 -66.2933 -32.9626 -32.9382
   -32.8533 -32.8352 -32.7469 -32.7429 -32.7191 -32.7075 -32.6736 -32.6502
   -32.6469 -32.6437 -32.6296 -32.5604 -32.5264 -32.4707 -32.4260 -32.4093
   -18.1962 -18.1953 -18.1947 -18.1941 -18.1656 -18.1607 -18.1463 -18.1441
   -18.1415 -18.1346 -18.1070 -18.1060 -18.1057 -18.1050 -18.0945 -18.0905
   -18.0855 -18.0850 -18.0829 -18.0798 -18.0622 -18.0615 -18.0600 -18.0549
   -18.0116 -18.0074 -18.0029 -17.9998 -17.9591 -17.9580 -17.9532 -17.9524
   -17.9388 -17.9375 -17.9372 -17.9351 -17.9229 -17.9200 -17.9175 -17.9141
   -17.9094 -17.9078  -4.3313  -4.2933  -3.0245  -2.8085  -2.8049  -2.4487
    -2.3075  -2.2151  -2.0981  -1.9563  -1.8773  -1.6414  -1.5367  -1.4422
    -1.3631  -1.2993  -1.1747  -1.0827  -0.8259  -0.8181  -0.7459  -0.4766
    -0.4474  -0.3846  -0.3645  -0.2916  -0.1799  -0.0790  -0.0653   0.1801
     0.2258   0.3023   0.5117   0.5292   0.5982   1.0304   1.3470   1.3832
     1.6073   1.7622   2.2574   2.2619   2.3612   2.5809   2.8226   2.8911
     3.1225   3.4170   3.4888   3.6263   3.8153   4.0135   4.0418   4.2785
     4.2918   4.3048   4.5028   4.5228   4.7865   4.8614   5.3187   5.5473
     5.9576   6.0617

          k = 0.0740-0.0566 0.0000 ( 32048 PWs)   bands (ev):

   -66.4840 -66.4839 -66.3968 -66.3968 -66.2989 -66.2989 -32.9509 -32.9484
   -32.8451 -32.8443 -32.7345 -32.7291 -32.6631 -32.6607 -32.6523 -32.6501
   -32.6374 -32.6338 -32.6174 -32.6166 -32.5599 -32.5589 -32.4179 -32.4172
   -18.1958 -18.1956 -18.1944 -18.1943 -18.1631 -18.1630 -18.1452 -18.1451
   -18.1381 -18.1381 -18.1064 -18.1064 -18.1054 -18.1052 -18.0901 -18.0900
   -18.0868 -18.0865 -18.0824 -18.0823 -18.0611 -18.0610 -18.0582 -18.0582
   -18.0073 -18.0072 -18.0037 -18.0034 -17.9560 -17.9559 -17.9551 -17.9550
   -17.9380 -17.9379 -17.9363 -17.9361 -17.9216 -17.9215 -17.9136 -17.9136
   -17.9110 -17.9110  -4.6782  -4.2072  -3.0366  -2.9215  -2.6746  -2.4824
    -2.4386  -2.4000  -2.1847  -2.1596  -1.8458  -1.7899  -1.5158  -1.4422
    -1.4399  -1.3323  -1.0782  -0.9729  -0.8571  -0.8182  -0.6532  -0.6406
    -0.4022  -0.3319  -0.2219  -0.2023  -0.1554  -0.0272  -0.0106   0.1308
     0.1834   0.2996   0.3676   0.5751   0.8975   1.0970   1.3611   1.4492
     1.7616   1.8692   2.2493   2.3484   2.3980   2.7578   2.8678   2.9513
     3.3510   3.4244   3.6071   3.7258   3.8191   3.8898   3.9574   4.0527
     4.0763   4.2288   4.4193   4.5445   4.7178   4.7327   5.5315   5.6502
     5.8463   6.0560

          k =-0.0888 0.0477 0.0000 ( 32074 PWs)   bands (ev):

   -66.4839 -66.4839 -66.3968 -66.3968 -66.2989 -66.2989 -32.9497 -32.9497
   -32.8448 -32.8448 -32.7316 -32.7315 -32.6626 -32.6626 -32.6513 -32.6513
   -32.6350 -32.6350 -32.6170 -32.6170 -32.5594 -32.5594 -32.4176 -32.4176
   -18.1957 -18.1957 -18.1944 -18.1944 -18.1631 -18.1631 -18.1451 -18.1451
   -18.1381 -18.1381 -18.1064 -18.1064 -18.1053 -18.1053 -18.0901 -18.0901
   -18.0867 -18.0866 -18.0824 -18.0824 -18.0611 -18.0610 -18.0582 -18.0582
   -18.0073 -18.0072 -18.0036 -18.0036 -17.9560 -17.9560 -17.9551 -17.9551
   -17.9379 -17.9379 -17.9362 -17.9362 -17.9215 -17.9215 -17.9136 -17.9136
   -17.9110 -17.9110  -4.4798  -4.4798  -2.9922  -2.9922  -2.4743  -2.4743
    -2.4134  -2.4134  -2.2578  -2.2578  -1.8214  -1.8214  -1.4479  -1.4479
    -1.3830  -1.3830  -1.0679  -1.0679  -0.8321  -0.8321  -0.6160  -0.6160
    -0.3005  -0.3005  -0.2116  -0.2116  -0.0576  -0.0576   0.0799   0.0799
     0.2344   0.2344   0.4770   0.4770   0.9856   0.9856   1.3848   1.3848
     1.7257   1.7257   2.2924   2.2924   2.5355   2.5355   2.9221   2.9221
     3.4053   3.4053   3.6654   3.6654   3.8399   3.8399   3.9388   3.9388
     4.0640   4.0640   4.4363   4.4363   4.6898   4.6898   5.6625   5.6625
     5.9072   5.9072

          k =-0.0888 0.0645 0.0000 ( 32055 PWs)   bands (ev):

   -66.4892 -66.4786 -66.4021 -66.3915 -66.3043 -66.2934 -32.9610 -32.9389
   -32.8541 -32.8352 -32.7433 -32.7418 -32.7200 -32.7070 -32.6732 -32.6523
   -32.6466 -32.6440 -32.6261 -32.5611 -32.5265 -32.4710 -32.4262 -32.4089
   -18.1961 -18.1954 -18.1946 -18.1941 -18.1656 -18.1607 -18.1462 -18.1441
   -18.1415 -18.1346 -18.1069 -18.1060 -18.1056 -18.1050 -18.0944 -18.0904
   -18.0855 -18.0850 -18.0829 -18.0799 -18.0621 -18.0615 -18.0600 -18.0549
   -18.0115 -18.0073 -18.0028 -17.9998 -17.9590 -17.9579 -17.9532 -17.9524
   -17.9388 -17.9375 -17.9371 -17.9351 -17.9229 -17.9200 -17.9175 -17.9140
   -17.9094 -17.9078  -4.6573  -4.2257  -3.0562  -2.8834  -2.6776  -2.4720
    -2.4158  -2.3603  -2.3282  -2.1290  -1.9601  -1.7050  -1.5532  -1.3711
    -1.3496  -1.2759  -1.1195  -1.0451  -0.8757  -0.8063  -0.7863  -0.5380
    -0.3948  -0.2571  -0.1894  -0.0826  -0.0302   0.0173   0.0464   0.1719
     0.2348   0.2720   0.4191   0.6026   0.8451   1.0567   1.2646   1.4882
     1.6479   1.7126   2.2563   2.2665   2.5197   2.5414   2.6710   3.0480
     3.1643   3.3164   3.4838   3.5676   3.8600   3.9265   4.0278   4.0800
     4.2224   4.3195   4.4119   4.5281   4.7466   4.8102   5.4458   5.6881
     5.8736   6.0989

          k =-0.0888 0.0813 0.0000 ( 32036 PWs)   bands (ev):

   -66.4942 -66.4736 -66.4071 -66.3865 -66.3094 -66.2882 -32.9720 -32.9294
   -32.8624 -32.8288 -32.8216 -32.7895 -32.7552 -32.7284 -32.7110 -32.6834
   -32.6532 -32.6415 -32.6192 -32.4765 -32.4412 -32.4346 -32.4008 -32.3872
   -18.1965 -18.1951 -18.1950 -18.1939 -18.1679 -18.1586 -18.1472 -18.1447
   -18.1431 -18.1313 -18.1075 -18.1060 -18.1056 -18.1048 -18.0984 -18.0938
   -18.0875 -18.0810 -18.0794 -18.0776 -18.0644 -18.0631 -18.0590 -18.0517
   -18.0153 -18.0107 -17.9985 -17.9964 -17.9619 -17.9606 -17.9508 -17.9502
   -17.9397 -17.9385 -17.9367 -17.9341 -17.9240 -17.9208 -17.9184 -17.9166
   -17.9051 -17.9047  -4.7566  -3.9034  -3.1275  -2.9826  -2.7467  -2.4979
    -2.4104  -2.3566  -2.2640  -2.0656  -2.0179  -1.6873  -1.5870  -1.4057
    -1.3600  -1.2068  -1.0328  -1.0036  -0.9547  -0.8261  -0.6713  -0.5604
    -0.4789  -0.2386  -0.0975  -0.0348   0.0047   0.1111   0.1365   0.1816
     0.3533   0.3949   0.5633   0.5724   0.8747   1.0503   1.1669   1.4886
     1.5590   1.6154   2.0932   2.2269   2.3274   2.4892   2.5818   2.8823
     2.9550   3.0274   3.4539   3.4630   3.8031   3.9539   4.1458   4.1906
     4.4204   4.4878   4.6015   4.8872   4.9687   5.0367   5.2360   5.5988
     5.8316   6.1428

          k =-0.0888 0.0981 0.0000 ( 32019 PWs)   bands (ev):

   -66.4984 -66.4693 -66.4113 -66.3821 -66.3138 -66.2838 -32.9819 -32.9217
   -32.8956 -32.8693 -32.8602 -32.8171 -32.7973 -32.7660 -32.7037 -32.6922
   -32.6617 -32.6329 -32.6139 -32.4420 -32.4031 -32.3939 -32.3667 -32.3151
   -18.1969 -18.1952 -18.1950 -18.1937 -18.1700 -18.1568 -18.1481 -18.1474
   -18.1423 -18.1284 -18.1080 -18.1063 -18.1054 -18.1046 -18.1016 -18.0968
   -18.0896 -18.0770 -18.0764 -18.0757 -18.0669 -18.0640 -18.0582 -18.0490
   -18.0184 -18.0136 -17.9946 -17.9934 -17.9646 -17.9631 -17.9489 -17.9485
   -17.9407 -17.9395 -17.9364 -17.9333 -17.9250 -17.9234 -17.9187 -17.9168
   -17.9019 -17.9011  -4.7800  -3.5324  -3.4518  -3.0261  -2.6364  -2.5378
    -2.4707  -2.2745  -2.2144  -2.1361  -1.9213  -1.6964  -1.5602  -1.5518
    -1.3510  -1.2889  -0.9067  -0.8819  -0.8636  -0.8087  -0.6446  -0.4713
    -0.4304  -0.2952  -0.0613  -0.0421   0.0619   0.1546   0.3013   0.3323
     0.3464   0.5303   0.5754   0.8238   1.0069   1.0113   1.1473   1.3359
     1.4687   1.5483   1.8664   2.0453   2.1374   2.4105   2.4617   2.5679
     2.7039   2.9084   3.4179   3.4260   3.7126   3.9303   4.1851   4.1984
     4.4391   4.6862   4.8234   4.9668   5.0201   5.1812   5.4218   5.5917
     5.5968   5.6682

          k =-0.0888 0.1149 0.0000 ( 32021 PWs)   bands (ev):

   -66.5017 -66.4659 -66.4146 -66.3788 -66.3171 -66.2804 -32.9897 -32.9500
   -32.9158 -32.9133 -32.8745 -32.8501 -32.8106 -32.7748 -32.6991 -32.6986
   -32.6685 -32.6260 -32.6104 -32.4474 -32.3887 -32.3467 -32.3092 -32.2593
   -18.1973 -18.1955 -18.1949 -18.1936 -18.1716 -18.1555 -18.1494 -18.1488
   -18.1416 -18.1262 -18.1085 -18.1066 -18.1053 -18.1045 -18.1040 -18.0991
   -18.0913 -18.0744 -18.0741 -18.0737 -18.0687 -18.0647 -18.0575 -18.0468
   -18.0208 -18.0159 -17.9915 -17.9911 -17.9667 -17.9651 -17.9476 -17.9472
   -17.9416 -17.9402 -17.9362 -17.9327 -17.9257 -17.9252 -17.9202 -17.9156
   -17.8997 -17.8979  -4.7323  -3.8017  -3.1483  -3.0029  -2.6139  -2.5914
    -2.5459  -2.2433  -2.1576  -2.1020  -1.9159  -1.6850  -1.6399  -1.5098
    -1.3156  -1.2757  -0.9353  -0.9138  -0.7423  -0.6858  -0.5708  -0.4087
    -0.3190  -0.1792  -0.0630  -0.0627   0.0264   0.2518   0.4326   0.4760
     0.5400   0.6381   0.6996   0.9101   0.9813   1.0392   1.1715   1.2318
     1.3849   1.5258   1.6550   1.8091   2.0165   2.0687   2.2865   2.4048
     2.4143   2.7464   3.4116   3.4192   3.6586   3.7780   4.1244   4.1920
     4.4161   4.7612   4.8709   4.8795   4.9115   5.1722   5.2837   5.4606
     5.4720   5.7970

          k =-0.0888 0.1317 0.0000 ( 31996 PWs)   bands (ev):

   -66.5037 -66.4639 -66.4166 -66.3767 -66.3192 -66.2782 -32.9946 -32.9840
   -32.9468 -32.9122 -32.8830 -32.8777 -32.8066 -32.7804 -32.7035 -32.6955
   -32.6729 -32.6215 -32.6085 -32.4508 -32.3854 -32.3111 -32.2729 -32.2241
   -18.1975 -18.1956 -18.1948 -18.1935 -18.1726 -18.1547 -18.1506 -18.1493
   -18.1412 -18.1248 -18.1088 -18.1068 -18.1054 -18.1052 -18.1044 -18.1005
   -18.0923 -18.0735 -18.0727 -18.0717 -18.0699 -18.0651 -18.0571 -18.0454
   -18.0222 -18.0174 -17.9897 -17.9895 -17.9681 -17.9663 -17.9467 -17.9465
   -17.9423 -17.9407 -17.9361 -17.9323 -17.9263 -17.9261 -17.9210 -17.9147
   -17.8984 -17.8958  -4.6246  -4.0981  -2.9752  -2.8097  -2.6962  -2.6075
    -2.5836  -2.2799  -2.1570  -1.9920  -1.9684  -1.7518  -1.5176  -1.4269
    -1.3093  -1.2890  -1.0234  -0.8963  -0.7913  -0.5351  -0.4395  -0.3665
    -0.2640  -0.1070   0.0367   0.0409   0.1041   0.2109   0.5725   0.6602
     0.7100   0.7217   0.7566   0.8713   0.9609   0.9632   1.1980   1.2195
     1.4170   1.5056   1.5239   1.6312   1.8276   1.9079   1.9329   2.0616
     2.3636   2.5860   3.4050   3.4326   3.5740   3.6518   4.0341   4.2008
     4.3430   4.6033   4.7709   4.8937   4.9435   5.0410   5.1376   5.4279
     5.7170   5.7342

          k =-0.0888-0.0531 0.0000 ( 32010 PWs)   bands (ev):

   -66.5044 -66.4631 -66.4173 -66.3760 -66.3199 -66.2775 -32.9964 -32.9956
   -32.9582 -32.9110 -32.8942 -32.8787 -32.8052 -32.7824 -32.7050 -32.6945
   -32.6744 -32.6199 -32.6080 -32.4520 -32.3843 -32.2989 -32.2605 -32.2120
   -18.1976 -18.1957 -18.1948 -18.1935 -18.1730 -18.1544 -18.1511 -18.1494
   -18.1411 -18.1243 -18.1089 -18.1068 -18.1060 -18.1052 -18.1044 -18.1010
   -18.0927 -18.0732 -18.0722 -18.0710 -18.0702 -18.0653 -18.0570 -18.0450
   -18.0227 -18.0178 -17.9892 -17.9888 -17.9686 -17.9668 -17.9464 -17.9463
   -17.9425 -17.9409 -17.9361 -17.9322 -17.9267 -17.9262 -17.9213 -17.9144
   -17.8979 -17.8951  -4.5294  -4.2571  -2.9611  -2.7326  -2.6358  -2.6317
    -2.5850  -2.3398  -2.1563  -2.0022  -1.9365  -1.7678  -1.4753  -1.3325
    -1.3188  -1.3019  -1.1100  -0.8746  -0.8305  -0.4517  -0.4340  -0.2910
    -0.2403  -0.1430   0.0537   0.1609   0.1623   0.3250   0.5593   0.5936
     0.7075   0.7604   0.7839   0.7961   0.9781   1.2143   1.2226   1.2796
     1.3805   1.3846   1.4991   1.5628   1.6618   1.8452   1.8566   1.8610
     2.3435   2.5140   3.3910   3.4413   3.4837   3.6608   3.9916   4.2327
     4.2775   4.5473   4.7389   4.8789   4.8928   5.0879   5.1027   5.4039
     5.7019   5.9247

     the Fermi energy is     2.3135 ev

!    total energy              =   -4470.74400927 Ry
     estimated scf accuracy    <       0.00000850 Ry
     smearing contrib. (-TS)   =      -0.06091672 Ry
     internal energy E=F+TS    =   -4470.68309256 Ry

     The total energy is F=E-TS. E is the sum of the following terms:
     one-electron contribution =  -27439.07780414 Ry
     hartree contribution      =   13853.05129372 Ry
     xc contribution           =    -608.98425529 Ry
     ewald contribution        =    9724.32766706 Ry
     electric field correction =       0.00000609 Ry

     convergence has been achieved in  14 iterations

     negative rho (up, down):  4.256E-04 0.000E+00

     Forces acting on atoms (cartesian axes, Ry/au):

     atom    1 type  1   force =    -0.00376598   -0.00223799   -0.00266469
     atom    2 type  1   force =    -0.00376745   -0.00223780   -0.00268873
     atom    3 type  2   force =    -0.01143601   -0.00684344    0.02225110
     atom    4 type  2   force =    -0.01143842   -0.00684398    0.02224786
     atom    5 type  1   force =     0.00898871    0.00539755   -0.01815644
     atom    6 type  1   force =     0.00900159    0.00535957   -0.01813516
     atom    7 type  2   force =     0.00587617    0.00350976   -0.00922271
     atom    8 type  2   force =     0.00587825    0.00350902   -0.00922098
     atom    9 type  1   force =     0.00044356    0.00024926    0.00694250
     atom   10 type  1   force =     0.00043245    0.00027986    0.00693771
     atom   11 type  2   force =    -0.00010742   -0.00006952    0.00085622
     atom   12 type  2   force =    -0.00010544   -0.00007228    0.00085333

     Total force =     0.051366     Total SCF correction =     0.024082
     SCF correction compared to forces is large: reduce conv_thr to get better values

     Writing output data file ./Ta2Ir2/Ta2Ir2_beef.save/

     init_run     :    132.60s CPU    133.20s WALL (       1 calls)
     electrons    :   6974.30s CPU   6992.91s WALL (       1 calls)
     forces       :     89.54s CPU     89.83s WALL (       1 calls)

     Called by init_run:
     wfcinit      :    120.83s CPU    121.21s WALL (       1 calls)
     potinit      :      7.57s CPU      7.63s WALL (       1 calls)
     hinit0       :      2.19s CPU      2.21s WALL (       1 calls)

     Called by electrons:
     c_bands      :   5952.66s CPU   5964.32s WALL (      14 calls)
     sum_band     :    941.78s CPU    946.09s WALL (      14 calls)
     v_of_rho     :     55.47s CPU     56.04s WALL (      15 calls)
     newd         :     24.91s CPU     27.01s WALL (      15 calls)
     mix_rho      :      5.77s CPU      5.78s WALL (      14 calls)
     vdW_kernel   :      5.74s CPU      5.74s WALL (       1 calls)

     Called by c_bands:
     init_us_2    :     10.67s CPU     10.74s WALL (    2220 calls)
     cegterg      :   5890.03s CPU   5900.21s WALL (    1036 calls)

     Called by *egterg:
     cdiaghg      :    293.28s CPU    293.36s WALL (    5342 calls)
     h_psi        :   3670.28s CPU   3678.87s WALL (    5416 calls)
     s_psi        :    599.08s CPU    599.23s WALL (    5416 calls)
     g_psi        :      1.13s CPU      1.13s WALL (    4306 calls)

     Called by h_psi:
     h_psi:calbec :    708.65s CPU    709.55s WALL (    5416 calls)
     vloc_psi     :   2321.92s CPU   2329.43s WALL (    5416 calls)
     add_vuspsi   :    635.04s CPU    635.20s WALL (    5416 calls)

     General routines
     calbec       :   1136.76s CPU   1138.17s WALL (    6748 calls)
     fft          :     50.50s CPU     50.73s WALL (    1004 calls)
     ffts         :      1.29s CPU      1.29s WALL (      29 calls)
     fftw         :   2843.92s CPU   2852.55s WALL (  751630 calls)
     interpolate  :      1.39s CPU      1.40s WALL (      15 calls)

     Parallel routines
     fft_scatt_xy :     45.59s CPU     46.11s WALL (  752663 calls)
     fft_scatt_yz :   2424.46s CPU   2427.97s WALL (  752663 calls)

     PWSCF        :      2h 9m CPU      2h10m WALL


   This run was terminated on:   9:18:16  26Jun2022            

=------------------------------------------------------------------------------=
   JOB DONE.
=------------------------------------------------------------------------------=
