
     Program PWSCF v.6.6 starts on 26Jun2022 at 15:29:45 

     This program is part of the open-source Quantum ESPRESSO suite
     for quantum simulation of materials; please cite
         "P. Giannozzi et al., J. Phys.:Condens. Matter 21 395502 (2009);
         "P. Giannozzi et al., J. Phys.:Condens. Matter 29 465901 (2017);
          URL http://www.quantum-espresso.org", 
     in publications or presentations arising from this work. More details at
     http://www.quantum-espresso.org/quote

     Parallel version (MPI), running on    37 processors

     MPI processes distributed on     1 nodes
     R & G space division:  proc/nbgrp/npool/nimage =      37
     Fft bands division:     nmany     =       1
     Reading input from Ta2Re2.in
Warning: card &CELL ignored
Warning: card / ignored

     Current dimensions of program PWSCF are:
     Max number of different atomic species (ntypx) = 10
     Max number of k-points (npk) =  40000
     Max angular momentum in pseudopotentials (lmaxx) =  3
     Presently stress not available with electric field and gates

     Message from routine cell_base_init:
     DEPRECATED: use true lattice parameter, not A to a.u. conversion factor
     file Ta.pbe-spfn-rrkjus_psl.1.0.0.UPF: wavefunction(s)  5S 5P renormalized

     **************************************************************************
     Initializing libbeef V0.1.2 with the BEEF-vdW functional.
     Citation: Wellendorff et al., PRB 85, 235149 (2012).
     **************************************************************************


     IMPORTANT: XC functional enforced from input :
     Exchange-correlation= BEEF-VDW
                           (   1   4  43  14   2   0   0)
     Any further DFT definition will be discarded
     Please, verify this is what you really want


     Subspace diagonalization in iterative solution of the eigenvalue problem:
     a serial algorithm will be used

     Found symmetry operation: I + (  0.5000 -0.5000  0.0000)
     This is a supercell, fractional translations are disabled

     Parallelization info
     --------------------
     sticks:   dense  smooth     PW     G-vecs:    dense   smooth      PW
     Min         122      49     14                28238     7137    1068
     Max         123      49     15                28250     7157    1082
     Sum        4535    1813    519              1045013   264515   39811



     bravais-lattice index     =            0
     lattice parameter (alat)  =       1.8897  a.u.
     unit-cell volume          =    4782.8657 (a.u.)^3
     number of atoms/cell      =           12
     number of atomic types    =            2
     number of electrons       =       252.00
     number of Kohn-Sham states=          151
     kinetic-energy cutoff     =      55.1240  Ry
     charge density cutoff     =     551.2396  Ry
     convergence threshold     =      1.0E-05
     mixing beta               =       0.1000
     number of iterations used =           10  plain     mixing
     Exchange-correlation= BEEF-VDW
                           (   1   4  43  14   2   0   0)

     celldm(1)=   1.889726  celldm(2)=   0.000000  celldm(3)=   0.000000
     celldm(4)=   0.000000  celldm(5)=   0.000000  celldm(6)=   0.000000

     crystal axes: (cart. coord. in units of alat)
               a(1) = (   5.530750   0.000000   0.000000 )  
               a(2) = (   1.798307   5.230228   0.000000 )  
               a(3) = (   0.000000   0.000000  24.501181 )  

     reciprocal axes: (cart. coord. in units 2 pi/alat)
               b(1) = (  0.180807 -0.062167  0.000000 )  
               b(2) = (  0.000000  0.191196  0.000000 )  
               b(3) = (  0.000000  0.000000  0.040814 )  


     PseudoPot. # 1 for Ta read from file:
     ../pseudo/Ta.pbe-spfn-rrkjus_psl.1.0.0.UPF
     MD5 check sum: 39d7d349fe394e56adf8454eb9315fbb
     Pseudo is Ultrasoft + core correction, Zval = 27.0
     Generated using "atomic" code by A. Dal Corso v.6.3
     Using radial grid of 1273 points,  8 beta functions with: 
                l(1) =   0
                l(2) =   0
                l(3) =   1
                l(4) =   1
                l(5) =   2
                l(6) =   2
                l(7) =   3
                l(8) =   3
     Q(r) pseudized with 0 coefficients 


     PseudoPot. # 2 for Re read from file:
     ../pseudo/Re.pbe-spn-rrkjus_psl.1.0.0.UPF
     MD5 check sum: 1282f1ec51ad523723a04c61ae80a9e6
     Pseudo is Ultrasoft + core correction, Zval = 15.0
     Generated using "atomic" code by A. Dal Corso v.6.2.2
     Using radial grid of 1275 points,  6 beta functions with: 
                l(1) =   0
                l(2) =   0
                l(3) =   1
                l(4) =   1
                l(5) =   2
                l(6) =   2
     Q(r) pseudized with 0 coefficients 


     atomic species   valence    mass     pseudopotential
        Ta            27.00   180.94788     Ta( 1.00)
        Re            15.00   186.20700     Re( 1.00)

     No symmetry found



   Cartesian axes

     site n.     atom                  positions (alat units)
         1           Ta  tau(   1) = (   0.0000000   0.0000000  10.0000000  )
         2           Ta  tau(   2) = (   3.6645282   2.6151140  10.0000000  )
         3           Re  tau(   3) = (   2.7653748   0.0000000  10.0000000  )
         4           Re  tau(   4) = (   0.8991534   2.6151140  10.0000000  )
         5           Ta  tau(   5) = (   5.5307497   3.9469039  12.2505903  )
         6           Ta  tau(   6) = (   1.8662214   1.3317899  12.2505903  )
         7           Re  tau(   7) = (   2.7653748   3.9469039  12.2505903  )
         8           Re  tau(   8) = (   4.6315963   1.3317899  12.2505903  )
         9           Ta  tau(   9) = (   3.7038850   2.6432030  14.5043784  )
        10           Ta  tau(  10) = (   0.0393495   0.0280854  14.5043841  )
        11           Re  tau(  11) = (   0.9402132   2.6444061  14.3940844  )
        12           Re  tau(  12) = (   2.8064262   0.0292930  14.3940910  )

     number of k points=    74  Fermi-Dirac smearing, width (Ry)=  0.0100
                       cart. coord. in units 2pi/alat
        k(    1) = (   0.0000000   0.0000000   0.0000000), wk =   0.0138889
        k(    2) = (   0.0000000   0.0159330   0.0000000), wk =   0.0277778
        k(    3) = (   0.0000000   0.0318660   0.0000000), wk =   0.0277778
        k(    4) = (   0.0000000   0.0477991   0.0000000), wk =   0.0277778
        k(    5) = (   0.0000000   0.0637321   0.0000000), wk =   0.0277778
        k(    6) = (   0.0000000   0.0796651   0.0000000), wk =   0.0277778
        k(    7) = (   0.0000000  -0.0955981   0.0000000), wk =   0.0138889
        k(    8) = (   0.0150673  -0.0051806   0.0000000), wk =   0.0277778
        k(    9) = (   0.0150673   0.0107524   0.0000000), wk =   0.0277778
        k(   10) = (   0.0150673   0.0266855   0.0000000), wk =   0.0277778
        k(   11) = (   0.0150673   0.0426185   0.0000000), wk =   0.0277778
        k(   12) = (   0.0150673   0.0585515   0.0000000), wk =   0.0277778
        k(   13) = (   0.0150673   0.0744845   0.0000000), wk =   0.0277778
        k(   14) = (   0.0150673  -0.1007787   0.0000000), wk =   0.0277778
        k(   15) = (   0.0150673  -0.0848457   0.0000000), wk =   0.0277778
        k(   16) = (   0.0150673  -0.0689127   0.0000000), wk =   0.0277778
        k(   17) = (   0.0150673  -0.0529796   0.0000000), wk =   0.0277778
        k(   18) = (   0.0150673  -0.0370466   0.0000000), wk =   0.0277778
        k(   19) = (   0.0150673  -0.0211136   0.0000000), wk =   0.0277778
        k(   20) = (   0.0301346  -0.0103611   0.0000000), wk =   0.0277778
        k(   21) = (   0.0301346   0.0055719   0.0000000), wk =   0.0277778
        k(   22) = (   0.0301346   0.0215049   0.0000000), wk =   0.0277778
        k(   23) = (   0.0301346   0.0374379   0.0000000), wk =   0.0277778
        k(   24) = (   0.0301346   0.0533709   0.0000000), wk =   0.0277778
        k(   25) = (   0.0301346   0.0693040   0.0000000), wk =   0.0277778
        k(   26) = (   0.0301346  -0.1059593   0.0000000), wk =   0.0277778
        k(   27) = (   0.0301346  -0.0900263   0.0000000), wk =   0.0277778
        k(   28) = (   0.0301346  -0.0740932   0.0000000), wk =   0.0277778
        k(   29) = (   0.0301346  -0.0581602   0.0000000), wk =   0.0277778
        k(   30) = (   0.0301346  -0.0422272   0.0000000), wk =   0.0277778
        k(   31) = (   0.0301346  -0.0262942   0.0000000), wk =   0.0277778
        k(   32) = (   0.0452018  -0.0155417   0.0000000), wk =   0.0277778
        k(   33) = (   0.0452018   0.0003913   0.0000000), wk =   0.0277778
        k(   34) = (   0.0452018   0.0163243   0.0000000), wk =   0.0277778
        k(   35) = (   0.0452018   0.0322573   0.0000000), wk =   0.0277778
        k(   36) = (   0.0452018   0.0481904   0.0000000), wk =   0.0277778
        k(   37) = (   0.0452018   0.0641234   0.0000000), wk =   0.0277778
        k(   38) = (   0.0452018  -0.1111399   0.0000000), wk =   0.0277778
        k(   39) = (   0.0452018  -0.0952068   0.0000000), wk =   0.0277778
        k(   40) = (   0.0452018  -0.0792738   0.0000000), wk =   0.0277778
        k(   41) = (   0.0452018  -0.0633408   0.0000000), wk =   0.0277778
        k(   42) = (   0.0452018  -0.0474078   0.0000000), wk =   0.0277778
        k(   43) = (   0.0452018  -0.0314747   0.0000000), wk =   0.0277778
        k(   44) = (   0.0602691  -0.0207223   0.0000000), wk =   0.0277778
        k(   45) = (   0.0602691  -0.0047893   0.0000000), wk =   0.0277778
        k(   46) = (   0.0602691   0.0111437   0.0000000), wk =   0.0277778
        k(   47) = (   0.0602691   0.0270768   0.0000000), wk =   0.0277778
        k(   48) = (   0.0602691   0.0430098   0.0000000), wk =   0.0277778
        k(   49) = (   0.0602691   0.0589428   0.0000000), wk =   0.0277778
        k(   50) = (   0.0602691  -0.1163204   0.0000000), wk =   0.0277778
        k(   51) = (   0.0602691  -0.1003874   0.0000000), wk =   0.0277778
        k(   52) = (   0.0602691  -0.0844544   0.0000000), wk =   0.0277778
        k(   53) = (   0.0602691  -0.0685214   0.0000000), wk =   0.0277778
        k(   54) = (   0.0602691  -0.0525883   0.0000000), wk =   0.0277778
        k(   55) = (   0.0602691  -0.0366553   0.0000000), wk =   0.0277778
        k(   56) = (   0.0753364  -0.0259029   0.0000000), wk =   0.0277778
        k(   57) = (   0.0753364  -0.0099699   0.0000000), wk =   0.0277778
        k(   58) = (   0.0753364   0.0059632   0.0000000), wk =   0.0277778
        k(   59) = (   0.0753364   0.0218962   0.0000000), wk =   0.0277778
        k(   60) = (   0.0753364   0.0378292   0.0000000), wk =   0.0277778
        k(   61) = (   0.0753364   0.0537622   0.0000000), wk =   0.0277778
        k(   62) = (   0.0753364  -0.1215010   0.0000000), wk =   0.0277778
        k(   63) = (   0.0753364  -0.1055680   0.0000000), wk =   0.0277778
        k(   64) = (   0.0753364  -0.0896350   0.0000000), wk =   0.0277778
        k(   65) = (   0.0753364  -0.0737019   0.0000000), wk =   0.0277778
        k(   66) = (   0.0753364  -0.0577689   0.0000000), wk =   0.0277778
        k(   67) = (   0.0753364  -0.0418359   0.0000000), wk =   0.0277778
        k(   68) = (  -0.0904037   0.0310834   0.0000000), wk =   0.0138889
        k(   69) = (  -0.0904037   0.0470165   0.0000000), wk =   0.0277778
        k(   70) = (  -0.0904037   0.0629495   0.0000000), wk =   0.0277778
        k(   71) = (  -0.0904037   0.0788825   0.0000000), wk =   0.0277778
        k(   72) = (  -0.0904037   0.0948155   0.0000000), wk =   0.0277778
        k(   73) = (  -0.0904037   0.1107486   0.0000000), wk =   0.0277778
        k(   74) = (  -0.0904037  -0.0645147   0.0000000), wk =   0.0138889

     Dense  grid:  1045013 G-vectors     FFT dimensions: (  80,  80, 360)

     Smooth grid:   264515 G-vectors     FFT dimensions: (  50,  50, 225)

     Estimated max dynamical RAM per process >     432.35 MB

     Estimated total dynamical RAM >      15.62 GB

     Initial potential from superposition of free atoms

     starting charge  251.99314, renormalised to  252.00000

     negative rho (up, down):  2.805E-04 0.000E+00


     %%%%%%%%%%%%%%%%%%%%%%%%%%%%%%%%%%%%%%%%%%%%%%%%%%%%%%%%%%%%%%%%%%%%%%%%
     %                                                                      %
     % You are using vdW-DF, which was implemented by the Thonhauser group. %
     % Please cite the following two papers that made this development      %
     % possible and the two reviews that describe the various versions:     %
     %                                                                      %
     %   T. Thonhauser et al., PRL 115, 136402 (2015).                      %
     %   T. Thonhauser et al., PRB 76, 125112 (2007).                       %
     %   K. Berland et al., Rep. Prog. Phys. 78, 066501 (2015).             %
     %   D.C. Langreth et al., J. Phys.: Condens. Matter 21, 084203 (2009). %
     %                                                                      %
     %                                                                      %
     % If you are calculating the stress with vdW-DF, please also cite:     %
     %                                                                      %
     %   R. Sabatini et al., J. Phys.: Condens. Matter 24, 424209 (2012).   %
     %                                                                      %
     %%%%%%%%%%%%%%%%%%%%%%%%%%%%%%%%%%%%%%%%%%%%%%%%%%%%%%%%%%%%%%%%%%%%%%%%



     Adding external electric field

     Computed dipole along edir(3) : 
        Dipole                0.0000 Ry au,          0.0001 Debye
        Dipole field          0.0000 Ry au, 

        Potential amp.       -0.0000 Ry
        Total length         45.1430 bohr

     Starting wfcs are  162 randomized atomic wfcs

     total cpu time spent up to now is      336.2 secs

     Self-consistent Calculation

     iteration #  1     ecut=    55.12 Ry     beta= 0.10
     Davidson diagonalization with overlap
     ethr =  1.00E-02,  avg # of iterations =  2.8

     negative rho (up, down):  1.839E-04 0.000E+00

     Adding external electric field

     Computed dipole along edir(3) : 
        Dipole               -0.0806 Ry au,         -0.2049 Debye
        Dipole field         -0.0002 Ry au, 

        Potential amp.        0.0191 Ry
        Total length         45.1430 bohr


     total cpu time spent up to now is     1230.6 secs

     total energy              =   -5167.70884846 Ry
     estimated scf accuracy    <       3.27494698 Ry

     iteration #  2     ecut=    55.12 Ry     beta= 0.10
     Davidson diagonalization with overlap
     ethr =  1.30E-03,  avg # of iterations =  2.8

     negative rho (up, down):  1.560E-04 0.000E+00

     Adding external electric field

     Computed dipole along edir(3) : 
        Dipole                0.4262 Ry au,          1.0832 Debye
        Dipole field          0.0011 Ry au, 

        Potential amp.       -0.1011 Ry
        Total length         45.1430 bohr


     total cpu time spent up to now is     2177.4 secs

     total energy              =   -5167.85561710 Ry
     estimated scf accuracy    <       0.93107425 Ry

     iteration #  3     ecut=    55.12 Ry     beta= 0.10
     Davidson diagonalization with overlap
     ethr =  3.69E-04,  avg # of iterations =  3.4

     negative rho (up, down):  1.543E-04 0.000E+00

     Adding external electric field

     Computed dipole along edir(3) : 
        Dipole               -0.0299 Ry au,         -0.0760 Debye
        Dipole field         -0.0001 Ry au, 

        Potential amp.        0.0071 Ry
        Total length         45.1430 bohr


     total cpu time spent up to now is     3536.5 secs

     total energy              =   -5167.78667616 Ry
     estimated scf accuracy    <       6.83287783 Ry

     iteration #  4     ecut=    55.12 Ry     beta= 0.10
     Davidson diagonalization with overlap
     ethr =  3.69E-04,  avg # of iterations =  1.6

     negative rho (up, down):  1.462E-04 0.000E+00

     Adding external electric field

     Computed dipole along edir(3) : 
        Dipole                0.0212 Ry au,          0.0538 Debye
        Dipole field          0.0001 Ry au, 

        Potential amp.       -0.0050 Ry
        Total length         45.1430 bohr


     total cpu time spent up to now is     4848.4 secs

     total energy              =   -5167.86017959 Ry
     estimated scf accuracy    <       0.36285233 Ry

     iteration #  5     ecut=    55.12 Ry     beta= 0.10
     Davidson diagonalization with overlap
     ethr =  1.44E-04,  avg # of iterations =  3.3

     negative rho (up, down):  2.077E-04 0.000E+00

     Adding external electric field

     Computed dipole along edir(3) : 
        Dipole                0.0297 Ry au,          0.0756 Debye
        Dipole field          0.0001 Ry au, 

        Potential amp.       -0.0071 Ry
        Total length         45.1430 bohr


     total cpu time spent up to now is     5497.3 secs

     total energy              =   -5167.85707731 Ry
     estimated scf accuracy    <       0.10974335 Ry

     iteration #  6     ecut=    55.12 Ry     beta= 0.10
     Davidson diagonalization with overlap
     c_bands:  1 eigenvalues not converged
     ethr =  4.35E-05,  avg # of iterations =  8.6

     negative rho (up, down):  3.305E-04 0.000E+00

     Adding external electric field

     Computed dipole along edir(3) : 
        Dipole                0.0185 Ry au,          0.0470 Debye
        Dipole field          0.0000 Ry au, 

        Potential amp.       -0.0044 Ry
        Total length         45.1430 bohr


     total cpu time spent up to now is     6649.0 secs

     total energy              =   -5167.86239127 Ry
     estimated scf accuracy    <       0.04103482 Ry

     iteration #  7     ecut=    55.12 Ry     beta= 0.10
     Davidson diagonalization with overlap
     c_bands:  2 eigenvalues not converged
     c_bands:  1 eigenvalues not converged
     ethr =  1.63E-05,  avg # of iterations =  7.5

     negative rho (up, down):  3.687E-04 0.000E+00

     Adding external electric field

     Computed dipole along edir(3) : 
        Dipole                0.0280 Ry au,          0.0713 Debye
        Dipole field          0.0001 Ry au, 

        Potential amp.       -0.0067 Ry
        Total length         45.1430 bohr


     total cpu time spent up to now is     7564.0 secs

     total energy              =   -5167.86754834 Ry
     estimated scf accuracy    <       0.01952430 Ry

     iteration #  8     ecut=    55.12 Ry     beta= 0.10
     Davidson diagonalization with overlap
     c_bands:  1 eigenvalues not converged
     ethr =  7.75E-06,  avg # of iterations =  3.9

     negative rho (up, down):  3.486E-04 0.000E+00

     Adding external electric field

     Computed dipole along edir(3) : 
        Dipole                0.0306 Ry au,          0.0778 Debye
        Dipole field          0.0001 Ry au, 

        Potential amp.       -0.0073 Ry
        Total length         45.1430 bohr


     total cpu time spent up to now is     8471.8 secs

     total energy              =   -5167.86825693 Ry
     estimated scf accuracy    <       0.00374367 Ry

     iteration #  9     ecut=    55.12 Ry     beta= 0.10
     Davidson diagonalization with overlap
     ethr =  1.49E-06,  avg # of iterations =  7.6

     negative rho (up, down):  3.887E-04 0.000E+00

     Adding external electric field

     Computed dipole along edir(3) : 
        Dipole                0.0347 Ry au,          0.0882 Debye
        Dipole field          0.0001 Ry au, 

        Potential amp.       -0.0082 Ry
        Total length         45.1430 bohr


     total cpu time spent up to now is     9372.0 secs

     total energy              =   -5167.86900083 Ry
     estimated scf accuracy    <       0.00146899 Ry

     iteration # 10     ecut=    55.12 Ry     beta= 0.10
     Davidson diagonalization with overlap
     ethr =  5.83E-07,  avg # of iterations =  2.2

     negative rho (up, down):  3.729E-04 0.000E+00

     Adding external electric field

     Computed dipole along edir(3) : 
        Dipole                0.0309 Ry au,          0.0786 Debye
        Dipole field          0.0001 Ry au, 

        Potential amp.       -0.0073 Ry
        Total length         45.1430 bohr


     total cpu time spent up to now is    10769.7 secs

     total energy              =   -5167.86894921 Ry
     estimated scf accuracy    <       0.00086076 Ry

     iteration # 11     ecut=    55.12 Ry     beta= 0.10
     Davidson diagonalization with overlap
     ethr =  3.42E-07,  avg # of iterations =  2.0

     negative rho (up, down):  3.480E-04 0.000E+00

     Adding external electric field

     Computed dipole along edir(3) : 
        Dipole                0.0322 Ry au,          0.0819 Debye
        Dipole field          0.0001 Ry au, 

        Potential amp.       -0.0076 Ry
        Total length         45.1430 bohr


     total cpu time spent up to now is    11350.8 secs

     total energy              =   -5167.86895203 Ry
     estimated scf accuracy    <       0.00014231 Ry

     iteration # 12     ecut=    55.12 Ry     beta= 0.10
     Davidson diagonalization with overlap
     ethr =  5.65E-08,  avg # of iterations =  3.1

     negative rho (up, down):  3.304E-04 0.000E+00

     Adding external electric field

     Computed dipole along edir(3) : 
        Dipole                0.0311 Ry au,          0.0790 Debye
        Dipole field          0.0001 Ry au, 

        Potential amp.       -0.0074 Ry
        Total length         45.1430 bohr


     total cpu time spent up to now is    12229.0 secs

     total energy              =   -5167.86897188 Ry
     estimated scf accuracy    <       0.00004486 Ry

     iteration # 13     ecut=    55.12 Ry     beta= 0.10
     Davidson diagonalization with overlap
     ethr =  1.78E-08,  avg # of iterations =  3.1

     negative rho (up, down):  3.125E-04 0.000E+00

     Adding external electric field

     Computed dipole along edir(3) : 
        Dipole                0.0315 Ry au,          0.0800 Debye
        Dipole field          0.0001 Ry au, 

        Potential amp.       -0.0075 Ry
        Total length         45.1430 bohr


     total cpu time spent up to now is    13102.0 secs

     total energy              =   -5167.86897664 Ry
     estimated scf accuracy    <       0.00001857 Ry

     iteration # 14     ecut=    55.12 Ry     beta= 0.10
     Davidson diagonalization with overlap
     ethr =  7.37E-09,  avg # of iterations =  2.1

     negative rho (up, down):  2.728E-04 0.000E+00

     Adding external electric field

     Computed dipole along edir(3) : 
        Dipole                0.0200 Ry au,          0.0509 Debye
        Dipole field          0.0001 Ry au, 

        Potential amp.       -0.0047 Ry
        Total length         45.1430 bohr


     total cpu time spent up to now is    13880.4 secs

     End of self-consistent calculation

          k = 0.0000 0.0000 0.0000 ( 33071 PWs)   bands (ev):

   -77.4920 -77.4874 -77.1196 -77.1152 -77.0575 -77.0531 -65.6882 -65.6782
   -65.6696 -65.6596 -65.4803 -65.4703 -39.3514 -39.2885 -39.2775 -39.2258
   -39.2141 -39.2029 -38.9189 -38.9043 -38.9020 -38.8722 -38.8485 -38.8410
   -38.8322 -38.8217 -38.8033 -38.7813 -38.7587 -38.7269 -32.1224 -32.1076
   -32.0894 -32.0749 -31.9550 -31.9370 -31.9202 -31.8985 -31.8906 -31.8551
   -31.8464 -31.7853 -31.7570 -31.7275 -31.7265 -31.7207 -31.6838 -31.6700
   -17.3905 -17.3874 -17.3850 -17.3846 -17.3755 -17.3683 -17.3663 -17.3648
   -17.3613 -17.3609 -17.3555 -17.3515 -17.3462 -17.3437 -17.3365 -17.3337
   -17.3303 -17.3228 -17.3163 -17.3135 -17.2889 -17.2888 -17.2798 -17.2793
   -17.2730 -17.2728 -17.2639 -17.2634 -17.1187 -17.1146 -17.1060 -17.1049
   -17.1042 -17.1028 -17.0962 -17.0961 -17.0922 -17.0889 -17.0782 -17.0736
   -17.0691 -17.0688  -5.4747  -3.4377  -2.7843  -2.5206  -2.3797  -2.3693
    -2.1922  -2.1468  -1.8658  -1.8429  -1.0813  -1.0744  -1.0674  -0.1742
    -0.1741  -0.0688   0.0531   0.1430   0.1587   0.3262   0.3644   0.4253
     0.8572   1.3434   1.4585   1.5508   1.7413   1.8707   2.2368   2.4011
     2.7092   2.7460   3.1323   3.1484   3.5999   3.7331   3.8042   4.2891
     4.2914   4.3720   4.5088   4.8125   5.0295   5.0815   5.1532   5.1599
     5.2700   5.2861   5.3372   5.3389   5.4869   5.4993   5.6483   5.6702
     5.8684   5.9021   6.2081   6.2524   6.2830   6.5455   6.6919

          k = 0.0000 0.0159 0.0000 ( 33065 PWs)   bands (ev):

   -77.4920 -77.4875 -77.1195 -77.1153 -77.0574 -77.0531 -65.6881 -65.6784
   -65.6695 -65.6597 -65.4802 -65.4705 -39.3486 -39.2876 -39.2770 -39.2255
   -39.2142 -39.2052 -38.9188 -38.9048 -38.8991 -38.8695 -38.8485 -38.8399
   -38.8327 -38.8212 -38.8024 -38.7812 -38.7608 -38.7291 -32.1224 -32.1082
   -32.0894 -32.0755 -31.9520 -31.9342 -31.9206 -31.8954 -31.8917 -31.8579
   -31.8499 -31.7850 -31.7584 -31.7324 -31.7257 -31.7243 -31.6843 -31.6748
   -17.3905 -17.3875 -17.3850 -17.3847 -17.3754 -17.3683 -17.3664 -17.3649
   -17.3613 -17.3610 -17.3553 -17.3514 -17.3463 -17.3438 -17.3364 -17.3337
   -17.3301 -17.3230 -17.3163 -17.3136 -17.2888 -17.2886 -17.2800 -17.2796
   -17.2730 -17.2726 -17.2642 -17.2636 -17.1185 -17.1144 -17.1060 -17.1052
   -17.1044 -17.1029 -17.0962 -17.0961 -17.0921 -17.0890 -17.0781 -17.0735
   -17.0693 -17.0690  -5.4161  -3.3802  -2.7237  -2.5115  -2.3529  -2.3238
    -2.1647  -2.1119  -1.8306  -1.8105  -1.0827  -1.0161  -1.0061  -0.1611
    -0.1511  -0.0432   0.0751   0.1630   0.1634   0.3058   0.3747   0.4610
     0.8665   1.2960   1.4080   1.5611   1.6388   1.8788   2.1896   2.4339
     2.6496   2.6873   2.9772   3.0935   3.5311   3.6508   3.8341   3.9206
     4.1406   4.3875   4.5237   4.9651   4.9736   5.0179   5.0343   5.1726
     5.2069   5.2512   5.2644   5.3694   5.5388   5.5580   5.6042   5.7192
     5.8340   5.9106   6.2081   6.2527   6.2736   6.4974   6.7020

          k = 0.0000 0.0319 0.0000 ( 33091 PWs)   bands (ev):

   -77.4917 -77.4878 -77.1193 -77.1155 -77.0572 -77.0534 -65.6876 -65.6789
   -65.6690 -65.6603 -65.4797 -65.4710 -39.3405 -39.2851 -39.2756 -39.2246
   -39.2144 -39.2118 -38.9182 -38.9058 -38.8912 -38.8615 -38.8483 -38.8369
   -38.8339 -38.8201 -38.7998 -38.7808 -38.7670 -38.7355 -32.1225 -32.1098
   -32.0894 -32.0770 -31.9433 -31.9264 -31.9217 -31.8942 -31.8862 -31.8656
   -31.8591 -31.7844 -31.7628 -31.7452 -31.7391 -31.7204 -31.6883 -31.6858
   -17.3903 -17.3877 -17.3851 -17.3848 -17.3750 -17.3681 -17.3669 -17.3651
   -17.3614 -17.3611 -17.3549 -17.3510 -17.3468 -17.3442 -17.3363 -17.3339
   -17.3298 -17.3234 -17.3162 -17.3138 -17.2887 -17.2882 -17.2807 -17.2802
   -17.2729 -17.2723 -17.2649 -17.2642 -17.1180 -17.1140 -17.1060 -17.1058
   -17.1050 -17.1030 -17.0963 -17.0962 -17.0920 -17.0892 -17.0777 -17.0735
   -17.0696 -17.0695  -5.2438  -3.2140  -2.5522  -2.5471  -2.2240  -2.1897
    -2.1076  -1.9937  -1.7443  -1.7012  -1.0926  -0.8642  -0.8016  -0.1256
    -0.0916   0.0253   0.1288   0.1690   0.2126   0.2454   0.4094   0.5811
     0.8911   1.1769   1.2797   1.3869   1.5543   1.8945   2.1030   2.4512
     2.4962   2.5564   2.6239   2.9711   3.2946   3.3648   3.3976   3.7939
     3.8878   4.3380   4.5151   4.7007   4.8881   4.9059   4.9530   5.0840
     5.1200   5.1385   5.2057   5.3770   5.5241   5.6477   5.7003   5.7357
     5.9190   5.9355   6.0704   6.1586   6.2827   6.3541   6.5465

          k = 0.0000 0.0478 0.0000 ( 33070 PWs)   bands (ev):

   -77.4913 -77.4881 -77.1189 -77.1159 -77.0568 -77.0537 -65.6869 -65.6798
   -65.6683 -65.6611 -65.4789 -65.4718 -39.3278 -39.2817 -39.2736 -39.2232
   -39.2223 -39.2149 -38.9174 -38.9072 -38.8790 -38.8492 -38.8477 -38.8354
   -38.8327 -38.8188 -38.7963 -38.7805 -38.7769 -38.7459 -32.1225 -32.1123
   -32.0892 -32.0792 -31.9294 -31.9227 -31.9156 -31.8951 -31.8761 -31.8717
   -31.8707 -31.7837 -31.7723 -31.7642 -31.7576 -31.7152 -31.7087 -31.6880
   -17.3901 -17.3879 -17.3852 -17.3850 -17.3742 -17.3679 -17.3676 -17.3654
   -17.3615 -17.3613 -17.3542 -17.3505 -17.3475 -17.3449 -17.3361 -17.3342
   -17.3293 -17.3240 -17.3160 -17.3141 -17.2883 -17.2876 -17.2818 -17.2810
   -17.2725 -17.2716 -17.2659 -17.2651 -17.1172 -17.1133 -17.1073 -17.1060
   -17.1055 -17.1033 -17.0964 -17.0964 -17.0918 -17.0895 -17.0770 -17.0734
   -17.0704 -17.0701  -4.9683  -2.9586  -2.6929  -2.2713  -2.0455  -1.9898
    -1.9737  -1.8107  -1.6221  -1.5244  -1.1000  -0.6163  -0.5054  -0.0781
    -0.0357   0.0937   0.1403   0.1655   0.1732   0.2751   0.5242   0.7782
     0.9216   1.0257   1.1152   1.1453   1.4804   1.7646   2.1096   2.2021
     2.3173   2.3517   2.4761   2.6348   2.8853   2.9476   3.2030   3.4845
     3.8945   3.9642   4.2698   4.5881   4.7559   4.7636   4.8184   4.9923
     5.0617   5.0749   5.1742   5.3363   5.4355   5.5689   5.6519   5.6592
     5.8641   5.9217   5.9655   6.0348   6.1093   6.2085   6.3824

          k = 0.0000 0.0637 0.0000 ( 33036 PWs)   bands (ev):

   -77.4909 -77.4886 -77.1184 -77.1163 -77.0564 -77.0542 -65.6859 -65.6808
   -65.6673 -65.6622 -65.4779 -65.4729 -39.3118 -39.2783 -39.2717 -39.2363
   -39.2216 -39.2157 -38.9161 -38.9090 -38.8638 -38.8467 -38.8377 -38.8328
   -38.8284 -38.8178 -38.7925 -38.7900 -38.7804 -38.7593 -32.1222 -32.1151
   -32.0888 -32.0818 -31.9224 -31.9146 -31.9074 -31.8874 -31.8870 -31.8801
   -31.8513 -31.7948 -31.7868 -31.7825 -31.7712 -31.7339 -31.7092 -31.6910
   -17.3897 -17.3882 -17.3852 -17.3851 -17.3733 -17.3686 -17.3674 -17.3657
   -17.3616 -17.3614 -17.3532 -17.3498 -17.3485 -17.3457 -17.3359 -17.3345
   -17.3286 -17.3248 -17.3157 -17.3144 -17.2877 -17.2868 -17.2831 -17.2821
   -17.2719 -17.2708 -17.2672 -17.2662 -17.1160 -17.1123 -17.1090 -17.1072
   -17.1052 -17.1036 -17.0965 -17.0965 -17.0915 -17.0899 -17.0761 -17.0731
   -17.0714 -17.0708  -4.6074  -2.9489  -2.6504  -1.9928  -1.9276  -1.7090
    -1.6912  -1.6040  -1.4820  -1.3149  -1.1054  -0.2950  -0.2821  -0.0322
    -0.0314   0.0289   0.0626   0.1196   0.2369   0.3675   0.7147   0.8323
     0.8917   1.0136   1.0153   1.2031   1.3315   1.5860   1.7173   2.0263
     2.0748   2.2003   2.2686   2.4311   2.4699   2.8541   3.0906   3.2829
     3.3431   3.8487   3.9665   4.5637   4.6622   4.6887   4.7587   4.7982
     4.8806   4.9612   5.0985   5.1052   5.2413   5.2894   5.3879   5.5605
     5.6335   5.8531   5.9376   5.9453   6.0678   6.2155   6.2294

          k = 0.0000 0.0797 0.0000 ( 33081 PWs)   bands (ev):

   -77.4903 -77.4891 -77.1179 -77.1168 -77.0559 -77.0547 -65.6847 -65.6821
   -65.6661 -65.6635 -65.4767 -65.4742 -39.2941 -39.2761 -39.2700 -39.2523
   -39.2198 -39.2168 -38.9146 -38.9109 -38.8490 -38.8455 -38.8369 -38.8251
   -38.8186 -38.8147 -38.8051 -38.7904 -38.7810 -38.7741 -32.1214 -32.1178
   -32.0879 -32.0843 -31.9201 -31.9128 -31.9012 -31.8961 -31.8778 -31.8640
   -31.8275 -31.8236 -31.8130 -31.7827 -31.7797 -31.7584 -31.7037 -31.6946
   -17.3894 -17.3886 -17.3853 -17.3853 -17.3722 -17.3698 -17.3670 -17.3662
   -17.3617 -17.3616 -17.3522 -17.3498 -17.3487 -17.3467 -17.3356 -17.3349
   -17.3277 -17.3258 -17.3155 -17.3148 -17.2869 -17.2858 -17.2844 -17.2833
   -17.2711 -17.2698 -17.2686 -17.2674 -17.1145 -17.1114 -17.1107 -17.1085
   -17.1048 -17.1040 -17.0966 -17.0966 -17.0912 -17.0903 -17.0751 -17.0728
   -17.0725 -17.0715  -4.1864  -3.3110  -2.3464  -2.0011  -1.5718  -1.4383
    -1.4221  -1.3862  -1.3646  -1.1440  -1.1229  -0.5121  -0.0729  -0.0531
     0.0038   0.0712   0.0879   0.1285   0.2675   0.4666   0.7390   0.7848
     0.8465   1.0777   1.1325   1.1876   1.4724   1.4736   1.5357   1.6459
     1.8773   1.9578   2.1143   2.2013   2.5775   2.6462   2.8890   3.0770
     3.1574   3.4511   4.0824   4.3211   4.4320   4.5846   4.5950   4.6706
     4.6899   4.7710   4.9132   5.0571   5.1878   5.2960   5.3015   5.3540
     5.5565   5.6737   5.8442   5.9330   6.0133   6.0841   6.4850

          k = 0.0000-0.0956 0.0000 ( 33064 PWs)   bands (ev):

   -77.4897 -77.4897 -77.1174 -77.1174 -77.0553 -77.0553 -65.6834 -65.6834
   -65.6648 -65.6648 -65.4755 -65.4755 -39.2791 -39.2791 -39.2662 -39.2662
   -39.2182 -39.2182 -38.9128 -38.9128 -38.8446 -38.8446 -38.8275 -38.8275
   -38.8168 -38.8168 -38.7983 -38.7983 -38.7813 -38.7813 -32.1200 -32.1200
   -32.0863 -32.0863 -31.9160 -31.9160 -31.9013 -31.9013 -31.8527 -31.8527
   -31.8395 -31.8395 -31.8023 -31.8023 -31.7735 -31.7735 -31.6988 -31.6988
   -17.3890 -17.3890 -17.3853 -17.3853 -17.3710 -17.3710 -17.3666 -17.3666
   -17.3616 -17.3616 -17.3510 -17.3510 -17.3477 -17.3477 -17.3352 -17.3352
   -17.3267 -17.3267 -17.3151 -17.3151 -17.2858 -17.2858 -17.2845 -17.2845
   -17.2700 -17.2700 -17.2686 -17.2686 -17.1128 -17.1128 -17.1099 -17.1099
   -17.1044 -17.1044 -17.0966 -17.0966 -17.0907 -17.0907 -17.0739 -17.0739
   -17.0721 -17.0721  -3.7398  -3.7398  -2.1152  -2.1152  -1.3372  -1.3372
    -1.2980  -1.2980  -1.2560  -1.2560  -0.8676  -0.8676  -0.1050  -0.1050
     0.0406   0.0406   0.1666   0.1667   0.5527   0.5527   0.5960   0.5960
     0.9211   0.9211   1.2204   1.2204   1.4382   1.4382   1.5859   1.5859
     2.0067   2.0067   2.1048   2.1048   2.2912   2.2912   3.0497   3.0498
     3.1642   3.1642   4.1733   4.1733   4.3326   4.3326   4.6230   4.6230
     4.6918   4.6918   4.9396   4.9396   5.2163   5.2163   5.3918   5.3919
     5.4765   5.4765   5.8753   5.8753   6.0208   6.0208   6.8198

          k = 0.0151-0.0052 0.0000 ( 33065 PWs)   bands (ev):

   -77.4920 -77.4875 -77.1195 -77.1153 -77.0574 -77.0531 -65.6881 -65.6784
   -65.6695 -65.6597 -65.4802 -65.4705 -39.3486 -39.2876 -39.2770 -39.2255
   -39.2142 -39.2052 -38.9188 -38.9048 -38.8991 -38.8695 -38.8485 -38.8399
   -38.8327 -38.8212 -38.8024 -38.7812 -38.7608 -38.7291 -32.1224 -32.1082
   -32.0894 -32.0755 -31.9520 -31.9342 -31.9206 -31.8954 -31.8917 -31.8579
   -31.8499 -31.7850 -31.7584 -31.7324 -31.7257 -31.7243 -31.6843 -31.6748
   -17.3905 -17.3875 -17.3850 -17.3847 -17.3754 -17.3683 -17.3664 -17.3649
   -17.3613 -17.3610 -17.3553 -17.3514 -17.3463 -17.3438 -17.3364 -17.3337
   -17.3301 -17.3230 -17.3163 -17.3136 -17.2888 -17.2886 -17.2800 -17.2796
   -17.2730 -17.2726 -17.2642 -17.2636 -17.1185 -17.1144 -17.1060 -17.1052
   -17.1044 -17.1029 -17.0962 -17.0961 -17.0921 -17.0890 -17.0781 -17.0735
   -17.0693 -17.0690  -5.4161  -3.3802  -2.7237  -2.5115  -2.3529  -2.3238
    -2.1647  -2.1119  -1.8306  -1.8105  -1.0827  -1.0161  -1.0061  -0.1611
    -0.1511  -0.0432   0.0751   0.1630   0.1634   0.3058   0.3747   0.4610
     0.8665   1.2960   1.4080   1.5611   1.6388   1.8788   2.1896   2.4339
     2.6496   2.6873   2.9772   3.0935   3.5311   3.6508   3.8341   3.9206
     4.1406   4.3875   4.5237   4.9650   4.9736   5.0179   5.0343   5.1726
     5.2069   5.2512   5.2644   5.3694   5.5388   5.5580   5.6042   5.7191
     5.8340   5.9106   6.2081   6.2526   6.2736   6.4973   6.7020

          k = 0.0151 0.0108 0.0000 ( 33092 PWs)   bands (ev):

   -77.4920 -77.4874 -77.1196 -77.1152 -77.0575 -77.0531 -65.6883 -65.6782
   -65.6697 -65.6596 -65.4804 -65.4703 -39.3504 -39.2872 -39.2760 -39.2257
   -39.2137 -39.2027 -38.9191 -38.9045 -38.9009 -38.8712 -38.8489 -38.8388
   -38.8330 -38.8201 -38.8018 -38.7808 -38.7585 -38.7267 -32.1243 -32.1074
   -32.0900 -32.0755 -31.9580 -31.9394 -31.9195 -31.9003 -31.8899 -31.8644
   -31.8559 -31.7816 -31.7616 -31.7282 -31.7218 -31.7213 -31.6855 -31.6708
   -17.3906 -17.3875 -17.3851 -17.3846 -17.3755 -17.3684 -17.3663 -17.3649
   -17.3614 -17.3610 -17.3555 -17.3515 -17.3462 -17.3437 -17.3365 -17.3337
   -17.3302 -17.3228 -17.3163 -17.3136 -17.2891 -17.2889 -17.2800 -17.2794
   -17.2732 -17.2730 -17.2641 -17.2634 -17.1188 -17.1148 -17.1060 -17.1051
   -17.1042 -17.1029 -17.0963 -17.0961 -17.0922 -17.0890 -17.0783 -17.0736
   -17.0692 -17.0688  -5.3939  -3.3586  -2.7079  -2.4802  -2.3412  -2.3351
    -2.1326  -2.0908  -1.8305  -1.8040  -1.0356  -1.0241  -1.0204  -0.1450
    -0.0981  -0.0443   0.0666   0.1541   0.1765   0.3523   0.3840   0.4774
     0.9287   1.3400   1.4661   1.6202   1.7074   1.8776   2.2019   2.3683
     2.7267   2.7431   2.9631   3.0771   3.4646   3.4925   3.8934   4.0257
     4.1968   4.2830   4.5018   4.7867   4.8475   4.8499   4.9538   5.0929
     5.1155   5.1421   5.2328   5.3721   5.4932   5.4955   5.5174   5.8615
     5.9505   5.9778   6.1934   6.3224   6.4754   6.5397   6.5423

          k = 0.0151 0.0267 0.0000 ( 33117 PWs)   bands (ev):

   -77.4920 -77.4875 -77.1195 -77.1153 -77.0575 -77.0532 -65.6881 -65.6784
   -65.6695 -65.6598 -65.4803 -65.4704 -39.3468 -39.2852 -39.2742 -39.2254
   -39.2135 -39.2047 -38.9190 -38.9051 -38.8972 -38.8675 -38.8490 -38.8361
   -38.8340 -38.8186 -38.7996 -38.7801 -38.7604 -38.7287 -32.1262 -32.1078
   -32.0903 -32.0764 -31.9577 -31.9389 -31.9193 -31.8989 -31.8903 -31.8748
   -31.8664 -31.7790 -31.7675 -31.7332 -31.7265 -31.7167 -31.6877 -31.6761
   -17.3905 -17.3875 -17.3852 -17.3848 -17.3754 -17.3683 -17.3665 -17.3650
   -17.3615 -17.3611 -17.3554 -17.3514 -17.3464 -17.3438 -17.3365 -17.3338
   -17.3301 -17.3230 -17.3164 -17.3137 -17.2892 -17.2889 -17.2803 -17.2795
   -17.2733 -17.2730 -17.2645 -17.2636 -17.1188 -17.1148 -17.1060 -17.1055
   -17.1044 -17.1029 -17.0964 -17.0962 -17.0922 -17.0890 -17.0782 -17.0737
   -17.0693 -17.0691  -5.2572  -3.2265  -2.5757  -2.4840  -2.2713  -2.2225
    -2.0689  -1.9846  -1.7594  -1.7373  -1.0577  -0.9233  -0.8440  -0.0994
    -0.0136  -0.0011   0.0988   0.1510   0.2227   0.3547   0.4097   0.5761
     1.0035   1.2991   1.4159   1.5859   1.6594   1.9242   2.1232   2.3699
     2.6730   2.6896   2.8059   2.8793   3.2481   3.2863   3.5765   3.9505
     3.9527   4.1546   4.4753   4.5696   4.6524   4.6942   4.8413   4.9732
     4.9758   5.1352   5.2016   5.3625   5.4384   5.5200   5.5505   5.8550
     5.9561   6.1004   6.1762   6.2482   6.3674   6.4642   6.5011

          k = 0.0151 0.0426 0.0000 ( 33092 PWs)   bands (ev):

   -77.4917 -77.4878 -77.1193 -77.1155 -77.0572 -77.0534 -65.6877 -65.6790
   -65.6691 -65.6603 -65.4798 -65.4709 -39.3380 -39.2821 -39.2719 -39.2245
   -39.2135 -39.2112 -38.9185 -38.9062 -38.8887 -38.8589 -38.8485 -38.8353
   -38.8323 -38.8171 -38.7962 -38.7795 -38.7666 -38.7351 -32.1279 -32.1092
   -32.0901 -32.0781 -31.9510 -31.9330 -31.9192 -31.8922 -31.8910 -31.8869
   -31.8780 -31.7775 -31.7755 -31.7460 -31.7398 -31.7109 -31.6904 -31.6895
   -17.3904 -17.3877 -17.3853 -17.3849 -17.3750 -17.3682 -17.3669 -17.3651
   -17.3617 -17.3612 -17.3550 -17.3510 -17.3468 -17.3443 -17.3364 -17.3339
   -17.3298 -17.3234 -17.3163 -17.3138 -17.2890 -17.2886 -17.2811 -17.2801
   -17.2732 -17.2727 -17.2653 -17.2641 -17.1183 -17.1145 -17.1064 -17.1058
   -17.1049 -17.1032 -17.0965 -17.0964 -17.0921 -17.0892 -17.0777 -17.0737
   -17.0696 -17.0696  -5.0146  -3.0000  -2.5912  -2.3417  -2.1200  -2.0117
    -1.9764  -1.8039  -1.6390  -1.6049  -1.0791  -0.7273  -0.5572  -0.0433
     0.0498   0.0719   0.1375   0.1497   0.2697   0.3067   0.4971   0.7596
     1.0646   1.2061   1.2873   1.3751   1.5897   1.9140   2.1544   2.3398
     2.4356   2.5384   2.5850   2.7338   2.9247   2.9681   3.1054   3.5535
     3.7982   3.9607   4.2280   4.4157   4.5080   4.5121   4.7106   4.8968
     4.9698   4.9948   5.1938   5.3561   5.3930   5.4887   5.6944   5.6983
     5.8010   5.8467   6.0681   6.1588   6.2320   6.3363   6.3956

          k = 0.0151 0.0586 0.0000 ( 33042 PWs)   bands (ev):

   -77.4913 -77.4881 -77.1189 -77.1158 -77.0568 -77.0537 -65.6869 -65.6798
   -65.6683 -65.6612 -65.4791 -65.4718 -39.3252 -39.2789 -39.2698 -39.2232
   -39.2220 -39.2138 -38.9175 -38.9078 -38.8763 -38.8475 -38.8464 -38.8366
   -38.8283 -38.8162 -38.7925 -38.7793 -38.7767 -38.7456 -32.1290 -32.1110
   -32.0895 -32.0801 -31.9384 -31.9227 -31.9186 -31.8981 -31.8974 -31.8853
   -31.8754 -31.7854 -31.7764 -31.7649 -31.7588 -31.7098 -31.7049 -31.6937
   -17.3901 -17.3879 -17.3854 -17.3850 -17.3743 -17.3679 -17.3676 -17.3654
   -17.3618 -17.3613 -17.3543 -17.3505 -17.3475 -17.3449 -17.3362 -17.3342
   -17.3293 -17.3240 -17.3161 -17.3141 -17.2886 -17.2880 -17.2822 -17.2808
   -17.2728 -17.2721 -17.2664 -17.2649 -17.1174 -17.1138 -17.1077 -17.1058
   -17.1055 -17.1034 -17.0966 -17.0965 -17.0919 -17.0895 -17.0771 -17.0736
   -17.0704 -17.0702  -4.6815  -2.8075  -2.7098  -2.0335  -1.9350  -1.9001
    -1.6945  -1.5936  -1.5066  -1.4052  -1.0882  -0.4386  -0.2466  -0.0605
     0.0256   0.0904   0.1344   0.2080   0.2157   0.3325   0.6715   0.9898
     1.0127   1.0320   1.2174   1.3518   1.4434   1.7334   2.0126   2.1150
     2.2737   2.3045   2.4134   2.5201   2.5800   2.7706   2.9789   3.2170
     3.2674   3.8202   3.8951   4.3563   4.3980   4.4562   4.6885   4.7369
     4.9002   4.9293   5.0009   5.0400   5.1807   5.3450   5.4360   5.6627
     5.7074   5.7990   5.8593   6.0765   6.1837   6.2585   6.2711

          k = 0.0151 0.0745 0.0000 ( 33026 PWs)   bands (ev):

   -77.4908 -77.4886 -77.1184 -77.1163 -77.0564 -77.0542 -65.6859 -65.6809
   -65.6673 -65.6622 -65.4781 -65.4728 -39.3093 -39.2762 -39.2685 -39.2363
   -39.2217 -39.2147 -38.9162 -38.9095 -38.8615 -38.8461 -38.8384 -38.8303
   -38.8249 -38.8163 -38.7902 -38.7892 -38.7799 -38.7594 -32.1291 -32.1130
   -32.0884 -32.0821 -31.9241 -31.9178 -31.9100 -31.9050 -31.9023 -31.8802
   -31.8551 -31.7992 -31.7874 -31.7790 -31.7749 -31.7338 -31.6999 -31.6976
   -17.3898 -17.3882 -17.3855 -17.3851 -17.3734 -17.3686 -17.3675 -17.3658
   -17.3618 -17.3614 -17.3533 -17.3497 -17.3485 -17.3457 -17.3360 -17.3345
   -17.3285 -17.3248 -17.3159 -17.3144 -17.2880 -17.2872 -17.2834 -17.2818
   -17.2722 -17.2713 -17.2676 -17.2659 -17.1161 -17.1129 -17.1093 -17.1069
   -17.1051 -17.1037 -17.0966 -17.0966 -17.0916 -17.0899 -17.0762 -17.0732
   -17.0714 -17.0708  -4.2795  -3.1349  -2.4044  -1.9126  -1.7169  -1.6246
    -1.4050  -1.3924  -1.3893  -1.1758  -1.1014  -0.2874  -0.1082  -0.0707
     0.0089   0.0426   0.1144   0.1373   0.2766   0.4156   0.8370   0.8533
     0.8634   1.2162   1.2175   1.2738   1.5549   1.5915   1.7009   1.7524
     1.8092   2.0930   2.2829   2.3710   2.5426   2.6476   2.8546   2.9878
     3.0393   3.4450   3.8892   4.2212   4.3460   4.4053   4.5102   4.5107
     4.7929   4.8490   4.8848   4.9555   4.9643   5.1125   5.3640   5.4831
     5.8065   5.8124   5.8533   5.9087   6.0750   6.1526   6.3688

          k = 0.0151-0.1008 0.0000 ( 33032 PWs)   bands (ev):

   -77.4903 -77.4891 -77.1179 -77.1168 -77.0558 -77.0547 -65.6847 -65.6821
   -65.6661 -65.6635 -65.4769 -65.4740 -39.2920 -39.2752 -39.2681 -39.2531
   -39.2202 -39.2160 -38.9145 -38.9113 -38.8480 -38.8444 -38.8365 -38.8231
   -38.8180 -38.8129 -38.8059 -38.7883 -38.7814 -38.7744 -32.1279 -32.1147
   -32.0867 -32.0839 -31.9233 -31.9187 -31.9035 -31.8987 -31.8862 -31.8651
   -31.8297 -31.8215 -31.8121 -31.7929 -31.7723 -31.7593 -31.7019 -31.6955
   -17.3894 -17.3886 -17.3855 -17.3852 -17.3723 -17.3697 -17.3671 -17.3661
   -17.3619 -17.3615 -17.3522 -17.3498 -17.3486 -17.3467 -17.3357 -17.3348
   -17.3277 -17.3258 -17.3156 -17.3147 -17.2870 -17.2862 -17.2846 -17.2830
   -17.2712 -17.2702 -17.2688 -17.2670 -17.1145 -17.1118 -17.1110 -17.1081
   -17.1047 -17.1041 -17.0967 -17.0966 -17.0912 -17.0903 -17.0751 -17.0729
   -17.0725 -17.0714  -3.8384  -3.5450  -2.1480  -1.9857  -1.5410  -1.3508
    -1.2977  -1.2801  -1.2129  -1.1285  -0.9345  -0.6447  -0.2053   0.0283
     0.0323   0.0751   0.1175   0.2341   0.3659   0.5135   0.7041   0.7367
     0.8698   1.0049   1.1627   1.3126   1.4441   1.4959   1.5194   1.6065
     1.8924   1.9727   2.1688   2.2088   2.2713   2.3227   2.9766   3.0304
     3.1445   3.1623   4.0077   4.1626   4.2551   4.3753   4.4884   4.5550
     4.6315   4.7871   4.9072   4.9411   4.9824   5.1558   5.3489   5.4186
     5.7024   5.7510   5.8715   5.8932   5.9758   6.0644   6.6150

          k = 0.0151-0.0848 0.0000 ( 33066 PWs)   bands (ev):

   -77.4897 -77.4897 -77.1174 -77.1174 -77.0553 -77.0553 -65.6834 -65.6834
   -65.6648 -65.6648 -65.4756 -65.4753 -39.2792 -39.2773 -39.2679 -39.2661
   -39.2187 -39.2176 -38.9131 -38.9126 -38.8449 -38.8432 -38.8278 -38.8267
   -38.8178 -38.8174 -38.7989 -38.7966 -38.7829 -38.7807 -32.1253 -32.1162
   -32.0852 -32.0846 -31.9271 -31.9186 -31.8960 -31.8892 -31.8572 -31.8478
   -31.8421 -31.8381 -31.8050 -31.8010 -31.7807 -31.7680 -31.7069 -31.6918
   -17.3890 -17.3890 -17.3854 -17.3852 -17.3711 -17.3709 -17.3666 -17.3666
   -17.3618 -17.3615 -17.3510 -17.3509 -17.3477 -17.3477 -17.3353 -17.3352
   -17.3268 -17.3267 -17.3152 -17.3151 -17.2859 -17.2857 -17.2849 -17.2842
   -17.2701 -17.2699 -17.2689 -17.2682 -17.1128 -17.1127 -17.1103 -17.1095
   -17.1045 -17.1043 -17.0967 -17.0966 -17.0908 -17.0907 -17.0739 -17.0738
   -17.0722 -17.0720  -3.9908  -3.3965  -2.1850  -1.9967  -1.5901  -1.4104
    -1.3970  -1.2851  -1.0791  -1.0728  -1.0435  -0.6540  -0.2196  -0.0522
     0.0447   0.1184   0.1541   0.2091   0.3581   0.5639   0.6410   0.7878
     0.7999   0.9588   1.0258   1.1269   1.2744   1.4108   1.5295   1.5547
     1.8755   1.8811   1.9474   1.9971   2.5924   2.6446   2.9049   3.0486
     3.2007   3.4566   4.2433   4.2692   4.4047   4.4113   4.4712   4.6357
     4.7066   4.7614   4.9802   5.0877   5.0969   5.3624   5.4417   5.4742
     5.5525   5.6309   5.8599   5.8992   6.0237   6.0364   6.7608

          k = 0.0151-0.0689 0.0000 ( 33051 PWs)   bands (ev):

   -77.4903 -77.4891 -77.1179 -77.1168 -77.0558 -77.0547 -65.6847 -65.6821
   -65.6660 -65.6634 -65.4766 -65.4743 -39.2953 -39.2762 -39.2723 -39.2524
   -39.2195 -39.2175 -38.9147 -38.9106 -38.8492 -38.8455 -38.8366 -38.8272
   -38.8197 -38.8162 -38.8051 -38.7913 -38.7808 -38.7746 -32.1216 -32.1174
   -32.0862 -32.0822 -31.9287 -31.9155 -31.8887 -31.8791 -31.8706 -31.8631
   -31.8249 -31.8248 -31.8152 -31.7900 -31.7744 -31.7592 -31.7122 -31.6887
   -17.3893 -17.3886 -17.3853 -17.3851 -17.3721 -17.3698 -17.3670 -17.3662
   -17.3616 -17.3615 -17.3521 -17.3498 -17.3487 -17.3467 -17.3355 -17.3349
   -17.3277 -17.3257 -17.3154 -17.3148 -17.2868 -17.2854 -17.2842 -17.2836
   -17.2710 -17.2694 -17.2684 -17.2677 -17.1144 -17.1109 -17.1105 -17.1088
   -17.1049 -17.1039 -17.0966 -17.0965 -17.0911 -17.0903 -17.0750 -17.0727
   -17.0724 -17.0715  -4.4254  -3.0018  -2.4818  -1.9590  -1.7986  -1.7256
    -1.5745  -1.4298  -1.3979  -1.1844  -0.9898  -0.4138  -0.1462  -0.1339
    -0.0490   0.0799   0.1575   0.1723   0.2762   0.4478   0.6600   0.7841
     0.7847   0.8529   0.9203   1.0852   1.2340   1.4630   1.5232   1.6550
     1.8893   1.9880   2.1398   2.2141   2.5224   2.8347   3.0922   3.3477
     3.3516   3.8639   4.0738   4.5162   4.5667   4.6233   4.7363   4.7759
     4.9105   4.9950   5.0787   5.2246   5.2715   5.4149   5.5037   5.5437
     5.5895   5.8311   5.9052   5.9191   6.0400   6.2016   6.4554

          k = 0.0151-0.0530 0.0000 ( 33074 PWs)   bands (ev):

   -77.4909 -77.4886 -77.1185 -77.1163 -77.0564 -77.0542 -65.6858 -65.6808
   -65.6672 -65.6622 -65.4778 -65.4730 -39.3134 -39.2796 -39.2743 -39.2364
   -39.2215 -39.2164 -38.9161 -38.9087 -38.8653 -38.8464 -38.8372 -38.8338
   -38.8316 -38.8198 -38.7946 -38.7901 -38.7809 -38.7595 -32.1185 -32.1174
   -32.0871 -32.0799 -31.9278 -31.9105 -31.9027 -31.8870 -31.8691 -31.8677
   -31.8472 -31.7932 -31.7919 -31.7874 -31.7636 -31.7351 -31.7174 -31.6864
   -17.3897 -17.3882 -17.3851 -17.3851 -17.3733 -17.3686 -17.3674 -17.3657
   -17.3615 -17.3614 -17.3532 -17.3498 -17.3485 -17.3457 -17.3358 -17.3345
   -17.3286 -17.3248 -17.3157 -17.3144 -17.2876 -17.2864 -17.2828 -17.2823
   -17.2718 -17.2704 -17.2670 -17.2664 -17.1159 -17.1119 -17.1087 -17.1074
   -17.1052 -17.1035 -17.0965 -17.0964 -17.0914 -17.0899 -17.0761 -17.0730
   -17.0714 -17.0708  -4.8100  -2.8047  -2.7028  -2.0873  -2.0507  -1.9938
    -1.7780  -1.7611  -1.5490  -1.3836  -0.9840  -0.4926  -0.4211  -0.1828
    -0.0110   0.0355   0.1822   0.2062   0.2394   0.3436   0.5798   0.7686
     0.8058   0.8125   0.8980   0.9560   1.4217   1.5816   1.7705   2.0401
     2.0575   2.1725   2.2919   2.5112   2.6611   2.9608   3.1726   3.5003
     3.9095   3.9673   4.2920   4.6812   4.7188   4.7538   4.7761   4.8999
     5.1707   5.2409   5.2913   5.3486   5.3589   5.4255   5.5455   5.7653
     5.8182   5.9804   5.9876   6.0966   6.1412   6.2348   6.4402

          k = 0.0151-0.0370 0.0000 ( 33070 PWs)   bands (ev):

   -77.4913 -77.4881 -77.1189 -77.1159 -77.0568 -77.0537 -65.6868 -65.6797
   -65.6682 -65.6611 -65.4788 -65.4719 -39.3293 -39.2833 -39.2759 -39.2232
   -39.2226 -39.2155 -38.9173 -38.9070 -38.8805 -38.8508 -38.8472 -38.8358
   -38.8342 -38.8208 -38.7983 -38.7811 -38.7771 -38.7460 -32.1196 -32.1134
   -32.0878 -32.0779 -31.9255 -31.9237 -31.9094 -31.9005 -31.8690 -31.8610
   -31.8562 -31.7909 -31.7659 -31.7622 -31.7581 -31.7219 -31.7087 -31.6848
   -17.3900 -17.3879 -17.3850 -17.3849 -17.3742 -17.3678 -17.3676 -17.3654
   -17.3613 -17.3612 -17.3542 -17.3505 -17.3475 -17.3449 -17.3361 -17.3342
   -17.3293 -17.3240 -17.3159 -17.3141 -17.2881 -17.2873 -17.2815 -17.2812
   -17.2723 -17.2714 -17.2657 -17.2652 -17.1170 -17.1130 -17.1071 -17.1061
   -17.1055 -17.1032 -17.0963 -17.0963 -17.0917 -17.0895 -17.0770 -17.0733
   -17.0703 -17.0701  -5.1155  -3.0876  -2.5285  -2.3996  -2.2593  -2.0593
    -2.0282  -1.9623  -1.6850  -1.5823  -0.9893  -0.7737  -0.7102  -0.2014
    -0.0342   0.0998   0.1141   0.2073   0.2091   0.2497   0.4486   0.6166
     0.8046   0.9903   1.0795   1.1226   1.5076   1.7574   2.0873   2.1913
     2.2588   2.2991   2.6298   2.7897   3.0639   3.2418   3.2828   3.6392
     3.8739   4.4389   4.5528   4.6526   4.8607   4.9297   4.9687   5.0573
     5.2624   5.2980   5.3120   5.4109   5.4297   5.5361   5.5779   5.7881
     5.8387   5.9134   6.1227   6.1789   6.2367   6.3726   6.6763

          k = 0.0151-0.0211 0.0000 ( 33075 PWs)   bands (ev):

   -77.4917 -77.4877 -77.1193 -77.1155 -77.0572 -77.0534 -65.6876 -65.6789
   -65.6690 -65.6603 -65.4796 -65.4710 -39.3414 -39.2862 -39.2769 -39.2246
   -39.2148 -39.2120 -38.9182 -38.9056 -38.8921 -38.8625 -38.8479 -38.8388
   -38.8331 -38.8214 -38.8011 -38.7812 -38.7671 -38.7357 -32.1209 -32.1102
   -32.0886 -32.0763 -31.9403 -31.9237 -31.9228 -31.8958 -31.8845 -31.8568
   -31.8501 -31.7885 -31.7579 -31.7452 -31.7391 -31.7244 -31.6878 -31.6841
   -17.3903 -17.3877 -17.3850 -17.3847 -17.3749 -17.3681 -17.3669 -17.3651
   -17.3613 -17.3611 -17.3549 -17.3510 -17.3468 -17.3442 -17.3363 -17.3339
   -17.3298 -17.3234 -17.3161 -17.3138 -17.2885 -17.2881 -17.2806 -17.2802
   -17.2727 -17.2721 -17.2648 -17.2642 -17.1179 -17.1138 -17.1059 -17.1058
   -17.1051 -17.1030 -17.0962 -17.0962 -17.0919 -17.0892 -17.0777 -17.0734
   -17.0696 -17.0695  -5.3217  -3.2872  -2.6187  -2.4916  -2.3534  -2.2184
    -2.1269  -2.0772  -1.7811  -1.7335  -1.0023  -0.9839  -0.9114  -0.1953
    -0.1105   0.0084   0.1301   0.1828   0.1903   0.2256   0.3976   0.4989
     0.8250   1.1658   1.2808   1.3987   1.5334   1.8623   2.1142   2.4296
     2.5238   2.5818   2.6397   3.1335   3.4049   3.4359   3.6983   3.7841
     3.8353   4.5044   4.5621   4.8703   4.9295   5.1300   5.1433   5.1994
     5.2224   5.2503   5.3415   5.4258   5.5194   5.5509   5.6599   5.7204
     5.7265   5.8133   6.1155   6.1824   6.3280   6.3914   6.7768

          k = 0.0301-0.0104 0.0000 ( 33091 PWs)   bands (ev):

   -77.4917 -77.4878 -77.1193 -77.1155 -77.0572 -77.0534 -65.6876 -65.6789
   -65.6690 -65.6603 -65.4797 -65.4710 -39.3405 -39.2851 -39.2756 -39.2246
   -39.2144 -39.2118 -38.9182 -38.9058 -38.8912 -38.8615 -38.8483 -38.8369
   -38.8339 -38.8201 -38.7998 -38.7808 -38.7670 -38.7355 -32.1225 -32.1098
   -32.0894 -32.0770 -31.9433 -31.9264 -31.9217 -31.8942 -31.8862 -31.8656
   -31.8591 -31.7844 -31.7628 -31.7452 -31.7391 -31.7204 -31.6883 -31.6858
   -17.3903 -17.3877 -17.3851 -17.3848 -17.3750 -17.3681 -17.3669 -17.3651
   -17.3614 -17.3611 -17.3549 -17.3510 -17.3468 -17.3442 -17.3363 -17.3339
   -17.3298 -17.3234 -17.3162 -17.3138 -17.2887 -17.2882 -17.2807 -17.2802
   -17.2729 -17.2723 -17.2649 -17.2642 -17.1180 -17.1140 -17.1060 -17.1058
   -17.1050 -17.1030 -17.0963 -17.0962 -17.0920 -17.0892 -17.0777 -17.0735
   -17.0696 -17.0695  -5.2438  -3.2140  -2.5522  -2.5471  -2.2240  -2.1897
    -2.1076  -1.9937  -1.7443  -1.7012  -1.0926  -0.8642  -0.8016  -0.1256
    -0.0916   0.0253   0.1288   0.1690   0.2126   0.2454   0.4094   0.5811
     0.8911   1.1769   1.2797   1.3869   1.5543   1.8945   2.1030   2.4512
     2.4962   2.5564   2.6239   2.9711   3.2946   3.3648   3.3976   3.7939
     3.8878   4.3380   4.5151   4.7007   4.8881   4.9059   4.9530   5.0840
     5.1200   5.1385   5.2057   5.3770   5.5241   5.6477   5.7003   5.7357
     5.9190   5.9355   6.0704   6.1586   6.2827   6.3541   6.5465

          k = 0.0301 0.0056 0.0000 ( 33117 PWs)   bands (ev):

   -77.4920 -77.4875 -77.1195 -77.1153 -77.0575 -77.0532 -65.6881 -65.6784
   -65.6695 -65.6598 -65.4803 -65.4704 -39.3468 -39.2852 -39.2742 -39.2254
   -39.2135 -39.2047 -38.9190 -38.9051 -38.8972 -38.8675 -38.8490 -38.8361
   -38.8340 -38.8186 -38.7996 -38.7801 -38.7604 -38.7287 -32.1262 -32.1078
   -32.0903 -32.0764 -31.9577 -31.9389 -31.9193 -31.8989 -31.8903 -31.8748
   -31.8664 -31.7790 -31.7675 -31.7332 -31.7265 -31.7167 -31.6877 -31.6761
   -17.3905 -17.3875 -17.3852 -17.3848 -17.3754 -17.3683 -17.3665 -17.3650
   -17.3615 -17.3611 -17.3554 -17.3514 -17.3464 -17.3438 -17.3365 -17.3338
   -17.3301 -17.3230 -17.3164 -17.3137 -17.2892 -17.2889 -17.2803 -17.2795
   -17.2733 -17.2730 -17.2645 -17.2636 -17.1188 -17.1148 -17.1060 -17.1055
   -17.1044 -17.1029 -17.0964 -17.0962 -17.0922 -17.0890 -17.0782 -17.0737
   -17.0693 -17.0691  -5.2572  -3.2265  -2.5757  -2.4840  -2.2713  -2.2225
    -2.0689  -1.9846  -1.7594  -1.7373  -1.0577  -0.9233  -0.8440  -0.0994
    -0.0136  -0.0011   0.0988   0.1510   0.2227   0.3547   0.4097   0.5761
     1.0035   1.2991   1.4159   1.5859   1.6594   1.9242   2.1232   2.3699
     2.6730   2.6896   2.8059   2.8793   3.2481   3.2863   3.5765   3.9505
     3.9527   4.1546   4.4753   4.5696   4.6524   4.6942   4.8413   4.9732
     4.9758   5.1352   5.2016   5.3625   5.4384   5.5200   5.5505   5.8550
     5.9561   6.1004   6.1763   6.2481   6.3674   6.4642   6.5010

          k = 0.0301 0.0215 0.0000 ( 33130 PWs)   bands (ev):

   -77.4920 -77.4875 -77.1196 -77.1152 -77.0575 -77.0531 -65.6883 -65.6783
   -65.6697 -65.6596 -65.4805 -65.4702 -39.3477 -39.2836 -39.2719 -39.2256
   -39.2127 -39.2020 -38.9194 -38.9051 -38.8980 -38.8682 -38.8491 -38.8346
   -38.8338 -38.8168 -38.7977 -38.7792 -38.7579 -38.7262 -32.1302 -32.1074
   -32.0904 -32.0763 -31.9660 -31.9459 -31.9181 -31.9054 -31.8898 -31.8870
   -31.8764 -31.7755 -31.7746 -31.7301 -31.7231 -31.7115 -31.6902 -31.6729
   -17.3906 -17.3875 -17.3853 -17.3848 -17.3757 -17.3684 -17.3663 -17.3649
   -17.3617 -17.3611 -17.3556 -17.3515 -17.3462 -17.3437 -17.3366 -17.3338
   -17.3302 -17.3229 -17.3165 -17.3136 -17.2895 -17.2893 -17.2804 -17.2793
   -17.2737 -17.2734 -17.2645 -17.2634 -17.1191 -17.1152 -17.1060 -17.1055
   -17.1041 -17.1029 -17.0965 -17.0963 -17.0923 -17.0890 -17.0783 -17.0739
   -17.0692 -17.0689  -5.1566  -3.1276  -2.4916  -2.3669  -2.2711  -2.2082
    -1.9578  -1.9275  -1.7285  -1.6895  -0.9045  -0.8844  -0.8784  -0.0661
     0.0164   0.1181   0.1275   0.1462   0.2671   0.4305   0.4396   0.6266
     1.1334   1.3428   1.4774   1.6167   1.8208   1.8837   2.0959   2.2791
     2.5997   2.7200   2.7825   2.9047   3.0189   3.0976   3.4251   3.8940
     3.9114   4.0100   4.3627   4.4050   4.4162   4.4959   4.6670   4.8324
     4.8773   5.0903   5.1184   5.2973   5.3017   5.4579   5.5854   5.8572
     5.8924   6.1761   6.2353   6.2992   6.4584   6.4929   6.5201

          k = 0.0301 0.0374 0.0000 ( 33121 PWs)   bands (ev):

   -77.4919 -77.4876 -77.1195 -77.1153 -77.0574 -77.0532 -65.6882 -65.6785
   -65.6696 -65.6599 -65.4805 -65.4704 -39.3435 -39.2809 -39.2693 -39.2252
   -39.2122 -39.2039 -38.9193 -38.9058 -38.8938 -38.8640 -38.8487 -38.8355
   -38.8306 -38.8151 -38.7946 -38.7782 -38.7598 -38.7281 -32.1339 -32.1081
   -32.0900 -32.0766 -31.9674 -31.9468 -31.9180 -31.9053 -31.8996 -31.8961
   -31.8827 -31.7834 -31.7737 -31.7352 -31.7285 -31.7060 -31.6932 -31.6784
   -17.3906 -17.3876 -17.3855 -17.3849 -17.3756 -17.3684 -17.3665 -17.3650
   -17.3619 -17.3612 -17.3555 -17.3514 -17.3464 -17.3438 -17.3366 -17.3338
   -17.3301 -17.3230 -17.3165 -17.3137 -17.2897 -17.2894 -17.2808 -17.2794
   -17.2738 -17.2734 -17.2650 -17.2635 -17.1191 -17.1153 -17.1060 -17.1059
   -17.1043 -17.1031 -17.0966 -17.0964 -17.0923 -17.0891 -17.0782 -17.0741
   -17.0694 -17.0691  -4.9491  -2.9312  -2.4040  -2.3209  -2.1814  -2.0160
    -1.8682  -1.7568  -1.6247  -1.5942  -0.9306  -0.7476  -0.6229  -0.0127
     0.0520   0.1399   0.1698   0.2706   0.3105   0.4524   0.5049   0.7719
     1.2357   1.3212   1.4308   1.5043   1.7482   1.9857   2.0806   2.2080
     2.4757   2.6270   2.6590   2.7585   2.7923   2.9031   2.9901   3.5930
     3.6026   3.9311   4.1386   4.1807   4.2405   4.2752   4.6145   4.7182
     4.8409   4.9224   5.1175   5.1745   5.3318   5.5289   5.5375   5.6230
     5.8621   5.9279   6.1781   6.3163   6.3677   6.3899   6.4744

          k = 0.0301 0.0534 0.0000 ( 33052 PWs)   bands (ev):

   -77.4916 -77.4878 -77.1192 -77.1155 -77.0572 -77.0534 -65.6877 -65.6790
   -65.6691 -65.6604 -65.4800 -65.4709 -39.3346 -39.2779 -39.2669 -39.2244
   -39.2122 -39.2106 -38.9188 -38.9070 -38.8851 -38.8553 -38.8478 -38.8365
   -38.8271 -38.8141 -38.7910 -38.7776 -38.7661 -38.7347 -32.1367 -32.1095
   -32.0890 -32.0773 -31.9613 -31.9413 -31.9204 -31.9089 -31.9078 -31.8965
   -31.8834 -31.7925 -31.7727 -31.7477 -31.7414 -31.7009 -31.6965 -31.6915
   -17.3904 -17.3878 -17.3856 -17.3850 -17.3752 -17.3682 -17.3669 -17.3652
   -17.3620 -17.3613 -17.3551 -17.3510 -17.3468 -17.3443 -17.3365 -17.3339
   -17.3298 -17.3234 -17.3164 -17.3138 -17.2895 -17.2891 -17.2816 -17.2799
   -17.2737 -17.2731 -17.2658 -17.2640 -17.1186 -17.1150 -17.1069 -17.1057
   -17.1048 -17.1033 -17.0967 -17.0965 -17.0922 -17.0892 -17.0778 -17.0740
   -17.0697 -17.0696  -4.6479  -2.6629  -2.5806  -2.1411  -1.9599  -1.7960
    -1.7113  -1.5415  -1.4810  -1.4425  -0.9483  -0.5171  -0.3155   0.0049
     0.0433   0.1140   0.2261   0.3420   0.3566   0.4100   0.6549   0.9894
     1.1481   1.1938   1.4456   1.4528   1.5877   1.8371   1.9744   2.2371
     2.3521   2.3805   2.4527   2.5448   2.5531   2.7588   2.7938   3.1397
     3.2350   3.7733   3.7788   4.0397   4.0995   4.2057   4.5733   4.6207
     4.6701   4.8520   4.9327   5.0445   5.2636   5.3434   5.4242   5.4603
     5.8031   5.8542   5.8572   6.2536   6.2822   6.3171   6.3880

          k = 0.0301 0.0693 0.0000 ( 33068 PWs)   bands (ev):

   -77.4913 -77.4881 -77.1189 -77.1158 -77.0568 -77.0537 -65.6870 -65.6799
   -65.6684 -65.6612 -65.4793 -65.4717 -39.3220 -39.2754 -39.2655 -39.2232
   -39.2217 -39.2126 -38.9178 -38.9085 -38.8730 -38.8464 -38.8433 -38.8372
   -38.8240 -38.8143 -38.7877 -38.7780 -38.7766 -38.7456 -32.1379 -32.1111
   -32.0876 -32.0782 -31.9480 -31.9293 -31.9265 -31.9188 -31.9077 -31.8832
   -31.8800 -31.8006 -31.7719 -31.7662 -31.7605 -31.7111 -31.7002 -31.6962
   -17.3902 -17.3880 -17.3857 -17.3851 -17.3744 -17.3680 -17.3676 -17.3655
   -17.3621 -17.3614 -17.3544 -17.3505 -17.3476 -17.3449 -17.3364 -17.3342
   -17.3292 -17.3241 -17.3163 -17.3141 -17.2890 -17.2885 -17.2827 -17.2807
   -17.2732 -17.2726 -17.2669 -17.2647 -17.1177 -17.1144 -17.1082 -17.1056
   -17.1054 -17.1036 -17.0968 -17.0966 -17.0920 -17.0896 -17.0771 -17.0738
   -17.0704 -17.0702  -4.2713  -2.8724  -2.3637  -1.9871  -1.7386  -1.6306
    -1.4088  -1.3655  -1.3325  -1.2108  -0.9503  -0.2028  -0.1343  -0.0842
    -0.0205   0.0702   0.2797   0.3189   0.3287   0.4022   0.8310   0.9662
     0.9780   1.2261   1.3616   1.4950   1.5769   1.6753   1.7340   1.8075
     1.8708   2.2756   2.3201   2.3792   2.5417   2.6413   2.7674   2.8863
     2.9594   3.4516   3.6473   3.9488   4.1163   4.1666   4.2416   4.5034
     4.6248   4.6991   4.8727   4.9007   5.1177   5.1819   5.2726   5.4728
     5.6941   5.8566   5.9108   6.2013   6.2099   6.2364   6.3520

          k = 0.0301-0.1060 0.0000 ( 33030 PWs)   bands (ev):

   -77.4908 -77.4886 -77.1184 -77.1163 -77.0564 -77.0542 -65.6860 -65.6809
   -65.6673 -65.6623 -65.4783 -65.4727 -39.3065 -39.2739 -39.2656 -39.2368
   -39.2219 -39.2137 -38.9164 -38.9101 -38.8587 -38.8446 -38.8388 -38.8273
   -38.8219 -38.8159 -38.7908 -38.7852 -38.7795 -38.7601 -32.1370 -32.1126
   -32.0858 -32.0792 -31.9352 -31.9308 -31.9179 -31.9113 -31.9024 -31.8772
   -31.8594 -31.8071 -31.7889 -31.7834 -31.7703 -31.7348 -31.7043 -31.6925
   -17.3899 -17.3883 -17.3857 -17.3851 -17.3735 -17.3686 -17.3676 -17.3658
   -17.3621 -17.3614 -17.3534 -17.3497 -17.3485 -17.3458 -17.3361 -17.3345
   -17.3285 -17.3249 -17.3160 -17.3144 -17.2882 -17.2877 -17.2837 -17.2816
   -17.2724 -17.2717 -17.2680 -17.2657 -17.1163 -17.1134 -17.1097 -17.1066
   -17.1050 -17.1039 -17.0968 -17.0966 -17.0917 -17.0899 -17.0762 -17.0735
   -17.0714 -17.0708  -3.8439  -3.2598  -2.0914  -1.8821  -1.7679  -1.3257
    -1.2462  -1.1803  -1.1585  -0.9691  -0.9429  -0.3651  -0.2574   0.0423
     0.0446   0.1691   0.1985   0.2643   0.2807   0.4748   0.8179   0.8342
     0.8868   1.1177   1.1543   1.3858   1.4723   1.4978   1.5919   1.6388
     1.8236   1.8642   2.2069   2.2742   2.3434   2.3755   2.8543   2.9003
     3.0805   3.1913   3.6983   3.9655   4.0713   4.2660   4.3318   4.4387
     4.7017   4.7660   4.8064   4.8402   4.9962   5.0107   5.2898   5.6159
     5.6775   5.8626   5.9373   6.0724   6.0906   6.1429   6.5211

          k = 0.0301-0.0900 0.0000 ( 33047 PWs)   bands (ev):

   -77.4903 -77.4892 -77.1179 -77.1168 -77.0559 -77.0547 -65.6847 -65.6821
   -65.6661 -65.6635 -65.4771 -65.4739 -39.2894 -39.2736 -39.2673 -39.2546
   -39.2205 -39.2153 -38.9146 -38.9118 -38.8465 -38.8428 -38.8359 -38.8212
   -38.8191 -38.8106 -38.8075 -38.7852 -38.7822 -38.7759 -32.1342 -32.1139
   -32.0839 -32.0804 -31.9360 -31.9307 -31.8938 -31.8935 -31.8902 -31.8673
   -31.8319 -31.8190 -31.8119 -31.8036 -31.7679 -31.7612 -31.7088 -31.6894
   -17.3895 -17.3886 -17.3857 -17.3851 -17.3723 -17.3697 -17.3671 -17.3662
   -17.3621 -17.3614 -17.3523 -17.3498 -17.3486 -17.3468 -17.3357 -17.3348
   -17.3277 -17.3258 -17.3157 -17.3147 -17.2871 -17.2865 -17.2848 -17.2827
   -17.2713 -17.2706 -17.2691 -17.2667 -17.1145 -17.1121 -17.1112 -17.1078
   -17.1047 -17.1042 -17.0968 -17.0966 -17.0913 -17.0903 -17.0751 -17.0730
   -17.0725 -17.0714  -3.6997  -3.3980  -1.9293  -1.9088  -1.8883  -1.3648
    -1.1486  -1.1386  -0.9985  -0.9220  -0.7240  -0.6747  -0.3378  -0.0754
     0.0714   0.1288   0.2284   0.2315   0.5705   0.6043   0.6154   0.7295
     0.8594   0.8652   0.9314   1.0699   1.2100   1.4161   1.4792   1.5898
     1.7765   1.7855   1.8602   1.9666   2.4950   2.7031   2.8574   2.9874
     3.1013   3.4231   3.9143   4.0710   4.2701   4.4578   4.4738   4.5417
     4.6648   4.7676   4.8346   4.9829   5.1101   5.2453   5.3784   5.6344
     5.8200   5.8710   5.8778   5.9742   5.9812   6.0912   6.8391

          k = 0.0301-0.0741 0.0000 ( 33018 PWs)   bands (ev):

   -77.4897 -77.4897 -77.1174 -77.1174 -77.0553 -77.0553 -65.6834 -65.6834
   -65.6648 -65.6648 -65.4757 -65.4752 -39.2777 -39.2743 -39.2708 -39.2677
   -39.2191 -39.2172 -38.9133 -38.9125 -38.8444 -38.8415 -38.8276 -38.8256
   -38.8199 -38.8189 -38.7988 -38.7939 -38.7854 -38.7806 -32.1296 -32.1150
   -32.0821 -32.0819 -31.9362 -31.9262 -31.8831 -31.8756 -31.8601 -31.8467
   -31.8451 -31.8372 -31.8077 -31.8006 -31.7877 -31.7649 -31.7134 -31.6871
   -17.3890 -17.3890 -17.3855 -17.3851 -17.3711 -17.3709 -17.3666 -17.3666
   -17.3619 -17.3614 -17.3511 -17.3509 -17.3478 -17.3477 -17.3353 -17.3351
   -17.3268 -17.3267 -17.3153 -17.3150 -17.2859 -17.2856 -17.2851 -17.2839
   -17.2701 -17.2698 -17.2692 -17.2679 -17.1129 -17.1126 -17.1106 -17.1091
   -17.1045 -17.1042 -17.0967 -17.0965 -17.0908 -17.0906 -17.0739 -17.0739
   -17.0722 -17.0720  -4.1429  -2.9768  -2.2139  -2.0177  -1.8433  -1.5160
    -1.4188  -1.2549  -1.1577  -1.0118  -0.7529  -0.4532  -0.2897  -0.2044
     0.1008   0.2249   0.2507   0.2581   0.2903   0.5327   0.6141   0.6777
     0.6833   0.7408   0.8865   1.0878   1.1021   1.3085   1.4246   1.5075
     1.7488   1.7570   1.8198   2.1325   2.5887   2.7472   2.9874   3.2772
     3.2977   3.8292   4.2047   4.2256   4.2823   4.4663   4.6808   4.7473
     4.8138   4.8997   5.0602   5.1360   5.2948   5.5452   5.7165   5.7347
     5.7540   5.7936   5.9241   5.9320   6.0773   6.1925   6.7126

          k = 0.0301-0.0582 0.0000 ( 33056 PWs)   bands (ev):

   -77.4903 -77.4891 -77.1179 -77.1168 -77.0558 -77.0547 -65.6846 -65.6821
   -65.6660 -65.6634 -65.4765 -65.4743 -39.2956 -39.2760 -39.2740 -39.2527
   -39.2193 -39.2179 -38.9148 -38.9105 -38.8492 -38.8451 -38.8362 -38.8288
   -38.8203 -38.8176 -38.8052 -38.7914 -38.7808 -38.7752 -32.1240 -32.1161
   -32.0838 -32.0804 -31.9339 -31.9187 -31.8764 -31.8687 -31.8666 -31.8630
   -31.8256 -31.8202 -31.8179 -31.8004 -31.7685 -31.7614 -31.7177 -31.6855
   -17.3893 -17.3886 -17.3853 -17.3850 -17.3721 -17.3698 -17.3670 -17.3662
   -17.3617 -17.3613 -17.3521 -17.3499 -17.3487 -17.3467 -17.3355 -17.3349
   -17.3277 -17.3257 -17.3154 -17.3148 -17.2868 -17.2851 -17.2841 -17.2838
   -17.2710 -17.2691 -17.2683 -17.2678 -17.1144 -17.1106 -17.1104 -17.1090
   -17.1049 -17.1039 -17.0966 -17.0964 -17.0910 -17.0904 -17.0750 -17.0727
   -17.0724 -17.0715  -4.5467  -2.6346  -2.5489  -2.2039  -1.8690  -1.7929
    -1.7143  -1.4935  -1.4194  -1.2021  -0.7465  -0.4831  -0.2493  -0.1909
    -0.1231   0.1626   0.2657   0.2887   0.3402   0.4213   0.4973   0.6019
     0.6885   0.7132   0.8216   0.9067   1.3164   1.4713   1.5339   1.6778
     1.7838   1.8400   2.2223   2.3562   2.4341   2.9428   3.0595   3.4696
     3.7704   4.0504   4.2580   4.4963   4.4994   4.5686   4.7763   4.8098
     4.9521   5.0814   5.1910   5.4468   5.5350   5.5916   5.7396   5.7577
     5.7889   5.9530   5.9879   6.1210   6.2588   6.4471   6.5479

          k = 0.0301-0.0422 0.0000 ( 33051 PWs)   bands (ev):

   -77.4909 -77.4886 -77.1184 -77.1163 -77.0564 -77.0542 -65.6858 -65.6808
   -65.6672 -65.6622 -65.4777 -65.4730 -39.3139 -39.2800 -39.2753 -39.2365
   -39.2214 -39.2167 -38.9161 -38.9086 -38.8658 -38.8461 -38.8372 -38.8338
   -38.8329 -38.8208 -38.7952 -38.7901 -38.7810 -38.7596 -32.1184 -32.1175
   -32.0859 -32.0790 -31.9299 -31.9098 -31.9002 -31.8873 -31.8628 -31.8615
   -31.8438 -31.7970 -31.7931 -31.7878 -31.7604 -31.7360 -31.7207 -31.6847
   -17.3897 -17.3882 -17.3851 -17.3850 -17.3732 -17.3686 -17.3674 -17.3657
   -17.3614 -17.3613 -17.3532 -17.3498 -17.3485 -17.3457 -17.3358 -17.3345
   -17.3286 -17.3248 -17.3157 -17.3144 -17.2875 -17.2862 -17.2827 -17.2824
   -17.2717 -17.2703 -17.2669 -17.2665 -17.1158 -17.1118 -17.1086 -17.1075
   -17.1052 -17.1035 -17.0964 -17.0963 -17.0914 -17.0899 -17.0761 -17.0729
   -17.0714 -17.0708  -4.8785  -2.8571  -2.4591  -2.3275  -2.1400  -1.9493
    -1.8832  -1.7925  -1.5731  -1.4063  -0.7893  -0.7296  -0.4690  -0.2426
    -0.0237   0.0663   0.2095   0.2474   0.3065   0.3309   0.5218   0.7075
     0.7420   0.7443   0.7827   0.9666   1.4862   1.5568   1.8127   1.9391
     2.0283   2.2258   2.2317   2.6123   2.7522   3.0646   3.1381   3.5888
     3.9226   4.2025   4.5605   4.6841   4.6988   4.7327   4.7699   4.9354
     5.1694   5.2317   5.3389   5.4029   5.4335   5.6011   5.6505   5.7725
     5.7995   6.0108   6.1546   6.1820   6.3377   6.5413   6.6304

          k = 0.0301-0.0263 0.0000 ( 33070 PWs)   bands (ev):

   -77.4913 -77.4881 -77.1189 -77.1159 -77.0568 -77.0537 -65.6868 -65.6797
   -65.6682 -65.6611 -65.4788 -65.4719 -39.3293 -39.2833 -39.2759 -39.2232
   -39.2226 -39.2155 -38.9173 -38.9070 -38.8805 -38.8508 -38.8472 -38.8358
   -38.8342 -38.8208 -38.7983 -38.7811 -38.7771 -38.7460 -32.1196 -32.1134
   -32.0878 -32.0779 -31.9255 -31.9237 -31.9094 -31.9005 -31.8690 -31.8610
   -31.8562 -31.7909 -31.7659 -31.7622 -31.7581 -31.7219 -31.7087 -31.6848
   -17.3900 -17.3879 -17.3850 -17.3849 -17.3742 -17.3678 -17.3676 -17.3654
   -17.3613 -17.3612 -17.3542 -17.3505 -17.3475 -17.3449 -17.3361 -17.3342
   -17.3293 -17.3240 -17.3159 -17.3141 -17.2881 -17.2873 -17.2815 -17.2812
   -17.2723 -17.2714 -17.2657 -17.2652 -17.1170 -17.1130 -17.1071 -17.1061
   -17.1055 -17.1032 -17.0963 -17.0963 -17.0917 -17.0895 -17.0770 -17.0733
   -17.0703 -17.0701  -5.1155  -3.0876  -2.5285  -2.3996  -2.2593  -2.0593
    -2.0282  -1.9623  -1.6850  -1.5823  -0.9893  -0.7737  -0.7102  -0.2014
    -0.0342   0.0998   0.1141   0.2073   0.2091   0.2497   0.4486   0.6166
     0.8046   0.9903   1.0795   1.1226   1.5076   1.7574   2.0873   2.1913
     2.2588   2.2991   2.6298   2.7897   3.0639   3.2418   3.2828   3.6392
     3.8739   4.4389   4.5528   4.6526   4.8607   4.9297   4.9687   5.0573
     5.2624   5.2980   5.3120   5.4109   5.4297   5.5361   5.5779   5.7881
     5.8387   5.9134   6.1227   6.1789   6.2367   6.3726   6.6763

          k = 0.0452-0.0155 0.0000 ( 33070 PWs)   bands (ev):

   -77.4913 -77.4881 -77.1189 -77.1159 -77.0568 -77.0537 -65.6869 -65.6798
   -65.6683 -65.6611 -65.4789 -65.4718 -39.3278 -39.2817 -39.2736 -39.2232
   -39.2223 -39.2149 -38.9174 -38.9072 -38.8790 -38.8492 -38.8477 -38.8354
   -38.8327 -38.8188 -38.7963 -38.7805 -38.7769 -38.7459 -32.1225 -32.1123
   -32.0892 -32.0792 -31.9294 -31.9227 -31.9156 -31.8951 -31.8761 -31.8717
   -31.8707 -31.7837 -31.7723 -31.7642 -31.7576 -31.7152 -31.7087 -31.6880
   -17.3901 -17.3879 -17.3852 -17.3850 -17.3742 -17.3679 -17.3676 -17.3654
   -17.3615 -17.3613 -17.3542 -17.3505 -17.3475 -17.3449 -17.3361 -17.3342
   -17.3293 -17.3240 -17.3160 -17.3141 -17.2883 -17.2876 -17.2818 -17.2810
   -17.2725 -17.2716 -17.2659 -17.2651 -17.1172 -17.1133 -17.1073 -17.1060
   -17.1055 -17.1033 -17.0964 -17.0964 -17.0918 -17.0895 -17.0770 -17.0734
   -17.0704 -17.0701  -4.9683  -2.9586  -2.6929  -2.2713  -2.0455  -1.9898
    -1.9737  -1.8107  -1.6221  -1.5244  -1.1000  -0.6163  -0.5054  -0.0781
    -0.0357   0.0937   0.1403   0.1655   0.1732   0.2751   0.5242   0.7782
     0.9216   1.0257   1.1152   1.1453   1.4804   1.7646   2.1096   2.2021
     2.3173   2.3517   2.4761   2.6348   2.8853   2.9476   3.2030   3.4845
     3.8945   3.9642   4.2698   4.5881   4.7559   4.7636   4.8184   4.9923
     5.0617   5.0749   5.1742   5.3363   5.4355   5.5689   5.6518   5.6592
     5.8641   5.9217   5.9655   6.0348   6.1093   6.2084   6.3824

          k = 0.0452 0.0004 0.0000 ( 33092 PWs)   bands (ev):

   -77.4917 -77.4878 -77.1193 -77.1155 -77.0572 -77.0534 -65.6877 -65.6790
   -65.6691 -65.6603 -65.4798 -65.4709 -39.3380 -39.2821 -39.2719 -39.2245
   -39.2135 -39.2112 -38.9185 -38.9062 -38.8887 -38.8589 -38.8485 -38.8353
   -38.8323 -38.8171 -38.7962 -38.7795 -38.7666 -38.7351 -32.1279 -32.1092
   -32.0901 -32.0781 -31.9510 -31.9330 -31.9192 -31.8922 -31.8910 -31.8869
   -31.8780 -31.7775 -31.7755 -31.7460 -31.7398 -31.7109 -31.6904 -31.6895
   -17.3904 -17.3877 -17.3853 -17.3849 -17.3750 -17.3682 -17.3669 -17.3651
   -17.3617 -17.3612 -17.3550 -17.3510 -17.3468 -17.3443 -17.3364 -17.3339
   -17.3298 -17.3234 -17.3163 -17.3138 -17.2890 -17.2886 -17.2811 -17.2801
   -17.2732 -17.2727 -17.2653 -17.2641 -17.1183 -17.1145 -17.1064 -17.1058
   -17.1049 -17.1032 -17.0965 -17.0964 -17.0921 -17.0892 -17.0777 -17.0737
   -17.0696 -17.0696  -5.0146  -3.0000  -2.5912  -2.3417  -2.1200  -2.0117
    -1.9764  -1.8039  -1.6390  -1.6049  -1.0791  -0.7273  -0.5572  -0.0433
     0.0498   0.0719   0.1375   0.1497   0.2697   0.3067   0.4971   0.7596
     1.0646   1.2061   1.2873   1.3751   1.5897   1.9140   2.1544   2.3398
     2.4356   2.5384   2.5850   2.7338   2.9247   2.9681   3.1054   3.5535
     3.7982   3.9607   4.2280   4.4157   4.5080   4.5121   4.7106   4.8968
     4.9698   4.9948   5.1938   5.3561   5.3930   5.4887   5.6944   5.6983
     5.8010   5.8467   6.0681   6.1588   6.2320   6.3363   6.3956

          k = 0.0452 0.0163 0.0000 ( 33121 PWs)   bands (ev):

   -77.4919 -77.4876 -77.1195 -77.1153 -77.0574 -77.0532 -65.6882 -65.6785
   -65.6696 -65.6599 -65.4805 -65.4704 -39.3435 -39.2809 -39.2693 -39.2252
   -39.2122 -39.2039 -38.9193 -38.9058 -38.8938 -38.8640 -38.8487 -38.8355
   -38.8306 -38.8151 -38.7946 -38.7782 -38.7598 -38.7281 -32.1339 -32.1081
   -32.0900 -32.0766 -31.9674 -31.9468 -31.9180 -31.9053 -31.8996 -31.8961
   -31.8827 -31.7834 -31.7737 -31.7352 -31.7285 -31.7060 -31.6932 -31.6784
   -17.3906 -17.3876 -17.3855 -17.3849 -17.3756 -17.3684 -17.3665 -17.3650
   -17.3619 -17.3612 -17.3555 -17.3514 -17.3464 -17.3438 -17.3366 -17.3338
   -17.3301 -17.3230 -17.3165 -17.3137 -17.2897 -17.2894 -17.2808 -17.2794
   -17.2738 -17.2734 -17.2650 -17.2635 -17.1191 -17.1153 -17.1060 -17.1059
   -17.1043 -17.1031 -17.0966 -17.0964 -17.0923 -17.0891 -17.0782 -17.0741
   -17.0694 -17.0691  -4.9491  -2.9312  -2.4040  -2.3209  -2.1814  -2.0160
    -1.8682  -1.7568  -1.6247  -1.5942  -0.9306  -0.7476  -0.6229  -0.0127
     0.0520   0.1399   0.1698   0.2706   0.3105   0.4524   0.5049   0.7719
     1.2357   1.3212   1.4308   1.5043   1.7482   1.9857   2.0806   2.2080
     2.4757   2.6270   2.6590   2.7585   2.7923   2.9031   2.9901   3.5930
     3.6026   3.9311   4.1386   4.1807   4.2405   4.2752   4.6145   4.7182
     4.8409   4.9224   5.1175   5.1745   5.3317   5.5289   5.5375   5.6230
     5.8621   5.9279   6.1781   6.3163   6.3676   6.3899   6.4744

          k = 0.0452 0.0323 0.0000 ( 33104 PWs)   bands (ev):

   -77.4920 -77.4875 -77.1195 -77.1152 -77.0575 -77.0531 -65.6884 -65.6784
   -65.6698 -65.6597 -65.4808 -65.4702 -39.3439 -39.2787 -39.2663 -39.2254
   -39.2112 -39.2011 -38.9198 -38.9060 -38.8941 -38.8642 -38.8484 -38.8358
   -38.8280 -38.8133 -38.7919 -38.7768 -38.7571 -38.7254 -32.1396 -32.1085
   -32.0892 -32.0751 -31.9770 -31.9548 -31.9216 -31.9125 -31.9088 -31.9081
   -31.8828 -31.7929 -31.7718 -31.7326 -31.7255 -31.7011 -31.6962 -31.6758
   -17.3907 -17.3876 -17.3857 -17.3850 -17.3758 -17.3686 -17.3663 -17.3650
   -17.3621 -17.3613 -17.3557 -17.3515 -17.3462 -17.3437 -17.3367 -17.3338
   -17.3302 -17.3229 -17.3166 -17.3137 -17.2901 -17.2898 -17.2809 -17.2792
   -17.2743 -17.2739 -17.2651 -17.2632 -17.1195 -17.1158 -17.1061 -17.1060
   -17.1040 -17.1031 -17.0967 -17.0965 -17.0924 -17.0891 -17.0784 -17.0743
   -17.0693 -17.0689  -4.7780  -2.7645  -2.2940  -2.2047  -2.0903  -2.0210
    -1.6809  -1.6728  -1.5622  -1.5154  -0.7068  -0.6745  -0.6535   0.0369
     0.0832   0.1538   0.2245   0.3489   0.4882   0.5534   0.5641   0.8567
     1.3785   1.4208   1.4322   1.4976   1.7954   1.9675   2.1084   2.1971
     2.2369   2.5105   2.5867   2.6622   2.6812   2.7685   2.8880   3.3122
     3.4598   3.7397   3.9570   3.9882   4.0018   4.1671   4.5460   4.5747
     4.7048   4.8831   4.9030   5.0175   5.3578   5.3838   5.4857   5.6449
     5.8185   5.9003   6.2097   6.2301   6.2560   6.2813   6.5279

          k = 0.0452 0.0482 0.0000 ( 33058 PWs)   bands (ev):

   -77.4919 -77.4876 -77.1194 -77.1153 -77.0574 -77.0531 -65.6883 -65.6786
   -65.6697 -65.6599 -65.4807 -65.4703 -39.3396 -39.2760 -39.2635 -39.2250
   -39.2108 -39.2030 -38.9197 -38.9068 -38.8898 -38.8599 -38.8476 -38.8363
   -38.8251 -38.8121 -38.7887 -38.7757 -38.7590 -38.7274 -32.1440 -32.1098
   -32.0878 -32.0740 -31.9785 -31.9558 -31.9314 -31.9212 -31.9118 -31.9101
   -31.8824 -31.8021 -31.7711 -31.7377 -31.7308 -31.6992 -31.6968 -31.6812
   -17.3907 -17.3876 -17.3858 -17.3850 -17.3757 -17.3685 -17.3665 -17.3651
   -17.3622 -17.3613 -17.3557 -17.3514 -17.3464 -17.3439 -17.3368 -17.3338
   -17.3301 -17.3231 -17.3167 -17.3137 -17.2902 -17.2899 -17.2814 -17.2793
   -17.2743 -17.2739 -17.2656 -17.2634 -17.1194 -17.1159 -17.1066 -17.1058
   -17.1042 -17.1032 -17.0968 -17.0966 -17.0925 -17.0891 -17.0782 -17.0744
   -17.0694 -17.0691  -4.5126  -2.5224  -2.2889  -2.2721  -1.8650  -1.7752
    -1.5784  -1.4531  -1.4307  -1.4072  -0.7145  -0.5103  -0.3820   0.0710
     0.0935   0.1571   0.2835   0.3563   0.5847   0.6658   0.6749   1.0278
     1.2572   1.3216   1.4810   1.5752   1.6559   1.8708   1.9647   2.2347
     2.3059   2.3145   2.3742   2.4319   2.5312   2.5458   2.8979   2.9949
     3.1857   3.5084   3.7009   3.7498   3.9040   4.0596   4.3527   4.5362
     4.5724   4.7051   4.9019   4.9168   5.0679   5.2748   5.4616   5.5616
     5.6799   5.8675   5.8941   6.0364   6.0802   6.3031   6.5399

          k = 0.0452 0.0641 0.0000 ( 33049 PWs)   bands (ev):

   -77.4916 -77.4878 -77.1192 -77.1155 -77.0572 -77.0534 -65.6878 -65.6791
   -65.6692 -65.6605 -65.4803 -65.4708 -39.3311 -39.2738 -39.2619 -39.2242
   -39.2109 -39.2100 -38.9192 -38.9080 -38.8814 -38.8516 -38.8464 -38.8369
   -38.8225 -38.8120 -38.7856 -38.7755 -38.7656 -38.7343 -32.1463 -32.1112
   -32.0863 -32.0735 -31.9711 -31.9490 -31.9402 -31.9320 -31.9078 -31.9033
   -31.8812 -31.8097 -31.7707 -31.7497 -31.7434 -31.7024 -31.6945 -31.6924
   -17.3905 -17.3878 -17.3860 -17.3850 -17.3753 -17.3684 -17.3669 -17.3652
   -17.3623 -17.3614 -17.3552 -17.3510 -17.3469 -17.3443 -17.3367 -17.3340
   -17.3298 -17.3235 -17.3166 -17.3139 -17.2899 -17.2896 -17.2822 -17.2798
   -17.2741 -17.2736 -17.2664 -17.2638 -17.1189 -17.1156 -17.1075 -17.1057
   -17.1046 -17.1034 -17.0969 -17.0966 -17.0924 -17.0893 -17.0778 -17.0743
   -17.0698 -17.0696  -4.1686  -2.5409  -2.2454  -2.2350  -1.5619  -1.5132
    -1.4431  -1.3134  -1.2311  -1.2187  -0.7148  -0.2637  -0.1523  -0.0296
     0.0845   0.1341   0.3167   0.3981   0.5447   0.6201   0.8310   1.0390
     1.1037   1.2613   1.4740   1.5612   1.5749   1.7589   1.7896   1.8562
     1.9746   2.2109   2.3282   2.3982   2.4324   2.5222   2.6353   2.9091
     2.9892   3.3520   3.4612   3.5765   3.9200   3.9961   4.0946   4.3119
     4.5005   4.5355   4.8540   4.9145   5.1014   5.1044   5.2762   5.3234
     5.7807   5.7953   5.8297   6.0584   6.0744   6.3360   6.4770

          k = 0.0452-0.1111 0.0000 ( 33034 PWs)   bands (ev):

   -77.4913 -77.4881 -77.1189 -77.1158 -77.0568 -77.0537 -65.6870 -65.6799
   -65.6684 -65.6613 -65.4795 -65.4716 -39.3190 -39.2723 -39.2618 -39.2232
   -39.2217 -39.2116 -38.9181 -38.9093 -38.8699 -38.8449 -38.8409 -38.8367
   -38.8207 -38.8135 -38.7832 -38.7767 -38.7766 -38.7457 -32.1460 -32.1124
   -32.0846 -32.0737 -31.9553 -31.9446 -31.9387 -31.9341 -31.9028 -31.8868
   -31.8787 -31.8145 -31.7698 -31.7675 -31.7620 -31.7127 -31.7058 -31.6901
   -17.3903 -17.3880 -17.3860 -17.3851 -17.3745 -17.3681 -17.3677 -17.3655
   -17.3624 -17.3614 -17.3545 -17.3504 -17.3476 -17.3450 -17.3365 -17.3342
   -17.3292 -17.3241 -17.3164 -17.3141 -17.2893 -17.2889 -17.2831 -17.2805
   -17.2735 -17.2730 -17.2673 -17.2645 -17.1178 -17.1149 -17.1086 -17.1054
   -17.1054 -17.1036 -17.0970 -17.0966 -17.0921 -17.0896 -17.0771 -17.0741
   -17.0704 -17.0703  -3.7659  -2.9013  -2.2281  -1.9648  -1.4901  -1.2816
    -1.1825  -1.1772  -1.0461  -0.9568  -0.7071  -0.2642  -0.1502   0.0319
     0.0925   0.1006   0.3053   0.4027   0.4590   0.4750   0.8608   0.8744
     0.9201   1.2264   1.2504   1.3054   1.5067   1.6275   1.7074   1.7689
     1.8019   1.8280   2.1974   2.1985   2.4088   2.4965   2.6772   2.7449
     2.9937   3.2428   3.3393   3.5563   3.9659   4.0895   4.2107   4.3968
     4.4882   4.5246   4.8438   4.9015   5.0528   5.0556   5.2188   5.3093
     5.7634   5.8101   5.9328   6.0585   6.1640   6.2897   6.3989

          k = 0.0452-0.0952 0.0000 ( 33032 PWs)   bands (ev):

   -77.4908 -77.4886 -77.1184 -77.1163 -77.0564 -77.0542 -65.6860 -65.6809
   -65.6674 -65.6623 -65.4784 -65.4726 -39.3042 -39.2718 -39.2637 -39.2374
   -39.2219 -39.2130 -38.9165 -38.9107 -38.8564 -38.8432 -38.8388 -38.8249
   -38.8198 -38.8164 -38.7916 -38.7817 -38.7792 -38.7610 -32.1431 -32.1134
   -32.0830 -32.0748 -31.9452 -31.9438 -31.9271 -31.9118 -31.8951 -31.8753
   -31.8629 -31.8159 -31.7901 -31.7849 -31.7682 -31.7361 -31.7094 -31.6879
   -17.3899 -17.3883 -17.3859 -17.3851 -17.3736 -17.3686 -17.3676 -17.3658
   -17.3623 -17.3614 -17.3535 -17.3497 -17.3485 -17.3458 -17.3362 -17.3345
   -17.3285 -17.3249 -17.3161 -17.3144 -17.2884 -17.2880 -17.2840 -17.2814
[...]
   -17.3626 -17.3614 -17.3545 -17.3504 -17.3476 -17.3450 -17.3365 -17.3342
   -17.3292 -17.3241 -17.3165 -17.3141 -17.2895 -17.2892 -17.2833 -17.2803
   -17.2737 -17.2733 -17.2675 -17.2644 -17.1180 -17.1152 -17.1089 -17.1053
   -17.1053 -17.1037 -17.0971 -17.0967 -17.0922 -17.0896 -17.0772 -17.0742
   -17.0704 -17.0703  -3.2127  -2.9104  -2.6579  -1.6051  -1.2942  -1.2873
    -1.0454  -0.8343  -0.7548  -0.7245  -0.4851  -0.4085  -0.2069   0.0409
     0.0517   0.2571   0.2820   0.4039   0.4910   0.6379   0.7303   0.7694
     0.8401   0.9551   1.1717   1.2058   1.3443   1.5399   1.5932   1.6935
     1.7998   1.9019   2.0200   2.2250   2.2390   2.4944   2.6112   2.6466
     3.0927   3.1116   3.1700   3.3217   3.9792   4.1518   4.2940   4.4654
     4.5724   4.8048   4.8457   4.8927   4.9000   4.9933   5.2340   5.3308
     5.6200   5.6504   5.7033   5.7394   6.0125   6.0859   6.3066

          k = 0.0753-0.0737 0.0000 ( 33032 PWs)   bands (ev):

   -77.4908 -77.4886 -77.1184 -77.1163 -77.0564 -77.0542 -65.6860 -65.6809
   -65.6674 -65.6623 -65.4784 -65.4726 -39.3042 -39.2718 -39.2637 -39.2374
   -39.2219 -39.2130 -38.9165 -38.9107 -38.8564 -38.8432 -38.8388 -38.8249
   -38.8198 -38.8164 -38.7916 -38.7817 -38.7792 -38.7610 -32.1431 -32.1134
   -32.0830 -32.0748 -31.9452 -31.9438 -31.9271 -31.9118 -31.8951 -31.8753
   -31.8629 -31.8159 -31.7901 -31.7849 -31.7682 -31.7361 -31.7094 -31.6879
   -17.3899 -17.3883 -17.3859 -17.3851 -17.3736 -17.3686 -17.3676 -17.3658
   -17.3623 -17.3614 -17.3535 -17.3497 -17.3485 -17.3458 -17.3362 -17.3345
   -17.3285 -17.3249 -17.3161 -17.3144 -17.2884 -17.2880 -17.2840 -17.2814
   -17.2726 -17.2720 -17.2682 -17.2655 -17.1164 -17.1138 -17.1099 -17.1064
   -17.1050 -17.1040 -17.0970 -17.0966 -17.0918 -17.0899 -17.0762 -17.0736
   -17.0714 -17.0708  -3.3300  -3.3299  -2.2642  -1.7629  -1.6089  -1.3129
    -1.0124  -0.9588  -0.8014  -0.7597  -0.6626  -0.4328  -0.4034  -0.0680
     0.0036   0.1760   0.2824   0.3758   0.4710   0.5299   0.7427   0.8249
     0.8352   0.9455   0.9622   1.0310   1.2117   1.4704   1.5622   1.6542
     1.6980   1.7699   1.8418   2.0724   2.3661   2.6855   2.7392   2.8839
     3.0068   3.3024   3.5371   3.6735   4.1201   4.2831   4.5045   4.5665
     4.5962   4.7425   4.8631   4.9409   5.0662   5.0676   5.3280   5.6262
     5.7851   5.8064   5.9867   6.0363   6.1115   6.2703   6.3140

          k = 0.0753-0.0578 0.0000 ( 33047 PWs)   bands (ev):

   -77.4903 -77.4892 -77.1179 -77.1168 -77.0559 -77.0547 -65.6847 -65.6821
   -65.6661 -65.6635 -65.4771 -65.4739 -39.2894 -39.2736 -39.2673 -39.2546
   -39.2205 -39.2153 -38.9146 -38.9118 -38.8465 -38.8428 -38.8359 -38.8212
   -38.8191 -38.8106 -38.8075 -38.7852 -38.7822 -38.7759 -32.1342 -32.1139
   -32.0839 -32.0804 -31.9360 -31.9307 -31.8938 -31.8935 -31.8902 -31.8673
   -31.8319 -31.8190 -31.8119 -31.8036 -31.7679 -31.7612 -31.7088 -31.6894
   -17.3895 -17.3886 -17.3857 -17.3851 -17.3723 -17.3697 -17.3671 -17.3662
   -17.3621 -17.3614 -17.3523 -17.3498 -17.3486 -17.3468 -17.3357 -17.3348
   -17.3277 -17.3258 -17.3157 -17.3147 -17.2871 -17.2865 -17.2848 -17.2827
   -17.2713 -17.2706 -17.2691 -17.2667 -17.1145 -17.1121 -17.1112 -17.1078
   -17.1047 -17.1042 -17.0968 -17.0966 -17.0913 -17.0903 -17.0751 -17.0730
   -17.0725 -17.0714  -3.6997  -3.3980  -1.9293  -1.9088  -1.8883  -1.3648
    -1.1486  -1.1386  -0.9985  -0.9220  -0.7240  -0.6747  -0.3378  -0.0754
     0.0714   0.1288   0.2284   0.2315   0.5705   0.6043   0.6154   0.7295
     0.8594   0.8652   0.9314   1.0699   1.2100   1.4161   1.4792   1.5898
     1.7765   1.7855   1.8602   1.9666   2.4950   2.7031   2.8574   2.9874
     3.1013   3.4231   3.9143   4.0710   4.2701   4.4578   4.4738   4.5417
     4.6648   4.7676   4.8346   4.9829   5.1101   5.2453   5.3784   5.6344
     5.8200   5.8710   5.8778   5.9742   5.9813   6.0912   6.7715

          k = 0.0753-0.0418 0.0000 ( 33066 PWs)   bands (ev):

   -77.4897 -77.4897 -77.1174 -77.1174 -77.0553 -77.0553 -65.6834 -65.6834
   -65.6648 -65.6648 -65.4756 -65.4753 -39.2792 -39.2773 -39.2679 -39.2661
   -39.2187 -39.2176 -38.9131 -38.9126 -38.8449 -38.8432 -38.8278 -38.8267
   -38.8178 -38.8174 -38.7989 -38.7966 -38.7829 -38.7807 -32.1253 -32.1162
   -32.0852 -32.0846 -31.9271 -31.9186 -31.8960 -31.8892 -31.8572 -31.8478
   -31.8421 -31.8381 -31.8050 -31.8010 -31.7807 -31.7680 -31.7069 -31.6918
   -17.3890 -17.3890 -17.3854 -17.3852 -17.3711 -17.3709 -17.3666 -17.3666
   -17.3618 -17.3615 -17.3510 -17.3509 -17.3477 -17.3477 -17.3353 -17.3352
   -17.3268 -17.3267 -17.3152 -17.3151 -17.2859 -17.2857 -17.2849 -17.2842
   -17.2701 -17.2699 -17.2689 -17.2682 -17.1128 -17.1127 -17.1103 -17.1095
   -17.1045 -17.1043 -17.0967 -17.0966 -17.0908 -17.0907 -17.0739 -17.0738
   -17.0722 -17.0720  -3.9908  -3.3965  -2.1850  -1.9967  -1.5901  -1.4104
    -1.3970  -1.2851  -1.0791  -1.0728  -1.0435  -0.6540  -0.2196  -0.0522
     0.0447   0.1184   0.1541   0.2091   0.3581   0.5639   0.6410   0.7878
     0.7999   0.9588   1.0258   1.1269   1.2744   1.4108   1.5295   1.5547
     1.8755   1.8811   1.9474   1.9971   2.5924   2.6446   2.9049   3.0486
     3.2007   3.4566   4.2433   4.2692   4.4047   4.4113   4.4712   4.6357
     4.7066   4.7614   4.9802   5.0877   5.0969   5.3624   5.4416   5.4742
     5.5525   5.6309   5.8599   5.8992   6.0237   6.0364   6.7608

          k =-0.0904 0.0311 0.0000 ( 33064 PWs)   bands (ev):

   -77.4897 -77.4897 -77.1174 -77.1174 -77.0553 -77.0553 -65.6834 -65.6834
   -65.6648 -65.6648 -65.4755 -65.4755 -39.2791 -39.2791 -39.2662 -39.2662
   -39.2182 -39.2182 -38.9128 -38.9128 -38.8446 -38.8446 -38.8275 -38.8275
   -38.8168 -38.8168 -38.7983 -38.7983 -38.7813 -38.7813 -32.1200 -32.1200
   -32.0863 -32.0863 -31.9160 -31.9160 -31.9013 -31.9013 -31.8527 -31.8527
   -31.8395 -31.8395 -31.8023 -31.8023 -31.7735 -31.7735 -31.6988 -31.6988
   -17.3890 -17.3890 -17.3853 -17.3853 -17.3710 -17.3710 -17.3666 -17.3666
   -17.3616 -17.3616 -17.3510 -17.3510 -17.3477 -17.3477 -17.3352 -17.3352
   -17.3267 -17.3267 -17.3151 -17.3151 -17.2858 -17.2858 -17.2845 -17.2845
   -17.2700 -17.2700 -17.2686 -17.2686 -17.1128 -17.1128 -17.1099 -17.1099
   -17.1044 -17.1044 -17.0966 -17.0966 -17.0907 -17.0907 -17.0739 -17.0739
   -17.0721 -17.0721  -3.7398  -3.7398  -2.1152  -2.1152  -1.3372  -1.3372
    -1.2980  -1.2980  -1.2560  -1.2560  -0.8676  -0.8676  -0.1050  -0.1050
     0.0406   0.0406   0.1667   0.1667   0.5527   0.5527   0.5960   0.5960
     0.9211   0.9211   1.2204   1.2204   1.4382   1.4382   1.5859   1.5859
     2.0067   2.0067   2.1048   2.1048   2.2912   2.2912   3.0497   3.0498
     3.1642   3.1642   4.1733   4.1733   4.3326   4.3326   4.6230   4.6230
     4.6918   4.6918   4.9396   4.9396   5.2163   5.2163   5.3918   5.3919
     5.4765   5.4765   5.8753   5.8753   6.0208   6.0208   6.8198

          k =-0.0904 0.0470 0.0000 ( 33032 PWs)   bands (ev):

   -77.4903 -77.4891 -77.1179 -77.1168 -77.0558 -77.0547 -65.6847 -65.6821
   -65.6661 -65.6635 -65.4769 -65.4740 -39.2920 -39.2752 -39.2681 -39.2531
   -39.2202 -39.2160 -38.9145 -38.9113 -38.8480 -38.8444 -38.8365 -38.8231
   -38.8180 -38.8129 -38.8059 -38.7883 -38.7814 -38.7744 -32.1279 -32.1147
   -32.0867 -32.0839 -31.9233 -31.9187 -31.9035 -31.8987 -31.8862 -31.8651
   -31.8297 -31.8215 -31.8121 -31.7929 -31.7723 -31.7593 -31.7019 -31.6955
   -17.3894 -17.3886 -17.3855 -17.3852 -17.3723 -17.3697 -17.3671 -17.3661
   -17.3619 -17.3615 -17.3522 -17.3498 -17.3486 -17.3467 -17.3357 -17.3348
   -17.3277 -17.3258 -17.3156 -17.3147 -17.2870 -17.2862 -17.2846 -17.2830
   -17.2712 -17.2702 -17.2688 -17.2670 -17.1145 -17.1118 -17.1110 -17.1081
   -17.1047 -17.1041 -17.0967 -17.0966 -17.0912 -17.0903 -17.0751 -17.0729
   -17.0725 -17.0714  -3.8384  -3.5450  -2.1480  -1.9857  -1.5410  -1.3508
    -1.2977  -1.2801  -1.2129  -1.1285  -0.9345  -0.6447  -0.2053   0.0283
     0.0323   0.0751   0.1175   0.2341   0.3659   0.5135   0.7041   0.7367
     0.8698   1.0049   1.1627   1.3126   1.4441   1.4959   1.5194   1.6065
     1.8924   1.9727   2.1688   2.2088   2.2713   2.3227   2.9766   3.0304
     3.1445   3.1623   4.0077   4.1626   4.2551   4.3753   4.4884   4.5550
     4.6315   4.7871   4.9072   4.9411   4.9824   5.1558   5.3489   5.4186
     5.7024   5.7510   5.8715   5.8932   5.9758   6.0644   6.6150

          k =-0.0904 0.0629 0.0000 ( 33030 PWs)   bands (ev):

   -77.4908 -77.4886 -77.1184 -77.1163 -77.0564 -77.0542 -65.6860 -65.6809
   -65.6673 -65.6623 -65.4783 -65.4727 -39.3065 -39.2739 -39.2656 -39.2368
   -39.2219 -39.2137 -38.9164 -38.9101 -38.8587 -38.8446 -38.8388 -38.8273
   -38.8219 -38.8159 -38.7908 -38.7852 -38.7795 -38.7601 -32.1370 -32.1126
   -32.0858 -32.0792 -31.9352 -31.9308 -31.9179 -31.9113 -31.9024 -31.8772
   -31.8594 -31.8071 -31.7889 -31.7834 -31.7703 -31.7348 -31.7043 -31.6925
   -17.3899 -17.3883 -17.3857 -17.3851 -17.3735 -17.3686 -17.3676 -17.3658
   -17.3621 -17.3614 -17.3534 -17.3497 -17.3485 -17.3458 -17.3361 -17.3345
   -17.3285 -17.3249 -17.3160 -17.3144 -17.2882 -17.2877 -17.2837 -17.2816
   -17.2724 -17.2717 -17.2680 -17.2657 -17.1163 -17.1134 -17.1097 -17.1066
   -17.1050 -17.1039 -17.0968 -17.0966 -17.0917 -17.0899 -17.0762 -17.0735
   -17.0714 -17.0708  -3.8439  -3.2598  -2.0914  -1.8821  -1.7679  -1.3257
    -1.2462  -1.1803  -1.1585  -0.9691  -0.9429  -0.3651  -0.2574   0.0423
     0.0446   0.1691   0.1985   0.2643   0.2807   0.4748   0.8179   0.8342
     0.8868   1.1177   1.1543   1.3858   1.4723   1.4978   1.5919   1.6388
     1.8236   1.8642   2.2069   2.2742   2.3434   2.3755   2.8543   2.9003
     3.0805   3.1913   3.6983   3.9655   4.0713   4.2660   4.3318   4.4387
     4.7017   4.7660   4.8064   4.8402   4.9961   5.0107   5.2898   5.6159
     5.6775   5.8626   5.9373   6.0724   6.0907   6.1429   6.5211

          k =-0.0904 0.0789 0.0000 ( 33034 PWs)   bands (ev):

   -77.4913 -77.4881 -77.1189 -77.1158 -77.0568 -77.0537 -65.6870 -65.6799
   -65.6684 -65.6613 -65.4795 -65.4716 -39.3190 -39.2723 -39.2618 -39.2232
   -39.2217 -39.2116 -38.9181 -38.9093 -38.8699 -38.8449 -38.8409 -38.8367
   -38.8207 -38.8135 -38.7832 -38.7767 -38.7766 -38.7457 -32.1460 -32.1124
   -32.0846 -32.0737 -31.9553 -31.9446 -31.9387 -31.9341 -31.9028 -31.8868
   -31.8787 -31.8145 -31.7698 -31.7675 -31.7620 -31.7127 -31.7058 -31.6901
   -17.3903 -17.3880 -17.3860 -17.3851 -17.3745 -17.3681 -17.3677 -17.3655
   -17.3624 -17.3614 -17.3545 -17.3504 -17.3476 -17.3450 -17.3365 -17.3342
   -17.3292 -17.3241 -17.3164 -17.3141 -17.2893 -17.2889 -17.2831 -17.2805
   -17.2735 -17.2730 -17.2673 -17.2645 -17.1178 -17.1149 -17.1086 -17.1054
   -17.1054 -17.1036 -17.0970 -17.0966 -17.0921 -17.0896 -17.0771 -17.0741
   -17.0704 -17.0703  -3.7659  -2.9013  -2.2281  -1.9648  -1.4901  -1.2816
    -1.1825  -1.1772  -1.0461  -0.9568  -0.7071  -0.2642  -0.1502   0.0319
     0.0925   0.1006   0.3053   0.4027   0.4590   0.4750   0.8608   0.8744
     0.9201   1.2264   1.2504   1.3054   1.5067   1.6275   1.7074   1.7689
     1.8019   1.8280   2.1974   2.1985   2.4088   2.4965   2.6772   2.7449
     2.9937   3.2428   3.3393   3.5563   3.9659   4.0895   4.2107   4.3968
     4.4882   4.5246   4.8438   4.9015   5.0528   5.0556   5.2188   5.3093
     5.7634   5.8101   5.9328   6.0585   6.1640   6.2897   6.3989

          k =-0.0904 0.0948 0.0000 ( 33015 PWs)   bands (ev):

   -77.4916 -77.4878 -77.1192 -77.1155 -77.0572 -77.0533 -65.6879 -65.6791
   -65.6693 -65.6605 -65.4804 -65.4707 -39.3285 -39.2707 -39.2582 -39.2240
   -39.2100 -39.2096 -38.9195 -38.9088 -38.8787 -38.8489 -38.8450 -38.8369
   -38.8195 -38.8110 -38.7815 -38.7738 -38.7654 -38.7341 -32.1534 -32.1130
   -32.0834 -32.0686 -31.9779 -31.9569 -31.9544 -31.9498 -31.9083 -31.9045
   -31.8798 -31.8229 -31.7703 -31.7512 -31.7448 -31.7064 -31.6958 -31.6883
   -17.3906 -17.3878 -17.3862 -17.3851 -17.3754 -17.3684 -17.3670 -17.3653
   -17.3626 -17.3614 -17.3553 -17.3510 -17.3469 -17.3443 -17.3367 -17.3340
   -17.3297 -17.3235 -17.3167 -17.3139 -17.2903 -17.2900 -17.2826 -17.2796
   -17.2745 -17.2740 -17.2668 -17.2637 -17.1191 -17.1161 -17.1079 -17.1056
   -17.1045 -17.1035 -17.0971 -17.0967 -17.0924 -17.0893 -17.0779 -17.0745
   -17.0698 -17.0696  -3.6179  -2.5600  -2.5006  -1.7987  -1.2677  -1.2544
    -1.1925  -1.1397  -0.9871  -0.9055  -0.4275  -0.2104  -0.0665  -0.0061
     0.1749   0.1794   0.3452   0.4194   0.6848   0.7166   0.7965   0.8897
     1.0123   1.2313   1.3627   1.4521   1.4945   1.6644   1.7232   1.8395
     1.9481   2.0783   2.0877   2.2089   2.3598   2.4144   2.5614   2.6148
     2.9649   3.0199   3.2116   3.3182   3.8354   3.9862   4.0061   4.2694
     4.3383   4.4448   4.7974   4.8383   4.8596   4.9749   5.0446   5.2892
     5.5194   5.5904   5.6982   5.7465   5.8893   6.0713   6.3376

          k =-0.0904 0.1107 0.0000 ( 33038 PWs)   bands (ev):

   -77.4918 -77.4876 -77.1194 -77.1153 -77.0574 -77.0531 -65.6884 -65.6787
   -65.6698 -65.6600 -65.4810 -65.4702 -39.3344 -39.2695 -39.2555 -39.2245
   -39.2089 -39.2019 -38.9204 -38.9085 -38.8842 -38.8544 -38.8451 -38.8364
   -38.8185 -38.8092 -38.7803 -38.7718 -38.7581 -38.7265 -32.1584 -32.1136
   -32.0825 -32.0651 -31.9933 -31.9679 -31.9653 -31.9568 -31.9221 -31.9063
   -31.8808 -31.8287 -31.7710 -31.7412 -31.7341 -31.7066 -31.6876 -31.6850
   -17.3908 -17.3877 -17.3864 -17.3851 -17.3759 -17.3687 -17.3665 -17.3651
   -17.3628 -17.3615 -17.3558 -17.3513 -17.3465 -17.3439 -17.3370 -17.3338
   -17.3301 -17.3231 -17.3169 -17.3138 -17.2909 -17.2906 -17.2823 -17.2791
   -17.2751 -17.2747 -17.2665 -17.2632 -17.1200 -17.1168 -17.1075 -17.1058
   -17.1041 -17.1033 -17.0972 -17.0968 -17.0927 -17.0892 -17.0783 -17.0748
   -17.0695 -17.0691  -3.4157  -2.8684  -2.1060  -1.6329  -1.4168  -1.2760
    -1.1192  -1.0208  -0.9970  -0.7788  -0.2392  -0.1097  -0.0211   0.0392
     0.1946   0.2753   0.3222   0.4257   0.5982   0.9440   0.9576   0.9839
     1.1665   1.2897   1.3643   1.5650   1.6234   1.6675   1.7456   1.9087
     2.0233   2.0476   2.1073   2.1941   2.2599   2.4278   2.4656   2.4659
     2.8528   2.9629   3.1841   3.4102   3.6956   3.7525   3.9334   4.1520
     4.1953   4.3312   4.4500   4.6076   4.6804   4.8262   5.0293   5.0575
     5.1783   5.2998   5.6307   5.6497   5.7458   5.8029   6.2724

          k =-0.0904-0.0645 0.0000 ( 33062 PWs)   bands (ev):

   -77.4919 -77.4875 -77.1195 -77.1152 -77.0575 -77.0531 -65.6886 -65.6785
   -65.6700 -65.6599 -65.4812 -65.4700 -39.3364 -39.2690 -39.2546 -39.2247
   -39.2085 -39.1992 -38.9208 -38.9084 -38.8861 -38.8563 -38.8452 -38.8362
   -38.8182 -38.8086 -38.7799 -38.7710 -38.7555 -38.7239 -32.1601 -32.1138
   -32.0822 -32.0638 -31.9987 -31.9725 -31.9683 -31.9593 -31.9268 -31.9071
   -31.8813 -31.8308 -31.7713 -31.7378 -31.7304 -31.7066 -31.6872 -31.6815
   -17.3909 -17.3877 -17.3864 -17.3852 -17.3761 -17.3687 -17.3664 -17.3651
   -17.3628 -17.3615 -17.3560 -17.3515 -17.3463 -17.3438 -17.3370 -17.3338
   -17.3302 -17.3230 -17.3170 -17.3137 -17.2911 -17.2908 -17.2822 -17.2790
   -17.2753 -17.2749 -17.2664 -17.2630 -17.1203 -17.1170 -17.1073 -17.1059
   -17.1040 -17.1032 -17.0973 -17.0969 -17.0927 -17.0891 -17.0784 -17.0750
   -17.0694 -17.0690  -3.2197  -3.0988  -1.8527  -1.5824  -1.5445  -1.3133
    -1.1113  -1.0369  -0.9322  -0.7150  -0.1850  -0.0637   0.0213   0.1020
     0.1866   0.2732   0.2959   0.4541   0.5140   1.0381   1.0491   1.0597
     1.2153   1.3231   1.4473   1.5028   1.6574   1.7323   1.9235   1.9309
     1.9496   2.0079   2.0191   2.0801   2.3559   2.3644   2.3945   2.4215
     2.8593   3.0438   3.3776   3.4603   3.4860   3.6369   3.8362   4.0861
     4.1281   4.1655   4.4113   4.4271   4.6310   4.8160   4.8182   5.0590
     5.0611   5.2467   5.5104   5.6435   5.6898   5.8564   6.2460

     the Fermi energy is     2.8708 ev

!    total energy              =   -5167.86897945 Ry
     estimated scf accuracy    <       0.00000464 Ry
     smearing contrib. (-TS)   =      -0.05024166 Ry
     internal energy E=F+TS    =   -5167.81873779 Ry

     The total energy is F=E-TS. E is the sum of the following terms:
     one-electron contribution =  -35337.47092456 Ry
     hartree contribution      =   17763.12064252 Ry
     xc contribution           =    -659.59047264 Ry
     ewald contribution        =   13066.12201584 Ry
     electric field correction =       0.00000105 Ry

     convergence has been achieved in  14 iterations

     negative rho (up, down):  2.728E-04 0.000E+00

     Forces acting on atoms (cartesian axes, Ry/au):

     atom    1 type  1   force =     0.00501248    0.00357733   -0.00895851
     atom    2 type  1   force =     0.00501374    0.00357638   -0.00895195
     atom    3 type  2   force =     0.00231160    0.00164958    0.03752954
     atom    4 type  2   force =     0.00231262    0.00164910    0.03753021
     atom    5 type  1   force =    -0.00326998   -0.00233096   -0.02082682
     atom    6 type  1   force =    -0.00327394   -0.00234193   -0.02082677
     atom    7 type  2   force =    -0.00280841   -0.00200438   -0.00945792
     atom    8 type  2   force =    -0.00280904   -0.00200387   -0.00945785
     atom    9 type  1   force =    -0.00065839   -0.00046963    0.00231920
     atom   10 type  1   force =    -0.00066058   -0.00047166    0.00231491
     atom   11 type  2   force =    -0.00058586   -0.00041494   -0.00060607
     atom   12 type  2   force =    -0.00058424   -0.00041502   -0.00060797

     Total force =     0.064697     Total SCF correction =     0.022356
     SCF correction compared to forces is large: reduce conv_thr to get better values

     Writing output data file ./Ta2Re2/Ta2Re2_beef.save/

     init_run     :    328.49s CPU    330.60s WALL (       1 calls)
     electrons    :  13503.20s CPU  13544.44s WALL (       1 calls)
     forces       :    159.11s CPU    159.68s WALL (       1 calls)

     Called by init_run:
     wfcinit      :    304.80s CPU    306.44s WALL (       1 calls)
     potinit      :      8.89s CPU      9.01s WALL (       1 calls)
     hinit0       :     10.73s CPU     10.74s WALL (       1 calls)

     Called by electrons:
     c_bands      :  11782.99s CPU  11812.49s WALL (      14 calls)
     sum_band     :   1634.31s CPU   1641.11s WALL (      14 calls)
     v_of_rho     :     50.95s CPU     52.15s WALL (      15 calls)
     newd         :     39.75s CPU     43.70s WALL (      15 calls)
     mix_rho      :      2.32s CPU      2.36s WALL (      14 calls)
     vdW_kernel   :      6.07s CPU      6.08s WALL (       1 calls)

     Called by c_bands:
     init_us_2    :     15.47s CPU     15.57s WALL (    2220 calls)
     cegterg      :  11666.59s CPU  11693.49s WALL (    1036 calls)

     Called by *egterg:
     cdiaghg      :    570.24s CPU    570.54s WALL (    5031 calls)
     h_psi        :   6323.14s CPU   6346.78s WALL (    5105 calls)
     s_psi        :   1046.83s CPU   1047.33s WALL (    5105 calls)
     g_psi        :      1.67s CPU      1.69s WALL (    3995 calls)

     Called by h_psi:
     h_psi:calbec :   1322.86s CPU   1324.92s WALL (    5105 calls)
     vloc_psi     :   3932.48s CPU   3953.61s WALL (    5105 calls)
     add_vuspsi   :   1059.61s CPU   1060.02s WALL (    5105 calls)

     General routines
     calbec       :   2147.20s CPU   2150.24s WALL (    6437 calls)
     fft          :     43.53s CPU     44.17s WALL (    1004 calls)
     ffts         :      1.27s CPU      1.28s WALL (      29 calls)
     fftw         :   4762.47s CPU   4784.90s WALL (  867340 calls)
     interpolate  :      1.35s CPU      1.37s WALL (      15 calls)

     Parallel routines
     fft_scatt_xy :     61.44s CPU     62.04s WALL (  868373 calls)
     fft_scatt_yz :   4238.87s CPU   4256.07s WALL (  868373 calls)

     PWSCF        :      4h 8m CPU      4h11m WALL


   This run was terminated on:  19:41:38  26Jun2022            

=------------------------------------------------------------------------------=
   JOB DONE.
=------------------------------------------------------------------------------=
