
     Program PWSCF v.6.6 starts on 26Jun2022 at 19:41:43 

     This program is part of the open-source Quantum ESPRESSO suite
     for quantum simulation of materials; please cite
         "P. Giannozzi et al., J. Phys.:Condens. Matter 21 395502 (2009);
         "P. Giannozzi et al., J. Phys.:Condens. Matter 29 465901 (2017);
          URL http://www.quantum-espresso.org", 
     in publications or presentations arising from this work. More details at
     http://www.quantum-espresso.org/quote

     Parallel version (MPI), running on    37 processors

     MPI processes distributed on     1 nodes
     R & G space division:  proc/nbgrp/npool/nimage =      37
     Fft bands division:     nmany     =       1
     Reading input from Ta2W2.in
Warning: card &CELL ignored
Warning: card / ignored

     Current dimensions of program PWSCF are:
     Max number of different atomic species (ntypx) = 10
     Max number of k-points (npk) =  40000
     Max angular momentum in pseudopotentials (lmaxx) =  3
     Presently stress not available with electric field and gates

     Message from routine cell_base_init:
     DEPRECATED: use true lattice parameter, not A to a.u. conversion factor
     Message from routine emend_upf/check:
     BEWARE !!! Possible out of bounds while fixing pseudo
     Message from routine emend_upf/check:
     BEWARE !!! Possible out of bounds while fixing pseudo
     Message from routine read_upf:
     Pseudo file W.pbe-spn-rrkjus_psl.0.2.3.UPF has been fixed on the fly.
     To avoid this message in the future, permanently fix 
     your pseudo files following these instructions: 
     https://gitlab.com/QEF/q-e/blob/master/upftools/how_to_fix_upf.md
     file Ta.pbe-spfn-rrkjus_psl.1.0.0.UPF: wavefunction(s)  5S 5P renormalized

     **************************************************************************
     Initializing libbeef V0.1.2 with the BEEF-vdW functional.
     Citation: Wellendorff et al., PRB 85, 235149 (2012).
     **************************************************************************


     IMPORTANT: XC functional enforced from input :
     Exchange-correlation= BEEF-VDW
                           (   1   4  43  14   2   0   0)
     Any further DFT definition will be discarded
     Please, verify this is what you really want


     Subspace diagonalization in iterative solution of the eigenvalue problem:
     a serial algorithm will be used

     Found symmetry operation: I + (  0.5000  0.0000  0.0000)
     This is a supercell, fractional translations are disabled

     Parallelization info
     --------------------
     sticks:   dense  smooth     PW     G-vecs:    dense   smooth      PW
     Min         125      50     14                29160     7374    1136
     Max         127      51     15                29165     7385    1155
     Sum        4635    1861    535              1079003   272917   42257



     bravais-lattice index     =            0
     lattice parameter (alat)  =       1.8897  a.u.
     unit-cell volume          =    4937.2413 (a.u.)^3
     number of atoms/cell      =           12
     number of atomic types    =            2
     number of electrons       =       246.00
     number of Kohn-Sham states=          148
     kinetic-energy cutoff     =      55.1240  Ry
     charge density cutoff     =     551.2396  Ry
     convergence threshold     =      1.0E-05
     mixing beta               =       0.1000
     number of iterations used =           10  plain     mixing
     Exchange-correlation= BEEF-VDW
                           (   1   4  43  14   2   0   0)

     celldm(1)=   1.889726  celldm(2)=   0.000000  celldm(3)=   0.000000
     celldm(4)=   0.000000  celldm(5)=   0.000000  celldm(6)=   0.000000

     crystal axes: (cart. coord. in units of alat)
               a(1) = (   5.448873   0.000000   0.000000 )  
               a(2) = (  -2.724436   5.432928   0.000000 )  
               a(3) = (   0.000000   0.000000  24.714237 )  

     reciprocal axes: (cart. coord. in units 2 pi/alat)
               b(1) = (  0.183524  0.092031 -0.000000 )  
               b(2) = (  0.000000  0.184063  0.000000 )  
               b(3) = (  0.000000 -0.000000  0.040463 )  


     PseudoPot. # 1 for Ta read from file:
     ../pseudo/Ta.pbe-spfn-rrkjus_psl.1.0.0.UPF
     MD5 check sum: 39d7d349fe394e56adf8454eb9315fbb
     Pseudo is Ultrasoft + core correction, Zval = 27.0
     Generated using "atomic" code by A. Dal Corso v.6.3
     Using radial grid of 1273 points,  8 beta functions with: 
                l(1) =   0
                l(2) =   0
                l(3) =   1
                l(4) =   1
                l(5) =   2
                l(6) =   2
                l(7) =   3
                l(8) =   3
     Q(r) pseudized with 0 coefficients 


     PseudoPot. # 2 for W  read from file:
     ../pseudo/W.pbe-spn-rrkjus_psl.0.2.3.UPF
     MD5 check sum: 25b665cf2bbae626ad8d9f1bc024df95
     Pseudo is Ultrasoft + core correction, Zval = 14.0
     Generated using "atomic" code by A. Dal Corso v.5.0.2 svn rev. 10551
     Using radial grid of 1273 points,  6 beta functions with: 
                l(1) =   0
                l(2) =   0
                l(3) =   1
                l(4) =   1
                l(5) =   2
                l(6) =   2
     Q(r) pseudized with 0 coefficients 


     atomic species   valence    mass     pseudopotential
        Ta            27.00   180.94788     Ta( 1.00)
        W             14.00   183.84000     W ( 1.00)

     No symmetry found



   Cartesian axes

     site n.     atom                  positions (alat units)
         1           Ta  tau(   1) = (   0.0000000   0.0000000  10.0000000  )
         2           Ta  tau(   2) = (   2.7244364   0.0000000  10.0000000  )
         3           W   tau(   3) = (   1.3622182   2.7164642  10.0000000  )
         4           W   tau(   4) = (  -1.3622182   2.7164642  10.0000000  )
         5           Ta  tau(   5) = (   2.7244364   1.3662160  12.3571185  )
         6           Ta  tau(   6) = (  -0.0000000   1.3662160  12.3571185  )
         7           W   tau(   7) = (  -1.3622182   4.0826803  12.3571185  )
         8           W   tau(   8) = (   1.3622182   4.0826803  12.3571185  )
         9           Ta  tau(   9) = (  -0.0000029   2.7534352  14.7476260  )
        10           Ta  tau(  10) = (   2.7244325   2.7534510  14.7476361  )
        11           W   tau(  11) = (   1.3622392   5.4261129  14.6063897  )
        12           W   tau(  12) = (  -1.3622345   5.4261099  14.6063836  )

     number of k points=    74  Fermi-Dirac smearing, width (Ry)=  0.0100
                       cart. coord. in units 2pi/alat
        k(    1) = (   0.0000000   0.0000000   0.0000000), wk =   0.0138889
        k(    2) = (   0.0000000   0.0153386   0.0000000), wk =   0.0277778
        k(    3) = (   0.0000000   0.0306771   0.0000000), wk =   0.0277778
        k(    4) = (   0.0000000   0.0460157   0.0000000), wk =   0.0277778
        k(    5) = (   0.0000000   0.0613543   0.0000000), wk =   0.0277778
        k(    6) = (   0.0000000   0.0766928   0.0000000), wk =   0.0277778
        k(    7) = (   0.0000000  -0.0920314   0.0000000), wk =   0.0138889
        k(    8) = (   0.0152937   0.0076693   0.0000000), wk =   0.0277778
        k(    9) = (   0.0152937   0.0230078   0.0000000), wk =   0.0277778
        k(   10) = (   0.0152937   0.0383464   0.0000000), wk =   0.0277778
        k(   11) = (   0.0152937   0.0536850   0.0000000), wk =   0.0277778
        k(   12) = (   0.0152937   0.0690236   0.0000000), wk =   0.0277778
        k(   13) = (   0.0152937   0.0843621   0.0000000), wk =   0.0277778
        k(   14) = (   0.0152937  -0.0843621   0.0000000), wk =   0.0277778
        k(   15) = (   0.0152937  -0.0690236   0.0000000), wk =   0.0277778
        k(   16) = (   0.0152937  -0.0536850   0.0000000), wk =   0.0277778
        k(   17) = (   0.0152937  -0.0383464   0.0000000), wk =   0.0277778
        k(   18) = (   0.0152937  -0.0230079   0.0000000), wk =   0.0277778
        k(   19) = (   0.0152937  -0.0076693   0.0000000), wk =   0.0277778
        k(   20) = (   0.0305874   0.0153386   0.0000000), wk =   0.0277778
        k(   21) = (   0.0305874   0.0306771   0.0000000), wk =   0.0277778
        k(   22) = (   0.0305874   0.0460157   0.0000000), wk =   0.0277778
        k(   23) = (   0.0305874   0.0613543   0.0000000), wk =   0.0277778
        k(   24) = (   0.0305874   0.0766928   0.0000000), wk =   0.0277778
        k(   25) = (   0.0305874   0.0920314   0.0000000), wk =   0.0277778
        k(   26) = (   0.0305874  -0.0766928   0.0000000), wk =   0.0277778
        k(   27) = (   0.0305874  -0.0613543   0.0000000), wk =   0.0277778
        k(   28) = (   0.0305874  -0.0460157   0.0000000), wk =   0.0277778
        k(   29) = (   0.0305874  -0.0306771   0.0000000), wk =   0.0277778
        k(   30) = (   0.0305874  -0.0153386   0.0000000), wk =   0.0277778
        k(   31) = (   0.0305874  -0.0000000   0.0000000), wk =   0.0277778
        k(   32) = (   0.0458810   0.0230078   0.0000000), wk =   0.0277778
        k(   33) = (   0.0458810   0.0383464   0.0000000), wk =   0.0277778
        k(   34) = (   0.0458810   0.0536850   0.0000000), wk =   0.0277778
        k(   35) = (   0.0458810   0.0690235   0.0000000), wk =   0.0277778
        k(   36) = (   0.0458810   0.0843621   0.0000000), wk =   0.0277778
        k(   37) = (   0.0458810   0.0997007   0.0000000), wk =   0.0277778
        k(   38) = (   0.0458810  -0.0690236   0.0000000), wk =   0.0277778
        k(   39) = (   0.0458810  -0.0536850   0.0000000), wk =   0.0277778
        k(   40) = (   0.0458810  -0.0383464   0.0000000), wk =   0.0277778
        k(   41) = (   0.0458810  -0.0230079   0.0000000), wk =   0.0277778
        k(   42) = (   0.0458810  -0.0076693   0.0000000), wk =   0.0277778
        k(   43) = (   0.0458810   0.0076693   0.0000000), wk =   0.0277778
        k(   44) = (   0.0611747   0.0306771   0.0000000), wk =   0.0277778
        k(   45) = (   0.0611747   0.0460157   0.0000000), wk =   0.0277778
        k(   46) = (   0.0611747   0.0613543   0.0000000), wk =   0.0277778
        k(   47) = (   0.0611747   0.0766928   0.0000000), wk =   0.0277778
        k(   48) = (   0.0611747   0.0920314   0.0000000), wk =   0.0277778
        k(   49) = (   0.0611747   0.1073700   0.0000000), wk =   0.0277778
        k(   50) = (   0.0611747  -0.0613543   0.0000000), wk =   0.0277778
        k(   51) = (   0.0611747  -0.0460157   0.0000000), wk =   0.0277778
        k(   52) = (   0.0611747  -0.0306771   0.0000000), wk =   0.0277778
        k(   53) = (   0.0611747  -0.0153386   0.0000000), wk =   0.0277778
        k(   54) = (   0.0611747  -0.0000000   0.0000000), wk =   0.0277778
        k(   55) = (   0.0611747   0.0153386   0.0000000), wk =   0.0277778
        k(   56) = (   0.0764684   0.0383464   0.0000000), wk =   0.0277778
        k(   57) = (   0.0764684   0.0536850   0.0000000), wk =   0.0277778
        k(   58) = (   0.0764684   0.0690235   0.0000000), wk =   0.0277778
        k(   59) = (   0.0764684   0.0843621   0.0000000), wk =   0.0277778
        k(   60) = (   0.0764684   0.0997007   0.0000000), wk =   0.0277778
        k(   61) = (   0.0764684   0.1150392   0.0000000), wk =   0.0277778
        k(   62) = (   0.0764684  -0.0536850   0.0000000), wk =   0.0277778
        k(   63) = (   0.0764684  -0.0383464   0.0000000), wk =   0.0277778
        k(   64) = (   0.0764684  -0.0230079   0.0000000), wk =   0.0277778
        k(   65) = (   0.0764684  -0.0076693   0.0000000), wk =   0.0277778
        k(   66) = (   0.0764684   0.0076693   0.0000000), wk =   0.0277778
        k(   67) = (   0.0764684   0.0230078   0.0000000), wk =   0.0277778
        k(   68) = (  -0.0917621  -0.0460157   0.0000000), wk =   0.0138889
        k(   69) = (  -0.0917621  -0.0306771   0.0000000), wk =   0.0277778
        k(   70) = (  -0.0917621  -0.0153386   0.0000000), wk =   0.0277778
        k(   71) = (  -0.0917621   0.0000000   0.0000000), wk =   0.0277778
        k(   72) = (  -0.0917621   0.0153386   0.0000000), wk =   0.0277778
        k(   73) = (  -0.0917621   0.0306771   0.0000000), wk =   0.0277778
        k(   74) = (  -0.0917621  -0.1380471   0.0000000), wk =   0.0138889

     Dense  grid:  1079003 G-vectors     FFT dimensions: (  80,  90, 360)

     Smooth grid:   272917 G-vectors     FFT dimensions: (  50,  60, 225)

     Estimated max dynamical RAM per process >     443.38 MB

     Estimated total dynamical RAM >      16.02 GB

     Initial potential from superposition of free atoms

     starting charge  245.99160, renormalised to  246.00000

     negative rho (up, down):  7.855E-04 0.000E+00


     %%%%%%%%%%%%%%%%%%%%%%%%%%%%%%%%%%%%%%%%%%%%%%%%%%%%%%%%%%%%%%%%%%%%%%%%
     %                                                                      %
     % You are using vdW-DF, which was implemented by the Thonhauser group. %
     % Please cite the following two papers that made this development      %
     % possible and the two reviews that describe the various versions:     %
     %                                                                      %
     %   T. Thonhauser et al., PRL 115, 136402 (2015).                      %
     %   T. Thonhauser et al., PRB 76, 125112 (2007).                       %
     %   K. Berland et al., Rep. Prog. Phys. 78, 066501 (2015).             %
     %   D.C. Langreth et al., J. Phys.: Condens. Matter 21, 084203 (2009). %
     %                                                                      %
     %                                                                      %
     % If you are calculating the stress with vdW-DF, please also cite:     %
     %                                                                      %
     %   R. Sabatini et al., J. Phys.: Condens. Matter 24, 424209 (2012).   %
     %                                                                      %
     %%%%%%%%%%%%%%%%%%%%%%%%%%%%%%%%%%%%%%%%%%%%%%%%%%%%%%%%%%%%%%%%%%%%%%%%



     Adding external electric field

     Computed dipole along edir(3) : 
        Dipole               -0.0000 Ry au,         -0.0001 Debye
        Dipole field         -0.0000 Ry au, 

        Potential amp.        0.0000 Ry
        Total length         45.5356 bohr

     Starting wfcs are  180 randomized atomic wfcs

     total cpu time spent up to now is      317.6 secs

     Self-consistent Calculation

     iteration #  1     ecut=    55.12 Ry     beta= 0.10
     Davidson diagonalization with overlap
     ethr =  1.00E-02,  avg # of iterations =  2.1

     negative rho (up, down):  7.505E-04 0.000E+00

     Adding external electric field

     Computed dipole along edir(3) : 
        Dipole               -0.0433 Ry au,         -0.1099 Debye
        Dipole field         -0.0001 Ry au, 

        Potential amp.        0.0100 Ry
        Total length         45.5356 bohr


     total cpu time spent up to now is     1196.5 secs

     total energy              =   -5046.47867697 Ry
     estimated scf accuracy    <       3.88796438 Ry

     iteration #  2     ecut=    55.12 Ry     beta= 0.10
     Davidson diagonalization with overlap
     ethr =  1.58E-03,  avg # of iterations =  2.1

     negative rho (up, down):  8.101E-04 0.000E+00

     Adding external electric field

     Computed dipole along edir(3) : 
        Dipole                0.2727 Ry au,          0.6932 Debye
        Dipole field          0.0007 Ry au, 

        Potential amp.       -0.0632 Ry
        Total length         45.5356 bohr


     total cpu time spent up to now is     2278.8 secs

     total energy              =   -5046.74945777 Ry
     estimated scf accuracy    <       1.25732148 Ry

     iteration #  3     ecut=    55.12 Ry     beta= 0.10
     Davidson diagonalization with overlap
     ethr =  5.11E-04,  avg # of iterations =  1.6

     negative rho (up, down):  1.294E-03 0.000E+00

     Adding external electric field

     Computed dipole along edir(3) : 
        Dipole               -0.0566 Ry au,         -0.1439 Debye
        Dipole field         -0.0001 Ry au, 

        Potential amp.        0.0131 Ry
        Total length         45.5356 bohr


     total cpu time spent up to now is     3203.8 secs

     total energy              =   -5046.72671738 Ry
     estimated scf accuracy    <       4.69494182 Ry

     iteration #  4     ecut=    55.12 Ry     beta= 0.10
     Davidson diagonalization with overlap
     ethr =  5.11E-04,  avg # of iterations =  1.0

     negative rho (up, down):  1.102E-03 0.000E+00

     Adding external electric field

     Computed dipole along edir(3) : 
        Dipole                0.0392 Ry au,          0.0996 Debye
        Dipole field          0.0001 Ry au, 

        Potential amp.       -0.0091 Ry
        Total length         45.5356 bohr


     total cpu time spent up to now is     3794.6 secs

     total energy              =   -5046.69268557 Ry
     estimated scf accuracy    <       0.74866301 Ry

     iteration #  5     ecut=    55.12 Ry     beta= 0.10
     Davidson diagonalization with overlap
     ethr =  3.04E-04,  avg # of iterations =  2.0

     negative rho (up, down):  1.335E-03 0.000E+00

     Adding external electric field

     Computed dipole along edir(3) : 
        Dipole                0.0239 Ry au,          0.0607 Debye
        Dipole field          0.0001 Ry au, 

        Potential amp.       -0.0055 Ry
        Total length         45.5356 bohr


     total cpu time spent up to now is     4939.6 secs

     total energy              =   -5046.73892699 Ry
     estimated scf accuracy    <       0.08336969 Ry

     iteration #  6     ecut=    55.12 Ry     beta= 0.10
     Davidson diagonalization with overlap
     ethr =  3.39E-05,  avg # of iterations = 10.1

     negative rho (up, down):  3.186E-03 0.000E+00

     Adding external electric field

     Computed dipole along edir(3) : 
        Dipole                0.0257 Ry au,          0.0652 Debye
        Dipole field          0.0001 Ry au, 

        Potential amp.       -0.0059 Ry
        Total length         45.5356 bohr


     total cpu time spent up to now is     5892.4 secs

     total energy              =   -5046.73772549 Ry
     estimated scf accuracy    <       0.05272684 Ry

     iteration #  7     ecut=    55.12 Ry     beta= 0.10
     Davidson diagonalization with overlap
     ethr =  2.14E-05,  avg # of iterations =  2.9

     negative rho (up, down):  5.415E-03 0.000E+00

     Adding external electric field

     Computed dipole along edir(3) : 
        Dipole                0.0287 Ry au,          0.0731 Debye
        Dipole field          0.0001 Ry au, 

        Potential amp.       -0.0067 Ry
        Total length         45.5356 bohr


     total cpu time spent up to now is     6915.6 secs

     total energy              =   -5046.74038556 Ry
     estimated scf accuracy    <       0.01735710 Ry

     iteration #  8     ecut=    55.12 Ry     beta= 0.10
     Davidson diagonalization with overlap
     c_bands:  1 eigenvalues not converged
     ethr =  7.06E-06,  avg # of iterations =  8.0

     negative rho (up, down):  4.934E-03 0.000E+00

     Adding external electric field

     Computed dipole along edir(3) : 
        Dipole                0.0283 Ry au,          0.0719 Debye
        Dipole field          0.0001 Ry au, 

        Potential amp.       -0.0066 Ry
        Total length         45.5356 bohr


     total cpu time spent up to now is     7882.7 secs

     total energy              =   -5046.74197475 Ry
     estimated scf accuracy    <       0.00501451 Ry

     iteration #  9     ecut=    55.12 Ry     beta= 0.10
     Davidson diagonalization with overlap
     c_bands:  1 eigenvalues not converged
     c_bands:  1 eigenvalues not converged
     ethr =  2.04E-06,  avg # of iterations =  8.4

     negative rho (up, down):  5.177E-03 0.000E+00

     Adding external electric field

     Computed dipole along edir(3) : 
        Dipole                0.0293 Ry au,          0.0744 Debye
        Dipole field          0.0001 Ry au, 

        Potential amp.       -0.0068 Ry
        Total length         45.5356 bohr


     total cpu time spent up to now is     8708.4 secs

     total energy              =   -5046.74259838 Ry
     estimated scf accuracy    <       0.00216373 Ry

     iteration # 10     ecut=    55.12 Ry     beta= 0.10
     Davidson diagonalization with overlap
     c_bands:  1 eigenvalues not converged
     ethr =  8.80E-07,  avg # of iterations =  2.6

     negative rho (up, down):  5.179E-03 0.000E+00

     Adding external electric field

     Computed dipole along edir(3) : 
        Dipole                0.0306 Ry au,          0.0777 Debye
        Dipole field          0.0001 Ry au, 

        Potential amp.       -0.0071 Ry
        Total length         45.5356 bohr


     total cpu time spent up to now is     9308.9 secs

     total energy              =   -5046.74265726 Ry
     estimated scf accuracy    <       0.00090258 Ry

     iteration # 11     ecut=    55.12 Ry     beta= 0.10
     Davidson diagonalization with overlap
     ethr =  3.67E-07,  avg # of iterations =  4.0

     negative rho (up, down):  4.774E-03 0.000E+00

     Adding external electric field

     Computed dipole along edir(3) : 
        Dipole                0.0292 Ry au,          0.0741 Debye
        Dipole field          0.0001 Ry au, 

        Potential amp.       -0.0068 Ry
        Total length         45.5356 bohr


     total cpu time spent up to now is    10158.0 secs

     total energy              =   -5046.74271239 Ry
     estimated scf accuracy    <       0.00033104 Ry

     iteration # 12     ecut=    55.12 Ry     beta= 0.10
     Davidson diagonalization with overlap
     ethr =  1.35E-07,  avg # of iterations =  2.5

     negative rho (up, down):  4.518E-03 0.000E+00

     Adding external electric field

     Computed dipole along edir(3) : 
        Dipole                0.0298 Ry au,          0.0756 Debye
        Dipole field          0.0001 Ry au, 

        Potential amp.       -0.0069 Ry
        Total length         45.5356 bohr


     total cpu time spent up to now is    10832.5 secs

     total energy              =   -5046.74279286 Ry
     estimated scf accuracy    <       0.00008604 Ry

     iteration # 13     ecut=    55.12 Ry     beta= 0.10
     Davidson diagonalization with overlap
     ethr =  3.50E-08,  avg # of iterations =  3.6

     negative rho (up, down):  4.111E-03 0.000E+00

     Adding external electric field

     Computed dipole along edir(3) : 
        Dipole                0.0298 Ry au,          0.0758 Debye
        Dipole field          0.0001 Ry au, 

        Potential amp.       -0.0069 Ry
        Total length         45.5356 bohr


     total cpu time spent up to now is    11768.7 secs

     total energy              =   -5046.74281887 Ry
     estimated scf accuracy    <       0.00001385 Ry

     iteration # 14     ecut=    55.12 Ry     beta= 0.10
     Davidson diagonalization with overlap
     ethr =  5.63E-09,  avg # of iterations =  5.1

     negative rho (up, down):  1.386E-03 0.000E+00

     Adding external electric field

     Computed dipole along edir(3) : 
        Dipole                0.0340 Ry au,          0.0864 Debye
        Dipole field          0.0001 Ry au, 

        Potential amp.       -0.0079 Ry
        Total length         45.5356 bohr


     total cpu time spent up to now is    12667.9 secs

     End of self-consistent calculation

          k = 0.0000 0.0000 0.0000 ( 34167 PWs)   bands (ev):

   -71.7552 -71.6944 -71.6061 -71.5464 -71.5350 -71.4750 -65.6744 -65.6009
   -65.5886 -65.5149 -65.4196 -65.3322 -36.2558 -36.1671 -36.0499 -35.9906
   -35.9471 -35.8589 -35.7461 -35.7423 -35.6591 -35.6457 -35.6192 -35.5493
   -35.5089 -35.3636 -35.3635 -35.2779 -35.1156 -35.0684 -32.4159 -32.3682
   -32.3023 -32.2847 -32.1647 -32.0860 -31.9536 -31.9290 -31.8619 -31.8122
   -31.7509 -31.7432 -31.6302 -31.4621 -31.3456 -31.2725 -31.2194 -31.1410
   -17.3548 -17.3497 -17.3448 -17.3437 -17.3412 -17.3184 -17.3180 -17.3164
   -17.3023 -17.2797 -17.2734 -17.2731 -17.2710 -17.2687 -17.2622 -17.2606
   -17.2588 -17.2409 -17.2397 -17.2391 -17.2250 -17.2223 -17.2128 -17.2036
   -17.2035 -17.1990 -17.1524 -17.1426 -17.0601 -17.0547 -17.0467 -17.0426
   -17.0345 -17.0303 -17.0231 -17.0204 -17.0145 -17.0114 -17.0100 -16.9968
   -16.9904 -16.9773  -5.2224  -3.4273  -2.5138  -2.1378  -2.0451  -1.9162
    -1.8365  -1.7980  -1.5941  -1.1519  -0.8651  -0.8383  -0.7807  -0.7545
    -0.7517   0.2104   0.5009   0.6538   0.6756   1.1918   1.2182   1.2410
     1.3677   1.8144   1.8386   2.0605   2.3920   2.5043   2.7124   2.8795
     2.9468   3.0035   3.1545   3.2440   3.6546   3.6647   3.8320   3.8954
     3.8983   3.9560   4.3013   4.3798   4.4843   4.5998   4.8218   4.8605
     5.1377   5.2161   5.3509   5.3674   5.6977   5.9422   6.1339   6.5615
     6.6904   6.7250   6.9105   6.9720

          k = 0.0000 0.0153 0.0000 ( 34139 PWs)   bands (ev):

   -71.7552 -71.6944 -71.6061 -71.5464 -71.5350 -71.4750 -65.6744 -65.6009
   -65.5886 -65.5149 -65.4196 -65.3322 -36.2554 -36.1665 -36.0496 -35.9904
   -35.9468 -35.8580 -35.7456 -35.7426 -35.6580 -35.6458 -35.6184 -35.5490
   -35.5087 -35.3635 -35.3634 -35.2779 -35.1156 -35.0684 -32.4171 -32.3687
   -32.3035 -32.2850 -32.1651 -32.0854 -31.9534 -31.9313 -31.8636 -31.8130
   -31.7519 -31.7437 -31.6304 -31.4621 -31.3455 -31.2726 -31.2194 -31.1411
   -17.3548 -17.3497 -17.3448 -17.3437 -17.3412 -17.3184 -17.3180 -17.3163
   -17.3023 -17.2797 -17.2734 -17.2731 -17.2710 -17.2687 -17.2622 -17.2605
   -17.2588 -17.2408 -17.2397 -17.2391 -17.2250 -17.2223 -17.2128 -17.2036
   -17.2035 -17.1990 -17.1524 -17.1427 -17.0601 -17.0548 -17.0467 -17.0426
   -17.0345 -17.0303 -17.0231 -17.0204 -17.0145 -17.0114 -17.0100 -16.9967
   -16.9904 -16.9773  -5.1693  -3.3757  -2.4573  -2.1636  -2.0091  -1.8711
    -1.8339  -1.7601  -1.5578  -1.1319  -0.8209  -0.8032  -0.7372  -0.7330
    -0.6928   0.2025   0.4998   0.6445   0.7198   1.1098   1.1806   1.2166
     1.3908   1.7867   1.7987   2.0546   2.3629   2.4175   2.5973   2.8279
     2.9606   2.9750   3.1485   3.1983   3.5842   3.6329   3.6787   3.7452
     3.9222   4.1246   4.1928   4.3249   4.5209   4.5245   4.6602   4.8935
     5.1542   5.2414   5.3392   5.3680   5.6965   5.8233   6.0024   6.5069
     6.6943   6.7053   6.8036   7.0179

          k = 0.0000 0.0307 0.0000 ( 34136 PWs)   bands (ev):

   -71.7552 -71.6944 -71.6061 -71.5464 -71.5349 -71.4750 -65.6744 -65.6009
   -65.5886 -65.5149 -65.4196 -65.3322 -36.2544 -36.1649 -36.0490 -35.9898
   -35.9460 -35.8554 -35.7443 -35.7435 -35.6551 -35.6462 -35.6161 -35.5481
   -35.5081 -35.3634 -35.3633 -35.2778 -35.1155 -35.0683 -32.4201 -32.3703
   -32.3069 -32.2857 -32.1662 -32.0838 -31.9529 -31.9375 -31.8682 -31.8152
   -31.7547 -31.7453 -31.6311 -31.4622 -31.3454 -31.2728 -31.2196 -31.1411
   -17.3548 -17.3497 -17.3449 -17.3437 -17.3412 -17.3184 -17.3180 -17.3164
   -17.3023 -17.2797 -17.2736 -17.2731 -17.2710 -17.2688 -17.2623 -17.2605
   -17.2588 -17.2408 -17.2397 -17.2391 -17.2250 -17.2223 -17.2128 -17.2038
   -17.2035 -17.1991 -17.1524 -17.1427 -17.0602 -17.0548 -17.0467 -17.0427
   -17.0346 -17.0303 -17.0231 -17.0204 -17.0145 -17.0114 -17.0101 -16.9967
   -16.9904 -16.9774  -5.0128  -3.2260  -2.3195  -2.2272  -1.9080  -1.8227
    -1.7395  -1.6478  -1.4545  -1.0742  -0.6993  -0.6989  -0.6696  -0.6056
    -0.5194   0.1803   0.4936   0.6516   0.7980   0.9357   1.1066   1.1328
     1.3540   1.6655   1.7713   1.9669   2.2657   2.2823   2.3911   2.6209
     2.9104   2.9434   3.0488   3.0687   3.2483   3.3110   3.6996   3.7450
     3.8684   4.0015   4.0842   4.2156   4.3103   4.3957   4.6418   4.8798
     5.1057   5.3040   5.3055   5.3927   5.5831   5.6619   5.6984   6.1877
     6.3460   6.3889   6.6490   6.8841

          k = 0.0000 0.0460 0.0000 ( 34092 PWs)   bands (ev):

   -71.7552 -71.6944 -71.6061 -71.5464 -71.5349 -71.4750 -65.6744 -65.6009
   -65.5886 -65.5149 -65.4196 -65.3322 -36.2531 -36.1626 -36.0482 -35.9889
   -35.9449 -35.8518 -35.7447 -35.7424 -35.6511 -35.6467 -35.6129 -35.5470
   -35.5073 -35.3632 -35.3630 -35.2778 -35.1155 -35.0683 -32.4242 -32.3725
   -32.3113 -32.2867 -32.1675 -32.0816 -31.9522 -31.9459 -31.8744 -31.8181
   -31.7586 -31.7473 -31.6320 -31.4622 -31.3453 -31.2731 -31.2199 -31.1411
   -17.3548 -17.3497 -17.3450 -17.3437 -17.3412 -17.3184 -17.3180 -17.3164
   -17.3023 -17.2797 -17.2738 -17.2732 -17.2710 -17.2689 -17.2624 -17.2606
   -17.2588 -17.2408 -17.2397 -17.2391 -17.2249 -17.2223 -17.2129 -17.2040
   -17.2035 -17.1992 -17.1524 -17.1427 -17.0604 -17.0549 -17.0467 -17.0427
   -17.0346 -17.0303 -17.0231 -17.0204 -17.0145 -17.0114 -17.0102 -16.9967
   -16.9904 -16.9774  -4.7612  -2.9965  -2.4576  -2.0034  -1.8072  -1.7633
    -1.5336  -1.4654  -1.3010  -0.9879  -0.5691  -0.5364  -0.5261  -0.4047
    -0.2442   0.1645   0.4805   0.6401   0.7126   0.8842   1.0003   1.0162
     1.2496   1.5150   1.7010   1.7415   2.1000   2.2014   2.2528   2.2961
     2.6324   2.7914   2.8374   2.8698   3.0061   3.0697   3.4743   3.6055
     3.7288   3.8360   3.8763   4.1062   4.1293   4.5069   4.7207   4.8267
     4.8999   5.1234   5.1434   5.2569   5.3965   5.6612   5.7061   5.9493
     5.9535   6.2438   6.5660   6.6353

          k = 0.0000 0.0614 0.0000 ( 34104 PWs)   bands (ev):

   -71.7552 -71.6944 -71.6061 -71.5464 -71.5349 -71.4750 -65.6744 -65.6010
   -65.5886 -65.5149 -65.4196 -65.3322 -36.2517 -36.1603 -36.0473 -35.9881
   -35.9438 -35.8482 -35.7459 -35.7406 -35.6472 -35.6469 -35.6098 -35.5458
   -35.5066 -35.3631 -35.3626 -35.2778 -35.1154 -35.0682 -32.4282 -32.3747
   -32.3158 -32.2877 -32.1690 -32.0796 -31.9544 -31.9516 -31.8807 -31.8211
   -31.7625 -31.7494 -31.6330 -31.4622 -31.3451 -31.2734 -31.2201 -31.1411
   -17.3549 -17.3497 -17.3452 -17.3437 -17.3413 -17.3185 -17.3180 -17.3164
   -17.3023 -17.2797 -17.2740 -17.2732 -17.2710 -17.2689 -17.2626 -17.2606
   -17.2589 -17.2409 -17.2397 -17.2392 -17.2250 -17.2223 -17.2129 -17.2042
   -17.2035 -17.1993 -17.1525 -17.1428 -17.0606 -17.0550 -17.0467 -17.0428
   -17.0346 -17.0304 -17.0231 -17.0205 -17.0145 -17.0115 -17.0103 -16.9967
   -16.9904 -16.9774  -4.4296  -2.8343  -2.6134  -1.8223  -1.6548  -1.6089
    -1.2795  -1.2261  -1.1258  -0.8922  -0.4434  -0.3827  -0.3500  -0.2040
     0.0863   0.2548   0.4438   0.4942   0.6501   0.7225   0.8276   1.0775
     1.1698   1.3802   1.4010   1.6353   1.8833   2.0329   2.0624   2.1707
     2.1981   2.4694   2.5565   2.6838   2.7814   2.9807   3.0623   3.1987
     3.6531   3.8216   3.9278   3.9415   4.2934   4.5298   4.5605   4.6286
     4.7019   4.8250   5.0601   5.2181   5.3600   5.3861   5.8830   5.9251
     5.9733   6.0663   6.4689   6.4802

          k = 0.0000 0.0767 0.0000 ( 34078 PWs)   bands (ev):

   -71.7551 -71.6944 -71.6060 -71.5464 -71.5349 -71.4750 -65.6745 -65.6010
   -65.5886 -65.5149 -65.4196 -65.3322 -36.2507 -36.1587 -36.0467 -35.9874
   -35.9430 -35.8455 -35.7468 -35.7392 -35.6476 -35.6439 -35.6075 -35.5449
   -35.5060 -35.3630 -35.3624 -35.2777 -35.1153 -35.0681 -32.4312 -32.3763
   -32.3190 -32.2885 -32.1700 -32.0780 -31.9605 -31.9511 -31.8852 -31.8233
   -31.7654 -31.7508 -31.6337 -31.4622 -31.3450 -31.2737 -31.2203 -31.1411
   -17.3549 -17.3498 -17.3452 -17.3437 -17.3413 -17.3184 -17.3180 -17.3164
   -17.3023 -17.2797 -17.2741 -17.2732 -17.2711 -17.2689 -17.2626 -17.2606
   -17.2589 -17.2409 -17.2397 -17.2392 -17.2250 -17.2224 -17.2129 -17.2044
   -17.2035 -17.1993 -17.1526 -17.1428 -17.0607 -17.0550 -17.0467 -17.0429
   -17.0347 -17.0304 -17.0231 -17.0206 -17.0145 -17.0115 -17.0103 -16.9968
   -16.9904 -16.9774  -4.0441  -3.1513  -2.3517  -1.8984  -1.4863  -1.2938
    -1.0372  -0.9697  -0.9662  -0.8265  -0.4233  -0.3246  -0.2292  -0.0127
     0.2117   0.3073   0.5066   0.5216   0.5565   0.6204   0.7803   1.0416
     1.1097   1.2242   1.3180   1.4782   1.7651   1.8644   1.9173   1.9553
     1.9694   2.1647   2.2724   2.3377   2.4573   2.7273   2.8873   3.4248
     3.4999   3.8715   3.9281   3.9967   4.2226   4.3423   4.4280   4.4627
     4.5691   4.6928   5.1059   5.2202   5.3149   5.3207   5.8665   5.9110
     5.9603   6.3737   6.4219   6.7037

          k = 0.0000-0.0920 0.0000 ( 34108 PWs)   bands (ev):

   -71.7551 -71.6944 -71.6060 -71.5464 -71.5349 -71.4750 -65.6745 -65.6010
   -65.5886 -65.5149 -65.4196 -65.3322 -36.2503 -36.1581 -36.0465 -35.9872
   -35.9427 -35.8445 -35.7472 -35.7387 -35.6477 -35.6428 -35.6067 -35.5446
   -35.5058 -35.3630 -35.3623 -35.2777 -35.1153 -35.0681 -32.4323 -32.3770
   -32.3202 -32.2888 -32.1703 -32.0774 -31.9628 -31.9509 -31.8869 -31.8241
   -31.7665 -31.7514 -31.6340 -31.4622 -31.3450 -31.2737 -31.2204 -31.1411
   -17.3549 -17.3498 -17.3452 -17.3437 -17.3413 -17.3185 -17.3180 -17.3164
   -17.3022 -17.2797 -17.2743 -17.2733 -17.2711 -17.2690 -17.2627 -17.2606
   -17.2589 -17.2409 -17.2397 -17.2392 -17.2249 -17.2225 -17.2129 -17.2045
   -17.2035 -17.1993 -17.1526 -17.1428 -17.0608 -17.0550 -17.0467 -17.0429
   -17.0347 -17.0304 -17.0231 -17.0206 -17.0145 -17.0115 -17.0104 -16.9968
   -16.9904 -16.9774  -3.7334  -3.4542  -2.1141  -2.0473  -1.4383  -1.0876
    -0.9367  -0.8891  -0.8290  -0.8056  -0.5180  -0.2783  -0.2112   0.0805
     0.0998   0.3746   0.4436   0.4838   0.5845   0.6753   0.9845   1.0009
     1.0152   1.2343   1.2809   1.4156   1.7585   1.7619   1.7949   1.8404
     1.9744   1.9925   2.0892   2.1682   2.2455   2.7493   2.8604   3.4307
     3.6409   3.8202   3.8950   4.0228   4.1684   4.1741   4.4125   4.4201
     4.5604   4.6797   4.9886   5.2537   5.3056   5.4579   5.7392   5.9255
     5.9776   6.3423   6.4173   6.5520

          k = 0.0153 0.0077 0.0000 ( 34145 PWs)   bands (ev):

   -71.7542 -71.6954 -71.6051 -71.5474 -71.5339 -71.4760 -65.6729 -65.5994
   -65.5901 -65.5164 -65.4181 -65.3337 -36.2413 -36.1650 -36.0517 -35.9764
   -35.9328 -35.8567 -35.7476 -35.7408 -35.6569 -35.6474 -35.6171 -35.5508
   -35.5105 -35.3794 -35.3621 -35.2793 -35.1313 -35.0841 -32.3981 -32.3501
   -32.3004 -32.2666 -32.1675 -32.0835 -31.9557 -31.9278 -31.8605 -31.8149
   -31.7492 -31.7458 -31.6326 -31.4601 -31.3475 -31.2937 -31.2406 -31.1621
   -17.3544 -17.3490 -17.3448 -17.3438 -17.3413 -17.3184 -17.3179 -17.3161
   -17.3025 -17.2805 -17.2727 -17.2726 -17.2703 -17.2680 -17.2621 -17.2606
   -17.2589 -17.2404 -17.2401 -17.2389 -17.2252 -17.2232 -17.2142 -17.2043
   -17.2028 -17.1983 -17.1533 -17.1441 -17.0591 -17.0540 -17.0459 -17.0423
   -17.0342 -17.0305 -17.0234 -17.0206 -17.0146 -17.0113 -17.0099 -16.9974
   -16.9911 -16.9789  -5.1534  -3.3577  -2.4431  -2.0825  -2.0178  -1.9069
    -1.7813  -1.7687  -1.5558  -1.0709  -0.8744  -0.7957  -0.7550  -0.7151
    -0.6660   0.2332   0.5216   0.6764   0.7158   1.1811   1.2201   1.2918
     1.3978   1.8050   1.8782   2.0362   2.3735   2.4636   2.6881   2.8493
     2.9330   2.9838   3.0646   3.1312   3.5204   3.6898   3.7171   3.7312
     3.9216   3.9828   4.2057   4.3421   4.4297   4.5372   4.6793   4.7605
     5.0339   5.1753   5.2919   5.5970   5.6785   5.8471   6.0856   6.4902
     6.5913   6.7949   6.8273   6.8532

          k = 0.0153 0.0230 0.0000 ( 34129 PWs)   bands (ev):

   -71.7541 -71.6954 -71.6051 -71.5474 -71.5339 -71.4760 -65.6729 -65.5995
   -65.5901 -65.5164 -65.4181 -65.3337 -36.2406 -36.1638 -36.0513 -35.9760
   -35.9322 -35.8549 -35.7467 -35.7414 -35.6549 -35.6477 -35.6155 -35.5503
   -35.5101 -35.3794 -35.3620 -35.2793 -35.1312 -35.0841 -32.4002 -32.3512
   -32.3027 -32.2671 -32.1682 -32.0824 -31.9553 -31.9321 -31.8636 -31.8164
   -31.7511 -31.7468 -31.6330 -31.4602 -31.3475 -31.2938 -31.2407 -31.1621
   -17.3545 -17.3490 -17.3448 -17.3438 -17.3413 -17.3184 -17.3179 -17.3161
   -17.3025 -17.2805 -17.2728 -17.2727 -17.2703 -17.2680 -17.2622 -17.2606
   -17.2589 -17.2404 -17.2401 -17.2389 -17.2252 -17.2232 -17.2142 -17.2043
   -17.2030 -17.1984 -17.1533 -17.1441 -17.0592 -17.0541 -17.0459 -17.0423
   -17.0342 -17.0305 -17.0233 -17.0207 -17.0147 -17.0113 -17.0099 -16.9974
   -16.9911 -16.9789  -5.0484  -3.2561  -2.3330  -2.1374  -1.9597  -1.8290
    -1.7736  -1.6782  -1.4832  -1.0325  -0.7941  -0.7157  -0.6750  -0.6723
    -0.5494   0.2178   0.5181   0.6787   0.7765   1.0543   1.1532   1.2208
     1.3969   1.7489   1.8200   2.0192   2.2893   2.3105   2.5258   2.7061
     2.9206   2.9621   3.0084   3.0748   3.3271   3.4467   3.6900   3.7271
     3.9357   3.9602   4.1918   4.2570   4.2687   4.4843   4.5084   4.8131
     4.9875   5.2490   5.3027   5.5502   5.6449   5.6545   5.8891   6.3070
     6.4116   6.6013   6.6215   6.8219

          k = 0.0153 0.0383 0.0000 ( 34129 PWs)   bands (ev):

   -71.7541 -71.6954 -71.6050 -71.5474 -71.5339 -71.4760 -65.6730 -65.5995
   -65.5901 -65.5164 -65.4181 -65.3337 -36.2394 -36.1618 -36.0506 -35.9752
   -35.9313 -35.8517 -35.7452 -35.7424 -35.6514 -35.6481 -35.6127 -35.5493
   -35.5095 -35.3793 -35.3617 -35.2793 -35.1312 -35.0841 -32.4038 -32.3531
   -32.3066 -32.2680 -32.1693 -32.0805 -31.9548 -31.9395 -31.8691 -31.8189
   -31.7545 -31.7485 -31.6337 -31.4602 -31.3473 -31.2940 -31.2409 -31.1621
   -17.3545 -17.3491 -17.3449 -17.3438 -17.3413 -17.3185 -17.3179 -17.3161
   -17.3025 -17.2805 -17.2730 -17.2728 -17.2703 -17.2681 -17.2623 -17.2606
   -17.2589 -17.2404 -17.2401 -17.2389 -17.2252 -17.2232 -17.2143 -17.2043
   -17.2032 -17.1984 -17.1533 -17.1441 -17.0594 -17.0541 -17.0459 -17.0424
   -17.0342 -17.0306 -17.0234 -17.0207 -17.0147 -17.0114 -17.0100 -16.9974
   -16.9911 -16.9789  -4.8438  -3.0632  -2.2990  -2.0902  -1.8408  -1.7565
    -1.6999  -1.4977  -1.3490  -0.9602  -0.6430  -0.5894  -0.5761  -0.5066
    -0.3292   0.1932   0.5071   0.6895   0.8052   0.9092   1.0744   1.0779
     1.3099   1.6058   1.7996   1.8384   2.1749   2.1863   2.3421   2.4162
     2.7649   2.8659   2.8904   2.9266   3.0379   3.1441   3.6115   3.6948
     3.7941   3.8113   4.0443   4.0597   4.2250   4.3640   4.6610   4.7711
     4.8773   5.2215   5.2441   5.3448   5.4791   5.6269   5.7332   5.9494
     6.1825   6.2989   6.5569   6.7261

          k = 0.0153 0.0537 0.0000 ( 34124 PWs)   bands (ev):

   -71.7541 -71.6954 -71.6050 -71.5474 -71.5339 -71.4760 -65.6730 -65.5995
   -65.5901 -65.5164 -65.4181 -65.3337 -36.2380 -36.1595 -36.0498 -35.9743
   -35.9302 -35.8481 -35.7436 -35.7434 -35.6486 -35.6472 -35.6095 -35.5482
   -35.5088 -35.3792 -35.3613 -35.2793 -35.1312 -35.0840 -32.4079 -32.3554
   -32.3111 -32.2690 -32.1707 -32.0784 -31.9541 -31.9480 -31.8754 -31.8218
   -31.7584 -31.7505 -31.6346 -31.4603 -31.3472 -31.2943 -31.2411 -31.1621
   -17.3545 -17.3491 -17.3450 -17.3438 -17.3413 -17.3185 -17.3180 -17.3162
   -17.3025 -17.2805 -17.2732 -17.2728 -17.2704 -17.2682 -17.2625 -17.2607
   -17.2589 -17.2405 -17.2401 -17.2389 -17.2252 -17.2232 -17.2143 -17.2043
   -17.2034 -17.1985 -17.1533 -17.1442 -17.0595 -17.0542 -17.0460 -17.0425
   -17.0343 -17.0306 -17.0234 -17.0207 -17.0147 -17.0114 -17.0101 -16.9974
   -16.9911 -16.9789  -4.5509  -2.8161  -2.5144  -1.7895  -1.7412  -1.6802
    -1.5353  -1.2550  -1.1674  -0.8660  -0.4736  -0.4517  -0.4067  -0.2807
    -0.0434   0.2103   0.4969   0.5797   0.6998   0.8394   0.9228   1.0446
     1.2019   1.4605   1.5288   1.7340   1.9736   2.1053   2.1094   2.2259
     2.3526   2.6006   2.6591   2.7312   2.9013   3.0569   3.0799   3.4150
     3.7519   3.7724   3.8874   4.0463   4.2005   4.5005   4.5933   4.6514
     4.8521   4.9182   5.0034   5.2540   5.3081   5.6426   5.8248   5.8493
     5.9137   6.1556   6.4703   6.5526

          k = 0.0153 0.0690 0.0000 ( 34085 PWs)   bands (ev):

   -71.7541 -71.6954 -71.6050 -71.5474 -71.5339 -71.4760 -65.6730 -65.5995
   -65.5901 -65.5164 -65.4181 -65.3337 -36.2368 -36.1575 -36.0491 -35.9736
   -35.9292 -35.8449 -35.7448 -35.7418 -35.6490 -35.6436 -35.6068 -35.5472
   -35.5081 -35.3792 -35.3610 -35.2792 -35.1311 -35.0840 -32.4115 -32.3573
   -32.3150 -32.2699 -32.1719 -32.0765 -31.9554 -31.9536 -31.8809 -31.8242
   -31.7619 -31.7522 -31.6354 -31.4603 -31.3471 -31.2945 -31.2413 -31.1621
   -17.3545 -17.3491 -17.3451 -17.3438 -17.3413 -17.3185 -17.3180 -17.3162
   -17.3025 -17.2805 -17.2733 -17.2728 -17.2704 -17.2682 -17.2625 -17.2607
   -17.2589 -17.2405 -17.2401 -17.2390 -17.2252 -17.2232 -17.2143 -17.2043
   -17.2036 -17.1985 -17.1534 -17.1442 -17.0597 -17.0542 -17.0460 -17.0425
   -17.0343 -17.0306 -17.0234 -17.0208 -17.0147 -17.0114 -17.0102 -16.9974
   -16.9911 -16.9789  -4.1886  -2.9144  -2.4414  -1.7877  -1.5244  -1.4119
    -1.3503  -1.0403  -0.9222  -0.7770  -0.3546  -0.3443  -0.2585  -0.0719
     0.2313   0.3349   0.3763   0.5611   0.6120   0.6782   0.7542   1.0688
     1.1825   1.2347   1.3687   1.5480   1.8002   1.9227   1.9434   2.0141
     2.0202   2.3228   2.3961   2.4452   2.6219   2.8003   2.9980   3.2569
     3.5833   3.8469   3.9147   3.9803   4.2547   4.4036   4.4517   4.6043
     4.6138   4.7142   5.1534   5.1663   5.2247   5.4145   5.8750   5.9256
     5.9594   6.1075   6.3898   6.4402

          k = 0.0153 0.0844 0.0000 ( 34045 PWs)   bands (ev):

   -71.7541 -71.6954 -71.6050 -71.5474 -71.5339 -71.4760 -65.6730 -65.5995
   -65.5901 -65.5164 -65.4181 -65.3337 -36.2361 -36.1564 -36.0487 -35.9731
   -35.9287 -35.8430 -35.7454 -35.7408 -35.6493 -35.6415 -35.6052 -35.5466
   -35.5078 -35.3791 -35.3608 -35.2792 -35.1311 -35.0840 -32.4135 -32.3584
   -32.3172 -32.2705 -32.1725 -32.0755 -31.9596 -31.9532 -31.8840 -31.8257
   -31.7639 -31.7532 -31.6359 -31.4603 -31.3470 -31.2946 -31.2414 -31.1620
   -17.3545 -17.3491 -17.3451 -17.3438 -17.3414 -17.3184 -17.3180 -17.3162
   -17.3025 -17.2805 -17.2735 -17.2728 -17.2704 -17.2682 -17.2626 -17.2607
   -17.2590 -17.2405 -17.2401 -17.2390 -17.2252 -17.2233 -17.2142 -17.2043
   -17.2037 -17.1985 -17.1534 -17.1441 -17.0598 -17.0542 -17.0460 -17.0426
   -17.0343 -17.0306 -17.0233 -17.0209 -17.0147 -17.0114 -17.0102 -16.9974
   -16.9911 -16.9789  -3.7984  -3.2854  -2.1534  -1.9126  -1.4283  -1.2044
    -1.0792  -0.9159  -0.7477  -0.6711  -0.4410  -0.2562  -0.1793   0.0793
     0.1310   0.3709   0.4831   0.4945   0.5932   0.6502   0.9279   1.0215
     1.0338   1.2367   1.2741   1.4278   1.6754   1.7371   1.7446   1.7987
     1.9675   2.0504   2.1547   2.2250   2.4777   2.7234   2.8529   3.4560
     3.5027   3.8030   3.8829   4.0477   4.1327   4.2523   4.4199   4.4742
     4.5870   4.7084   5.0155   5.2237   5.3026   5.4185   5.7866   5.9036
     5.9639   6.3362   6.3638   6.3840

          k = 0.0153-0.0844 0.0000 ( 34045 PWs)   bands (ev):

   -71.7541 -71.6954 -71.6050 -71.5474 -71.5339 -71.4760 -65.6730 -65.5995
   -65.5901 -65.5164 -65.4181 -65.3337 -36.2361 -36.1564 -36.0487 -35.9731
   -35.9287 -35.8430 -35.7454 -35.7408 -35.6493 -35.6415 -35.6052 -35.5466
   -35.5078 -35.3791 -35.3608 -35.2792 -35.1311 -35.0840 -32.4135 -32.3584
   -32.3172 -32.2705 -32.1725 -32.0755 -31.9596 -31.9532 -31.8840 -31.8257
   -31.7639 -31.7532 -31.6359 -31.4603 -31.3470 -31.2946 -31.2414 -31.1620
   -17.3545 -17.3491 -17.3451 -17.3438 -17.3414 -17.3184 -17.3180 -17.3162
   -17.3025 -17.2805 -17.2735 -17.2728 -17.2704 -17.2682 -17.2626 -17.2607
   -17.2590 -17.2405 -17.2401 -17.2390 -17.2252 -17.2233 -17.2142 -17.2043
   -17.2037 -17.1985 -17.1534 -17.1441 -17.0598 -17.0542 -17.0460 -17.0426
   -17.0343 -17.0306 -17.0233 -17.0209 -17.0147 -17.0114 -17.0102 -16.9974
   -16.9911 -16.9789  -3.7984  -3.2854  -2.1534  -1.9126  -1.4283  -1.2044
    -1.0792  -0.9159  -0.7477  -0.6711  -0.4410  -0.2562  -0.1793   0.0793
     0.1310   0.3709   0.4831   0.4945   0.5932   0.6502   0.9279   1.0215
     1.0338   1.2367   1.2741   1.4278   1.6754   1.7371   1.7446   1.7987
     1.9675   2.0504   2.1547   2.2250   2.4777   2.7234   2.8529   3.4560
     3.5027   3.8030   3.8829   4.0477   4.1327   4.2523   4.4199   4.4742
     4.5870   4.7084   5.0155   5.2237   5.3026   5.4185   5.7866   5.9036
     5.9639   6.3362   6.3638   6.3840

          k = 0.0153-0.0690 0.0000 ( 34085 PWs)   bands (ev):

   -71.7541 -71.6954 -71.6050 -71.5474 -71.5339 -71.4760 -65.6730 -65.5995
   -65.5901 -65.5164 -65.4181 -65.3337 -36.2368 -36.1575 -36.0491 -35.9736
   -35.9292 -35.8449 -35.7448 -35.7418 -35.6490 -35.6436 -35.6068 -35.5472
   -35.5081 -35.3792 -35.3610 -35.2792 -35.1311 -35.0840 -32.4115 -32.3573
   -32.3150 -32.2699 -32.1719 -32.0765 -31.9554 -31.9536 -31.8809 -31.8242
   -31.7619 -31.7522 -31.6354 -31.4603 -31.3471 -31.2945 -31.2413 -31.1621
   -17.3545 -17.3491 -17.3451 -17.3438 -17.3413 -17.3185 -17.3180 -17.3162
   -17.3025 -17.2805 -17.2733 -17.2728 -17.2704 -17.2682 -17.2625 -17.2607
   -17.2589 -17.2405 -17.2401 -17.2390 -17.2252 -17.2232 -17.2143 -17.2043
   -17.2036 -17.1985 -17.1534 -17.1442 -17.0597 -17.0542 -17.0460 -17.0425
   -17.0343 -17.0306 -17.0234 -17.0208 -17.0147 -17.0114 -17.0102 -16.9974
   -16.9911 -16.9789  -4.1886  -2.9144  -2.4414  -1.7877  -1.5244  -1.4119
    -1.3503  -1.0403  -0.9222  -0.7770  -0.3546  -0.3443  -0.2585  -0.0719
     0.2313   0.3349   0.3763   0.5611   0.6120   0.6782   0.7542   1.0688
     1.1825   1.2347   1.3687   1.5480   1.8002   1.9227   1.9434   2.0141
     2.0202   2.3228   2.3961   2.4452   2.6219   2.8003   2.9980   3.2569
     3.5833   3.8469   3.9147   3.9803   4.2547   4.4036   4.4517   4.6043
     4.6138   4.7143   5.1534   5.1663   5.2247   5.4145   5.8750   5.9256
     5.9594   6.1075   6.3897   6.4402

          k = 0.0153-0.0537 0.0000 ( 34124 PWs)   bands (ev):

   -71.7541 -71.6954 -71.6050 -71.5474 -71.5339 -71.4760 -65.6730 -65.5995
   -65.5901 -65.5164 -65.4181 -65.3337 -36.2380 -36.1595 -36.0498 -35.9743
   -35.9302 -35.8481 -35.7436 -35.7434 -35.6486 -35.6472 -35.6095 -35.5482
   -35.5088 -35.3792 -35.3613 -35.2793 -35.1312 -35.0840 -32.4079 -32.3554
   -32.3111 -32.2690 -32.1707 -32.0784 -31.9541 -31.9480 -31.8754 -31.8218
   -31.7584 -31.7505 -31.6346 -31.4603 -31.3472 -31.2943 -31.2411 -31.1621
   -17.3545 -17.3491 -17.3450 -17.3438 -17.3413 -17.3185 -17.3180 -17.3162
   -17.3025 -17.2805 -17.2732 -17.2728 -17.2704 -17.2682 -17.2625 -17.2607
   -17.2589 -17.2405 -17.2401 -17.2389 -17.2252 -17.2232 -17.2143 -17.2043
   -17.2034 -17.1985 -17.1533 -17.1442 -17.0595 -17.0542 -17.0460 -17.0425
   -17.0343 -17.0306 -17.0234 -17.0207 -17.0147 -17.0114 -17.0101 -16.9974
   -16.9911 -16.9789  -4.5509  -2.8161  -2.5144  -1.7895  -1.7412  -1.6802
    -1.5353  -1.2550  -1.1674  -0.8660  -0.4736  -0.4517  -0.4067  -0.2807
    -0.0434   0.2103   0.4969   0.5797   0.6998   0.8394   0.9228   1.0446
     1.2019   1.4605   1.5288   1.7340   1.9736   2.1053   2.1094   2.2259
     2.3526   2.6006   2.6591   2.7312   2.9013   3.0569   3.0799   3.4150
     3.7519   3.7724   3.8874   4.0463   4.2005   4.5005   4.5933   4.6514
     4.8521   4.9182   5.0034   5.2540   5.3081   5.6426   5.8248   5.8493
     5.9137   6.1556   6.4704   6.5526

          k = 0.0153-0.0383 0.0000 ( 34129 PWs)   bands (ev):

   -71.7541 -71.6954 -71.6050 -71.5474 -71.5339 -71.4760 -65.6730 -65.5995
   -65.5901 -65.5164 -65.4181 -65.3337 -36.2394 -36.1618 -36.0506 -35.9752
   -35.9313 -35.8517 -35.7452 -35.7424 -35.6514 -35.6481 -35.6127 -35.5493
   -35.5095 -35.3793 -35.3617 -35.2793 -35.1312 -35.0841 -32.4038 -32.3531
   -32.3066 -32.2680 -32.1693 -32.0805 -31.9548 -31.9395 -31.8691 -31.8189
   -31.7545 -31.7485 -31.6337 -31.4602 -31.3473 -31.2940 -31.2409 -31.1621
   -17.3545 -17.3491 -17.3449 -17.3438 -17.3413 -17.3185 -17.3179 -17.3161
   -17.3025 -17.2805 -17.2730 -17.2728 -17.2703 -17.2681 -17.2623 -17.2606
   -17.2589 -17.2404 -17.2401 -17.2389 -17.2252 -17.2232 -17.2143 -17.2043
   -17.2032 -17.1984 -17.1533 -17.1441 -17.0594 -17.0541 -17.0459 -17.0424
   -17.0342 -17.0306 -17.0234 -17.0207 -17.0147 -17.0114 -17.0100 -16.9974
   -16.9911 -16.9789  -4.8438  -3.0632  -2.2990  -2.0902  -1.8408  -1.7565
    -1.6999  -1.4977  -1.3490  -0.9602  -0.6430  -0.5894  -0.5761  -0.5066
    -0.3292   0.1932   0.5071   0.6895   0.8052   0.9092   1.0744   1.0779
     1.3099   1.6058   1.7996   1.8384   2.1749   2.1863   2.3421   2.4162
     2.7649   2.8659   2.8904   2.9266   3.0379   3.1441   3.6115   3.6948
     3.7941   3.8113   4.0443   4.0597   4.2250   4.3640   4.6610   4.7711
     4.8773   5.2215   5.2441   5.3448   5.4791   5.6269   5.7332   5.9494
     6.1824   6.2991   6.5571   6.7261

          k = 0.0153-0.0230 0.0000 ( 34129 PWs)   bands (ev):

   -71.7541 -71.6954 -71.6051 -71.5474 -71.5339 -71.4760 -65.6729 -65.5995
   -65.5901 -65.5164 -65.4181 -65.3337 -36.2406 -36.1638 -36.0513 -35.9760
   -35.9322 -35.8549 -35.7467 -35.7414 -35.6549 -35.6477 -35.6155 -35.5503
   -35.5101 -35.3794 -35.3620 -35.2793 -35.1312 -35.0841 -32.4002 -32.3512
   -32.3027 -32.2671 -32.1682 -32.0824 -31.9553 -31.9321 -31.8636 -31.8164
   -31.7511 -31.7468 -31.6330 -31.4602 -31.3475 -31.2938 -31.2407 -31.1621
   -17.3545 -17.3490 -17.3448 -17.3438 -17.3413 -17.3184 -17.3179 -17.3161
   -17.3025 -17.2805 -17.2728 -17.2727 -17.2703 -17.2680 -17.2622 -17.2606
   -17.2589 -17.2404 -17.2401 -17.2389 -17.2252 -17.2232 -17.2142 -17.2043
   -17.2030 -17.1984 -17.1533 -17.1441 -17.0592 -17.0541 -17.0459 -17.0423
   -17.0342 -17.0305 -17.0233 -17.0207 -17.0147 -17.0113 -17.0099 -16.9974
   -16.9911 -16.9789  -5.0484  -3.2561  -2.3330  -2.1374  -1.9597  -1.8290
    -1.7736  -1.6782  -1.4832  -1.0325  -0.7941  -0.7157  -0.6750  -0.6723
    -0.5494   0.2178   0.5181   0.6787   0.7765   1.0543   1.1532   1.2208
     1.3969   1.7489   1.8200   2.0192   2.2893   2.3105   2.5258   2.7061
     2.9206   2.9621   3.0084   3.0748   3.3271   3.4467   3.6900   3.7271
     3.9357   3.9602   4.1918   4.2570   4.2687   4.4843   4.5084   4.8131
     4.9875   5.2490   5.3027   5.5502   5.6449   5.6545   5.8891   6.3070
     6.4116   6.6013   6.6214   6.8218

          k = 0.0153-0.0077 0.0000 ( 34145 PWs)   bands (ev):

   -71.7542 -71.6954 -71.6051 -71.5474 -71.5339 -71.4760 -65.6729 -65.5994
   -65.5901 -65.5164 -65.4181 -65.3337 -36.2413 -36.1650 -36.0517 -35.9764
   -35.9328 -35.8567 -35.7476 -35.7408 -35.6569 -35.6474 -35.6171 -35.5508
   -35.5105 -35.3794 -35.3621 -35.2793 -35.1313 -35.0841 -32.3981 -32.3501
   -32.3004 -32.2666 -32.1675 -32.0835 -31.9557 -31.9278 -31.8605 -31.8149
   -31.7492 -31.7458 -31.6326 -31.4601 -31.3475 -31.2937 -31.2406 -31.1621
   -17.3544 -17.3490 -17.3448 -17.3438 -17.3413 -17.3184 -17.3179 -17.3161
   -17.3025 -17.2805 -17.2727 -17.2726 -17.2703 -17.2680 -17.2621 -17.2606
   -17.2589 -17.2404 -17.2401 -17.2389 -17.2252 -17.2232 -17.2142 -17.2043
   -17.2028 -17.1983 -17.1533 -17.1441 -17.0591 -17.0540 -17.0459 -17.0423
   -17.0342 -17.0305 -17.0234 -17.0206 -17.0146 -17.0113 -17.0099 -16.9974
   -16.9911 -16.9789  -5.1534  -3.3577  -2.4431  -2.0825  -2.0178  -1.9069
    -1.7813  -1.7687  -1.5558  -1.0709  -0.8744  -0.7957  -0.7550  -0.7151
    -0.6660   0.2332   0.5216   0.6764   0.7158   1.1811   1.2201   1.2918
     1.3978   1.8050   1.8782   2.0362   2.3735   2.4636   2.6881   2.8493
     2.9330   2.9838   3.0646   3.1312   3.5204   3.6898   3.7171   3.7312
     3.9216   3.9828   4.2057   4.3421   4.4297   4.5372   4.6793   4.7605
     5.0339   5.1753   5.2919   5.5970   5.6785   5.8471   6.0857   6.4902
     6.5914   6.7949   6.8263   6.8532

          k = 0.0306 0.0153 0.0000 ( 34147 PWs)   bands (ev):

   -71.7511 -71.6985 -71.6021 -71.5504 -71.5310 -71.4790 -65.6687 -65.5952
   -65.5944 -65.5207 -65.4137 -65.3381 -36.1987 -36.1586 -36.0571 -35.9347
   -35.8909 -35.8501 -35.7522 -35.7363 -35.6526 -35.6506 -35.6109 -35.5553
   -35.5153 -35.4260 -35.3579 -35.2835 -35.1770 -35.1301 -32.3455 -32.2969
   -32.2947 -32.2134 -32.1754 -32.0764 -31.9618 -31.9241 -31.8561 -31.8228
   -31.7532 -31.7440 -31.6395 -31.4545 -31.3553 -31.3534 -31.3024 -31.2235
   -17.3535 -17.3472 -17.3446 -17.3441 -17.3415 -17.3198 -17.3165 -17.3154
   -17.3032 -17.2828 -17.2716 -17.2705 -17.2685 -17.2659 -17.2620 -17.2609
   -17.2590 -17.2414 -17.2392 -17.2382 -17.2259 -17.2256 -17.2182 -17.2066
   -17.2008 -17.1962 -17.1558 -17.1481 -17.0563 -17.0519 -17.0438 -17.0415
   -17.0332 -17.0314 -17.0242 -17.0215 -17.0152 -17.0111 -17.0096 -16.9993
   -16.9931 -16.9833  -4.9509  -3.1546  -2.2373  -2.0006  -1.9281  -1.8516
    -1.6731  -1.6214  -1.4427  -0.8387  -0.8361  -0.7462  -0.6035  -0.5929
    -0.4825   0.2990   0.5785   0.7024   0.8676   1.1456   1.2056   1.4134
     1.4868   1.7853   1.9699   1.9996   2.3099   2.3115   2.6635   2.6774
     2.6935   2.8588   2.9996   3.0810   3.1689   3.4686   3.6000   3.6575
     3.8508   3.8536   3.9560   4.1755   4.2702   4.2859   4.4603   4.6069
     4.7031   5.1841   5.3419   5.5988   5.6215   5.7633   5.9850   6.3086
     6.3513   6.4706   6.6675   6.8222

          k = 0.0306 0.0307 0.0000 ( 34113 PWs)   bands (ev):

   -71.7511 -71.6985 -71.6021 -71.5504 -71.5309 -71.4790 -65.6687 -65.5952
   -65.5944 -65.5207 -65.4138 -65.3381 -36.1978 -36.1571 -36.0566 -35.9341
   -35.8901 -35.8477 -35.7511 -35.7371 -35.6528 -35.6479 -35.6088 -35.5547
   -35.5149 -35.4260 -35.3576 -35.2835 -35.1771 -35.1301 -32.3482 -32.2984
   -32.2977 -32.2141 -32.1761 -32.0750 -31.9614 -31.9297 -31.8602 -31.8244
   -31.7543 -31.7466 -31.6399 -31.4546 -31.3553 -31.3533 -31.3025 -31.2234
   -17.3535 -17.3472 -17.3446 -17.3441 -17.3414 -17.3198 -17.3165 -17.3154
   -17.3032 -17.2828 -17.2716 -17.2707 -17.2685 -17.2659 -17.2620 -17.2609
   -17.2590 -17.2414 -17.2392 -17.2382 -17.2259 -17.2257 -17.2182 -17.2066
   -17.2009 -17.1962 -17.1558 -17.1481 -17.0565 -17.0519 -17.0438 -17.0415
   -17.0332 -17.0314 -17.0242 -17.0216 -17.0152 -17.0112 -17.0097 -16.9993
   -16.9931 -16.9833  -4.7974  -3.0071  -2.0895  -2.0099  -1.9738  -1.7402
    -1.6039  -1.5158  -1.3330  -0.7876  -0.7271  -0.6258  -0.5285  -0.4995
    -0.3061   0.2785   0.5664   0.7410   0.8913   1.0250   1.0951   1.2836
     1.3927   1.7143   1.9330   1.9403   2.0998   2.2068   2.4316   2.4619
     2.6570   2.8773   2.8878   2.9078   2.9524   3.2255   3.6481   3.6854
     3.7166   3.8198   3.9335   4.0707   4.1519   4.3226   4.4115   4.6475
     4.6748   5.1639   5.2321   5.3987   5.5596   5.6901   5.7671   5.9647
     6.2553   6.3923   6.4607   6.6813

          k = 0.0306 0.0460 0.0000 ( 34139 PWs)   bands (ev):

   -71.7511 -71.6985 -71.6021 -71.5504 -71.5309 -71.4790 -65.6687 -65.5952
   -65.5944 -65.5207 -65.4138 -65.3381 -36.1965 -36.1550 -36.0560 -35.9332
   -35.8891 -35.8444 -35.7497 -35.7382 -35.6532 -35.6441 -35.6059 -35.5539
   -35.5144 -35.4260 -35.3573 -35.2835 -35.1771 -35.1302 -32.3520 -32.3017
   -32.3004 -32.2150 -32.1772 -32.0731 -31.9609 -31.9374 -31.8659 -31.8267
   -31.7559 -31.7502 -31.6406 -31.4546 -31.3554 -31.3532 -31.3026 -31.2234
   -17.3535 -17.3473 -17.3447 -17.3441 -17.3415 -17.3198 -17.3165 -17.3155
   -17.3032 -17.2828 -17.2716 -17.2709 -17.2685 -17.2659 -17.2622 -17.2610
   -17.2591 -17.2414 -17.2392 -17.2382 -17.2259 -17.2257 -17.2183 -17.2066
   -17.2011 -17.1963 -17.1558 -17.1482 -17.0566 -17.0520 -17.0438 -17.0416
   -17.0333 -17.0314 -17.0242 -17.0216 -17.0153 -17.0112 -17.0098 -16.9993
   -16.9931 -16.9834  -4.5501  -2.7799  -2.2307  -1.8859  -1.7933  -1.6179
    -1.5823  -1.2826  -1.1606  -0.7068  -0.5453  -0.4584  -0.4261  -0.3187
    -0.0640   0.2638   0.5436   0.7425   0.7927   0.9465   0.9943   1.1101
     1.2709   1.5561   1.6693   1.8680   2.0432   2.0867   2.1262   2.2696
     2.4117   2.5969   2.6602   2.8001   2.9300   2.9862   3.1249   3.6030
     3.6905   3.8030   3.9148   4.1080   4.1736   4.2471   4.5236   4.6295
     4.6312   4.9234   5.0593   5.3047   5.3896   5.6725   5.7132   5.8282
     6.0475   6.1727   6.3987   6.5766

          k = 0.0306 0.0614 0.0000 ( 34053 PWs)   bands (ev):

   -71.7511 -71.6985 -71.6021 -71.5504 -71.5309 -71.4790 -65.6687 -65.5952
   -65.5944 -65.5207 -65.4138 -65.3381 -36.1952 -36.1529 -36.0554 -35.9324
   -35.8881 -35.8411 -35.7482 -35.7393 -35.6536 -35.6403 -35.6030 -35.5531
   -35.5139 -35.4261 -35.3570 -35.2835 -35.1771 -35.1302 -32.3556 -32.3057
   -32.3025 -32.2160 -32.1782 -32.0711 -31.9604 -31.9449 -31.8716 -31.8289
   -31.7573 -31.7538 -31.6412 -31.4546 -31.3555 -31.3530 -31.3026 -31.2233
   -17.3536 -17.3473 -17.3448 -17.3441 -17.3415 -17.3198 -17.3165 -17.3155
   -17.3032 -17.2828 -17.2717 -17.2710 -17.2685 -17.2660 -17.2622 -17.2610
   -17.2591 -17.2414 -17.2392 -17.2382 -17.2259 -17.2257 -17.2183 -17.2066
   -17.2013 -17.1963 -17.1558 -17.1482 -17.0568 -17.0520 -17.0438 -17.0416
   -17.0333 -17.0314 -17.0242 -17.0216 -17.0152 -17.0112 -17.0098 -16.9992
   -16.9931 -16.9834  -4.2229  -2.6168  -2.3985  -1.7596  -1.5890  -1.4894
    -1.4427  -1.0591  -0.9116  -0.6099  -0.3454  -0.2967  -0.2880  -0.0898
     0.1431   0.3304   0.5046   0.5570   0.7153   0.8371   0.8566   1.0685
     1.1603   1.3838   1.4370   1.6220   1.8725   1.9526   1.9722   2.0462
     2.0684   2.3607   2.4854   2.5221   2.6773   2.8295   3.0375   3.2762
     3.6998   3.7513   3.9149   4.0157   4.2090   4.3490   4.4466   4.5131
     4.7092   4.7918   5.0386   5.1333   5.2273   5.6309   5.8149   5.8480
     5.8780   6.0625   6.3041   6.5052

          k = 0.0306 0.0767 0.0000 ( 34078 PWs)   bands (ev):

   -71.7511 -71.6985 -71.6021 -71.5504 -71.5309 -71.4790 -65.6688 -65.5953
   -65.5944 -65.5207 -65.4138 -65.3381 -36.1942 -36.1514 -36.0549 -35.9318
   -35.8873 -35.8387 -35.7471 -35.7402 -35.6539 -35.6375 -35.6009 -35.5525
   -35.5136 -35.4261 -35.3568 -35.2835 -35.1771 -35.1303 -32.3583 -32.3087
   -32.3040 -32.2167 -32.1790 -32.0697 -31.9601 -31.9505 -31.8757 -31.8305
   -31.7585 -31.7564 -31.6416 -31.4546 -31.3556 -31.3529 -31.3027 -31.2232
   -17.3536 -17.3473 -17.3449 -17.3441 -17.3415 -17.3198 -17.3166 -17.3155
   -17.3032 -17.2828 -17.2717 -17.2712 -17.2685 -17.2660 -17.2623 -17.2610
   -17.2591 -17.2414 -17.2392 -17.2383 -17.2259 -17.2257 -17.2183 -17.2066
   -17.2015 -17.1964 -17.1558 -17.1482 -17.0570 -17.0521 -17.0438 -17.0416
   -17.0333 -17.0314 -17.0242 -17.0217 -17.0153 -17.0113 -17.0099 -16.9992
   -16.9931 -16.9834  -3.8400  -2.9430  -2.1326  -1.6659  -1.6394  -1.3852
    -1.0544  -0.8908  -0.6348  -0.5364  -0.3086  -0.1763  -0.1252   0.0702
     0.2296   0.3327   0.4829   0.5609   0.5802   0.6853   0.8799   1.0324
     1.1552   1.1731   1.3070   1.4411   1.6207   1.6854   1.7966   1.8586
     1.9726   1.9912   2.2856   2.4063   2.6113   2.7470   2.9191   3.2390
     3.5277   3.7378   3.9038   4.0059   4.1195   4.3468   4.3607   4.5753
     4.6525   4.7592   4.9669   5.1781   5.3385   5.4245   5.8330   5.8590
     5.9146   6.1209   6.2452   6.4566

          k = 0.0306 0.0920 0.0000 ( 34062 PWs)   bands (ev):

   -71.7511 -71.6985 -71.6021 -71.5504 -71.5309 -71.4790 -65.6688 -65.5953
   -65.5944 -65.5207 -65.4138 -65.3381 -36.1939 -36.1509 -36.0548 -35.9316
   -35.8870 -35.8378 -35.7468 -35.7405 -35.6540 -35.6365 -35.6001 -35.5523
   -35.5134 -35.4261 -35.3567 -35.2835 -35.1772 -35.1303 -32.3593 -32.3098
   -32.3045 -32.2169 -32.1793 -32.0692 -31.9599 -31.9525 -31.8772 -31.8312
   -31.7589 -31.7574 -31.6418 -31.4546 -31.3556 -31.3528 -31.3027 -31.2232
   -17.3536 -17.3473 -17.3449 -17.3441 -17.3415 -17.3198 -17.3166 -17.3155
   -17.3032 -17.2828 -17.2717 -17.2712 -17.2685 -17.2660 -17.2624 -17.2610
   -17.2591 -17.2414 -17.2392 -17.2383 -17.2259 -17.2257 -17.2183 -17.2066
   -17.2015 -17.1964 -17.1559 -17.1482 -17.0570 -17.0521 -17.0438 -17.0416
   -17.0333 -17.0314 -17.0242 -17.0218 -17.0153 -17.0113 -17.0099 -16.9992
   -16.9931 -16.9834  -3.5282  -3.2516  -1.8861  -1.8218  -1.5875  -1.3444
    -0.8190  -0.7998  -0.5504  -0.4595  -0.3817  -0.1562  -0.0603   0.1128
     0.1134   0.3969   0.4651   0.5015   0.6213   0.8137   0.8914   0.9950
     1.0648   1.2123   1.2296   1.3960   1.4437   1.4992   1.6132   1.8036
     1.9436   2.0832   2.1039   2.3567   2.6134   2.6947   2.8034   3.4362
     3.4512   3.5566   3.8780   4.0742   4.1127   4.3124   4.3453   4.5273
     4.5811   4.8810   4.9164   5.1918   5.3365   5.4870   5.7932   5.8480
     5.9467   6.1403   6.2683   6.4392

          k = 0.0306-0.0767 0.0000 ( 34078 PWs)   bands (ev):

   -71.7511 -71.6985 -71.6021 -71.5504 -71.5309 -71.4790 -65.6688 -65.5953
   -65.5944 -65.5207 -65.4138 -65.3381 -36.1942 -36.1514 -36.0549 -35.9318
   -35.8873 -35.8387 -35.7472 -35.7402 -35.6539 -35.6375 -35.6009 -35.5525
   -35.5136 -35.4261 -35.3568 -35.2835 -35.1771 -35.1303 -32.3583 -32.3087
   -32.3040 -32.2167 -32.1790 -32.0697 -31.9601 -31.9505 -31.8757 -31.8305
   -31.7585 -31.7564 -31.6416 -31.4546 -31.3556 -31.3529 -31.3027 -31.2232
   -17.3536 -17.3473 -17.3449 -17.3441 -17.3415 -17.3198 -17.3166 -17.3155
   -17.3032 -17.2828 -17.2717 -17.2712 -17.2685 -17.2660 -17.2623 -17.2610
   -17.2591 -17.2414 -17.2392 -17.2383 -17.2259 -17.2257 -17.2183 -17.2066
   -17.2015 -17.1964 -17.1558 -17.1482 -17.0570 -17.0521 -17.0438 -17.0416
   -17.0333 -17.0314 -17.0242 -17.0217 -17.0153 -17.0113 -17.0099 -16.9992
   -16.9931 -16.9834  -3.8400  -2.9430  -2.1326  -1.6659  -1.6394  -1.3852
    -1.0544  -0.8908  -0.6348  -0.5364  -0.3086  -0.1763  -0.1252   0.0702
     0.2296   0.3327   0.4829   0.5609   0.5802   0.6853   0.8799   1.0324
     1.1552   1.1731   1.3070   1.4411   1.6207   1.6854   1.7966   1.8586
     1.9726   1.9912   2.2856   2.4063   2.6113   2.7470   2.9191   3.2390
     3.5277   3.7378   3.9038   4.0059   4.1195   4.3468   4.3607   4.5753
     4.6525   4.7592   4.9669   5.1781   5.3385   5.4245   5.8330   5.8590
     5.9146   6.1209   6.2453   6.4566

          k = 0.0306-0.0614 0.0000 ( 34053 PWs)   bands (ev):

   -71.7511 -71.6985 -71.6021 -71.5504 -71.5309 -71.4790 -65.6687 -65.5952
   -65.5944 -65.5207 -65.4138 -65.3381 -36.1952 -36.1529 -36.0554 -35.9324
   -35.8881 -35.8411 -35.7482 -35.7393 -35.6536 -35.6403 -35.6030 -35.5531
   -35.5139 -35.4261 -35.3570 -35.2835 -35.1771 -35.1302 -32.3556 -32.3057
   -32.3025 -32.2160 -32.1782 -32.0711 -31.9604 -31.9449 -31.8716 -31.8289
   -31.7573 -31.7538 -31.6412 -31.4546 -31.3555 -31.3530 -31.3026 -31.2233
   -17.3536 -17.3473 -17.3448 -17.3441 -17.3415 -17.3198 -17.3165 -17.3155
   -17.3032 -17.2828 -17.2717 -17.2710 -17.2685 -17.2660 -17.2622 -17.2610
   -17.2591 -17.2414 -17.2392 -17.2382 -17.2259 -17.2257 -17.2183 -17.2066
   -17.2013 -17.1963 -17.1558 -17.1482 -17.0568 -17.0520 -17.0438 -17.0416
   -17.0333 -17.0314 -17.0242 -17.0216 -17.0152 -17.0112 -17.0098 -16.9992
   -16.9931 -16.9834  -4.2229  -2.6168  -2.3985  -1.7596  -1.5890  -1.4894
    -1.4427  -1.0591  -0.9116  -0.6099  -0.3454  -0.2967  -0.2880  -0.0898
     0.1431   0.3304   0.5046   0.5570   0.7153   0.8371   0.8566   1.0685
     1.1603   1.3838   1.4370   1.6220   1.8725   1.9526   1.9722   2.0462
     2.0684   2.3607   2.4854   2.5221   2.6773   2.8295   3.0375   3.2762
     3.6998   3.7513   3.9149   4.0157   4.2090   4.3490   4.4466   4.5130
     4.7092   4.7918   5.0386   5.1333   5.2273   5.6310   5.8149   5.8480
     5.8779   6.0625   6.3041   6.5053

          k = 0.0306-0.0460 0.0000 ( 34139 PWs)   bands (ev):

   -71.7511 -71.6985 -71.6021 -71.5504 -71.5309 -71.4790 -65.6687 -65.5952
   -65.5944 -65.5207 -65.4138 -65.3381 -36.1965 -36.1550 -36.0560 -35.9332
   -35.8891 -35.8444 -35.7497 -35.7382 -35.6532 -35.6441 -35.6059 -35.5539
   -35.5144 -35.4260 -35.3573 -35.2835 -35.1771 -35.1302 -32.3520 -32.3017
   -32.3004 -32.2150 -32.1772 -32.0731 -31.9609 -31.9374 -31.8659 -31.8267
   -31.7559 -31.7502 -31.6406 -31.4546 -31.3554 -31.3532 -31.3026 -31.2234
   -17.3535 -17.3473 -17.3447 -17.3441 -17.3415 -17.3198 -17.3165 -17.3155
   -17.3032 -17.2828 -17.2716 -17.2709 -17.2685 -17.2659 -17.2622 -17.2610
   -17.2591 -17.2414 -17.2392 -17.2382 -17.2259 -17.2257 -17.2183 -17.2066
   -17.2011 -17.1963 -17.1558 -17.1482 -17.0566 -17.0520 -17.0438 -17.0416
   -17.0333 -17.0314 -17.0242 -17.0216 -17.0153 -17.0112 -17.0098 -16.9993
   -16.9931 -16.9834  -4.5501  -2.7799  -2.2307  -1.8859  -1.7933  -1.6179
    -1.5823  -1.2826  -1.1606  -0.7068  -0.5453  -0.4584  -0.4261  -0.3187
    -0.0640   0.2638   0.5436   0.7425   0.7927   0.9465   0.9943   1.1101
     1.2709   1.5561   1.6693   1.8680   2.0432   2.0867   2.1262   2.2696
     2.4117   2.5969   2.6602   2.8001   2.9300   2.9862   3.1249   3.6030
     3.6905   3.8030   3.9148   4.1080   4.1736   4.2471   4.5236   4.6295
     4.6312   4.9234   5.0593   5.3047   5.3896   5.6725   5.7132   5.8282
     6.0475   6.1728   6.3987   6.5767

          k = 0.0306-0.0307 0.0000 ( 34113 PWs)   bands (ev):

   -71.7511 -71.6985 -71.6021 -71.5504 -71.5309 -71.4790 -65.6687 -65.5952
   -65.5944 -65.5207 -65.4138 -65.3381 -36.1978 -36.1571 -36.0566 -35.9341
   -35.8901 -35.8477 -35.7511 -35.7371 -35.6528 -35.6479 -35.6088 -35.5547
   -35.5149 -35.4260 -35.3576 -35.2835 -35.1771 -35.1301 -32.3482 -32.2984
   -32.2977 -32.2141 -32.1761 -32.0750 -31.9614 -31.9297 -31.8602 -31.8244
   -31.7543 -31.7466 -31.6399 -31.4546 -31.3553 -31.3533 -31.3025 -31.2234
   -17.3535 -17.3472 -17.3446 -17.3441 -17.3414 -17.3198 -17.3165 -17.3154
   -17.3032 -17.2828 -17.2716 -17.2707 -17.2685 -17.2659 -17.2620 -17.2609
   -17.2590 -17.2414 -17.2392 -17.2382 -17.2259 -17.2257 -17.2182 -17.2066
   -17.2009 -17.1962 -17.1558 -17.1481 -17.0565 -17.0519 -17.0438 -17.0415
   -17.0332 -17.0314 -17.0242 -17.0216 -17.0152 -17.0112 -17.0097 -16.9993
   -16.9931 -16.9833  -4.7974  -3.0071  -2.0895  -2.0099  -1.9738  -1.7402
    -1.6039  -1.5158  -1.3330  -0.7876  -0.7271  -0.6258  -0.5285  -0.4995
    -0.3061   0.2785   0.5664   0.7410   0.8913   1.0250   1.0951   1.2836
     1.3927   1.7143   1.9330   1.9403   2.0998   2.2068   2.4316   2.4619
     2.6570   2.8773   2.8878   2.9078   2.9524   3.2255   3.6481   3.6854
     3.7166   3.8198   3.9335   4.0707   4.1519   4.3226   4.4115   4.6475
     4.6748   5.1639   5.2321   5.3987   5.5597   5.6901   5.7671   5.9647
     6.2553   6.3923   6.4607   6.6815

          k = 0.0306-0.0153 0.0000 ( 34147 PWs)   bands (ev):

   -71.7511 -71.6985 -71.6021 -71.5504 -71.5310 -71.4790 -65.6687 -65.5952
   -65.5944 -65.5207 -65.4137 -65.3381 -36.1987 -36.1586 -36.0571 -35.9347
   -35.8909 -35.8501 -35.7522 -35.7363 -35.6526 -35.6506 -35.6109 -35.5553
   -35.5153 -35.4260 -35.3579 -35.2835 -35.1770 -35.1301 -32.3455 -32.2969
   -32.2947 -32.2134 -32.1754 -32.0764 -31.9618 -31.9241 -31.8561 -31.8228
   -31.7532 -31.7440 -31.6395 -31.4545 -31.3553 -31.3534 -31.3024 -31.2235
   -17.3535 -17.3472 -17.3446 -17.3441 -17.3415 -17.3198 -17.3165 -17.3154
   -17.3032 -17.2828 -17.2716 -17.2705 -17.2685 -17.2659 -17.2620 -17.2609
   -17.2590 -17.2414 -17.2392 -17.2382 -17.2259 -17.2256 -17.2182 -17.2066
   -17.2008 -17.1962 -17.1558 -17.1481 -17.0563 -17.0519 -17.0438 -17.0415
   -17.0332 -17.0314 -17.0242 -17.0215 -17.0152 -17.0111 -17.0096 -16.9993
   -16.9931 -16.9833  -4.9509  -3.1546  -2.2373  -2.0006  -1.9281  -1.8516
    -1.6731  -1.6214  -1.4427  -0.8387  -0.8361  -0.7462  -0.6035  -0.5929
    -0.4825   0.2990   0.5785   0.7024   0.8676   1.1456   1.2056   1.4134
     1.4868   1.7853   1.9699   1.9996   2.3099   2.3115   2.6635   2.6774
     2.6935   2.8588   2.9996   3.0810   3.1689   3.4686   3.6000   3.6575
     3.8508   3.8536   3.9560   4.1755   4.2702   4.2859   4.4603   4.6069
     4.7031   5.1841   5.3419   5.5988   5.6215   5.7633   5.9851   6.3086
     6.3513   6.4706   6.6675   6.8222

          k = 0.0306-0.0000 0.0000 ( 34137 PWs)   bands (ev):

   -71.7511 -71.6985 -71.6021 -71.5504 -71.5310 -71.4790 -65.6687 -65.5952
   -65.5944 -65.5207 -65.4137 -65.3381 -36.1991 -36.1592 -36.0572 -35.9349
   -35.8912 -35.8509 -35.7525 -35.7360 -35.6525 -35.6516 -35.6117 -35.5555
   -35.5154 -35.4260 -35.3579 -35.2835 -35.1770 -35.1301 -32.3444 -32.2964
   -32.2936 -32.2132 -32.1751 -32.0770 -31.9619 -31.9220 -31.8546 -31.8222
   -31.7528 -31.7431 -31.6394 -31.4545 -31.3553 -31.3534 -31.3024 -31.2235
   -17.3535 -17.3472 -17.3445 -17.3441 -17.3415 -17.3198 -17.3165 -17.3154
   -17.3032 -17.2828 -17.2716 -17.2705 -17.2685 -17.2658 -17.2619 -17.2609
   -17.2590 -17.2414 -17.2391 -17.2382 -17.2259 -17.2257 -17.2182 -17.2066
   -17.2007 -17.1962 -17.1558 -17.1481 -17.0563 -17.0519 -17.0438 -17.0414
   -17.0332 -17.0313 -17.0241 -17.0215 -17.0153 -17.0111 -17.0095 -16.9993
   -16.9931 -16.9833  -5.0028  -3.2052  -2.2932  -1.9777  -1.9275  -1.9000
    -1.7221  -1.6265  -1.4814  -0.8693  -0.8559  -0.7916  -0.6351  -0.6148
    -0.5473   0.3063   0.5815   0.6872   0.8544   1.1600   1.3022   1.4405
     1.5161   1.7879   1.9565   2.0583   2.3434   2.4546   2.6774   2.7518
     2.7792   2.7995   3.0553   3.1390   3.2393   3.5461   3.6396   3.6477
     3.7518   3.8608   3.9258   4.2473   4.3448   4.3775   4.4920   4.5540
     4.7192   5.1549   5.3796   5.6210   5.7127   5.8049   6.0609   6.3292
     6.4661   6.6771   6.8039   6.8103

          k = 0.0459 0.0230 0.0000 ( 34157 PWs)   bands (ev):

   -71.7463 -71.7033 -71.5974 -71.5551 -71.5262 -71.4838 -65.6619 -65.6013
   -65.5884 -65.5276 -65.4069 -65.3451 -36.1486 -36.1306 -36.0656 -35.8679
   -35.8398 -35.8238 -35.7597 -35.7292 -35.6607 -35.6407 -35.6012 -35.5627
   -35.5231 -35.4996 -35.3511 -35.2903 -35.2494 -35.2028 -32.2853 -32.2608
   -32.2118 -32.1874 -32.1279 -32.0653 -31.9715 -31.9177 -31.8488 -31.8348
   -31.7647 -31.7357 -31.6503 -31.4543 -31.4439 -31.3994 -31.3627 -31.3200
   -17.3521 -17.3446 -17.3443 -17.3443 -17.3417 -17.3220 -17.3143 -17.3141
   -17.3044 -17.2864 -17.2699 -17.2670 -17.2656 -17.2625 -17.2617 -17.2614
   -17.2593 -17.2435 -17.2371 -17.2370 -17.2296 -17.2271 -17.2245 -17.2102
   -17.1973 -17.1928 -17.1597 -17.1545 -17.0521 -17.0485 -17.0404 -17.0400
   -17.0327 -17.0314 -17.0255 -17.0232 -17.0164 -17.0108 -17.0091 -17.0019
   -16.9960 -16.9903  -4.6276  -2.8365  -2.1077  -1.9167  -1.7084  -1.7067
    -1.5259  -1.3777  -1.2641  -0.7642  -0.6315  -0.5000  -0.3929  -0.3700
    -0.2147   0.4004   0.6498   0.7129   1.0864   1.1027   1.1638   1.4586
     1.6220   1.7759   1.8840   2.1041   2.1060   2.2305   2.3377   2.4848
     2.5891   2.7371   2.7470   2.9195   2.9497   3.1462   3.4875   3.5628
     3.6748   3.6981   3.7070   3.8128   4.0258   4.1206   4.2923   4.3737
     4.5145   5.1432   5.1496   5.3865   5.4641   5.7036   5.7493   5.9361
     6.1503   6.1588   6.3604   6.6098

          k = 0.0459 0.0383 0.0000 ( 34123 PWs)   bands (ev):

   -71.7463 -71.7033 -71.5974 -71.5551 -71.5262 -71.4838 -65.6619 -65.6013
   -65.5884 -65.5276 -65.4069 -65.3451 -36.1470 -36.1295 -36.0653 -35.8672
   -35.8372 -35.8230 -35.7588 -35.7300 -35.6609 -35.6377 -35.5989 -35.5624
   -35.5229 -35.4997 -35.3508 -35.2903 -35.2495 -35.2029 -32.2885 -32.2638
   -32.2134 -32.1880 -32.1287 -32.0638 -31.9713 -31.9237 -31.8533 -31.8360
   -31.7655 -31.7385 -31.6505 -31.4540 -31.4440 -31.3992 -31.3625 -31.3199
   -17.3521 -17.3446 -17.3443 -17.3443 -17.3417 -17.3220 -17.3143 -17.3141
   -17.3043 -17.2864 -17.2700 -17.2671 -17.2656 -17.2625 -17.2617 -17.2615
   -17.2593 -17.2435 -17.2371 -17.2370 -17.2296 -17.2270 -17.2245 -17.2102
   -17.1974 -17.1928 -17.1597 -17.1545 -17.0522 -17.0485 -17.0404 -17.0400
   -17.0327 -17.0314 -17.0255 -17.0232 -17.0164 -17.0109 -17.0091 -17.0019
   -16.9960 -16.9903  -4.4320  -2.6519  -2.1350  -1.8687  -1.7009  -1.5893
    -1.3514  -1.3135  -1.1191  -0.6383  -0.4889  -0.4493  -0.2808  -0.2639
    -0.0050   0.3851   0.6078   0.7652   0.9732   1.0376   1.0708   1.2874
     1.4343   1.6433   1.8152   1.9713   1.9838   2.0807   2.1681   2.3191
     2.3892   2.5745   2.5968   2.7644   2.8199   2.9817   3.2057   3.5458
     3.6379   3.6875   3.9010   3.9180   4.0393   4.2376   4.2927   4.3430
     4.6160   4.8049   5.0669   5.2604   5.3646   5.5375   5.6339   5.7474
     6.1138   6.1410   6.3107   6.4665

          k = 0.0459 0.0537 0.0000 ( 34105 PWs)   bands (ev):

   -71.7463 -71.7033 -71.5974 -71.5551 -71.5262 -71.4838 -65.6620 -65.6013
   -65.5884 -65.5276 -65.4069 -65.3451 -36.1450 -36.1283 -36.0650 -35.8664
   -35.8342 -35.8219 -35.7578 -35.7311 -35.6611 -35.6342 -35.5962 -35.5620
   -35.5227 -35.4999 -35.3505 -35.2904 -35.2496 -35.2031 -32.2922 -32.2672
   -32.2153 -32.1887 -32.1296 -32.0620 -31.9710 -31.9306 -31.8584 -31.8374
   -31.7664 -31.7418 -31.6508 -31.4536 -31.4442 -31.3991 -31.3624 -31.3197
   -17.3521 -17.3446 -17.3444 -17.3444 -17.3417 -17.3220 -17.3143 -17.3141
   -17.3043 -17.2864 -17.2700 -17.2673 -17.2656 -17.2625 -17.2618 -17.2614
   -17.2593 -17.2435 -17.2371 -17.2370 -17.2296 -17.2270 -17.2245 -17.2102
   -17.1976 -17.1928 -17.1597 -17.1545 -17.0524 -17.0486 -17.0404 -17.0400
   -17.0327 -17.0314 -17.0255 -17.0232 -17.0164 -17.0109 -17.0092 -17.0019
   -16.9960 -16.9903  -4.1501  -2.4111  -2.1165  -2.1079  -1.4803  -1.4011
    -1.3342  -1.0653  -0.9040  -0.4345  -0.3682  -0.3302  -0.1595  -0.0734
     0.1604   0.4067   0.5812   0.7004   0.8619   0.9389   0.9768   1.1217
     1.2314   1.5192   1.5543   1.6478   1.9020   1.9739   2.0326   2.1107
     2.1423   2.2845   2.5642   2.6060   2.6932   2.8080   2.8731   3.3954
     3.6246   3.7809   3.7934   4.0960   4.1190   4.2377   4.3147   4.4558
     4.5800   4.7502   4.9282   5.1453   5.2180   5.5636   5.6566   5.7033
     5.9266   6.0609   6.2441   6.4264

          k = 0.0459 0.0690 0.0000 ( 34094 PWs)   bands (ev):

   -71.7463 -71.7033 -71.5973 -71.5551 -71.5262 -71.4838 -65.6620 -65.6013
   -65.5885 -65.5276 -65.4069 -65.3451 -36.1434 -36.1272 -36.0647 -35.8657
   -35.8316 -35.8211 -35.7569 -35.7320 -35.6614 -35.6311 -35.5939 -35.5617
   -35.5226 -35.5000 -35.3503 -35.2904 -35.2497 -35.2032 -32.2954 -32.2701
   -32.2169 -32.1893 -32.1304 -32.0605 -31.9707 -31.9366 -31.8629 -31.8387
   -31.7672 -31.7447 -31.6510 -31.4533 -31.4443 -31.3990 -31.3623 -31.3196
   -17.3522 -17.3446 -17.3445 -17.3444 -17.3417 -17.3219 -17.3144 -17.3141
   -17.3044 -17.2864 -17.2700 -17.2675 -17.2656 -17.2625 -17.2619 -17.2615
   -17.2593 -17.2434 -17.2371 -17.2370 -17.2296 -17.2271 -17.2245 -17.2102
   -17.1978 -17.1928 -17.1597 -17.1545 -17.0526 -17.0486 -17.0404 -17.0401
   -17.0326 -17.0315 -17.0255 -17.0233 -17.0164 -17.0109 -17.0093 -17.0019
   -16.9960 -16.9903  -3.7982  -2.5202  -2.0761  -2.0451  -1.3739  -1.3683
    -1.0248  -0.8603  -0.6297  -0.2723  -0.2540  -0.1540  -0.0164   0.0649
     0.2859   0.3835   0.4009   0.6666   0.6857   0.8820   0.9775   1.0351
     1.0658   1.3296   1.3497   1.4210   1.6727   1.7083   1.8760   1.9704
     2.0072   2.0148   2.4048   2.4726   2.6187   2.7451   2.9591   3.0703
     3.6111   3.6521   3.8981   3.9694   4.0194   4.2978   4.3966   4.5639
     4.6380   4.7334   4.9220   5.1316   5.2531   5.5664   5.6876   5.7343
     5.8512   5.9888   6.1755   6.4230

          k = 0.0459 0.0844 0.0000 ( 34098 PWs)   bands (ev):

   -71.7463 -71.7033 -71.5973 -71.5551 -71.5262 -71.4838 -65.6620 -65.6013
   -65.5885 -65.5276 -65.4069 -65.3451 -36.1424 -36.1266 -36.0645 -35.8652
   -35.8301 -35.8206 -35.7564 -35.7326 -35.6615 -35.6293 -35.5925 -35.5615
   -35.5225 -35.5001 -35.3501 -35.2904 -35.2498 -35.2033 -32.2972 -32.2718
   -32.2178 -32.1896 -32.1309 -32.0596 -31.9706 -31.9400 -31.8654 -31.8394
   -31.7676 -31.7464 -31.6511 -31.4531 -31.4444 -31.3990 -31.3622 -31.3195
   -17.3522 -17.3446 -17.3445 -17.3444 -17.3418 -17.3219 -17.3144 -17.3142
   -17.3044 -17.2864 -17.2700 -17.2676 -17.2656 -17.2625 -17.2620 -17.2615
   -17.2593 -17.2434 -17.2371 -17.2371 -17.2296 -17.2271 -17.2245 -17.2102
   -17.1979 -17.1928 -17.1598 -17.1545 -17.0527 -17.0486 -17.0404 -17.0401
   -17.0326 -17.0315 -17.0255 -17.0234 -17.0164 -17.0110 -17.0093 -17.0019
   -16.9960 -16.9903  -3.4136  -2.9034  -2.0442  -1.7499  -1.4989  -1.3040
    -0.7150  -0.6226  -0.4079  -0.2502  -0.2334   0.0160   0.0225   0.0838
     0.1802   0.3105   0.4720   0.6068   0.6693   0.7787   0.9400   1.0480
     1.0929   1.1259   1.1849   1.3410   1.4797   1.5317   1.6044   1.8674
     1.8718   2.1173   2.3178   2.3923   2.6487   2.7103   2.7976   3.1898
     3.4179   3.4950   3.9298   3.9371   4.0887   4.2682   4.4042   4.4629
     4.7013   4.7901   4.9481   5.2063   5.4403   5.5047   5.7126   5.7739
     5.9147   5.9709   6.1456   6.4225

          k = 0.0459 0.0997 0.0000 ( 34098 PWs)   bands (ev):

   -71.7463 -71.7033 -71.5973 -71.5551 -71.5262 -71.4838 -65.6620 -65.6013
   -65.5885 -65.5276 -65.4069 -65.3451 -36.1424 -36.1266 -36.0645 -35.8652
   -35.8301 -35.8206 -35.7564 -35.7326 -35.6615 -35.6293 -35.5925 -35.5615
   -35.5225 -35.5001 -35.3501 -35.2904 -35.2498 -35.2033 -32.2972 -32.2718
   -32.2178 -32.1896 -32.1309 -32.0596 -31.9706 -31.9400 -31.8654 -31.8394
   -31.7676 -31.7464 -31.6511 -31.4531 -31.4444 -31.3990 -31.3622 -31.3195
   -17.3522 -17.3446 -17.3445 -17.3444 -17.3418 -17.3219 -17.3144 -17.3142
   -17.3044 -17.2864 -17.2700 -17.2676 -17.2656 -17.2625 -17.2620 -17.2615
   -17.2593 -17.2434 -17.2371 -17.2371 -17.2296 -17.2271 -17.2245 -17.2102
   -17.1979 -17.1928 -17.1598 -17.1545 -17.0527 -17.0486 -17.0404 -17.0401
   -17.0326 -17.0315 -17.0255 -17.0234 -17.0164 -17.0110 -17.0093 -17.0019
   -16.9960 -16.9903  -3.4136  -2.9034  -2.0442  -1.7499  -1.4989  -1.3040
    -0.7150  -0.6226  -0.4079  -0.2502  -0.2334   0.0160   0.0225   0.0838
     0.1802   0.3105   0.4720   0.6068   0.6693   0.7787   0.9400   1.0480
     1.0929   1.1259   1.1849   1.3410   1.4797   1.5317   1.6044   1.8674
     1.8718   2.1173   2.3178   2.3923   2.6487   2.7103   2.7976   3.1898
     3.4179   3.4950   3.9298   3.9371   4.0887   4.2682   4.4042   4.4629
     4.7013   4.7901   4.9481   5.2063   5.4403   5.5047   5.7126   5.7739
     5.9146   5.9709   6.1456   6.4221

          k = 0.0459-0.0690 0.0000 ( 34094 PWs)   bands (ev):

   -71.7463 -71.7033 -71.5973 -71.5551 -71.5262 -71.4838 -65.6620 -65.6013
   -65.5885 -65.5276 -65.4069 -65.3451 -36.1434 -36.1272 -36.0647 -35.8657
   -35.8316 -35.8211 -35.7569 -35.7320 -35.6614 -35.6311 -35.5939 -35.5617
   -35.5226 -35.5000 -35.3503 -35.2904 -35.2497 -35.2032 -32.2954 -32.2701
   -32.2169 -32.1893 -32.1304 -32.0605 -31.9707 -31.9366 -31.8629 -31.8387
   -31.7672 -31.7447 -31.6510 -31.4533 -31.4443 -31.3990 -31.3623 -31.3196
   -17.3522 -17.3446 -17.3445 -17.3444 -17.3417 -17.3219 -17.3144 -17.3141
   -17.3044 -17.2864 -17.2700 -17.2675 -17.2656 -17.2625 -17.2619 -17.2615
   -17.2593 -17.2434 -17.2371 -17.2370 -17.2296 -17.2271 -17.2245 -17.2102
   -17.1978 -17.1928 -17.1597 -17.1545 -17.0526 -17.0486 -17.0404 -17.0401
   -17.0326 -17.0315 -17.0255 -17.0233 -17.0164 -17.0109 -17.0093 -17.0019
   -16.9960 -16.9903  -3.7982  -2.5202  -2.0761  -2.0451  -1.3739  -1.3683
    -1.0248  -0.8603  -0.6297  -0.2723  -0.2539  -0.1540  -0.0164   0.0649
     0.2859   0.3835   0.4009   0.6666   0.6857   0.8820   0.9775   1.0351
     1.0658   1.3296   1.3497   1.4210   1.6727   1.7083   1.8760   1.9704
     2.0072   2.0148   2.4048   2.4726   2.6187   2.7451   2.9591   3.0703
     3.6111   3.6521   3.8981   3.9694   4.0194   4.2978   4.3966   4.5639
     4.6380   4.7334   4.9220   5.1316   5.2531   5.5664   5.6876   5.7343
     5.8511   5.9888   6.1755   6.4229

          k = 0.0459-0.0537 0.0000 ( 34105 PWs)   bands (ev):

   -71.7463 -71.7033 -71.5974 -71.5551 -71.5262 -71.4838 -65.6620 -65.6013
   -65.5884 -65.5276 -65.4069 -65.3451 -36.1450 -36.1283 -36.0650 -35.8664
   -35.8342 -35.8219 -35.7578 -35.7311 -35.6611 -35.6342 -35.5962 -35.5620
   -35.5227 -35.4999 -35.3505 -35.2904 -35.2496 -35.2031 -32.2922 -32.2672
   -32.2153 -32.1887 -32.1296 -32.0620 -31.9710 -31.9306 -31.8584 -31.8374
   -31.7664 -31.7418 -31.6508 -31.4536 -31.4442 -31.3991 -31.3624 -31.3197
   -17.3521 -17.3446 -17.3444 -17.3444 -17.3417 -17.3220 -17.3143 -17.3141
   -17.3043 -17.2864 -17.2700 -17.2673 -17.2656 -17.2625 -17.2618 -17.2614
   -17.2593 -17.2435 -17.2371 -17.2370 -17.2296 -17.2270 -17.2245 -17.2102
   -17.1976 -17.1928 -17.1597 -17.1545 -17.0524 -17.0486 -17.0404 -17.0400
   -17.0327 -17.0314 -17.0255 -17.0232 -17.0164 -17.0109 -17.0092 -17.0019
   -16.9960 -16.9903  -4.1501  -2.4111  -2.1165  -2.1079  -1.4803  -1.4011
    -1.3342  -1.0653  -0.9040  -0.4345  -0.3682  -0.3302  -0.1595  -0.0734
     0.1604   0.4067   0.5812   0.7004   0.8619   0.9389   0.9768   1.1217
     1.2314   1.5192   1.5543   1.6478   1.9020   1.9739   2.0326   2.1107
     2.1423   2.2845   2.5642   2.6060   2.6932   2.8080   2.8731   3.3954
[...]
   -35.7823 -35.7136 -35.6984 -35.6835 -35.6769 -35.6324 -35.6155 -35.5842
   -35.5764 -35.5454 -35.4500 -35.4042 -35.3316 -35.3093 -32.2551 -32.2221
   -32.0356 -32.0133 -32.0006 -31.9628 -31.8929 -31.8814 -31.8658 -31.8231
   -31.7954 -31.7206 -31.7086 -31.6803 -31.6681 -31.5861 -31.4187 -31.3889
   -17.3489 -17.3462 -17.3434 -17.3425 -17.3366 -17.3285 -17.3112 -17.3075
   -17.3064 -17.2962 -17.2662 -17.2632 -17.2608 -17.2600 -17.2578 -17.2557
   -17.2524 -17.2498 -17.2404 -17.2404 -17.2339 -17.2302 -17.2298 -17.2199
   -17.1860 -17.1827 -17.1706 -17.1705 -17.0425 -17.0391 -17.0366 -17.0350
   -17.0311 -17.0294 -17.0294 -17.0238 -17.0218 -17.0097 -17.0080 -17.0071
   -17.0069 -17.0025  -3.8840  -2.5341  -2.1585  -1.6450  -1.3811  -1.2576
    -1.1033  -0.9620  -0.8393  -0.6701  -0.3830   0.0569   0.0660   0.2571
     0.2621   0.4893   0.6267   0.7944   0.9961   1.1145   1.3755   1.4522
     1.5778   1.7128   1.8775   1.9252   2.0458   2.0987   2.1206   2.2357
     2.3472   2.3737   2.5739   2.5796   2.6930   2.8370   2.9215   3.1655
     3.1707   3.3631   3.7232   3.7239   3.8523   4.0059   4.2503   4.2804
     4.4114   4.4619   4.7152   4.8463   4.9780   5.1912   5.3718   5.4120
     5.5840   5.7455   6.0474   6.1175

          k = 0.0765-0.0077 0.0000 ( 34161 PWs)   bands (ev):

   -71.7327 -71.7170 -71.5840 -71.5686 -71.5128 -71.4973 -65.6428 -65.6206
   -65.5692 -65.5470 -65.3873 -65.3648 -36.1228 -36.0902 -35.9369 -35.8144
   -35.7822 -35.7131 -35.6984 -35.6836 -35.6772 -35.6328 -35.6166 -35.5838
   -35.5773 -35.5451 -35.4498 -35.4040 -35.3318 -35.3092 -32.2540 -32.2225
   -32.0362 -32.0121 -32.0003 -31.9622 -31.8907 -31.8813 -31.8663 -31.8215
   -31.7959 -31.7210 -31.7077 -31.6807 -31.6685 -31.5863 -31.4186 -31.3890
   -17.3488 -17.3462 -17.3434 -17.3425 -17.3366 -17.3285 -17.3111 -17.3076
   -17.3064 -17.2962 -17.2662 -17.2632 -17.2608 -17.2600 -17.2578 -17.2557
   -17.2524 -17.2498 -17.2404 -17.2404 -17.2339 -17.2303 -17.2298 -17.2199
   -17.1860 -17.1827 -17.1706 -17.1706 -17.0424 -17.0391 -17.0367 -17.0350
   -17.0311 -17.0295 -17.0294 -17.0238 -17.0218 -17.0096 -17.0081 -17.0071
   -17.0069 -17.0025  -3.9685  -2.2959  -2.2306  -1.9482  -1.3229  -1.3182
    -1.0659  -1.0238  -0.8375  -0.6307  -0.4847   0.0215   0.0777   0.1337
     0.2124   0.4752   0.6377   0.8610   0.9618   1.2316   1.4519   1.4695
     1.5223   1.7363   1.8630   2.0078   2.1046   2.1502   2.2113   2.2735
     2.4051   2.5681   2.5809   2.6730   2.8661   2.8894   3.0189   3.0363
     3.1494   3.2843   3.5056   3.5687   3.7429   3.9426   4.2419   4.3230
     4.3635   4.4364   4.7341   4.8267   5.0959   5.3374   5.4740   5.5755
     5.7478   6.0650   6.0852   6.3161

          k = 0.0765 0.0077 0.0000 ( 34161 PWs)   bands (ev):

   -71.7327 -71.7170 -71.5840 -71.5686 -71.5128 -71.4973 -65.6428 -65.6206
   -65.5692 -65.5470 -65.3873 -65.3648 -36.1228 -36.0902 -35.9369 -35.8144
   -35.7822 -35.7131 -35.6984 -35.6836 -35.6772 -35.6328 -35.6166 -35.5838
   -35.5773 -35.5451 -35.4498 -35.4040 -35.3318 -35.3092 -32.2540 -32.2225
   -32.0362 -32.0121 -32.0003 -31.9622 -31.8907 -31.8813 -31.8663 -31.8215
   -31.7959 -31.7210 -31.7077 -31.6807 -31.6685 -31.5863 -31.4186 -31.3890
   -17.3488 -17.3462 -17.3434 -17.3425 -17.3366 -17.3285 -17.3111 -17.3076
   -17.3064 -17.2962 -17.2662 -17.2632 -17.2608 -17.2600 -17.2578 -17.2557
   -17.2524 -17.2498 -17.2404 -17.2404 -17.2339 -17.2303 -17.2298 -17.2199
   -17.1860 -17.1827 -17.1706 -17.1706 -17.0424 -17.0391 -17.0367 -17.0350
   -17.0311 -17.0295 -17.0294 -17.0238 -17.0218 -17.0096 -17.0081 -17.0071
   -17.0069 -17.0025  -3.9685  -2.2959  -2.2306  -1.9482  -1.3229  -1.3182
    -1.0659  -1.0238  -0.8375  -0.6307  -0.4847   0.0215   0.0777   0.1337
     0.2124   0.4752   0.6377   0.8610   0.9618   1.2316   1.4519   1.4695
     1.5223   1.7363   1.8630   2.0078   2.1046   2.1502   2.2113   2.2735
     2.4051   2.5681   2.5809   2.6730   2.8661   2.8894   3.0189   3.0363
     3.1494   3.2843   3.5056   3.5687   3.7429   3.9426   4.2419   4.3230
     4.3635   4.4364   4.7341   4.8267   5.0959   5.3374   5.4740   5.5755
     5.7478   6.0650   6.0852   6.3160

          k = 0.0765 0.0230 0.0000 ( 34127 PWs)   bands (ev):

   -71.7327 -71.7170 -71.5840 -71.5686 -71.5128 -71.4973 -65.6428 -65.6206
   -65.5692 -65.5469 -65.3874 -65.3648 -36.1222 -36.0904 -35.9365 -35.8136
   -35.7823 -35.7136 -35.6984 -35.6835 -35.6769 -35.6324 -35.6155 -35.5842
   -35.5764 -35.5454 -35.4500 -35.4042 -35.3316 -35.3093 -32.2551 -32.2221
   -32.0356 -32.0133 -32.0006 -31.9628 -31.8929 -31.8814 -31.8658 -31.8231
   -31.7954 -31.7206 -31.7086 -31.6803 -31.6681 -31.5861 -31.4187 -31.3889
   -17.3489 -17.3462 -17.3434 -17.3425 -17.3366 -17.3285 -17.3112 -17.3075
   -17.3064 -17.2962 -17.2662 -17.2632 -17.2608 -17.2600 -17.2578 -17.2557
   -17.2524 -17.2498 -17.2404 -17.2404 -17.2339 -17.2302 -17.2298 -17.2199
   -17.1860 -17.1827 -17.1706 -17.1705 -17.0425 -17.0391 -17.0366 -17.0350
   -17.0311 -17.0294 -17.0294 -17.0238 -17.0218 -17.0097 -17.0080 -17.0071
   -17.0069 -17.0025  -3.8840  -2.5341  -2.1585  -1.6450  -1.3811  -1.2576
    -1.1033  -0.9620  -0.8393  -0.6701  -0.3830   0.0569   0.0660   0.2571
     0.2621   0.4893   0.6267   0.7944   0.9961   1.1145   1.3755   1.4522
     1.5778   1.7128   1.8775   1.9252   2.0458   2.0987   2.1206   2.2357
     2.3472   2.3737   2.5739   2.5796   2.6930   2.8370   2.9215   3.1655
     3.1707   3.3631   3.7232   3.7239   3.8523   4.0059   4.2503   4.2804
     4.4114   4.4619   4.7152   4.8463   4.9780   5.1912   5.3718   5.4120
     5.5840   5.7455   6.0474   6.1175

          k =-0.0918-0.0460 0.0000 ( 34124 PWs)   bands (ev):

   -71.7249 -71.7249 -71.5763 -71.5763 -71.5051 -71.5050 -65.6317 -65.6317
   -65.5581 -65.5581 -65.3761 -65.3761 -36.1057 -36.1057 -35.8216 -35.8216
   -35.7966 -35.7966 -35.6953 -35.6953 -35.5992 -35.5992 -35.5641 -35.5641
   -35.5603 -35.5602 -35.5188 -35.5187 -35.3204 -35.3204 -32.2397 -32.2397
   -32.0175 -32.0175 -31.8850 -31.8850 -31.8660 -31.8660 -31.8200 -31.8200
   -31.8083 -31.8083 -31.7347 -31.7347 -31.6953 -31.6953 -31.4038 -31.4038
   -17.3474 -17.3474 -17.3430 -17.3430 -17.3325 -17.3325 -17.3094 -17.3094
   -17.3015 -17.3015 -17.2646 -17.2646 -17.2605 -17.2605 -17.2537 -17.2537
   -17.2484 -17.2484 -17.2464 -17.2464 -17.2321 -17.2321 -17.2250 -17.2250
   -17.1787 -17.1787 -17.1767 -17.1767 -17.0392 -17.0392 -17.0341 -17.0340
   -17.0320 -17.0320 -17.0261 -17.0261 -17.0168 -17.0168 -17.0086 -17.0086
   -17.0051 -17.0051  -3.2077  -3.2077  -1.6707  -1.6707  -1.2131  -1.2131
    -0.8338  -0.8338  -0.7009  -0.7009  -0.0608  -0.0608   0.3592   0.3592
     0.5951   0.5951   0.6253   0.6253   1.0020   1.0020   1.2731   1.2731
     1.6024   1.6024   1.7576   1.7576   1.8864   1.8865   2.0093   2.0094
     2.2485   2.2486   2.4260   2.4260   2.5781   2.5781   2.7611   2.7611
     3.5680   3.5680   3.9271   3.9272   4.0337   4.0337   4.3546   4.3547
     4.5805   4.5806   4.7293   4.7293   4.8287   4.8288   4.8911   4.8911
     5.2340   5.2340   5.7194   5.7194

          k =-0.0918-0.0307 0.0000 ( 34152 PWs)   bands (ev):

   -71.7249 -71.7249 -71.5763 -71.5763 -71.5051 -71.5050 -65.6317 -65.6317
   -65.5581 -65.5581 -65.3761 -65.3761 -36.1065 -36.1049 -35.8223 -35.8208
   -35.7977 -35.7957 -35.6956 -35.6950 -35.6007 -35.5976 -35.5647 -35.5637
   -35.5614 -35.5589 -35.5194 -35.5181 -35.3206 -35.3203 -32.2411 -32.2383
   -32.0183 -32.0167 -31.8864 -31.8826 -31.8673 -31.8656 -31.8200 -31.8195
   -31.8098 -31.8073 -31.7353 -31.7340 -31.6968 -31.6939 -31.4039 -31.4037
   -17.3475 -17.3474 -17.3430 -17.3430 -17.3325 -17.3324 -17.3094 -17.3093
   -17.3015 -17.3015 -17.2646 -17.2646 -17.2605 -17.2604 -17.2538 -17.2537
   -17.2485 -17.2483 -17.2464 -17.2464 -17.2321 -17.2321 -17.2251 -17.2251
   -17.1788 -17.1786 -17.1767 -17.1767 -17.0393 -17.0391 -17.0341 -17.0340
   -17.0321 -17.0320 -17.0262 -17.0262 -17.0168 -17.0168 -17.0087 -17.0086
   -17.0051 -17.0051  -3.3787  -2.9733  -1.7767  -1.6156  -1.4543  -0.9731
    -0.8639  -0.8385  -0.6923  -0.6426  -0.1463   0.0027   0.3067   0.3534
     0.5180   0.5793   0.6393   0.7814   0.8634   1.0643   1.0764   1.5111
     1.5364   1.6517   1.6630   1.7815   1.8850   1.9079   1.9831   2.1699
     2.2336   2.2646   2.3428   2.4094   2.5060   2.6898   2.7680   2.8617
     3.4070   3.6686   3.6773   3.9432   4.0169   4.1417   4.2823   4.4018
     4.4047   4.5280   4.6541   4.7403   4.7655   4.9541   5.0307   5.1713
     5.2855   5.4078   5.7876   5.8113

          k =-0.0918-0.0153 0.0000 ( 34130 PWs)   bands (ev):

   -71.7249 -71.7249 -71.5763 -71.5763 -71.5051 -71.5050 -65.6317 -65.6317
   -65.5581 -65.5581 -65.3761 -65.3761 -36.1071 -36.1044 -35.8227 -35.8201
   -35.7986 -35.7951 -35.6959 -35.6947 -35.6018 -35.5963 -35.5653 -35.5637
   -35.5619 -35.5579 -35.5199 -35.5177 -35.3208 -35.3201 -32.2422 -32.2372
   -32.0189 -32.0162 -31.8871 -31.8799 -31.8694 -31.8657 -31.8198 -31.8187
   -31.8114 -31.8067 -31.7356 -31.7335 -31.6980 -31.6928 -31.4040 -31.4036
   -17.3474 -17.3474 -17.3430 -17.3429 -17.3325 -17.3324 -17.3094 -17.3093
   -17.3015 -17.3015 -17.2646 -17.2645 -17.2605 -17.2604 -17.2538 -17.2536
   -17.2485 -17.2483 -17.2465 -17.2464 -17.2321 -17.2321 -17.2251 -17.2250
   -17.1788 -17.1786 -17.1767 -17.1767 -17.0394 -17.0390 -17.0341 -17.0341
   -17.0321 -17.0320 -17.0261 -17.0261 -17.0168 -17.0167 -17.0087 -17.0086
   -17.0051 -17.0050  -3.4824  -2.6858  -1.9406  -1.8428  -1.3233  -0.9443
    -0.9326  -0.7743  -0.5911  -0.5793  -0.2547   0.0220   0.2859   0.3013
     0.4366   0.5538   0.6946   0.7491   0.9436   0.9719   1.1275   1.3464
     1.5599   1.6684   1.7432   1.8616   1.8776   1.9294   1.9930   2.2004
     2.2376   2.2670   2.2991   2.4637   2.5757   2.6281   2.8229   3.1191
     3.1836   3.4950   3.6738   3.8453   3.9822   4.0806   4.2101   4.2980
     4.4148   4.5058   4.5810   4.6801   4.8192   5.2031   5.2313   5.4021
     5.5734   5.6970   5.9383   6.0482

          k =-0.0918 0.0000 0.0000 ( 34154 PWs)   bands (ev):

   -71.7249 -71.7248 -71.5763 -71.5763 -71.5051 -71.5050 -65.6317 -65.6317
   -65.5581 -65.5581 -65.3761 -65.3761 -36.1073 -36.1041 -35.8229 -35.8197
   -35.7990 -35.7949 -35.6960 -35.6946 -35.6022 -35.5959 -35.5655 -35.5638
   -35.5620 -35.5575 -35.5201 -35.5176 -35.3208 -35.3201 -32.2426 -32.2368
   -32.0191 -32.0160 -31.8873 -31.8783 -31.8707 -31.8658 -31.8197 -31.8182
   -31.8122 -31.8066 -31.7358 -31.7333 -31.6984 -31.6925 -31.4040 -31.4036
   -17.3474 -17.3474 -17.3430 -17.3429 -17.3326 -17.3324 -17.3094 -17.3093
   -17.3015 -17.3014 -17.2646 -17.2646 -17.2605 -17.2604 -17.2538 -17.2536
   -17.2486 -17.2483 -17.2465 -17.2465 -17.2321 -17.2320 -17.2251 -17.2250
   -17.1788 -17.1785 -17.1767 -17.1767 -17.0395 -17.0390 -17.0341 -17.0340
   -17.0321 -17.0320 -17.0262 -17.0261 -17.0167 -17.0167 -17.0087 -17.0086
   -17.0051 -17.0050  -3.5171  -2.4368  -2.2165  -1.8650  -1.2021  -1.0440
    -0.9368  -0.7298  -0.5651  -0.4886  -0.3382   0.0112   0.2834   0.2982
     0.3810   0.5373   0.6658   0.7989   0.9323   1.0081   1.1794   1.2650
     1.4750   1.6862   1.8219   1.8667   1.8946   1.9528   2.0008   2.1711
     2.2119   2.2649   2.2908   2.5622   2.6054   2.6486   2.8337   3.0250
     3.4084   3.4337   3.4428   3.8682   3.9641   4.0056   4.1810   4.2703
     4.3853   4.5430   4.5572   4.6637   4.8490   5.3219   5.3239   5.4476
     5.7797   5.8476   6.0779   6.1845

          k =-0.0918 0.0153 0.0000 ( 34130 PWs)   bands (ev):

   -71.7249 -71.7249 -71.5763 -71.5763 -71.5051 -71.5050 -65.6317 -65.6317
   -65.5581 -65.5581 -65.3761 -65.3761 -36.1071 -36.1044 -35.8227 -35.8201
   -35.7986 -35.7951 -35.6959 -35.6947 -35.6018 -35.5963 -35.5653 -35.5637
   -35.5619 -35.5579 -35.5199 -35.5177 -35.3208 -35.3201 -32.2422 -32.2372
   -32.0189 -32.0162 -31.8871 -31.8799 -31.8694 -31.8657 -31.8198 -31.8187
   -31.8114 -31.8067 -31.7356 -31.7335 -31.6980 -31.6928 -31.4040 -31.4036
   -17.3474 -17.3474 -17.3430 -17.3429 -17.3325 -17.3324 -17.3094 -17.3093
   -17.3015 -17.3015 -17.2646 -17.2645 -17.2605 -17.2604 -17.2538 -17.2536
   -17.2485 -17.2483 -17.2465 -17.2464 -17.2321 -17.2321 -17.2251 -17.2250
   -17.1788 -17.1786 -17.1767 -17.1767 -17.0394 -17.0390 -17.0341 -17.0341
   -17.0321 -17.0320 -17.0261 -17.0261 -17.0168 -17.0167 -17.0087 -17.0086
   -17.0051 -17.0050  -3.4824  -2.6858  -1.9406  -1.8428  -1.3233  -0.9443
    -0.9326  -0.7743  -0.5911  -0.5793  -0.2547   0.0220   0.2859   0.3013
     0.4366   0.5538   0.6946   0.7491   0.9436   0.9719   1.1275   1.3464
     1.5599   1.6684   1.7432   1.8616   1.8776   1.9294   1.9930   2.2004
     2.2376   2.2670   2.2991   2.4637   2.5757   2.6281   2.8229   3.1191
     3.1836   3.4950   3.6738   3.8453   3.9822   4.0806   4.2101   4.2980
     4.4148   4.5058   4.5810   4.6800   4.8192   5.2031   5.2313   5.4021
     5.5734   5.6970   5.9383   6.0482

          k =-0.0918 0.0307 0.0000 ( 34152 PWs)   bands (ev):

   -71.7249 -71.7249 -71.5763 -71.5763 -71.5051 -71.5050 -65.6317 -65.6317
   -65.5581 -65.5581 -65.3761 -65.3761 -36.1065 -36.1049 -35.8223 -35.8208
   -35.7977 -35.7957 -35.6956 -35.6950 -35.6007 -35.5976 -35.5647 -35.5637
   -35.5614 -35.5589 -35.5194 -35.5181 -35.3206 -35.3203 -32.2411 -32.2383
   -32.0183 -32.0167 -31.8864 -31.8826 -31.8673 -31.8656 -31.8200 -31.8195
   -31.8098 -31.8073 -31.7353 -31.7340 -31.6968 -31.6939 -31.4039 -31.4037
   -17.3475 -17.3474 -17.3430 -17.3430 -17.3325 -17.3324 -17.3094 -17.3093
   -17.3015 -17.3015 -17.2646 -17.2646 -17.2605 -17.2604 -17.2538 -17.2537
   -17.2485 -17.2483 -17.2464 -17.2464 -17.2321 -17.2321 -17.2251 -17.2251
   -17.1788 -17.1786 -17.1767 -17.1767 -17.0393 -17.0391 -17.0341 -17.0340
   -17.0321 -17.0320 -17.0262 -17.0262 -17.0168 -17.0168 -17.0087 -17.0086
   -17.0051 -17.0051  -3.3787  -2.9733  -1.7767  -1.6156  -1.4543  -0.9731
    -0.8639  -0.8385  -0.6923  -0.6426  -0.1463   0.0027   0.3067   0.3534
     0.5180   0.5793   0.6393   0.7814   0.8634   1.0643   1.0764   1.5111
     1.5364   1.6517   1.6630   1.7815   1.8850   1.9079   1.9831   2.1699
     2.2336   2.2646   2.3428   2.4094   2.5060   2.6897   2.7680   2.8617
     3.4070   3.6686   3.6773   3.9432   4.0169   4.1417   4.2823   4.4018
     4.4047   4.5280   4.6541   4.7403   4.7655   4.9541   5.0307   5.1713
     5.2855   5.4078   5.7875   5.8113

          k =-0.0918-0.1380 0.0000 ( 34124 PWs)   bands (ev):

   -71.7249 -71.7249 -71.5763 -71.5763 -71.5051 -71.5050 -65.6317 -65.6317
   -65.5581 -65.5581 -65.3761 -65.3761 -36.1057 -36.1057 -35.8216 -35.8216
   -35.7966 -35.7966 -35.6953 -35.6953 -35.5992 -35.5992 -35.5641 -35.5641
   -35.5603 -35.5602 -35.5188 -35.5187 -35.3204 -35.3204 -32.2397 -32.2397
   -32.0175 -32.0175 -31.8850 -31.8850 -31.8660 -31.8660 -31.8200 -31.8200
   -31.8083 -31.8083 -31.7347 -31.7347 -31.6953 -31.6953 -31.4038 -31.4038
   -17.3474 -17.3474 -17.3430 -17.3430 -17.3325 -17.3325 -17.3094 -17.3094
   -17.3015 -17.3015 -17.2646 -17.2646 -17.2605 -17.2605 -17.2537 -17.2537
   -17.2484 -17.2484 -17.2464 -17.2464 -17.2321 -17.2321 -17.2250 -17.2250
   -17.1787 -17.1787 -17.1767 -17.1767 -17.0392 -17.0392 -17.0341 -17.0340
   -17.0320 -17.0320 -17.0261 -17.0261 -17.0168 -17.0168 -17.0086 -17.0086
   -17.0051 -17.0051  -3.2077  -3.2077  -1.6707  -1.6707  -1.2131  -1.2131
    -0.8338  -0.8338  -0.7009  -0.7009  -0.0608  -0.0608   0.3592   0.3592
     0.5951   0.5951   0.6253   0.6253   1.0020   1.0020   1.2731   1.2731
     1.6024   1.6024   1.7576   1.7576   1.8864   1.8865   2.0093   2.0094
     2.2486   2.2486   2.4260   2.4260   2.5781   2.5781   2.7611   2.7611
     3.5680   3.5680   3.9271   3.9272   4.0337   4.0337   4.3546   4.3547
     4.5805   4.5806   4.7293   4.7293   4.8287   4.8288   4.8911   4.8911
     5.2340   5.2340   5.7194   5.7194

     the Fermi energy is     2.6424 ev

!    total energy              =   -5046.74280580 Ry
     estimated scf accuracy    <       0.00000811 Ry
     smearing contrib. (-TS)   =      -0.06967719 Ry
     internal energy E=F+TS    =   -5046.67312861 Ry

     The total energy is F=E-TS. E is the sum of the following terms:
     one-electron contribution =  -32675.56939421 Ry
     hartree contribution      =   16431.70857291 Ry
     xc contribution           =    -661.42122663 Ry
     ewald contribution        =   11858.60891637 Ry
     electric field correction =       0.00000294 Ry

     convergence has been achieved in  14 iterations

     negative rho (up, down):  1.386E-03 0.000E+00

     Forces acting on atoms (cartesian axes, Ry/au):

     atom    1 type  1   force =    -0.00001073   -0.00889749   -0.01103887
     atom    2 type  1   force =    -0.00001092   -0.00889777   -0.01104296
     atom    3 type  2   force =    -0.00000709    0.00392162    0.02899684
     atom    4 type  2   force =    -0.00000619    0.00392296    0.02899547
     atom    5 type  1   force =    -0.00000476    0.01367623   -0.00172207
     atom    6 type  1   force =     0.00000966    0.01367596   -0.00172818
     atom    7 type  2   force =    -0.00000755   -0.00813288   -0.01494412
     atom    8 type  2   force =    -0.00001060   -0.00813134   -0.01494229
     atom    9 type  1   force =     0.00002835   -0.00077667   -0.00120664
     atom   10 type  1   force =     0.00002838   -0.00077384   -0.00121249
     atom   11 type  2   force =    -0.00001166    0.00020696   -0.00007758
     atom   12 type  2   force =     0.00000311    0.00020624   -0.00007712

     Total force =     0.055476     Total SCF correction =     0.005239

     Writing output data file ./Ta2W2/Ta2W2_beef.save/

     init_run     :    306.86s CPU    308.05s WALL (       1 calls)
     electrons    :  12312.97s CPU  12351.95s WALL (       1 calls)
     forces       :    156.71s CPU    174.52s WALL (       1 calls)

     Called by init_run:
     wfcinit      :    288.72s CPU    289.40s WALL (       1 calls)
     potinit      :      8.93s CPU      9.08s WALL (       1 calls)
     hinit0       :      4.98s CPU      5.03s WALL (       1 calls)

     Called by electrons:
     c_bands      :  10774.39s CPU  10801.82s WALL (      14 calls)
     sum_band     :   1442.74s CPU   1449.24s WALL (      14 calls)
     v_of_rho     :     59.82s CPU     61.25s WALL (      15 calls)
     newd         :     38.03s CPU     41.92s WALL (      15 calls)
     mix_rho      :      4.57s CPU      4.59s WALL (      14 calls)
     vdW_kernel   :      5.92s CPU      5.95s WALL (       1 calls)

     Called by c_bands:
     init_us_2    :     15.85s CPU     15.97s WALL (    2220 calls)
     cegterg      :  10694.50s CPU  10720.03s WALL (    1036 calls)

     Called by *egterg:
     cdiaghg      :    623.12s CPU    623.47s WALL (    5164 calls)
     h_psi        :   5312.16s CPU   5332.74s WALL (    5238 calls)
     s_psi        :   1116.07s CPU   1116.39s WALL (    5238 calls)
     g_psi        :      1.73s CPU      1.75s WALL (    4128 calls)

     Called by h_psi:
     h_psi:calbec :   1342.63s CPU   1344.81s WALL (    5238 calls)
     vloc_psi     :   2834.99s CPU   2852.91s WALL (    5238 calls)
     add_vuspsi   :   1125.61s CPU   1126.00s WALL (    5238 calls)

     General routines
     calbec       :   2063.11s CPU   2083.51s WALL (    6570 calls)
     fft          :     54.15s CPU     54.83s WALL (    1004 calls)
     ffts         :      1.22s CPU      1.22s WALL (      29 calls)
     fftw         :   3556.39s CPU   3575.69s WALL (  866376 calls)
     interpolate  :      1.43s CPU      1.44s WALL (      15 calls)

     Parallel routines
     fft_scatt_xy :     77.97s CPU     78.77s WALL (  867409 calls)
     fft_scatt_yz :   2929.36s CPU   2942.51s WALL (  867409 calls)

     PWSCF        :      4h12m CPU      4h40m WALL


   This run was terminated on:   0:21:46  27Jun2022            

=------------------------------------------------------------------------------=
   JOB DONE.
=------------------------------------------------------------------------------=
