
     Program PWSCF v.6.6 starts on 24Jun2022 at 22:20: 2 

     This program is part of the open-source Quantum ESPRESSO suite
     for quantum simulation of materials; please cite
         "P. Giannozzi et al., J. Phys.:Condens. Matter 21 395502 (2009);
         "P. Giannozzi et al., J. Phys.:Condens. Matter 29 465901 (2017);
          URL http://www.quantum-espresso.org", 
     in publications or presentations arising from this work. More details at
     http://www.quantum-espresso.org/quote

     Parallel version (MPI), running on    37 processors

     MPI processes distributed on     1 nodes
     R & G space division:  proc/nbgrp/npool/nimage =      37
     Fft bands division:     nmany     =       1
     Reading input from Tc2Ag2.in
Warning: card &CELL ignored
Warning: card / ignored

     Current dimensions of program PWSCF are:
     Max number of different atomic species (ntypx) = 10
     Max number of k-points (npk) =  40000
     Max angular momentum in pseudopotentials (lmaxx) =  3
     Presently stress not available with electric field and gates

     Message from routine cell_base_init:
     DEPRECATED: use true lattice parameter, not A to a.u. conversion factor
     file Tc.pbe-spn-rrkjus_psl.0.3.0.UPF: wavefunction(s)  4S 4P renormalized

     **************************************************************************
     Initializing libbeef V0.1.2 with the BEEF-vdW functional.
     Citation: Wellendorff et al., PRB 85, 235149 (2012).
     **************************************************************************


     IMPORTANT: XC functional enforced from input :
     Exchange-correlation= BEEF-VDW
                           (   1   4  43  14   2   0   0)
     Any further DFT definition will be discarded
     Please, verify this is what you really want


     Subspace diagonalization in iterative solution of the eigenvalue problem:
     a serial algorithm will be used


     Parallelization info
     --------------------
     sticks:   dense  smooth     PW     G-vecs:    dense   smooth      PW
     Min         119      47     13                27579     6973    1075
     Max         119      48     14                27607     6998    1096
     Sum        4403    1769    509              1021141   258527   40239



     bravais-lattice index     =            0
     lattice parameter (alat)  =       1.8897  a.u.
     unit-cell volume          =    4673.1207 (a.u.)^3
     number of atoms/cell      =           12
     number of atomic types    =            2
     number of electrons       =       156.00
     number of Kohn-Sham states=           94
     kinetic-energy cutoff     =      55.1240  Ry
     charge density cutoff     =     551.2396  Ry
     convergence threshold     =      1.0E-05
     mixing beta               =       0.1000
     number of iterations used =           10  plain     mixing
     Exchange-correlation= BEEF-VDW
                           (   1   4  43  14   2   0   0)

     celldm(1)=   1.889726  celldm(2)=   0.000000  celldm(3)=   0.000000
     celldm(4)=   0.000000  celldm(5)=   0.000000  celldm(6)=   0.000000

     crystal axes: (cart. coord. in units of alat)
               a(1) = (   5.287316   0.000000   0.000000 )  
               a(2) = (  -2.643658   5.326183   0.000000 )  
               a(3) = (   0.000000   0.000000  24.590034 )  

     reciprocal axes: (cart. coord. in units 2 pi/alat)
               b(1) = (  0.189132  0.093876 -0.000000 )  
               b(2) = (  0.000000  0.187752  0.000000 )  
               b(3) = (  0.000000 -0.000000  0.040667 )  


     PseudoPot. # 1 for Tc read from file:
     ../pseudo/Tc.pbe-spn-rrkjus_psl.0.3.0.UPF
     MD5 check sum: 5f147c0bf103030af994b79b1f5562e4
     Pseudo is Ultrasoft + core correction, Zval = 15.0
     Generated using "atomic" code by A. Dal Corso v.6.2.2
     Using radial grid of 1231 points,  6 beta functions with: 
                l(1) =   0
                l(2) =   0
                l(3) =   1
                l(4) =   1
                l(5) =   2
                l(6) =   2
     Q(r) pseudized with 0 coefficients 


     PseudoPot. # 2 for Ag read from file:
     ../pseudo/Ag.pbe-n-rrkjus_psl.1.0.0.UPF
     MD5 check sum: d841cbfac2b0861aec33b46768a516bf
     Pseudo is Ultrasoft + core correction, Zval = 11.0
     Generated using "atomic" code by A. Dal Corso v.6.2.2
     Using radial grid of 1237 points,  6 beta functions with: 
                l(1) =   0
                l(2) =   0
                l(3) =   1
                l(4) =   1
                l(5) =   2
                l(6) =   2
     Q(r) pseudized with 0 coefficients 


     atomic species   valence    mass     pseudopotential
        Tc            15.00    97.90721     Tc( 1.00)
        Ag            11.00   107.86820     Ag( 1.00)

     No symmetry found



   Cartesian axes

     site n.     atom                  positions (alat units)
         1           Tc  tau(   1) = (   0.0000000   0.0000000  10.0000000  )
         2           Tc  tau(   2) = (   2.6436582   0.0000000  10.0000000  )
         3           Ag  tau(   3) = (   1.3218291   2.6630913  10.0000000  )
         4           Ag  tau(   4) = (  -1.3218291   2.6630913  10.0000000  )
         5           Tc  tau(   5) = (   2.6436582   1.3121834  12.2950170  )
         6           Tc  tau(   6) = (  -0.0000000   1.3121834  12.2950170  )
         7           Ag  tau(   7) = (  -1.3218291   3.9752747  12.2950170  )
         8           Ag  tau(   8) = (   1.3218291   3.9752747  12.2950170  )
         9           Tc  tau(   9) = (   0.0001181   2.2719559  14.3555435  )
        10           Tc  tau(  10) = (   2.6437854   2.2722522  14.3556700  )
        11           Ag  tau(  11) = (   1.3238881   5.0219829  14.8918047  )
        12           Ag  tau(  12) = (  -1.3229806   5.0219903  14.8918018  )

     number of k points=    74  Fermi-Dirac smearing, width (Ry)=  0.0100
                       cart. coord. in units 2pi/alat
        k(    1) = (   0.0000000   0.0000000   0.0000000), wk =   0.0138889
        k(    2) = (   0.0000000   0.0156460   0.0000000), wk =   0.0277778
        k(    3) = (   0.0000000   0.0312920   0.0000000), wk =   0.0277778
        k(    4) = (   0.0000000   0.0469379   0.0000000), wk =   0.0277778
        k(    5) = (   0.0000000   0.0625839   0.0000000), wk =   0.0277778
        k(    6) = (   0.0000000   0.0782299   0.0000000), wk =   0.0277778
        k(    7) = (   0.0000000  -0.0938759   0.0000000), wk =   0.0138889
        k(    8) = (   0.0157610   0.0078230   0.0000000), wk =   0.0277778
        k(    9) = (   0.0157610   0.0234690   0.0000000), wk =   0.0277778
        k(   10) = (   0.0157610   0.0391149   0.0000000), wk =   0.0277778
        k(   11) = (   0.0157610   0.0547609   0.0000000), wk =   0.0277778
        k(   12) = (   0.0157610   0.0704069   0.0000000), wk =   0.0277778
        k(   13) = (   0.0157610   0.0860529   0.0000000), wk =   0.0277778
        k(   14) = (   0.0157610  -0.0860529   0.0000000), wk =   0.0277778
        k(   15) = (   0.0157610  -0.0704069   0.0000000), wk =   0.0277778
        k(   16) = (   0.0157610  -0.0547609   0.0000000), wk =   0.0277778
        k(   17) = (   0.0157610  -0.0391149   0.0000000), wk =   0.0277778
        k(   18) = (   0.0157610  -0.0234690   0.0000000), wk =   0.0277778
        k(   19) = (   0.0157610  -0.0078230   0.0000000), wk =   0.0277778
        k(   20) = (   0.0315220   0.0156460   0.0000000), wk =   0.0277778
        k(   21) = (   0.0315220   0.0312920   0.0000000), wk =   0.0277778
        k(   22) = (   0.0315220   0.0469379   0.0000000), wk =   0.0277778
        k(   23) = (   0.0315220   0.0625839   0.0000000), wk =   0.0277778
        k(   24) = (   0.0315220   0.0782299   0.0000000), wk =   0.0277778
        k(   25) = (   0.0315220   0.0938759   0.0000000), wk =   0.0277778
        k(   26) = (   0.0315220  -0.0782299   0.0000000), wk =   0.0277778
        k(   27) = (   0.0315220  -0.0625839   0.0000000), wk =   0.0277778
        k(   28) = (   0.0315220  -0.0469379   0.0000000), wk =   0.0277778
        k(   29) = (   0.0315220  -0.0312920   0.0000000), wk =   0.0277778
        k(   30) = (   0.0315220  -0.0156460   0.0000000), wk =   0.0277778
        k(   31) = (   0.0315220  -0.0000000   0.0000000), wk =   0.0277778
        k(   32) = (   0.0472830   0.0234690   0.0000000), wk =   0.0277778
        k(   33) = (   0.0472830   0.0391149   0.0000000), wk =   0.0277778
        k(   34) = (   0.0472830   0.0547609   0.0000000), wk =   0.0277778
        k(   35) = (   0.0472830   0.0704069   0.0000000), wk =   0.0277778
        k(   36) = (   0.0472830   0.0860529   0.0000000), wk =   0.0277778
        k(   37) = (   0.0472830   0.1016988   0.0000000), wk =   0.0277778
        k(   38) = (   0.0472830  -0.0704069   0.0000000), wk =   0.0277778
        k(   39) = (   0.0472830  -0.0547609   0.0000000), wk =   0.0277778
        k(   40) = (   0.0472830  -0.0391149   0.0000000), wk =   0.0277778
        k(   41) = (   0.0472830  -0.0234690   0.0000000), wk =   0.0277778
        k(   42) = (   0.0472830  -0.0078230   0.0000000), wk =   0.0277778
        k(   43) = (   0.0472830   0.0078230   0.0000000), wk =   0.0277778
        k(   44) = (   0.0630440   0.0312920   0.0000000), wk =   0.0277778
        k(   45) = (   0.0630440   0.0469379   0.0000000), wk =   0.0277778
        k(   46) = (   0.0630440   0.0625839   0.0000000), wk =   0.0277778
        k(   47) = (   0.0630440   0.0782299   0.0000000), wk =   0.0277778
        k(   48) = (   0.0630440   0.0938759   0.0000000), wk =   0.0277778
        k(   49) = (   0.0630440   0.1095218   0.0000000), wk =   0.0277778
        k(   50) = (   0.0630440  -0.0625839   0.0000000), wk =   0.0277778
        k(   51) = (   0.0630440  -0.0469379   0.0000000), wk =   0.0277778
        k(   52) = (   0.0630440  -0.0312920   0.0000000), wk =   0.0277778
        k(   53) = (   0.0630440  -0.0156460   0.0000000), wk =   0.0277778
        k(   54) = (   0.0630440   0.0000000   0.0000000), wk =   0.0277778
        k(   55) = (   0.0630440   0.0156460   0.0000000), wk =   0.0277778
        k(   56) = (   0.0788049   0.0391149   0.0000000), wk =   0.0277778
        k(   57) = (   0.0788049   0.0547609   0.0000000), wk =   0.0277778
        k(   58) = (   0.0788049   0.0704069   0.0000000), wk =   0.0277778
        k(   59) = (   0.0788049   0.0860529   0.0000000), wk =   0.0277778
        k(   60) = (   0.0788049   0.1016988   0.0000000), wk =   0.0277778
        k(   61) = (   0.0788049   0.1173448   0.0000000), wk =   0.0277778
        k(   62) = (   0.0788049  -0.0547609   0.0000000), wk =   0.0277778
        k(   63) = (   0.0788049  -0.0391149   0.0000000), wk =   0.0277778
        k(   64) = (   0.0788049  -0.0234690   0.0000000), wk =   0.0277778
        k(   65) = (   0.0788049  -0.0078230   0.0000000), wk =   0.0277778
        k(   66) = (   0.0788049   0.0078230   0.0000000), wk =   0.0277778
        k(   67) = (   0.0788049   0.0234690   0.0000000), wk =   0.0277778
        k(   68) = (  -0.0945659  -0.0469379   0.0000000), wk =   0.0138889
        k(   69) = (  -0.0945659  -0.0312920   0.0000000), wk =   0.0277778
        k(   70) = (  -0.0945659  -0.0156460   0.0000000), wk =   0.0277778
        k(   71) = (  -0.0945659   0.0000000   0.0000000), wk =   0.0277778
        k(   72) = (  -0.0945659   0.0156460   0.0000000), wk =   0.0277778
        k(   73) = (  -0.0945659   0.0312920   0.0000000), wk =   0.0277778
        k(   74) = (  -0.0945659  -0.1408138   0.0000000), wk =   0.0138889

     Dense  grid:  1021141 G-vectors     FFT dimensions: (  75,  90, 360)

     Smooth grid:   258527 G-vectors     FFT dimensions: (  48,  54, 225)

     Estimated max dynamical RAM per process >     204.23 MB

     Estimated total dynamical RAM >       7.38 GB

     Initial potential from superposition of free atoms

     starting charge  155.99382, renormalised to  156.00000

     negative rho (up, down):  6.008E-03 0.000E+00


     %%%%%%%%%%%%%%%%%%%%%%%%%%%%%%%%%%%%%%%%%%%%%%%%%%%%%%%%%%%%%%%%%%%%%%%%
     %                                                                      %
     % You are using vdW-DF, which was implemented by the Thonhauser group. %
     % Please cite the following two papers that made this development      %
     % possible and the two reviews that describe the various versions:     %
     %                                                                      %
     %   T. Thonhauser et al., PRL 115, 136402 (2015).                      %
     %   T. Thonhauser et al., PRB 76, 125112 (2007).                       %
     %   K. Berland et al., Rep. Prog. Phys. 78, 066501 (2015).             %
     %   D.C. Langreth et al., J. Phys.: Condens. Matter 21, 084203 (2009). %
     %                                                                      %
     %                                                                      %
     % If you are calculating the stress with vdW-DF, please also cite:     %
     %                                                                      %
     %   R. Sabatini et al., J. Phys.: Condens. Matter 24, 424209 (2012).   %
     %                                                                      %
     %%%%%%%%%%%%%%%%%%%%%%%%%%%%%%%%%%%%%%%%%%%%%%%%%%%%%%%%%%%%%%%%%%%%%%%%



     Adding external electric field

     Computed dipole along edir(3) : 
        Dipole               -0.0001 Ry au,         -0.0002 Debye
        Dipole field         -0.0000 Ry au, 

        Potential amp.        0.0000 Ry
        Total length         45.3067 bohr

     Starting wfcs are  132 randomized atomic wfcs

     total cpu time spent up to now is      117.3 secs

     Self-consistent Calculation

     iteration #  1     ecut=    55.12 Ry     beta= 0.10
     Davidson diagonalization with overlap
     ethr =  1.00E-02,  avg # of iterations =  2.1

     negative rho (up, down):  5.907E-03 0.000E+00

     Adding external electric field

     Computed dipole along edir(3) : 
        Dipole               -0.0530 Ry au,         -0.1348 Debye
        Dipole field         -0.0001 Ry au, 

        Potential amp.        0.0129 Ry
        Total length         45.3067 bohr


     total cpu time spent up to now is      319.1 secs

     total energy              =   -1597.39711367 Ry
     estimated scf accuracy    <       2.79097003 Ry

     iteration #  2     ecut=    55.12 Ry     beta= 0.10
     Davidson diagonalization with overlap
     ethr =  1.79E-03,  avg # of iterations =  2.0

     negative rho (up, down):  5.942E-03 0.000E+00

     Adding external electric field

     Computed dipole along edir(3) : 
        Dipole                0.4598 Ry au,          1.1688 Debye
        Dipole field          0.0012 Ry au, 

        Potential amp.       -0.1120 Ry
        Total length         45.3067 bohr


     total cpu time spent up to now is      527.8 secs

     total energy              =   -1597.48398801 Ry
     estimated scf accuracy    <       1.58809588 Ry

     iteration #  3     ecut=    55.12 Ry     beta= 0.10
     Davidson diagonalization with overlap
     ethr =  1.02E-03,  avg # of iterations =  1.9

     negative rho (up, down):  5.992E-03 0.000E+00

     Adding external electric field

     Computed dipole along edir(3) : 
        Dipole               -0.0454 Ry au,         -0.1154 Debye
        Dipole field         -0.0001 Ry au, 

        Potential amp.        0.0111 Ry
        Total length         45.3067 bohr


     total cpu time spent up to now is      726.2 secs

     total energy              =   -1597.37973828 Ry
     estimated scf accuracy    <       9.75825064 Ry

     iteration #  4     ecut=    55.12 Ry     beta= 0.10
     Davidson diagonalization with overlap
     ethr =  1.02E-03,  avg # of iterations =  1.1

     negative rho (up, down):  5.996E-03 0.000E+00

     Adding external electric field

     Computed dipole along edir(3) : 
        Dipole                0.0647 Ry au,          0.1645 Debye
        Dipole field          0.0002 Ry au, 

        Potential amp.       -0.0158 Ry
        Total length         45.3067 bohr


     total cpu time spent up to now is      900.5 secs

     total energy              =   -1597.56168113 Ry
     estimated scf accuracy    <       0.88182672 Ry

     iteration #  5     ecut=    55.12 Ry     beta= 0.10
     Davidson diagonalization with overlap
     ethr =  5.65E-04,  avg # of iterations =  1.2

     negative rho (up, down):  6.063E-03 0.000E+00

     Adding external electric field

     Computed dipole along edir(3) : 
        Dipole                0.0302 Ry au,          0.0769 Debye
        Dipole field          0.0001 Ry au, 

        Potential amp.       -0.0074 Ry
        Total length         45.3067 bohr


     total cpu time spent up to now is     1075.3 secs

     total energy              =   -1597.57377870 Ry
     estimated scf accuracy    <       0.07466344 Ry

     iteration #  6     ecut=    55.12 Ry     beta= 0.10
     Davidson diagonalization with overlap
     c_bands:  1 eigenvalues not converged
     ethr =  4.79E-05,  avg # of iterations =  4.2

     negative rho (up, down):  6.612E-03 0.000E+00

     Adding external electric field

     Computed dipole along edir(3) : 
        Dipole                0.0221 Ry au,          0.0562 Debye
        Dipole field          0.0001 Ry au, 

        Potential amp.       -0.0054 Ry
        Total length         45.3067 bohr


     total cpu time spent up to now is     1288.0 secs

     total energy              =   -1597.57384516 Ry
     estimated scf accuracy    <       0.03416997 Ry

     iteration #  7     ecut=    55.12 Ry     beta= 0.10
     Davidson diagonalization with overlap
     ethr =  2.19E-05,  avg # of iterations =  4.6

     negative rho (up, down):  7.103E-03 0.000E+00

     Adding external electric field

     Computed dipole along edir(3) : 
        Dipole                0.0424 Ry au,          0.1078 Debye
        Dipole field          0.0001 Ry au, 

        Potential amp.       -0.0103 Ry
        Total length         45.3067 bohr


     total cpu time spent up to now is     1507.2 secs

     total energy              =   -1597.57527193 Ry
     estimated scf accuracy    <       0.00910801 Ry

     iteration #  8     ecut=    55.12 Ry     beta= 0.10
     Davidson diagonalization with overlap
     ethr =  5.84E-06,  avg # of iterations =  6.8

     negative rho (up, down):  7.379E-03 0.000E+00

     Adding external electric field

     Computed dipole along edir(3) : 
        Dipole                0.0319 Ry au,          0.0811 Debye
        Dipole field          0.0001 Ry au, 

        Potential amp.       -0.0078 Ry
        Total length         45.3067 bohr


     total cpu time spent up to now is     1753.3 secs

     total energy              =   -1597.57549260 Ry
     estimated scf accuracy    <       0.00892010 Ry

     iteration #  9     ecut=    55.12 Ry     beta= 0.10
     Davidson diagonalization with overlap
     ethr =  5.72E-06,  avg # of iterations =  2.0

     negative rho (up, down):  7.298E-03 0.000E+00

     Adding external electric field

     Computed dipole along edir(3) : 
        Dipole                0.0295 Ry au,          0.0749 Debye
        Dipole field          0.0001 Ry au, 

        Potential amp.       -0.0072 Ry
        Total length         45.3067 bohr


     total cpu time spent up to now is     1963.1 secs

     total energy              =   -1597.57677554 Ry
     estimated scf accuracy    <       0.00142431 Ry

     iteration # 10     ecut=    55.12 Ry     beta= 0.10
     Davidson diagonalization with overlap
     ethr =  9.13E-07,  avg # of iterations =  1.7

     negative rho (up, down):  7.238E-03 0.000E+00

     Adding external electric field

     Computed dipole along edir(3) : 
        Dipole                0.0289 Ry au,          0.0735 Debye
        Dipole field          0.0001 Ry au, 

        Potential amp.       -0.0070 Ry
        Total length         45.3067 bohr


     total cpu time spent up to now is     2151.8 secs

     total energy              =   -1597.57666430 Ry
     estimated scf accuracy    <       0.00127804 Ry

     iteration # 11     ecut=    55.12 Ry     beta= 0.10
     Davidson diagonalization with overlap
     ethr =  8.19E-07,  avg # of iterations =  1.4

     negative rho (up, down):  7.046E-03 0.000E+00

     Adding external electric field

     Computed dipole along edir(3) : 
        Dipole                0.0318 Ry au,          0.0809 Debye
        Dipole field          0.0001 Ry au, 

        Potential amp.       -0.0078 Ry
        Total length         45.3067 bohr


     total cpu time spent up to now is     2332.9 secs

     total energy              =   -1597.57675829 Ry
     estimated scf accuracy    <       0.00019831 Ry

     iteration # 12     ecut=    55.12 Ry     beta= 0.10
     Davidson diagonalization with overlap
     ethr =  1.27E-07,  avg # of iterations =  2.5

     negative rho (up, down):  6.940E-03 0.000E+00

     Adding external electric field

     Computed dipole along edir(3) : 
        Dipole                0.0339 Ry au,          0.0861 Debye
        Dipole field          0.0001 Ry au, 

        Potential amp.       -0.0083 Ry
        Total length         45.3067 bohr


     total cpu time spent up to now is     2547.8 secs

     total energy              =   -1597.57679115 Ry
     estimated scf accuracy    <       0.00007019 Ry

     iteration # 13     ecut=    55.12 Ry     beta= 0.10
     Davidson diagonalization with overlap
     ethr =  4.50E-08,  avg # of iterations =  2.2

     negative rho (up, down):  6.812E-03 0.000E+00

     Adding external electric field

     Computed dipole along edir(3) : 
        Dipole                0.0341 Ry au,          0.0867 Debye
        Dipole field          0.0001 Ry au, 

        Potential amp.       -0.0083 Ry
        Total length         45.3067 bohr


     total cpu time spent up to now is     2756.7 secs

     total energy              =   -1597.57680727 Ry
     estimated scf accuracy    <       0.00002994 Ry

     iteration # 14     ecut=    55.12 Ry     beta= 0.10
     Davidson diagonalization with overlap
     ethr =  1.92E-08,  avg # of iterations =  2.4

     negative rho (up, down):  6.697E-03 0.000E+00

     Adding external electric field

     Computed dipole along edir(3) : 
        Dipole                0.0334 Ry au,          0.0850 Debye
        Dipole field          0.0001 Ry au, 

        Potential amp.       -0.0081 Ry
        Total length         45.3067 bohr


     total cpu time spent up to now is     2961.2 secs

     total energy              =   -1597.57681601 Ry
     estimated scf accuracy    <       0.00001303 Ry

     iteration # 15     ecut=    55.12 Ry     beta= 0.10
     Davidson diagonalization with overlap
     ethr =  8.35E-09,  avg # of iterations =  3.4

     negative rho (up, down):  6.117E-03 0.000E+00

     Adding external electric field

     Computed dipole along edir(3) : 
        Dipole                0.0344 Ry au,          0.0874 Debye
        Dipole field          0.0001 Ry au, 

        Potential amp.       -0.0084 Ry
        Total length         45.3067 bohr


     total cpu time spent up to now is     3182.2 secs

     End of self-consistent calculation

          k = 0.0000 0.0000 0.0000 ( 32325 PWs)   bands (ev):

   -66.2519 -66.1492 -65.8511 -65.7503 -65.7272 -65.6243 -38.8507 -38.7400
   -38.4243 -38.1496 -38.1274 -38.1045 -38.0514 -37.7787 -37.6843 -37.6065
   -37.5935 -37.5520 -37.5097 -37.4964 -37.2778 -37.2602 -37.2160 -37.1380
    -5.7645  -5.1725  -5.1665  -5.0387  -4.9641  -4.7969  -4.7003  -4.6485
    -4.5479  -4.5370  -4.3144  -4.2681  -4.2317  -4.1334  -3.9769  -3.9394
    -3.8251  -3.5608  -3.4239  -3.4074  -3.0487  -2.9952  -2.9137  -2.9069
    -2.8253  -2.6716  -2.6666  -2.4837  -2.4400  -2.2507  -2.1966  -2.0724
    -2.0034  -1.9728  -1.8631  -1.7487  -1.7371  -1.4935  -1.2956  -1.1634
    -0.7159  -0.6342  -0.6103  -0.2678   0.0882   0.1369   0.3779   0.4536
     0.6557   0.7003   0.9296   1.1286   1.3392   1.7302   1.9308   1.9843
     1.9844   2.1025   2.2945   2.3290   2.3292   2.4810   2.5475   2.7199
     2.7308   2.9876   3.5520   3.7689   4.0142   4.7222

          k = 0.0000 0.0156 0.0000 ( 32333 PWs)   bands (ev):

   -66.2519 -66.1492 -65.8511 -65.7503 -65.7272 -65.6243 -38.8507 -38.7400
   -38.4243 -38.1497 -38.1274 -38.1045 -38.0515 -37.7787 -37.6843 -37.6065
   -37.5936 -37.5520 -37.5097 -37.4964 -37.2778 -37.2602 -37.2160 -37.1380
    -5.7294  -5.1582  -5.1536  -5.0237  -4.9520  -4.7852  -4.6879  -4.6408
    -4.5192  -4.5167  -4.2987  -4.2560  -4.2174  -4.1161  -3.9774  -3.9103
    -3.8142  -3.5324  -3.4244  -3.3973  -3.0383  -3.0173  -2.9101  -2.9040
    -2.8212  -2.6828  -2.6744  -2.4899  -2.4360  -2.2484  -2.1961  -2.1033
    -2.0149  -2.0035  -1.8701  -1.7560  -1.7400  -1.5080  -1.3383  -1.1419
    -0.7547  -0.6951  -0.6257  -0.3383  -0.0101   0.0365   0.3871   0.5330
     0.6640   0.6951   0.9144   1.0059   1.1897   1.5880   1.8500   1.9700
     2.0086   2.0639   2.2067   2.2992   2.3333   2.4719   2.5398   2.5522
     2.9497   2.9861   3.5521   4.0574   4.1247   4.6699

          k = 0.0000 0.0313 0.0000 ( 32270 PWs)   bands (ev):

   -66.2519 -66.1492 -65.8511 -65.7503 -65.7272 -65.6243 -38.8508 -38.7400
   -38.4244 -38.1500 -38.1274 -38.1046 -38.0515 -37.7788 -37.6844 -37.6064
   -37.5938 -37.5520 -37.5097 -37.4965 -37.2778 -37.2602 -37.2160 -37.1380
    -5.6339  -5.1217  -5.1108  -4.9780  -4.9215  -4.7527  -4.6573  -4.6119
    -4.4691  -4.4274  -4.2504  -4.2225  -4.1802  -4.0659  -3.9789  -3.8253
    -3.7803  -3.4528  -3.4255  -3.3660  -3.0738  -3.0093  -2.9014  -2.8963
    -2.8095  -2.7255  -2.6854  -2.5072  -2.4247  -2.2425  -2.1943  -2.1933
    -2.1284  -2.0034  -1.8988  -1.7720  -1.7485  -1.5342  -1.4622  -1.1237
    -0.8554  -0.8521  -0.6837  -0.5051  -0.1810  -0.1247   0.1569   0.5991
     0.6810   0.6880   0.7866   0.8721   1.0060   1.2242   1.6724   1.7125
     1.8875   1.9319   2.1830   2.3380   2.3427   2.4466   2.5196   2.7258
     2.8644   3.4608   3.5526   4.2774   4.3425   4.5902

          k = 0.0000 0.0469 0.0000 ( 32300 PWs)   bands (ev):

   -66.2519 -66.1492 -65.8511 -65.7503 -65.7271 -65.6243 -38.8509 -38.7400
   -38.4245 -38.1503 -38.1274 -38.1047 -38.0516 -37.7789 -37.6844 -37.6064
   -37.5941 -37.5520 -37.5097 -37.4967 -37.2778 -37.2602 -37.2160 -37.1380
    -5.5107  -5.0771  -5.0274  -4.9039  -4.8815  -4.7106  -4.6161  -4.5552
    -4.3968  -4.2996  -4.1756  -4.1672  -4.1303  -3.9919  -3.9814  -3.7285
    -3.6970  -3.4261  -3.3386  -3.3148  -3.1348  -2.9720  -2.8953  -2.8869
    -2.7923  -2.7726  -2.7097  -2.5305  -2.4094  -2.3335  -2.2853  -2.2358
    -2.1902  -2.0036  -1.9632  -1.7981  -1.7618  -1.6404  -1.5601  -1.1969
    -1.0673  -0.9669  -0.7866  -0.6782  -0.3561  -0.3022  -0.1604   0.3190
     0.5386   0.6614   0.7116   0.7150   0.8393   0.9414   1.5203   1.6737
     1.7692   1.8817   2.1093   2.3506   2.4070   2.4139   2.4934   2.7802
     3.0617   3.5533   3.9663   4.1586   4.5130   4.5362

          k = 0.0000 0.0626 0.0000 ( 32308 PWs)   bands (ev):

   -66.2519 -66.1492 -65.8511 -65.7503 -65.7271 -65.6243 -38.8510 -38.7401
   -38.4247 -38.1506 -38.1275 -38.1048 -38.0517 -37.7789 -37.6845 -37.6064
   -37.5945 -37.5520 -37.5097 -37.4968 -37.2778 -37.2602 -37.2160 -37.1380
    -5.4088  -5.0367  -4.9244  -4.8170  -4.8166  -4.6788  -4.5401  -4.4844
    -4.3213  -4.1798  -4.1256  -4.0971  -4.0134  -3.9844  -3.9244  -3.6818
    -3.5522  -3.4254  -3.2907  -3.2218  -3.1134  -2.9475  -2.9148  -2.8785
    -2.7875  -2.7738  -2.7601  -2.5490  -2.4861  -2.4495  -2.3941  -2.2308
    -2.1842  -2.0771  -2.0037  -1.9053  -1.7791  -1.7491  -1.5945  -1.3450
    -1.2770  -1.1355  -0.8861  -0.7808  -0.5631  -0.4421  -0.4028   0.0074
     0.1342   0.4832   0.6038   0.6416   0.7349   0.9345   1.4491   1.6965
     1.8330   1.8368   2.1424   2.3432   2.3940   2.4270   2.4684   2.7222
     3.2985   3.5539   4.0335   4.2604   4.5073   4.7955

          k = 0.0000 0.0782 0.0000 ( 32260 PWs)   bands (ev):

   -66.2519 -66.1492 -65.8511 -65.7503 -65.7271 -65.6243 -38.8510 -38.7401
   -38.4248 -38.1509 -38.1275 -38.1048 -38.0518 -37.7790 -37.6846 -37.6064
   -37.5947 -37.5520 -37.5097 -37.4969 -37.2778 -37.2602 -37.2160 -37.1380
    -5.3520  -5.0084  -4.8795  -4.7440  -4.7258  -4.6639  -4.4438  -4.3714
    -4.2669  -4.1176  -4.0832  -4.0322  -3.9874  -3.9166  -3.8650  -3.6561
    -3.4311  -3.4238  -3.2893  -3.1618  -3.0233  -2.9943  -2.9399  -2.8727
    -2.8299  -2.7675  -2.7595  -2.5782  -2.5588  -2.5342  -2.3830  -2.2281
    -2.2096  -2.1784  -2.0468  -2.0037  -1.7977  -1.7772  -1.6471  -1.4689
    -1.4298  -1.3123  -0.9039  -0.8701  -0.6517  -0.6282  -0.5169  -0.3840
     0.0088   0.3105   0.4600   0.6269   0.7462   0.9331   1.4063   1.6705
     1.7981   1.9313   2.3035   2.3228   2.3933   2.4281   2.4504   2.6918
     3.2404   3.5544   4.1948   4.3203   4.4942   5.1976

          k = 0.0000-0.0939 0.0000 ( 32324 PWs)   bands (ev):

   -66.2519 -66.1492 -65.8511 -65.7503 -65.7271 -65.6243 -38.8511 -38.7401
   -38.4248 -38.1510 -38.1275 -38.1049 -38.0518 -37.7790 -37.6846 -37.6064
   -37.5948 -37.5520 -37.5097 -37.4970 -37.2778 -37.2602 -37.2160 -37.1380
    -5.3346  -4.9981  -4.8693  -4.7156  -4.6912  -4.6609  -4.4179  -4.2536
    -4.2482  -4.1040  -4.0644  -3.9904  -3.9896  -3.9549  -3.8152  -3.6297
    -3.4230  -3.3983  -3.2340  -3.1696  -3.1316  -2.9497  -2.9374  -2.8708
    -2.8412  -2.7542  -2.7501  -2.6049  -2.5713  -2.5328  -2.3790  -2.2555
    -2.2273  -2.1762  -2.1201  -2.0038  -1.8072  -1.7876  -1.6735  -1.5292
    -1.4847  -1.3780  -0.9139  -0.8091  -0.7312  -0.6928  -0.6666  -0.4616
    -0.0247   0.2478   0.4121   0.6214   0.7498   0.9328   1.3891   1.6669
     1.7854   1.9497   2.3136   2.3948   2.4195   2.4266   2.4437   2.6826
     3.1404   3.5546   4.3284   4.3655   4.4905   5.1770

          k = 0.0158 0.0078 0.0000 ( 32321 PWs)   bands (ev):

   -66.2502 -66.1510 -65.8494 -65.7521 -65.7254 -65.6260 -38.8488 -38.7419
   -38.4101 -38.1480 -38.1134 -38.0908 -38.0532 -37.7771 -37.6859 -37.6049
   -37.5919 -37.5674 -37.5113 -37.4981 -37.2929 -37.2753 -37.2146 -37.1393
    -5.7045  -5.1461  -5.1281  -5.0122  -4.9143  -4.7567  -4.6755  -4.6274
    -4.5214  -4.5119  -4.3089  -4.2632  -4.2072  -4.1056  -3.9527  -3.9153
    -3.8127  -3.5439  -3.4050  -3.4041  -3.0516  -3.0487  -2.9529  -2.8776
    -2.8365  -2.6776  -2.6311  -2.5000  -2.4775  -2.2886  -2.2413  -2.0407
    -2.0223  -1.9818  -1.8256  -1.7465  -1.6826  -1.5437  -1.2975  -1.1489
    -0.8173  -0.6567  -0.5990  -0.3202   0.0824   0.0897   0.3981   0.4153
     0.5818   0.6669   0.9258   1.0723   1.2418   1.5999   1.7435   1.8625
     1.9828   2.0829   2.1849   2.2205   2.3641   2.5579   2.6567   2.6884
     2.8652   2.9509   3.5050   3.9208   3.9680   4.3903

          k = 0.0158 0.0235 0.0000 ( 32321 PWs)   bands (ev):

   -66.2502 -66.1510 -65.8494 -65.7521 -65.7254 -65.6260 -38.8489 -38.7419
   -38.4101 -38.1482 -38.1135 -38.0908 -38.0532 -37.7771 -37.6860 -37.6049
   -37.5921 -37.5674 -37.5113 -37.4982 -37.2929 -37.2753 -37.2146 -37.1393
    -5.6365  -5.1193  -5.1023  -4.9824  -4.8913  -4.7329  -4.6523  -4.6135
    -4.4784  -4.4597  -4.2793  -4.2386  -4.1823  -4.0731  -3.9529  -3.8587
    -3.7898  -3.4905  -3.4057  -3.3840  -3.0821  -3.0316  -2.9502  -2.8755
    -2.8339  -2.7077  -2.6349  -2.5114  -2.4714  -2.2851  -2.2446  -2.0924
    -2.0622  -2.0338  -1.8355  -1.7554  -1.6949  -1.5633  -1.3784  -1.1268
    -0.8827  -0.7635  -0.6295  -0.4363  -0.0865  -0.0213   0.2206   0.4933
     0.6646   0.6842   0.8823   0.8919   1.0557   1.3644   1.5991   1.7196
     1.9178   2.0893   2.2054   2.2309   2.3542   2.4490   2.6017   2.6743
     2.8146   3.2444   3.5049   4.0513   4.3247   4.3776

          k = 0.0158 0.0391 0.0000 ( 32280 PWs)   bands (ev):

   -66.2502 -66.1510 -65.8494 -65.7521 -65.7254 -65.6260 -38.8490 -38.7419
   -38.4102 -38.1485 -38.1135 -38.0909 -38.0533 -37.7772 -37.6860 -37.6049
   -37.5924 -37.5674 -37.5113 -37.4983 -37.2929 -37.2753 -37.2146 -37.1393
    -5.5208  -5.0768  -5.0423  -4.9222  -4.8556  -4.6895  -4.6209  -4.5729
    -4.4157  -4.3489  -4.2224  -4.1917  -4.1407  -4.0121  -3.9535  -3.7520
    -3.7447  -3.4077  -3.3936  -3.3417  -3.1400  -2.9968  -2.9474  -2.8685
    -2.8266  -2.7549  -2.6488  -2.5316  -2.4619  -2.2834  -2.2662  -2.2035
    -2.1879  -2.0352  -1.8721  -1.7682  -1.7141  -1.5877  -1.5250  -1.1599
    -1.0027  -0.9125  -0.7042  -0.6069  -0.2264  -0.2246  -0.0859   0.4430
     0.5390   0.6822   0.7248   0.8012   0.9497   1.0095   1.5248   1.5275
     1.7895   1.9979   2.1218   2.3359   2.3466   2.4145   2.5060   2.6242
     3.0334   3.5074   3.7091   4.2229   4.3302   4.4064

          k = 0.0158 0.0548 0.0000 ( 32271 PWs)   bands (ev):

   -66.2502 -66.1510 -65.8494 -65.7520 -65.7254 -65.6260 -38.8491 -38.7420
   -38.4104 -38.1488 -38.1135 -38.0910 -38.0534 -37.7773 -37.6861 -37.6049
   -37.5927 -37.5674 -37.5113 -37.4984 -37.2929 -37.2753 -37.2147 -37.1393
    -5.4021  -5.0329  -4.9393  -4.8386  -4.8127  -4.6471  -4.5711  -4.5075
    -4.3393  -4.2258  -4.1607  -4.1045  -4.0832  -3.9537  -3.9393  -3.6917
    -3.6157  -3.4067  -3.2948  -3.2789  -3.1750  -2.9633  -2.9504  -2.8595
    -2.8192  -2.7883  -2.6855  -2.5532  -2.4599  -2.3861  -2.3735  -2.2732
    -2.2219  -2.0370  -1.9538  -1.7842  -1.7737  -1.6620  -1.6172  -1.2907
    -1.1901  -1.0425  -0.8015  -0.7434  -0.4775  -0.3803  -0.3251   0.1945
     0.2980   0.5093   0.5270   0.7449   0.7776   0.9350   1.4359   1.6290
     1.6990   1.9279   2.0941   2.3405   2.3970   2.3994   2.4345   2.5771
     3.3171   3.5272   3.9489   4.1345   4.3388   4.6902

          k = 0.0158 0.0704 0.0000 ( 32250 PWs)   bands (ev):

   -66.2502 -66.1510 -65.8494 -65.7520 -65.7254 -65.6260 -38.8491 -38.7420
   -38.4105 -38.1491 -38.1136 -38.0911 -38.0534 -37.7774 -37.6861 -37.6049
   -37.5929 -37.5675 -37.5113 -37.4985 -37.2929 -37.2753 -37.2147 -37.1393
    -5.3230  -4.9975  -4.8505  -4.7541  -4.7400  -4.6292  -4.4711  -4.4228
    -4.2719  -4.1572  -4.0900  -4.0497  -3.9688  -3.9182  -3.8987  -3.6602
    -3.4802  -3.4053  -3.3039  -3.1858  -3.0992  -2.9764  -2.9486  -2.8692
    -2.8476  -2.7835  -2.7374  -2.5653  -2.5222  -2.5187  -2.4252  -2.2722
    -2.2301  -2.0837  -2.0350  -1.9046  -1.8049  -1.6988  -1.6551  -1.4529
    -1.3584  -1.2088  -0.8561  -0.8315  -0.6872  -0.5646  -0.4130  -0.1892
     0.0758   0.3225   0.4488   0.6338   0.7483   0.9353   1.3950   1.6499
     1.7124   1.9166   2.1732   2.3241   2.3967   2.4129   2.4148   2.5467
     3.3804   3.5596   4.0209   4.1345   4.3256   5.1783

          k = 0.0158 0.0861 0.0000 ( 32270 PWs)   bands (ev):

   -66.2502 -66.1510 -65.8494 -65.7520 -65.7254 -65.6260 -38.8492 -38.7420
   -38.4105 -38.1493 -38.1136 -38.0911 -38.0535 -37.7774 -37.6862 -37.6049
   -37.5931 -37.5675 -37.5113 -37.4986 -37.2929 -37.2753 -37.2147 -37.1393
    -5.2878  -4.9775  -4.8236  -4.6999  -4.6742  -4.6273  -4.4163  -4.2603
    -4.2352  -4.1344  -4.0399  -3.9993  -3.9643  -3.9323  -3.8045  -3.6454
    -3.4079  -3.4042  -3.2652  -3.1668  -3.0867  -3.0136  -2.9476  -2.9445
    -2.8609  -2.7664  -2.7084  -2.6045  -2.5509  -2.5481  -2.4153  -2.2735
    -2.2371  -2.1796  -2.0437  -1.9958  -1.8264  -1.7131  -1.6791  -1.5709
    -1.4659  -1.3178  -0.9031  -0.8026  -0.8006  -0.6254  -0.5857  -0.4188
     0.0065   0.2035   0.3992   0.5800   0.7522   0.9363   1.3702   1.6359
     1.7169   1.9271   2.2622   2.3082   2.3869   2.4154   2.4711   2.5331
     3.2775   3.5345   4.0477   4.3095   4.3776   5.5183

          k = 0.0158-0.0861 0.0000 ( 32270 PWs)   bands (ev):

   -66.2502 -66.1510 -65.8494 -65.7520 -65.7254 -65.6260 -38.8492 -38.7420
   -38.4105 -38.1493 -38.1136 -38.0911 -38.0535 -37.7774 -37.6862 -37.6049
   -37.5931 -37.5675 -37.5113 -37.4986 -37.2929 -37.2753 -37.2147 -37.1393
    -5.2878  -4.9775  -4.8236  -4.6999  -4.6742  -4.6274  -4.4163  -4.2603
    -4.2352  -4.1344  -4.0399  -3.9994  -3.9642  -3.9323  -3.8045  -3.6454
    -3.4079  -3.4042  -3.2652  -3.1668  -3.0867  -3.0136  -2.9476  -2.9445
    -2.8610  -2.7664  -2.7084  -2.6046  -2.5509  -2.5481  -2.4153  -2.2734
    -2.2370  -2.1797  -2.0437  -1.9958  -1.8264  -1.7131  -1.6791  -1.5708
    -1.4660  -1.3177  -0.9031  -0.8026  -0.8006  -0.6255  -0.5857  -0.4188
     0.0065   0.2035   0.3991   0.5800   0.7521   0.9363   1.3702   1.6359
     1.7169   1.9271   2.2622   2.3082   2.3869   2.4154   2.4711   2.5331
     3.2775   3.5345   4.0477   4.3095   4.3776   5.5192

          k = 0.0158-0.0704 0.0000 ( 32250 PWs)   bands (ev):

   -66.2502 -66.1510 -65.8494 -65.7520 -65.7254 -65.6260 -38.8491 -38.7420
   -38.4105 -38.1491 -38.1136 -38.0911 -38.0534 -37.7774 -37.6861 -37.6049
   -37.5929 -37.5675 -37.5113 -37.4985 -37.2929 -37.2753 -37.2147 -37.1393
    -5.3230  -4.9975  -4.8505  -4.7541  -4.7400  -4.6292  -4.4711  -4.4228
    -4.2718  -4.1572  -4.0900  -4.0497  -3.9687  -3.9182  -3.8987  -3.6602
    -3.4802  -3.4053  -3.3039  -3.1858  -3.0991  -2.9764  -2.9486  -2.8692
    -2.8477  -2.7835  -2.7373  -2.5653  -2.5222  -2.5188  -2.4252  -2.2721
    -2.2300  -2.0838  -2.0350  -1.9046  -1.8049  -1.6989  -1.6551  -1.4529
    -1.3585  -1.2088  -0.8561  -0.8314  -0.6872  -0.5647  -0.4130  -0.1892
     0.0758   0.3225   0.4488   0.6339   0.7482   0.9353   1.3950   1.6499
     1.7124   1.9166   2.1732   2.3241   2.3967   2.4129   2.4148   2.5467
     3.3805   3.5596   4.0209   4.1344   4.3256   5.1785

          k = 0.0158-0.0548 0.0000 ( 32271 PWs)   bands (ev):

   -66.2502 -66.1510 -65.8494 -65.7520 -65.7254 -65.6260 -38.8491 -38.7420
   -38.4104 -38.1488 -38.1135 -38.0910 -38.0534 -37.7773 -37.6861 -37.6049
   -37.5927 -37.5674 -37.5113 -37.4984 -37.2929 -37.2753 -37.2147 -37.1393
    -5.4021  -5.0330  -4.9393  -4.8386  -4.8127  -4.6471  -4.5711  -4.5075
    -4.3393  -4.2258  -4.1607  -4.1046  -4.0831  -3.9537  -3.9393  -3.6918
    -3.6157  -3.4067  -3.2948  -3.2789  -3.1750  -2.9633  -2.9504  -2.8596
    -2.8192  -2.7883  -2.6855  -2.5532  -2.4599  -2.3861  -2.3736  -2.2732
    -2.2219  -2.0370  -1.9538  -1.7842  -1.7737  -1.6620  -1.6172  -1.2907
    -1.1902  -1.0425  -0.8015  -0.7433  -0.4774  -0.3804  -0.3251   0.1945
     0.2980   0.5092   0.5270   0.7448   0.7777   0.9350   1.4359   1.6290
     1.6990   1.9279   2.0941   2.3405   2.3970   2.3994   2.4345   2.5771
     3.3171   3.5272   3.9490   4.1345   4.3388   4.6902

          k = 0.0158-0.0391 0.0000 ( 32280 PWs)   bands (ev):

   -66.2502 -66.1510 -65.8494 -65.7521 -65.7254 -65.6260 -38.8490 -38.7419
   -38.4102 -38.1485 -38.1135 -38.0909 -38.0533 -37.7772 -37.6860 -37.6049
   -37.5924 -37.5674 -37.5113 -37.4983 -37.2929 -37.2753 -37.2146 -37.1393
    -5.5208  -5.0768  -5.0423  -4.9222  -4.8556  -4.6895  -4.6209  -4.5729
    -4.4157  -4.3489  -4.2224  -4.1918  -4.1407  -4.0121  -3.9535  -3.7520
    -3.7447  -3.4077  -3.3936  -3.3417  -3.1400  -2.9968  -2.9474  -2.8685
    -2.8265  -2.7549  -2.6488  -2.5316  -2.4619  -2.2833  -2.2663  -2.2035
    -2.1880  -2.0352  -1.8721  -1.7682  -1.7141  -1.5877  -1.5250  -1.1599
    -1.0027  -0.9125  -0.7042  -0.6068  -0.2263  -0.2246  -0.0859   0.4429
     0.5391   0.6822   0.7248   0.8011   0.9498   1.0095   1.5247   1.5275
     1.7895   1.9979   2.1218   2.3359   2.3466   2.4144   2.5060   2.6242
     3.0334   3.5074   3.7093   4.2228   4.3302   4.4065

          k = 0.0158-0.0235 0.0000 ( 32321 PWs)   bands (ev):

   -66.2502 -66.1510 -65.8494 -65.7521 -65.7254 -65.6260 -38.8489 -38.7419
   -38.4101 -38.1482 -38.1135 -38.0908 -38.0532 -37.7771 -37.6860 -37.6049
   -37.5921 -37.5674 -37.5113 -37.4982 -37.2929 -37.2753 -37.2146 -37.1393
    -5.6365  -5.1193  -5.1023  -4.9824  -4.8913  -4.7329  -4.6523  -4.6135
    -4.4784  -4.4596  -4.2793  -4.2386  -4.1823  -4.0731  -3.9529  -3.8586
    -3.7898  -3.4905  -3.4057  -3.3840  -3.0821  -3.0316  -2.9502  -2.8755
    -2.8339  -2.7077  -2.6349  -2.5114  -2.4714  -2.2850  -2.2446  -2.0924
    -2.0623  -2.0338  -1.8355  -1.7554  -1.6949  -1.5632  -1.3784  -1.1268
    -0.8827  -0.7635  -0.6295  -0.4362  -0.0866  -0.0214   0.2206   0.4934
     0.6645   0.6842   0.8823   0.8919   1.0558   1.3643   1.5991   1.7196
     1.9177   2.0894   2.2054   2.2309   2.3542   2.4490   2.6017   2.6742
     2.8146   3.2446   3.5049   4.0513   4.3247   4.3780

          k = 0.0158-0.0078 0.0000 ( 32321 PWs)   bands (ev):

   -66.2502 -66.1510 -65.8494 -65.7521 -65.7254 -65.6260 -38.8488 -38.7419
   -38.4101 -38.1480 -38.1134 -38.0908 -38.0532 -37.7771 -37.6859 -37.6049
   -37.5919 -37.5674 -37.5113 -37.4981 -37.2929 -37.2753 -37.2146 -37.1393
    -5.7045  -5.1461  -5.1281  -5.0122  -4.9143  -4.7567  -4.6755  -4.6274
    -4.5214  -4.5119  -4.3089  -4.2632  -4.2072  -4.1056  -3.9527  -3.9153
    -3.8127  -3.5439  -3.4050  -3.4041  -3.0516  -3.0487  -2.9528  -2.8777
    -2.8365  -2.6776  -2.6311  -2.5000  -2.4775  -2.2885  -2.2413  -2.0407
    -2.0223  -1.9818  -1.8256  -1.7465  -1.6826  -1.5437  -1.2975  -1.1489
    -0.8173  -0.6567  -0.5990  -0.3201   0.0824   0.0897   0.3981   0.4154
     0.5817   0.6669   0.9258   1.0723   1.2418   1.5998   1.7435   1.8625
     1.9828   2.0829   2.1849   2.2205   2.3641   2.5579   2.6566   2.6884
     2.8653   2.9509   3.5050   3.9207   3.9680   4.3904

          k = 0.0315 0.0156 0.0000 ( 32280 PWs)   bands (ev):

   -66.2451 -66.1562 -65.8445 -65.7571 -65.7203 -65.6312 -38.8434 -38.7475
   -38.3682 -38.1432 -38.0725 -38.0582 -38.0504 -37.7725 -37.6907 -37.6139
   -37.5992 -37.5871 -37.5162 -37.5031 -37.3369 -37.3194 -37.2107 -37.1432
    -5.5282  -5.0686  -5.0195  -4.9340  -4.7716  -4.6614  -4.6084  -4.5339
    -4.4481  -4.4394  -4.2926  -4.2546  -4.1324  -4.0311  -3.8836  -3.8474
    -3.7727  -3.4978  -3.4005  -3.3491  -3.1891  -3.0606  -3.0127  -2.9288
    -2.7831  -2.7100  -2.5938  -2.5485  -2.5167  -2.3977  -2.3341  -2.1278
    -2.0072  -1.9347  -1.7841  -1.6960  -1.6949  -1.4869  -1.2998  -1.1212
    -1.0595  -0.7878  -0.5850  -0.4237  -0.0002   0.0697   0.2208   0.2291
     0.5833   0.6780   0.8980   0.9099   1.0573   1.2204   1.4884   1.6697
     1.8298   1.8971   2.0396   2.2005   2.2568   2.2957   2.8403   2.8407
     2.9378   3.2500   3.4006   3.5636   3.8903   4.3334

          k = 0.0315 0.0313 0.0000 ( 32280 PWs)   bands (ev):

   -66.2451 -66.1562 -65.8444 -65.7571 -65.7203 -65.6312 -38.8434 -38.7476
   -38.3683 -38.1434 -38.0726 -38.0582 -38.0505 -37.7725 -37.6908 -37.6139
   -37.5992 -37.5873 -37.5162 -37.5032 -37.3369 -37.3194 -37.2107 -37.1432
    -5.4309  -5.0322  -4.9841  -4.8907  -4.7369  -4.6317  -4.5688  -4.5237
    -4.3959  -4.3596  -4.2603  -4.2152  -4.1003  -3.9908  -3.8826  -3.7710
    -3.7363  -3.4300  -3.3717  -3.3499  -3.2215  -3.0337  -3.0277  -2.9235
    -2.7836  -2.7469  -2.5961  -2.5624  -2.5206  -2.3944  -2.3330  -2.1350
    -2.1217  -2.0365  -1.8061  -1.7129  -1.7002  -1.5075  -1.3985  -1.1800
    -1.0799  -0.8933  -0.6143  -0.5502  -0.1256  -0.1207  -0.0564   0.2006
     0.6001   0.6703   0.7991   0.8095   0.9553   1.0367   1.3474   1.4467
     1.7402   1.8951   2.1079   2.2057   2.2911   2.3313   2.5215   2.8482
     3.1644   3.3256   3.3972   3.6409   4.0164   4.6379

          k = 0.0315 0.0469 0.0000 ( 32284 PWs)   bands (ev):

   -66.2451 -66.1562 -65.8444 -65.7571 -65.7203 -65.6312 -38.8435 -38.7476
   -38.3684 -38.1437 -38.0726 -38.0583 -38.0506 -37.7726 -37.6908 -37.6139
   -37.5991 -37.5876 -37.5162 -37.5033 -37.3369 -37.3194 -37.2107 -37.1432
    -5.3043  -4.9870  -4.9109  -4.8185  -4.6984  -4.5777  -4.5185  -4.4993
    -4.3272  -4.2509  -4.2088  -4.1425  -4.0551  -3.9307  -3.8816  -3.6837
    -3.6580  -3.3536  -3.3313  -3.3311  -3.2621  -3.0471  -2.9987  -2.9179
    -2.7860  -2.7772  -2.6106  -2.5819  -2.5306  -2.3991  -2.3340  -2.2890
    -2.2048  -2.1147  -1.8245  -1.7447  -1.7433  -1.5710  -1.4877  -1.2923
    -1.1720  -1.0056  -0.6901  -0.6723  -0.4769  -0.2635  -0.2224   0.1593
     0.3729   0.4918   0.5910   0.7554   0.8572   0.9280   1.3448   1.3908
     1.6600   1.8597   2.1390   2.1559   2.2871   2.3625   2.3694   2.6093
     3.3245   3.4118   3.5330   3.9797   4.3367   4.4337

          k = 0.0315 0.0626 0.0000 ( 32280 PWs)   bands (ev):

   -66.2451 -66.1562 -65.8444 -65.7571 -65.7203 -65.6312 -38.8436 -38.7476
   -38.3685 -38.1441 -38.0726 -38.0583 -38.0506 -37.7727 -37.6909 -37.6139
   -37.5991 -37.5879 -37.5162 -37.5034 -37.3369 -37.3195 -37.2107 -37.1432
    -5.2025  -4.9458  -4.7960  -4.7303  -4.6668  -4.5118  -4.4786  -4.4265
    -4.2575  -4.1982  -4.1210  -4.0276  -3.9892  -3.8779  -3.8765  -3.6405
    -3.5315  -3.3535  -3.3502  -3.2377  -3.2197  -3.0774  -2.9744  -2.9148
    -2.7976  -2.7720  -2.6552  -2.5980  -2.5612  -2.4664  -2.4340  -2.3513
    -2.2864  -2.1248  -1.8539  -1.8478  -1.7794  -1.6833  -1.5072  -1.4233
    -1.3235  -1.1295  -0.8454  -0.7213  -0.7084  -0.4669  -0.2906  -0.0168
     0.1978   0.2559   0.3435   0.7138   0.7474   0.9324   1.3212   1.5040
     1.5976   1.8028   2.1062   2.1482   2.2582   2.3435   2.3880   2.5183
     3.3535   3.4259   3.7723   4.0303   4.2255   4.7149

          k = 0.0315 0.0782 0.0000 ( 32259 PWs)   bands (ev):

   -66.2451 -66.1562 -65.8444 -65.7571 -65.7203 -65.6312 -38.8437 -38.7476
   -38.3686 -38.1443 -38.0727 -38.0584 -38.0507 -37.7727 -37.6909 -37.6139
   -37.5991 -37.5881 -37.5162 -37.5035 -37.3369 -37.3195 -37.2107 -37.1432
    -5.1495  -4.9168  -4.7055  -4.6545  -4.6424  -4.4931  -4.4119  -4.2755
    -4.2135  -4.1696  -4.0460  -3.9744  -3.8985  -3.8796  -3.8185  -3.6350
    -3.4385  -3.3537  -3.3489  -3.1823  -3.1782  -3.1110  -2.9655  -2.9325
    -2.8395  -2.7922  -2.6991  -2.6064  -2.5824  -2.5681  -2.4550  -2.3673
    -2.2908  -2.1290  -1.9652  -1.9039  -1.7956  -1.7747  -1.5517  -1.5134
    -1.4371  -1.2483  -0.9915  -0.8250  -0.7059  -0.5763  -0.3520  -0.2950
     0.0823   0.0920   0.2880   0.6009   0.7468   0.9391   1.3105   1.5582
     1.5657   1.7687   2.0937   2.1517   2.2444   2.3242   2.3933   2.5652
     3.3745   3.4372   3.6720   4.0333   4.4198   4.7675

          k = 0.0315 0.0939 0.0000 ( 32262 PWs)   bands (ev):

   -66.2451 -66.1562 -65.8444 -65.7571 -65.7203 -65.6312 -38.8437 -38.7476
   -38.3687 -38.1444 -38.0727 -38.0584 -38.0507 -37.7727 -37.6909 -37.6139
   -37.5991 -37.5882 -37.5162 -37.5035 -37.3369 -37.3195 -37.2107 -37.1432
    -5.1339  -4.9063  -4.6805  -4.6311  -4.6240  -4.4876  -4.3896  -4.2015
    -4.1578  -4.1372  -4.0139  -3.9530  -3.9355  -3.8965  -3.7313  -3.6565
    -3.4335  -3.3491  -3.2867  -3.2204  -3.1768  -3.0954  -2.9886  -2.9622
    -2.8716  -2.7976  -2.7029  -2.6221  -2.5913  -2.5427  -2.4571  -2.3747
    -2.2860  -2.1310  -2.0209  -1.9310  -1.8145  -1.7952  -1.6134  -1.5158
    -1.4772  -1.2965  -1.0419  -0.8746  -0.6335  -0.6018  -0.5035  -0.3468
     0.0346   0.0464   0.2806   0.5594   0.7472   0.9417   1.3050   1.5578
     1.5647   1.7637   2.0898   2.1527   2.2368   2.3219   2.3940   2.6112
     3.4009   3.4419   3.5538   4.0309   4.6221   4.7785

          k = 0.0315-0.0782 0.0000 ( 32259 PWs)   bands (ev):

   -66.2451 -66.1562 -65.8444 -65.7571 -65.7203 -65.6312 -38.8437 -38.7476
   -38.3686 -38.1443 -38.0727 -38.0584 -38.0507 -37.7727 -37.6909 -37.6139
   -37.5991 -37.5881 -37.5162 -37.5035 -37.3369 -37.3195 -37.2107 -37.1432
    -5.1495  -4.9168  -4.7055  -4.6545  -4.6424  -4.4931  -4.4119  -4.2755
    -4.2135  -4.1696  -4.0460  -3.9744  -3.8984  -3.8796  -3.8185  -3.6350
    -3.4385  -3.3537  -3.3489  -3.1823  -3.1782  -3.1110  -2.9655  -2.9325
    -2.8395  -2.7922  -2.6991  -2.6064  -2.5824  -2.5682  -2.4549  -2.3673
    -2.2907  -2.1290  -1.9653  -1.9039  -1.7957  -1.7747  -1.5517  -1.5134
    -1.4370  -1.2483  -0.9915  -0.8250  -0.7059  -0.5763  -0.3520  -0.2950
     0.0823   0.0920   0.2879   0.6009   0.7468   0.9391   1.3104   1.5582
     1.5657   1.7687   2.0936   2.1516   2.2444   2.3242   2.3933   2.5652
     3.3745   3.4372   3.6721   4.0333   4.4197   4.7675

          k = 0.0315-0.0626 0.0000 ( 32280 PWs)   bands (ev):

   -66.2451 -66.1562 -65.8444 -65.7571 -65.7203 -65.6312 -38.8436 -38.7476
   -38.3685 -38.1441 -38.0726 -38.0583 -38.0506 -37.7727 -37.6909 -37.6139
   -37.5991 -37.5879 -37.5162 -37.5034 -37.3369 -37.3195 -37.2107 -37.1432
    -5.2025  -4.9458  -4.7960  -4.7303  -4.6668  -4.5118  -4.4786  -4.4265
    -4.2575  -4.1982  -4.1210  -4.0276  -3.9892  -3.8780  -3.8765  -3.6405
    -3.5315  -3.3535  -3.3501  -3.2377  -3.2197  -3.0774  -2.9743  -2.9149
    -2.7976  -2.7720  -2.6552  -2.5980  -2.5613  -2.4664  -2.4339  -2.3513
    -2.2863  -2.1248  -1.8538  -1.8478  -1.7794  -1.6832  -1.5072  -1.4233
    -1.3235  -1.1296  -0.8454  -0.7213  -0.7083  -0.4670  -0.2906  -0.0168
     0.1978   0.2559   0.3435   0.7139   0.7473   0.9325   1.3212   1.5040
     1.5976   1.8028   2.1062   2.1481   2.2582   2.3435   2.3881   2.5183
     3.3535   3.4259   3.7723   4.0303   4.2255   4.7151

          k = 0.0315-0.0469 0.0000 ( 32284 PWs)   bands (ev):

   -66.2451 -66.1562 -65.8444 -65.7571 -65.7203 -65.6312 -38.8435 -38.7476
   -38.3684 -38.1437 -38.0726 -38.0583 -38.0506 -37.7726 -37.6908 -37.6139
   -37.5991 -37.5876 -37.5162 -37.5033 -37.3369 -37.3194 -37.2107 -37.1432
    -5.3043  -4.9870  -4.9108  -4.8185  -4.6984  -4.5777  -4.5185  -4.4993
    -4.3272  -4.2509  -4.2088  -4.1426  -4.0551  -3.9307  -3.8816  -3.6837
    -3.6580  -3.3536  -3.3313  -3.3310  -3.2621  -3.0470  -2.9987  -2.9180
    -2.7860  -2.7772  -2.6106  -2.5819  -2.5307  -2.3990  -2.3340  -2.2891
    -2.2048  -2.1148  -1.8245  -1.7447  -1.7433  -1.5710  -1.4877  -1.2923
    -1.1720  -1.0057  -0.6900  -0.6723  -0.4769  -0.2635  -0.2224   0.1593
     0.3729   0.4918   0.5910   0.7554   0.8573   0.9281   1.3447   1.3907
     1.6600   1.8597   2.1388   2.1559   2.2871   2.3625   2.3694   2.6093
     3.3245   3.4119   3.5329   3.9798   4.3367   4.4337

          k = 0.0315-0.0313 0.0000 ( 32280 PWs)   bands (ev):

   -66.2451 -66.1562 -65.8444 -65.7571 -65.7203 -65.6312 -38.8434 -38.7476
   -38.3683 -38.1434 -38.0726 -38.0582 -38.0505 -37.7725 -37.6908 -37.6139
   -37.5992 -37.5873 -37.5162 -37.5032 -37.3369 -37.3194 -37.2107 -37.1432
    -5.4309  -5.0322  -4.9841  -4.8907  -4.7369  -4.6317  -4.5688  -4.5237
    -4.3959  -4.3596  -4.2603  -4.2153  -4.1003  -3.9908  -3.8827  -3.7710
    -3.7363  -3.4300  -3.3717  -3.3499  -3.2215  -3.0337  -3.0276  -2.9236
    -2.7836  -2.7469  -2.5961  -2.5624  -2.5206  -2.3943  -2.3329  -2.1350
    -2.1218  -2.0365  -1.8061  -1.7128  -1.7003  -1.5075  -1.3985  -1.1800
    -1.0799  -0.8934  -0.6143  -0.5500  -0.1257  -0.1207  -0.0564   0.2007
     0.6001   0.6703   0.7990   0.8094   0.9554   1.0367   1.3474   1.4467
     1.7402   1.8951   2.1077   2.2056   2.2911   2.3314   2.5216   2.8482
     3.1643   3.3257   3.3972   3.6408   4.0164   4.6379

          k = 0.0315-0.0156 0.0000 ( 32280 PWs)   bands (ev):

   -66.2451 -66.1562 -65.8445 -65.7571 -65.7203 -65.6312 -38.8434 -38.7475
   -38.3682 -38.1432 -38.0725 -38.0582 -38.0504 -37.7725 -37.6907 -37.6139
   -37.5992 -37.5871 -37.5162 -37.5031 -37.3369 -37.3194 -37.2107 -37.1432
    -5.5282  -5.0686  -5.0195  -4.9340  -4.7716  -4.6614  -4.6084  -4.5339
    -4.4481  -4.4394  -4.2926  -4.2547  -4.1324  -4.0311  -3.8837  -3.8474
    -3.7727  -3.4978  -3.4005  -3.3491  -3.1891  -3.0606  -3.0127  -2.9289
    -2.7831  -2.7099  -2.5938  -2.5485  -2.5167  -2.3976  -2.3341  -2.1278
    -2.0073  -1.9348  -1.7841  -1.6959  -1.6949  -1.4869  -1.2998  -1.1212
    -1.0595  -0.7879  -0.5850  -0.4236  -0.0003   0.0697   0.2209   0.2292
     0.5832   0.6780   0.8980   0.9099   1.0573   1.2204   1.4885   1.6698
     1.8297   1.8972   2.0395   2.2004   2.2568   2.2958   2.8404   2.8407
     2.9379   3.2500   3.4005   3.5635   3.8905   4.3333

          k = 0.0315-0.0000 0.0000 ( 32287 PWs)   bands (ev):

   -66.2451 -66.1562 -65.8445 -65.7571 -65.7203 -65.6312 -38.8434 -38.7475
   -38.3682 -38.1431 -38.0725 -38.0582 -38.0504 -37.7724 -37.6907 -37.6139
   -37.5992 -37.5871 -37.5162 -37.5031 -37.3369 -37.3194 -37.2107 -37.1432
    -5.5636  -5.0825  -5.0300  -4.9481  -4.7857  -4.6710  -4.6221  -4.5374
    -4.4761  -4.4581  -4.3044  -4.2680  -4.1441  -4.0450  -3.8843  -3.8739
    -3.7848  -3.5224  -3.4099  -3.3486  -3.1788  -3.0704  -3.0065  -2.9311
    -2.7814  -2.6956  -2.5941  -2.5436  -2.5159  -2.3996  -2.3346  -2.1264
    -1.9694  -1.8951  -1.7694  -1.6988  -1.6906  -1.4799  -1.2623  -1.1198
    -1.0448  -0.7452  -0.5788  -0.3718   0.0667   0.1130   0.2782   0.3627
     0.4651   0.6567   0.9297   0.9918   1.1521   1.2594   1.6234   1.7792
     1.8008   1.8663   2.1732   2.1766   2.2488   2.3149   2.4295   2.8053
     3.1741   3.3955   3.4833   3.6209   3.7795   4.1113

          k = 0.0473 0.0235 0.0000 ( 32296 PWs)   bands (ev):

   -66.2370 -66.1644 -65.8365 -65.7652 -65.7122 -65.6395 -38.8347 -38.7565
   -38.3013 -38.1356 -38.0661 -38.0071 -37.9858 -37.7650 -37.6983 -37.6850
   -37.5922 -37.5796 -37.5239 -37.5110 -37.4066 -37.3892 -37.2045 -37.1494
    -5.2483  -4.9446  -4.8609  -4.8083  -4.6048  -4.5231  -4.4964  -4.3561
    -4.3345  -4.3193  -4.2826  -4.2133  -4.0157  -3.9332  -3.7800  -3.7609
    -3.7021  -3.4359  -3.4333  -3.3365  -3.2626  -3.1663  -3.0752  -2.9194
    -2.8063  -2.7641  -2.6837  -2.6263  -2.5749  -2.4736  -2.3196  -2.2538
    -2.0498  -1.9963  -1.8328  -1.8126  -1.4757  -1.4656  -1.3005  -1.1492
    -1.1150  -0.9687  -0.6300  -0.5153  -0.1545  -0.0504   0.0733   0.0909
     0.5307   0.6592   0.7353   0.7718   0.9151   0.9613   1.2180   1.2806
     1.5542   1.7194   1.7469   2.0570   2.0992   2.3350   2.8674   2.9537
     2.9626   3.1739   3.3906   3.4159   3.5505   3.9398

          k = 0.0473 0.0391 0.0000 ( 32310 PWs)   bands (ev):

   -66.2370 -66.1644 -65.8365 -65.7652 -65.7122 -65.6395 -38.8348 -38.7565
   -38.3014 -38.1358 -38.0662 -38.0072 -37.9859 -37.7651 -37.6984 -37.6850
   -37.5922 -37.5798 -37.5239 -37.5110 -37.4066 -37.3892 -37.2045 -37.1494
    -5.1262  -4.9021  -4.8277  -4.7544  -4.5544  -4.4881  -4.4679  -4.3124
    -4.3019  -4.2606  -4.2339  -4.1520  -3.9788  -3.8966  -3.7787  -3.6881
    -3.6546  -3.4381  -3.3702  -3.3305  -3.2623  -3.1872  -3.0478  -2.9207
    -2.8215  -2.7957  -2.6712  -2.6409  -2.5829  -2.4812  -2.2995  -2.2541
    -2.1925  -2.0236  -1.9882  -1.8510  -1.5340  -1.4820  -1.3958  -1.1790
    -1.1683  -1.0390  -0.6248  -0.6148  -0.4194  -0.2088  -0.0761   0.0164
     0.4404   0.4676   0.6563   0.7177   0.8462   0.8847   1.1632   1.2149
     1.5134   1.7066   1.7089   2.0574   2.2126   2.3878   2.5614   2.8933
     3.0034   3.2169   3.3754   3.6794   3.6812   4.2566

          k = 0.0473 0.0548 0.0000 ( 32317 PWs)   bands (ev):

   -66.2370 -66.1644 -65.8365 -65.7652 -65.7122 -65.6395 -38.8349 -38.7565
   -38.3015 -38.1361 -38.0662 -38.0072 -37.9860 -37.7652 -37.6984 -37.6850
   -37.5921 -37.5801 -37.5239 -37.5111 -37.4066 -37.3892 -37.2045 -37.1495
    -4.9997  -4.8566  -4.7576  -4.6738  -4.4884  -4.4626  -4.4081  -4.2795
    -4.2764  -4.2074  -4.1370  -4.0531  -3.9317  -3.8507  -3.7766  -3.6031
    -3.6005  -3.4704  -3.3043  -3.2986  -3.2567  -3.2063  -3.0215  -2.9295
    -2.8345  -2.8154  -2.6666  -2.6575  -2.5894  -2.4929  -2.3752  -2.2867
    -2.2495  -2.1777  -2.0720  -1.8898  -1.6082  -1.5360  -1.4770  -1.2909
    -1.1883  -1.1593  -0.7513  -0.6770  -0.6109  -0.2843  -0.2629  -0.0364
     0.1812   0.3152   0.4367   0.7182   0.7689   0.8857   1.2195   1.2266
     1.4752   1.6602   1.6914   2.0105   2.2837   2.2948   2.4357   2.7093
     2.8602   3.2225   3.4928   4.0101   4.1293   4.5550

          k = 0.0473 0.0704 0.0000 ( 32285 PWs)   bands (ev):

   -66.2370 -66.1644 -65.8365 -65.7652 -65.7122 -65.6395 -38.8349 -38.7565
   -38.3016 -38.1364 -38.0662 -38.0072 -37.9861 -37.7652 -37.6984 -37.6850
   -37.5921 -37.5803 -37.5239 -37.5112 -37.4066 -37.3892 -37.2045 -37.1495
    -4.9281  -4.8195  -4.6566  -4.5846  -4.4600  -4.4059  -4.3056  -4.2554
    -4.2494  -4.1589  -4.0555  -3.9425  -3.8675  -3.8282  -3.7732  -3.5734
    -3.5424  -3.4806  -3.3155  -3.2684  -3.2237  -3.1866  -3.0076  -2.9598
    -2.8344  -2.8141  -2.6782  -2.6697  -2.6206  -2.5392  -2.5053  -2.3509
    -2.2754  -2.2133  -2.1400  -1.9322  -1.6545  -1.6421  -1.5221  -1.4353
    -1.2679  -1.1992  -0.9250  -0.7786  -0.5999  -0.4643  -0.2875  -0.1272
    -0.0101   0.2089   0.2616   0.6864   0.7193   0.9026   1.2283   1.3016
     1.4452   1.5751   1.6882   1.9652   2.1249   2.3335   2.4090   2.6535
     2.8458   3.2778   3.5514   4.0751   4.0956   4.5035

          k = 0.0473 0.0861 0.0000 ( 32270 PWs)   bands (ev):

   -66.2370 -66.1644 -65.8365 -65.7652 -65.7122 -65.6395 -38.8350 -38.7565
   -38.3017 -38.1365 -38.0662 -38.0072 -37.9861 -37.7653 -37.6985 -37.6850
   -37.5921 -37.5804 -37.5239 -37.5112 -37.4066 -37.3892 -37.2045 -37.1495
    -4.9020  -4.7985  -4.5957  -4.5226  -4.4550  -4.3697  -4.2570  -4.2460
    -4.1339  -4.1078  -4.0022  -3.8945  -3.8806  -3.7920  -3.7601  -3.5748
    -3.5518  -3.4411  -3.3375  -3.2674  -3.1981  -3.1450  -3.0142  -3.0000
    -2.8261  -2.8251  -2.7237  -2.6723  -2.6693  -2.6169  -2.4916  -2.3944
    -2.2759  -2.1949  -2.1890  -1.9612  -1.7263  -1.6593  -1.5561  -1.5537
    -1.3176  -1.2013  -1.0137  -0.8675  -0.5727  -0.5382  -0.2940  -0.2234
    -0.1040   0.0937   0.2399   0.6347   0.7203   0.9141   1.2301   1.3447
     1.4319   1.5070   1.6886   1.9313   2.0523   2.3483   2.3809   2.6930
     2.8412   3.3693   3.5796   3.8357   4.0571   4.8277

          k = 0.0473 0.1017 0.0000 ( 32270 PWs)   bands (ev):

   -66.2370 -66.1644 -65.8365 -65.7652 -65.7122 -65.6395 -38.8350 -38.7565
   -38.3017 -38.1365 -38.0662 -38.0072 -37.9861 -37.7653 -37.6985 -37.6850
   -37.5921 -37.5804 -37.5239 -37.5112 -37.4066 -37.3892 -37.2045 -37.1495
    -4.9020  -4.7985  -4.5957  -4.5226  -4.4550  -4.3697  -4.2570  -4.2460
    -4.1339  -4.1078  -4.0022  -3.8945  -3.8806  -3.7919  -3.7601  -3.5748
    -3.5518  -3.4411  -3.3375  -3.2673  -3.1982  -3.1449  -3.0142  -3.0000
    -2.8261  -2.8251  -2.7236  -2.6723  -2.6693  -2.6169  -2.4916  -2.3944
    -2.2759  -2.1949  -2.1889  -1.9612  -1.7264  -1.6593  -1.5561  -1.5537
    -1.3177  -1.2013  -1.0137  -0.8675  -0.5727  -0.5382  -0.2941  -0.2234
    -0.1041   0.0937   0.2399   0.6347   0.7203   0.9141   1.2301   1.3447
     1.4319   1.5070   1.6886   1.9313   2.0523   2.3483   2.3809   2.6930
     2.8412   3.3692   3.5797   3.8357   4.0571   4.8277

          k = 0.0473-0.0704 0.0000 ( 32285 PWs)   bands (ev):

   -66.2370 -66.1644 -65.8365 -65.7652 -65.7122 -65.6395 -38.8349 -38.7565
   -38.3016 -38.1364 -38.0662 -38.0072 -37.9861 -37.7652 -37.6984 -37.6850
   -37.5921 -37.5803 -37.5239 -37.5112 -37.4066 -37.3892 -37.2045 -37.1495
    -4.9281  -4.8195  -4.6566  -4.5846  -4.4600  -4.4060  -4.3056  -4.2554
    -4.2494  -4.1589  -4.0555  -3.9425  -3.8674  -3.8282  -3.7732  -3.5734
    -3.5424  -3.4806  -3.3155  -3.2683  -3.2237  -3.1865  -3.0076  -2.9599
    -2.8344  -2.8141  -2.6781  -2.6697  -2.6207  -2.5392  -2.5053  -2.3509
    -2.2753  -2.2133  -2.1400  -1.9323  -1.6544  -1.6422  -1.5220  -1.4352
    -1.2680  -1.1992  -0.9249  -0.7785  -0.5999  -0.4643  -0.2875  -0.1272
    -0.0101   0.2089   0.2616   0.6864   0.7192   0.9027   1.2282   1.3016
     1.4453   1.5751   1.6882   1.9651   2.1249   2.3335   2.4089   2.6535
     2.8458   3.2778   3.5515   4.0751   4.0956   4.5035

          k = 0.0473-0.0548 0.0000 ( 32317 PWs)   bands (ev):

   -66.2370 -66.1644 -65.8365 -65.7652 -65.7122 -65.6395 -38.8349 -38.7565
   -38.3015 -38.1361 -38.0662 -38.0072 -37.9860 -37.7652 -37.6984 -37.6850
   -37.5921 -37.5801 -37.5239 -37.5111 -37.4066 -37.3892 -37.2045 -37.1495
    -4.9997  -4.8566  -4.7576  -4.6738  -4.4884  -4.4626  -4.4081  -4.2796
    -4.2764  -4.2074  -4.1370  -4.0531  -3.9317  -3.8507  -3.7766  -3.6031
    -3.6005  -3.4704  -3.3043  -3.2986  -3.2567  -3.2062  -3.0215  -2.9295
    -2.8345  -2.8154  -2.6665  -2.6575  -2.5894  -2.4929  -2.3753  -2.2866
    -2.2495  -2.1778  -2.0720  -1.8899  -1.6081  -1.5360  -1.4769  -1.2909
    -1.1883  -1.1593  -0.7512  -0.6769  -0.6109  -0.2843  -0.2629  -0.0364
     0.1812   0.3152   0.4367   0.7182   0.7689   0.8858   1.2194   1.2266
     1.4752   1.6602   1.6913   2.0104   2.2838   2.2948   2.4357   2.7094
     2.8602   3.2224   3.4929   4.0101   4.1292   4.5550

          k = 0.0473-0.0391 0.0000 ( 32310 PWs)   bands (ev):

   -66.2370 -66.1644 -65.8365 -65.7652 -65.7122 -65.6395 -38.8348 -38.7565
   -38.3014 -38.1358 -38.0662 -38.0072 -37.9859 -37.7651 -37.6984 -37.6850
   -37.5922 -37.5798 -37.5239 -37.5110 -37.4066 -37.3892 -37.2045 -37.1494
    -5.1262  -4.9021  -4.8277  -4.7544  -4.5544  -4.4881  -4.4679  -4.3124
    -4.3019  -4.2606  -4.2338  -4.1520  -3.9788  -3.8966  -3.7787  -3.6881
    -3.6546  -3.4381  -3.3702  -3.3305  -3.2622  -3.1872  -3.0478  -2.9208
    -2.8215  -2.7957  -2.6712  -2.6409  -2.5829  -2.4812  -2.2994  -2.2541
    -2.1926  -2.0236  -1.9883  -1.8510  -1.5340  -1.4820  -1.3958  -1.1790
    -1.1683  -1.0390  -0.6246  -0.6148  -0.4193  -0.2088  -0.0761   0.0164
     0.4404   0.4676   0.6563   0.7177   0.8462   0.8847   1.1632   1.2149
     1.5134   1.7066   1.7089   2.0574   2.2127   2.3878   2.5615   2.8933
     3.0035   3.2169   3.3755   3.6793   3.6812   4.2565

          k = 0.0473-0.0235 0.0000 ( 32296 PWs)   bands (ev):

   -66.2370 -66.1644 -65.8365 -65.7652 -65.7122 -65.6395 -38.8347 -38.7565
   -38.3013 -38.1356 -38.0661 -38.0071 -37.9858 -37.7650 -37.6983 -37.6850
   -37.5922 -37.5796 -37.5239 -37.5110 -37.4066 -37.3892 -37.2045 -37.1494
    -5.2483  -4.9446  -4.8609  -4.8083  -4.6048  -4.5231  -4.4964  -4.3561
    -4.3345  -4.3193  -4.2826  -4.2133  -4.0157  -3.9332  -3.7800  -3.7609
    -3.7021  -3.4359  -3.4333  -3.3365  -3.2626  -3.1663  -3.0752  -2.9195
    -2.8063  -2.7641  -2.6837  -2.6263  -2.5749  -2.4735  -2.3195  -2.2538
    -2.0498  -1.9963  -1.8329  -1.8125  -1.4757  -1.4656  -1.3005  -1.1492
    -1.1150  -0.9687  -0.6300  -0.5152  -0.1545  -0.0504   0.0733   0.0910
     0.5306   0.6591   0.7353   0.7718   0.9151   0.9614   1.2181   1.2806
     1.5541   1.7194   1.7468   2.0571   2.0992   2.3350   2.8674   2.9538
     2.9626   3.1738   3.3906   3.4160   3.5505   3.9396

          k = 0.0473-0.0078 0.0000 ( 32299 PWs)   bands (ev):

   -66.2370 -66.1644 -65.8365 -65.7652 -65.7122 -65.6395 -38.8347 -38.7565
   -38.3013 -38.1354 -38.0661 -38.0071 -37.9858 -37.7650 -37.6983 -37.6851
   -37.5922 -37.5795 -37.5239 -37.5109 -37.4066 -37.3892 -37.2045 -37.1494
    -5.3175  -4.9701  -4.8750  -4.8341  -4.6324  -4.5477  -4.5072  -4.3960
    -4.3728  -4.3288  -4.2977  -4.2452  -4.0365  -3.9523  -3.8012  -3.7813
    -3.7280  -3.4741  -3.4400  -3.3318  -3.2620  -3.1538  -3.0913  -2.9192
    -2.7966  -2.7424  -2.6927  -2.6183  -2.5708  -2.4682  -2.3335  -2.2524
    -1.9974  -1.9682  -1.7748  -1.7466  -1.4812  -1.4273  -1.2385  -1.1396
    -1.1010  -0.9344  -0.6482  -0.4327  -0.1343   0.1248   0.2118   0.2793
     0.4640   0.6389   0.7760   0.8620   0.9487   1.0102   1.3317   1.5250
     1.6100   1.7119   1.7960   1.9119   2.1326   2.2880   2.3058   3.0668
     3.1123   3.1934   3.3373   3.5728   3.6073   3.9410

          k = 0.0473 0.0078 0.0000 ( 32299 PWs)   bands (ev):

   -66.2370 -66.1644 -65.8365 -65.7652 -65.7122 -65.6395 -38.8347 -38.7565
   -38.3013 -38.1354 -38.0661 -38.0071 -37.9858 -37.7650 -37.6983 -37.6851
   -37.5922 -37.5795 -37.5239 -37.5109 -37.4066 -37.3892 -37.2045 -37.1494
    -5.3174  -4.9701  -4.8750  -4.8341  -4.6324  -4.5477  -4.5072  -4.3960
    -4.3728  -4.3288  -4.2977  -4.2452  -4.0365  -3.9523  -3.8012  -3.7813
    -3.7280  -3.4741  -3.4400  -3.3318  -3.2620  -3.1538  -3.0913  -2.9192
    -2.7966  -2.7424  -2.6927  -2.6183  -2.5708  -2.4682  -2.3336  -2.2524
    -1.9974  -1.9681  -1.7748  -1.7466  -1.4811  -1.4273  -1.2385  -1.1396
    -1.1010  -0.9344  -0.6482  -0.4328  -0.1343   0.1248   0.2117   0.2793
     0.4641   0.6389   0.7760   0.8621   0.9487   1.0102   1.3317   1.5251
     1.6100   1.7119   1.7959   1.9119   2.1326   2.2880   2.3058   3.0668
     3.1123   3.1935   3.3372   3.5730   3.6073   3.9410

          k = 0.0630 0.0313 0.0000 ( 32296 PWs)   bands (ev):

   -66.2264 -66.1751 -65.8261 -65.7757 -65.7016 -65.6502 -38.8234 -38.7681
   -38.2134 -38.1256 -38.0765 -37.9213 -37.9010 -37.7777 -37.7554 -37.7082
   -37.5824 -37.5698 -37.5339 -37.5212 -37.4966 -37.4792 -37.1965 -37.1575
    -4.9042  -4.7845  -4.6782  -4.6447  -4.4900  -4.4165  -4.3391  -4.2792
    -4.2040  -4.1890  -4.1050  -4.0320  -3.8700  -3.8478  -3.7431  -3.6573
    -3.6093  -3.5303  -3.4339  -3.3776  -3.2571  -3.1775  -3.0712  -2.9894
    -2.9155  -2.8602  -2.7862  -2.7208  -2.7139  -2.4942  -2.3841  -2.3712
    -2.1702  -2.1092  -1.9674  -1.8436  -1.7196  -1.3817  -1.3495  -1.1121
    -1.0485  -0.7573  -0.6636  -0.5447  -0.2493  -0.2315   0.0601   0.1018
     0.3783   0.4786   0.5231   0.6398   0.7659   0.7779   0.9525   0.9878
     1.1919   1.4208   1.6189   1.9625   2.0171   2.3984   2.4659   2.7901
     2.8567   2.9797   3.1502   3.6896   3.7066   3.9077

          k = 0.0630 0.0469 0.0000 ( 32322 PWs)   bands (ev):

   -66.2264 -66.1751 -65.8261 -65.7757 -65.7016 -65.6502 -38.8234 -38.7681
   -38.2135 -38.1258 -38.0765 -37.9213 -37.9011 -37.7777 -37.7554 -37.7082
   -37.5824 -37.5700 -37.5339 -37.5212 -37.4966 -37.4792 -37.1965 -37.1575
    -4.7647  -4.7392  -4.6655  -4.5861  -4.4555  -4.3693  -4.3269  -4.2328
    -4.1836  -4.1056  -4.0390  -4.0064  -3.8337  -3.8306  -3.7297  -3.6534
    -3.5586  -3.5482  -3.4155  -3.3307  -3.2496  -3.1697  -3.0593  -3.0214
    -2.9145  -2.8771  -2.7926  -2.7278  -2.7107  -2.4777  -2.4395  -2.3700
    -2.2409  -2.1614  -2.0767  -1.8825  -1.8608  -1.4122  -1.3751  -1.1629
    -1.1416  -0.7544  -0.6587  -0.6266  -0.5369  -0.2337  -0.0615   0.0254
     0.1706   0.3409   0.4427   0.6497   0.7648   0.7845   0.9617   0.9871
     1.1616   1.3913   1.5718   1.9286   2.1185   2.4203   2.4726   2.6087
     2.8368   2.9318   3.2701   3.5931   3.8782   4.2141

          k = 0.0630 0.0626 0.0000 ( 32301 PWs)   bands (ev):

   -66.2264 -66.1751 -65.8261 -65.7757 -65.7016 -65.6502 -38.8235 -38.7681
   -38.2136 -38.1260 -38.0764 -37.9213 -37.9011 -37.7777 -37.7555 -37.7082
   -37.5823 -37.5701 -37.5340 -37.5212 -37.4966 -37.4792 -37.1965 -37.1575
    -4.6947  -4.6542  -4.6144  -4.5019  -4.4110  -4.3160  -4.2991  -4.1907
    -4.1681  -4.0235  -3.9779  -3.9614  -3.8118  -3.7926  -3.7309  -3.6462
    -3.5727  -3.5118  -3.4041  -3.2904  -3.2202  -3.1578  -3.0716  -3.0559
    -2.9082  -2.8833  -2.8115  -2.7407  -2.6974  -2.5265  -2.4641  -2.3810
    -2.3682  -2.1968  -2.1914  -2.0021  -1.8464  -1.5019  -1.3484  -1.2509
    -1.2379  -0.7613  -0.7506  -0.7070  -0.6393  -0.2884  -0.2328   0.0038
     0.0161   0.3046   0.3524   0.6660   0.7587   0.7831   0.9921   1.0115
     1.1540   1.3621   1.4725   1.8297   2.2124   2.2285   2.4126   2.5676
     2.7002   2.8862   3.2419   3.6626   4.5219   4.5360

          k = 0.0630 0.0782 0.0000 ( 32314 PWs)   bands (ev):

   -66.2264 -66.1751 -65.8261 -65.7757 -65.7016 -65.6502 -38.8235 -38.7681
   -38.2137 -38.1262 -38.0764 -37.9214 -37.9012 -37.7777 -37.7555 -37.7083
   -37.5823 -37.5703 -37.5340 -37.5213 -37.4966 -37.4792 -37.1965 -37.1575
    -4.6628  -4.6446  -4.5192  -4.4148  -4.3641  -4.3083  -4.2178  -4.1650
    -4.1253  -3.9784  -3.9594  -3.8887  -3.8294  -3.7534  -3.7433  -3.6390
    -3.5981  -3.4817  -3.3800  -3.2715  -3.1970  -3.1437  -3.1165  -3.0611
    -2.9039  -2.8873  -2.8341  -2.7530  -2.6843  -2.5990  -2.4863  -2.4674
    -2.3889  -2.2708  -2.2670  -2.0109  -1.8226  -1.5919  -1.3678  -1.2942
    -1.2901  -0.8870  -0.8007  -0.7650  -0.6221  -0.4134  -0.2273  -0.0903
     0.0141   0.2432   0.3211   0.6744   0.7349   0.8079   1.0236   1.0441
     1.1529   1.3438   1.3465   1.7645   1.9854   2.2692   2.3936   2.4907
     2.6628   2.9279   3.3784   3.5833   4.2441   4.9913

          k = 0.0630 0.0939 0.0000 ( 32308 PWs)   bands (ev):

   -66.2264 -66.1751 -65.8261 -65.7757 -65.7016 -65.6502 -38.8236 -38.7681
   -38.2137 -38.1263 -38.0764 -37.9214 -37.9012 -37.7777 -37.7555 -37.7083
   -37.5823 -37.5703 -37.5340 -37.5213 -37.4966 -37.4792 -37.1965 -37.1575
    -4.6511  -4.6412  -4.4924  -4.3748  -4.3428  -4.3045  -4.2035  -4.1587
    -4.0276  -3.9687  -3.9676  -3.8848  -3.8567  -3.7462  -3.7345  -3.6368
    -3.6070  -3.4713  -3.3551  -3.2698  -3.2107  -3.1368  -3.1206  -3.0646
    -2.9042  -2.8930  -2.8445  -2.7594  -2.6778  -2.6145  -2.5327  -2.4829
    -2.4076  -2.2983  -2.2813  -1.9991  -1.8068  -1.6351  -1.4067  -1.3084
    -1.2773  -0.9439  -0.8382  -0.7655  -0.6155  -0.4451  -0.2247  -0.1233
     0.0136   0.2124   0.3181   0.6769   0.7290   0.8184   1.0264   1.0791
     1.1533   1.2787   1.3381   1.7461   1.8819   2.2917   2.3816   2.4635
     2.6660   2.9442   3.4816   3.5517   4.0675   5.2413

          k = 0.0630 0.1095 0.0000 ( 32314 PWs)   bands (ev):

   -66.2264 -66.1751 -65.8261 -65.7757 -65.7016 -65.6502 -38.8235 -38.7681
   -38.2137 -38.1262 -38.0764 -37.9214 -37.9012 -37.7777 -37.7555 -37.7083
   -37.5823 -37.5703 -37.5340 -37.5213 -37.4966 -37.4792 -37.1965 -37.1575
    -4.6628  -4.6446  -4.5192  -4.4148  -4.3641  -4.3083  -4.2178  -4.1650
    -4.1253  -3.9784  -3.9595  -3.8887  -3.8293  -3.7534  -3.7433  -3.6390
    -3.5981  -3.4817  -3.3800  -3.2715  -3.1970  -3.1437  -3.1165  -3.0611
    -2.9040  -2.8874  -2.8341  -2.7530  -2.6843  -2.5991  -2.4863  -2.4674
    -2.3890  -2.2708  -2.2670  -2.0108  -1.8227  -1.5919  -1.3678  -1.2942
    -1.2901  -0.8869  -0.8006  -0.7650  -0.6221  -0.4134  -0.2273  -0.0904
     0.0141   0.2432   0.3211   0.6744   0.7349   0.8079   1.0236   1.0441
     1.1529   1.3438   1.3465   1.7644   1.9854   2.2692   2.3937   2.4907
     2.6628   2.9280   3.3784   3.5833   4.2442   4.9912

          k = 0.0630-0.0626 0.0000 ( 32301 PWs)   bands (ev):

   -66.2264 -66.1751 -65.8261 -65.7757 -65.7016 -65.6502 -38.8235 -38.7681
   -38.2136 -38.1260 -38.0764 -37.9213 -37.9011 -37.7777 -37.7555 -37.7082
   -37.5823 -37.5701 -37.5340 -37.5212 -37.4966 -37.4792 -37.1965 -37.1575
    -4.6947  -4.6542  -4.6144  -4.5019  -4.4110  -4.3160  -4.2991  -4.1907
    -4.1681  -4.0235  -3.9780  -3.9615  -3.8118  -3.7926  -3.7309  -3.6462
    -3.5728  -3.5119  -3.4041  -3.2904  -3.2202  -3.1577  -3.0716  -3.0559
    -2.9083  -2.8833  -2.8115  -2.7407  -2.6974  -2.5265  -2.4641  -2.3810
    -2.3682  -2.1969  -2.1914  -2.0020  -1.8464  -1.5019  -1.3484  -1.2509
    -1.2379  -0.7612  -0.7505  -0.7070  -0.6393  -0.2884  -0.2328   0.0037
     0.0161   0.3046   0.3524   0.6660   0.7587   0.7832   0.9921   1.0116
     1.1539   1.3621   1.4726   1.8296   2.2124   2.2285   2.4127   2.5676
     2.7003   2.8862   3.2418   3.6625   4.5219   4.5359

          k = 0.0630-0.0469 0.0000 ( 32322 PWs)   bands (ev):

   -66.2264 -66.1751 -65.8261 -65.7757 -65.7016 -65.6502 -38.8234 -38.7681
   -38.2135 -38.1258 -38.0765 -37.9213 -37.9011 -37.7777 -37.7554 -37.7082
   -37.5824 -37.5700 -37.5339 -37.5212 -37.4966 -37.4792 -37.1965 -37.1575
    -4.7647  -4.7392  -4.6655  -4.5861  -4.4555  -4.3693  -4.3269  -4.2328
    -4.1836  -4.1056  -4.0390  -4.0064  -3.8337  -3.8306  -3.7297  -3.6534
    -3.5586  -3.5482  -3.4154  -3.3307  -3.2496  -3.1697  -3.0593  -3.0214
    -2.9146  -2.8772  -2.7926  -2.7278  -2.7107  -2.4777  -2.4395  -2.3700
    -2.2409  -2.1615  -2.0767  -1.8825  -1.8607  -1.4123  -1.3751  -1.1629
    -1.1415  -0.7544  -0.6587  -0.6265  -0.5368  -0.2337  -0.0616   0.0254
     0.1706   0.3409   0.4427   0.6497   0.7648   0.7845   0.9617   0.9871
     1.1616   1.3913   1.5718   1.9285   2.1185   2.4204   2.4726   2.6087
     2.8369   2.9318   3.2701   3.5931   3.8781   4.2140

          k = 0.0630-0.0313 0.0000 ( 32296 PWs)   bands (ev):

   -66.2264 -66.1751 -65.8261 -65.7757 -65.7016 -65.6502 -38.8234 -38.7681
   -38.2134 -38.1256 -38.0765 -37.9213 -37.9010 -37.7777 -37.7554 -37.7082
   -37.5824 -37.5698 -37.5339 -37.5212 -37.4966 -37.4792 -37.1965 -37.1575
    -4.9043  -4.7845  -4.6782  -4.6447  -4.4900  -4.4165  -4.3391  -4.2792
    -4.2040  -4.1890  -4.1050  -4.0320  -3.8700  -3.8477  -3.7431  -3.6573
    -3.6094  -3.5303  -3.4339  -3.3776  -3.2571  -3.1775  -3.0712  -2.9894
    -2.9156  -2.8602  -2.7861  -2.7208  -2.7139  -2.4941  -2.3841  -2.3712
    -2.1702  -2.1093  -1.9674  -1.8436  -1.7196  -1.3817  -1.3495  -1.1121
    -1.0485  -0.7573  -0.6636  -0.5446  -0.2493  -0.2315   0.0601   0.1017
     0.3783   0.4786   0.5231   0.6398   0.7659   0.7779   0.9525   0.9879
     1.1918   1.4208   1.6189   1.9625   2.0171   2.3985   2.4658   2.7902
     2.8568   2.9797   3.1502   3.6895   3.7066   3.9076

          k = 0.0630-0.0156 0.0000 ( 32295 PWs)   bands (ev):

   -66.2264 -66.1751 -65.8261 -65.7757 -65.7016 -65.6502 -38.8233 -38.7681
   -38.2134 -38.1254 -38.0765 -37.9213 -37.9009 -37.7778 -37.7553 -37.7082
   -37.5824 -37.5696 -37.5339 -37.5212 -37.4966 -37.4793 -37.1965 -37.1575
    -4.9976  -4.8167  -4.6875  -4.6770  -4.5126  -4.4458  -4.3489  -4.3199
    -4.2410  -4.2219  -4.1503  -4.0481  -3.8955  -3.8587  -3.7562  -3.6599
    -3.6462  -3.5201  -3.4536  -3.4143  -3.2520  -3.1824  -3.0818  -2.9770
    -2.9089  -2.8428  -2.7917  -2.7257  -2.7025  -2.5048  -2.3703  -2.3557
    -2.1820  -2.0316  -1.9298  -1.7604  -1.5999  -1.3637  -1.3253  -1.1078
    -0.9957  -0.7701  -0.6543  -0.4675  -0.2335   0.0676   0.1213   0.1833
     0.3975   0.5724   0.6342   0.6992   0.7200   0.8889   0.9570   1.0409
     1.2990   1.4398   1.6373   1.7443   2.0790   2.2385   2.4176   2.5064
     2.8376   2.9211   3.2781   3.6012   3.7709   4.2939

          k = 0.0630 0.0000 0.0000 ( 32310 PWs)   bands (ev):

   -66.2265 -66.1751 -65.8261 -65.7757 -65.7016 -65.6502 -38.8233 -38.7680
   -38.2133 -38.1253 -38.0765 -37.9213 -37.9009 -37.7778 -37.7553 -37.7082
   -37.5824 -37.5696 -37.5339 -37.5212 -37.4966 -37.4793 -37.1965 -37.1575
    -5.0301  -4.8281  -4.6909  -4.6872  -4.5207  -4.4560  -4.3527  -4.3376
    -4.2564  -4.2289  -4.1669  -4.0535  -3.9048  -3.8628  -3.7610  -3.6644
    -3.6558  -3.5169  -3.4618  -3.4282  -3.2487  -3.1842  -3.0856  -2.9746
    -2.9041  -2.8358  -2.7966  -2.7268  -2.6980  -2.5082  -2.3697  -2.3471
    -2.1866  -2.0086  -1.9240  -1.7118  -1.5585  -1.3460  -1.3244  -1.1179
    -0.9807  -0.7761  -0.6489  -0.4331  -0.2358   0.1376   0.1588   0.3308
     0.3925   0.5975   0.6269   0.6923   0.7248   0.8483   1.0655   1.0814
     1.3986   1.4350   1.6427   1.7980   1.8694   2.1046   2.3953   2.4391
     2.8780   2.9306   3.0586   3.5746   4.2370   4.5945

          k = 0.0630 0.0156 0.0000 ( 32295 PWs)   bands (ev):

   -66.2264 -66.1751 -65.8261 -65.7757 -65.7016 -65.6502 -38.8233 -38.7681
   -38.2134 -38.1254 -38.0765 -37.9213 -37.9009 -37.7778 -37.7553 -37.7082
   -37.5824 -37.5696 -37.5339 -37.5212 -37.4966 -37.4793 -37.1965 -37.1575
    -4.9976  -4.8167  -4.6875  -4.6770  -4.5126  -4.4458  -4.3489  -4.3199
    -4.2410  -4.2219  -4.1503  -4.0480  -3.8955  -3.8587  -3.7562  -3.6599
    -3.6462  -3.5201  -3.4536  -3.4143  -3.2520  -3.1824  -3.0818  -2.9770
    -2.9089  -2.8428  -2.7917  -2.7257  -2.7025  -2.5048  -2.3703  -2.3557
    -2.1820  -2.0315  -1.9298  -1.7604  -1.5999  -1.3637  -1.3253  -1.1078
    -0.9957  -0.7701  -0.6543  -0.4676  -0.2335   0.0675   0.1212   0.1833
     0.3975   0.5724   0.6342   0.6992   0.7200   0.8889   0.9569   1.0409
     1.2991   1.4398   1.6373   1.7443   2.0790   2.2385   2.4176   2.5063
     2.8376   2.9211   3.2782   3.6013   3.7709   4.2939

          k = 0.0788 0.0391 0.0000 ( 32324 PWs)   bands (ev):

   -66.2141 -66.1875 -65.8140 -65.7879 -65.6893 -65.6627 -38.8101 -38.7815
   -38.1138 -38.1101 -38.0884 -37.8846 -37.8205 -37.8012 -37.7441 -37.7196
   -37.6012 -37.5830 -37.5701 -37.5581 -37.5456 -37.5330 -37.1871 -37.1670
    -4.6481  -4.6168  -4.4745  -4.4682  -4.3708  -4.3584  -4.2762  -4.2581
    -4.0857  -4.0450  -3.9555  -3.8344  -3.7915  -3.7329  -3.6492  -3.6091
    -3.5425  -3.5184  -3.4195  -3.3413  -3.2663  -3.1864  -3.1770  -3.0450
    -3.0144  -2.9657  -2.9060  -2.8093  -2.7858  -2.7587  -2.6148  -2.4990
    -2.2838  -2.0724  -2.0552  -1.9649  -1.7285  -1.6278  -1.2401  -1.1220
    -1.0278  -0.5622  -0.4233  -0.3472  -0.3253  -0.1016   0.0471   0.1104
     0.1890   0.3206   0.3677   0.4786   0.5638   0.6444   0.7347   0.7968
     0.8156   1.0916   1.6066   1.9076   1.9797   1.9847   2.4744   2.4965
     2.8503   2.9868   3.1367   3.4381   3.8424   4.1469

          k = 0.0788 0.0548 0.0000 ( 32309 PWs)   bands (ev):

   -66.2141 -66.1875 -65.8140 -65.7879 -65.6893 -65.6627 -38.8102 -38.7815
   -38.1140 -38.1102 -38.0884 -37.8846 -37.8205 -37.8012 -37.7441 -37.7196
   -37.6012 -37.5830 -37.5701 -37.5582 -37.5456 -37.5330 -37.1871 -37.1669
    -4.5883  -4.5772  -4.4323  -4.4229  -4.3610  -4.3332  -4.2558  -4.2307
    -4.0441  -4.0331  -3.9000  -3.8381  -3.7827  -3.7166  -3.6607  -3.6138
    -3.5199  -3.4780  -3.4161  -3.3169  -3.2492  -3.1992  -3.1852  -3.0622
    -3.0223  -2.9670  -2.8895  -2.8643  -2.7797  -2.7662  -2.6097  -2.5819
    -2.2473  -2.1926  -2.1075  -1.9601  -1.7470  -1.6880  -1.1845  -1.1813
    -1.0850  -0.6709  -0.5108  -0.4191  -0.3250  -0.1039  -0.0537   0.0482
     0.1353   0.3476   0.3720   0.4492   0.5810   0.6752   0.7178   0.8038
     0.8197   1.0669   1.4963   1.8319   2.0276   2.1199   2.4450   2.4469
     2.6487   2.8910   3.3366   3.4406   3.7378   4.7209

          k = 0.0788 0.0704 0.0000 ( 32293 PWs)   bands (ev):

   -66.2141 -66.1875 -65.8140 -65.7879 -65.6893 -65.6627 -38.8102 -38.7815
   -38.1142 -38.1103 -38.0883 -37.8845 -37.8205 -37.8013 -37.7441 -37.7196
   -37.6011 -37.5830 -37.5701 -37.5584 -37.5456 -37.5330 -37.1871 -37.1670
    -4.5502  -4.5384  -4.3804  -4.3793  -4.3281  -4.3049  -4.2214  -4.2057
    -4.0466  -4.0222  -3.8559  -3.8376  -3.7684  -3.7029  -3.6810  -3.6133
    -3.4892  -3.4463  -3.4085  -3.3046  -3.2647  -3.1901  -3.1886  -3.0785
    -3.0442  -2.9763  -2.9218  -2.8761  -2.7691  -2.7687  -2.6460  -2.6062
    -2.3237  -2.2248  -2.1583  -1.9306  -1.7495  -1.7331  -1.2394  -1.2107
    -1.0467  -0.7981  -0.6053  -0.4353  -0.2775  -0.2414  -0.0758   0.0675
     0.1118   0.3660   0.4405   0.4496   0.6124   0.6880   0.7097   0.8309
     0.8737   1.0388   1.3220   1.6662   2.1037   2.1661   2.2066   2.4159
     2.5525   2.6822   3.2604   3.4856   4.5003   4.7482

          k = 0.0788 0.0861 0.0000 ( 32309 PWs)   bands (ev):

   -66.2141 -66.1875 -65.8140 -65.7879 -65.6893 -65.6627 -38.8102 -38.7815
   -38.1143 -38.1103 -38.0883 -37.8845 -37.8205 -37.8013 -37.7441 -37.7196
   -37.6011 -37.5830 -37.5701 -37.5584 -37.5456 -37.5329 -37.1871 -37.1670
    -4.5341  -4.5152  -4.3672  -4.3472  -4.2915  -4.2761  -4.1783  -4.1695
    -4.0643  -4.0423  -3.8890  -3.7932  -3.7620  -3.6897  -3.6872  -3.6108
    -3.4627  -3.4344  -3.3934  -3.3079  -3.3042  -3.1958  -3.1497  -3.0892
    -3.0764  -2.9920  -2.9472  -2.8702  -2.7706  -2.7577  -2.6752  -2.6048
    -2.3995  -2.2365  -2.1795  -1.9066  -1.7940  -1.7018  -1.2735  -1.2714
    -0.9762  -0.8787  -0.6462  -0.4475  -0.2978  -0.2545  -0.1038   0.0228
     0.1920   0.3554   0.4559   0.5121   0.6266   0.6916   0.7103   0.8521
     0.9838   1.0206   1.1431   1.5935   1.8555   2.1518   2.2373   2.3989
     2.5376   2.5900   3.2020   3.6537   4.4181   5.1428

          k = 0.0788 0.1017 0.0000 ( 32309 PWs)   bands (ev):

   -66.2141 -66.1875 -65.8140 -65.7879 -65.6893 -65.6627 -38.8102 -38.7815
   -38.1143 -38.1103 -38.0883 -37.8845 -37.8205 -37.8013 -37.7441 -37.7196
   -37.6011 -37.5830 -37.5701 -37.5584 -37.5456 -37.5329 -37.1871 -37.1670
    -4.5341  -4.5152  -4.3672  -4.3472  -4.2915  -4.2761  -4.1783  -4.1695
    -4.0643  -4.0423  -3.8890  -3.7932  -3.7620  -3.6897  -3.6872  -3.6108
    -3.4627  -3.4344  -3.3934  -3.3079  -3.3042  -3.1958  -3.1497  -3.0892
    -3.0764  -2.9920  -2.9472  -2.8702  -2.7706  -2.7577  -2.6752  -2.6048
    -2.3995  -2.2365  -2.1795  -1.9066  -1.7940  -1.7018  -1.2734  -1.2714
    -0.9762  -0.8786  -0.6461  -0.4475  -0.2978  -0.2545  -0.1038   0.0228
     0.1920   0.3554   0.4559   0.5121   0.6266   0.6916   0.7103   0.8521
     0.9837   1.0206   1.1431   1.5935   1.8555   2.1519   2.2373   2.3989
     2.5376   2.5900   3.2020   3.6536   4.4181   5.1427

          k = 0.0788 0.1173 0.0000 ( 32293 PWs)   bands (ev):

   -66.2141 -66.1875 -65.8140 -65.7879 -65.6893 -65.6627 -38.8102 -38.7815
   -38.1142 -38.1103 -38.0883 -37.8845 -37.8205 -37.8013 -37.7441 -37.7196
   -37.6011 -37.5830 -37.5701 -37.5584 -37.5456 -37.5330 -37.1871 -37.1670
    -4.5502  -4.5384  -4.3805  -4.3793  -4.3282  -4.3049  -4.2214  -4.2057
    -4.0466  -4.0222  -3.8559  -3.8376  -3.7684  -3.7029  -3.6810  -3.6133
    -3.4891  -3.4463  -3.4085  -3.3047  -3.2647  -3.1901  -3.1886  -3.0784
    -3.0442  -2.9763  -2.9218  -2.8762  -2.7691  -2.7687  -2.6460  -2.6062
    -2.3237  -2.2248  -2.1583  -1.9307  -1.7495  -1.7331  -1.2393  -1.2107
    -1.0467  -0.7981  -0.6053  -0.4353  -0.2775  -0.2414  -0.0758   0.0675
     0.1118   0.3659   0.4405   0.4496   0.6124   0.6880   0.7097   0.8309
     0.8737   1.0388   1.3221   1.6662   2.1038   2.1661   2.2066   2.4159
     2.5525   2.6821   3.2603   3.4855   4.5004   4.7483

          k = 0.0788-0.0548 0.0000 ( 32309 PWs)   bands (ev):

   -66.2141 -66.1875 -65.8140 -65.7879 -65.6893 -65.6627 -38.8102 -38.7815
   -38.1140 -38.1102 -38.0884 -37.8846 -37.8205 -37.8012 -37.7441 -37.7196
   -37.6012 -37.5830 -37.5701 -37.5582 -37.5456 -37.5330 -37.1871 -37.1669
    -4.5883  -4.5772  -4.4323  -4.4229  -4.3610  -4.3332  -4.2559  -4.2307
    -4.0441  -4.0331  -3.9000  -3.8381  -3.7827  -3.7166  -3.6607  -3.6138
    -3.5199  -3.4780  -3.4161  -3.3169  -3.2492  -3.1992  -3.1851  -3.0621
    -3.0223  -2.9671  -2.8896  -2.8643  -2.7796  -2.7662  -2.6097  -2.5819
    -2.2473  -2.1927  -2.1075  -1.9601  -1.7470  -1.6880  -1.1845  -1.1812
    -1.0850  -0.6709  -0.5108  -0.4191  -0.3250  -0.1039  -0.0537   0.0483
     0.1352   0.3476   0.3720   0.4492   0.5810   0.6752   0.7178   0.8038
     0.8197   1.0668   1.4964   1.8319   2.0277   2.1200   2.4450   2.4470
     2.6487   2.8910   3.3365   3.4406   3.7378   4.7208

          k = 0.0788-0.0391 0.0000 ( 32324 PWs)   bands (ev):

   -66.2141 -66.1875 -65.8140 -65.7879 -65.6893 -65.6627 -38.8101 -38.7815
   -38.1138 -38.1101 -38.0884 -37.8846 -37.8205 -37.8012 -37.7441 -37.7196
   -37.6012 -37.5830 -37.5701 -37.5581 -37.5456 -37.5330 -37.1871 -37.1670
    -4.6481  -4.6168  -4.4745  -4.4682  -4.3708  -4.3584  -4.2762  -4.2581
    -4.0857  -4.0450  -3.9555  -3.8344  -3.7915  -3.7329  -3.6492  -3.6091
    -3.5425  -3.5184  -3.4195  -3.3413  -3.2663  -3.1864  -3.1770  -3.0450
    -3.0144  -2.9658  -2.9061  -2.8093  -2.7857  -2.7586  -2.6147  -2.4990
    -2.2837  -2.0725  -2.0553  -1.9649  -1.7285  -1.6278  -1.2401  -1.1219
    -1.0277  -0.5622  -0.4232  -0.3472  -0.3252  -0.1016   0.0472   0.1104
     0.1890   0.3206   0.3677   0.4785   0.5638   0.6444   0.7347   0.7968
     0.8156   1.0916   1.6067   1.9077   1.9797   1.9847   2.4744   2.4965
     2.8503   2.9868   3.1367   3.4381   3.8424   4.1469

          k = 0.0788-0.0235 0.0000 ( 32318 PWs)   bands (ev):

   -66.2141 -66.1875 -65.8140 -65.7879 -65.6893 -65.6627 -38.8101 -38.7815
   -38.1137 -38.1101 -38.0885 -37.8847 -37.8204 -37.8011 -37.7440 -37.7196
   -37.6012 -37.5831 -37.5701 -37.5579 -37.5456 -37.5330 -37.1871 -37.1670
    -4.7066  -4.6440  -4.4984  -4.4951  -4.3764  -4.3744  -4.2898  -4.2850
    -4.1417  -4.0504  -3.9977  -3.8347  -3.7911  -3.7506  -3.6506  -3.6029
    -3.5694  -3.5405  -3.4233  -3.3657  -3.2740  -3.1911  -3.1676  -3.0305
    -3.0145  -2.9665  -2.9207  -2.7903  -2.7777  -2.7462  -2.6202  -2.4263
    -2.3141  -2.0612  -2.0450  -1.8439  -1.6992  -1.5826  -1.2743  -1.0851
    -0.9762  -0.4804  -0.4513  -0.3349  -0.1487  -0.0623   0.0471   0.1608
     0.3109   0.3220   0.4042   0.5339   0.6115   0.6194   0.7613   0.8228
     0.8824   1.0983   1.6662   1.6806   1.8432   2.0757   2.4387   2.4847
     2.5175   2.8269   3.1358   3.7208   4.0928   4.2227

          k = 0.0788-0.0078 0.0000 ( 32344 PWs)   bands (ev):

   -66.2141 -66.1875 -65.8140 -65.7879 -65.6893 -65.6627 -38.8101 -38.7815
   -38.1136 -38.1100 -38.0885 -37.8847 -37.8204 -37.8011 -37.7440 -37.7196
   -37.6012 -37.5831 -37.5702 -37.5579 -37.5456 -37.5331 -37.1871 -37.1670
    -4.7408  -4.6561  -4.5091  -4.5064  -4.3819  -4.3798  -4.3030  -4.2970
    -4.1748  -4.0550  -4.0209  -3.8355  -3.7871  -3.7621  -3.6554  -3.5995
    -3.5913  -3.5453  -3.4267  -3.3807  -3.2744  -3.1951  -3.1676  -3.0222
    -3.0150  -2.9671  -2.9306  -2.7935  -2.7645  -2.7372  -2.6238  -2.3854
    -2.3298  -2.0604  -2.0602  -1.7412  -1.6788  -1.5620  -1.2887  -1.0739
    -0.9458  -0.4708  -0.4295  -0.3249  -0.1713   0.0454   0.1086   0.2560
     0.3095   0.3567   0.4423   0.5505   0.5871   0.6700   0.7658   0.8262
     1.0712   1.1275   1.5271   1.6921   1.7249   2.0193   2.1210   2.4634
     2.5132   2.8065   2.8899   4.0599   4.2697   4.4769

          k = 0.0788 0.0078 0.0000 ( 32344 PWs)   bands (ev):

   -66.2141 -66.1875 -65.8140 -65.7879 -65.6893 -65.6627 -38.8101 -38.7815
   -38.1136 -38.1100 -38.0885 -37.8847 -37.8204 -37.8011 -37.7440 -37.7196
   -37.6012 -37.5831 -37.5702 -37.5579 -37.5456 -37.5331 -37.1871 -37.1670
    -4.7408  -4.6561  -4.5091  -4.5064  -4.3819  -4.3798  -4.3030  -4.2970
    -4.1748  -4.0550  -4.0209  -3.8355  -3.7871  -3.7621  -3.6554  -3.5995
    -3.5913  -3.5453  -3.4267  -3.3807  -3.2744  -3.1951  -3.1676  -3.0222
    -3.0150  -2.9671  -2.9306  -2.7935  -2.7645  -2.7372  -2.6238  -2.3854
    -2.3298  -2.0604  -2.0602  -1.7412  -1.6788  -1.5620  -1.2887  -1.0740
    -0.9458  -0.4708  -0.4295  -0.3249  -0.1713   0.0454   0.1086   0.2560
     0.3095   0.3567   0.4423   0.5506   0.5871   0.6700   0.7657   0.8262
     1.0712   1.1275   1.5271   1.6920   1.7249   2.0192   2.1210   2.4634
     2.5132   2.8065   2.8899   4.0599   4.2697   4.4769

          k = 0.0788 0.0235 0.0000 ( 32318 PWs)   bands (ev):

   -66.2141 -66.1875 -65.8140 -65.7879 -65.6893 -65.6627 -38.8101 -38.7815
   -38.1137 -38.1101 -38.0885 -37.8847 -37.8204 -37.8011 -37.7440 -37.7196
   -37.6012 -37.5831 -37.5701 -37.5579 -37.5456 -37.5330 -37.1871 -37.1670
    -4.7066  -4.6440  -4.4984  -4.4951  -4.3764  -4.3744  -4.2898  -4.2850
    -4.1417  -4.0503  -3.9977  -3.8347  -3.7911  -3.7506  -3.6506  -3.6029
    -3.5694  -3.5405  -3.4234  -3.3657  -3.2740  -3.1911  -3.1676  -3.0305
    -3.0145  -2.9665  -2.9207  -2.7903  -2.7777  -2.7462  -2.6203  -2.4263
    -2.3141  -2.0612  -2.0450  -1.8439  -1.6992  -1.5826  -1.2743  -1.0851
    -0.9762  -0.4804  -0.4514  -0.3349  -0.1487  -0.0624   0.0471   0.1608
     0.3109   0.3220   0.4043   0.5340   0.6115   0.6194   0.7613   0.8228
     0.8824   1.0983   1.6662   1.6805   1.8432   2.0757   2.4387   2.4847
     2.5176   2.8269   3.1358   3.7208   4.0929   4.2227

          k =-0.0946-0.0469 0.0000 ( 32324 PWs)   bands (ev):

   -66.2009 -66.2008 -65.8012 -65.8008 -65.6760 -65.6760 -38.7961 -38.7956
   -38.1012 -38.1011 -37.9981 -37.9980 -37.7321 -37.7317 -37.7113 -37.7111
   -37.6928 -37.6927 -37.5581 -37.5580 -37.5456 -37.5456 -37.1773 -37.1767
    -4.5522  -4.5520  -4.4094  -4.4092  -4.2937  -4.2934  -4.2440  -4.2436
    -4.0363  -4.0361  -3.8632  -3.8619  -3.7242  -3.7226  -3.5179  -3.5177
    -3.4427  -3.4389  -3.3696  -3.3636  -3.2487  -3.2476  -3.2104  -3.2082
    -3.0856  -3.0813  -2.8919  -2.8905  -2.8098  -2.8073  -2.7389  -2.7330
    -2.1202  -2.1187  -2.0366  -2.0361  -1.7718  -1.7716  -1.1605  -1.1603
    -0.7942  -0.7935  -0.3167  -0.3167  -0.0331  -0.0323   0.1040   0.1051
     0.2637   0.2640   0.3085   0.3087   0.4938   0.4940   0.6668   0.6672
     0.7507   0.7507   1.6934   1.6934   1.9635   1.9640   2.4147   2.4153
     2.9870   2.9877   3.1963   3.1970   3.9660   3.9671

          k =-0.0946-0.0313 0.0000 ( 32310 PWs)   bands (ev):

   -66.2009 -66.2008 -65.8012 -65.8008 -65.6760 -65.6760 -38.7961 -38.7956
   -38.1013 -38.1010 -37.9981 -37.9979 -37.7321 -37.7317 -37.7113 -37.7111
   -37.6928 -37.6927 -37.5581 -37.5580 -37.5457 -37.5455 -37.1773 -37.1767
    -4.5591  -4.5375  -4.4153  -4.3942  -4.2962  -4.2825  -4.2598  -4.2340
    -4.0706  -4.0123  -3.8702  -3.8689  -3.7213  -3.7153  -3.5394  -3.5049
    -3.4650  -3.4031  -3.3861  -3.3384  -3.2626  -3.2412  -3.2286  -3.1998
    -3.1223  -3.0548  -2.9339  -2.8588  -2.8105  -2.8072  -2.7477  -2.7119
    -2.1964  -2.0921  -2.0283  -1.9978  -1.8394  -1.6828  -1.2057  -1.1618
    -0.8010  -0.7348  -0.4467  -0.1513  -0.0807  -0.0042   0.0912   0.1103
     0.2327   0.2407   0.2628   0.4595   0.5036   0.5373   0.6466   0.6938
     0.7488   0.7793   1.5367   1.7546   1.7943   2.0949   2.3950   2.4211
     2.5464   3.0116   3.0220   3.7116   3.7283   4.6115

          k =-0.0946-0.0156 0.0000 ( 32313 PWs)   bands (ev):

   -66.2009 -66.2008 -65.8012 -65.8008 -65.6760 -65.6760 -38.7961 -38.7956
   -38.1014 -38.1010 -37.9981 -37.9979 -37.7321 -37.7317 -37.7113 -37.7111
   -37.6928 -37.6926 -37.5581 -37.5580 -37.5458 -37.5455 -37.1773 -37.1767
    -4.5607  -4.5204  -4.4134  -4.3751  -4.3026  -4.2670  -4.2655  -4.2322
    -4.1067  -3.9998  -3.8972  -3.8758  -3.7202  -3.6886  -3.5606  -3.5013
    -3.4771  -3.3969  -3.3588  -3.3088  -3.2849  -3.2529  -3.2377  -3.1978
    -3.1631  -3.0387  -2.9679  -2.8440  -2.8114  -2.8073  -2.7519  -2.6848
    -2.2491  -2.1222  -1.9825  -1.9679  -1.8891  -1.5753  -1.2506  -1.2158
    -0.7810  -0.6529  -0.5328  -0.1176  -0.0601   0.0423   0.0817   0.1649
     0.2052   0.2250   0.2437   0.4846   0.5364   0.6352   0.6970   0.7491
     0.7508   0.8655   1.3257   1.5732   1.8544   2.0838   2.1610   2.3743
     2.4473   2.7763   2.9530   3.8475   4.4690   4.6598

          k =-0.0946 0.0000 0.0000 ( 32312 PWs)   bands (ev):

   -66.2009 -66.2008 -65.8012 -65.8008 -65.6760 -65.6760 -38.7961 -38.7956
   -38.1015 -38.1009 -37.9981 -37.9979 -37.7321 -37.7317 -37.7113 -37.7111
   -37.6928 -37.6926 -37.5581 -37.5580 -37.5458 -37.5454 -37.1773 -37.1767
    -4.5607  -4.5126  -4.4105  -4.3653  -4.3103  -4.2616  -4.2604  -4.2318
    -4.1240  -3.9961  -3.9143  -3.8776  -3.7203  -3.6711  -3.5693  -3.5024
    -3.4809  -3.4001  -3.3312  -3.3083  -3.2815  -3.2706  -3.2365  -3.1980
    -3.1850  -3.0337  -2.9806  -2.8403  -2.8118  -2.8073  -2.7531  -2.6730
    -2.2668  -2.1347  -1.9674  -1.9554  -1.9096  -1.5116  -1.2676  -1.2597
    -0.7672  -0.6143  -0.5659  -0.1299  -0.0674   0.0587   0.0789   0.1956
     0.2219   0.2375   0.3228   0.3862   0.5502   0.6322   0.7443   0.7520
     0.8139   0.9438   1.2316   1.5588   1.7940   1.8751   2.1815   2.3645
     2.4476   2.7038   2.9274   3.9715   4.5687   4.6786

          k =-0.0946 0.0156 0.0000 ( 32313 PWs)   bands (ev):

   -66.2009 -66.2008 -65.8012 -65.8008 -65.6760 -65.6760 -38.7961 -38.7956
   -38.1014 -38.1010 -37.9981 -37.9979 -37.7321 -37.7317 -37.7113 -37.7111
   -37.6928 -37.6926 -37.5581 -37.5580 -37.5458 -37.5455 -37.1773 -37.1767
    -4.5607  -4.5204  -4.4134  -4.3751  -4.3026  -4.2670  -4.2655  -4.2322
    -4.1067  -3.9998  -3.8972  -3.8758  -3.7202  -3.6886  -3.5606  -3.5013
    -3.4771  -3.3969  -3.3588  -3.3088  -3.2849  -3.2528  -3.2377  -3.1978
    -3.1631  -3.0388  -2.9679  -2.8440  -2.8114  -2.8072  -2.7519  -2.6848
    -2.2491  -2.1222  -1.9825  -1.9679  -1.8891  -1.5753  -1.2505  -1.2157
    -0.7810  -0.6529  -0.5327  -0.1176  -0.0601   0.0423   0.0817   0.1648
     0.2052   0.2249   0.2437   0.4846   0.5364   0.6352   0.6970   0.7490
     0.7508   0.8655   1.3258   1.5732   1.8544   2.0838   2.1610   2.3743
     2.4473   2.7763   2.9530   3.8474   4.4690   4.6598

          k =-0.0946 0.0313 0.0000 ( 32310 PWs)   bands (ev):

   -66.2009 -66.2008 -65.8012 -65.8008 -65.6760 -65.6760 -38.7961 -38.7956
   -38.1013 -38.1010 -37.9981 -37.9979 -37.7321 -37.7317 -37.7113 -37.7111
   -37.6928 -37.6927 -37.5581 -37.5580 -37.5457 -37.5455 -37.1773 -37.1767
    -4.5592  -4.5375  -4.4153  -4.3943  -4.2962  -4.2825  -4.2598  -4.2340
    -4.0706  -4.0123  -3.8702  -3.8689  -3.7213  -3.7153  -3.5394  -3.5049
    -3.4650  -3.4031  -3.3861  -3.3384  -3.2626  -3.2412  -3.2285  -3.1998
    -3.1224  -3.0549  -2.9339  -2.8588  -2.8104  -2.8072  -2.7477  -2.7119
    -2.1963  -2.0921  -2.0283  -1.9979  -1.8394  -1.6828  -1.2057  -1.1617
    -0.8010  -0.7348  -0.4467  -0.1512  -0.0807  -0.0042   0.0912   0.1103
     0.2327   0.2406   0.2628   0.4595   0.5035   0.5373   0.6465   0.6937
     0.7488   0.7793   1.5368   1.7546   1.7944   2.0949   2.3950   2.4211
     2.5464   3.0115   3.0219   3.7115   3.7283   4.6115

          k =-0.0946-0.1408 0.0000 ( 32324 PWs)   bands (ev):

   -66.2009 -66.2008 -65.8012 -65.8008 -65.6760 -65.6760 -38.7961 -38.7956
   -38.1012 -38.1011 -37.9981 -37.9980 -37.7321 -37.7317 -37.7113 -37.7111
   -37.6928 -37.6927 -37.5581 -37.5580 -37.5456 -37.5456 -37.1773 -37.1767
    -4.5522  -4.5520  -4.4094  -4.4092  -4.2937  -4.2934  -4.2441  -4.2436
    -4.0363  -4.0361  -3.8631  -3.8618  -3.7243  -3.7226  -3.5179  -3.5177
    -3.4427  -3.4389  -3.3696  -3.3636  -3.2487  -3.2476  -3.2104  -3.2081
    -3.0857  -3.0813  -2.8919  -2.8905  -2.8098  -2.8073  -2.7389  -2.7330
    -2.1202  -2.1186  -2.0367  -2.0362  -1.7717  -1.7715  -1.1604  -1.1602
    -0.7942  -0.7936  -0.3167  -0.3166  -0.0331  -0.0323   0.1040   0.1051
     0.2637   0.2639   0.3084   0.3087   0.4937   0.4940   0.6668   0.6672
     0.7507   0.7507   1.6935   1.6935   1.9635   1.9640   2.4147   2.4153
     2.9869   2.9876   3.1962   3.1970   3.9660   3.9670

     the Fermi energy is     0.9671 ev

!    total energy              =   -1597.57684865 Ry
     estimated scf accuracy    <       0.00000640 Ry
     smearing contrib. (-TS)   =      -0.05840258 Ry
     internal energy E=F+TS    =   -1597.51844607 Ry

     The total energy is F=E-TS. E is the sum of the following terms:
     one-electron contribution =  -12812.10358994 Ry
     hartree contribution      =    6450.45716840 Ry
     xc contribution           =    -375.94137254 Ry
     ewald contribution        =    5140.06934483 Ry
     electric field correction =       0.00000318 Ry

     convergence has been achieved in  15 iterations

     negative rho (up, down):  6.117E-03 0.000E+00

     Forces acting on atoms (cartesian axes, Ry/au):

     atom    1 type  1   force =    -0.00000170    0.01167768    0.02728516
     atom    2 type  1   force =     0.00000187    0.01168591    0.02725543
     atom    3 type  2   force =    -0.00000796   -0.01730860   -0.03798091
     atom    4 type  2   force =     0.00000780   -0.01730831   -0.03798075
     atom    5 type  1   force =     0.00006314   -0.01353973   -0.00734408
     atom    6 type  1   force =    -0.00007137   -0.01362298   -0.00742109
     atom    7 type  2   force =     0.00004460    0.01937636    0.01923563
     atom    8 type  2   force =    -0.00004810    0.01937719    0.01923560
     atom    9 type  1   force =     0.00001585   -0.00026095   -0.00141257
     atom   10 type  1   force =     0.00001954   -0.00049916   -0.00142683
     atom   11 type  2   force =    -0.00136891    0.00021178    0.00027666
     atom   12 type  2   force =     0.00134522    0.00021080    0.00027775

     Total force =     0.084980     Total SCF correction =     0.010098
     SCF correction compared to forces is large: reduce conv_thr to get better values

     Writing output data file ./Tc2Ag2/Tc2Ag2_beef.save/

     init_run     :    114.31s CPU    114.88s WALL (       1 calls)
     electrons    :   3050.83s CPU   3065.07s WALL (       1 calls)
     forces       :     67.44s CPU     67.69s WALL (       1 calls)

     Called by init_run:
     wfcinit      :    102.30s CPU    102.62s WALL (       1 calls)
     potinit      :      7.96s CPU      8.04s WALL (       1 calls)
     hinit0       :      2.00s CPU      2.02s WALL (       1 calls)

     Called by electrons:
     c_bands      :   2683.33s CPU   2690.92s WALL (      15 calls)
     sum_band     :    332.27s CPU    335.57s WALL (      15 calls)
     v_of_rho     :     25.04s CPU     26.31s WALL (      16 calls)
     newd         :     17.06s CPU     19.22s WALL (      16 calls)
     mix_rho      :      0.68s CPU      0.69s WALL (      15 calls)
     vdW_kernel   :      5.70s CPU      5.71s WALL (       1 calls)

     Called by c_bands:
     init_us_2    :     12.60s CPU     12.68s WALL (    2368 calls)
     cegterg      :   2655.16s CPU   2661.09s WALL (    1110 calls)

     Called by *egterg:
     cdiaghg      :     92.82s CPU     92.86s WALL (    4028 calls)
     h_psi        :   1313.13s CPU   1318.42s WALL (    4102 calls)
     s_psi        :    483.56s CPU    483.71s WALL (    4102 calls)
     g_psi        :      0.86s CPU      0.86s WALL (    2918 calls)

     Called by h_psi:
     h_psi:calbec :    477.59s CPU    478.21s WALL (    4102 calls)
     vloc_psi     :    340.85s CPU    345.34s WALL (    4102 calls)
     add_vuspsi   :    488.66s CPU    488.79s WALL (    4102 calls)

     General routines
     calbec       :    752.87s CPU    753.82s WALL (    5508 calls)
     fft          :     14.27s CPU     14.76s WALL (    1067 calls)
     ffts         :      0.05s CPU      0.05s WALL (      31 calls)
     fftw         :    395.32s CPU    400.60s WALL (  568744 calls)
     interpolate  :      0.25s CPU      0.26s WALL (      16 calls)

     Parallel routines
     fft_scatt_xy :     32.12s CPU     32.33s WALL (  569842 calls)
     fft_scatt_yz :     72.51s CPU     73.90s WALL (  569842 calls)

     PWSCF        :  54m 3.05s CPU  54m34.67s WALL


   This run was terminated on:  23:14:37  24Jun2022            

=------------------------------------------------------------------------------=
   JOB DONE.
=------------------------------------------------------------------------------=
