
     Program PWSCF v.6.6 starts on 24Jun2022 at 23:14:38 

     This program is part of the open-source Quantum ESPRESSO suite
     for quantum simulation of materials; please cite
         "P. Giannozzi et al., J. Phys.:Condens. Matter 21 395502 (2009);
         "P. Giannozzi et al., J. Phys.:Condens. Matter 29 465901 (2017);
          URL http://www.quantum-espresso.org", 
     in publications or presentations arising from this work. More details at
     http://www.quantum-espresso.org/quote

     Parallel version (MPI), running on    37 processors

     MPI processes distributed on     1 nodes
     R & G space division:  proc/nbgrp/npool/nimage =      37
     Fft bands division:     nmany     =       1
     Reading input from Tc2Au2.in
Warning: card &CELL ignored
Warning: card / ignored

     Current dimensions of program PWSCF are:
     Max number of different atomic species (ntypx) = 10
     Max number of k-points (npk) =  40000
     Max angular momentum in pseudopotentials (lmaxx) =  3
     Presently stress not available with electric field and gates

     Message from routine cell_base_init:
     DEPRECATED: use true lattice parameter, not A to a.u. conversion factor
     file Tc.pbe-spn-rrkjus_psl.0.3.0.UPF: wavefunction(s)  4S 4P renormalized

     **************************************************************************
     Initializing libbeef V0.1.2 with the BEEF-vdW functional.
     Citation: Wellendorff et al., PRB 85, 235149 (2012).
     **************************************************************************


     IMPORTANT: XC functional enforced from input :
     Exchange-correlation= BEEF-VDW
                           (   1   4  43  14   2   0   0)
     Any further DFT definition will be discarded
     Please, verify this is what you really want


     Subspace diagonalization in iterative solution of the eigenvalue problem:
     a serial algorithm will be used


     Parallelization info
     --------------------
     sticks:   dense  smooth     PW     G-vecs:    dense   smooth      PW
     Min         118      47     13                27502     6954    1073
     Max         119      49     14                27525     6965    1098
     Sum        4395    1755    501              1018009   257469   40067



     bravais-lattice index     =            0
     lattice parameter (alat)  =       1.8897  a.u.
     unit-cell volume          =    4658.7176 (a.u.)^3
     number of atoms/cell      =           12
     number of atomic types    =            2
     number of electrons       =       156.00
     number of Kohn-Sham states=           94
     kinetic-energy cutoff     =      55.1240  Ry
     charge density cutoff     =     551.2396  Ry
     convergence threshold     =      1.0E-05
     mixing beta               =       0.1000
     number of iterations used =           10  plain     mixing
     Exchange-correlation= BEEF-VDW
                           (   1   4  43  14   2   0   0)

     celldm(1)=   1.889726  celldm(2)=   0.000000  celldm(3)=   0.000000
     celldm(4)=   0.000000  celldm(5)=   0.000000  celldm(6)=   0.000000

     crystal axes: (cart. coord. in units of alat)
               a(1) = (   5.433433   0.000000   0.000000 )  
               a(2) = (  -2.716717   5.160761   0.000000 )  
               a(3) = (   0.000000   0.000000  24.619646 )  

     reciprocal axes: (cart. coord. in units 2 pi/alat)
               b(1) = (  0.184046  0.096885 -0.000000 )  
               b(2) = (  0.000000  0.193770  0.000000 )  
               b(3) = (  0.000000 -0.000000  0.040618 )  


     PseudoPot. # 1 for Tc read from file:
     ../pseudo/Tc.pbe-spn-rrkjus_psl.0.3.0.UPF
     MD5 check sum: 5f147c0bf103030af994b79b1f5562e4
     Pseudo is Ultrasoft + core correction, Zval = 15.0
     Generated using "atomic" code by A. Dal Corso v.6.2.2
     Using radial grid of 1231 points,  6 beta functions with: 
                l(1) =   0
                l(2) =   0
                l(3) =   1
                l(4) =   1
                l(5) =   2
                l(6) =   2
     Q(r) pseudized with 0 coefficients 


     PseudoPot. # 2 for Au read from file:
     ../pseudo/Au.pbe-n-rrkjus_psl.1.0.0.UPF
     MD5 check sum: d7e77ba19504afed2c9b41c931dde4f0
     Pseudo is Ultrasoft + core correction, Zval = 11.0
     Generated using "atomic" code by A. Dal Corso v.6.3
     Using radial grid of 1279 points,  6 beta functions with: 
                l(1) =   0
                l(2) =   0
                l(3) =   1
                l(4) =   1
                l(5) =   2
                l(6) =   2
     Q(r) pseudized with 0 coefficients 


     atomic species   valence    mass     pseudopotential
        Tc            15.00    97.90721     Tc( 1.00)
        Au            11.00   196.96657     Au( 1.00)

     No symmetry found



   Cartesian axes

     site n.     atom                  positions (alat units)
         1           Tc  tau(   1) = (   0.0000000   0.0000000  10.0000000  )
         2           Tc  tau(   2) = (   2.7167165   0.0000000  10.0000000  )
         3           Au  tau(   3) = (   1.3583583   2.5803806  10.0000000  )
         4           Au  tau(   4) = (  -1.3583583   2.5803806  10.0000000  )
         5           Tc  tau(   5) = (   2.7167165   1.4301279  12.3098231  )
         6           Tc  tau(   6) = (   0.0000000   1.4301279  12.3098231  )
         7           Au  tau(   7) = (  -1.3583583   4.0105085  12.3098231  )
         8           Au  tau(   8) = (   1.3583583   4.0105085  12.3098231  )
         9           Tc  tau(   9) = (   0.0005920   0.5580683  14.3703651  )
        10           Tc  tau(  10) = (   2.7172486   0.5587898  14.3709568  )
        11           Au  tau(  11) = (   1.3604038   3.0315064  14.9759424  )
        12           Au  tau(  12) = (  -1.3587885   3.0315019  14.9760019  )

     number of k points=    74  Fermi-Dirac smearing, width (Ry)=  0.0100
                       cart. coord. in units 2pi/alat
        k(    1) = (   0.0000000   0.0000000   0.0000000), wk =   0.0138889
        k(    2) = (   0.0000000   0.0161475   0.0000000), wk =   0.0277778
        k(    3) = (   0.0000000   0.0322950   0.0000000), wk =   0.0277778
        k(    4) = (   0.0000000   0.0484425   0.0000000), wk =   0.0277778
        k(    5) = (   0.0000000   0.0645900   0.0000000), wk =   0.0277778
        k(    6) = (   0.0000000   0.0807374   0.0000000), wk =   0.0277778
        k(    7) = (   0.0000000  -0.0968849   0.0000000), wk =   0.0138889
        k(    8) = (   0.0153371   0.0080737   0.0000000), wk =   0.0277778
        k(    9) = (   0.0153371   0.0242212   0.0000000), wk =   0.0277778
        k(   10) = (   0.0153371   0.0403687   0.0000000), wk =   0.0277778
        k(   11) = (   0.0153371   0.0565162   0.0000000), wk =   0.0277778
        k(   12) = (   0.0153371   0.0726637   0.0000000), wk =   0.0277778
        k(   13) = (   0.0153371   0.0888112   0.0000000), wk =   0.0277778
        k(   14) = (   0.0153371  -0.0888112   0.0000000), wk =   0.0277778
        k(   15) = (   0.0153371  -0.0726637   0.0000000), wk =   0.0277778
        k(   16) = (   0.0153371  -0.0565162   0.0000000), wk =   0.0277778
        k(   17) = (   0.0153371  -0.0403687   0.0000000), wk =   0.0277778
        k(   18) = (   0.0153371  -0.0242212   0.0000000), wk =   0.0277778
        k(   19) = (   0.0153371  -0.0080737   0.0000000), wk =   0.0277778
        k(   20) = (   0.0306743   0.0161475   0.0000000), wk =   0.0277778
        k(   21) = (   0.0306743   0.0322950   0.0000000), wk =   0.0277778
        k(   22) = (   0.0306743   0.0484425   0.0000000), wk =   0.0277778
        k(   23) = (   0.0306743   0.0645900   0.0000000), wk =   0.0277778
        k(   24) = (   0.0306743   0.0807374   0.0000000), wk =   0.0277778
        k(   25) = (   0.0306743   0.0968849   0.0000000), wk =   0.0277778
        k(   26) = (   0.0306743  -0.0807374   0.0000000), wk =   0.0277778
        k(   27) = (   0.0306743  -0.0645900   0.0000000), wk =   0.0277778
        k(   28) = (   0.0306743  -0.0484425   0.0000000), wk =   0.0277778
        k(   29) = (   0.0306743  -0.0322950   0.0000000), wk =   0.0277778
        k(   30) = (   0.0306743  -0.0161475   0.0000000), wk =   0.0277778
        k(   31) = (   0.0306743   0.0000000   0.0000000), wk =   0.0277778
        k(   32) = (   0.0460114   0.0242212   0.0000000), wk =   0.0277778
        k(   33) = (   0.0460114   0.0403687   0.0000000), wk =   0.0277778
        k(   34) = (   0.0460114   0.0565162   0.0000000), wk =   0.0277778
        k(   35) = (   0.0460114   0.0726637   0.0000000), wk =   0.0277778
        k(   36) = (   0.0460114   0.0888112   0.0000000), wk =   0.0277778
        k(   37) = (   0.0460114   0.1049587   0.0000000), wk =   0.0277778
        k(   38) = (   0.0460114  -0.0726637   0.0000000), wk =   0.0277778
        k(   39) = (   0.0460114  -0.0565162   0.0000000), wk =   0.0277778
        k(   40) = (   0.0460114  -0.0403687   0.0000000), wk =   0.0277778
        k(   41) = (   0.0460114  -0.0242212   0.0000000), wk =   0.0277778
        k(   42) = (   0.0460114  -0.0080737   0.0000000), wk =   0.0277778
        k(   43) = (   0.0460114   0.0080737   0.0000000), wk =   0.0277778
        k(   44) = (   0.0613486   0.0322950   0.0000000), wk =   0.0277778
        k(   45) = (   0.0613486   0.0484425   0.0000000), wk =   0.0277778
        k(   46) = (   0.0613486   0.0645900   0.0000000), wk =   0.0277778
        k(   47) = (   0.0613486   0.0807375   0.0000000), wk =   0.0277778
        k(   48) = (   0.0613486   0.0968849   0.0000000), wk =   0.0277778
        k(   49) = (   0.0613486   0.1130324   0.0000000), wk =   0.0277778
        k(   50) = (   0.0613486  -0.0645900   0.0000000), wk =   0.0277778
        k(   51) = (   0.0613486  -0.0484425   0.0000000), wk =   0.0277778
        k(   52) = (   0.0613486  -0.0322950   0.0000000), wk =   0.0277778
        k(   53) = (   0.0613486  -0.0161475   0.0000000), wk =   0.0277778
        k(   54) = (   0.0613486   0.0000000   0.0000000), wk =   0.0277778
        k(   55) = (   0.0613486   0.0161475   0.0000000), wk =   0.0277778
        k(   56) = (   0.0766857   0.0403687   0.0000000), wk =   0.0277778
        k(   57) = (   0.0766857   0.0565162   0.0000000), wk =   0.0277778
        k(   58) = (   0.0766857   0.0726637   0.0000000), wk =   0.0277778
        k(   59) = (   0.0766857   0.0888112   0.0000000), wk =   0.0277778
        k(   60) = (   0.0766857   0.1049587   0.0000000), wk =   0.0277778
        k(   61) = (   0.0766857   0.1211062   0.0000000), wk =   0.0277778
        k(   62) = (   0.0766857  -0.0565162   0.0000000), wk =   0.0277778
        k(   63) = (   0.0766857  -0.0403687   0.0000000), wk =   0.0277778
        k(   64) = (   0.0766857  -0.0242212   0.0000000), wk =   0.0277778
        k(   65) = (   0.0766857  -0.0080737   0.0000000), wk =   0.0277778
        k(   66) = (   0.0766857   0.0080738   0.0000000), wk =   0.0277778
        k(   67) = (   0.0766857   0.0242212   0.0000000), wk =   0.0277778
        k(   68) = (  -0.0920229  -0.0484425   0.0000000), wk =   0.0138889
        k(   69) = (  -0.0920229  -0.0322950   0.0000000), wk =   0.0277778
        k(   70) = (  -0.0920229  -0.0161475   0.0000000), wk =   0.0277778
        k(   71) = (  -0.0920229  -0.0000000   0.0000000), wk =   0.0277778
        k(   72) = (  -0.0920229   0.0161475   0.0000000), wk =   0.0277778
        k(   73) = (  -0.0920229   0.0322950   0.0000000), wk =   0.0277778
        k(   74) = (  -0.0920229  -0.1453274   0.0000000), wk =   0.0138889

     Dense  grid:  1018009 G-vectors     FFT dimensions: (  80,  90, 360)

     Smooth grid:   257469 G-vectors     FFT dimensions: (  50,  54, 225)

     Estimated max dynamical RAM per process >     204.03 MB

     Estimated total dynamical RAM >       7.37 GB

     Initial potential from superposition of free atoms

     starting charge  155.99555, renormalised to  156.00000

     negative rho (up, down):  6.200E-03 0.000E+00


     %%%%%%%%%%%%%%%%%%%%%%%%%%%%%%%%%%%%%%%%%%%%%%%%%%%%%%%%%%%%%%%%%%%%%%%%
     %                                                                      %
     % You are using vdW-DF, which was implemented by the Thonhauser group. %
     % Please cite the following two papers that made this development      %
     % possible and the two reviews that describe the various versions:     %
     %                                                                      %
     %   T. Thonhauser et al., PRL 115, 136402 (2015).                      %
     %   T. Thonhauser et al., PRB 76, 125112 (2007).                       %
     %   K. Berland et al., Rep. Prog. Phys. 78, 066501 (2015).             %
     %   D.C. Langreth et al., J. Phys.: Condens. Matter 21, 084203 (2009). %
     %                                                                      %
     %                                                                      %
     % If you are calculating the stress with vdW-DF, please also cite:     %
     %                                                                      %
     %   R. Sabatini et al., J. Phys.: Condens. Matter 24, 424209 (2012).   %
     %                                                                      %
     %%%%%%%%%%%%%%%%%%%%%%%%%%%%%%%%%%%%%%%%%%%%%%%%%%%%%%%%%%%%%%%%%%%%%%%%



     Adding external electric field

     Computed dipole along edir(3) : 
        Dipole               -0.0005 Ry au,         -0.0012 Debye
        Dipole field         -0.0000 Ry au, 

        Potential amp.        0.0001 Ry
        Total length         45.3613 bohr

     Starting wfcs are  132 randomized atomic wfcs

     total cpu time spent up to now is      122.8 secs

     Self-consistent Calculation

     iteration #  1     ecut=    55.12 Ry     beta= 0.10
     Davidson diagonalization with overlap
     ethr =  1.00E-02,  avg # of iterations =  2.0

     negative rho (up, down):  6.083E-03 0.000E+00

     Adding external electric field

     Computed dipole along edir(3) : 
        Dipole                0.3041 Ry au,          0.7729 Debye
        Dipole field          0.0008 Ry au, 

        Potential amp.       -0.0744 Ry
        Total length         45.3613 bohr


     total cpu time spent up to now is      341.7 secs

     total energy              =   -1604.93956663 Ry
     estimated scf accuracy    <      13.57201382 Ry

     iteration #  2     ecut=    55.12 Ry     beta= 0.10
     Davidson diagonalization with overlap
     ethr =  8.70E-03,  avg # of iterations =  1.2

     negative rho (up, down):  6.003E-03 0.000E+00

     Adding external electric field

     Computed dipole along edir(3) : 
        Dipole               -0.6502 Ry au,         -1.6526 Debye
        Dipole field         -0.0018 Ry au, 

        Potential amp.        0.1591 Ry
        Total length         45.3613 bohr


     total cpu time spent up to now is      548.5 secs

     total energy              =   -1606.10976416 Ry
     estimated scf accuracy    <       1.55887884 Ry

     iteration #  3     ecut=    55.12 Ry     beta= 0.10
     Davidson diagonalization with overlap
     ethr =  9.99E-04,  avg # of iterations =  2.8

     negative rho (up, down):  6.198E-03 0.000E+00

     Adding external electric field

     Computed dipole along edir(3) : 
        Dipole                0.1094 Ry au,          0.2780 Debye
        Dipole field          0.0003 Ry au, 

        Potential amp.       -0.0268 Ry
        Total length         45.3613 bohr


     total cpu time spent up to now is      765.3 secs

     total energy              =   -1605.87470481 Ry
     estimated scf accuracy    <      30.49656525 Ry

     iteration #  4     ecut=    55.12 Ry     beta= 0.10
     Davidson diagonalization with overlap
     ethr =  9.99E-04,  avg # of iterations =  1.2

     negative rho (up, down):  6.319E-03 0.000E+00

     Adding external electric field

     Computed dipole along edir(3) : 
        Dipole                0.0540 Ry au,          0.1371 Debye
        Dipole field          0.0001 Ry au, 

        Potential amp.       -0.0132 Ry
        Total length         45.3613 bohr


     total cpu time spent up to now is      943.8 secs

     total energy              =   -1606.36739279 Ry
     estimated scf accuracy    <       0.26797392 Ry

     iteration #  5     ecut=    55.12 Ry     beta= 0.10
     Davidson diagonalization with overlap
     ethr =  1.72E-04,  avg # of iterations =  3.1

     negative rho (up, down):  6.463E-03 0.000E+00

     Adding external electric field

     Computed dipole along edir(3) : 
        Dipole               -0.0662 Ry au,         -0.1684 Debye
        Dipole field         -0.0002 Ry au, 

        Potential amp.        0.0162 Ry
        Total length         45.3613 bohr


     total cpu time spent up to now is     1154.4 secs

     total energy              =   -1606.34725699 Ry
     estimated scf accuracy    <       0.12204377 Ry

     iteration #  6     ecut=    55.12 Ry     beta= 0.10
     Davidson diagonalization with overlap
     ethr =  7.82E-05,  avg # of iterations =  3.2

     negative rho (up, down):  7.403E-03 0.000E+00

     Adding external electric field

     Computed dipole along edir(3) : 
        Dipole               -0.0277 Ry au,         -0.0703 Debye
        Dipole field         -0.0001 Ry au, 

        Potential amp.        0.0068 Ry
        Total length         45.3613 bohr


     total cpu time spent up to now is     1378.4 secs

     total energy              =   -1606.35639362 Ry
     estimated scf accuracy    <       0.03499957 Ry

     iteration #  7     ecut=    55.12 Ry     beta= 0.10
     Davidson diagonalization with overlap
     ethr =  2.24E-05,  avg # of iterations =  6.9

     negative rho (up, down):  7.512E-03 0.000E+00

     Adding external electric field

     Computed dipole along edir(3) : 
        Dipole               -0.0340 Ry au,         -0.0863 Debye
        Dipole field         -0.0001 Ry au, 

        Potential amp.        0.0083 Ry
        Total length         45.3613 bohr


     total cpu time spent up to now is     1633.4 secs

     total energy              =   -1606.36117612 Ry
     estimated scf accuracy    <       0.01573791 Ry

     iteration #  8     ecut=    55.12 Ry     beta= 0.10
     Davidson diagonalization with overlap
     ethr =  1.01E-05,  avg # of iterations =  2.2

     negative rho (up, down):  8.560E-03 0.000E+00

     Adding external electric field

     Computed dipole along edir(3) : 
        Dipole               -0.0530 Ry au,         -0.1346 Debye
        Dipole field         -0.0001 Ry au, 

        Potential amp.        0.0130 Ry
        Total length         45.3613 bohr


     total cpu time spent up to now is     1842.4 secs

     total energy              =   -1606.36073527 Ry
     estimated scf accuracy    <       0.00810467 Ry

     iteration #  9     ecut=    55.12 Ry     beta= 0.10
     Davidson diagonalization with overlap
     c_bands:  1 eigenvalues not converged
     ethr =  5.20E-06,  avg # of iterations =  2.9

     negative rho (up, down):  8.460E-03 0.000E+00

     Adding external electric field

     Computed dipole along edir(3) : 
        Dipole               -0.0507 Ry au,         -0.1289 Debye
        Dipole field         -0.0001 Ry au, 

        Potential amp.        0.0124 Ry
        Total length         45.3613 bohr


     total cpu time spent up to now is     2066.8 secs

     total energy              =   -1606.36171495 Ry
     estimated scf accuracy    <       0.00126711 Ry

     iteration # 10     ecut=    55.12 Ry     beta= 0.10
     Davidson diagonalization with overlap
     ethr =  8.12E-07,  avg # of iterations =  5.8

     negative rho (up, down):  8.202E-03 0.000E+00

     Adding external electric field

     Computed dipole along edir(3) : 
        Dipole               -0.0497 Ry au,         -0.1263 Debye
        Dipole field         -0.0001 Ry au, 

        Potential amp.        0.0122 Ry
        Total length         45.3613 bohr


     total cpu time spent up to now is     2347.5 secs

     total energy              =   -1606.36205351 Ry
     estimated scf accuracy    <       0.00079865 Ry

     iteration # 11     ecut=    55.12 Ry     beta= 0.10
     Davidson diagonalization with overlap
     ethr =  5.12E-07,  avg # of iterations =  1.5

     negative rho (up, down):  7.979E-03 0.000E+00

     Adding external electric field

     Computed dipole along edir(3) : 
        Dipole               -0.0516 Ry au,         -0.1311 Debye
        Dipole field         -0.0001 Ry au, 

        Potential amp.        0.0126 Ry
        Total length         45.3613 bohr


     total cpu time spent up to now is     2534.5 secs

     total energy              =   -1606.36205297 Ry
     estimated scf accuracy    <       0.00050090 Ry

     iteration # 12     ecut=    55.12 Ry     beta= 0.10
     Davidson diagonalization with overlap
     ethr =  3.21E-07,  avg # of iterations =  2.0

     negative rho (up, down):  7.742E-03 0.000E+00

     Adding external electric field

     Computed dipole along edir(3) : 
        Dipole               -0.0523 Ry au,         -0.1329 Debye
        Dipole field         -0.0001 Ry au, 

        Potential amp.        0.0128 Ry
        Total length         45.3613 bohr


     total cpu time spent up to now is     2747.4 secs

     total energy              =   -1606.36211179 Ry
     estimated scf accuracy    <       0.00015227 Ry

     iteration # 13     ecut=    55.12 Ry     beta= 0.10
     Davidson diagonalization with overlap
     ethr =  9.76E-08,  avg # of iterations =  2.3

     negative rho (up, down):  7.490E-03 0.000E+00

     Adding external electric field

     Computed dipole along edir(3) : 
        Dipole               -0.0508 Ry au,         -0.1291 Debye
        Dipole field         -0.0001 Ry au, 

        Potential amp.        0.0124 Ry
        Total length         45.3613 bohr


     total cpu time spent up to now is     2977.6 secs

     total energy              =   -1606.36215125 Ry
     estimated scf accuracy    <       0.00007115 Ry

     iteration # 14     ecut=    55.12 Ry     beta= 0.10
     Davidson diagonalization with overlap
     ethr =  4.56E-08,  avg # of iterations =  1.9

     negative rho (up, down):  7.279E-03 0.000E+00

     Adding external electric field

     Computed dipole along edir(3) : 
        Dipole               -0.0485 Ry au,         -0.1232 Debye
        Dipole field         -0.0001 Ry au, 

        Potential amp.        0.0119 Ry
        Total length         45.3613 bohr


     total cpu time spent up to now is     3176.7 secs

     total energy              =   -1606.36215852 Ry
     estimated scf accuracy    <       0.00004152 Ry

     iteration # 15     ecut=    55.12 Ry     beta= 0.10
     Davidson diagonalization with overlap
     ethr =  2.66E-08,  avg # of iterations =  2.6

     negative rho (up, down):  7.090E-03 0.000E+00

     Adding external electric field

     Computed dipole along edir(3) : 
        Dipole               -0.0499 Ry au,         -0.1268 Debye
        Dipole field         -0.0001 Ry au, 

        Potential amp.        0.0122 Ry
        Total length         45.3613 bohr


     total cpu time spent up to now is     3428.9 secs

     total energy              =   -1606.36217199 Ry
     estimated scf accuracy    <       0.00004123 Ry

     iteration # 16     ecut=    55.12 Ry     beta= 0.10
     Davidson diagonalization with overlap
     ethr =  2.64E-08,  avg # of iterations =  2.0

     negative rho (up, down):  6.259E-03 0.000E+00

     Adding external electric field

     Computed dipole along edir(3) : 
        Dipole               -0.0532 Ry au,         -0.1353 Debye
        Dipole field         -0.0001 Ry au, 

        Potential amp.        0.0130 Ry
        Total length         45.3613 bohr


     total cpu time spent up to now is     3665.6 secs

     End of self-consistent calculation

          k = 0.0000 0.0000 0.0000 ( 32103 PWs)   bands (ev):

   -66.0098 -65.9347 -65.6311 -65.5585 -65.5424 -65.4680 -38.7065 -38.6221
   -38.0875 -37.9134 -37.8361 -37.8046 -37.7752 -37.5866 -37.5147 -37.4350
   -37.4014 -37.3612 -37.3431 -37.2728 -37.1392 -37.1252 -36.9707 -36.9114
    -6.7465  -5.5064  -5.1906  -5.1800  -4.9225  -4.8434  -4.7961  -4.5736
    -4.4740  -4.4313  -4.2778  -4.1697  -3.9232  -3.9204  -3.6268  -3.5664
    -3.5147  -3.1181  -2.9671  -2.8220  -2.8044  -2.6587  -2.3499  -2.2595
    -2.1459  -2.0527  -2.0280  -1.8115  -1.4938  -1.4226  -1.4034  -1.2881
    -1.2488  -1.1874  -1.1569  -1.0998  -0.9403  -0.8838  -0.7410  -0.6681
    -0.5077  -0.0274   0.3280   0.4149   0.5564   0.7206   0.7977   0.9480
     1.0369   1.1447   1.2181   1.5380   1.8495   1.8845   2.0205   2.2228
     2.4813   2.5070   2.5838   2.6171   2.6176   2.7112   2.8462   2.9493
     3.0704   3.3858   3.5809   3.9541   4.3363   4.5535

          k = 0.0000 0.0161 0.0000 ( 32163 PWs)   bands (ev):

   -66.0098 -65.9347 -65.6311 -65.5585 -65.5424 -65.4680 -38.7065 -38.6221
   -38.0876 -37.9136 -37.8362 -37.8046 -37.7752 -37.5867 -37.5147 -37.4352
   -37.4014 -37.3613 -37.3431 -37.2729 -37.1392 -37.1252 -36.9707 -36.9114
    -6.7064  -5.4833  -5.1652  -5.1620  -4.9006  -4.8255  -4.7588  -4.5574
    -4.4584  -4.4082  -4.2521  -4.1386  -3.9058  -3.8989  -3.6155  -3.5563
    -3.5026  -3.0859  -2.9762  -2.8315  -2.7978  -2.6592  -2.3374  -2.2758
    -2.1387  -2.0821  -2.0571  -1.8021  -1.5766  -1.4278  -1.4139  -1.2500
    -1.2324  -1.2009  -1.1528  -1.1062  -0.9614  -0.8851  -0.7694  -0.7103
    -0.5409  -0.0578   0.2634   0.3823   0.4355   0.6641   0.7146   0.9292
     0.9437   1.1119   1.1906   1.5383   1.6794   1.7976   1.9922   2.1513
     2.4005   2.4749   2.4966   2.6025   2.6095   2.7988   2.8286   2.9858
     3.0971   3.1455   3.5822   4.1067   4.3489   4.7903

          k = 0.0000 0.0323 0.0000 ( 32185 PWs)   bands (ev):

   -66.0098 -65.9347 -65.6311 -65.5585 -65.5424 -65.4680 -38.7066 -38.6221
   -38.0878 -37.9141 -37.8363 -37.8048 -37.7753 -37.5869 -37.5148 -37.4356
   -37.4014 -37.3615 -37.3432 -37.2729 -37.1392 -37.1253 -36.9707 -36.9114
    -6.5920  -5.4220  -5.1106  -5.0949  -4.8387  -4.7741  -4.6513  -4.5110
    -4.4115  -4.3411  -4.1823  -4.0450  -3.8631  -3.8239  -3.5824  -3.5300
    -3.4631  -3.0072  -2.9951  -2.8590  -2.7921  -2.6553  -2.3202  -2.3033
    -2.1837  -2.1185  -2.1122  -1.7754  -1.7132  -1.5003  -1.3903  -1.2530
    -1.2430  -1.1879  -1.1604  -1.1274  -1.0118  -0.8886  -0.8467  -0.8157
    -0.6389  -0.1565   0.0809   0.1271   0.2715   0.4140   0.6976   0.7112
     0.7828   0.9944   1.1837   1.3388   1.4120   1.5623   1.9148   1.9552
     2.1468   2.3328   2.4646   2.5117   2.5572   2.7889   2.8523   2.8746
     3.1277   3.5855   3.5967   4.3045   4.3440   4.8171

          k = 0.0000 0.0484 0.0000 ( 32171 PWs)   bands (ev):

   -66.0097 -65.9347 -65.6311 -65.5585 -65.5423 -65.4680 -38.7067 -38.6222
   -38.0881 -37.9149 -37.8366 -37.8051 -37.7754 -37.5871 -37.5150 -37.4361
   -37.4014 -37.3617 -37.3434 -37.2730 -37.1392 -37.1253 -36.9707 -36.9114
    -6.4231  -5.3432  -5.0326  -4.9987  -4.7528  -4.6949  -4.4884  -4.4408
    -4.3310  -4.2400  -4.0831  -3.8945  -3.7956  -3.6981  -3.5309  -3.4990
    -3.4019  -3.0147  -2.9310  -2.9005  -2.8090  -2.6356  -2.3561  -2.3321
    -2.2576  -2.1736  -2.0884  -1.8439  -1.7369  -1.6255  -1.3596  -1.3281
    -1.2702  -1.2544  -1.2366  -1.1703  -1.0560  -0.9504  -0.9053  -0.8937
    -0.7570  -0.3650  -0.2500  -0.1423   0.1106   0.1451   0.4706   0.5336
     0.6734   0.7834   0.8759   1.0223   1.2146   1.3395   1.7434   1.8092
     2.0943   2.3033   2.3876   2.4077   2.4901   2.7521   2.7747   2.8968
     3.5900   3.5917   3.9903   4.2260   4.5320   4.5824

          k = 0.0000 0.0646 0.0000 ( 32213 PWs)   bands (ev):

   -66.0097 -65.9347 -65.6311 -65.5585 -65.5423 -65.4680 -38.7069 -38.6222
   -38.0884 -37.9156 -37.8368 -37.8053 -37.7755 -37.5874 -37.5151 -37.4366
   -37.4015 -37.3619 -37.3435 -37.2731 -37.1393 -37.1253 -36.9707 -36.9114
    -6.2369  -5.2708  -4.9373  -4.9057  -4.6781  -4.5980  -4.3496  -4.3012
    -4.2175  -4.1272  -3.9653  -3.7092  -3.7055  -3.5789  -3.4793  -3.4404
    -3.3752  -3.0321  -2.9481  -2.8707  -2.8454  -2.6314  -2.4988  -2.2896
    -2.2196  -2.2141  -2.0531  -1.9746  -1.8081  -1.6965  -1.4829  -1.4699
    -1.3647  -1.3341  -1.2491  -1.2440  -1.1002  -1.0547  -0.9622  -0.8994
    -0.7890  -0.6693  -0.5774  -0.3290  -0.1123  -0.0426   0.2189   0.3572
     0.3614   0.5252   0.6476   0.7846   1.0705   1.2528   1.6154   1.7032
     2.1657   2.2904   2.3283   2.4309   2.4447   2.7285   2.7463   2.9086
     3.5946   4.1017   4.1640   4.1663   4.2378   4.9248

          k = 0.0000 0.0807 0.0000 ( 32173 PWs)   bands (ev):

   -66.0097 -65.9347 -65.6311 -65.5585 -65.5423 -65.4680 -38.7070 -38.6223
   -38.0886 -37.9161 -37.8370 -37.8055 -37.7755 -37.5875 -37.5152 -37.4370
   -37.4015 -37.3621 -37.3436 -37.2731 -37.1393 -37.1253 -36.9707 -36.9114
    -6.0880  -5.2214  -4.8440  -4.8419  -4.6471  -4.5106  -4.2474  -4.1481
    -4.0850  -4.0368  -3.8239  -3.6188  -3.6161  -3.5355  -3.4873  -3.4373
    -3.2643  -3.0388  -2.9891  -2.8603  -2.8210  -2.6346  -2.5985  -2.2555
    -2.1973  -2.1848  -2.0608  -2.0225  -2.0001  -1.6662  -1.6544  -1.6390
    -1.4816  -1.3304  -1.3217  -1.2374  -1.1438  -1.1401  -1.1150  -0.9043
    -0.8834  -0.7720  -0.7377  -0.4623  -0.2617  -0.2012  -0.1118   0.1449
     0.2894   0.3248   0.6275   0.6397   0.8899   1.2806   1.5478   1.6252
     2.2139   2.2589   2.2809   2.3931   2.5803   2.7163   2.7399   2.9159
     3.5980   3.9472   4.1283   4.2242   4.6976   5.2300

          k = 0.0000-0.0969 0.0000 ( 32212 PWs)   bands (ev):

   -66.0097 -65.9347 -65.6311 -65.5585 -65.5423 -65.4680 -38.7070 -38.6223
   -38.0886 -37.9163 -37.8371 -37.8056 -37.7756 -37.5876 -37.5153 -37.4371
   -37.4015 -37.3622 -37.3437 -37.2732 -37.1393 -37.1253 -36.9707 -36.9114
    -6.0307  -5.2040  -4.8196  -4.7980  -4.6476  -4.4744  -4.1976  -4.0916
    -4.0018  -3.9900  -3.7065  -3.6646  -3.6358  -3.5467  -3.5231  -3.3882
    -3.1724  -3.0403  -3.0060  -2.8431  -2.8341  -2.6790  -2.5301  -2.3031
    -2.2357  -2.1747  -2.0694  -2.0233  -2.0101  -1.7206  -1.7030  -1.6552
    -1.5358  -1.3714  -1.3186  -1.2499  -1.2311  -1.1831  -1.1552  -0.9296
    -0.9063  -0.8293  -0.6910  -0.5174  -0.3108  -0.2632  -0.2627   0.0903
     0.2523   0.2741   0.5897   0.6199   0.8282   1.2904   1.5262   1.5965
     2.2276   2.2320   2.2772   2.3799   2.6532   2.7125   2.7393   2.9186
     3.5992   3.8463   4.1169   4.2388   5.1147   5.3527

          k = 0.0153 0.0081 0.0000 ( 32148 PWs)   bands (ev):

   -66.0085 -65.9360 -65.6299 -65.5598 -65.5411 -65.4693 -38.7051 -38.6235
   -38.0762 -37.9122 -37.8375 -37.7936 -37.7645 -37.5854 -37.5159 -37.4338
   -37.4135 -37.3626 -37.3419 -37.2741 -37.1509 -37.1368 -36.9697 -36.9124
    -6.6850  -5.4438  -5.1598  -5.1261  -4.8786  -4.8151  -4.7740  -4.5417
    -4.4533  -4.4025  -4.2656  -4.1478  -3.8911  -3.8902  -3.6043  -3.5419
    -3.5026  -3.1055  -2.9639  -2.8079  -2.8003  -2.6619  -2.3905  -2.2722
    -2.2238  -2.0293  -2.0049  -1.8584  -1.5355  -1.4899  -1.3660  -1.2961
    -1.2779  -1.1400  -1.1258  -1.1134  -0.9305  -0.9109  -0.7471  -0.6968
    -0.5166  -0.1245   0.3207   0.3290   0.4154   0.5935   0.7133   0.9177
     1.0243   1.0809   1.2609   1.5116   1.6934   1.7869   1.8860   2.1242
     2.4414   2.4815   2.5008   2.5995   2.6505   2.7114   2.9025   2.9470
     2.9884   3.4974   3.6059   3.7465   4.2273   4.5856

          k = 0.0153 0.0242 0.0000 ( 32158 PWs)   bands (ev):

   -66.0085 -65.9360 -65.6299 -65.5598 -65.5411 -65.4693 -38.7051 -38.6235
   -38.0764 -37.9125 -37.8376 -37.7938 -37.7646 -37.5856 -37.5160 -37.4341
   -37.4135 -37.3627 -37.3420 -37.2741 -37.1510 -37.1368 -36.9697 -36.9124
    -6.6062  -5.3993  -5.1118  -5.0911  -4.8357  -4.7822  -4.7000  -4.5132
    -4.4207  -4.3582  -4.2156  -4.0883  -3.8607  -3.8436  -3.5829  -3.5229
    -3.4784  -3.0468  -2.9799  -2.8191  -2.7998  -2.6611  -2.3731  -2.3028
    -2.2310  -2.0842  -2.0404  -1.8399  -1.6589  -1.4868  -1.4061  -1.3082
    -1.2110  -1.1642  -1.1260  -1.1122  -0.9535  -0.9277  -0.8183  -0.7585
    -0.5769  -0.1950   0.1464   0.1994   0.3259   0.5317   0.5855   0.8434
     0.8636   1.0062   1.1909   1.4686   1.4758   1.5603   1.8244   1.9850
     2.3261   2.3544   2.4527   2.6083   2.6475   2.6591   2.9064   2.9369
     3.1650   3.3529   3.5721   3.8207   4.4178   4.7975

          k = 0.0153 0.0404 0.0000 ( 32191 PWs)   bands (ev):

   -66.0085 -65.9360 -65.6299 -65.5598 -65.5411 -65.4693 -38.7053 -38.6236
   -38.0766 -37.9132 -37.8378 -37.7940 -37.7646 -37.5858 -37.5161 -37.4346
   -37.4136 -37.3629 -37.3421 -37.2742 -37.1510 -37.1368 -36.9697 -36.9124
    -6.4609  -5.3256  -5.0267  -5.0261  -4.7582  -4.7172  -4.5660  -4.4595
    -4.3559  -4.2732  -4.1301  -3.9702  -3.8023  -3.7477  -3.5414  -3.4922
    -3.4280  -3.0001  -2.9649  -2.8532  -2.8060  -2.6493  -2.3500  -2.3473
    -2.2890  -2.1409  -2.0874  -1.8130  -1.7942  -1.5322  -1.4396  -1.3296
    -1.2255  -1.2169  -1.1476  -1.1253  -0.9950  -0.9395  -0.9295  -0.8541
    -0.6799  -0.3496  -0.1634  -0.0052   0.1889   0.2629   0.5272   0.6389
     0.6735   0.8433   1.0335   1.1104   1.2661   1.4338   1.7541   1.7731
     2.2241   2.2800   2.3673   2.4690   2.5986   2.6064   2.8066   2.9058
     3.4275   3.5708   3.6555   4.0152   4.5589   4.7618

          k = 0.0153 0.0565 0.0000 ( 32188 PWs)   bands (ev):

   -66.0085 -65.9360 -65.6299 -65.5598 -65.5411 -65.4693 -38.7054 -38.6236
   -38.0769 -37.9139 -37.8381 -37.7942 -37.7647 -37.5860 -37.5163 -37.4351
   -37.4136 -37.3631 -37.3423 -37.2743 -37.1510 -37.1368 -36.9697 -36.9124
    -6.2767  -5.2467  -4.9387  -4.9284  -4.6734  -4.6270  -4.3953  -4.3820
    -4.2592  -4.1616  -4.0226  -3.8081  -3.7193  -3.6170  -3.4798  -3.4642
    -3.3762  -3.0194  -2.9061  -2.8934  -2.8389  -2.6332  -2.4262  -2.3450
    -2.3229  -2.1652  -2.1179  -1.9218  -1.7958  -1.6683  -1.4384  -1.3786
    -1.3729  -1.2874  -1.2087  -1.2080  -1.0247  -1.0242  -0.9457  -0.9353
    -0.7479  -0.5945  -0.4950  -0.2022  -0.0314   0.0469   0.3501   0.4167
     0.5034   0.5975   0.7199   0.8064   1.1934   1.2445   1.6328   1.7003
     2.1646   2.2746   2.3222   2.4272   2.5262   2.5842   2.7251   2.9068
     3.5689   3.7285   3.9267   4.1987   4.4251   4.8146

          k = 0.0153 0.0727 0.0000 ( 32191 PWs)   bands (ev):

   -66.0084 -65.9360 -65.6299 -65.5598 -65.5411 -65.4693 -38.7055 -38.6237
   -38.0772 -37.9146 -37.8383 -37.7944 -37.7648 -37.5862 -37.5164 -37.4355
   -37.4137 -37.3633 -37.3424 -37.2743 -37.1510 -37.1368 -36.9697 -36.9124
    -6.1001  -5.1837  -4.8468  -4.8406  -4.6232  -4.5282  -4.2804  -4.2307
    -4.1362  -4.0535  -3.8941  -3.6549  -3.5977  -3.5746  -3.4579  -3.3964
    -3.3446  -3.0337  -2.9446  -2.8738  -2.8345  -2.6341  -2.5793  -2.3088
    -2.2424  -2.1947  -2.1256  -2.0452  -1.8979  -1.7453  -1.5821  -1.5023
    -1.4029  -1.3397  -1.2993  -1.2893  -1.1375  -1.0539  -1.0177  -0.9473
    -0.8241  -0.7712  -0.7331  -0.3520  -0.2288  -0.1266   0.0844   0.2448
     0.2787   0.3799   0.6180   0.6368   0.9878   1.2593   1.5583   1.6158
     2.1772   2.2701   2.2765   2.4004   2.5372   2.5799   2.7332   2.9077
     3.5685   3.7518   4.1040   4.2561   4.4862   5.0603

          k = 0.0153 0.0888 0.0000 ( 32214 PWs)   bands (ev):

   -66.0084 -65.9360 -65.6299 -65.5598 -65.5411 -65.4693 -38.7056 -38.6237
   -38.0773 -37.9149 -37.8384 -37.7946 -37.7649 -37.5864 -37.5165 -37.4358
   -37.4137 -37.3634 -37.3425 -37.2744 -37.1511 -37.1368 -36.9697 -36.9124
    -5.9900  -5.1493  -4.8024  -4.7591  -4.6213  -4.4590  -4.1947  -4.1315
    -4.0001  -3.9867  -3.7363  -3.6753  -3.5726  -3.5445  -3.4977  -3.4065
    -3.1974  -3.0378  -2.9788  -2.8680  -2.8151  -2.6731  -2.5667  -2.2981
    -2.2568  -2.2390  -2.1228  -2.0520  -2.0322  -1.7535  -1.7069  -1.5564
    -1.4592  -1.3856  -1.3550  -1.3103  -1.2230  -1.1842  -1.0706  -0.9498
    -0.9255  -0.8767  -0.6877  -0.4359  -0.3256  -0.2427  -0.1441   0.1415
     0.1908   0.2936   0.5468   0.5930   0.8787   1.2695   1.5255   1.5583
     2.1861   2.2328   2.2661   2.3784   2.5770   2.5812   2.7911   2.9083
     3.5648   3.7610   3.9196   4.2725   5.0129   5.1687

          k = 0.0153-0.0888 0.0000 ( 32214 PWs)   bands (ev):

   -66.0084 -65.9360 -65.6299 -65.5598 -65.5411 -65.4693 -38.7056 -38.6237
   -38.0773 -37.9149 -37.8384 -37.7946 -37.7649 -37.5864 -37.5165 -37.4358
   -37.4137 -37.3634 -37.3425 -37.2744 -37.1511 -37.1368 -36.9697 -36.9124
    -5.9900  -5.1493  -4.8024  -4.7591  -4.6213  -4.4590  -4.1947  -4.1315
    -4.0001  -3.9867  -3.7363  -3.6753  -3.5726  -3.5446  -3.4976  -3.4064
    -3.1974  -3.0378  -2.9787  -2.8680  -2.8151  -2.6730  -2.5666  -2.2982
    -2.2567  -2.2390  -2.1228  -2.0519  -2.0322  -1.7535  -1.7070  -1.5565
    -1.4591  -1.3856  -1.3550  -1.3104  -1.2232  -1.1841  -1.0706  -0.9498
    -0.9255  -0.8767  -0.6877  -0.4359  -0.3256  -0.2427  -0.1441   0.1414
     0.1908   0.2936   0.5468   0.5930   0.8787   1.2695   1.5255   1.5583
     2.1861   2.2328   2.2661   2.3784   2.5769   2.5812   2.7911   2.9083
     3.5648   3.7610   3.9195   4.2725   5.0130   5.1687

          k = 0.0153-0.0727 0.0000 ( 32191 PWs)   bands (ev):

   -66.0084 -65.9360 -65.6299 -65.5598 -65.5411 -65.4693 -38.7055 -38.6237
   -38.0772 -37.9146 -37.8383 -37.7944 -37.7648 -37.5862 -37.5164 -37.4355
   -37.4137 -37.3633 -37.3424 -37.2743 -37.1510 -37.1368 -36.9697 -36.9124
    -6.1001  -5.1837  -4.8468  -4.8406  -4.6232  -4.5282  -4.2804  -4.2307
    -4.1362  -4.0535  -3.8941  -3.6551  -3.5975  -3.5746  -3.4580  -3.3964
    -3.3446  -3.0338  -2.9445  -2.8738  -2.8346  -2.6341  -2.5793  -2.3088
    -2.2423  -2.1946  -2.1256  -2.0452  -1.8979  -1.7454  -1.5823  -1.5025
    -1.4030  -1.3396  -1.2993  -1.2892  -1.1375  -1.0539  -1.0177  -0.9473
    -0.8242  -0.7712  -0.7331  -0.3520  -0.2287  -0.1266   0.0845   0.2447
     0.2787   0.3798   0.6180   0.6368   0.9879   1.2593   1.5582   1.6158
     2.1773   2.2700   2.2766   2.4004   2.5371   2.5799   2.7333   2.9076
     3.5685   3.7518   4.1039   4.2561   4.4864   5.0605

          k = 0.0153-0.0565 0.0000 ( 32188 PWs)   bands (ev):

   -66.0085 -65.9360 -65.6299 -65.5598 -65.5411 -65.4693 -38.7054 -38.6236
   -38.0769 -37.9139 -37.8381 -37.7942 -37.7647 -37.5860 -37.5163 -37.4351
   -37.4136 -37.3631 -37.3423 -37.2743 -37.1510 -37.1368 -36.9697 -36.9124
    -6.2767  -5.2467  -4.9387  -4.9284  -4.6733  -4.6270  -4.3952  -4.3820
    -4.2592  -4.1616  -4.0225  -3.8082  -3.7193  -3.6170  -3.4798  -3.4643
    -3.3762  -3.0195  -2.9062  -2.8934  -2.8390  -2.6332  -2.4261  -2.3450
    -2.3228  -2.1652  -2.1180  -1.9218  -1.7958  -1.6684  -1.4383  -1.3789
    -1.3732  -1.2875  -1.2086  -1.2079  -1.0249  -1.0241  -0.9458  -0.9350
    -0.7479  -0.5944  -0.4951  -0.2022  -0.0314   0.0469   0.3503   0.4168
     0.5033   0.5975   0.7198   0.8065   1.1935   1.2445   1.6327   1.7002
     2.1646   2.2745   2.3224   2.4270   2.5262   2.5841   2.7252   2.9067
     3.5689   3.7285   3.9269   4.1985   4.4250   4.8146

          k = 0.0153-0.0404 0.0000 ( 32191 PWs)   bands (ev):

   -66.0085 -65.9360 -65.6299 -65.5598 -65.5411 -65.4693 -38.7053 -38.6236
   -38.0766 -37.9132 -37.8378 -37.7940 -37.7646 -37.5858 -37.5161 -37.4346
   -37.4136 -37.3629 -37.3421 -37.2742 -37.1510 -37.1368 -36.9697 -36.9124
    -6.4609  -5.3256  -5.0267  -5.0261  -4.7582  -4.7172  -4.5660  -4.4595
    -4.3559  -4.2732  -4.1300  -3.9702  -3.8023  -3.7477  -3.5414  -3.4922
    -3.4280  -3.0001  -2.9649  -2.8533  -2.8060  -2.6493  -2.3499  -2.3472
    -2.2890  -2.1409  -2.0875  -1.8130  -1.7941  -1.5323  -1.4395  -1.3297
    -1.2259  -1.2170  -1.1473  -1.1254  -0.9948  -0.9396  -0.9300  -0.8536
    -0.6799  -0.3496  -0.1634  -0.0052   0.1888   0.2629   0.5274   0.6389
     0.6731   0.8436   1.0336   1.1105   1.2660   1.4339   1.7540   1.7730
     2.2241   2.2799   2.3674   2.4687   2.5987   2.6063   2.8066   2.9057
     3.4277   3.5708   3.6557   4.0149   4.5587   4.7617

          k = 0.0153-0.0242 0.0000 ( 32158 PWs)   bands (ev):

   -66.0085 -65.9360 -65.6299 -65.5598 -65.5411 -65.4693 -38.7051 -38.6235
   -38.0764 -37.9125 -37.8376 -37.7938 -37.7646 -37.5856 -37.5160 -37.4341
   -37.4135 -37.3627 -37.3420 -37.2741 -37.1510 -37.1368 -36.9697 -36.9124
    -6.6062  -5.3993  -5.1118  -5.0911  -4.8357  -4.7822  -4.7001  -4.5132
    -4.4206  -4.3582  -4.2156  -4.0883  -3.8607  -3.8436  -3.5829  -3.5229
    -3.4784  -3.0468  -2.9799  -2.8191  -2.7998  -2.6610  -2.3730  -2.3028
    -2.2310  -2.0842  -2.0404  -1.8399  -1.6588  -1.4870  -1.4060  -1.3082
    -1.2112  -1.1642  -1.1259  -1.1121  -0.9534  -0.9278  -0.8188  -0.7580
    -0.5769  -0.1950   0.1464   0.1994   0.3259   0.5315   0.5857   0.8433
     0.8633   1.0065   1.1910   1.4688   1.4757   1.5605   1.8242   1.9851
     2.3261   2.3544   2.4527   2.6082   2.6475   2.6591   2.9062   2.9369
     3.1652   3.3530   3.5721   3.8203   4.4175   4.7979

          k = 0.0153-0.0081 0.0000 ( 32148 PWs)   bands (ev):

   -66.0085 -65.9360 -65.6299 -65.5598 -65.5411 -65.4693 -38.7051 -38.6235
   -38.0762 -37.9122 -37.8375 -37.7936 -37.7645 -37.5854 -37.5159 -37.4338
   -37.4135 -37.3626 -37.3419 -37.2741 -37.1509 -37.1368 -36.9697 -36.9124
    -6.6850  -5.4438  -5.1598  -5.1261  -4.8786  -4.8151  -4.7740  -4.5417
    -4.4533  -4.4025  -4.2656  -4.1478  -3.8911  -3.8902  -3.6043  -3.5419
    -3.5026  -3.1054  -2.9639  -2.8079  -2.8003  -2.6619  -2.3905  -2.2722
    -2.2238  -2.0293  -2.0050  -1.8584  -1.5355  -1.4899  -1.3660  -1.2961
    -1.2780  -1.1400  -1.1257  -1.1134  -0.9305  -0.9109  -0.7473  -0.6966
    -0.5166  -0.1245   0.3206   0.3290   0.4155   0.5935   0.7131   0.9177
     1.0242   1.0810   1.2609   1.5116   1.6935   1.7869   1.8858   2.1243
     2.4413   2.4815   2.5007   2.5997   2.6506   2.7114   2.9027   2.9467
     2.9883   3.4975   3.6059   3.7463   4.2272   4.5858

          k = 0.0307 0.0161 0.0000 ( 32133 PWs)   bands (ev):

   -66.0048 -65.9398 -65.6263 -65.5634 -65.5374 -65.4730 -38.7009 -38.6278
   -38.0432 -37.9085 -37.8416 -37.7615 -37.7331 -37.5819 -37.5196 -37.4491
   -37.4303 -37.3664 -37.3384 -37.2776 -37.1853 -37.1704 -36.9667 -36.9153
    -6.5038  -5.2599  -5.0727  -4.9713  -4.7537  -4.7491  -4.6947  -4.4542
    -4.3825  -4.3247  -4.2239  -4.0874  -3.8040  -3.7971  -3.5389  -3.4777
    -3.4620  -3.0697  -2.9587  -2.8356  -2.7387  -2.6682  -2.4871  -2.3940
    -2.3074  -2.0594  -2.0003  -1.8822  -1.6378  -1.6355  -1.4215  -1.3098
    -1.2625  -1.1659  -1.1027  -1.0188  -0.9820  -0.8499  -0.8170  -0.7592
    -0.5445  -0.4517  -0.0362   0.2042   0.2449   0.3997   0.5563   0.8125
     0.9395   0.9849   1.2750   1.2841   1.4395   1.5408   1.6618   1.8808
     2.2263   2.3691   2.3693   2.4514   2.5517   2.7499   2.9508   2.9663
     3.2932   3.3408   3.4931   3.8273   3.9651   4.3724

          k = 0.0307 0.0323 0.0000 ( 32162 PWs)   bands (ev):

   -66.0048 -65.9398 -65.6263 -65.5634 -65.5374 -65.4730 -38.7010 -38.6278
   -38.0434 -37.9090 -37.8417 -37.7617 -37.7332 -37.5821 -37.5197 -37.4491
   -37.4307 -37.3665 -37.3385 -37.2777 -37.1853 -37.1704 -36.9667 -36.9153
    -6.3898  -5.1968  -5.0100  -4.9229  -4.7007  -4.6910  -4.5967  -4.4252
    -4.3293  -4.2658  -4.1517  -4.0084  -3.7551  -3.7388  -3.5113  -3.4539
    -3.4268  -2.9983  -2.9797  -2.8401  -2.7651  -2.6625  -2.4711  -2.4102
    -2.3455  -2.1167  -2.0465  -1.8798  -1.7684  -1.6347  -1.4481  -1.3810
    -1.2376  -1.1707  -1.0912  -1.0527  -0.9774  -0.9604  -0.8616  -0.8247
    -0.6018  -0.5889  -0.2364   0.1215   0.1525   0.3521   0.3573   0.6592
     0.8076   0.8130   1.0269   1.1125   1.3198   1.4070   1.5858   1.7205
     2.1562   2.3139   2.3221   2.4165   2.5742   2.7855   2.8199   3.1629
     3.1719   3.4596   3.5823   3.6070   4.2092   4.7284

          k = 0.0307 0.0484 0.0000 ( 32198 PWs)   bands (ev):

   -66.0047 -65.9398 -65.6263 -65.5634 -65.5374 -65.4730 -38.7011 -38.6279
   -38.0436 -37.9097 -37.8419 -37.7619 -37.7333 -37.5823 -37.5198 -37.4491
   -37.4311 -37.3667 -37.3387 -37.2777 -37.1854 -37.1704 -36.9667 -36.9154
    -6.2198  -5.1156  -4.9182  -4.8502  -4.6229  -4.6015  -4.4611  -4.3738
    -4.2492  -4.1676  -4.0555  -3.8827  -3.6805  -3.6433  -3.4653  -3.4207
    -3.3779  -3.0018  -2.9286  -2.8713  -2.8022  -2.6468  -2.4788  -2.4289
    -2.3754  -2.1966  -2.1157  -1.8973  -1.8797  -1.6362  -1.4963  -1.4785
    -1.3316  -1.2060  -1.1251  -1.0756  -1.0704  -1.0114  -0.9335  -0.8957
    -0.7697  -0.6606  -0.4686  -0.0357  -0.0055   0.1198   0.2681   0.4508
     0.5821   0.6147   0.7444   0.8756   1.2395   1.2548   1.5978   1.6060
     2.1626   2.2776   2.2940   2.3236   2.4955   2.6459   2.8426   2.8467
     3.2054   3.5244   3.8484   3.8856   4.4579   4.7712

          k = 0.0307 0.0646 0.0000 ( 32219 PWs)   bands (ev):

   -66.0047 -65.9398 -65.6263 -65.5634 -65.5374 -65.4730 -38.7013 -38.6279
   -38.0439 -37.9103 -37.8421 -37.7621 -37.7334 -37.5825 -37.5199 -37.4492
   -37.4316 -37.3669 -37.3388 -37.2778 -37.1854 -37.1705 -36.9667 -36.9154
    -6.0293  -5.0410  -4.8236  -4.7622  -4.5278  -4.5222  -4.3233  -4.2888
    -4.1465  -4.0494  -3.9414  -3.7363  -3.5860  -3.5583  -3.4092  -3.3875
    -3.3474  -3.0250  -2.9182  -2.8708  -2.8442  -2.6480  -2.5582  -2.4355
    -2.3286  -2.2804  -2.1687  -2.0173  -1.9210  -1.6782  -1.5763  -1.5193
    -1.5137  -1.3089  -1.2198  -1.1821  -1.1500  -1.0487  -0.9907  -0.9107
    -0.8941  -0.7214  -0.6823  -0.2465  -0.1731  -0.0524   0.1527   0.2602
     0.3627   0.4259   0.5664   0.6783   1.0873   1.2350   1.5519   1.5567
     2.1646   2.1876   2.2642   2.2763   2.4107   2.6008   2.7637   2.8500
     3.2358   3.5101   3.9697   4.3385   4.4497   4.4598

          k = 0.0307 0.0807 0.0000 ( 32227 PWs)   bands (ev):

   -66.0047 -65.9397 -65.6263 -65.5634 -65.5374 -65.4730 -38.7014 -38.6280
   -38.0441 -37.9108 -37.8422 -37.7623 -37.7335 -37.5827 -37.5200 -37.4492
   -37.4319 -37.3670 -37.3389 -37.2779 -37.1854 -37.1705 -36.9667 -36.9154
    -5.8737  -4.9902  -4.7563  -4.6743  -4.5081  -4.4223  -4.2246  -4.1867
    -4.0159  -3.9516  -3.8081  -3.6157  -3.6045  -3.4834  -3.4643  -3.3538
    -3.2650  -3.0381  -2.9363  -2.9032  -2.7959  -2.6636  -2.6308  -2.4636
    -2.3074  -2.2761  -2.2044  -2.0962  -2.0394  -1.7226  -1.6755  -1.5971
    -1.5390  -1.4422  -1.3398  -1.2679  -1.2061  -1.0863  -1.0519  -0.9872
    -0.9057  -0.8932  -0.6775  -0.3963  -0.2594  -0.1972   0.0456   0.1213
     0.2590   0.2811   0.4573   0.5817   0.9964   1.2281   1.4717   1.5290
     2.1081   2.2071   2.2116   2.2583   2.3780   2.5099   2.8455   2.8872
     3.2612   3.4981   4.0419   4.1168   4.4204   4.9193

          k = 0.0307 0.0969 0.0000 ( 32214 PWs)   bands (ev):

   -66.0047 -65.9397 -65.6263 -65.5634 -65.5374 -65.4730 -38.7014 -38.6280
   -38.0441 -37.9110 -37.8423 -37.7623 -37.7335 -37.5828 -37.5201 -37.4492
   -37.4321 -37.3671 -37.3389 -37.2779 -37.1854 -37.1705 -36.9667 -36.9154
    -5.8127  -4.9722  -4.7327  -4.6270  -4.5179  -4.3773  -4.1906  -4.1414
    -3.9136  -3.8974  -3.7145  -3.7110  -3.5654  -3.5421  -3.4378  -3.3559
    -3.2084  -3.0327  -2.9264  -2.9251  -2.7828  -2.7080  -2.5848  -2.4809
    -2.3031  -2.3000  -2.2350  -2.1082  -2.0937  -1.7303  -1.7218  -1.6021
    -1.5567  -1.5118  -1.3790  -1.3101  -1.2165  -1.1773  -1.0515  -1.0095
    -0.9439  -0.8940  -0.6733  -0.4434  -0.2860  -0.2562   0.0013   0.0710
     0.2308   0.2329   0.4194   0.5538   0.9682   1.2259   1.4308   1.5227
     2.0973   2.1746   2.2259   2.2460   2.3664   2.4905   2.8431   2.9551
     3.2708   3.4899   4.0086   4.0681   4.4025   5.2965

          k = 0.0307-0.0807 0.0000 ( 32227 PWs)   bands (ev):

   -66.0047 -65.9397 -65.6263 -65.5634 -65.5374 -65.4730 -38.7014 -38.6280
   -38.0441 -37.9108 -37.8422 -37.7623 -37.7335 -37.5827 -37.5200 -37.4492
   -37.4319 -37.3670 -37.3389 -37.2779 -37.1854 -37.1705 -36.9667 -36.9154
    -5.8737  -4.9902  -4.7563  -4.6743  -4.5080  -4.4223  -4.2245  -4.1867
    -4.0159  -3.9517  -3.8080  -3.6159  -3.6046  -3.4833  -3.4643  -3.3537
    -3.2651  -3.0381  -2.9363  -2.9030  -2.7962  -2.6635  -2.6306  -2.4635
    -2.3073  -2.2760  -2.2043  -2.0962  -2.0394  -1.7227  -1.6758  -1.5974
    -1.5390  -1.4421  -1.3398  -1.2679  -1.2061  -1.0862  -1.0519  -0.9873
    -0.9057  -0.8932  -0.6776  -0.3962  -0.2594  -0.1972   0.0458   0.1212
     0.2590   0.2809   0.4574   0.5816   0.9966   1.2281   1.4717   1.5289
     2.1081   2.2071   2.2115   2.2584   2.3780   2.5097   2.8455   2.8873
     3.2611   3.4981   4.0417   4.1166   4.4207   4.9195

          k = 0.0307-0.0646 0.0000 ( 32219 PWs)   bands (ev):

   -66.0047 -65.9398 -65.6263 -65.5634 -65.5374 -65.4730 -38.7013 -38.6279
   -38.0439 -37.9103 -37.8421 -37.7621 -37.7334 -37.5825 -37.5199 -37.4492
   -37.4316 -37.3669 -37.3388 -37.2778 -37.1854 -37.1705 -36.9667 -36.9154
    -6.0293  -5.0410  -4.8236  -4.7622  -4.5278  -4.5222  -4.3232  -4.2888
    -4.1465  -4.0494  -3.9414  -3.7364  -3.5859  -3.5583  -3.4093  -3.3875
    -3.3473  -3.0251  -2.9183  -2.8705  -2.8446  -2.6480  -2.5581  -2.4354
    -2.3285  -2.2804  -2.1687  -2.0173  -1.9210  -1.6784  -1.5764  -1.5198
    -1.5138  -1.3089  -1.2197  -1.1825  -1.1497  -1.0487  -0.9908  -0.9105
    -0.8941  -0.7215  -0.6824  -0.2465  -0.1731  -0.0523   0.1529   0.2601
     0.3627   0.4258   0.5665   0.6782   1.0874   1.2350   1.5517   1.5566
     2.1645   2.1875   2.2644   2.2763   2.4106   2.6007   2.7639   2.8499
     3.2358   3.5101   3.9695   4.3386   4.4497   4.4604

          k = 0.0307-0.0484 0.0000 ( 32198 PWs)   bands (ev):

   -66.0047 -65.9398 -65.6263 -65.5634 -65.5374 -65.4730 -38.7011 -38.6279
   -38.0436 -37.9097 -37.8419 -37.7619 -37.7333 -37.5823 -37.5198 -37.4491
   -37.4311 -37.3667 -37.3387 -37.2777 -37.1854 -37.1704 -36.9667 -36.9154
    -6.2198  -5.1156  -4.9181  -4.8502  -4.6229  -4.6015  -4.4611  -4.3738
    -4.2491  -4.1675  -4.0554  -3.8827  -3.6805  -3.6433  -3.4653  -3.4208
    -3.3778  -3.0018  -2.9286  -2.8713  -2.8022  -2.6467  -2.4787  -2.4287
    -2.3754  -2.1966  -2.1157  -1.8972  -1.8797  -1.6363  -1.4965  -1.4783
    -1.3320  -1.2058  -1.1254  -1.0752  -1.0706  -1.0116  -0.9333  -0.8956
    -0.7695  -0.6606  -0.4687  -0.0357  -0.0056   0.1199   0.2683   0.4507
     0.5822   0.6146   0.7447   0.8756   1.2396   1.2548   1.5978   1.6057
     2.1626   2.2775   2.2939   2.3237   2.4952   2.6460   2.8426   2.8465
     3.2054   3.5244   3.8482   3.8859   4.4584   4.7710

          k = 0.0307-0.0323 0.0000 ( 32162 PWs)   bands (ev):

   -66.0048 -65.9398 -65.6263 -65.5634 -65.5374 -65.4730 -38.7010 -38.6278
   -38.0434 -37.9090 -37.8417 -37.7617 -37.7332 -37.5821 -37.5197 -37.4491
   -37.4307 -37.3665 -37.3385 -37.2777 -37.1853 -37.1704 -36.9667 -36.9153
    -6.3898  -5.1968  -5.0100  -4.9229  -4.7007  -4.6910  -4.5967  -4.4252
    -4.3293  -4.2658  -4.1517  -4.0084  -3.7551  -3.7388  -3.5113  -3.4541
    -3.4266  -2.9983  -2.9797  -2.8402  -2.7652  -2.6623  -2.4709  -2.4102
    -2.3455  -2.1168  -2.0465  -1.8798  -1.7684  -1.6348  -1.4482  -1.3809
    -1.2380  -1.1705  -1.0914  -1.0524  -0.9775  -0.9607  -0.8617  -0.8243
    -0.6017  -0.5889  -0.2364   0.1215   0.1523   0.3521   0.3572   0.6591
     0.8075   0.8134   1.0273   1.1127   1.3196   1.4071   1.5857   1.7203
     2.1562   2.3138   2.3221   2.4165   2.5743   2.7853   2.8197   3.1628
     3.1720   3.4599   3.5824   3.6068   4.2091   4.7288

          k = 0.0307-0.0161 0.0000 ( 32133 PWs)   bands (ev):

   -66.0048 -65.9398 -65.6263 -65.5634 -65.5374 -65.4730 -38.7009 -38.6278
   -38.0432 -37.9085 -37.8416 -37.7615 -37.7331 -37.5819 -37.5196 -37.4491
   -37.4303 -37.3664 -37.3384 -37.2776 -37.1853 -37.1704 -36.9667 -36.9153
    -6.5038  -5.2599  -5.0727  -4.9713  -4.7537  -4.7491  -4.6948  -4.4541
    -4.3824  -4.3247  -4.2239  -4.0874  -3.8040  -3.7971  -3.5389  -3.4779
    -3.4618  -3.0696  -2.9588  -2.8356  -2.7389  -2.6681  -2.4870  -2.3940
    -2.3074  -2.0595  -2.0003  -1.8822  -1.6378  -1.6356  -1.4215  -1.3098
    -1.2626  -1.1659  -1.1028  -1.0186  -0.9821  -0.8503  -0.8171  -0.7588
    -0.5445  -0.4517  -0.0362   0.2040   0.2449   0.3997   0.5562   0.8124
     0.9398   0.9848   1.2751   1.2842   1.4396   1.5408   1.6616   1.8809
     2.2261   2.3690   2.3693   2.4514   2.5518   2.7497   2.9508   2.9666
     3.2931   3.3405   3.4930   3.8274   3.9648   4.3730

          k = 0.0307 0.0000 0.0000 ( 32090 PWs)   bands (ev):

   -66.0048 -65.9398 -65.6263 -65.5634 -65.5374 -65.4730 -38.7009 -38.6278
   -38.0431 -37.9083 -37.8415 -37.7614 -37.7331 -37.5819 -37.5196 -37.4491
   -37.4302 -37.3664 -37.3384 -37.2776 -37.1853 -37.1704 -36.9667 -36.9153
    -6.5436  -5.2836  -5.0945  -4.9885  -4.7753  -4.7649  -4.7311  -4.4635
    -4.4014  -4.3431  -4.2523  -4.1135  -3.8211  -3.8161  -3.5481  -3.4832
    -3.4762  -3.0995  -2.9485  -2.8389  -2.7290  -2.6688  -2.4943  -2.3896
    -2.2933  -2.0382  -1.9868  -1.8806  -1.6348  -1.5658  -1.4124  -1.3092
    -1.2846  -1.1573  -1.1120  -1.0041  -0.9873  -0.8032  -0.8003  -0.7439
    -0.5235  -0.4026   0.0540   0.2037   0.2892   0.4160   0.6310   0.8636
     0.9779   1.0692   1.3220   1.3356   1.4228   1.7213   1.7570   2.0142
     2.2541   2.3944   2.4632   2.5411   2.5418   2.6104   2.6351   2.8726
     3.3358   3.3947   3.6607   3.8412   4.1168   4.1733

          k = 0.0460 0.0242 0.0000 ( 32166 PWs)   bands (ev):

   -65.9988 -65.9458 -65.6206 -65.5692 -65.5315 -65.4790 -38.6943 -38.6346
   -37.9903 -37.9027 -37.8480 -37.7101 -37.6830 -37.5764 -37.5255 -37.5053
   -37.4247 -37.3725 -37.3330 -37.2833 -37.2398 -37.2237 -36.9620 -36.9201
    -6.2153  -4.9687  -4.9520  -4.7383  -4.6714  -4.5742  -4.5459  -4.3417
    -4.2383  -4.2211  -4.1253  -4.0015  -3.6648  -3.6619  -3.4377  -3.4224
    -3.3593  -3.0176  -2.9867  -2.9243  -2.6914  -2.6262  -2.6149  -2.5501
    -2.3576  -2.2466  -2.0551  -1.8666  -1.7731  -1.7647  -1.5433  -1.3546
    -1.3237  -1.3027  -1.2433  -1.1653  -0.9465  -0.9346  -0.8116  -0.6892
    -0.6374  -0.5276  -0.4798  -0.1046  -0.0124   0.3306   0.4099   0.6445
     0.7903   0.8358   1.0321   1.1397   1.2954   1.3007   1.3710   1.6438
     1.8736   2.0898   2.3422   2.4271   2.5105   2.5349   2.8208   3.1182
     3.1270   3.5343   3.5938   3.6662   4.0561   4.2108

          k = 0.0460 0.0404 0.0000 ( 32218 PWs)   bands (ev):

   -65.9988 -65.9458 -65.6206 -65.5692 -65.5315 -65.4789 -38.6944 -38.6347
   -37.9905 -37.9032 -37.8481 -37.7103 -37.6831 -37.5765 -37.5256 -37.5053
   -37.4250 -37.3726 -37.3331 -37.2833 -37.2398 -37.2237 -36.9619 -36.9201
    -6.0722  -4.8918  -4.8884  -4.6859  -4.6074  -4.4956  -4.4475  -4.3088
    -4.1707  -4.1599  -4.0354  -3.9182  -3.6161  -3.6003  -3.4111  -3.3942
    -3.3199  -3.0202  -2.9510  -2.9485  -2.6945  -2.6453  -2.6396  -2.5227
    -2.3907  -2.2779  -2.1410  -1.8943  -1.8878  -1.7648  -1.6040  -1.4398
    -1.3871  -1.3731  -1.2245  -1.2179  -1.0309  -0.9383  -0.8373  -0.8124
    -0.7277  -0.6175  -0.5372  -0.1448  -0.0388   0.1733   0.2051   0.4281
     0.5894   0.6996   0.8084   0.9305   1.1734   1.2369   1.4256   1.5776
     1.8029   2.1170   2.2861   2.3791   2.5995   2.6020   2.8542   2.8782
     3.1837   3.3198   3.6286   3.9882   4.0342   4.4216

          k = 0.0460 0.0565 0.0000 ( 32234 PWs)   bands (ev):

   -65.9988 -65.9458 -65.6205 -65.5692 -65.5315 -65.4789 -38.6945 -38.6347
   -37.9908 -37.9038 -37.8482 -37.7105 -37.6832 -37.5767 -37.5256 -37.5053
   -37.4255 -37.3727 -37.3332 -37.2834 -37.2398 -37.2237 -36.9619 -36.9201
    -5.8860  -4.8102  -4.7990  -4.6214  -4.5250  -4.3901  -4.3407  -4.2591
    -4.0805  -4.0671  -3.9272  -3.8124  -3.5584  -3.5191  -3.3731  -3.3675
    -3.2767  -3.0731  -2.9764  -2.8935  -2.7237  -2.6810  -2.6527  -2.5062
    -2.3938  -2.3414  -2.2498  -2.0107  -1.9062  -1.7997  -1.6540  -1.6168
    -1.4771  -1.4460  -1.3294  -1.2607  -1.0523  -0.9802  -0.9365  -0.8811
    -0.7672  -0.7649  -0.5633  -0.2395  -0.1297  -0.0621   0.0943   0.2281
     0.3762   0.5781   0.5958   0.8110   1.0823   1.2123   1.4502   1.5362
     1.8078   2.1341   2.2215   2.2809   2.4876   2.6712   2.7417   2.8485
     2.9009   3.4278   3.4877   4.0495   4.4173   4.8234

          k = 0.0460 0.0727 0.0000 ( 32235 PWs)   bands (ev):

   -65.9988 -65.9458 -65.6205 -65.5692 -65.5315 -65.4789 -38.6946 -38.6347
   -37.9910 -37.9043 -37.8483 -37.7107 -37.6833 -37.5769 -37.5257 -37.5053
   -37.4258 -37.3728 -37.3333 -37.2834 -37.2398 -37.2237 -36.9619 -36.9201
    -5.7001  -4.7468  -4.7116  -4.5591  -4.4294  -4.3088  -4.2585  -4.1743
    -3.9878  -3.9531  -3.8197  -3.7135  -3.5421  -3.4283  -3.3824  -3.3464
    -3.2495  -3.1106  -2.9892  -2.8477  -2.7662  -2.7286  -2.6524  -2.5530
    -2.4232  -2.3616  -2.3068  -2.1111  -1.9329  -1.8729  -1.7834  -1.6784
    -1.5886  -1.4910  -1.4604  -1.2886  -1.1104  -1.0252  -1.0239  -0.9364
    -0.9144  -0.7393  -0.6033  -0.4471  -0.2590  -0.0800   0.0500   0.0706
     0.2504   0.4544   0.4882   0.7055   1.0636   1.1976   1.3994   1.5223
     1.8222   2.0862   2.1404   2.1626   2.3857   2.5409   2.7017   2.8561
     2.9773   3.4475   3.5224   3.9453   4.4327   4.9186

          k = 0.0460 0.0888 0.0000 ( 32220 PWs)   bands (ev):

   -65.9988 -65.9458 -65.6205 -65.5692 -65.5315 -65.4789 -38.6947 -38.6347
   -37.9911 -37.9046 -37.8483 -37.7108 -37.6833 -37.5770 -37.5258 -37.5053
   -37.4261 -37.3729 -37.3334 -37.2834 -37.2398 -37.2237 -36.9619 -36.9201
    -5.5784  -4.7124  -4.6596  -4.5202  -4.3486  -4.2777  -4.2212  -4.0937
    -3.8720  -3.8638  -3.7494  -3.6518  -3.6498  -3.4303  -3.3374  -3.3350
    -3.2635  -3.0826  -2.9886  -2.8546  -2.7752  -2.7661  -2.6142  -2.6099
    -2.4758  -2.3661  -2.3195  -2.1695  -1.9816  -1.9077  -1.8720  -1.6964
    -1.6484  -1.5376  -1.5048  -1.3041  -1.1718  -1.1224  -1.1142  -0.9756
    -0.9028  -0.7046  -0.6488  -0.5609  -0.3274  -0.0980  -0.0111   0.0654
     0.2034   0.3766   0.4349   0.6450   1.1057   1.1886   1.2952   1.5192
     1.8311   1.9934   2.0946   2.1417   2.3190   2.4552   2.7060   2.8702
     3.0949   3.4340   3.5960   3.8623   4.2055   5.3894

          k = 0.0460 0.1050 0.0000 ( 32220 PWs)   bands (ev):

   -65.9988 -65.9458 -65.6205 -65.5692 -65.5315 -65.4789 -38.6947 -38.6347
   -37.9911 -37.9046 -37.8483 -37.7108 -37.6833 -37.5770 -37.5258 -37.5053
   -37.4261 -37.3729 -37.3334 -37.2834 -37.2398 -37.2237 -36.9619 -36.9201
    -5.5784  -4.7124  -4.6596  -4.5202  -4.3486  -4.2777  -4.2212  -4.0937
    -3.8721  -3.8638  -3.7493  -3.6519  -3.6498  -3.4303  -3.3373  -3.3350
    -3.2635  -3.0825  -2.9886  -2.8544  -2.7754  -2.7660  -2.6141  -2.6098
    -2.4758  -2.3661  -2.3194  -2.1694  -1.9816  -1.9077  -1.8721  -1.6965
    -1.6485  -1.5376  -1.5048  -1.3041  -1.1719  -1.1223  -1.1142  -0.9756
    -0.9029  -0.7043  -0.6491  -0.5608  -0.3275  -0.0980  -0.0111   0.0655
     0.2033   0.3767   0.4348   0.6449   1.1059   1.1886   1.2951   1.5191
     1.8311   1.9934   2.0947   2.1416   2.3191   2.4551   2.7059   2.8702
     3.0950   3.4340   3.5958   3.8626   4.2054   5.3896

          k = 0.0460-0.0727 0.0000 ( 32235 PWs)   bands (ev):

   -65.9988 -65.9458 -65.6205 -65.5692 -65.5315 -65.4789 -38.6946 -38.6347
   -37.9910 -37.9043 -37.8483 -37.7107 -37.6833 -37.5769 -37.5257 -37.5053
   -37.4258 -37.3728 -37.3333 -37.2834 -37.2398 -37.2237 -36.9619 -36.9201
    -5.7000  -4.7468  -4.7116  -4.5591  -4.4294  -4.3088  -4.2585  -4.1742
    -3.9877  -3.9531  -3.8197  -3.7136  -3.5421  -3.4284  -3.3824  -3.3465
    -3.2495  -3.1106  -2.9894  -2.8475  -2.7667  -2.7286  -2.6522  -2.5529
    -2.4232  -2.3615  -2.3067  -2.1110  -1.9328  -1.8731  -1.7837  -1.6785
    -1.5888  -1.4910  -1.4602  -1.2886  -1.1106  -1.0252  -1.0237  -0.9365
    -0.9145  -0.7390  -0.6036  -0.4469  -0.2591  -0.0800   0.0503   0.0706
     0.2503   0.4545   0.4881   0.7054   1.0639   1.1976   1.3993   1.5222
     1.8221   2.0860   2.1403   2.1627   2.3857   2.5407   2.7015   2.8561
     2.9776   3.4475   3.5221   3.9459   4.4325   4.9189

          k = 0.0460-0.0565 0.0000 ( 32234 PWs)   bands (ev):

   -65.9988 -65.9458 -65.6205 -65.5692 -65.5315 -65.4789 -38.6945 -38.6347
   -37.9908 -37.9038 -37.8482 -37.7105 -37.6832 -37.5767 -37.5256 -37.5053
   -37.4255 -37.3727 -37.3332 -37.2834 -37.2398 -37.2237 -36.9619 -36.9201
    -5.8860  -4.8102  -4.7990  -4.6214  -4.5250  -4.3901  -4.3407  -4.2590
    -4.0805  -4.0671  -3.9272  -3.8125  -3.5584  -3.5191  -3.3732  -3.3676
    -3.2766  -3.0731  -2.9765  -2.8934  -2.7240  -2.6809  -2.6525  -2.5060
    -2.3936  -2.3414  -2.2498  -2.0106  -1.9061  -1.7999  -1.6541  -1.6171
    -1.4773  -1.4460  -1.3292  -1.2607  -1.0525  -0.9800  -0.9365  -0.8812
    -0.7672  -0.7648  -0.5635  -0.2397  -0.1294  -0.0620   0.0944   0.2281
     0.3761   0.5780   0.5961   0.8109   1.0825   1.2123   1.4502   1.5360
     1.8077   2.1341   2.2217   2.2807   2.4874   2.6709   2.7417   2.8486
     2.9011   3.4275   3.4878   4.0502   4.4175   4.8222

          k = 0.0460-0.0404 0.0000 ( 32218 PWs)   bands (ev):

   -65.9988 -65.9458 -65.6206 -65.5692 -65.5315 -65.4789 -38.6944 -38.6347
   -37.9905 -37.9032 -37.8481 -37.7103 -37.6831 -37.5765 -37.5256 -37.5053
   -37.4250 -37.3726 -37.3331 -37.2833 -37.2398 -37.2237 -36.9619 -36.9201
    -6.0722  -4.8918  -4.8884  -4.6859  -4.6074  -4.4956  -4.4475  -4.3088
    -4.1706  -4.1598  -4.0354  -3.9182  -3.6161  -3.6003  -3.4111  -3.3943
    -3.3198  -3.0202  -2.9510  -2.9486  -2.6950  -2.6449  -2.6396  -2.5226
    -2.3906  -2.2779  -2.1410  -1.8943  -1.8877  -1.7651  -1.6040  -1.4401
    -1.3871  -1.3732  -1.2244  -1.2180  -1.0311  -0.9382  -0.8371  -0.8123
    -0.7280  -0.6175  -0.5372  -0.1450  -0.0388   0.1736   0.2050   0.4281
     0.5894   0.6996   0.8088   0.9306   1.1735   1.2369   1.4257   1.5772
     1.8028   2.1170   2.2862   2.3790   2.5996   2.6018   2.8541   2.8780
     3.1836   3.3195   3.6288   3.9886   4.0347   4.4218

          k = 0.0460-0.0242 0.0000 ( 32166 PWs)   bands (ev):

   -65.9988 -65.9458 -65.6206 -65.5692 -65.5315 -65.4790 -38.6943 -38.6346
   -37.9903 -37.9027 -37.8480 -37.7101 -37.6830 -37.5764 -37.5255 -37.5053
   -37.4247 -37.3725 -37.3330 -37.2833 -37.2398 -37.2237 -36.9620 -36.9201
    -6.2153  -4.9687  -4.9519  -4.7383  -4.6714  -4.5742  -4.5460  -4.3416
    -4.2383  -4.2211  -4.1253  -4.0015  -3.6648  -3.6619  -3.4377  -3.4225
    -3.3592  -3.0176  -2.9867  -2.9243  -2.6917  -2.6259  -2.6149  -2.5499
    -2.3576  -2.2466  -2.0551  -1.8666  -1.7730  -1.7650  -1.5432  -1.3546
    -1.3239  -1.3027  -1.2433  -1.1654  -0.9464  -0.9347  -0.8116  -0.6890
    -0.6378  -0.5273  -0.4800  -0.1048  -0.0124   0.3304   0.4099   0.6444
     0.7904   0.8358   1.0321   1.1401   1.2954   1.3007   1.3710   1.6435
     1.8735   2.0897   2.3421   2.4270   2.5103   2.5351   2.8207   3.1182
     3.1268   3.5344   3.5937   3.6663   4.0562   4.2114

          k = 0.0460-0.0081 0.0000 ( 32137 PWs)   bands (ev):

   -65.9989 -65.9458 -65.6206 -65.5692 -65.5316 -65.4790 -38.6943 -38.6346
   -37.9902 -37.9023 -37.8480 -37.7100 -37.6830 -37.5763 -37.5254 -37.5053
   -37.4245 -37.3724 -37.3329 -37.2833 -37.2398 -37.2237 -36.9620 -36.9201
    -6.2918  -5.0148  -4.9817  -4.7683  -4.7108  -4.6131  -4.6022  -4.3594
    -4.2660  -4.2542  -4.1820  -4.0448  -3.7016  -3.6852  -3.4504  -3.4310
    -3.3852  -3.0667  -2.9658  -2.9170  -2.6906  -2.6114  -2.6106  -2.5626
    -2.3349  -2.2319  -2.0178  -1.8472  -1.7680  -1.6787  -1.5068  -1.3473
    -1.3201  -1.2713  -1.2436  -1.1276  -0.9577  -0.8656  -0.8085  -0.6100
    -0.5789  -0.5350  -0.3786  -0.0852   0.0032   0.4125   0.5156   0.7654
     0.8882   0.9412   1.0917   1.2832   1.3443   1.4213   1.5797   1.6911
     1.9494   2.2058   2.3886   2.3988   2.4534   2.4846   2.5418   2.9210
     3.1274   3.4327   3.4720   3.8330   4.0882   4.5334

          k = 0.0460 0.0081 0.0000 ( 32137 PWs)   bands (ev):

   -65.9989 -65.9458 -65.6206 -65.5692 -65.5316 -65.4790 -38.6943 -38.6346
   -37.9902 -37.9023 -37.8480 -37.7100 -37.6830 -37.5763 -37.5254 -37.5053
   -37.4245 -37.3724 -37.3329 -37.2833 -37.2398 -37.2237 -36.9620 -36.9201
    -6.2918  -5.0148  -4.9817  -4.7683  -4.7108  -4.6131  -4.6022  -4.3594
    -4.2661  -4.2542  -4.1820  -4.0448  -3.7016  -3.6852  -3.4504  -3.4309
    -3.3852  -3.0667  -2.9658  -2.9169  -2.6905  -2.6115  -2.6107  -2.5627
    -2.3349  -2.2319  -2.0178  -1.8473  -1.7679  -1.6787  -1.5068  -1.3473
    -1.3201  -1.2712  -1.2436  -1.1276  -0.9577  -0.8656  -0.8085  -0.6101
    -0.5785  -0.5353  -0.3785  -0.0851   0.0032   0.4125   0.5156   0.7655
     0.8881   0.9412   1.0917   1.2832   1.3442   1.4213   1.5795   1.6911
     1.9495   2.2058   2.3888   2.3990   2.4534   2.4845   2.5419   2.9212
     3.1273   3.4328   3.4720   3.8326   4.0883   4.5329

          k = 0.0613 0.0323 0.0000 ( 32186 PWs)   bands (ev):

   -65.9911 -65.9536 -65.6131 -65.5768 -65.5239 -65.4867 -38.6857 -38.6435
   -37.9209 -37.8949 -37.8563 -37.6428 -37.6173 -37.5781 -37.5690 -37.5330
   -37.4173 -37.3804 -37.3260 -37.3101 -37.2924 -37.2906 -36.9558 -36.9262
    -5.8458  -4.8655  -4.6120  -4.5614  -4.4714  -4.3833  -4.3491  -4.2032
    -4.1713  -3.9803  -3.9559  -3.8971  -3.5133  -3.4940  -3.3602  -3.3293
    -3.2416  -3.1425  -3.0037  -2.9588  -2.7834  -2.6977  -2.5974  -2.5196
    -2.4446  -2.4148  -2.1768  -2.1097  -1.9778  -1.8967  -1.8188  -1.6264
    -1.5524  -1.4654  -1.3718  -1.2006  -1.1949  -0.9434  -0.8458  -0.7192
    -0.6873  -0.4671  -0.3913  -0.2602  -0.1705   0.2530   0.2605   0.4789
     0.6181   0.6484   0.8782   0.9530   1.0382   1.1990   1.2781   1.3537
     1.5562   1.8531   2.2071   2.2503   2.4085   2.6077   2.6331   2.9246
     3.0695   3.4503   3.6044   3.9609   4.1502   4.2792

          k = 0.0613 0.0484 0.0000 ( 32217 PWs)   bands (ev):

   -65.9911 -65.9536 -65.6131 -65.5768 -65.5239 -65.4867 -38.6858 -38.6435
   -37.9211 -37.8954 -37.8563 -37.6430 -37.6173 -37.5781 -37.5691 -37.5331
   -37.4176 -37.3804 -37.3261 -37.3101 -37.2924 -37.2907 -36.9558 -36.9262
    -5.6862  -4.8284  -4.5356  -4.4954  -4.4251  -4.3118  -4.2657  -4.1539
    -4.0972  -3.8945  -3.8854  -3.8310  -3.5128  -3.4330  -3.3385  -3.3293
    -3.1962  -3.1883  -3.0193  -2.9068  -2.8096  -2.6905  -2.5891  -2.5654
    -2.4676  -2.4347  -2.2546  -2.1432  -2.0868  -1.9743  -1.8179  -1.7220
    -1.6100  -1.4861  -1.4510  -1.2523  -1.2115  -1.0645  -0.8192  -0.7852
    -0.7145  -0.5770  -0.4249  -0.2940  -0.1166  -0.0711   0.1943   0.3254
     0.4192   0.6165   0.6855   0.8951   0.9933   1.1730   1.3107   1.3423
     1.4794   1.8839   2.1746   2.3236   2.3587   2.6562   2.6692   2.9445
     2.9565   3.1698   3.7116   3.7468   4.3048   4.5664

          k = 0.0613 0.0646 0.0000 ( 32234 PWs)   bands (ev):

   -65.9911 -65.9536 -65.6131 -65.5768 -65.5239 -65.4867 -38.6859 -38.6435
   -37.9213 -37.8959 -37.8563 -37.6432 -37.6174 -37.5780 -37.5693 -37.5331
   -37.4179 -37.3804 -37.3261 -37.3101 -37.2924 -37.2907 -36.9558 -36.9262
    -5.4990  -4.7687  -4.4734  -4.4284  -4.3815  -4.2066  -4.1853  -4.0931
    -4.0059  -3.8250  -3.8075  -3.7440  -3.5150  -3.4009  -3.3738  -3.3046
    -3.2229  -3.1498  -3.0171  -2.8635  -2.8333  -2.7087  -2.6452  -2.6107
    -2.5159  -2.4430  -2.3227  -2.1850  -2.1571  -2.0583  -1.8342  -1.8161
    -1.6827  -1.5579  -1.4900  -1.3117  -1.2911  -1.0622  -0.9157  -0.8132
    -0.7297  -0.6526  -0.4864  -0.3320  -0.3260  -0.0592   0.1702   0.1722
     0.2861   0.5336   0.6059   0.8517   1.0117   1.1659   1.3240   1.3522
     1.4598   1.9090   2.0799   2.2423   2.3957   2.4766   2.6949   2.7158
     2.9837   3.0887   3.4888   3.6486   4.8609   5.0269

          k = 0.0613 0.0807 0.0000 ( 32207 PWs)   bands (ev):

   -65.9911 -65.9536 -65.6131 -65.5768 -65.5238 -65.4867 -38.6859 -38.6435
   -37.9215 -37.8963 -37.8563 -37.6433 -37.6175 -37.5780 -37.5694 -37.5332
   -37.4182 -37.3805 -37.3262 -37.3100 -37.2924 -37.2907 -36.9558 -36.9262
    -5.3347  -4.7113  -4.4404  -4.3750  -4.3489  -4.1097  -4.1069  -4.0210
    -3.9372  -3.7926  -3.7754  -3.6420  -3.5398  -3.4936  -3.3433  -3.2720
    -3.2318  -3.1259  -2.9933  -2.8496  -2.8382  -2.7566  -2.7469  -2.6168
    -2.5838  -2.4405  -2.3393  -2.2579  -2.1639  -2.1291  -1.8717  -1.8632
    -1.7224  -1.6458  -1.4980  -1.3963  -1.2998  -1.0610  -1.0191  -0.8823
    -0.7446  -0.6317  -0.6013  -0.4169  -0.3522  -0.0125   0.0576   0.1674
     0.2394   0.4211   0.6301   0.8481   1.0719   1.1566   1.3124   1.3631
     1.4583   1.9250   1.9622   2.0375   2.3256   2.4312   2.4775   2.7439
     3.0186   3.1674   3.4620   3.5540   4.5254   5.4686

          k = 0.0613 0.0969 0.0000 ( 32270 PWs)   bands (ev):

   -65.9910 -65.9536 -65.6131 -65.5768 -65.5238 -65.4867 -38.6860 -38.6435
   -37.9215 -37.8964 -37.8563 -37.6433 -37.6175 -37.5780 -37.5694 -37.5332
   -37.4183 -37.3805 -37.3262 -37.3100 -37.2924 -37.2907 -36.9558 -36.9262
    -5.2659  -4.6872  -4.4311  -4.3541  -4.3378  -4.0693  -4.0681  -3.9696
    -3.9208  -3.7928  -3.7674  -3.6008  -3.5986  -3.4991  -3.3352  -3.2483
    -3.2343  -3.1248  -2.9752  -2.8562  -2.8321  -2.7968  -2.7848  -2.6236
    -2.6079  -2.4172  -2.3395  -2.3061  -2.1654  -2.1561  -1.8929  -1.8727
    -1.7332  -1.6770  -1.5027  -1.4270  -1.2969  -1.1177  -1.0057  -0.9217
    -0.7436  -0.6526  -0.6166  -0.4341  -0.3628   0.0128   0.0182   0.1542
     0.2351   0.3732   0.6673   0.8513   1.1022   1.1519   1.3021   1.3676
     1.4588   1.8764   1.9303   1.9741   2.2251   2.4414   2.4420   2.7529
     3.0369   3.1998   3.4874   3.5160   4.3826   5.7813

          k = 0.0613 0.1130 0.0000 ( 32207 PWs)   bands (ev):

   -65.9911 -65.9536 -65.6131 -65.5768 -65.5238 -65.4867 -38.6859 -38.6435
   -37.9215 -37.8963 -37.8563 -37.6433 -37.6175 -37.5780 -37.5694 -37.5332
   -37.4182 -37.3805 -37.3262 -37.3100 -37.2924 -37.2907 -36.9558 -36.9262
    -5.3347  -4.7113  -4.4404  -4.3750  -4.3489  -4.1096  -4.1069  -4.0211
    -3.9373  -3.7926  -3.7753  -3.6420  -3.5398  -3.4937  -3.3433  -3.2719
    -3.2319  -3.1259  -2.9934  -2.8495  -2.8382  -2.7568  -2.7469  -2.6168
    -2.5837  -2.4405  -2.3391  -2.2576  -2.1640  -2.1293  -1.8716  -1.8633
    -1.7225  -1.6459  -1.4981  -1.3964  -1.2998  -1.0609  -1.0191  -0.8824
    -0.7445  -0.6317  -0.6012  -0.4171  -0.3524  -0.0124   0.0576   0.1674
     0.2392   0.4213   0.6300   0.8481   1.0720   1.1566   1.3125   1.3631
     1.4582   1.9249   1.9621   2.0376   2.3256   2.4311   2.4773   2.7438
     3.0184   3.1677   3.4620   3.5545   4.5252   5.8259

          k = 0.0613-0.0646 0.0000 ( 32234 PWs)   bands (ev):

   -65.9911 -65.9536 -65.6131 -65.5768 -65.5239 -65.4867 -38.6859 -38.6435
   -37.9213 -37.8959 -37.8563 -37.6432 -37.6174 -37.5780 -37.5693 -37.5331
   -37.4179 -37.3804 -37.3261 -37.3101 -37.2924 -37.2907 -36.9558 -36.9262
    -5.4990  -4.7687  -4.4734  -4.4284  -4.3815  -4.2066  -4.1852  -4.0931
    -4.0060  -3.8248  -3.8076  -3.7440  -3.5150  -3.4010  -3.3739  -3.3045
    -3.2230  -3.1497  -3.0171  -2.8634  -2.8332  -2.7089  -2.6452  -2.6107
    -2.5157  -2.4428  -2.3225  -2.1847  -2.1572  -2.0586  -1.8342  -1.8163
    -1.6828  -1.5579  -1.4900  -1.3118  -1.2911  -1.0622  -0.9157  -0.8133
    -0.7297  -0.6527  -0.4863  -0.3321  -0.3263  -0.0589   0.1702   0.1723
     0.2859   0.5338   0.6058   0.8516   1.0119   1.1659   1.3241   1.3521
     1.4597   1.9090   2.0801   2.2421   2.3956   2.4764   2.6948   2.7155
     2.9835   3.0891   3.4889   3.6493   4.8608   5.0272

          k = 0.0613-0.0484 0.0000 ( 32217 PWs)   bands (ev):

   -65.9911 -65.9536 -65.6131 -65.5768 -65.5239 -65.4867 -38.6858 -38.6435
   -37.9211 -37.8954 -37.8563 -37.6430 -37.6173 -37.5781 -37.5691 -37.5331
   -37.4176 -37.3804 -37.3261 -37.3101 -37.2924 -37.2907 -36.9558 -36.9262
    -5.6862  -4.8283  -4.5356  -4.4953  -4.4251  -4.3117  -4.2657  -4.1539
    -4.0972  -3.8943  -3.8854  -3.8310  -3.5129  -3.4330  -3.3386  -3.3293
    -3.1961  -3.1883  -3.0194  -2.9068  -2.8095  -2.6907  -2.5891  -2.5652
    -2.4675  -2.4345  -2.2545  -2.1433  -2.0865  -1.9745  -1.8180  -1.7221
    -1.6101  -1.4862  -1.4510  -1.2523  -1.2117  -1.0645  -0.8192  -0.7852
    -0.7146  -0.5772  -0.4250  -0.2943  -0.1163  -0.0709   0.1942   0.3254
     0.4190   0.6164   0.6857   0.8951   0.9935   1.1730   1.3108   1.3422
     1.4793   1.8838   2.1748   2.3235   2.3585   2.6561   2.6688   2.9446
     2.9564   3.1697   3.7118   3.7476   4.3047   4.5669

          k = 0.0613-0.0323 0.0000 ( 32186 PWs)   bands (ev):

   -65.9911 -65.9536 -65.6131 -65.5768 -65.5239 -65.4867 -38.6857 -38.6435
   -37.9209 -37.8949 -37.8563 -37.6428 -37.6173 -37.5781 -37.5690 -37.5330
   -37.4173 -37.3804 -37.3260 -37.3101 -37.2924 -37.2906 -36.9558 -36.9262
    -5.8458  -4.8655  -4.6120  -4.5614  -4.4714  -4.3832  -4.3491  -4.2032
    -4.1713  -3.9803  -3.9558  -3.8971  -3.5133  -3.4940  -3.3603  -3.3294
    -3.2415  -3.1425  -3.0038  -2.9588  -2.7834  -2.6979  -2.5973  -2.5195
    -2.4445  -2.4148  -2.1769  -2.1097  -1.9776  -1.8970  -1.8189  -1.6264
    -1.5524  -1.4654  -1.3717  -1.2006  -1.1951  -0.9434  -0.8457  -0.7193
    -0.6873  -0.4673  -0.3914  -0.2606  -0.1699   0.2533   0.2604   0.4787
     0.6180   0.6484   0.8785   0.9531   1.0382   1.1990   1.2782   1.3536
     1.5561   1.8531   2.2070   2.2503   2.4083   2.6072   2.6333   2.9246
     3.0695   3.4503   3.6043   3.9615   4.1504   4.2794

          k = 0.0613-0.0161 0.0000 ( 32175 PWs)   bands (ev):

   -65.9911 -65.9536 -65.6131 -65.5768 -65.5239 -65.4867 -38.6856 -38.6435
   -37.9208 -37.8946 -37.8563 -37.6427 -37.6172 -37.5781 -37.5689 -37.5330
   -37.4170 -37.3803 -37.3259 -37.3102 -37.2924 -37.2906 -36.9558 -36.9262
    -5.9501  -4.8737  -4.6720  -4.6185  -4.5104  -4.4180  -4.4168  -4.2365
    -4.2103  -4.0452  -3.9951  -3.9472  -3.5462  -3.5155  -3.3691  -3.3313
    -3.2776  -3.1142  -3.0105  -2.9858  -2.7672  -2.7043  -2.6225  -2.4892
    -2.4354  -2.3925  -2.1556  -2.0497  -1.8943  -1.8400  -1.8227  -1.5674
    -1.5488  -1.4153  -1.3583  -1.1721  -1.1630  -0.8607  -0.8220  -0.7246
    -0.6249  -0.3957  -0.3519  -0.2367  -0.2035   0.3300   0.4519   0.6156
     0.7022   0.7682   0.9877   1.0616   1.0974   1.2532   1.3096   1.4496
     1.7451   1.8290   2.0703   2.3030   2.4474   2.5012   2.5618   2.7262
     3.0150   3.1014   3.7081   3.8938   4.2947   4.3801

          k = 0.0613 0.0000 0.0000 ( 32142 PWs)   bands (ev):

   -65.9911 -65.9536 -65.6131 -65.5768 -65.5239 -65.4867 -38.6856 -38.6435
   -37.9207 -37.8944 -37.8563 -37.6426 -37.6172 -37.5781 -37.5688 -37.5330
   -37.4169 -37.3803 -37.3259 -37.3102 -37.2924 -37.2906 -36.9558 -36.9262
    -5.9862  -4.8703  -4.6942  -4.6453  -4.5254  -4.4416  -4.4280  -4.2484
    -4.2214  -4.0689  -4.0083  -3.9653  -3.5671  -3.5168  -3.3658  -3.3324
    -3.2933  -3.1048  -3.0338  -2.9784  -2.7626  -2.7055  -2.6340  -2.4786
    -2.4328  -2.3835  -2.1525  -2.0235  -1.8642  -1.8243  -1.8159  -1.5541
    -1.5506  -1.3917  -1.3667  -1.1523  -1.1505  -0.8642  -0.7790  -0.7277
    -0.6047  -0.3712  -0.3276  -0.2350  -0.2089   0.3593   0.5058   0.6590
     0.7337   0.8227   0.9928   1.1128   1.1203   1.2495   1.4036   1.6057
     1.7725   1.8939   2.1576   2.2293   2.3230   2.4689   2.5150   2.5277
     2.9427   3.1028   3.5145   3.8262   4.4294   4.8032

          k = 0.0613 0.0161 0.0000 ( 32175 PWs)   bands (ev):

   -65.9911 -65.9536 -65.6131 -65.5768 -65.5239 -65.4867 -38.6856 -38.6435
   -37.9208 -37.8946 -37.8563 -37.6427 -37.6172 -37.5781 -37.5689 -37.5330
   -37.4170 -37.3803 -37.3259 -37.3102 -37.2924 -37.2906 -36.9558 -36.9262
    -5.9501  -4.8738  -4.6720  -4.6185  -4.5104  -4.4180  -4.4168  -4.2365
    -4.2104  -4.0452  -3.9951  -3.9472  -3.5462  -3.5155  -3.3690  -3.3312
    -3.2777  -3.1142  -3.0105  -2.9857  -2.7672  -2.7042  -2.6225  -2.4893
    -2.4354  -2.3925  -2.1556  -2.0497  -1.8944  -1.8399  -1.8227  -1.5674
    -1.5488  -1.4153  -1.3584  -1.1720  -1.1630  -0.8608  -0.8220  -0.7245
    -0.6249  -0.3956  -0.3518  -0.2361  -0.2041   0.3301   0.4518   0.6157
     0.7022   0.7682   0.9876   1.0614   1.0974   1.2532   1.3095   1.4496
     1.7452   1.8290   2.0704   2.3031   2.4476   2.5015   2.5615   2.7264
     3.0149   3.1013   3.7077   3.8935   4.2949   4.3799

          k = 0.0767 0.0404 0.0000 ( 32194 PWs)   bands (ev):

   -65.9821 -65.9626 -65.6043 -65.5856 -65.5149 -65.4957 -38.6756 -38.6537
   -37.8858 -37.8659 -37.8394 -37.6620 -37.5638 -37.5604 -37.5418 -37.5401
   -37.4086 -37.3915 -37.3894 -37.3721 -37.3172 -37.2992 -36.9487 -36.9333
    -5.4482  -4.9083  -4.4046  -4.3441  -4.2583  -4.1641  -4.1436  -4.0975
    -4.0089  -3.8849  -3.7508  -3.7138  -3.4692  -3.4141  -3.3117  -3.2776
    -3.1620  -3.1196  -3.0384  -2.9004  -2.8729  -2.7263  -2.7057  -2.5533
    -2.4927  -2.4765  -2.3806  -2.3420  -2.3414  -2.1791  -1.9948  -1.9282
    -1.7533  -1.7127  -1.4067  -1.2804  -1.1852  -1.0985  -0.7823  -0.7701
    -0.7110  -0.5356  -0.3722  -0.0136   0.0124   0.1356   0.2673   0.3855
     0.4393   0.6114   0.6933   0.8346   0.9643   1.0241   1.0959   1.2308
     1.2449   1.4983   2.1410   2.1723   2.3584   2.3712   2.7117   2.8024
     3.1033   3.4165   3.6270   3.7182   4.3213   4.4788

          k = 0.0767 0.0565 0.0000 ( 32213 PWs)   bands (ev):

   -65.9821 -65.9626 -65.6043 -65.5856 -65.5149 -65.4957 -38.6757 -38.6537
   -37.8862 -37.8657 -37.8396 -37.6619 -37.5639 -37.5605 -37.5418 -37.5401
   -37.4088 -37.3915 -37.3894 -37.3721 -37.3173 -37.2992 -36.9486 -36.9333
    -5.2989  -4.9274  -4.3504  -4.3079  -4.1970  -4.1354  -4.1205  -4.0214
    -3.9555  -3.8282  -3.7087  -3.6828  -3.5222  -3.4187  -3.3480  -3.2284
    -3.1365  -3.1035  -3.0310  -2.9032  -2.8654  -2.7548  -2.7067  -2.5790
    -2.5224  -2.5164  -2.4060  -2.4026  -2.3694  -2.2085  -2.0329  -1.9202
    -1.8400  -1.7097  -1.4507  -1.3451  -1.1890  -1.1065  -0.8532  -0.7999
    -0.6582  -0.5922  -0.3616  -0.2165  -0.0734   0.1602   0.2880   0.3113
     0.3139   0.6124   0.6850   0.8589   0.9562   0.9676   1.0478   1.2331
     1.2442   1.5375   2.0673   2.2480   2.3097   2.4382   2.6672   2.7990
     2.9715   3.2639   3.4385   3.7885   4.2883   5.1947

          k = 0.0767 0.0727 0.0000 ( 32228 PWs)   bands (ev):

   -65.9820 -65.9626 -65.6043 -65.5856 -65.5149 -65.4957 -38.6757 -38.6537
   -37.8865 -37.8656 -37.8397 -37.6618 -37.5640 -37.5606 -37.5418 -37.5402
   -37.4090 -37.3914 -37.3893 -37.3720 -37.3174 -37.2991 -36.9486 -36.9333
    -5.1409  -4.9293  -4.3001  -4.2727  -4.1482  -4.0921  -4.0857  -3.9620
    -3.9136  -3.8155  -3.7338  -3.5945  -3.5714  -3.4224  -3.3734  -3.2077
    -3.1473  -3.0301  -3.0148  -2.9386  -2.8518  -2.8129  -2.7559  -2.6114
    -2.6008  -2.5483  -2.4402  -2.4050  -2.3624  -2.2152  -2.0601  -1.9378
    -1.9080  -1.7339  -1.4705  -1.4068  -1.1857  -1.0895  -0.9353  -0.7983
    -0.6659  -0.6384  -0.3341  -0.3335  -0.1137   0.1899   0.1920   0.2424
     0.3834   0.5322   0.7195   0.9472   0.9497   1.0200   1.0242   1.2506
     1.3025   1.5718   1.9392   2.1752   2.3021   2.4640   2.5325   2.5968
     2.7651   3.2597   3.3378   3.5856   4.9742   5.0244

          k = 0.0767 0.0888 0.0000 ( 32233 PWs)   bands (ev):

   -65.9820 -65.9626 -65.6043 -65.5856 -65.5149 -65.4957 -38.6758 -38.6537
   -37.8867 -37.8656 -37.8398 -37.6618 -37.5641 -37.5607 -37.5418 -37.5402
   -37.4092 -37.3914 -37.3893 -37.3720 -37.3174 -37.2991 -36.9486 -36.9334
    -5.0293  -4.9252  -4.2702  -4.2488  -4.1233  -4.0547  -4.0440  -3.9302
    -3.9236  -3.8388  -3.7464  -3.5983  -3.5278  -3.4197  -3.3801  -3.2041
    -3.1523  -3.0139  -2.9565  -2.9551  -2.8758  -2.8481  -2.8252  -2.6698
    -2.6388  -2.5513  -2.4335  -2.4038  -2.3534  -2.2136  -2.0750  -2.0083
    -1.8940  -1.7635  -1.4752  -1.4385  -1.1813  -1.0914  -0.9687  -0.7792
    -0.7222  -0.6512  -0.3690  -0.3003  -0.1390   0.1385   0.2187   0.2202
     0.3933   0.4801   0.7956   0.9442   0.9856   1.0129   1.1311   1.2631
     1.4417   1.5907   1.8155   1.9465   2.2234   2.3264   2.4443   2.6124
     2.7190   3.2277   3.2766   3.6451   4.6799   5.4316

          k = 0.0767 0.1050 0.0000 ( 32233 PWs)   bands (ev):

   -65.9820 -65.9626 -65.6043 -65.5856 -65.5149 -65.4957 -38.6758 -38.6537
   -37.8867 -37.8656 -37.8398 -37.6618 -37.5641 -37.5607 -37.5418 -37.5402
   -37.4092 -37.3914 -37.3893 -37.3720 -37.3174 -37.2991 -36.9486 -36.9334
    -5.0293  -4.9252  -4.2702  -4.2488  -4.1233  -4.0547  -4.0440  -3.9303
    -3.9236  -3.8388  -3.7464  -3.5983  -3.5277  -3.4197  -3.3800  -3.2041
    -3.1524  -3.0139  -2.9564  -2.9551  -2.8758  -2.8480  -2.8253  -2.6698
    -2.6388  -2.5513  -2.4334  -2.4038  -2.3534  -2.2135  -2.0751  -2.0084
    -1.8939  -1.7636  -1.4753  -1.4386  -1.1813  -1.0913  -0.9688  -0.7792
    -0.7222  -0.6512  -0.3690  -0.3003  -0.1391   0.1385   0.2187   0.2202
     0.3933   0.4801   0.7957   0.9442   0.9855   1.0128   1.1311   1.2631
     1.4419   1.5908   1.8154   1.9465   2.2234   2.3264   2.4443   2.6121
     2.7191   3.2278   3.2768   3.6452   4.6797   5.4319

          k = 0.0767 0.1211 0.0000 ( 32228 PWs)   bands (ev):

   -65.9820 -65.9626 -65.6043 -65.5856 -65.5149 -65.4957 -38.6757 -38.6537
   -37.8865 -37.8656 -37.8397 -37.6618 -37.5640 -37.5606 -37.5418 -37.5402
   -37.4090 -37.3914 -37.3893 -37.3720 -37.3174 -37.2991 -36.9486 -36.9333
    -5.1409  -4.9293  -4.3001  -4.2726  -4.1482  -4.0921  -4.0857  -3.9621
    -3.9137  -3.8156  -3.7337  -3.5944  -3.5714  -3.4225  -3.3733  -3.2077
    -3.1475  -3.0300  -3.0148  -2.9385  -2.8518  -2.8129  -2.7561  -2.6113
    -2.6008  -2.5483  -2.4402  -2.4048  -2.3625  -2.2149  -2.0602  -1.9379
    -1.9079  -1.7341  -1.4706  -1.4070  -1.1856  -1.0894  -0.9353  -0.7983
    -0.6658  -0.6385  -0.3341  -0.3336  -0.1137   0.1898   0.1921   0.2422
     0.3835   0.5323   0.7195   0.9471   0.9497   1.0200   1.0242   1.2506
     1.3026   1.5718   1.9394   2.1749   2.3021   2.4639   2.5319   2.5968
     2.7651   3.2602   3.3383   3.5857   4.9739   5.0244

          k = 0.0767-0.0565 0.0000 ( 32213 PWs)   bands (ev):

   -65.9821 -65.9626 -65.6043 -65.5856 -65.5149 -65.4957 -38.6757 -38.6537
   -37.8862 -37.8657 -37.8396 -37.6619 -37.5639 -37.5605 -37.5418 -37.5401
   -37.4088 -37.3915 -37.3894 -37.3721 -37.3173 -37.2992 -36.9486 -36.9333
    -5.2989  -4.9274  -4.3504  -4.3079  -4.1970  -4.1353  -4.1205  -4.0214
    -3.9555  -3.8282  -3.7086  -3.6828  -3.5222  -3.4187  -3.3480  -3.2284
    -3.1368  -3.1034  -3.0309  -2.9031  -2.8654  -2.7549  -2.7069  -2.5790
    -2.5224  -2.5164  -2.4058  -2.4025  -2.3695  -2.2082  -2.0330  -1.9201
    -1.8400  -1.7099  -1.4508  -1.3454  -1.1889  -1.1065  -0.8533  -0.7999
    -0.6584  -0.5921  -0.3616  -0.2165  -0.0735   0.1602   0.2878   0.3113
     0.3140   0.6125   0.6849   0.8590   0.9564   0.9676   1.0477   1.2332
     1.2443   1.5375   2.0674   2.2480   2.3093   2.4375   2.6670   2.7990
     2.9716   3.2642   3.4392   3.7886   4.2882   5.1949

          k = 0.0767-0.0404 0.0000 ( 32194 PWs)   bands (ev):

   -65.9821 -65.9626 -65.6043 -65.5856 -65.5149 -65.4957 -38.6756 -38.6537
   -37.8858 -37.8659 -37.8394 -37.6620 -37.5638 -37.5604 -37.5418 -37.5401
   -37.4086 -37.3915 -37.3894 -37.3721 -37.3172 -37.2992 -36.9487 -36.9333
    -5.4481  -4.9083  -4.4046  -4.3441  -4.2582  -4.1640  -4.1436  -4.0975
    -4.0089  -3.8849  -3.7507  -3.7137  -3.4693  -3.4141  -3.3117  -3.2776
    -3.1620  -3.1199  -3.0382  -2.9004  -2.8729  -2.7263  -2.7059  -2.5532
    -2.4925  -2.4764  -2.3807  -2.3420  -2.3414  -2.1789  -1.9948  -1.9281
    -1.7533  -1.7129  -1.4068  -1.2806  -1.1852  -1.0985  -0.7822  -0.7702
    -0.7111  -0.5356  -0.3724  -0.0136   0.0126   0.1357   0.2672   0.3852
     0.4393   0.6112   0.6934   0.8347   0.9645   1.0241   1.0958   1.2308
     1.2450   1.4984   2.1410   2.1723   2.3578   2.3709   2.7118   2.8023
     3.1036   3.4169   3.6269   3.7184   4.3215   4.4790

          k = 0.0767-0.0242 0.0000 ( 32212 PWs)   bands (ev):

   -65.9821 -65.9626 -65.6043 -65.5856 -65.5149 -65.4957 -38.6755 -38.6537
   -37.8855 -37.8660 -37.8392 -37.6621 -37.5636 -37.5604 -37.5418 -37.5400
   -37.4084 -37.3916 -37.3895 -37.3721 -37.3172 -37.2992 -36.9487 -36.9333
    -5.5591  -4.8697  -4.4556  -4.3726  -4.3094  -4.1984  -4.1581  -4.1572
    -4.0501  -3.9403  -3.7996  -3.7290  -3.4346  -3.4149  -3.3357  -3.2862
    -3.1961  -3.0996  -3.0351  -2.9402  -2.8468  -2.7411  -2.7250  -2.5269
    -2.5141  -2.4477  -2.3798  -2.2836  -2.2571  -2.1442  -1.9545  -1.9325
    -1.7393  -1.7041  -1.3474  -1.2429  -1.1814  -1.0500  -0.7739  -0.7498
    -0.7039  -0.4867  -0.3749   0.0371   0.1442   0.2503   0.2672   0.4630
     0.5551   0.5587   0.7285   0.8337   0.9989   1.1392   1.2271   1.2313
     1.3576   1.4855   1.9706   2.2450   2.3034   2.4198   2.6627   2.7122
     2.8813   3.0773   3.6113   4.0717   4.2327   4.5799

          k = 0.0767-0.0081 0.0000 ( 32189 PWs)   bands (ev):

   -65.9821 -65.9626 -65.6043 -65.5856 -65.5149 -65.4957 -38.6755 -38.6537
   -37.8853 -37.8660 -37.8392 -37.6621 -37.5636 -37.5603 -37.5418 -37.5400
   -37.4082 -37.3917 -37.3895 -37.3721 -37.3171 -37.2992 -36.9487 -36.9333
    -5.6175  -4.8301  -4.4979  -4.3879  -4.3376  -4.2379  -4.1731  -4.1654
    -4.0719  -3.9682  -3.8285  -3.7388  -3.4336  -3.4200  -3.3540  -3.2759
    -3.2103  -3.0829  -3.0311  -2.9738  -2.8220  -2.7743  -2.7365  -2.5296
    -2.5102  -2.4346  -2.3821  -2.2491  -2.2016  -2.1230  -1.9338  -1.9269
    -1.7665  -1.6930  -1.2962  -1.2201  -1.1891  -1.0134  -0.7895  -0.7505
    -0.6643  -0.4470  -0.3748   0.0526   0.1803   0.2403   0.4096   0.5168
     0.5400   0.6253   0.6960   0.8486   1.0093   1.2368   1.2530   1.4043
     1.4819   1.6876   1.8045   2.2250   2.2845   2.3032   2.4557   2.6101
     2.6343   3.0618   3.3974   4.1128   4.3358   5.0664

          k = 0.0767 0.0081 0.0000 ( 32189 PWs)   bands (ev):

   -65.9821 -65.9626 -65.6043 -65.5856 -65.5149 -65.4957 -38.6755 -38.6537
   -37.8853 -37.8660 -37.8392 -37.6621 -37.5636 -37.5603 -37.5418 -37.5400
   -37.4082 -37.3917 -37.3895 -37.3721 -37.3171 -37.2992 -36.9487 -36.9333
    -5.6175  -4.8301  -4.4979  -4.3879  -4.3376  -4.2379  -4.1731  -4.1654
    -4.0719  -3.9681  -3.8285  -3.7388  -3.4336  -3.4200  -3.3540  -3.2759
    -3.2103  -3.0828  -3.0312  -2.9738  -2.8221  -2.7743  -2.7365  -2.5297
    -2.5102  -2.4346  -2.3821  -2.2491  -2.2016  -2.1231  -1.9338  -1.9269
    -1.7664  -1.6930  -1.2961  -1.2200  -1.1892  -1.0134  -0.7895  -0.7506
    -0.6643  -0.4469  -0.3747   0.0526   0.1803   0.2403   0.4095   0.5167
     0.5401   0.6254   0.6959   0.8486   1.0092   1.2368   1.2531   1.4043
     1.4816   1.6877   1.8045   2.2250   2.2845   2.3037   2.4558   2.6100
     2.6341   3.0617   3.3972   4.1126   4.3356   5.0665

          k = 0.0767 0.0242 0.0000 ( 32212 PWs)   bands (ev):

   -65.9821 -65.9626 -65.6043 -65.5856 -65.5149 -65.4957 -38.6755 -38.6537
   -37.8855 -37.8660 -37.8392 -37.6621 -37.5636 -37.5604 -37.5418 -37.5400
   -37.4084 -37.3916 -37.3895 -37.3721 -37.3172 -37.2992 -36.9487 -36.9333
    -5.5591  -4.8698  -4.4556  -4.3726  -4.3094  -4.1984  -4.1581  -4.1572
    -4.0501  -3.9403  -3.7996  -3.7291  -3.4345  -3.4148  -3.3357  -3.2863
    -3.1962  -3.0994  -3.0352  -2.9402  -2.8469  -2.7410  -2.7249  -2.5269
    -2.5143  -2.4477  -2.3798  -2.2835  -2.2572  -2.1444  -1.9545  -1.9326
    -1.7392  -1.7041  -1.3473  -1.2428  -1.1814  -1.0499  -0.7739  -0.7498
    -0.7038  -0.4867  -0.3747   0.0371   0.1441   0.2503   0.2670   0.4632
     0.5552   0.5588   0.7285   0.8336   0.9988   1.1393   1.2270   1.2313
     1.3574   1.4855   1.9706   2.2451   2.3039   2.4201   2.6625   2.7122
     2.8812   3.0772   3.6108   4.0715   4.2326   4.5797

          k =-0.0920-0.0484 0.0000 ( 32194 PWs)   bands (ev):

   -65.9724 -65.9723 -65.5950 -65.5949 -65.5054 -65.5053 -38.6652 -38.6642
   -37.8759 -37.8759 -37.7512 -37.7511 -37.5512 -37.5511 -37.4781 -37.4780
   -37.4566 -37.4564 -37.3990 -37.3990 -37.3083 -37.3082 -36.9412 -36.9408
    -5.1094  -5.1091  -4.2967  -4.2961  -4.1480  -4.1470  -4.0055  -4.0053
    -3.7742  -3.7741  -3.7351  -3.7345  -3.5643  -3.5636  -3.1632  -3.1625
    -3.1097  -3.1069  -2.9290  -2.9289  -2.8082  -2.8061  -2.6671  -2.6626
    -2.5323  -2.5294  -2.4951  -2.4918  -2.4545  -2.4527  -2.0524  -2.0451
    -1.8181  -1.8166  -1.3578  -1.3576  -1.1419  -1.1417  -0.8112  -0.8108
    -0.6307  -0.6303  -0.1981  -0.1979   0.1767   0.1788   0.3419   0.3425
     0.5511   0.5515   0.7219   0.7241   0.8681   0.8697   1.0887   1.0890
     1.2205   1.2208   2.1442   2.1447   2.3103   2.3111   2.7474   2.7479
     3.2686   3.2695   3.6341   3.6346   4.4058   4.4067

          k =-0.0920-0.0323 0.0000 ( 32208 PWs)   bands (ev):

   -65.9724 -65.9723 -65.5950 -65.5949 -65.5054 -65.5053 -38.6652 -38.6642
   -37.8762 -37.8757 -37.7513 -37.7510 -37.5513 -37.5511 -37.4782 -37.4779
   -37.4566 -37.4564 -37.3992 -37.3989 -37.3083 -37.3082 -36.9412 -36.9408
    -5.1893  -5.0087  -4.3072  -4.2780  -4.1636  -4.1305  -4.0204  -3.9975
    -3.8306  -3.7664  -3.7468  -3.6950  -3.5811  -3.5394  -3.2252  -3.1358
    -3.1185  -3.0668  -2.9267  -2.9261  -2.8301  -2.8058  -2.6858  -2.6801
    -2.5669  -2.5312  -2.5074  -2.4948  -2.4226  -2.4125  -2.0551  -2.0278
    -1.8742  -1.7955  -1.3652  -1.3265  -1.1421  -1.1383  -0.8330  -0.7820
    -0.6978  -0.5696  -0.2907  -0.0608   0.1693   0.1772   0.3034   0.4003
     0.5458   0.5791   0.6166   0.7763   0.8793   0.9842   1.0568   1.1391
     1.2384   1.2566   2.0008   2.2366   2.2489   2.3776   2.6828   2.7309
     2.9258   3.1981   3.4533   3.8856   4.2812   5.0749

          k =-0.0920-0.0161 0.0000 ( 32238 PWs)   bands (ev):

   -65.9724 -65.9723 -65.5950 -65.5949 -65.5054 -65.5053 -38.6652 -38.6642
   -37.8763 -37.8755 -37.7514 -37.7509 -37.5513 -37.5511 -37.4783 -37.4779
   -37.4566 -37.4564 -37.3993 -37.3988 -37.3083 -37.3082 -36.9412 -36.9408
    -5.2391  -4.9124  -4.3155  -4.2595  -4.1703  -4.1295  -4.0319  -3.9952
    -3.8915  -3.7674  -3.7440  -3.6736  -3.5886  -3.5177  -3.2880  -3.1312
    -3.1104  -3.0216  -2.9260  -2.9121  -2.8563  -2.8279  -2.7227  -2.7121
    -2.6145  -2.5318  -2.5137  -2.4923  -2.3937  -2.3503  -2.0490  -1.9955
    -1.9428  -1.8104  -1.3588  -1.2807  -1.1489  -1.1328  -0.8502  -0.7484
    -0.7473  -0.5240  -0.3259   0.0306   0.1643   0.1757   0.3015   0.4414
     0.5474   0.5655   0.6231   0.7194   0.9329   1.0665   1.1630   1.2366
     1.2658   1.4249   1.8295   2.1409   2.2867   2.3928   2.4419   2.5573
     2.6855   3.1334   3.3377   3.8183   4.8512   5.1126

          k =-0.0920-0.0000 0.0000 ( 32248 PWs)   bands (ev):

   -65.9724 -65.9723 -65.5950 -65.5949 -65.5054 -65.5053 -38.6652 -38.6642
   -37.8764 -37.8754 -37.7514 -37.7509 -37.5513 -37.5511 -37.4783 -37.4778
   -37.4566 -37.4564 -37.3993 -37.3987 -37.3083 -37.3082 -36.9412 -36.9408
    -5.2559  -4.8688  -4.3219  -4.2524  -4.1704  -4.1371  -4.0313  -3.9952
    -3.9158  -3.7680  -3.7415  -3.6686  -3.5903  -3.5091  -3.3151  -3.1312
    -3.1021  -3.0030  -2.9285  -2.8974  -2.8675  -2.8466  -2.7402  -2.7288
    -2.6334  -2.5319  -2.5160  -2.4894  -2.3844  -2.3207  -2.0370  -1.9845
    -1.9749  -1.8267  -1.3535  -1.2551  -1.1576  -1.1316  -0.8547  -0.7678
    -0.7302  -0.5053  -0.3331   0.0471   0.1583   0.1885   0.3067   0.4535
     0.5344   0.5673   0.6460   0.6977   0.9235   1.1181   1.1692   1.2772
     1.4146   1.6393   1.6975   1.9707   2.1690   2.3035   2.4585   2.4726
     2.6584   3.1110   3.2729   3.8806   4.8625   4.9342

          k =-0.0920 0.0161 0.0000 ( 32238 PWs)   bands (ev):

   -65.9724 -65.9723 -65.5950 -65.5949 -65.5054 -65.5053 -38.6652 -38.6642
   -37.8763 -37.8755 -37.7514 -37.7509 -37.5513 -37.5511 -37.4783 -37.4779
   -37.4566 -37.4564 -37.3993 -37.3988 -37.3083 -37.3082 -36.9412 -36.9408
    -5.2391  -4.9123  -4.3155  -4.2595  -4.1703  -4.1295  -4.0319  -3.9952
    -3.8916  -3.7674  -3.7440  -3.6736  -3.5886  -3.5177  -3.2880  -3.1312
    -3.1104  -3.0216  -2.9259  -2.9121  -2.8564  -2.8280  -2.7227  -2.7122
    -2.6144  -2.5319  -2.5137  -2.4923  -2.3936  -2.3502  -2.0488  -1.9953
    -1.9430  -1.8106  -1.3589  -1.2808  -1.1489  -1.1327  -0.8502  -0.7484
    -0.7474  -0.5240  -0.3259   0.0307   0.1641   0.1756   0.3016   0.4413
     0.5474   0.5654   0.6233   0.7195   0.9329   1.0664   1.1629   1.2368
     1.2659   1.4250   1.8296   2.1405   2.2867   2.3926   2.4415   2.5574
     2.6856   3.1337   3.3380   3.8185   4.8514   5.1124

          k =-0.0920 0.0323 0.0000 ( 32208 PWs)   bands (ev):

   -65.9724 -65.9723 -65.5950 -65.5949 -65.5054 -65.5053 -38.6652 -38.6642
   -37.8762 -37.8757 -37.7513 -37.7510 -37.5513 -37.5511 -37.4782 -37.4779
   -37.4566 -37.4564 -37.3992 -37.3989 -37.3083 -37.3082 -36.9412 -36.9408
    -5.1893  -5.0086  -4.3072  -4.2780  -4.1636  -4.1305  -4.0204  -3.9975
    -3.8307  -3.7664  -3.7468  -3.6950  -3.5810  -3.5394  -3.2252  -3.1358
    -3.1185  -3.0668  -2.9266  -2.9260  -2.8302  -2.8059  -2.6858  -2.6801
    -2.5669  -2.5313  -2.5073  -2.4948  -2.4224  -2.4124  -2.0549  -2.0275
    -1.8745  -1.7957  -1.3655  -1.3267  -1.1420  -1.1382  -0.8330  -0.7821
    -0.6978  -0.5697  -0.2906  -0.0607   0.1692   0.1769   0.3035   0.4002
     0.5459   0.5792   0.6164   0.7764   0.8791   0.9843   1.0570   1.1391
     1.2385   1.2567   2.0009   2.2366   2.2484   2.3772   2.6827   2.7309
     2.9258   3.1986   3.4538   3.8857   4.2811   5.0752

          k =-0.0920-0.1453 0.0000 ( 32194 PWs)   bands (ev):

   -65.9724 -65.9723 -65.5950 -65.5949 -65.5054 -65.5053 -38.6652 -38.6642
   -37.8759 -37.8759 -37.7512 -37.7511 -37.5512 -37.5511 -37.4781 -37.4780
   -37.4566 -37.4564 -37.3990 -37.3990 -37.3083 -37.3082 -36.9412 -36.9408
    -5.1094  -5.1091  -4.2967  -4.2961  -4.1480  -4.1470  -4.0055  -4.0053
    -3.7743  -3.7741  -3.7351  -3.7345  -3.5643  -3.5635  -3.1632  -3.1625
    -3.1097  -3.1070  -2.9290  -2.9289  -2.8083  -2.8063  -2.6671  -2.6626
    -2.5325  -2.5295  -2.4950  -2.4916  -2.4544  -2.4526  -2.0522  -2.0449
    -1.8183  -1.8168  -1.3581  -1.3578  -1.1419  -1.1417  -0.8113  -0.8108
    -0.6307  -0.6303  -0.1980  -0.1979   0.1766   0.1786   0.3418   0.3424
     0.5512   0.5516   0.7216   0.7239   0.8683   0.8699   1.0888   1.0891
     1.2205   1.2209   2.1442   2.1448   2.3098   2.3106   2.7473   2.7478
     3.2692   3.2702   3.6339   3.6345   4.4060   4.4068

     the Fermi energy is     1.3213 ev

!    total energy              =   -1606.36222399 Ry
     estimated scf accuracy    <       0.00000301 Ry
     smearing contrib. (-TS)   =      -0.05686246 Ry
     internal energy E=F+TS    =   -1606.30536153 Ry

     The total energy is F=E-TS. E is the sum of the following terms:
     one-electron contribution =  -12696.04706348 Ry
     hartree contribution      =    6391.13394484 Ry
     xc contribution           =    -436.17891765 Ry
     ewald contribution        =    5134.78666713 Ry
     electric field correction =       0.00000764 Ry

     convergence has been achieved in  16 iterations

     negative rho (up, down):  6.259E-03 0.000E+00

     Forces acting on atoms (cartesian axes, Ry/au):

     atom    1 type  1   force =     0.00001691    0.02166316    0.03156567
     atom    2 type  1   force =     0.00001555    0.02168895    0.03160715
     atom    3 type  2   force =     0.00000257   -0.02078358   -0.05265154
     atom    4 type  2   force =     0.00003093   -0.02078182   -0.05265339
     atom    5 type  1   force =     0.00000556   -0.02078292    0.00272218
     atom    6 type  1   force =     0.00000457   -0.02074816    0.00263416
     atom    7 type  2   force =     0.00010106    0.01956795    0.01635429
     atom    8 type  2   force =    -0.00004925    0.01957013    0.01634675
     atom    9 type  1   force =    -0.00007385    0.00096832   -0.00033864
     atom   10 type  1   force =    -0.00006167    0.00073541   -0.00060084
     atom   11 type  2   force =    -0.00105695   -0.00054357    0.00251677
     atom   12 type  2   force =     0.00106457   -0.00055386    0.00249744

     Total force =     0.107416     Total SCF correction =     0.005769

     Writing output data file ./Tc2Au2/Tc2Au2_beef.save/

     init_run     :    119.58s CPU    120.25s WALL (       1 calls)
     electrons    :   3519.78s CPU   3542.99s WALL (       1 calls)
     forces       :     66.38s CPU     66.68s WALL (       1 calls)

     Called by init_run:
     wfcinit      :    107.82s CPU    108.24s WALL (       1 calls)
     potinit      :      7.97s CPU      8.05s WALL (       1 calls)
     hinit0       :      2.02s CPU      2.03s WALL (       1 calls)

     Called by electrons:
     c_bands      :   3108.26s CPU   3122.97s WALL (      16 calls)
     sum_band     :    372.47s CPU    377.00s WALL (      16 calls)
     v_of_rho     :     27.45s CPU     29.09s WALL (      17 calls)
     newd         :     18.32s CPU     20.72s WALL (      17 calls)
     mix_rho      :      0.82s CPU      0.84s WALL (      16 calls)
     vdW_kernel   :      5.70s CPU      5.71s WALL (       1 calls)

     Called by c_bands:
     init_us_2    :     12.48s CPU     12.56s WALL (    2516 calls)
     cegterg      :   3076.99s CPU   3089.50s WALL (    1184 calls)

     Called by *egterg:
     cdiaghg      :    108.61s CPU    108.69s WALL (    4396 calls)
     h_psi        :   1532.07s CPU   1541.89s WALL (    4470 calls)
     s_psi        :    540.65s CPU    541.40s WALL (    4470 calls)
     g_psi        :      1.00s CPU      1.01s WALL (    3212 calls)

     Called by h_psi:
     h_psi:calbec :    534.91s CPU    536.82s WALL (    4470 calls)
     vloc_psi     :    450.68s CPU    457.42s WALL (    4470 calls)
     add_vuspsi   :    540.04s CPU    541.17s WALL (    4470 calls)

     General routines
     calbec       :    825.38s CPU    828.54s WALL (    5950 calls)
     fft          :     16.82s CPU     17.65s WALL (    1130 calls)
     ffts         :      0.06s CPU      0.07s WALL (      33 calls)
     fftw         :    523.50s CPU    531.20s WALL (  631646 calls)
     interpolate  :      0.27s CPU      0.29s WALL (      17 calls)

     Parallel routines
     fft_scatt_xy :     43.01s CPU     43.51s WALL (  632809 calls)
     fft_scatt_yz :    106.88s CPU    109.35s WALL (  632809 calls)

     PWSCF        :      1h 1m CPU      1h 2m WALL


   This run was terminated on:   0:17:14  25Jun2022            

=------------------------------------------------------------------------------=
   JOB DONE.
=------------------------------------------------------------------------------=
