
     Program PWSCF v.6.6 starts on 25Jun2022 at  2:35:54 

     This program is part of the open-source Quantum ESPRESSO suite
     for quantum simulation of materials; please cite
         "P. Giannozzi et al., J. Phys.:Condens. Matter 21 395502 (2009);
         "P. Giannozzi et al., J. Phys.:Condens. Matter 29 465901 (2017);
          URL http://www.quantum-espresso.org", 
     in publications or presentations arising from this work. More details at
     http://www.quantum-espresso.org/quote

     Parallel version (MPI), running on    37 processors

     MPI processes distributed on     1 nodes
     R & G space division:  proc/nbgrp/npool/nimage =      37
     Fft bands division:     nmany     =       1
     Reading input from Tc2Ir2.in
Warning: card &CELL ignored
Warning: card / ignored

     Current dimensions of program PWSCF are:
     Max number of different atomic species (ntypx) = 10
     Max number of k-points (npk) =  40000
     Max angular momentum in pseudopotentials (lmaxx) =  3
     Presently stress not available with electric field and gates

     Message from routine cell_base_init:
     DEPRECATED: use true lattice parameter, not A to a.u. conversion factor
     file Tc.pbe-spn-rrkjus_psl.0.3.0.UPF: wavefunction(s)  4S 4P renormalized
     file Ir.pbe-n-rrkjus_psl.0.2.3.UPF: wavefunction(s)  5D renormalized

     **************************************************************************
     Initializing libbeef V0.1.2 with the BEEF-vdW functional.
     Citation: Wellendorff et al., PRB 85, 235149 (2012).
     **************************************************************************


     IMPORTANT: XC functional enforced from input :
     Exchange-correlation= BEEF-VDW
                           (   1   4  43  14   2   0   0)
     Any further DFT definition will be discarded
     Please, verify this is what you really want


     Subspace diagonalization in iterative solution of the eigenvalue problem:
     a serial algorithm will be used

     Found symmetry operation: I + ( -0.5000  0.0000  0.0000)
     This is a supercell, fractional translations are disabled

     Parallelization info
     --------------------
     sticks:   dense  smooth     PW     G-vecs:    dense   smooth      PW
     Min         109      44     12                25277     6394    1000
     Max         110      45     13                25304     6403    1017
     Sum        4065    1635    475               935765   236769   37429



     bravais-lattice index     =            0
     lattice parameter (alat)  =       1.8897  a.u.
     unit-cell volume          =    4280.7440 (a.u.)^3
     number of atoms/cell      =           12
     number of atomic types    =            2
     number of electrons       =       144.00
     number of Kohn-Sham states=           86
     kinetic-energy cutoff     =      55.1240  Ry
     charge density cutoff     =     551.2396  Ry
     convergence threshold     =      1.0E-05
     mixing beta               =       0.1000
     number of iterations used =           10  plain     mixing
     Exchange-correlation= BEEF-VDW
                           (   1   4  43  14   2   0   0)

     celldm(1)=   1.889726  celldm(2)=   0.000000  celldm(3)=   0.000000
     celldm(4)=   0.000000  celldm(5)=   0.000000  celldm(6)=   0.000000

     crystal axes: (cart. coord. in units of alat)
               a(1) = (   5.445688   0.000000   0.000000 )  
               a(2) = (  -2.722844   4.760874   0.000000 )  
               a(3) = (   0.000000   0.000000  24.467145 )  

     reciprocal axes: (cart. coord. in units 2 pi/alat)
               b(1) = (  0.183632  0.105023 -0.000000 )  
               b(2) = (  0.000000  0.210045  0.000000 )  
               b(3) = (  0.000000 -0.000000  0.040871 )  


     PseudoPot. # 1 for Tc read from file:
     ../pseudo/Tc.pbe-spn-rrkjus_psl.0.3.0.UPF
     MD5 check sum: 5f147c0bf103030af994b79b1f5562e4
     Pseudo is Ultrasoft + core correction, Zval = 15.0
     Generated using "atomic" code by A. Dal Corso v.6.2.2
     Using radial grid of 1231 points,  6 beta functions with: 
                l(1) =   0
                l(2) =   0
                l(3) =   1
                l(4) =   1
                l(5) =   2
                l(6) =   2
     Q(r) pseudized with 0 coefficients 


     PseudoPot. # 2 for Ir read from file:
     ../pseudo/Ir.pbe-n-rrkjus_psl.0.2.3.UPF
     MD5 check sum: a93e608e8ddc29ee62145620b5f41564
     Pseudo is Ultrasoft + core correction, Zval =  9.0
     Generated using "atomic" code by A. Dal Corso v.5.0.2 svn rev. 9415
     Using radial grid of 1277 points,  6 beta functions with: 
                l(1) =   0
                l(2) =   0
                l(3) =   1
                l(4) =   1
                l(5) =   2
                l(6) =   2
     Q(r) pseudized with 0 coefficients 


     atomic species   valence    mass     pseudopotential
        Tc            15.00    97.90721     Tc( 1.00)
        Ir             9.00   192.21700     Ir( 1.00)

     No symmetry found



   Cartesian axes

     site n.     atom                  positions (alat units)
         1           Tc  tau(   1) = (   0.0000000   0.0000000  10.0000000  )
         2           Tc  tau(   2) = (   2.7228442   0.0000000  10.0000000  )
         3           Ir  tau(   3) = (   1.3614221   2.3804370  10.0000000  )
         4           Ir  tau(   4) = (  -1.3614221   2.3804370  10.0000000  )
         5           Tc  tau(   5) = (   2.7228442   1.5572520  12.2335726  )
         6           Tc  tau(   6) = (  -0.0000000   1.5572520  12.2335726  )
         7           Ir  tau(   7) = (  -1.3614221   3.9376890  12.2335726  )
         8           Ir  tau(   8) = (   1.3614221   3.9376890  12.2335726  )
         9           Tc  tau(   9) = (   0.0000008   3.1108817  14.3816378  )
        10           Tc  tau(  10) = (   2.7228429   3.1108910  14.3816251  )
        11           Ir  tau(  11) = (   4.0842661   0.8002419  14.3732971  )
        12           Ir  tau(  12) = (   1.3614211   0.8002427  14.3733000  )

     number of k points=    74  Fermi-Dirac smearing, width (Ry)=  0.0100
                       cart. coord. in units 2pi/alat
        k(    1) = (   0.0000000   0.0000000   0.0000000), wk =   0.0138889
        k(    2) = (   0.0000000   0.0175038   0.0000000), wk =   0.0277778
        k(    3) = (   0.0000000   0.0350076   0.0000000), wk =   0.0277778
        k(    4) = (   0.0000000   0.0525114   0.0000000), wk =   0.0277778
        k(    5) = (   0.0000000   0.0700152   0.0000000), wk =   0.0277778
        k(    6) = (   0.0000000   0.0875189   0.0000000), wk =   0.0277778
        k(    7) = (   0.0000000  -0.1050227   0.0000000), wk =   0.0138889
        k(    8) = (   0.0153026   0.0087519   0.0000000), wk =   0.0277778
        k(    9) = (   0.0153026   0.0262557   0.0000000), wk =   0.0277778
        k(   10) = (   0.0153026   0.0437595   0.0000000), wk =   0.0277778
        k(   11) = (   0.0153026   0.0612633   0.0000000), wk =   0.0277778
        k(   12) = (   0.0153026   0.0787670   0.0000000), wk =   0.0277778
        k(   13) = (   0.0153026   0.0962708   0.0000000), wk =   0.0277778
        k(   14) = (   0.0153026  -0.0962708   0.0000000), wk =   0.0277778
        k(   15) = (   0.0153026  -0.0787670   0.0000000), wk =   0.0277778
        k(   16) = (   0.0153026  -0.0612633   0.0000000), wk =   0.0277778
        k(   17) = (   0.0153026  -0.0437595   0.0000000), wk =   0.0277778
        k(   18) = (   0.0153026  -0.0262557   0.0000000), wk =   0.0277778
        k(   19) = (   0.0153026  -0.0087519   0.0000000), wk =   0.0277778
        k(   20) = (   0.0306053   0.0175038   0.0000000), wk =   0.0277778
        k(   21) = (   0.0306053   0.0350076   0.0000000), wk =   0.0277778
        k(   22) = (   0.0306053   0.0525114   0.0000000), wk =   0.0277778
        k(   23) = (   0.0306053   0.0700152   0.0000000), wk =   0.0277778
        k(   24) = (   0.0306053   0.0875189   0.0000000), wk =   0.0277778
        k(   25) = (   0.0306053   0.1050227   0.0000000), wk =   0.0277778
        k(   26) = (   0.0306053  -0.0875189   0.0000000), wk =   0.0277778
        k(   27) = (   0.0306053  -0.0700152   0.0000000), wk =   0.0277778
        k(   28) = (   0.0306053  -0.0525114   0.0000000), wk =   0.0277778
        k(   29) = (   0.0306053  -0.0350076   0.0000000), wk =   0.0277778
        k(   30) = (   0.0306053  -0.0175038   0.0000000), wk =   0.0277778
        k(   31) = (   0.0306053  -0.0000000   0.0000000), wk =   0.0277778
        k(   32) = (   0.0459079   0.0262557   0.0000000), wk =   0.0277778
        k(   33) = (   0.0459079   0.0437595   0.0000000), wk =   0.0277778
        k(   34) = (   0.0459079   0.0612633   0.0000000), wk =   0.0277778
        k(   35) = (   0.0459079   0.0787670   0.0000000), wk =   0.0277778
        k(   36) = (   0.0459079   0.0962708   0.0000000), wk =   0.0277778
        k(   37) = (   0.0459079   0.1137746   0.0000000), wk =   0.0277778
        k(   38) = (   0.0459079  -0.0787670   0.0000000), wk =   0.0277778
        k(   39) = (   0.0459079  -0.0612633   0.0000000), wk =   0.0277778
        k(   40) = (   0.0459079  -0.0437595   0.0000000), wk =   0.0277778
        k(   41) = (   0.0459079  -0.0262557   0.0000000), wk =   0.0277778
        k(   42) = (   0.0459079  -0.0087519   0.0000000), wk =   0.0277778
        k(   43) = (   0.0459079   0.0087519   0.0000000), wk =   0.0277778
        k(   44) = (   0.0612105   0.0350076   0.0000000), wk =   0.0277778
        k(   45) = (   0.0612105   0.0525114   0.0000000), wk =   0.0277778
        k(   46) = (   0.0612105   0.0700152   0.0000000), wk =   0.0277778
        k(   47) = (   0.0612105   0.0875189   0.0000000), wk =   0.0277778
        k(   48) = (   0.0612105   0.1050227   0.0000000), wk =   0.0277778
        k(   49) = (   0.0612105   0.1225265   0.0000000), wk =   0.0277778
        k(   50) = (   0.0612105  -0.0700152   0.0000000), wk =   0.0277778
        k(   51) = (   0.0612105  -0.0525114   0.0000000), wk =   0.0277778
        k(   52) = (   0.0612105  -0.0350076   0.0000000), wk =   0.0277778
        k(   53) = (   0.0612105  -0.0175038   0.0000000), wk =   0.0277778
        k(   54) = (   0.0612105   0.0000000   0.0000000), wk =   0.0277778
        k(   55) = (   0.0612105   0.0175038   0.0000000), wk =   0.0277778
        k(   56) = (   0.0765131   0.0437595   0.0000000), wk =   0.0277778
        k(   57) = (   0.0765131   0.0612633   0.0000000), wk =   0.0277778
        k(   58) = (   0.0765131   0.0787670   0.0000000), wk =   0.0277778
        k(   59) = (   0.0765131   0.0962708   0.0000000), wk =   0.0277778
        k(   60) = (   0.0765131   0.1137746   0.0000000), wk =   0.0277778
        k(   61) = (   0.0765131   0.1312784   0.0000000), wk =   0.0277778
        k(   62) = (   0.0765131  -0.0612633   0.0000000), wk =   0.0277778
        k(   63) = (   0.0765131  -0.0437595   0.0000000), wk =   0.0277778
        k(   64) = (   0.0765131  -0.0262557   0.0000000), wk =   0.0277778
        k(   65) = (   0.0765131  -0.0087519   0.0000000), wk =   0.0277778
        k(   66) = (   0.0765131   0.0087519   0.0000000), wk =   0.0277778
        k(   67) = (   0.0765131   0.0262557   0.0000000), wk =   0.0277778
        k(   68) = (  -0.0918158  -0.0525114   0.0000000), wk =   0.0138889
        k(   69) = (  -0.0918158  -0.0350076   0.0000000), wk =   0.0277778
        k(   70) = (  -0.0918158  -0.0175038   0.0000000), wk =   0.0277778
        k(   71) = (  -0.0918158   0.0000000   0.0000000), wk =   0.0277778
        k(   72) = (  -0.0918158   0.0175038   0.0000000), wk =   0.0277778
        k(   73) = (  -0.0918158   0.0350076   0.0000000), wk =   0.0277778
        k(   74) = (  -0.0918158  -0.1575341   0.0000000), wk =   0.0138889

     Dense  grid:   935765 G-vectors     FFT dimensions: (  80,  80, 360)

     Smooth grid:   236769 G-vectors     FFT dimensions: (  50,  50, 225)

     Estimated max dynamical RAM per process >     180.34 MB

     Estimated total dynamical RAM >       6.52 GB

     Initial potential from superposition of free atoms

     starting charge  143.99532, renormalised to  144.00000

     negative rho (up, down):  6.144E-03 0.000E+00


     %%%%%%%%%%%%%%%%%%%%%%%%%%%%%%%%%%%%%%%%%%%%%%%%%%%%%%%%%%%%%%%%%%%%%%%%
     %                                                                      %
     % You are using vdW-DF, which was implemented by the Thonhauser group. %
     % Please cite the following two papers that made this development      %
     % possible and the two reviews that describe the various versions:     %
     %                                                                      %
     %   T. Thonhauser et al., PRL 115, 136402 (2015).                      %
     %   T. Thonhauser et al., PRB 76, 125112 (2007).                       %
     %   K. Berland et al., Rep. Prog. Phys. 78, 066501 (2015).             %
     %   D.C. Langreth et al., J. Phys.: Condens. Matter 21, 084203 (2009). %
     %                                                                      %
     %                                                                      %
     % If you are calculating the stress with vdW-DF, please also cite:     %
     %                                                                      %
     %   R. Sabatini et al., J. Phys.: Condens. Matter 24, 424209 (2012).   %
     %                                                                      %
     %%%%%%%%%%%%%%%%%%%%%%%%%%%%%%%%%%%%%%%%%%%%%%%%%%%%%%%%%%%%%%%%%%%%%%%%



     Adding external electric field

     Computed dipole along edir(3) : 
        Dipole                0.0000 Ry au,          0.0000 Debye
        Dipole field          0.0000 Ry au, 

        Potential amp.       -0.0000 Ry
        Total length         45.0803 bohr

     Starting wfcs are  132 randomized atomic wfcs

     total cpu time spent up to now is      106.9 secs

     Self-consistent Calculation

     iteration #  1     ecut=    55.12 Ry     beta= 0.10
     Davidson diagonalization with overlap
     ethr =  1.00E-02,  avg # of iterations =  2.0

     negative rho (up, down):  6.035E-03 0.000E+00

     Adding external electric field

     Computed dipole along edir(3) : 
        Dipole               -0.0118 Ry au,         -0.0300 Debye
        Dipole field         -0.0000 Ry au, 

        Potential amp.        0.0031 Ry
        Total length         45.0803 bohr


     total cpu time spent up to now is      272.8 secs

     total energy              =   -1466.04510370 Ry
     estimated scf accuracy    <       1.81031072 Ry

     iteration #  2     ecut=    55.12 Ry     beta= 0.10
     Davidson diagonalization with overlap
     ethr =  1.26E-03,  avg # of iterations =  2.6

     negative rho (up, down):  6.069E-03 0.000E+00

     Adding external electric field

     Computed dipole along edir(3) : 
        Dipole                0.1613 Ry au,          0.4099 Debye
        Dipole field          0.0005 Ry au, 

        Potential amp.       -0.0427 Ry
        Total length         45.0803 bohr


     total cpu time spent up to now is      448.5 secs

     total energy              =   -1466.19402687 Ry
     estimated scf accuracy    <       0.67585956 Ry

     iteration #  3     ecut=    55.12 Ry     beta= 0.10
     Davidson diagonalization with overlap
     ethr =  4.69E-04,  avg # of iterations =  2.5

     negative rho (up, down):  6.151E-03 0.000E+00

     Adding external electric field

     Computed dipole along edir(3) : 
        Dipole               -0.1021 Ry au,         -0.2595 Debye
        Dipole field         -0.0003 Ry au, 

        Potential amp.        0.0270 Ry
        Total length         45.0803 bohr


     total cpu time spent up to now is      612.4 secs

     total energy              =   -1466.18439316 Ry
     estimated scf accuracy    <       1.65683040 Ry

     iteration #  4     ecut=    55.12 Ry     beta= 0.10
     Davidson diagonalization with overlap
     ethr =  4.69E-04,  avg # of iterations =  1.6

     negative rho (up, down):  6.155E-03 0.000E+00

     Adding external electric field

     Computed dipole along edir(3) : 
        Dipole                0.0388 Ry au,          0.0987 Debye
        Dipole field          0.0001 Ry au, 

        Potential amp.       -0.0103 Ry
        Total length         45.0803 bohr


     total cpu time spent up to now is      765.8 secs

     total energy              =   -1466.19636501 Ry
     estimated scf accuracy    <       1.20094101 Ry

     iteration #  5     ecut=    55.12 Ry     beta= 0.10
     Davidson diagonalization with overlap
     ethr =  4.69E-04,  avg # of iterations =  1.6

     negative rho (up, down):  6.192E-03 0.000E+00

     Adding external electric field

     Computed dipole along edir(3) : 
        Dipole                0.0260 Ry au,          0.0661 Debye
        Dipole field          0.0001 Ry au, 

        Potential amp.       -0.0069 Ry
        Total length         45.0803 bohr


     total cpu time spent up to now is      918.6 secs

     total energy              =   -1466.21347405 Ry
     estimated scf accuracy    <       0.10204619 Ry

     iteration #  6     ecut=    55.12 Ry     beta= 0.10
     Davidson diagonalization with overlap
     ethr =  7.09E-05,  avg # of iterations =  6.3

     negative rho (up, down):  6.366E-03 0.000E+00

     Adding external electric field

     Computed dipole along edir(3) : 
        Dipole                0.0157 Ry au,          0.0400 Debye
        Dipole field          0.0000 Ry au, 

        Potential amp.       -0.0042 Ry
        Total length         45.0803 bohr


     total cpu time spent up to now is     1106.8 secs

     total energy              =   -1466.22109307 Ry
     estimated scf accuracy    <       0.03676671 Ry

     iteration #  7     ecut=    55.12 Ry     beta= 0.10
     Davidson diagonalization with overlap
     ethr =  2.55E-05,  avg # of iterations =  3.7

     negative rho (up, down):  6.765E-03 0.000E+00

     Adding external electric field

     Computed dipole along edir(3) : 
        Dipole                0.0117 Ry au,          0.0298 Debye
        Dipole field          0.0000 Ry au, 

        Potential amp.       -0.0031 Ry
        Total length         45.0803 bohr


     total cpu time spent up to now is     1279.8 secs

     total energy              =   -1466.22288015 Ry
     estimated scf accuracy    <       0.01399834 Ry

     iteration #  8     ecut=    55.12 Ry     beta= 0.10
     Davidson diagonalization with overlap
     ethr =  9.72E-06,  avg # of iterations =  6.5

     negative rho (up, down):  7.084E-03 0.000E+00

     Adding external electric field

     Computed dipole along edir(3) : 
        Dipole                0.0143 Ry au,          0.0363 Debye
        Dipole field          0.0000 Ry au, 

        Potential amp.       -0.0038 Ry
        Total length         45.0803 bohr


     total cpu time spent up to now is     1490.7 secs

     total energy              =   -1466.22544875 Ry
     estimated scf accuracy    <       0.00319543 Ry

     iteration #  9     ecut=    55.12 Ry     beta= 0.10
     Davidson diagonalization with overlap
     c_bands:  2 eigenvalues not converged
     ethr =  2.22E-06,  avg # of iterations =  8.1

     negative rho (up, down):  7.114E-03 0.000E+00

     Adding external electric field

     Computed dipole along edir(3) : 
        Dipole                0.0199 Ry au,          0.0505 Debye
        Dipole field          0.0001 Ry au, 

        Potential amp.       -0.0053 Ry
        Total length         45.0803 bohr


     total cpu time spent up to now is     1739.3 secs

     total energy              =   -1466.22608105 Ry
     estimated scf accuracy    <       0.00315708 Ry

     iteration # 10     ecut=    55.12 Ry     beta= 0.10
     Davidson diagonalization with overlap
     ethr =  2.19E-06,  avg # of iterations =  2.1

     negative rho (up, down):  7.024E-03 0.000E+00

     Adding external electric field

     Computed dipole along edir(3) : 
        Dipole                0.0159 Ry au,          0.0405 Debye
        Dipole field          0.0000 Ry au, 

        Potential amp.       -0.0042 Ry
        Total length         45.0803 bohr


     total cpu time spent up to now is     1906.6 secs

     total energy              =   -1466.22547890 Ry
     estimated scf accuracy    <       0.00276996 Ry

     iteration # 11     ecut=    55.12 Ry     beta= 0.10
     Davidson diagonalization with overlap
     ethr =  1.92E-06,  avg # of iterations =  2.3

     negative rho (up, down):  6.886E-03 0.000E+00

     Adding external electric field

     Computed dipole along edir(3) : 
        Dipole                0.0157 Ry au,          0.0398 Debye
        Dipole field          0.0000 Ry au, 

        Potential amp.       -0.0041 Ry
        Total length         45.0803 bohr


     total cpu time spent up to now is     2091.7 secs

     total energy              =   -1466.22602105 Ry
     estimated scf accuracy    <       0.00013262 Ry

     iteration # 12     ecut=    55.12 Ry     beta= 0.10
     Davidson diagonalization with overlap
     ethr =  9.21E-08,  avg # of iterations =  6.0

     negative rho (up, down):  6.759E-03 0.000E+00

     Adding external electric field

     Computed dipole along edir(3) : 
        Dipole                0.0173 Ry au,          0.0439 Debye
        Dipole field          0.0001 Ry au, 

        Potential amp.       -0.0046 Ry
        Total length         45.0803 bohr


     total cpu time spent up to now is     2345.3 secs

     total energy              =   -1466.22591380 Ry
     estimated scf accuracy    <       0.00034921 Ry

     iteration # 13     ecut=    55.12 Ry     beta= 0.10
     Davidson diagonalization with overlap
     ethr =  9.21E-08,  avg # of iterations =  4.9

     negative rho (up, down):  6.684E-03 0.000E+00

     Adding external electric field

     Computed dipole along edir(3) : 
        Dipole                0.0159 Ry au,          0.0405 Debye
        Dipole field          0.0000 Ry au, 

        Potential amp.       -0.0042 Ry
        Total length         45.0803 bohr


     total cpu time spent up to now is     2591.8 secs

     total energy              =   -1466.22600866 Ry
     estimated scf accuracy    <       0.00025460 Ry

     iteration # 14     ecut=    55.12 Ry     beta= 0.10
     Davidson diagonalization with overlap
     ethr =  9.21E-08,  avg # of iterations =  2.4

     negative rho (up, down):  6.599E-03 0.000E+00

     Adding external electric field

     Computed dipole along edir(3) : 
        Dipole                0.0159 Ry au,          0.0404 Debye
        Dipole field          0.0000 Ry au, 

        Potential amp.       -0.0042 Ry
        Total length         45.0803 bohr


     total cpu time spent up to now is     2764.9 secs

     total energy              =   -1466.22601985 Ry
     estimated scf accuracy    <       0.00004001 Ry

     iteration # 15     ecut=    55.12 Ry     beta= 0.10
     Davidson diagonalization with overlap
     ethr =  2.78E-08,  avg # of iterations =  5.8

     negative rho (up, down):  6.526E-03 0.000E+00

     Adding external electric field

     Computed dipole along edir(3) : 
        Dipole                0.0162 Ry au,          0.0412 Debye
        Dipole field          0.0000 Ry au, 

        Potential amp.       -0.0043 Ry
        Total length         45.0803 bohr


     total cpu time spent up to now is     2978.7 secs

     total energy              =   -1466.22603425 Ry
     estimated scf accuracy    <       0.00001864 Ry

     iteration # 16     ecut=    55.12 Ry     beta= 0.10
     Davidson diagonalization with overlap
     ethr =  1.29E-08,  avg # of iterations =  2.0

     negative rho (up, down):  6.464E-03 0.000E+00

     Adding external electric field

     Computed dipole along edir(3) : 
        Dipole                0.0161 Ry au,          0.0409 Debye
        Dipole field          0.0000 Ry au, 

        Potential amp.       -0.0043 Ry
        Total length         45.0803 bohr


     total cpu time spent up to now is     3137.7 secs

     total energy              =   -1466.22603551 Ry
     estimated scf accuracy    <       0.00001209 Ry

     iteration # 17     ecut=    55.12 Ry     beta= 0.10
     Davidson diagonalization with overlap
     ethr =  8.39E-09,  avg # of iterations =  2.0

     negative rho (up, down):  6.229E-03 0.000E+00

     Adding external electric field

     Computed dipole along edir(3) : 
        Dipole                0.0225 Ry au,          0.0571 Debye
        Dipole field          0.0001 Ry au, 

        Potential amp.       -0.0059 Ry
        Total length         45.0803 bohr


     total cpu time spent up to now is     3319.7 secs

     End of self-consistent calculation

          k = 0.0000 0.0000 0.0000 ( 29557 PWs)   bands (ev):

   -65.8584 -65.7855 -65.4611 -65.4198 -65.3889 -65.3477 -38.0209 -37.8627
   -37.7838 -37.7485 -37.6768 -37.6057 -37.5634 -37.3739 -37.3560 -37.3300
   -37.3113 -37.3016 -37.2581 -37.2405 -37.1762 -37.1122 -36.9485 -36.9092
    -6.7235  -5.0163  -4.9021  -4.6995  -4.6858  -4.5374  -4.3781  -4.2147
    -4.1393  -3.9430  -3.9006  -3.8477  -3.4580  -3.4288  -3.3378  -2.3233
    -2.1626  -1.9421  -1.6802  -1.5074  -1.4664  -1.1543  -1.1235  -1.0807
    -0.9201  -0.8743  -0.8091  -0.5846  -0.5348  -0.4501  -0.2753  -0.2405
    -0.2154   0.2389   0.5094   0.9567   1.0080   1.0121   1.2860   1.3206
     1.4295   1.5188   1.5593   1.6484   2.1763   2.3836   2.4950   2.4982
     2.7136   2.8557   3.1077   3.1607   3.1737   3.2908   3.3611   3.3886
     3.4472   3.5645   3.5799   3.6908   3.7980   3.8493

          k = 0.0000 0.0175 0.0000 ( 29551 PWs)   bands (ev):

   -65.8584 -65.7854 -65.4610 -65.4198 -65.3888 -65.3477 -38.0212 -37.8631
   -37.7840 -37.7491 -37.6770 -37.6059 -37.5637 -37.3742 -37.3560 -37.3302
   -37.3117 -37.3018 -37.2582 -37.2407 -37.1764 -37.1123 -36.9486 -36.9093
    -6.6637  -4.9744  -4.8486  -4.6436  -4.6364  -4.5008  -4.3288  -4.1782
    -4.1022  -3.9205  -3.8683  -3.8094  -3.4008  -3.3593  -3.3055  -2.3232
    -2.1459  -1.9500  -1.6774  -1.4705  -1.4504  -1.2706  -1.0771  -1.0675
    -0.9902  -0.8344  -0.7886  -0.5566  -0.5557  -0.4419  -0.3150  -0.2459
    -0.1917   0.1789   0.4519   0.8542   0.9215   0.9920   1.2437   1.2990
     1.3235   1.4354   1.4965   1.6640   2.1499   2.3601   2.3764   2.4728
     2.6660   2.7930   2.8492   2.8901   3.1665   3.1871   3.3182   3.3221
     3.3303   3.3489   3.5187   3.6089   3.6580   3.8460

          k = 0.0000 0.0350 0.0000 ( 29585 PWs)   bands (ev):

   -65.8583 -65.7854 -65.4610 -65.4197 -65.3888 -65.3476 -38.0221 -37.8643
   -37.7846 -37.7509 -37.6776 -37.6067 -37.5645 -37.3749 -37.3562 -37.3307
   -37.3129 -37.3024 -37.2586 -37.2413 -37.1769 -37.1126 -36.9488 -36.9094
    -6.4897  -4.8696  -4.6923  -4.4953  -4.4812  -4.3904  -4.1874  -4.0710
    -3.9906  -3.8537  -3.7697  -3.6987  -3.2352  -3.2099  -3.1548  -2.3263
    -2.1046  -1.9818  -1.6802  -1.4802  -1.4031  -1.3873  -1.1337  -1.0760
    -0.9416  -0.8123  -0.7332  -0.6085  -0.4707  -0.4533  -0.4231  -0.3183
    -0.0483   0.0158   0.2700   0.6049   0.7222   0.9465   1.0079   1.0565
     1.1963   1.3372   1.4569   1.6004   1.6702   2.1411   2.2546   2.2949
     2.3973   2.4040   2.6586   2.6755   2.8280   2.9503   3.0498   3.0995
     3.1702   3.3087   3.3426   3.3890   3.4300   3.7652

          k = 0.0000 0.0525 0.0000 ( 29557 PWs)   bands (ev):

   -65.8581 -65.7854 -65.4609 -65.4195 -65.3888 -65.3476 -38.0233 -37.8658
   -37.7854 -37.7533 -37.6783 -37.6077 -37.5657 -37.3759 -37.3565 -37.3315
   -37.3143 -37.3033 -37.2591 -37.2421 -37.1775 -37.1130 -36.9490 -36.9097
    -6.2202  -4.7544  -4.4550  -4.2873  -4.2309  -4.2121  -3.9748  -3.8971
    -3.8083  -3.7409  -3.5982  -3.5333  -3.0569  -2.9841  -2.8296  -2.3320
    -2.0837  -2.0655  -1.7149  -1.6779  -1.4300  -1.3315  -1.1396  -1.1292
    -0.8586  -0.7302  -0.6873  -0.6556  -0.5832  -0.5008  -0.3766  -0.3415
    -0.2032  -0.0193   0.1801   0.3395   0.4797   0.6297   0.7292   0.8807
     0.8853   1.1090   1.3690   1.3998   1.4605   1.5301   1.6076   1.7060
     2.0429   2.2376   2.2628   2.5112   2.6787   2.6940   2.9167   2.9753
     3.0632   3.1398   3.1533   3.2210   3.2923   3.3101

          k = 0.0000 0.0700 0.0000 ( 29585 PWs)   bands (ev):

   -65.8580 -65.7853 -65.4608 -65.4194 -65.3887 -65.3475 -38.0246 -37.8675
   -37.7862 -37.7557 -37.6791 -37.6086 -37.5668 -37.3771 -37.3567 -37.3324
   -37.3155 -37.3042 -37.2597 -37.2429 -37.1782 -37.1133 -36.9492 -36.9099
    -5.8930  -4.6858  -4.1910  -4.0611  -3.9944  -3.9364  -3.7299  -3.6618
    -3.6330  -3.5264  -3.3594  -3.3424  -2.8695  -2.7216  -2.4591  -2.2899
    -2.1865  -2.1787  -1.7906  -1.7450  -1.6288  -1.2682  -1.2268  -1.0030
    -0.9930  -0.8000  -0.7335  -0.5728  -0.5328  -0.4773  -0.4740  -0.3416
    -0.2896  -0.1964   0.1364   0.1458   0.2501   0.4361   0.4688   0.4709
     0.6702   0.7023   0.8375   0.8835   0.9829   1.3842   1.4223   1.6231
     1.6407   1.8575   1.9724   2.0338   2.2917   2.6443   2.6924   2.7075
     2.7616   2.8502   2.9913   3.0825   3.1894   3.4183

          k = 0.0000 0.0875 0.0000 ( 29608 PWs)   bands (ev):

   -65.8578 -65.7853 -65.4607 -65.4193 -65.3887 -65.3475 -38.0254 -37.8686
   -37.7868 -37.7574 -37.6796 -37.6094 -37.5676 -37.3779 -37.3569 -37.3331
   -37.3162 -37.3049 -37.2602 -37.2434 -37.1786 -37.1136 -36.9493 -36.9101
    -5.5815  -4.6953  -3.9834  -3.8785  -3.7802  -3.6878  -3.5400  -3.4995
    -3.4129  -3.2449  -3.2361  -3.0086  -2.7330  -2.5908  -2.4817  -2.3394
    -2.1426  -2.1062  -1.8674  -1.7442  -1.6180  -1.2951  -1.2933  -1.0553
    -1.0117  -0.8835  -0.8243  -0.6623  -0.5439  -0.5006  -0.3764  -0.3320
    -0.2683  -0.1950  -0.1463  -0.1118  -0.0487   0.0469   0.0705   0.2617
     0.4777   0.5056   0.5112   0.7160   0.8651   1.1194   1.3604   1.4601
     1.4901   1.6677   1.6887   1.8427   2.0155   2.3738   2.3939   2.5381
     2.6224   2.7124   2.8181   3.0863   3.1836   3.4339

          k = 0.0000-0.1050 0.0000 ( 29582 PWs)   bands (ev):

   -65.8578 -65.7853 -65.4606 -65.4193 -65.3887 -65.3475 -38.0258 -37.8691
   -37.7870 -37.7581 -37.6798 -37.6096 -37.5679 -37.3783 -37.3570 -37.3334
   -37.3165 -37.3051 -37.2604 -37.2436 -37.1788 -37.1137 -36.9494 -36.9101
    -5.4336  -4.7293  -3.9060  -3.8040  -3.6461  -3.5915  -3.5526  -3.3842
    -3.3037  -3.2017  -3.0519  -2.7721  -2.7574  -2.5657  -2.5081  -2.3950
    -2.3643  -1.9791  -1.9146  -1.7738  -1.3564  -1.1967  -1.1811  -1.0716
    -1.0630  -0.9551  -0.9137  -0.8316  -0.6859  -0.4707  -0.4020  -0.3805
    -0.3518  -0.2538  -0.2319  -0.2069  -0.1153  -0.0504   0.0213   0.0457
     0.2866   0.4645   0.6423   0.7465   0.7891   0.9780   1.2628   1.3759
     1.5278   1.5604   1.6024   1.9035   1.9157   2.2216   2.2452   2.4012
     2.5753   2.7141   2.7765   3.0926   3.1832   3.4915

          k = 0.0153 0.0088 0.0000 ( 29574 PWs)   bands (ev):

   -65.8572 -65.7867 -65.4598 -65.4186 -65.3901 -65.3489 -38.0101 -37.8615
   -37.7853 -37.7475 -37.6782 -37.5949 -37.5528 -37.3728 -37.3678 -37.3289
   -37.3102 -37.3029 -37.2594 -37.2419 -37.1752 -37.1134 -36.9602 -36.9209
    -6.6580  -4.9512  -4.8350  -4.6747  -4.6383  -4.4822  -4.3436  -4.1760
    -4.1004  -3.9067  -3.8737  -3.8150  -3.4195  -3.3741  -3.2783  -2.3067
    -2.1602  -1.9369  -1.6564  -1.4949  -1.4336  -1.2760  -1.1262  -1.0607
    -0.9336  -0.8696  -0.8323  -0.5793  -0.5088  -0.5050  -0.2673  -0.2549
    -0.1677   0.2206   0.4163   0.7704   0.9740   1.0045   1.2398   1.2779
     1.4029   1.4426   1.5215   1.6265   2.1492   2.2318   2.3501   2.5551
     2.6564   2.8183   2.8482   2.9006   3.0542   3.2336   3.2447   3.3139
     3.3320   3.4992   3.5983   3.6303   3.6969   3.7177

          k = 0.0153 0.0263 0.0000 ( 29557 PWs)   bands (ev):

   -65.8571 -65.7867 -65.4598 -65.4185 -65.3901 -65.3489 -38.0107 -37.8623
   -37.7857 -37.7487 -37.6786 -37.5954 -37.5533 -37.3733 -37.3680 -37.3292
   -37.3110 -37.3034 -37.2596 -37.2423 -37.1755 -37.1136 -36.9603 -36.9210
    -6.5405  -4.8722  -4.7308  -4.5940  -4.5190  -4.4088  -4.2489  -4.1016
    -4.0271  -3.8634  -3.8125  -3.7351  -3.3276  -3.2177  -3.2151  -2.3099
    -2.1308  -1.9553  -1.6623  -1.4345  -1.4252  -1.3966  -1.0874  -1.0632
    -1.0211  -0.8537  -0.7886  -0.5526  -0.5042  -0.4810  -0.3421  -0.3000
    -0.0933   0.1123   0.3009   0.6328   0.8101   0.9406   1.1337   1.1699
     1.2710   1.2968   1.4888   1.6084   1.7899   2.2329   2.3612   2.4185
     2.5147   2.5473   2.6370   2.6507   2.8087   2.9719   3.0964   3.1923
     3.2424   3.3449   3.4309   3.4747   3.5971   3.7582

          k = 0.0153 0.0438 0.0000 ( 29553 PWs)   bands (ev):

   -65.8570 -65.7866 -65.4597 -65.4184 -65.3900 -65.3488 -38.0118 -37.8637
   -37.7864 -37.7508 -37.6792 -37.5963 -37.5543 -37.3742 -37.3682 -37.3298
   -37.3123 -37.3041 -37.2601 -37.2430 -37.1761 -37.1139 -36.9605 -36.9212
    -6.3168  -4.7538  -4.5324  -4.4205  -4.3204  -4.2624  -4.0714  -3.9548
    -3.8798  -3.7776  -3.6855  -3.5861  -3.1252  -3.0922  -2.9467  -2.3207
    -2.0931  -2.0078  -1.6957  -1.6232  -1.3861  -1.3434  -1.1651  -1.1031
    -0.9262  -0.8416  -0.7246  -0.5878  -0.4996  -0.4839  -0.4374  -0.3428
    -0.0720   0.0670   0.0827   0.4197   0.5916   0.7715   0.8489   0.9386
     1.0130   1.2510   1.3508   1.5165   1.5313   1.7263   1.7798   1.8602
     2.2098   2.3732   2.4613   2.6229   2.6242   2.8578   2.8894   2.9943
     3.0096   3.1798   3.2313   3.2727   3.3888   3.4917

          k = 0.0153 0.0613 0.0000 ( 29560 PWs)   bands (ev):

   -65.8568 -65.7866 -65.4596 -65.4183 -65.3900 -65.3488 -38.0130 -37.8653
   -37.7872 -37.7533 -37.6800 -37.5973 -37.5554 -37.3753 -37.3684 -37.3307
   -37.3137 -37.3050 -37.2607 -37.2438 -37.1768 -37.1143 -36.9607 -36.9214
    -6.0131  -4.6558  -4.2744  -4.1811  -4.0809  -4.0586  -3.8401  -3.7389
    -3.6782  -3.6347  -3.4855  -3.3948  -2.9227  -2.8488  -2.6091  -2.3116
    -2.1287  -2.1116  -1.7721  -1.7525  -1.5279  -1.2866  -1.1821  -1.0684
    -0.9979  -0.7837  -0.6838  -0.6350  -0.5730  -0.5334  -0.4626  -0.2736
    -0.2237  -0.2202   0.2231   0.2597   0.3175   0.5229   0.5252   0.6573
     0.8253   0.8835   0.9659   1.1040   1.1868   1.3974   1.4302   1.5822
     1.8477   1.9659   2.0699   2.3209   2.4784   2.6706   2.6982   2.8293
     2.8949   3.0771   3.1063   3.1728   3.1950   3.4664

          k = 0.0153 0.0788 0.0000 ( 29583 PWs)   bands (ev):

   -65.8567 -65.7865 -65.4595 -65.4182 -65.3899 -65.3487 -38.0141 -37.8667
   -37.7879 -37.7553 -37.6806 -37.5982 -37.5564 -37.3763 -37.3686 -37.3315
   -37.3146 -37.3058 -37.2612 -37.2444 -37.1773 -37.1146 -36.9609 -36.9216
    -5.6808  -4.6279  -4.0270  -3.9453  -3.8408  -3.8373  -3.5958  -3.5410
    -3.4858  -3.3632  -3.2737  -3.1511  -2.7559  -2.6510  -2.4392  -2.2880
    -2.1817  -2.0962  -1.8314  -1.7802  -1.7100  -1.3048  -1.2707  -1.1148
    -0.9732  -0.8748  -0.7981  -0.6323  -0.6095  -0.5677  -0.4357  -0.3888
    -0.2402  -0.1595  -0.0239   0.0130   0.0925   0.1979   0.2236   0.4045
     0.5367   0.5541   0.6724   0.7248   0.8786   1.3290   1.3804   1.4169
     1.6258   1.6619   1.6998   2.0233   2.1911   2.4522   2.6587   2.7020
     2.7100   2.7643   2.9515   3.0273   3.1530   3.3132

          k = 0.0153 0.0963 0.0000 ( 29590 PWs)   bands (ev):

   -65.8566 -65.7865 -65.4594 -65.4181 -65.3899 -65.3487 -38.0147 -37.8675
   -37.7883 -37.7565 -37.6810 -37.5987 -37.5570 -37.3769 -37.3687 -37.3321
   -37.3151 -37.3062 -37.2615 -37.2447 -37.1777 -37.1148 -36.9610 -36.9217
    -5.4245  -4.6687  -3.8776  -3.7983  -3.6721  -3.6412  -3.5025  -3.4047
    -3.2864  -3.1911  -3.0869  -2.8365  -2.7229  -2.6360  -2.4761  -2.3981
    -2.2734  -1.9931  -1.8638  -1.8204  -1.3831  -1.3509  -1.2785  -1.0940
    -1.0567  -0.9610  -0.8738  -0.8200  -0.6915  -0.6151  -0.4635  -0.3856
    -0.3757  -0.2457  -0.2122  -0.1948  -0.0946  -0.0345   0.0581   0.1933
     0.3002   0.4656   0.5796   0.8292   0.9256   0.9868   1.3023   1.3830
     1.5517   1.5539   1.5866   1.9413   1.9962   2.3046   2.3985   2.4962
     2.5925   2.6911   2.7972   3.0301   3.1463   3.3603

          k = 0.0153-0.0963 0.0000 ( 29590 PWs)   bands (ev):

   -65.8566 -65.7865 -65.4594 -65.4181 -65.3899 -65.3487 -38.0147 -37.8675
   -37.7883 -37.7565 -37.6810 -37.5987 -37.5570 -37.3769 -37.3687 -37.3321
   -37.3151 -37.3062 -37.2615 -37.2447 -37.1777 -37.1148 -36.9610 -36.9217
    -5.4245  -4.6687  -3.8776  -3.7983  -3.6721  -3.6412  -3.5025  -3.4047
    -3.2864  -3.1911  -3.0869  -2.8365  -2.7229  -2.6360  -2.4761  -2.3981
    -2.2734  -1.9931  -1.8638  -1.8204  -1.3831  -1.3509  -1.2785  -1.0940
    -1.0567  -0.9610  -0.8738  -0.8200  -0.6915  -0.6151  -0.4635  -0.3856
    -0.3757  -0.2457  -0.2122  -0.1948  -0.0946  -0.0345   0.0581   0.1933
     0.3002   0.4656   0.5796   0.8292   0.9256   0.9868   1.3023   1.3830
     1.5517   1.5539   1.5866   1.9413   1.9962   2.3046   2.3985   2.4962
     2.5925   2.6911   2.7972   3.0301   3.1463   3.3603

          k = 0.0153-0.0788 0.0000 ( 29583 PWs)   bands (ev):

   -65.8567 -65.7865 -65.4595 -65.4182 -65.3899 -65.3487 -38.0141 -37.8667
   -37.7879 -37.7553 -37.6806 -37.5982 -37.5564 -37.3763 -37.3686 -37.3315
   -37.3146 -37.3058 -37.2612 -37.2444 -37.1773 -37.1146 -36.9609 -36.9216
    -5.6808  -4.6279  -4.0270  -3.9453  -3.8408  -3.8373  -3.5958  -3.5410
    -3.4858  -3.3632  -3.2737  -3.1511  -2.7559  -2.6510  -2.4392  -2.2880
    -2.1817  -2.0962  -1.8314  -1.7802  -1.7100  -1.3048  -1.2707  -1.1148
    -0.9732  -0.8748  -0.7981  -0.6323  -0.6095  -0.5677  -0.4357  -0.3888
    -0.2402  -0.1595  -0.0239   0.0130   0.0925   0.1979   0.2236   0.4045
     0.5367   0.5541   0.6724   0.7248   0.8786   1.3290   1.3804   1.4169
     1.6258   1.6619   1.6998   2.0233   2.1911   2.4522   2.6587   2.7020
     2.7100   2.7643   2.9515   3.0273   3.1530   3.3131

          k = 0.0153-0.0613 0.0000 ( 29560 PWs)   bands (ev):

   -65.8568 -65.7866 -65.4596 -65.4183 -65.3900 -65.3488 -38.0130 -37.8653
   -37.7872 -37.7533 -37.6800 -37.5973 -37.5554 -37.3753 -37.3684 -37.3307
   -37.3137 -37.3050 -37.2607 -37.2438 -37.1768 -37.1143 -36.9607 -36.9214
    -6.0131  -4.6558  -4.2744  -4.1811  -4.0809  -4.0586  -3.8401  -3.7389
    -3.6782  -3.6347  -3.4855  -3.3948  -2.9227  -2.8488  -2.6091  -2.3116
    -2.1287  -2.1116  -1.7721  -1.7525  -1.5279  -1.2866  -1.1821  -1.0684
    -0.9979  -0.7837  -0.6838  -0.6350  -0.5730  -0.5334  -0.4626  -0.2736
    -0.2237  -0.2202   0.2231   0.2597   0.3175   0.5229   0.5252   0.6573
     0.8253   0.8835   0.9659   1.1040   1.1868   1.3974   1.4302   1.5822
     1.8477   1.9659   2.0699   2.3209   2.4784   2.6706   2.6982   2.8293
     2.8949   3.0771   3.1063   3.1728   3.1950   3.4663

          k = 0.0153-0.0438 0.0000 ( 29553 PWs)   bands (ev):

   -65.8570 -65.7866 -65.4597 -65.4184 -65.3900 -65.3488 -38.0118 -37.8637
   -37.7864 -37.7508 -37.6792 -37.5963 -37.5543 -37.3742 -37.3682 -37.3298
   -37.3123 -37.3041 -37.2601 -37.2430 -37.1761 -37.1139 -36.9605 -36.9212
    -6.3168  -4.7538  -4.5324  -4.4205  -4.3204  -4.2624  -4.0714  -3.9548
    -3.8798  -3.7776  -3.6855  -3.5861  -3.1252  -3.0922  -2.9467  -2.3207
    -2.0931  -2.0078  -1.6957  -1.6232  -1.3861  -1.3434  -1.1651  -1.1031
    -0.9262  -0.8416  -0.7246  -0.5878  -0.4996  -0.4839  -0.4374  -0.3428
    -0.0720   0.0670   0.0827   0.4197   0.5916   0.7715   0.8489   0.9386
     1.0130   1.2510   1.3508   1.5165   1.5313   1.7263   1.7798   1.8602
     2.2098   2.3732   2.4613   2.6229   2.6242   2.8578   2.8894   2.9943
     3.0096   3.1798   3.2313   3.2727   3.3889   3.4917

          k = 0.0153-0.0263 0.0000 ( 29557 PWs)   bands (ev):

   -65.8571 -65.7867 -65.4598 -65.4185 -65.3901 -65.3489 -38.0107 -37.8623
   -37.7857 -37.7487 -37.6786 -37.5954 -37.5533 -37.3733 -37.3680 -37.3292
   -37.3110 -37.3034 -37.2596 -37.2423 -37.1755 -37.1136 -36.9603 -36.9210
    -6.5405  -4.8722  -4.7308  -4.5940  -4.5190  -4.4088  -4.2489  -4.1016
    -4.0271  -3.8634  -3.8125  -3.7351  -3.3276  -3.2177  -3.2151  -2.3099
    -2.1308  -1.9553  -1.6623  -1.4345  -1.4252  -1.3966  -1.0874  -1.0632
    -1.0211  -0.8537  -0.7886  -0.5526  -0.5042  -0.4810  -0.3421  -0.3000
    -0.0933   0.1123   0.3009   0.6328   0.8100   0.9406   1.1337   1.1699
     1.2710   1.2968   1.4888   1.6084   1.7899   2.2329   2.3612   2.4185
     2.5147   2.5473   2.6370   2.6507   2.8087   2.9719   3.0964   3.1923
     3.2424   3.3449   3.4309   3.4747   3.5971   3.7582

          k = 0.0153-0.0088 0.0000 ( 29574 PWs)   bands (ev):

   -65.8572 -65.7867 -65.4598 -65.4186 -65.3901 -65.3489 -38.0101 -37.8615
   -37.7853 -37.7475 -37.6782 -37.5949 -37.5528 -37.3728 -37.3678 -37.3289
   -37.3102 -37.3029 -37.2594 -37.2419 -37.1752 -37.1134 -36.9602 -36.9209
    -6.6580  -4.9512  -4.8350  -4.6747  -4.6383  -4.4822  -4.3436  -4.1760
    -4.1004  -3.9067  -3.8737  -3.8150  -3.4195  -3.3741  -3.2783  -2.3067
    -2.1602  -1.9369  -1.6564  -1.4949  -1.4336  -1.2760  -1.1262  -1.0607
    -0.9336  -0.8696  -0.8323  -0.5793  -0.5088  -0.5050  -0.2673  -0.2549
    -0.1677   0.2206   0.4163   0.7704   0.9740   1.0045   1.2398   1.2779
     1.4029   1.4426   1.5215   1.6265   2.1492   2.2318   2.3501   2.5551
     2.6564   2.8183   2.8482   2.9006   3.0542   3.2336   3.2447   3.3139
     3.3320   3.4988   3.5983   3.6302   3.6968   3.7176

          k = 0.0306 0.0175 0.0000 ( 29574 PWs)   bands (ev):

   -65.8535 -65.7903 -65.4562 -65.4149 -65.3937 -65.3525 -37.9782 -37.8580
   -37.7897 -37.7445 -37.6824 -37.5634 -37.5214 -37.4026 -37.3695 -37.3255
   -37.3071 -37.3069 -37.2632 -37.2459 -37.1722 -37.1168 -36.9944 -36.9549
    -6.4660  -4.7605  -4.6410  -4.6177  -4.4965  -4.3225  -4.2435  -4.0588
    -3.9890  -3.7990  -3.7983  -3.7146  -3.3276  -3.1926  -3.1054  -2.2652
    -2.1609  -1.9248  -1.6075  -1.4964  -1.4601  -1.3399  -1.1829  -1.0649
    -1.0169  -0.9935  -0.7487  -0.5968  -0.5707  -0.4104  -0.3380  -0.2536
    -0.0187   0.1440   0.1508   0.4675   0.8381   0.8626   1.0834   1.1748
     1.1891   1.3139   1.4680   1.5482   1.7060   1.9703   2.1666   2.2555
     2.3821   2.5205   2.7130   2.7319   2.8879   2.9075   3.0260   3.0582
     3.2315   3.2822   3.3177   3.4275   3.5136   3.7659

          k = 0.0306 0.0350 0.0000 ( 29532 PWs)   bands (ev):

   -65.8534 -65.7903 -65.4562 -65.4149 -65.3937 -65.3525 -37.9790 -37.8591
   -37.7902 -37.7461 -37.6828 -37.5641 -37.5221 -37.4027 -37.3701 -37.3260
   -37.3082 -37.3074 -37.2635 -37.2464 -37.1726 -37.1170 -36.9945 -36.9550
    -6.2969  -4.6526  -4.5251  -4.4973  -4.3345  -4.2122  -4.1124  -3.9388
    -3.8844  -3.7403  -3.7149  -3.5874  -3.2094  -3.0174  -2.9598  -2.2842
    -2.1294  -1.9543  -1.6866  -1.6239  -1.4028  -1.2984  -1.1452  -1.1337
    -1.0352  -1.0213  -0.6878  -0.5479  -0.5436  -0.4268  -0.3933  -0.3484
    -0.0030   0.0159   0.0886   0.3488   0.6341   0.7459   0.8552   1.0290
     1.0651   1.1855   1.4142   1.4717   1.5003   1.6559   1.7360   1.9377
     2.3208   2.3704   2.4346   2.5847   2.5957   2.8271   2.8459   2.8922
     3.0769   3.1776   3.2391   3.4020   3.4169   3.6363

          k = 0.0306 0.0525 0.0000 ( 29559 PWs)   bands (ev):

   -65.8533 -65.7903 -65.4561 -65.4148 -65.3936 -65.3524 -37.9802 -37.8605
   -37.7908 -37.7483 -37.6834 -37.5650 -37.5232 -37.4028 -37.3711 -37.3267
   -37.3094 -37.3082 -37.2640 -37.2470 -37.1732 -37.1173 -36.9946 -36.9551
    -6.0335  -4.5355  -4.3485  -4.2740  -4.1330  -4.0321  -3.9159  -3.7398
    -3.7077  -3.6422  -3.5609  -3.4029  -2.9820  -2.8811  -2.6725  -2.2979
    -2.1229  -2.0185  -1.8250  -1.7376  -1.4606  -1.2876  -1.1970  -1.1092
    -1.0946  -0.9225  -0.6177  -0.6091  -0.5635  -0.5317  -0.5220  -0.2818
    -0.2199  -0.1193   0.1646   0.2727   0.4294   0.5030   0.6178   0.7620
     0.9002   0.9563   1.0921   1.1154   1.2491   1.3686   1.4619   1.4937
     1.9807   2.0625   2.1342   2.4391   2.4696   2.6499   2.6570   2.8599
     2.9150   3.0804   3.1041   3.2309   3.4218   3.6515

          k = 0.0306 0.0700 0.0000 ( 29561 PWs)   bands (ev):

   -65.8531 -65.7902 -65.4560 -65.4146 -65.3936 -65.3524 -37.9813 -37.8619
   -37.7915 -37.7505 -37.6839 -37.5659 -37.5242 -37.4029 -37.3721 -37.3275
   -37.3105 -37.3089 -37.2645 -37.2476 -37.1738 -37.1176 -36.9948 -36.9553
    -5.7095  -4.4726  -4.1180  -4.0163  -3.9290  -3.8131  -3.6784  -3.5123
    -3.5104  -3.4568  -3.3199  -3.1945  -2.7312  -2.7203  -2.5354  -2.2421
    -2.1370  -2.0880  -1.8883  -1.8229  -1.6535  -1.3055  -1.2820  -1.2555
    -0.9913  -0.8823  -0.7934  -0.6793  -0.6219  -0.5957  -0.5547  -0.4054
    -0.2297  -0.1340   0.0568   0.1091   0.1597   0.2172   0.3184   0.5474
     0.6214   0.6458   0.7591   0.8072   0.9093   1.3482   1.3840   1.4768
     1.5171   1.7610   1.7678   2.2734   2.3516   2.5686   2.5945   2.7147
     2.8896   2.9823   3.0353   3.1062   3.1966   3.5129

          k = 0.0306 0.0875 0.0000 ( 29594 PWs)   bands (ev):

   -65.8530 -65.7902 -65.4559 -65.4146 -65.3936 -65.3524 -37.9821 -37.8630
   -37.7920 -37.7521 -37.6843 -37.5666 -37.5249 -37.4030 -37.3728 -37.3281
   -37.3112 -37.3095 -37.2649 -37.2480 -37.1742 -37.1178 -36.9949 -36.9554
    -5.3940  -4.4973  -3.9026  -3.8084  -3.7653  -3.5982  -3.4417  -3.3998
    -3.2856  -3.1602  -3.1480  -2.9303  -2.7161  -2.6623  -2.4273  -2.4258
    -2.0937  -2.0519  -1.9667  -1.7719  -1.5948  -1.4150  -1.3540  -1.2816
    -1.0186  -1.0141  -0.8440  -0.8273  -0.7472  -0.7444  -0.5353  -0.4424
    -0.3468  -0.3462  -0.1266  -0.0918  -0.0715  -0.0165   0.0787   0.3187
     0.3654   0.5518   0.5820   0.8735   1.0790   1.1016   1.2987   1.4039
     1.4788   1.5164   1.7205   2.1184   2.1559   2.4794   2.5799   2.6534
     2.7516   2.7791   2.9176   2.9559   3.0592   3.1668

          k = 0.0306 0.1050 0.0000 ( 29554 PWs)   bands (ev):

   -65.8530 -65.7902 -65.4559 -65.4145 -65.3935 -65.3524 -37.9824 -37.8634
   -37.7921 -37.7527 -37.6845 -37.5668 -37.5252 -37.4031 -37.3731 -37.3284
   -37.3115 -37.3097 -37.2650 -37.2482 -37.1744 -37.1179 -36.9949 -36.9554
    -5.2394  -4.5438  -3.8095  -3.7314  -3.6982  -3.4362  -3.4214  -3.3172
    -3.1738  -3.1119  -2.9484  -2.8391  -2.7226  -2.5933  -2.5239  -2.5145
    -2.2778  -2.0283  -1.8863  -1.7080  -1.4234  -1.3130  -1.2479  -1.2429
    -1.1909  -1.1525  -1.0282  -0.9244  -0.8669  -0.7982  -0.6323  -0.5659
    -0.4137  -0.2902  -0.2215  -0.2204  -0.1027  -0.0734   0.1156   0.1610
     0.2990   0.5224   0.5991   0.8962   1.0252   1.1233   1.2473   1.4195
     1.4239   1.4964   1.7904   2.0580   2.1092   2.4629   2.5179   2.5732
     2.5884   2.6316   2.8074   2.9056   3.0457   3.1974

          k = 0.0306-0.0875 0.0000 ( 29594 PWs)   bands (ev):

   -65.8530 -65.7902 -65.4559 -65.4146 -65.3936 -65.3524 -37.9821 -37.8630
   -37.7920 -37.7521 -37.6843 -37.5666 -37.5249 -37.4030 -37.3728 -37.3281
   -37.3112 -37.3095 -37.2649 -37.2480 -37.1742 -37.1178 -36.9949 -36.9554
    -5.3940  -4.4973  -3.9026  -3.8084  -3.7653  -3.5982  -3.4417  -3.3998
    -3.2856  -3.1602  -3.1480  -2.9303  -2.7161  -2.6623  -2.4273  -2.4258
    -2.0937  -2.0519  -1.9667  -1.7719  -1.5948  -1.4150  -1.3540  -1.2816
    -1.0186  -1.0141  -0.8440  -0.8273  -0.7472  -0.7444  -0.5353  -0.4424
    -0.3468  -0.3462  -0.1266  -0.0918  -0.0715  -0.0165   0.0787   0.3187
     0.3654   0.5518   0.5820   0.8735   1.0790   1.1016   1.2987   1.4039
     1.4788   1.5164   1.7205   2.1184   2.1559   2.4794   2.5799   2.6534
     2.7516   2.7791   2.9176   2.9559   3.0592   3.1668

          k = 0.0306-0.0700 0.0000 ( 29561 PWs)   bands (ev):

   -65.8531 -65.7902 -65.4560 -65.4146 -65.3936 -65.3524 -37.9813 -37.8619
   -37.7915 -37.7505 -37.6839 -37.5659 -37.5242 -37.4029 -37.3721 -37.3275
   -37.3105 -37.3089 -37.2645 -37.2476 -37.1738 -37.1176 -36.9948 -36.9553
    -5.7095  -4.4726  -4.1180  -4.0163  -3.9290  -3.8131  -3.6784  -3.5123
    -3.5104  -3.4568  -3.3199  -3.1945  -2.7312  -2.7203  -2.5354  -2.2421
    -2.1370  -2.0880  -1.8883  -1.8229  -1.6535  -1.3055  -1.2820  -1.2555
    -0.9913  -0.8823  -0.7934  -0.6793  -0.6219  -0.5957  -0.5547  -0.4054
    -0.2297  -0.1340   0.0568   0.1091   0.1597   0.2172   0.3184   0.5474
     0.6214   0.6458   0.7591   0.8072   0.9093   1.3482   1.3840   1.4768
     1.5171   1.7610   1.7678   2.2734   2.3516   2.5686   2.5945   2.7147
     2.8896   2.9823   3.0353   3.1062   3.1965   3.5114

          k = 0.0306-0.0525 0.0000 ( 29559 PWs)   bands (ev):

   -65.8533 -65.7903 -65.4561 -65.4148 -65.3936 -65.3524 -37.9802 -37.8605
   -37.7908 -37.7483 -37.6834 -37.5650 -37.5232 -37.4028 -37.3711 -37.3267
   -37.3094 -37.3082 -37.2640 -37.2470 -37.1732 -37.1173 -36.9946 -36.9551
    -6.0335  -4.5355  -4.3485  -4.2740  -4.1330  -4.0321  -3.9159  -3.7398
    -3.7077  -3.6422  -3.5609  -3.4029  -2.9820  -2.8811  -2.6725  -2.2979
    -2.1229  -2.0185  -1.8250  -1.7376  -1.4606  -1.2876  -1.1970  -1.1092
    -1.0946  -0.9225  -0.6177  -0.6091  -0.5635  -0.5317  -0.5220  -0.2818
    -0.2199  -0.1193   0.1646   0.2727   0.4294   0.5030   0.6178   0.7620
     0.9002   0.9563   1.0921   1.1154   1.2491   1.3686   1.4619   1.4937
     1.9807   2.0625   2.1342   2.4391   2.4696   2.6499   2.6570   2.8599
     2.9150   3.0805   3.1041   3.2309   3.4218   3.6515

          k = 0.0306-0.0350 0.0000 ( 29532 PWs)   bands (ev):

   -65.8534 -65.7903 -65.4562 -65.4149 -65.3937 -65.3525 -37.9790 -37.8591
   -37.7902 -37.7461 -37.6828 -37.5641 -37.5221 -37.4027 -37.3701 -37.3260
   -37.3082 -37.3074 -37.2635 -37.2464 -37.1726 -37.1170 -36.9945 -36.9550
    -6.2969  -4.6526  -4.5251  -4.4973  -4.3345  -4.2122  -4.1124  -3.9388
    -3.8844  -3.7403  -3.7149  -3.5874  -3.2094  -3.0174  -2.9598  -2.2842
    -2.1294  -1.9543  -1.6866  -1.6239  -1.4028  -1.2984  -1.1452  -1.1337
    -1.0352  -1.0213  -0.6878  -0.5479  -0.5436  -0.4268  -0.3933  -0.3484
    -0.0030   0.0159   0.0886   0.3488   0.6341   0.7459   0.8552   1.0290
     1.0651   1.1855   1.4142   1.4717   1.5003   1.6559   1.7360   1.9377
     2.3208   2.3704   2.4346   2.5847   2.5957   2.8271   2.8459   2.8922
     3.0769   3.1776   3.2391   3.4020   3.4168   3.6363

          k = 0.0306-0.0175 0.0000 ( 29574 PWs)   bands (ev):

   -65.8535 -65.7903 -65.4562 -65.4149 -65.3937 -65.3525 -37.9782 -37.8580
   -37.7897 -37.7445 -37.6824 -37.5634 -37.5214 -37.4026 -37.3695 -37.3255
   -37.3071 -37.3069 -37.2632 -37.2459 -37.1722 -37.1168 -36.9944 -36.9549
    -6.4660  -4.7605  -4.6410  -4.6177  -4.4965  -4.3225  -4.2435  -4.0588
    -3.9890  -3.7990  -3.7983  -3.7146  -3.3276  -3.1926  -3.1054  -2.2652
    -2.1609  -1.9248  -1.6075  -1.4964  -1.4601  -1.3399  -1.1829  -1.0649
    -1.0169  -0.9935  -0.7487  -0.5968  -0.5707  -0.4104  -0.3380  -0.2536
    -0.0187   0.1440   0.1508   0.4675   0.8381   0.8626   1.0834   1.1748
     1.1891   1.3139   1.4680   1.5482   1.7060   1.9703   2.1666   2.2555
     2.3821   2.5205   2.7130   2.7319   2.8879   2.9075   3.0260   3.0582
     3.2315   3.2823   3.3177   3.4275   3.5137   3.7660

          k = 0.0306-0.0000 0.0000 ( 29598 PWs)   bands (ev):

   -65.8535 -65.7903 -65.4563 -65.4150 -65.3937 -65.3525 -37.9779 -37.8576
   -37.7895 -37.7439 -37.6823 -37.5631 -37.5211 -37.4025 -37.3693 -37.3254
   -37.3068 -37.3067 -37.2631 -37.2457 -37.1721 -37.1167 -36.9944 -36.9549
    -6.5240  -4.8031  -4.6901  -4.6331  -4.5709  -4.3589  -4.2885  -4.0984
    -4.0235  -3.8239  -3.8187  -3.7606  -3.3363  -3.3053  -3.1354  -2.2598
    -2.1740  -1.9161  -1.5853  -1.4923  -1.4426  -1.3563  -1.2019  -1.0817
    -1.0184  -0.8919  -0.7646  -0.6598  -0.5892  -0.4194  -0.3237  -0.1986
    -0.0460   0.1929   0.1994   0.5170   0.9103   0.9440   1.1401   1.1756
     1.2184   1.4424   1.4955   1.5500   1.7719   2.0835   2.2484   2.3534
     2.4521   2.6002   2.6274   2.8650   2.9795   3.0213   3.0944   3.1700
     3.2909   3.2946   3.3058   3.5161   3.6832   3.8116

          k = 0.0459 0.0263 0.0000 ( 29570 PWs)   bands (ev):

   -65.8477 -65.7961 -65.4505 -65.4092 -65.3994 -65.3582 -37.9273 -37.8524
   -37.7966 -37.7396 -37.6889 -37.5129 -37.4712 -37.4574 -37.3642 -37.3202
   -37.3131 -37.3021 -37.2693 -37.2521 -37.1674 -37.1222 -37.0485 -37.0088
    -6.1616  -4.5590  -4.4608  -4.3466  -4.2922  -4.0836  -4.0793  -3.8607
    -3.8146  -3.6838  -3.6280  -3.5511  -3.1853  -2.9045  -2.8403  -2.2260
    -2.1811  -1.9049  -1.7754  -1.6109  -1.4367  -1.2836  -1.2128  -1.2013
    -1.0939  -1.0862  -0.6537  -0.6317  -0.5850  -0.4133  -0.3558  -0.2695
    -0.1832   0.0011   0.2014   0.2341   0.4726   0.6269   0.8059   0.9717
     1.0175   1.1555   1.1694   1.3577   1.4623   1.4840   1.4942   1.9032
     2.1774   2.2190   2.3703   2.5284   2.5489   2.7120   2.8037   2.9367
     2.9454   3.1061   3.2663   3.3013   3.3261   3.3681

          k = 0.0459 0.0438 0.0000 ( 29579 PWs)   bands (ev):

   -65.8476 -65.7961 -65.4504 -65.4091 -65.3994 -65.3582 -37.9282 -37.8535
   -37.7970 -37.7414 -37.6892 -37.5137 -37.4720 -37.4574 -37.3649 -37.3207
   -37.3136 -37.3032 -37.2696 -37.2525 -37.1679 -37.1224 -37.0485 -37.0088
    -5.9523  -4.4818  -4.3367  -4.1908  -4.1272  -3.9332  -3.9317  -3.6925
    -3.6841  -3.5763  -3.5607  -3.3873  -3.0447  -2.7423  -2.6553  -2.2529
    -2.1593  -1.9368  -1.9084  -1.7479  -1.4638  -1.3682  -1.2523  -1.1534
    -1.0653  -1.0293  -0.6268  -0.6267  -0.5757  -0.5387  -0.4684  -0.2578
    -0.2373  -0.0851   0.1458   0.2334   0.2664   0.5688   0.5956   0.7597
     0.8795   0.8900   0.9148   1.1230   1.3233   1.3454   1.4067   1.4418
     2.0086   2.0541   2.1286   2.3233   2.3502   2.5464   2.5931   2.8005
     2.9918   3.0019   3.1453   3.1498   3.3697   3.5283

          k = 0.0459 0.0613 0.0000 ( 29603 PWs)   bands (ev):

   -65.8475 -65.7961 -65.4503 -65.4090 -65.3994 -65.3582 -37.9292 -37.8548
   -37.7975 -37.7434 -37.6895 -37.5146 -37.4730 -37.4574 -37.3657 -37.3213
   -37.3142 -37.3042 -37.2700 -37.2530 -37.1684 -37.1226 -37.0485 -37.0088
    -5.6633  -4.3437  -4.2435  -3.9731  -3.9338  -3.7398  -3.7242  -3.5071
    -3.4890  -3.4479  -3.3515  -3.1911  -2.8055  -2.6252  -2.5784  -2.2189
    -2.0998  -2.0114  -2.0007  -1.8773  -1.5922  -1.5027  -1.3145  -1.2288
    -0.9677  -0.9617  -0.7408  -0.7330  -0.6326  -0.6268  -0.5439  -0.3902
    -0.2345  -0.0748  -0.0062   0.0663   0.1959   0.2714   0.3768   0.5215
     0.5496   0.6213   0.7982   0.9196   1.0033   1.2877   1.3833   1.4493
     1.5323   1.7943   1.7996   2.3410   2.3736   2.4004   2.5426   2.6936
     2.9411   2.9550   3.0379   3.1416   3.3624   3.4171

          k = 0.0459 0.0788 0.0000 ( 29595 PWs)   bands (ev):

   -65.8474 -65.7961 -65.4502 -65.4089 -65.3993 -65.3582 -37.9301 -37.8559
   -37.7979 -37.7451 -37.6898 -37.5153 -37.4738 -37.4574 -37.3665 -37.3219
   -37.3148 -37.3051 -37.2704 -37.2534 -37.1688 -37.1228 -37.0485 -37.0088
    -5.3369  -4.2424  -4.1852  -3.7446  -3.7399  -3.5074  -3.5023  -3.3033
    -3.3033  -3.2472  -3.1060  -2.9684  -2.7476  -2.5712  -2.4550  -2.3800
    -2.1194  -2.1183  -1.9530  -1.8743  -1.6459  -1.5583  -1.3884  -1.3398
    -1.0865  -0.9575  -0.8996  -0.8206  -0.7824  -0.7511  -0.5397  -0.4767
    -0.4331  -0.3112  -0.1362  -0.0373  -0.0367   0.0707   0.1078   0.2589
     0.3993   0.5577   0.7284   0.8721   1.1403   1.1799   1.3614   1.3954
     1.4041   1.5492   1.7855   2.2149   2.2889   2.4302   2.6079   2.6114
     2.8654   2.8869   2.9611   3.0424   3.1974   3.4197

          k = 0.0459 0.0963 0.0000 ( 29573 PWs)   bands (ev):

   -65.8473 -65.7960 -65.4502 -65.4089 -65.3993 -65.3581 -37.9307 -37.8566
   -37.7982 -37.7461 -37.6899 -37.5157 -37.4743 -37.4574 -37.3670 -37.3223
   -37.3151 -37.3055 -37.2706 -37.2536 -37.1691 -37.1229 -37.0485 -37.0088
    -5.0708  -4.3210  -4.0745  -3.6021  -3.5984  -3.3225  -3.2828  -3.2010
    -3.0929  -3.0428  -2.9650  -2.9167  -2.6996  -2.6375  -2.5730  -2.4254
    -2.2586  -2.1565  -1.9120  -1.6619  -1.5125  -1.4647  -1.4283  -1.4131
    -1.2606  -1.2079  -1.1127  -1.0196  -0.8805  -0.8476  -0.7526  -0.5410
    -0.4511  -0.3211  -0.2751  -0.1796  -0.0701  -0.0673   0.0474   0.1870
     0.2925   0.5034   0.6630   0.9865   1.1116   1.2256   1.3252   1.3606
     1.4673   1.4885   1.9786   2.0858   2.3634   2.4637   2.5667   2.6257
     2.7827   2.8399   2.8662   2.9441   2.9612   3.0598

          k = 0.0459 0.1138 0.0000 ( 29573 PWs)   bands (ev):

   -65.8473 -65.7960 -65.4502 -65.4089 -65.3993 -65.3581 -37.9307 -37.8566
   -37.7982 -37.7461 -37.6899 -37.5157 -37.4743 -37.4574 -37.3670 -37.3223
   -37.3151 -37.3055 -37.2706 -37.2536 -37.1691 -37.1229 -37.0485 -37.0088
    -5.0708  -4.3210  -4.0745  -3.6021  -3.5984  -3.3225  -3.2828  -3.2010
    -3.0929  -3.0428  -2.9650  -2.9167  -2.6996  -2.6375  -2.5730  -2.4254
    -2.2586  -2.1565  -1.9120  -1.6619  -1.5125  -1.4647  -1.4283  -1.4131
    -1.2606  -1.2079  -1.1127  -1.0196  -0.8805  -0.8476  -0.7526  -0.5410
    -0.4511  -0.3211  -0.2751  -0.1796  -0.0701  -0.0673   0.0474   0.1870
     0.2925   0.5034   0.6630   0.9865   1.1116   1.2256   1.3252   1.3606
     1.4673   1.4885   1.9786   2.0858   2.3634   2.4637   2.5667   2.6257
     2.7827   2.8399   2.8662   2.9441   2.9612   3.0598

          k = 0.0459-0.0788 0.0000 ( 29595 PWs)   bands (ev):

   -65.8474 -65.7961 -65.4502 -65.4089 -65.3993 -65.3582 -37.9301 -37.8559
   -37.7979 -37.7451 -37.6898 -37.5153 -37.4738 -37.4574 -37.3665 -37.3219
   -37.3148 -37.3051 -37.2704 -37.2534 -37.1688 -37.1228 -37.0485 -37.0088
    -5.3369  -4.2424  -4.1852  -3.7446  -3.7399  -3.5074  -3.5023  -3.3033
    -3.3033  -3.2472  -3.1060  -2.9684  -2.7476  -2.5712  -2.4550  -2.3800
    -2.1194  -2.1183  -1.9530  -1.8743  -1.6459  -1.5583  -1.3884  -1.3398
    -1.0865  -0.9575  -0.8996  -0.8206  -0.7824  -0.7511  -0.5397  -0.4767
    -0.4331  -0.3112  -0.1362  -0.0373  -0.0367   0.0707   0.1078   0.2589
     0.3993   0.5577   0.7284   0.8721   1.1403   1.1799   1.3614   1.3954
     1.4041   1.5492   1.7855   2.2149   2.2889   2.4302   2.6079   2.6114
     2.8654   2.8869   2.9611   3.0424   3.1974   3.4197

          k = 0.0459-0.0613 0.0000 ( 29603 PWs)   bands (ev):

   -65.8475 -65.7961 -65.4503 -65.4090 -65.3994 -65.3582 -37.9292 -37.8548
   -37.7975 -37.7434 -37.6895 -37.5146 -37.4730 -37.4574 -37.3657 -37.3213
   -37.3142 -37.3042 -37.2700 -37.2530 -37.1684 -37.1226 -37.0485 -37.0088
    -5.6633  -4.3437  -4.2435  -3.9731  -3.9338  -3.7398  -3.7242  -3.5071
    -3.4890  -3.4479  -3.3515  -3.1911  -2.8055  -2.6252  -2.5784  -2.2189
    -2.0998  -2.0114  -2.0007  -1.8773  -1.5922  -1.5027  -1.3145  -1.2288
    -0.9677  -0.9617  -0.7408  -0.7330  -0.6326  -0.6268  -0.5439  -0.3902
    -0.2345  -0.0748  -0.0062   0.0663   0.1959   0.2714   0.3768   0.5215
     0.5496   0.6213   0.7982   0.9196   1.0033   1.2877   1.3833   1.4493
     1.5323   1.7943   1.7996   2.3410   2.3736   2.4004   2.5426   2.6936
     2.9411   2.9550   3.0379   3.1416   3.3623   3.4171

          k = 0.0459-0.0438 0.0000 ( 29579 PWs)   bands (ev):

   -65.8476 -65.7961 -65.4504 -65.4091 -65.3994 -65.3582 -37.9282 -37.8535
   -37.7970 -37.7414 -37.6892 -37.5137 -37.4720 -37.4574 -37.3649 -37.3207
   -37.3136 -37.3032 -37.2696 -37.2525 -37.1679 -37.1224 -37.0485 -37.0088
    -5.9523  -4.4818  -4.3367  -4.1908  -4.1272  -3.9332  -3.9317  -3.6925
    -3.6841  -3.5763  -3.5607  -3.3873  -3.0447  -2.7423  -2.6553  -2.2529
    -2.1593  -1.9368  -1.9084  -1.7479  -1.4638  -1.3682  -1.2523  -1.1534
    -1.0653  -1.0293  -0.6268  -0.6267  -0.5757  -0.5387  -0.4684  -0.2578
    -0.2373  -0.0851   0.1458   0.2334   0.2664   0.5688   0.5956   0.7597
     0.8795   0.8900   0.9148   1.1230   1.3233   1.3454   1.4067   1.4418
     2.0086   2.0541   2.1286   2.3233   2.3502   2.5464   2.5931   2.8005
     2.9918   3.0019   3.1453   3.1498   3.3697   3.5283

          k = 0.0459-0.0263 0.0000 ( 29570 PWs)   bands (ev):

   -65.8477 -65.7961 -65.4505 -65.4092 -65.3994 -65.3582 -37.9273 -37.8524
   -37.7966 -37.7396 -37.6889 -37.5129 -37.4712 -37.4574 -37.3642 -37.3202
   -37.3131 -37.3021 -37.2693 -37.2521 -37.1674 -37.1222 -37.0485 -37.0088
    -6.1616  -4.5590  -4.4608  -4.3466  -4.2922  -4.0836  -4.0793  -3.8607
    -3.8146  -3.6838  -3.6280  -3.5511  -3.1853  -2.9045  -2.8403  -2.2260
    -2.1811  -1.9049  -1.7754  -1.6109  -1.4367  -1.2836  -1.2128  -1.2013
    -1.0939  -1.0862  -0.6537  -0.6317  -0.5850  -0.4133  -0.3558  -0.2695
    -0.1832   0.0011   0.2014   0.2341   0.4726   0.6269   0.8059   0.9717
     1.0175   1.1555   1.1694   1.3577   1.4623   1.4840   1.4942   1.9032
     2.1774   2.2190   2.3703   2.5284   2.5489   2.7120   2.8037   2.9367
     2.9454   3.1061   3.2663   3.3013   3.3261   3.3689

          k = 0.0459-0.0088 0.0000 ( 29610 PWs)   bands (ev):

   -65.8478 -65.7961 -65.4505 -65.4093 -65.3994 -65.3582 -37.9267 -37.8518
   -37.7964 -37.7386 -37.6888 -37.5125 -37.4707 -37.4574 -37.3638 -37.3199
   -37.3128 -37.3015 -37.2691 -37.2519 -37.1672 -37.1221 -37.0485 -37.0088
    -6.2707  -4.5685  -4.5402  -4.4294  -4.4137  -4.1666  -4.1522  -3.9466
    -3.8746  -3.7273  -3.6606  -3.6486  -3.2102  -3.1028  -2.8932  -2.2013
    -2.1987  -1.8945  -1.6859  -1.4982  -1.4717  -1.3386  -1.2266  -1.2192
    -1.1200  -0.9425  -0.7737  -0.6514  -0.6074  -0.4336  -0.2619  -0.2162
    -0.1561   0.0530   0.1991   0.2817   0.6068   0.7183   0.9589   1.0190
     1.0506   1.3052   1.3215   1.3995   1.4995   1.5024   1.7504   2.1596
     2.2559   2.2656   2.5033   2.6818   2.7657   2.8667   2.8798   2.9036
     3.0587   3.1637   3.2221   3.3601   3.4136   3.5765

          k = 0.0459 0.0088 0.0000 ( 29610 PWs)   bands (ev):

   -65.8478 -65.7961 -65.4505 -65.4093 -65.3994 -65.3582 -37.9267 -37.8518
   -37.7964 -37.7386 -37.6888 -37.5125 -37.4707 -37.4574 -37.3638 -37.3199
   -37.3128 -37.3015 -37.2691 -37.2519 -37.1672 -37.1221 -37.0485 -37.0088
    -6.2707  -4.5685  -4.5402  -4.4294  -4.4137  -4.1666  -4.1522  -3.9466
    -3.8746  -3.7273  -3.6606  -3.6486  -3.2102  -3.1028  -2.8932  -2.2013
    -2.1987  -1.8945  -1.6859  -1.4982  -1.4717  -1.3386  -1.2266  -1.2192
    -1.1200  -0.9425  -0.7737  -0.6514  -0.6074  -0.4336  -0.2619  -0.2162
    -0.1561   0.0530   0.1991   0.2817   0.6068   0.7183   0.9589   1.0190
     1.0506   1.3052   1.3215   1.3995   1.4995   1.5024   1.7504   2.1596
     2.2559   2.2656   2.5033   2.6818   2.7657   2.8667   2.8798   2.9036
     3.0587   3.1637   3.2221   3.3601   3.4136   3.5765

          k = 0.0612 0.0350 0.0000 ( 29606 PWs)   bands (ev):

   -65.8401 -65.8036 -65.4430 -65.4069 -65.4017 -65.3657 -37.8604 -37.8449
   -37.8054 -37.7330 -37.6972 -37.5281 -37.4467 -37.4053 -37.3572 -37.3210
   -37.3131 -37.2954 -37.2771 -37.2600 -37.1611 -37.1291 -37.1183 -37.0783
    -5.7727  -4.5562  -4.1058  -4.0756  -4.0014  -3.8795  -3.7992  -3.5815
    -3.5815  -3.5414  -3.4173  -3.3520  -2.9991  -2.5845  -2.5516  -2.2095
    -2.1802  -2.0283  -1.8918  -1.8026  -1.5527  -1.5465  -1.2204  -1.1916
    -1.0818  -0.9821  -0.6983  -0.6935  -0.6658  -0.6295  -0.4138  -0.2808
    -0.2498  -0.0701   0.0331   0.1375   0.2415   0.3207   0.5732   0.6498
     0.7390   0.7624   0.8277   1.1000   1.2225   1.2943   1.3456   1.4789
     1.8206   2.0128   2.1079   2.2060   2.2147   2.4178   2.5287   2.6070
     2.7123   2.8216   2.8997   3.0520   3.3368   3.4633

          k = 0.0612 0.0525 0.0000 ( 29610 PWs)   bands (ev):

   -65.8400 -65.8037 -65.4429 -65.4069 -65.4017 -65.3657 -37.8612 -37.8459
   -37.8056 -37.7347 -37.6971 -37.5280 -37.4474 -37.4061 -37.3578 -37.3214
   -37.3135 -37.2963 -37.2773 -37.2602 -37.1615 -37.1292 -37.1182 -37.0782
    -5.5416  -4.5343  -3.9875  -3.9239  -3.8866  -3.7403  -3.6318  -3.4654
    -3.4412  -3.3439  -3.3418  -3.1807  -2.8457  -2.5312  -2.4768  -2.2436
    -2.0741  -2.0451  -1.9642  -1.9515  -1.6930  -1.6306  -1.2984  -1.1997
    -1.0055  -0.9041  -0.8040  -0.7607  -0.6645  -0.6542  -0.4693  -0.3339
    -0.2880  -0.1623  -0.0090   0.0527   0.0676   0.2492   0.3503   0.3701
     0.5106   0.5797   0.7983   0.9689   1.1145   1.2997   1.3028   1.4169
     1.5217   1.7733   1.8366   2.1802   2.2522   2.2856   2.4459   2.4973
     2.6479   2.8438   2.9364   2.9502   3.2256   3.4100

          k = 0.0612 0.0700 0.0000 ( 29583 PWs)   bands (ev):

   -65.8399 -65.8037 -65.4429 -65.4069 -65.4016 -65.3657 -37.8621 -37.8469
   -37.8058 -37.7363 -37.6971 -37.5278 -37.4482 -37.4069 -37.3584 -37.3218
   -37.3140 -37.2971 -37.2775 -37.2605 -37.1619 -37.1293 -37.1181 -37.0781
    -5.2487  -4.4760  -3.9548  -3.7299  -3.7176  -3.5689  -3.4277  -3.3106
    -3.2982  -3.2108  -3.1279  -2.9625  -2.6962  -2.5447  -2.4660  -2.3320
    -2.1655  -2.1409  -2.0214  -1.8997  -1.7707  -1.6048  -1.3858  -1.2589
    -1.1357  -0.8934  -0.8839  -0.8364  -0.8203  -0.7357  -0.5968  -0.3981
    -0.3736  -0.3553  -0.1920  -0.0841   0.0024   0.0805   0.1612   0.2273
     0.4322   0.5336   0.6297   1.0386   1.1730   1.1944   1.2960   1.4022
     1.4526   1.5877   1.7854   2.0789   2.2700   2.3394   2.4818   2.5030
     2.7050   2.8554   2.8927   2.8978   3.0844   3.2822

          k = 0.0612 0.0875 0.0000 ( 29591 PWs)   bands (ev):

   -65.8399 -65.8037 -65.4428 -65.4069 -65.4015 -65.3657 -37.8627 -37.8476
   -37.8060 -37.7374 -37.6971 -37.5277 -37.4487 -37.4075 -37.3589 -37.3221
   -37.3144 -37.2976 -37.2777 -37.2606 -37.1622 -37.1294 -37.1180 -37.0780
    -4.9474  -4.4146  -4.0389  -3.5463  -3.5407  -3.3575  -3.2252  -3.1366
    -3.1264  -3.0648  -3.0183  -2.9001  -2.6848  -2.6142  -2.4288  -2.3937
    -2.2732  -2.1853  -2.0418  -1.9573  -1.6947  -1.4718  -1.3946  -1.3644
    -1.3028  -1.1915  -1.1816  -0.9804  -0.8937  -0.8027  -0.7114  -0.5740
    -0.3897  -0.3723  -0.2313  -0.1964  -0.1285  -0.0254   0.0986   0.1752
     0.3693   0.3975   0.8405   1.0143   1.0244   1.2536   1.2820   1.4243
     1.5051   1.7119   1.9546   2.0082   2.3458   2.4666   2.4706   2.6628
     2.7473   2.8204   2.8231   2.9206   2.9749   3.1227

          k = 0.0612 0.1050 0.0000 ( 29604 PWs)   bands (ev):

   -65.8398 -65.8037 -65.4428 -65.4069 -65.4015 -65.3657 -37.8629 -37.8479
   -37.8061 -37.7379 -37.6971 -37.5277 -37.4489 -37.4077 -37.3591 -37.3222
   -37.3145 -37.2978 -37.2778 -37.2607 -37.1623 -37.1294 -37.1180 -37.0780
    -4.7879  -4.3882  -4.1226  -3.4721  -3.4518  -3.2190  -3.1238  -3.0437
    -3.0258  -2.9911  -2.9438  -2.9101  -2.7995  -2.7984  -2.4765  -2.3392
    -2.3024  -2.2027  -1.8586  -1.8267  -1.5888  -1.5687  -1.5248  -1.4775
    -1.4659  -1.3589  -1.2983  -1.0406  -0.8994  -0.8055  -0.6850  -0.5592
    -0.4598  -0.4081  -0.3739  -0.1264  -0.1108   0.0068   0.0482   0.0560
     0.3493   0.4115   0.7721   1.0483   1.1480   1.1806   1.2875   1.5352
     1.5429   1.6281   1.8846   2.3484   2.3833   2.4540   2.6530   2.7434
     2.8313   2.8350   2.8678   2.9410   2.9473   3.0408

          k = 0.0612 0.1225 0.0000 ( 29591 PWs)   bands (ev):

   -65.8399 -65.8037 -65.4428 -65.4069 -65.4015 -65.3657 -37.8627 -37.8476
   -37.8060 -37.7374 -37.6971 -37.5277 -37.4487 -37.4075 -37.3589 -37.3221
   -37.3144 -37.2976 -37.2777 -37.2606 -37.1622 -37.1294 -37.1180 -37.0780
    -4.9474  -4.4146  -4.0389  -3.5463  -3.5407  -3.3575  -3.2252  -3.1366
    -3.1264  -3.0648  -3.0183  -2.9001  -2.6848  -2.6142  -2.4288  -2.3937
    -2.2732  -2.1853  -2.0418  -1.9573  -1.6947  -1.4718  -1.3946  -1.3644
    -1.3028  -1.1915  -1.1816  -0.9804  -0.8937  -0.8027  -0.7114  -0.5740
    -0.3897  -0.3723  -0.2313  -0.1964  -0.1285  -0.0254   0.0986   0.1752
     0.3693   0.3975   0.8405   1.0143   1.0244   1.2536   1.2820   1.4243
     1.5051   1.7119   1.9546   2.0082   2.3458   2.4666   2.4706   2.6628
     2.7473   2.8204   2.8231   2.9206   2.9749   3.1226

          k = 0.0612-0.0700 0.0000 ( 29583 PWs)   bands (ev):

   -65.8399 -65.8037 -65.4429 -65.4069 -65.4016 -65.3657 -37.8621 -37.8469
   -37.8058 -37.7363 -37.6971 -37.5278 -37.4482 -37.4069 -37.3584 -37.3218
   -37.3140 -37.2971 -37.2775 -37.2605 -37.1619 -37.1293 -37.1181 -37.0781
    -5.2487  -4.4760  -3.9548  -3.7299  -3.7176  -3.5689  -3.4277  -3.3106
    -3.2982  -3.2108  -3.1279  -2.9625  -2.6962  -2.5447  -2.4660  -2.3320
    -2.1655  -2.1409  -2.0214  -1.8997  -1.7707  -1.6048  -1.3858  -1.2589
    -1.1357  -0.8934  -0.8839  -0.8364  -0.8203  -0.7357  -0.5968  -0.3981
    -0.3736  -0.3553  -0.1920  -0.0841   0.0024   0.0805   0.1612   0.2273
     0.4322   0.5336   0.6297   1.0386   1.1730   1.1944   1.2960   1.4022
     1.4526   1.5877   1.7854   2.0789   2.2700   2.3394   2.4818   2.5030
     2.7050   2.8554   2.8927   2.8978   3.0844   3.2821

          k = 0.0612-0.0525 0.0000 ( 29610 PWs)   bands (ev):

   -65.8400 -65.8037 -65.4429 -65.4069 -65.4017 -65.3657 -37.8612 -37.8459
   -37.8056 -37.7347 -37.6971 -37.5280 -37.4474 -37.4061 -37.3578 -37.3214
   -37.3135 -37.2963 -37.2773 -37.2602 -37.1615 -37.1292 -37.1182 -37.0782
    -5.5416  -4.5343  -3.9875  -3.9239  -3.8866  -3.7403  -3.6318  -3.4654
    -3.4412  -3.3439  -3.3418  -3.1807  -2.8457  -2.5312  -2.4768  -2.2436
    -2.0741  -2.0451  -1.9642  -1.9515  -1.6930  -1.6306  -1.2984  -1.1997
    -1.0055  -0.9041  -0.8040  -0.7607  -0.6645  -0.6542  -0.4693  -0.3339
    -0.2880  -0.1623  -0.0090   0.0527   0.0676   0.2492   0.3503   0.3701
     0.5106   0.5797   0.7983   0.9689   1.1145   1.2997   1.3028   1.4169
     1.5217   1.7733   1.8366   2.1802   2.2522   2.2856   2.4459   2.4973
     2.6479   2.8438   2.9364   2.9502   3.2256   3.4100

          k = 0.0612-0.0350 0.0000 ( 29606 PWs)   bands (ev):

   -65.8401 -65.8036 -65.4430 -65.4069 -65.4017 -65.3657 -37.8604 -37.8449
   -37.8054 -37.7330 -37.6972 -37.5281 -37.4467 -37.4053 -37.3572 -37.3210
   -37.3131 -37.2954 -37.2771 -37.2600 -37.1611 -37.1291 -37.1183 -37.0783
    -5.7727  -4.5562  -4.1058  -4.0756  -4.0014  -3.8795  -3.7992  -3.5815
    -3.5815  -3.5414  -3.4173  -3.3520  -2.9991  -2.5845  -2.5516  -2.2095
    -2.1802  -2.0283  -1.8918  -1.8026  -1.5527  -1.5465  -1.2204  -1.1916
    -1.0818  -0.9821  -0.6983  -0.6935  -0.6658  -0.6295  -0.4138  -0.2808
    -0.2498  -0.0701   0.0331   0.1375   0.2415   0.3207   0.5732   0.6498
     0.7390   0.7624   0.8277   1.1000   1.2225   1.2943   1.3456   1.4789
     1.8206   2.0128   2.1079   2.2060   2.2147   2.4179   2.5287   2.6070
     2.7123   2.8216   2.8997   3.0520   3.3368   3.4634

          k = 0.0612-0.0175 0.0000 ( 29603 PWs)   bands (ev):

   -65.8402 -65.8036 -65.4431 -65.4069 -65.4018 -65.3657 -37.8597 -37.8441
   -37.8053 -37.7318 -37.6972 -37.5282 -37.4462 -37.4047 -37.3568 -37.3208
   -37.3128 -37.2948 -37.2769 -37.2599 -37.1608 -37.1290 -37.1184 -37.0784
    -5.9185  -4.5300  -4.1958  -4.1946  -4.0878  -3.9856  -3.9049  -3.7244
    -3.6471  -3.5989  -3.4857  -3.4533  -3.0442  -2.7922  -2.6112  -2.2330
    -2.1580  -1.9520  -1.8754  -1.6589  -1.5075  -1.4494  -1.2397  -1.1968
    -1.1679  -1.0098  -0.7802  -0.6880  -0.6296  -0.5937  -0.4256  -0.2463
    -0.2334  -0.0484   0.0720   0.2325   0.4358   0.4763   0.5201   0.7894
     0.7988   0.9393   1.1117   1.1539   1.2591   1.3585   1.4972   1.5441
     1.8746   2.1900   2.2459   2.3259   2.4778   2.5567   2.6354   2.7395
     2.7821   2.9306   3.0719   3.2820   3.3871   3.4885

          k = 0.0612 0.0000 0.0000 ( 29624 PWs)   bands (ev):

   -65.8402 -65.8036 -65.4431 -65.4069 -65.4018 -65.3657 -37.8595 -37.8439
   -37.8052 -37.7314 -37.6972 -37.5283 -37.4460 -37.4045 -37.3567 -37.3207
   -37.3127 -37.2945 -37.2768 -37.2598 -37.1607 -37.1290 -37.1184 -37.0784
    -5.9682  -4.4964  -4.2614  -4.2265  -4.1219  -4.0235  -3.9400  -3.7678
    -3.6686  -3.6100  -3.5437  -3.4641  -3.0023  -2.9337  -2.6328  -2.2450
    -2.1358  -1.9218  -1.8767  -1.5737  -1.5057  -1.4177  -1.3124  -1.2268
    -1.1352  -0.9825  -0.8613  -0.6941  -0.6457  -0.5646  -0.4345  -0.2189
    -0.1999  -0.1041   0.1254   0.2907   0.4785   0.5286   0.5493   0.7570
     0.8493   1.0220   1.1868   1.2363   1.2689   1.3386   1.5405   1.5642
     1.8844   2.2828   2.3048   2.4038   2.5735   2.5928   2.7003   2.7361
     2.7510   3.0975   3.1889   3.3313   3.3694   3.5019

          k = 0.0612 0.0175 0.0000 ( 29603 PWs)   bands (ev):

   -65.8402 -65.8036 -65.4431 -65.4069 -65.4018 -65.3657 -37.8597 -37.8441
   -37.8053 -37.7318 -37.6972 -37.5282 -37.4462 -37.4047 -37.3568 -37.3208
   -37.3128 -37.2948 -37.2769 -37.2599 -37.1608 -37.1290 -37.1184 -37.0784
    -5.9185  -4.5300  -4.1958  -4.1946  -4.0878  -3.9856  -3.9049  -3.7244
    -3.6471  -3.5989  -3.4857  -3.4533  -3.0442  -2.7922  -2.6112  -2.2330
    -2.1580  -1.9520  -1.8754  -1.6589  -1.5075  -1.4494  -1.2397  -1.1968
    -1.1679  -1.0098  -0.7802  -0.6880  -0.6296  -0.5937  -0.4256  -0.2463
    -0.2334  -0.0484   0.0720   0.2325   0.4358   0.4763   0.5201   0.7894
     0.7988   0.9393   1.1117   1.1539   1.2591   1.3585   1.4972   1.5441
     1.8746   2.1900   2.2459   2.3259   2.4777   2.5567   2.6353   2.7395
     2.7820   2.9306   3.0719   3.2822   3.3871   3.4884

          k = 0.0765 0.0438 0.0000 ( 29604 PWs)   bands (ev):

   -65.8313 -65.8124 -65.4343 -65.4156 -65.3930 -65.3744 -37.8358 -37.8155
   -37.7816 -37.7250 -37.7064 -37.6096 -37.3690 -37.3489 -37.3305 -37.3275
   -37.3047 -37.2874 -37.2859 -37.2689 -37.1988 -37.1586 -37.1535 -37.1370
    -5.3465  -4.6777  -3.8896  -3.8536  -3.6793  -3.6450  -3.5743  -3.4112
    -3.3315  -3.2916  -3.1816  -3.1397  -2.7854  -2.4748  -2.4564  -2.3518
    -2.0575  -2.0440  -1.9509  -1.9412  -1.7991  -1.7185  -1.2468  -1.1981
    -0.9813  -0.9020  -0.8874  -0.7884  -0.7171  -0.6392  -0.5888  -0.5218
    -0.4588  -0.2084  -0.1493  -0.0117   0.1034   0.2243   0.3036   0.3164
     0.5228   0.6344   0.7362   1.0593   1.1556   1.1568   1.3083   1.4133
     1.5446   1.6319   1.9216   1.9751   2.0823   2.1685   2.1837   2.3910
     2.4231   2.4627   2.8908   2.9411   3.3682   3.4229

          k = 0.0765 0.0613 0.0000 ( 29609 PWs)   bands (ev):

   -65.8312 -65.8125 -65.4342 -65.4156 -65.3930 -65.3744 -37.8366 -37.8154
   -37.7823 -37.7263 -37.7059 -37.6093 -37.3696 -37.3493 -37.3308 -37.3280
   -37.3050 -37.2880 -37.2860 -37.2689 -37.1985 -37.1582 -37.1538 -37.1370
    -5.1235  -4.7378  -3.8001  -3.7630  -3.6228  -3.5764  -3.4599  -3.3144
    -3.2417  -3.1783  -3.1078  -2.9406  -2.6525  -2.5306  -2.5021  -2.4192
    -2.2032  -2.1402  -1.9282  -1.8971  -1.8362  -1.5990  -1.2603  -1.2410
    -1.0938  -0.9562  -0.9315  -0.8162  -0.7893  -0.7217  -0.6340  -0.6230
    -0.3322  -0.2517  -0.1578  -0.1291  -0.0078   0.0517   0.1695   0.2582
     0.5226   0.5259   0.6334   1.0820   1.1393   1.2282   1.2359   1.4605
     1.5314   1.5682   1.8243   1.8628   2.0608   2.1223   2.2821   2.3793
     2.3836   2.4336   2.8749   2.9060   3.2847   3.3809

          k = 0.0765 0.0788 0.0000 ( 29599 PWs)   bands (ev):

   -65.8312 -65.8125 -65.4342 -65.4156 -65.3929 -65.3744 -37.8372 -37.8153
   -37.7829 -37.7274 -37.7056 -37.6090 -37.3701 -37.3496 -37.3312 -37.3283
   -37.3053 -37.2884 -37.2860 -37.2689 -37.1983 -37.1580 -37.1541 -37.1370
    -4.8601  -4.7651  -3.8193  -3.5879  -3.5808  -3.4660  -3.3319  -3.2056
    -3.1575  -3.1082  -3.0138  -2.7958  -2.6827  -2.6603  -2.4717  -2.4010
    -2.2924  -2.2144  -1.9703  -1.8602  -1.8109  -1.4163  -1.3946  -1.2956
    -1.2752  -1.2228  -1.1216  -0.9644  -0.8901  -0.7347  -0.6666  -0.6392
    -0.3472  -0.2506  -0.1897  -0.1637  -0.0975  -0.0433   0.1174   0.2540
     0.3367   0.6193   0.8633   0.9473   1.0536   1.2452   1.2566   1.4437
     1.6108   1.7539   1.8365   1.9921   2.0444   2.2418   2.3630   2.4402
     2.5176   2.5560   2.7793   2.8579   3.1634   3.2592

          k = 0.0765 0.0963 0.0000 ( 29588 PWs)   bands (ev):

   -65.8311 -65.8125 -65.4342 -65.4156 -65.3929 -65.3744 -37.8376 -37.8153
   -37.7833 -37.7280 -37.7054 -37.6088 -37.3703 -37.3498 -37.3314 -37.3285
   -37.3054 -37.2887 -37.2861 -37.2689 -37.1982 -37.1578 -37.1543 -37.1370
    -4.7734  -4.6311  -3.9358  -3.5069  -3.4273  -3.3755  -3.2120  -3.1271
    -3.1231  -3.0439  -2.9868  -2.8871  -2.8138  -2.6217  -2.5944  -2.3453
    -2.1658  -2.0718  -1.9873  -1.9120  -1.7131  -1.5859  -1.5409  -1.4779
    -1.3688  -1.3126  -1.2793  -1.0507  -0.9335  -0.7538  -0.6080  -0.5983
    -0.4761  -0.3568  -0.1959  -0.1024  -0.0669  -0.0334   0.0922   0.2216
     0.2671   0.6642   0.9250   0.9601   1.1265   1.1502   1.2516   1.4945
     1.6825   1.7027   1.8991   2.0505   2.3431   2.3726   2.4829   2.5835
     2.6756   2.7107   2.8296   2.9466   3.0783   3.1334

          k = 0.0765 0.1138 0.0000 ( 29588 PWs)   bands (ev):

   -65.8311 -65.8125 -65.4342 -65.4156 -65.3929 -65.3744 -37.8376 -37.8153
   -37.7833 -37.7280 -37.7054 -37.6088 -37.3703 -37.3498 -37.3314 -37.3285
   -37.3054 -37.2887 -37.2861 -37.2689 -37.1982 -37.1578 -37.1543 -37.1370
    -4.7734  -4.6311  -3.9358  -3.5069  -3.4273  -3.3755  -3.2120  -3.1271
    -3.1231  -3.0439  -2.9868  -2.8871  -2.8138  -2.6217  -2.5944  -2.3453
    -2.1658  -2.0718  -1.9873  -1.9120  -1.7131  -1.5859  -1.5409  -1.4779
    -1.3688  -1.3126  -1.2793  -1.0507  -0.9335  -0.7538  -0.6080  -0.5983
    -0.4761  -0.3568  -0.1959  -0.1024  -0.0669  -0.0334   0.0922   0.2216
     0.2671   0.6642   0.9250   0.9601   1.1265   1.1502   1.2516   1.4945
     1.6825   1.7027   1.8991   2.0505   2.3431   2.3726   2.4829   2.5835
     2.6756   2.7107   2.8296   2.9466   3.0785   3.1331

          k = 0.0765 0.1313 0.0000 ( 29599 PWs)   bands (ev):

   -65.8312 -65.8125 -65.4342 -65.4156 -65.3929 -65.3744 -37.8372 -37.8153
   -37.7829 -37.7274 -37.7056 -37.6090 -37.3701 -37.3496 -37.3312 -37.3283
   -37.3053 -37.2884 -37.2860 -37.2689 -37.1983 -37.1580 -37.1541 -37.1370
    -4.8601  -4.7651  -3.8193  -3.5879  -3.5808  -3.4660  -3.3319  -3.2056
    -3.1575  -3.1082  -3.0138  -2.7958  -2.6827  -2.6603  -2.4717  -2.4010
    -2.2924  -2.2144  -1.9703  -1.8602  -1.8109  -1.4163  -1.3946  -1.2956
    -1.2752  -1.2228  -1.1216  -0.9644  -0.8901  -0.7347  -0.6666  -0.6392
    -0.3472  -0.2506  -0.1897  -0.1637  -0.0975  -0.0433   0.1174   0.2540
     0.3367   0.6193   0.8633   0.9473   1.0536   1.2452   1.2566   1.4437
     1.6108   1.7539   1.8365   1.9921   2.0444   2.2418   2.3630   2.4402
     2.5176   2.5560   2.7793   2.8579   3.1634   3.2592

          k = 0.0765-0.0613 0.0000 ( 29609 PWs)   bands (ev):

   -65.8312 -65.8125 -65.4342 -65.4156 -65.3930 -65.3744 -37.8366 -37.8154
   -37.7823 -37.7263 -37.7059 -37.6093 -37.3696 -37.3493 -37.3308 -37.3280
   -37.3050 -37.2880 -37.2860 -37.2689 -37.1985 -37.1582 -37.1538 -37.1370
    -5.1235  -4.7378  -3.8001  -3.7630  -3.6228  -3.5764  -3.4599  -3.3144
    -3.2417  -3.1783  -3.1078  -2.9406  -2.6525  -2.5306  -2.5021  -2.4192
    -2.2032  -2.1402  -1.9282  -1.8971  -1.8362  -1.5990  -1.2603  -1.2410
    -1.0938  -0.9562  -0.9315  -0.8162  -0.7893  -0.7217  -0.6340  -0.6230
    -0.3322  -0.2517  -0.1578  -0.1291  -0.0078   0.0517   0.1695   0.2582
     0.5226   0.5259   0.6334   1.0820   1.1393   1.2282   1.2359   1.4605
     1.5314   1.5682   1.8243   1.8628   2.0608   2.1223   2.2821   2.3793
     2.3836   2.4336   2.8749   2.9060   3.2848   3.3809

          k = 0.0765-0.0438 0.0000 ( 29604 PWs)   bands (ev):

   -65.8313 -65.8124 -65.4343 -65.4156 -65.3930 -65.3744 -37.8358 -37.8155
   -37.7816 -37.7250 -37.7064 -37.6096 -37.3690 -37.3489 -37.3305 -37.3275
   -37.3047 -37.2874 -37.2859 -37.2689 -37.1988 -37.1586 -37.1535 -37.1370
    -5.3465  -4.6777  -3.8896  -3.8536  -3.6793  -3.6450  -3.5743  -3.4112
    -3.3315  -3.2916  -3.1816  -3.1397  -2.7854  -2.4748  -2.4564  -2.3518
    -2.0575  -2.0440  -1.9509  -1.9412  -1.7991  -1.7185  -1.2468  -1.1981
    -0.9813  -0.9020  -0.8874  -0.7884  -0.7171  -0.6392  -0.5888  -0.5218
    -0.4588  -0.2084  -0.1493  -0.0117   0.1034   0.2243   0.3036   0.3164
     0.5228   0.6344   0.7362   1.0593   1.1556   1.1568   1.3083   1.4133
     1.5446   1.6319   1.9216   1.9751   2.0823   2.1685   2.1837   2.3910
     2.4231   2.4627   2.8908   2.9411   3.3682   3.4228

          k = 0.0765-0.0263 0.0000 ( 29616 PWs)   bands (ev):

   -65.8314 -65.8124 -65.4343 -65.4156 -65.3931 -65.3744 -37.8352 -37.8155
   -37.7809 -37.7239 -37.7068 -37.6099 -37.3684 -37.3486 -37.3302 -37.3270
   -37.3045 -37.2868 -37.2858 -37.2690 -37.1991 -37.1588 -37.1532 -37.1370
    -5.5035  -4.5809  -3.9758  -3.8820  -3.7723  -3.7064  -3.6621  -3.4869
    -3.4224  -3.3750  -3.2912  -3.2207  -2.8409  -2.5226  -2.5009  -2.2595
    -2.1007  -2.0115  -1.9432  -1.9173  -1.6884  -1.6769  -1.2681  -1.2601
    -1.0422  -0.8944  -0.8268  -0.8012  -0.7462  -0.6978  -0.5955  -0.5620
    -0.3494  -0.1957  -0.0887  -0.0096   0.1580   0.3095   0.5351   0.5627
     0.6165   0.7214   0.9319   0.9624   1.0862   1.2028   1.2489   1.5580
     1.6429   1.6595   2.0389   2.0551   2.2093   2.2324   2.4834   2.5280
     2.5590   2.7225   2.7974   3.0120   3.3270   3.3943

          k = 0.0765-0.0088 0.0000 ( 29599 PWs)   bands (ev):

   -65.8314 -65.8124 -65.4344 -65.4156 -65.3931 -65.3744 -37.8348 -37.8156
   -37.7806 -37.7232 -37.7070 -37.6101 -37.3680 -37.3484 -37.3301 -37.3267
   -37.3044 -37.2864 -37.2858 -37.2690 -37.1992 -37.1590 -37.1530 -37.1370
    -5.5839  -4.4778  -4.0586  -3.8745  -3.8307  -3.7732  -3.7067  -3.5392
    -3.4671  -3.3947  -3.3882  -3.2333  -2.7976  -2.6365  -2.5731  -2.2171
    -2.1462  -2.0451  -1.8884  -1.8037  -1.6521  -1.5842  -1.3649  -1.3061
    -1.1199  -0.8957  -0.8309  -0.8097  -0.8087  -0.7578  -0.6241  -0.4422
    -0.2866  -0.2756  -0.0839  -0.0316   0.2952   0.4029   0.5860   0.6856
     0.7244   0.8213   0.9325   1.0558   1.0848   1.1912   1.2086   1.5351
     1.6684   1.6818   2.1227   2.1482   2.3656   2.4469   2.5827   2.6509
     2.6638   2.9002   3.0831   3.2103   3.3258   3.4581

          k = 0.0765 0.0088 0.0000 ( 29599 PWs)   bands (ev):

   -65.8314 -65.8124 -65.4344 -65.4156 -65.3931 -65.3744 -37.8348 -37.8156
   -37.7806 -37.7232 -37.7070 -37.6101 -37.3680 -37.3484 -37.3301 -37.3267
   -37.3044 -37.2864 -37.2858 -37.2690 -37.1992 -37.1590 -37.1530 -37.1370
    -5.5839  -4.4778  -4.0586  -3.8745  -3.8307  -3.7732  -3.7067  -3.5392
    -3.4671  -3.3947  -3.3882  -3.2333  -2.7976  -2.6365  -2.5731  -2.2171
    -2.1462  -2.0451  -1.8884  -1.8037  -1.6521  -1.5842  -1.3649  -1.3061
    -1.1199  -0.8957  -0.8309  -0.8097  -0.8087  -0.7578  -0.6241  -0.4422
    -0.2866  -0.2756  -0.0839  -0.0316   0.2952   0.4029   0.5860   0.6856
     0.7244   0.8213   0.9325   1.0558   1.0848   1.1912   1.2086   1.5351
     1.6684   1.6818   2.1227   2.1482   2.3656   2.4469   2.5827   2.6509
     2.6638   2.9002   3.0831   3.2103   3.3259   3.4578

          k = 0.0765 0.0263 0.0000 ( 29616 PWs)   bands (ev):

   -65.8314 -65.8124 -65.4343 -65.4156 -65.3931 -65.3744 -37.8352 -37.8155
   -37.7809 -37.7239 -37.7068 -37.6099 -37.3684 -37.3486 -37.3302 -37.3270
   -37.3045 -37.2868 -37.2858 -37.2690 -37.1991 -37.1588 -37.1532 -37.1370
    -5.5035  -4.5809  -3.9758  -3.8820  -3.7723  -3.7064  -3.6621  -3.4869
    -3.4224  -3.3750  -3.2912  -3.2207  -2.8409  -2.5226  -2.5009  -2.2595
    -2.1007  -2.0115  -1.9432  -1.9173  -1.6884  -1.6769  -1.2681  -1.2601
    -1.0422  -0.8944  -0.8268  -0.8012  -0.7462  -0.6978  -0.5955  -0.5620
    -0.3494  -0.1957  -0.0887  -0.0096   0.1580   0.3095   0.5351   0.5627
     0.6165   0.7214   0.9319   0.9624   1.0862   1.2028   1.2489   1.5580
     1.6429   1.6595   2.0389   2.0551   2.2093   2.2324   2.4834   2.5280
     2.5590   2.7225   2.7974   3.0120   3.3270   3.3943

          k =-0.0918-0.0525 0.0000 ( 29618 PWs)   bands (ev):

   -65.8219 -65.8219 -65.4250 -65.4249 -65.3838 -65.3836 -37.8258 -37.8258
   -37.7162 -37.7161 -37.6959 -37.6959 -37.3398 -37.3397 -37.2959 -37.2958
   -37.2844 -37.2842 -37.2781 -37.2780 -37.2435 -37.2433 -37.1454 -37.1454
    -4.9546  -4.9546  -3.7902  -3.7901  -3.5572  -3.5572  -3.3977  -3.3977
    -3.2098  -3.2098  -2.9720  -2.9720  -2.5816  -2.5816  -2.5155  -2.5155
    -2.1910  -2.1910  -1.9211  -1.9211  -1.6442  -1.6442  -1.1562  -1.1561
    -1.0687  -1.0686  -0.9004  -0.9003  -0.8020  -0.8020  -0.6767  -0.6767
    -0.2912  -0.2912  -0.1108  -0.1108   0.0495   0.0495   0.1931   0.1931
     0.5276   0.5276   0.8875   0.8875   1.1889   1.1889   1.3467   1.3468
     1.6118   1.6118   1.7588   1.7588   1.9465   1.9465   2.2205   2.2206
     2.3552   2.3552   2.9034   2.9034   3.3949   3.3949

          k =-0.0918-0.0350 0.0000 ( 29599 PWs)   bands (ev):

   -65.8219 -65.8218 -65.4250 -65.4249 -65.3838 -65.3836 -37.8262 -37.8254
   -37.7169 -37.7153 -37.6964 -37.6954 -37.3399 -37.3396 -37.2959 -37.2957
   -37.2847 -37.2839 -37.2784 -37.2778 -37.2439 -37.2430 -37.1455 -37.1452
    -5.0837  -4.7798  -3.8202  -3.7288  -3.6071  -3.5297  -3.4042  -3.3804
    -3.2240  -3.2034  -3.0484  -2.9556  -2.6374  -2.5681  -2.5556  -2.4604
    -2.1768  -2.1217  -1.9217  -1.8997  -1.7409  -1.6082  -1.2502  -1.2113
    -1.0943  -1.0251  -0.9899  -0.9049  -0.8270  -0.8051  -0.6961  -0.6858
    -0.4446  -0.1354  -0.0997  -0.0950  -0.0306   0.1608   0.1730   0.3389
     0.3511   0.7725   0.7961   0.9453   1.1959   1.2116   1.2802   1.3791
     1.4656   1.7474   1.7812   1.9427   2.0143   2.0214   2.1658   2.3720
     2.4105   2.4715   2.8313   2.9126   3.3359   3.3561

          k =-0.0918-0.0175 0.0000 ( 29588 PWs)   bands (ev):

   -65.8220 -65.8218 -65.4250 -65.4248 -65.3838 -65.3836 -37.8265 -37.8251
   -37.7174 -37.7145 -37.6969 -37.6952 -37.3399 -37.3396 -37.2959 -37.2956
   -37.2849 -37.2835 -37.2787 -37.2777 -37.2443 -37.2427 -37.1456 -37.1451
    -5.1609  -4.5870  -3.8800  -3.6431  -3.6364  -3.5232  -3.3842  -3.3831
    -3.2675  -3.1743  -3.1665  -2.9578  -2.6699  -2.5835  -2.5684  -2.4236
    -2.1302  -2.0629  -1.9277  -1.8781  -1.7727  -1.5901  -1.3835  -1.3828
    -1.1568  -1.0540  -1.0219  -0.9659  -0.8822  -0.8628  -0.7361  -0.6021
    -0.5162  -0.2366  -0.0707  -0.0123   0.0622   0.2157   0.2387   0.2826
     0.4677   0.7841   0.9646   1.0110   1.1842   1.2039   1.2134   1.3317
     1.4148   1.8371   1.8756   1.9957   2.0733   2.3148   2.5089   2.5160
     2.6042   2.7108   2.7792   2.9665   3.2360   3.2594

          k =-0.0918 0.0000 0.0000 ( 29594 PWs)   bands (ev):

   -65.8220 -65.8218 -65.4250 -65.4248 -65.3838 -65.3836 -37.8266 -37.8250
   -37.7176 -37.7143 -37.6971 -37.6951 -37.3399 -37.3395 -37.2959 -37.2956
   -37.2850 -37.2833 -37.2789 -37.2776 -37.2444 -37.2426 -37.1457 -37.1451
    -5.1864  -4.4795  -3.9479  -3.6426  -3.5770  -3.5225  -3.4061  -3.3465
    -3.3079  -3.2308  -3.1484  -2.9608  -2.7222  -2.5699  -2.5010  -2.4346
    -2.2218  -1.9596  -1.9509  -1.8531  -1.7052  -1.5808  -1.5097  -1.4831
    -1.1839  -1.0857  -1.0253  -0.9841  -0.9320  -0.8716  -0.7518  -0.5411
    -0.4947  -0.3501  -0.0547   0.0230   0.1314   0.2063   0.2308   0.3091
     0.5122   0.8307   1.0217   1.0794   1.1497   1.1724   1.1796   1.2854
     1.4088   1.9252   1.9343   1.9532   2.1557   2.4365   2.5772   2.6229
     2.6634   2.7689   3.0924   3.1171   3.1637   3.3418

          k =-0.0918 0.0175 0.0000 ( 29588 PWs)   bands (ev):

   -65.8220 -65.8218 -65.4250 -65.4248 -65.3838 -65.3836 -37.8265 -37.8251
   -37.7174 -37.7145 -37.6969 -37.6952 -37.3399 -37.3396 -37.2959 -37.2956
   -37.2849 -37.2835 -37.2787 -37.2777 -37.2443 -37.2427 -37.1456 -37.1451
    -5.1609  -4.5870  -3.8800  -3.6431  -3.6364  -3.5232  -3.3842  -3.3831
    -3.2675  -3.1743  -3.1665  -2.9578  -2.6699  -2.5835  -2.5684  -2.4236
    -2.1302  -2.0629  -1.9277  -1.8781  -1.7727  -1.5901  -1.3835  -1.3828
    -1.1568  -1.0540  -1.0219  -0.9659  -0.8822  -0.8628  -0.7361  -0.6021
    -0.5162  -0.2366  -0.0707  -0.0123   0.0622   0.2157   0.2387   0.2826
     0.4677   0.7841   0.9646   1.0110   1.1842   1.2039   1.2134   1.3317
     1.4148   1.8371   1.8756   1.9957   2.0733   2.3148   2.5089   2.5160
     2.6041   2.7108   2.7792   2.9665   3.2359   3.2584

          k =-0.0918 0.0350 0.0000 ( 29599 PWs)   bands (ev):

   -65.8219 -65.8218 -65.4250 -65.4249 -65.3838 -65.3836 -37.8262 -37.8254
   -37.7169 -37.7153 -37.6964 -37.6954 -37.3399 -37.3396 -37.2959 -37.2957
   -37.2847 -37.2839 -37.2784 -37.2778 -37.2439 -37.2430 -37.1455 -37.1452
    -5.0837  -4.7798  -3.8202  -3.7288  -3.6071  -3.5297  -3.4042  -3.3804
    -3.2240  -3.2034  -3.0484  -2.9556  -2.6374  -2.5681  -2.5556  -2.4604
    -2.1768  -2.1217  -1.9217  -1.8997  -1.7409  -1.6082  -1.2502  -1.2113
    -1.0943  -1.0251  -0.9899  -0.9049  -0.8270  -0.8051  -0.6961  -0.6858
    -0.4446  -0.1354  -0.0997  -0.0950  -0.0306   0.1608   0.1730   0.3389
     0.3511   0.7725   0.7961   0.9453   1.1959   1.2116   1.2802   1.3791
     1.4656   1.7474   1.7812   1.9427   2.0143   2.0214   2.1658   2.3720
     2.4105   2.4715   2.8313   2.9126   3.3359   3.3561

          k =-0.0918-0.1575 0.0000 ( 29618 PWs)   bands (ev):

   -65.8219 -65.8219 -65.4250 -65.4249 -65.3838 -65.3836 -37.8258 -37.8258
   -37.7162 -37.7161 -37.6959 -37.6959 -37.3398 -37.3397 -37.2959 -37.2958
   -37.2844 -37.2842 -37.2781 -37.2780 -37.2435 -37.2433 -37.1454 -37.1454
    -4.9546  -4.9546  -3.7902  -3.7901  -3.5572  -3.5572  -3.3977  -3.3977
    -3.2098  -3.2098  -2.9720  -2.9720  -2.5816  -2.5816  -2.5155  -2.5155
    -2.1910  -2.1910  -1.9211  -1.9211  -1.6442  -1.6442  -1.1562  -1.1561
    -1.0687  -1.0686  -0.9004  -0.9003  -0.8020  -0.8020  -0.6767  -0.6767
    -0.2912  -0.2912  -0.1108  -0.1108   0.0495   0.0495   0.1931   0.1931
     0.5276   0.5276   0.8875   0.8875   1.1889   1.1889   1.3467   1.3468
     1.6118   1.6118   1.7588   1.7588   1.9465   1.9465   2.2205   2.2206
     2.3552   2.3552   2.9034   2.9034   3.3948   3.3948

     the Fermi energy is     1.6916 ev

!    total energy              =   -1466.22604277 Ry
     estimated scf accuracy    <       0.00000130 Ry
     smearing contrib. (-TS)   =      -0.05930026 Ry
     internal energy E=F+TS    =   -1466.16674251 Ry

     The total energy is F=E-TS. E is the sum of the following terms:
     one-electron contribution =  -11976.26613779 Ry
     hartree contribution      =    6021.72514506 Ry
     xc contribution           =    -432.09122306 Ry
     ewald contribution        =    4920.46547180 Ry
     electric field correction =       0.00000148 Ry

     convergence has been achieved in  17 iterations

     negative rho (up, down):  6.229E-03 0.000E+00

     Forces acting on atoms (cartesian axes, Ry/au):

     atom    1 type  1   force =    -0.00000045    0.01025814    0.01734068
     atom    2 type  1   force =     0.00000015    0.01025986    0.01732140
     atom    3 type  2   force =     0.00000155   -0.01715294    0.02292073
     atom    4 type  2   force =    -0.00000303   -0.01715428    0.02291976
     atom    5 type  1   force =    -0.00000055    0.00521400   -0.02421706
     atom    6 type  1   force =     0.00000036    0.00522905   -0.02420082
     atom    7 type  2   force =    -0.00000977    0.00137342   -0.01993252
     atom    8 type  2   force =     0.00001204    0.00137843   -0.01993412
     atom    9 type  1   force =     0.00000038   -0.00062355    0.00111017
     atom   10 type  1   force =    -0.00000211   -0.00062958    0.00110205
     atom   11 type  2   force =    -0.00000242    0.00092338    0.00278525
     atom   12 type  2   force =     0.00000385    0.00092407    0.00278449

     Total force =     0.067052     Total SCF correction =     0.007342
     SCF correction compared to forces is large: reduce conv_thr to get better values

     Writing output data file ./Tc2Ir2/Tc2Ir2_beef.save/

     init_run     :    104.22s CPU    104.77s WALL (       1 calls)
     electrons    :   3197.93s CPU   3212.92s WALL (       1 calls)
     forces       :     56.29s CPU     56.54s WALL (       1 calls)

     Called by init_run:
     wfcinit      :     92.98s CPU     93.28s WALL (       1 calls)
     potinit      :      7.74s CPU      7.83s WALL (       1 calls)
     hinit0       :      1.85s CPU      1.86s WALL (       1 calls)

     Called by electrons:
     c_bands      :   2835.86s CPU   2844.25s WALL (      17 calls)
     sum_band     :    326.16s CPU    329.51s WALL (      17 calls)
     v_of_rho     :     24.95s CPU     26.09s WALL (      18 calls)
     newd         :     17.62s CPU     19.81s WALL (      18 calls)
     mix_rho      :      0.72s CPU      0.74s WALL (      17 calls)
     vdW_kernel   :      5.71s CPU      5.72s WALL (       1 calls)

     Called by c_bands:
     init_us_2    :     12.55s CPU     12.63s WALL (    2664 calls)
     cegterg      :   2807.95s CPU   2814.78s WALL (    1258 calls)

     Called by *egterg:
     cdiaghg      :    117.87s CPU    117.92s WALL (    5877 calls)
     h_psi        :   1445.99s CPU   1452.13s WALL (    5951 calls)
     s_psi        :    510.02s CPU    510.15s WALL (    5951 calls)
     g_psi        :      1.06s CPU      1.07s WALL (    4619 calls)

     Called by h_psi:
     h_psi:calbec :    503.44s CPU    504.18s WALL (    5951 calls)
     vloc_psi     :    414.71s CPU    419.94s WALL (    5951 calls)
     add_vuspsi   :    522.46s CPU    522.60s WALL (    5951 calls)

     General routines
     calbec       :    755.50s CPU    756.61s WALL (    7505 calls)
     fft          :     13.92s CPU     14.37s WALL (    1193 calls)
     ffts         :      0.06s CPU      0.07s WALL (      35 calls)
     fftw         :    474.61s CPU    480.50s WALL (  650032 calls)
     interpolate  :      0.24s CPU      0.25s WALL (      18 calls)

     Parallel routines
     fft_scatt_xy :     39.60s CPU     40.01s WALL (  651260 calls)
     fft_scatt_yz :     81.07s CPU     82.58s WALL (  651260 calls)

     PWSCF        :  56m 7.04s CPU  56m37.04s WALL


   This run was terminated on:   3:32:31  25Jun2022            

=------------------------------------------------------------------------------=
   JOB DONE.
=------------------------------------------------------------------------------=
