
     Program PWSCF v.6.6 starts on 25Jun2022 at  3:32:33 

     This program is part of the open-source Quantum ESPRESSO suite
     for quantum simulation of materials; please cite
         "P. Giannozzi et al., J. Phys.:Condens. Matter 21 395502 (2009);
         "P. Giannozzi et al., J. Phys.:Condens. Matter 29 465901 (2017);
          URL http://www.quantum-espresso.org", 
     in publications or presentations arising from this work. More details at
     http://www.quantum-espresso.org/quote

     Parallel version (MPI), running on    37 processors

     MPI processes distributed on     1 nodes
     R & G space division:  proc/nbgrp/npool/nimage =      37
     Fft bands division:     nmany     =       1
     Reading input from Tc2Os2.in
Warning: card &CELL ignored
Warning: card / ignored

     Current dimensions of program PWSCF are:
     Max number of different atomic species (ntypx) = 10
     Max number of k-points (npk) =  40000
     Max angular momentum in pseudopotentials (lmaxx) =  3
     Presently stress not available with electric field and gates

     Message from routine cell_base_init:
     DEPRECATED: use true lattice parameter, not A to a.u. conversion factor
     file Tc.pbe-spn-rrkjus_psl.0.3.0.UPF: wavefunction(s)  4S 4P renormalized

     **************************************************************************
     Initializing libbeef V0.1.2 with the BEEF-vdW functional.
     Citation: Wellendorff et al., PRB 85, 235149 (2012).
     **************************************************************************


     IMPORTANT: XC functional enforced from input :
     Exchange-correlation= BEEF-VDW
                           (   1   4  43  14   2   0   0)
     Any further DFT definition will be discarded
     Please, verify this is what you really want


     Subspace diagonalization in iterative solution of the eigenvalue problem:
     a serial algorithm will be used

     Found symmetry operation: I + ( -0.5000  0.0000  0.0000)
     This is a supercell, fractional translations are disabled

     Parallelization info
     --------------------
     sticks:   dense  smooth     PW     G-vecs:    dense   smooth      PW
     Min         109      43     12                25245     6373    1002
     Max         110      44     13                25254     6394    1017
     Sum        4057    1627    475               934257   236457   37465



     bravais-lattice index     =            0
     lattice parameter (alat)  =       1.8897  a.u.
     unit-cell volume          =    4274.3808 (a.u.)^3
     number of atoms/cell      =           12
     number of atomic types    =            2
     number of electrons       =       186.00
     number of Kohn-Sham states=          112
     kinetic-energy cutoff     =      55.1240  Ry
     charge density cutoff     =     551.2396  Ry
     convergence threshold     =      1.0E-05
     mixing beta               =       0.1000
     number of iterations used =           10  plain     mixing
     Exchange-correlation= BEEF-VDW
                           (   1   4  43  14   2   0   0)

     celldm(1)=   1.889726  celldm(2)=   0.000000  celldm(3)=   0.000000
     celldm(4)=   0.000000  celldm(5)=   0.000000  celldm(6)=   0.000000

     crystal axes: (cart. coord. in units of alat)
               a(1) = (   5.462267   0.000000   0.000000 )  
               a(2) = (  -2.731134   4.739908   0.000000 )  
               a(3) = (   0.000000   0.000000  24.464360 )  

     reciprocal axes: (cart. coord. in units 2 pi/alat)
               b(1) = (  0.183074  0.105487 -0.000000 )  
               b(2) = (  0.000000  0.210975  0.000000 )  
               b(3) = (  0.000000 -0.000000  0.040876 )  


     PseudoPot. # 1 for Tc read from file:
     ../pseudo/Tc.pbe-spn-rrkjus_psl.0.3.0.UPF
     MD5 check sum: 5f147c0bf103030af994b79b1f5562e4
     Pseudo is Ultrasoft + core correction, Zval = 15.0
     Generated using "atomic" code by A. Dal Corso v.6.2.2
     Using radial grid of 1231 points,  6 beta functions with: 
                l(1) =   0
                l(2) =   0
                l(3) =   1
                l(4) =   1
                l(5) =   2
                l(6) =   2
     Q(r) pseudized with 0 coefficients 


     PseudoPot. # 2 for Os read from file:
     ../pseudo/Os.pbe-spn-rrkjus_psl.1.0.0.UPF
     MD5 check sum: 3e7416ed594f6513d36e5cb31ba709d9
     Pseudo is Ultrasoft + core correction, Zval = 16.0
     Generated using "atomic" code by A. Dal Corso v.6.2.2
     Using radial grid of 1275 points,  6 beta functions with: 
                l(1) =   0
                l(2) =   0
                l(3) =   1
                l(4) =   1
                l(5) =   2
                l(6) =   2
     Q(r) pseudized with 0 coefficients 


     atomic species   valence    mass     pseudopotential
        Tc            15.00    97.90721     Tc( 1.00)
        Os            16.00   190.23000     Os( 1.00)

     No symmetry found



   Cartesian axes

     site n.     atom                  positions (alat units)
         1           Tc  tau(   1) = (   0.0000000   0.0000000  10.0000000  )
         2           Tc  tau(   2) = (   2.7311337   0.0000000  10.0000000  )
         3           Os  tau(   3) = (   1.3655669   2.3699540  10.0000000  )
         4           Os  tau(   4) = (  -1.3655669   2.3699540  10.0000000  )
         5           Tc  tau(   5) = (   2.7311337   1.5736785  12.2321800  )
         6           Tc  tau(   6) = (  -0.0000000   1.5736785  12.2321800  )
         7           Os  tau(   7) = (  -1.3655669   3.9436325  12.2321800  )
         8           Os  tau(   8) = (   1.3655669   3.9436325  12.2321800  )
         9           Tc  tau(   9) = (  -0.0000001   3.1546755  14.3694989  )
        10           Tc  tau(  10) = (   2.7311340   3.1546751  14.3694902  )
        11           Os  tau(  11) = (   4.0967064   0.7819362  14.3591989  )
        12           Os  tau(  12) = (   1.3655619   0.7819364  14.3592032  )

     number of k points=    74  Fermi-Dirac smearing, width (Ry)=  0.0100
                       cart. coord. in units 2pi/alat
        k(    1) = (   0.0000000   0.0000000   0.0000000), wk =   0.0138889
        k(    2) = (   0.0000000   0.0175812   0.0000000), wk =   0.0277778
        k(    3) = (   0.0000000   0.0351624   0.0000000), wk =   0.0277778
        k(    4) = (   0.0000000   0.0527436   0.0000000), wk =   0.0277778
        k(    5) = (   0.0000000   0.0703249   0.0000000), wk =   0.0277778
        k(    6) = (   0.0000000   0.0879061   0.0000000), wk =   0.0277778
        k(    7) = (   0.0000000  -0.1054873   0.0000000), wk =   0.0138889
        k(    8) = (   0.0152562   0.0087906   0.0000000), wk =   0.0277778
        k(    9) = (   0.0152562   0.0263718   0.0000000), wk =   0.0277778
        k(   10) = (   0.0152562   0.0439530   0.0000000), wk =   0.0277778
        k(   11) = (   0.0152562   0.0615342   0.0000000), wk =   0.0277778
        k(   12) = (   0.0152562   0.0791155   0.0000000), wk =   0.0277778
        k(   13) = (   0.0152562   0.0966967   0.0000000), wk =   0.0277778
        k(   14) = (   0.0152562  -0.0966967   0.0000000), wk =   0.0277778
        k(   15) = (   0.0152562  -0.0791155   0.0000000), wk =   0.0277778
        k(   16) = (   0.0152562  -0.0615342   0.0000000), wk =   0.0277778
        k(   17) = (   0.0152562  -0.0439530   0.0000000), wk =   0.0277778
        k(   18) = (   0.0152562  -0.0263718   0.0000000), wk =   0.0277778
        k(   19) = (   0.0152562  -0.0087906   0.0000000), wk =   0.0277778
        k(   20) = (   0.0305124   0.0175812   0.0000000), wk =   0.0277778
        k(   21) = (   0.0305124   0.0351624   0.0000000), wk =   0.0277778
        k(   22) = (   0.0305124   0.0527436   0.0000000), wk =   0.0277778
        k(   23) = (   0.0305124   0.0703249   0.0000000), wk =   0.0277778
        k(   24) = (   0.0305124   0.0879061   0.0000000), wk =   0.0277778
        k(   25) = (   0.0305124   0.1054873   0.0000000), wk =   0.0277778
        k(   26) = (   0.0305124  -0.0879061   0.0000000), wk =   0.0277778
        k(   27) = (   0.0305124  -0.0703248   0.0000000), wk =   0.0277778
        k(   28) = (   0.0305124  -0.0527436   0.0000000), wk =   0.0277778
        k(   29) = (   0.0305124  -0.0351624   0.0000000), wk =   0.0277778
        k(   30) = (   0.0305124  -0.0175812   0.0000000), wk =   0.0277778
        k(   31) = (   0.0305124   0.0000000   0.0000000), wk =   0.0277778
        k(   32) = (   0.0457685   0.0263718   0.0000000), wk =   0.0277778
        k(   33) = (   0.0457685   0.0439530   0.0000000), wk =   0.0277778
        k(   34) = (   0.0457685   0.0615343   0.0000000), wk =   0.0277778
        k(   35) = (   0.0457685   0.0791155   0.0000000), wk =   0.0277778
        k(   36) = (   0.0457685   0.0966967   0.0000000), wk =   0.0277778
        k(   37) = (   0.0457685   0.1142779   0.0000000), wk =   0.0277778
        k(   38) = (   0.0457685  -0.0791155   0.0000000), wk =   0.0277778
        k(   39) = (   0.0457685  -0.0615342   0.0000000), wk =   0.0277778
        k(   40) = (   0.0457685  -0.0439530   0.0000000), wk =   0.0277778
        k(   41) = (   0.0457685  -0.0263718   0.0000000), wk =   0.0277778
        k(   42) = (   0.0457685  -0.0087906   0.0000000), wk =   0.0277778
        k(   43) = (   0.0457685   0.0087906   0.0000000), wk =   0.0277778
        k(   44) = (   0.0610247   0.0351624   0.0000000), wk =   0.0277778
        k(   45) = (   0.0610247   0.0527436   0.0000000), wk =   0.0277778
        k(   46) = (   0.0610247   0.0703249   0.0000000), wk =   0.0277778
        k(   47) = (   0.0610247   0.0879061   0.0000000), wk =   0.0277778
        k(   48) = (   0.0610247   0.1054873   0.0000000), wk =   0.0277778
        k(   49) = (   0.0610247   0.1230685   0.0000000), wk =   0.0277778
        k(   50) = (   0.0610247  -0.0703248   0.0000000), wk =   0.0277778
        k(   51) = (   0.0610247  -0.0527436   0.0000000), wk =   0.0277778
        k(   52) = (   0.0610247  -0.0351624   0.0000000), wk =   0.0277778
        k(   53) = (   0.0610247  -0.0175812   0.0000000), wk =   0.0277778
        k(   54) = (   0.0610247   0.0000000   0.0000000), wk =   0.0277778
        k(   55) = (   0.0610247   0.0175812   0.0000000), wk =   0.0277778
        k(   56) = (   0.0762809   0.0439530   0.0000000), wk =   0.0277778
        k(   57) = (   0.0762809   0.0615343   0.0000000), wk =   0.0277778
        k(   58) = (   0.0762809   0.0791155   0.0000000), wk =   0.0277778
        k(   59) = (   0.0762809   0.0966967   0.0000000), wk =   0.0277778
        k(   60) = (   0.0762809   0.1142779   0.0000000), wk =   0.0277778
        k(   61) = (   0.0762809   0.1318591   0.0000000), wk =   0.0277778
        k(   62) = (   0.0762809  -0.0615342   0.0000000), wk =   0.0277778
        k(   63) = (   0.0762809  -0.0439530   0.0000000), wk =   0.0277778
        k(   64) = (   0.0762809  -0.0263718   0.0000000), wk =   0.0277778
        k(   65) = (   0.0762809  -0.0087906   0.0000000), wk =   0.0277778
        k(   66) = (   0.0762809   0.0087906   0.0000000), wk =   0.0277778
        k(   67) = (   0.0762809   0.0263718   0.0000000), wk =   0.0277778
        k(   68) = (  -0.0915371  -0.0527436   0.0000000), wk =   0.0138889
        k(   69) = (  -0.0915371  -0.0351624   0.0000000), wk =   0.0277778
        k(   70) = (  -0.0915371  -0.0175812   0.0000000), wk =   0.0277778
        k(   71) = (  -0.0915371  -0.0000000   0.0000000), wk =   0.0277778
        k(   72) = (  -0.0915371   0.0175812   0.0000000), wk =   0.0277778
        k(   73) = (  -0.0915371   0.0351624   0.0000000), wk =   0.0277778
        k(   74) = (  -0.0915371  -0.1582309   0.0000000), wk =   0.0138889

     Dense  grid:   934257 G-vectors     FFT dimensions: (  80,  80, 360)

     Smooth grid:   236457 G-vectors     FFT dimensions: (  50,  50, 225)

     Estimated max dynamical RAM per process >     203.77 MB

     Estimated total dynamical RAM >       7.36 GB

     Initial potential from superposition of free atoms

     starting charge  185.99475, renormalised to  186.00000

     negative rho (up, down):  6.101E-03 0.000E+00


     %%%%%%%%%%%%%%%%%%%%%%%%%%%%%%%%%%%%%%%%%%%%%%%%%%%%%%%%%%%%%%%%%%%%%%%%
     %                                                                      %
     % You are using vdW-DF, which was implemented by the Thonhauser group. %
     % Please cite the following two papers that made this development      %
     % possible and the two reviews that describe the various versions:     %
     %                                                                      %
     %   T. Thonhauser et al., PRL 115, 136402 (2015).                      %
     %   T. Thonhauser et al., PRB 76, 125112 (2007).                       %
     %   K. Berland et al., Rep. Prog. Phys. 78, 066501 (2015).             %
     %   D.C. Langreth et al., J. Phys.: Condens. Matter 21, 084203 (2009). %
     %                                                                      %
     %                                                                      %
     % If you are calculating the stress with vdW-DF, please also cite:     %
     %                                                                      %
     %   R. Sabatini et al., J. Phys.: Condens. Matter 24, 424209 (2012).   %
     %                                                                      %
     %%%%%%%%%%%%%%%%%%%%%%%%%%%%%%%%%%%%%%%%%%%%%%%%%%%%%%%%%%%%%%%%%%%%%%%%



     Adding external electric field

     Computed dipole along edir(3) : 
        Dipole                0.0000 Ry au,          0.0000 Debye
        Dipole field          0.0000 Ry au, 

        Potential amp.       -0.0000 Ry
        Total length         45.0752 bohr

     Starting wfcs are  138 randomized atomic wfcs

     total cpu time spent up to now is      117.5 secs

     Self-consistent Calculation

     iteration #  1     ecut=    55.12 Ry     beta= 0.10
     Davidson diagonalization with overlap
     ethr =  1.00E-02,  avg # of iterations =  2.0

     negative rho (up, down):  6.077E-03 0.000E+00

     Adding external electric field

     Computed dipole along edir(3) : 
        Dipole               -0.1184 Ry au,         -0.3010 Debye
        Dipole field         -0.0003 Ry au, 

        Potential amp.        0.0314 Ry
        Total length         45.0752 bohr


     total cpu time spent up to now is      399.6 secs

     total energy              =   -2291.17521370 Ry
     estimated scf accuracy    <       3.58096260 Ry

     iteration #  2     ecut=    55.12 Ry     beta= 0.10
     Davidson diagonalization with overlap
     ethr =  1.93E-03,  avg # of iterations =  2.2

     negative rho (up, down):  6.117E-03 0.000E+00

     Adding external electric field

     Computed dipole along edir(3) : 
        Dipole                0.4565 Ry au,          1.1603 Debye
        Dipole field          0.0013 Ry au, 

        Potential amp.       -0.1210 Ry
        Total length         45.0752 bohr


     total cpu time spent up to now is      644.9 secs

     total energy              =   -2291.32984890 Ry
     estimated scf accuracy    <       2.31882830 Ry

     iteration #  3     ecut=    55.12 Ry     beta= 0.10
     Davidson diagonalization with overlap
     ethr =  1.25E-03,  avg # of iterations =  1.5

     negative rho (up, down):  6.261E-03 0.000E+00

     Adding external electric field

     Computed dipole along edir(3) : 
        Dipole               -0.0307 Ry au,         -0.0781 Debye
        Dipole field         -0.0001 Ry au, 

        Potential amp.        0.0081 Ry
        Total length         45.0752 bohr


     total cpu time spent up to now is      865.3 secs

     total energy              =   -2291.24528861 Ry
     estimated scf accuracy    <      14.84766265 Ry

     iteration #  4     ecut=    55.12 Ry     beta= 0.10
     Davidson diagonalization with overlap
     ethr =  1.25E-03,  avg # of iterations =  1.1

     negative rho (up, down):  6.210E-03 0.000E+00

     Adding external electric field

     Computed dipole along edir(3) : 
        Dipole                0.0415 Ry au,          0.1054 Debye
        Dipole field          0.0001 Ry au, 

        Potential amp.       -0.0110 Ry
        Total length         45.0752 bohr


     total cpu time spent up to now is     1070.0 secs

     total energy              =   -2291.42770758 Ry
     estimated scf accuracy    <       0.51345465 Ry

     iteration #  5     ecut=    55.12 Ry     beta= 0.10
     Davidson diagonalization with overlap
     ethr =  2.76E-04,  avg # of iterations =  1.7

     negative rho (up, down):  6.185E-03 0.000E+00

     Adding external electric field

     Computed dipole along edir(3) : 
        Dipole                0.0450 Ry au,          0.1144 Debye
        Dipole field          0.0001 Ry au, 

        Potential amp.       -0.0119 Ry
        Total length         45.0752 bohr


     total cpu time spent up to now is     1299.5 secs

     total energy              =   -2291.42204864 Ry
     estimated scf accuracy    <       0.13886509 Ry

     iteration #  6     ecut=    55.12 Ry     beta= 0.10
     Davidson diagonalization with overlap
     ethr =  7.47E-05,  avg # of iterations =  3.3

     negative rho (up, down):  6.233E-03 0.000E+00

     Adding external electric field

     Computed dipole along edir(3) : 
        Dipole                0.0365 Ry au,          0.0929 Debye
        Dipole field          0.0001 Ry au, 

        Potential amp.       -0.0097 Ry
        Total length         45.0752 bohr


     total cpu time spent up to now is     1551.7 secs

     total energy              =   -2291.42718228 Ry
     estimated scf accuracy    <       0.04758089 Ry

     iteration #  7     ecut=    55.12 Ry     beta= 0.10
     Davidson diagonalization with overlap
     ethr =  2.56E-05,  avg # of iterations =  3.9

     negative rho (up, down):  6.738E-03 0.000E+00

     Adding external electric field

     Computed dipole along edir(3) : 
        Dipole                0.0315 Ry au,          0.0801 Debye
        Dipole field          0.0001 Ry au, 

        Potential amp.       -0.0084 Ry
        Total length         45.0752 bohr


     total cpu time spent up to now is     1796.7 secs

     total energy              =   -2291.42468821 Ry
     estimated scf accuracy    <       0.02584659 Ry

     iteration #  8     ecut=    55.12 Ry     beta= 0.10
     Davidson diagonalization with overlap
     ethr =  1.39E-05,  avg # of iterations =  2.5

     negative rho (up, down):  6.809E-03 0.000E+00

     Adding external electric field

     Computed dipole along edir(3) : 
        Dipole                0.0356 Ry au,          0.0904 Debye
        Dipole field          0.0001 Ry au, 

        Potential amp.       -0.0094 Ry
        Total length         45.0752 bohr


     total cpu time spent up to now is     2069.9 secs

     total energy              =   -2291.42800795 Ry
     estimated scf accuracy    <       0.00345597 Ry

     iteration #  9     ecut=    55.12 Ry     beta= 0.10
     Davidson diagonalization with overlap
     ethr =  1.86E-06,  avg # of iterations =  6.4

     negative rho (up, down):  7.063E-03 0.000E+00

     Adding external electric field

     Computed dipole along edir(3) : 
        Dipole                0.0424 Ry au,          0.1078 Debye
        Dipole field          0.0001 Ry au, 

        Potential amp.       -0.0112 Ry
        Total length         45.0752 bohr


     total cpu time spent up to now is     2357.4 secs

     total energy              =   -2291.42818776 Ry
     estimated scf accuracy    <       0.00206215 Ry

     iteration # 10     ecut=    55.12 Ry     beta= 0.10
     Davidson diagonalization with overlap
     ethr =  1.11E-06,  avg # of iterations =  2.4

     negative rho (up, down):  6.990E-03 0.000E+00

     Adding external electric field

     Computed dipole along edir(3) : 
        Dipole                0.0375 Ry au,          0.0954 Debye
        Dipole field          0.0001 Ry au, 

        Potential amp.       -0.0100 Ry
        Total length         45.0752 bohr


     total cpu time spent up to now is     2638.5 secs

     total energy              =   -2291.42842917 Ry
     estimated scf accuracy    <       0.00047770 Ry

     iteration # 11     ecut=    55.12 Ry     beta= 0.10
     Davidson diagonalization with overlap
     ethr =  2.57E-07,  avg # of iterations =  3.1

     negative rho (up, down):  6.833E-03 0.000E+00

     Adding external electric field

     Computed dipole along edir(3) : 
        Dipole                0.0361 Ry au,          0.0917 Debye
        Dipole field          0.0001 Ry au, 

        Potential amp.       -0.0096 Ry
        Total length         45.0752 bohr


     total cpu time spent up to now is     2926.1 secs

     total energy              =   -2291.42855030 Ry
     estimated scf accuracy    <       0.00021373 Ry

     iteration # 12     ecut=    55.12 Ry     beta= 0.10
     Davidson diagonalization with overlap
     ethr =  1.15E-07,  avg # of iterations =  1.7

     negative rho (up, down):  6.713E-03 0.000E+00

     Adding external electric field

     Computed dipole along edir(3) : 
        Dipole                0.0357 Ry au,          0.0907 Debye
        Dipole field          0.0001 Ry au, 

        Potential amp.       -0.0095 Ry
        Total length         45.0752 bohr


     total cpu time spent up to now is     3154.8 secs

     total energy              =   -2291.42852958 Ry
     estimated scf accuracy    <       0.00011244 Ry

     iteration # 13     ecut=    55.12 Ry     beta= 0.10
     Davidson diagonalization with overlap
     ethr =  6.04E-08,  avg # of iterations =  2.2

     negative rho (up, down):  6.144E-03 0.000E+00

     Adding external electric field

     Computed dipole along edir(3) : 
        Dipole                0.0427 Ry au,          0.1086 Debye
        Dipole field          0.0001 Ry au, 

        Potential amp.       -0.0113 Ry
        Total length         45.0752 bohr


     total cpu time spent up to now is     3427.8 secs

     End of self-consistent calculation

          k = 0.0000 0.0000 0.0000 ( 29469 PWs)   bands (ev):

   -84.2081 -84.1796 -83.7375 -83.7091 -83.6749 -83.6467 -64.7545 -64.6836
   -64.4000 -64.3791 -64.3299 -64.3094 -43.7305 -43.6088 -43.5481 -43.4902
   -43.4290 -43.2682 -43.2188 -43.1963 -43.0160 -43.0105 -42.9594 -42.9517
   -42.9364 -42.9199 -42.8762 -42.8691 -42.7614 -42.6932 -36.8942 -36.7445
   -36.6799 -36.6294 -36.5757 -36.5301 -36.4929 -36.3126 -36.2725 -36.2621
   -36.2460 -36.2419 -36.2161 -36.1870 -36.1248 -36.0685 -35.9007 -35.8672
    -5.6388  -3.8747  -3.7833  -3.5544  -3.5490  -3.3788  -3.2487  -2.9553
    -2.9484  -2.7308  -2.7113  -2.6396  -2.2866  -2.2335  -2.1408  -1.0306
    -0.9138  -0.7704  -0.1081  -0.0403  -0.0380   0.1750   0.2686   0.3551
     0.4093   0.5458   0.6302   0.7428   0.7695   0.8644   1.0594   1.1523
     1.1545   1.4067   1.5633   2.0878   2.6197   2.6930   2.7049   2.7145
     2.7226   2.8102   3.0114   3.0142   3.4622   3.6347   3.6643   4.1330
     4.2763   4.3747   4.5162   4.5886   4.6312   4.6463   4.6897   4.8290
     4.8296   4.8816   5.1393   5.1592   5.1927   5.6389   5.6425   5.6489

          k = 0.0000 0.0176 0.0000 ( 29507 PWs)   bands (ev):

   -84.2081 -84.1796 -83.7375 -83.7091 -83.6750 -83.6467 -64.7546 -64.6836
   -64.4000 -64.3792 -64.3299 -64.3094 -43.7299 -43.6081 -43.5478 -43.4894
   -43.4286 -43.2677 -43.2187 -43.1958 -43.0149 -43.0106 -42.9594 -42.9514
   -42.9356 -42.9197 -42.8759 -42.8691 -42.7614 -42.6932 -36.8954 -36.7462
   -36.6808 -36.6312 -36.5765 -36.5310 -36.4940 -36.3121 -36.2741 -36.2623
   -36.2459 -36.2441 -36.2167 -36.1881 -36.1254 -36.0687 -35.9008 -35.8674
    -5.5764  -3.8263  -3.7273  -3.4970  -3.4968  -3.3409  -3.1967  -2.9136
    -2.9119  -2.7049  -2.6776  -2.5973  -2.2149  -2.1709  -2.1064  -1.0274
    -0.8918  -0.7656  -0.1020  -0.0189  -0.0097   0.0669   0.3125   0.3207
     0.4458   0.4515   0.6531   0.7565   0.8027   0.8153   1.0708   1.1199
     1.2101   1.3467   1.5274   1.9885   2.4767   2.5673   2.6258   2.6907
     2.7171   2.8215   2.9640   2.9821   3.2212   3.6747   3.7776   4.0918
     4.1372   4.1798   4.3008   4.4043   4.4691   4.5429   4.5887   4.5982
     4.8349   5.0755   5.1107   5.1311   5.1636   5.5195   5.5341   5.5531

          k = 0.0000 0.0352 0.0000 ( 29509 PWs)   bands (ev):

   -84.2081 -84.1796 -83.7375 -83.7091 -83.6750 -83.6467 -64.7547 -64.6836
   -64.4001 -64.3793 -64.3299 -64.3094 -43.7285 -43.6063 -43.5470 -43.4869
   -43.4274 -43.2664 -43.2186 -43.1945 -43.0129 -43.0099 -42.9597 -42.9505
   -42.9331 -42.9189 -42.8750 -42.8690 -42.7613 -42.6931 -36.8986 -36.7510
   -36.6833 -36.6362 -36.5787 -36.5337 -36.4970 -36.3109 -36.2781 -36.2628
   -36.2501 -36.2457 -36.2183 -36.1909 -36.1270 -36.0692 -35.9012 -35.8678
    -5.3949  -3.7066  -3.5594  -3.3484  -3.3297  -3.2267  -3.0475  -2.8022
    -2.7909  -2.6271  -2.5745  -2.4742  -2.0049  -2.0047  -1.9891  -1.0225
    -0.8313  -0.7619  -0.1846  -0.0906   0.0341   0.0646   0.2451   0.2649
     0.4073   0.4734   0.6900   0.7150   0.7787   0.9014   1.0522   1.0534
     1.1910   1.3752   1.3998   1.7488   2.2074   2.3032   2.3498   2.5875
     2.6740   2.7399   2.7414   2.9158   2.9318   3.4380   3.5256   3.6848
     3.6905   4.0521   4.1057   4.2065   4.2986   4.3718   4.4606   4.4618
     4.6302   4.7149   4.8500   4.8695   5.2769   5.2937   5.3593   5.3913

          k = 0.0000 0.0527 0.0000 ( 29505 PWs)   bands (ev):

   -84.2081 -84.1796 -83.7375 -83.7091 -83.6750 -83.6466 -64.7548 -64.6837
   -64.4003 -64.3794 -64.3299 -64.3095 -43.7265 -43.6038 -43.5460 -43.4835
   -43.4257 -43.2647 -43.2184 -43.1926 -43.0131 -43.0060 -42.9601 -42.9492
   -42.9297 -42.9178 -42.8739 -42.8687 -42.7612 -42.6929 -36.9030 -36.7577
   -36.6867 -36.6429 -36.5817 -36.5373 -36.5010 -36.3103 -36.2825 -36.2635
   -36.2584 -36.2458 -36.2201 -36.1947 -36.1292 -36.0698 -35.9017 -35.8684
    -5.1132  -3.5779  -3.2961  -3.1271  -3.0733  -3.0408  -2.8232  -2.6241
    -2.5923  -2.4944  -2.3959  -2.2889  -1.8420  -1.7134  -1.6720  -1.0152
    -0.7916  -0.7639  -0.4333  -0.2031  -0.0674   0.0962   0.2097   0.2417
     0.3317   0.5392   0.7082   0.7230   0.8102   0.9687   0.9765   1.0450
     1.0528   1.1565   1.4915   1.6450   1.8673   1.9371   1.9926   2.2973
     2.3570   2.5874   2.6270   2.7243   2.7388   2.8680   2.9046   2.9206
     3.6865   3.8154   3.8276   3.9505   3.9894   4.1586   4.1623   4.3823
     4.4972   4.4972   4.5519   4.5903   4.8288   4.8765   5.1673   5.1740

          k = 0.0000 0.0703 0.0000 ( 29573 PWs)   bands (ev):

   -84.2081 -84.1796 -83.7375 -83.7091 -83.6750 -83.6467 -64.7550 -64.6837
   -64.4004 -64.3796 -64.3299 -64.3095 -43.7245 -43.6014 -43.5449 -43.4799
   -43.4241 -43.2630 -43.2181 -43.1908 -43.0141 -43.0014 -42.9606 -42.9478
   -42.9262 -42.9167 -42.8729 -42.8685 -42.7610 -42.6928 -36.9074 -36.7646
   -36.6901 -36.6493 -36.5846 -36.5409 -36.5051 -36.3115 -36.2853 -36.2666
   -36.2642 -36.2464 -36.2216 -36.1985 -36.1313 -36.0704 -35.9023 -35.8690
    -4.7694  -3.5067  -2.9932  -2.8773  -2.8089  -2.7729  -2.5657  -2.4277
    -2.3294  -2.2760  -2.1325  -2.0917  -1.6371  -1.4317  -1.2779  -0.9357
    -0.8653  -0.8412  -0.5537  -0.4224  -0.3372   0.0418   0.1495   0.2399
     0.3990   0.4818   0.6576   0.8198   0.8252   0.8542   0.8893   0.9627
     1.0138   1.2441   1.3731   1.4782   1.4981   1.6372   1.9171   1.9394
     2.0095   2.0757   2.1117   2.1758   2.4629   2.5585   2.8507   2.9801
     3.2975   3.3015   3.4700   3.6192   3.6710   3.8140   3.8779   3.9436
     4.1605   4.3563   4.3664   4.4782   4.9009   4.9440   5.0481   5.1631

          k = 0.0000 0.0879 0.0000 ( 29568 PWs)   bands (ev):

   -84.2081 -84.1796 -83.7375 -83.7091 -83.6749 -83.6467 -64.7551 -64.6838
   -64.4005 -64.3797 -64.3299 -64.3095 -43.7231 -43.5996 -43.5441 -43.4773
   -43.4229 -43.2617 -43.2180 -43.1895 -43.0149 -42.9980 -42.9610 -42.9468
   -42.9238 -42.9157 -42.8722 -42.8682 -42.7609 -42.6926 -36.9106 -36.7697
   -36.6927 -36.6539 -36.5867 -36.5436 -36.5080 -36.3137 -36.2865 -36.2722
   -36.2647 -36.2472 -36.2224 -36.2013 -36.1328 -36.0708 -35.9026 -35.8694
    -4.4368  -3.5294  -2.7425  -2.6605  -2.5833  -2.5176  -2.3324  -2.3110
    -2.0916  -1.9592  -1.9276  -1.7997  -1.4774  -1.2920  -1.1612  -1.0146
    -0.8714  -0.6714  -0.6687  -0.5795  -0.4091  -0.1812   0.1254   0.2468
     0.4706   0.5174   0.5318   0.7083   0.7430   0.7596   0.8851   0.9921
     1.1013   1.1241   1.1685   1.1940   1.2220   1.3076   1.4001   1.5484
     1.5823   1.8780   2.1643   2.3715   2.4471   2.4821   2.7162   2.7991
     2.9077   3.0825   3.1264   3.3770   3.4780   3.5924   3.6033   3.6988
     3.7235   4.0066   4.3510   4.4756   4.9248   4.9989   5.1863   5.3200

          k = 0.0000-0.1055 0.0000 ( 29598 PWs)   bands (ev):

   -84.2081 -84.1796 -83.7375 -83.7091 -83.6749 -83.6467 -64.7551 -64.6838
   -64.4005 -64.3797 -64.3299 -64.3095 -43.7225 -43.5990 -43.5438 -43.4763
   -43.4224 -43.2613 -43.2179 -43.1890 -43.0152 -42.9967 -42.9612 -42.9464
   -42.9229 -42.9153 -42.8720 -42.8681 -42.7609 -42.6926 -36.9118 -36.7716
   -36.6936 -36.6556 -36.5874 -36.5446 -36.5091 -36.3147 -36.2869 -36.2742
   -36.2649 -36.2475 -36.2226 -36.2022 -36.1333 -36.0709 -35.9028 -35.8695
    -4.2743  -3.5771  -2.6434  -2.5649  -2.4603  -2.4165  -2.3021  -2.2238
    -2.0443  -1.8030  -1.6780  -1.5771  -1.5732  -1.2623  -1.1981  -1.0523
    -0.9700  -0.8413  -0.6397  -0.4815  -0.3089  -0.1369   0.2231   0.2902
     0.4397   0.4694   0.5369   0.5824   0.6383   0.7198   0.8681   0.9478
     0.9767   1.0020   1.0402   1.0448   1.0979   1.1616   1.1950   1.3284
     1.8155   2.0344   2.1819   2.2992   2.3689   2.4924   2.4950   2.8658
     2.9035   2.9821   3.1848   3.2276   3.3248   3.3506   3.4108   3.6373
     3.6803   3.8647   4.3507   4.4760   4.9369   4.9827   5.1982   5.3306

          k = 0.0153 0.0088 0.0000 ( 29527 PWs)   bands (ev):

   -84.2076 -84.1801 -83.7370 -83.7095 -83.6745 -83.6471 -64.7533 -64.6848
   -64.3988 -64.3780 -64.3311 -64.3106 -43.7219 -43.6075 -43.5489 -43.4889
   -43.4297 -43.2597 -43.2276 -43.1878 -43.0145 -43.0096 -42.9603 -42.9525
   -42.9352 -42.9190 -42.8769 -42.8700 -42.7702 -42.7020 -36.8842 -36.7440
   -36.6817 -36.6291 -36.5772 -36.5200 -36.4830 -36.3112 -36.2736 -36.2722
   -36.2469 -36.2417 -36.2176 -36.1887 -36.1241 -36.0697 -35.9121 -35.8786
    -5.5716  -3.8073  -3.7145  -3.5298  -3.4975  -3.3222  -3.2119  -2.9157
    -2.9050  -2.6923  -2.6816  -2.6071  -2.2424  -2.1789  -2.0770  -1.0143
    -0.9093  -0.7576  -0.0841  -0.0234  -0.0084   0.0573   0.2523   0.3757
     0.4317   0.5178   0.5733   0.7760   0.7895   0.8177   1.0640   1.1215
     1.2082   1.3915   1.4981   1.9843   2.5025   2.5162   2.6187   2.6903
     2.7681   2.8124   2.9657   2.9734   3.2216   3.6538   3.7945   4.0598
     4.1553   4.1804   4.3083   4.3330   4.5095   4.5738   4.5780   4.6147
     4.8341   5.0748   5.1099   5.1421   5.1569   5.5213   5.5255   5.5605

          k = 0.0153 0.0264 0.0000 ( 29515 PWs)   bands (ev):

   -84.2076 -84.1801 -83.7370 -83.7095 -83.6745 -83.6471 -64.7534 -64.6848
   -64.3989 -64.3780 -64.3311 -64.3106 -43.7209 -43.6062 -43.5484 -43.4872
   -43.4289 -43.2588 -43.2275 -43.1869 -43.0127 -43.0096 -42.9604 -42.9519
   -42.9335 -42.9185 -42.8763 -42.8699 -42.7702 -42.7019 -36.8864 -36.7473
   -36.6833 -36.6326 -36.5787 -36.5218 -36.4850 -36.3103 -36.2753 -36.2737
   -36.2468 -36.2459 -36.2187 -36.1906 -36.1252 -36.0700 -35.9123 -35.8789
    -5.4491  -3.7164  -3.6046  -3.4473  -3.3721  -3.2460  -3.1122  -2.8327
    -2.8308  -2.6421  -2.6169  -2.5192  -2.1336  -2.0249  -2.0093  -1.0127
    -0.8689  -0.7497  -0.1257  -0.0655   0.0226   0.0356   0.2547   0.3375
     0.3873   0.4666   0.5989   0.7765   0.8036   0.8546   1.0381   1.0704
     1.2839   1.3219   1.4253   1.8212   2.2757   2.4046   2.4122   2.6536
     2.6772   2.7783   2.8522   2.9055   2.9711   3.6116   3.7043   3.7835
     3.8227   3.9718   4.1168   4.2016   4.3632   4.4044   4.5118   4.5199
     4.8019   4.8530   4.9214   4.9268   5.2828   5.2847   5.3787   5.4960

          k = 0.0153 0.0440 0.0000 ( 29516 PWs)   bands (ev):

   -84.2076 -84.1801 -83.7370 -83.7095 -83.6745 -83.6471 -64.7535 -64.6849
   -64.3990 -64.3782 -64.3311 -64.3107 -43.7191 -43.6040 -43.5475 -43.4842
   -43.4275 -43.2573 -43.2274 -43.1853 -43.0118 -43.0072 -42.9608 -42.9508
   -42.9305 -42.9175 -42.8754 -42.8697 -42.7701 -42.7018 -36.8903 -36.7530
   -36.6862 -36.6385 -36.5812 -36.5250 -36.4886 -36.3092 -36.2796 -36.2744
   -36.2531 -36.2467 -36.2204 -36.1939 -36.1271 -36.0705 -35.9127 -35.8793
    -5.2156  -3.5825  -3.3882  -3.2674  -3.1642  -3.0942  -2.9252  -2.6879
    -2.6642  -2.5413  -2.4827  -2.3545  -1.9060  -1.8776  -1.7526  -1.0142
    -0.8014  -0.7556  -0.3535  -0.1428   0.0305   0.0808   0.2027   0.2203
     0.3363   0.6187   0.6344   0.6376   0.8153   0.9358   0.9942   1.0471
     1.1269   1.2478   1.5388   1.6014   1.9929   2.0872   2.0915   2.4505
     2.4799   2.6051   2.6636   2.8104   2.9652   2.9697   3.0629   3.1095
     3.7437   3.9288   3.9298   4.0847   4.2461   4.2707   4.3210   4.3430
     4.4115   4.5138   4.5140   4.9043   4.9299   5.1454   5.2455   5.3368

          k = 0.0153 0.0615 0.0000 ( 29537 PWs)   bands (ev):

   -84.2076 -84.1801 -83.7370 -83.7095 -83.6745 -83.6471 -64.7537 -64.6849
   -64.3991 -64.3783 -64.3311 -64.3107 -43.7171 -43.6016 -43.5464 -43.4807
   -43.4259 -43.2555 -43.2272 -43.1835 -43.0126 -43.0027 -42.9612 -42.9495
   -42.9270 -42.9164 -42.8744 -42.8695 -42.7699 -42.7016 -36.8947 -36.7599
   -36.6896 -36.6451 -36.5841 -36.5287 -36.4927 -36.3095 -36.2832 -36.2751
   -36.2614 -36.2470 -36.2221 -36.1977 -36.1292 -36.0711 -35.9132 -35.8798
    -4.8979  -3.4755  -3.0976  -3.0169  -2.9099  -2.8790  -2.6807  -2.4865
    -2.4254  -2.3788  -2.2694  -2.1447  -1.6928  -1.5898  -1.4231  -0.9842
    -0.8064  -0.7844  -0.5543  -0.3268  -0.2069   0.0865   0.1564   0.2359
     0.3156   0.5175   0.6288   0.7730   0.8638   0.8857   0.8945   0.9733
     1.0282   1.1709   1.4722   1.6497   1.6541   1.7538   1.8865   2.0649
     2.1845   2.2671   2.3474   2.3871   2.5291   2.5454   2.7809   3.0043
     3.4183   3.4590   3.6996   3.7364   3.8621   3.9444   4.0424   4.1459
     4.3373   4.4552   4.5321   4.5843   4.8741   5.0191   5.0888   5.1006

          k = 0.0153 0.0791 0.0000 ( 29565 PWs)   bands (ev):

   -84.2076 -84.1801 -83.7370 -83.7096 -83.6745 -83.6471 -64.7538 -64.6850
   -64.3992 -64.3784 -64.3311 -64.3107 -43.7153 -43.5995 -43.5455 -43.4776
   -43.4245 -43.2540 -43.2270 -43.1819 -43.0135 -42.9987 -42.9617 -42.9484
   -42.9240 -42.9153 -42.8736 -42.8692 -42.7698 -42.7015 -36.8986 -36.7660
   -36.6925 -36.6506 -36.5866 -36.5319 -36.4963 -36.3113 -36.2851 -36.2758
   -36.2683 -36.2477 -36.2231 -36.2009 -36.1311 -36.0716 -35.9136 -35.8803
    -4.5470  -3.4534  -2.8072  -2.7549  -2.6597  -2.6405  -2.4264  -2.3170
    -2.1525  -2.1074  -2.0147  -1.9126  -1.4962  -1.3649  -1.1798  -0.9578
    -0.8386  -0.7780  -0.6093  -0.5454  -0.4338  -0.0809   0.0833   0.1434
     0.4457   0.5483   0.5854   0.6664   0.7262   0.7608   0.7903   0.8954
     1.1859   1.2865   1.2882   1.3448   1.3507   1.4920   1.5175   1.6261
     1.7886   1.8497   2.1590   2.2991   2.4559   2.4686   2.7864   2.9097
     2.9217   3.1256   3.2717   3.4934   3.5852   3.7337   3.8290   3.8844
     4.0261   4.3109   4.3236   4.4424   4.7564   4.9610   5.0967   5.2327

          k = 0.0153 0.0967 0.0000 ( 29538 PWs)   bands (ev):

   -84.2076 -84.1801 -83.7370 -83.7096 -83.6745 -83.6471 -64.7539 -64.6850
   -64.3993 -64.3785 -64.3311 -64.3107 -43.7143 -43.5983 -43.5450 -43.4758
   -43.4237 -43.2531 -43.2269 -43.1809 -43.0141 -42.9963 -42.9620 -42.9477
   -42.9223 -42.9146 -42.8731 -42.8691 -42.7698 -42.7014 -36.9008 -36.7696
   -36.6942 -36.6538 -36.5880 -36.5337 -36.4983 -36.3131 -36.2857 -36.2764
   -36.2719 -36.2482 -36.2236 -36.2027 -36.1321 -36.0718 -35.9138 -35.8805
    -4.2700  -3.5119  -2.6196  -2.5695  -2.4956  -2.4427  -2.2588  -2.2354
    -2.0101  -1.8335  -1.7734  -1.6079  -1.4759  -1.3346  -1.1848  -1.0319
    -0.9446  -0.7598  -0.6771  -0.5274  -0.2859  -0.1970   0.1303   0.2387
     0.3602   0.3794   0.5360   0.5707   0.6285   0.7395   0.7412   0.8928
     0.8935   1.0556   1.0564   1.1145   1.1877   1.2757   1.3247   1.3847
     1.7536   1.9627   2.2503   2.2583   2.4625   2.4821   2.5650   2.7847
     2.9206   2.9422   3.1715   3.3221   3.4257   3.4556   3.6253   3.7194
     3.7527   3.9480   4.3210   4.4402   4.8373   4.9022   5.1139   5.2505

          k = 0.0153-0.0967 0.0000 ( 29538 PWs)   bands (ev):

   -84.2076 -84.1801 -83.7370 -83.7096 -83.6745 -83.6471 -64.7539 -64.6850
   -64.3993 -64.3785 -64.3311 -64.3107 -43.7143 -43.5983 -43.5450 -43.4758
   -43.4237 -43.2531 -43.2269 -43.1809 -43.0141 -42.9963 -42.9620 -42.9477
   -42.9223 -42.9146 -42.8731 -42.8691 -42.7698 -42.7014 -36.9008 -36.7696
   -36.6942 -36.6538 -36.5880 -36.5337 -36.4983 -36.3131 -36.2857 -36.2764
   -36.2719 -36.2482 -36.2236 -36.2027 -36.1321 -36.0718 -35.9138 -35.8805
    -4.2700  -3.5119  -2.6196  -2.5695  -2.4956  -2.4427  -2.2588  -2.2354
    -2.0101  -1.8335  -1.7734  -1.6079  -1.4759  -1.3346  -1.1848  -1.0319
    -0.9446  -0.7598  -0.6771  -0.5274  -0.2859  -0.1970   0.1303   0.2387
     0.3602   0.3794   0.5360   0.5707   0.6285   0.7395   0.7412   0.8928
     0.8935   1.0556   1.0564   1.1145   1.1877   1.2757   1.3247   1.3847
     1.7536   1.9627   2.2503   2.2583   2.4625   2.4821   2.5650   2.7847
     2.9206   2.9422   3.1715   3.3221   3.4257   3.4556   3.6253   3.7194
     3.7527   3.9480   4.3210   4.4402   4.8373   4.9022   5.1139   5.2505

          k = 0.0153-0.0791 0.0000 ( 29565 PWs)   bands (ev):

   -84.2076 -84.1801 -83.7370 -83.7096 -83.6745 -83.6471 -64.7538 -64.6850
   -64.3992 -64.3784 -64.3311 -64.3107 -43.7153 -43.5995 -43.5455 -43.4776
   -43.4245 -43.2540 -43.2270 -43.1819 -43.0135 -42.9987 -42.9617 -42.9484
   -42.9240 -42.9153 -42.8736 -42.8692 -42.7698 -42.7015 -36.8986 -36.7660
   -36.6925 -36.6506 -36.5866 -36.5319 -36.4963 -36.3113 -36.2851 -36.2758
   -36.2683 -36.2477 -36.2231 -36.2009 -36.1311 -36.0716 -35.9136 -35.8803
    -4.5470  -3.4534  -2.8072  -2.7549  -2.6597  -2.6405  -2.4264  -2.3170
    -2.1525  -2.1074  -2.0147  -1.9126  -1.4962  -1.3649  -1.1798  -0.9578
    -0.8386  -0.7780  -0.6093  -0.5454  -0.4338  -0.0809   0.0833   0.1434
     0.4457   0.5483   0.5854   0.6664   0.7262   0.7608   0.7903   0.8954
     1.1859   1.2865   1.2882   1.3448   1.3507   1.4920   1.5175   1.6261
     1.7886   1.8497   2.1590   2.2991   2.4559   2.4686   2.7864   2.9097
     2.9217   3.1256   3.2717   3.4934   3.5852   3.7337   3.8290   3.8844
     4.0261   4.3109   4.3236   4.4424   4.7564   4.9610   5.0967   5.2327

          k = 0.0153-0.0615 0.0000 ( 29537 PWs)   bands (ev):

   -84.2076 -84.1801 -83.7370 -83.7095 -83.6745 -83.6471 -64.7537 -64.6849
   -64.3991 -64.3783 -64.3311 -64.3107 -43.7171 -43.6016 -43.5464 -43.4807
   -43.4259 -43.2555 -43.2272 -43.1835 -43.0126 -43.0027 -42.9612 -42.9495
   -42.9270 -42.9164 -42.8744 -42.8695 -42.7699 -42.7016 -36.8947 -36.7599
   -36.6896 -36.6451 -36.5841 -36.5287 -36.4927 -36.3095 -36.2832 -36.2751
   -36.2614 -36.2470 -36.2221 -36.1977 -36.1292 -36.0711 -35.9132 -35.8798
    -4.8979  -3.4755  -3.0976  -3.0169  -2.9099  -2.8790  -2.6807  -2.4865
    -2.4254  -2.3788  -2.2694  -2.1447  -1.6928  -1.5898  -1.4231  -0.9842
    -0.8064  -0.7844  -0.5543  -0.3268  -0.2069   0.0865   0.1564   0.2359
     0.3156   0.5175   0.6288   0.7730   0.8638   0.8857   0.8945   0.9733
     1.0282   1.1709   1.4722   1.6497   1.6541   1.7538   1.8865   2.0649
     2.1845   2.2671   2.3474   2.3871   2.5291   2.5454   2.7809   3.0043
     3.4183   3.4590   3.6996   3.7364   3.8621   3.9444   4.0424   4.1459
     4.3373   4.4552   4.5321   4.5843   4.8741   5.0191   5.0887   5.1006

          k = 0.0153-0.0440 0.0000 ( 29516 PWs)   bands (ev):

   -84.2076 -84.1801 -83.7370 -83.7095 -83.6745 -83.6471 -64.7535 -64.6849
   -64.3990 -64.3782 -64.3311 -64.3107 -43.7191 -43.6040 -43.5475 -43.4842
   -43.4275 -43.2573 -43.2274 -43.1853 -43.0118 -43.0072 -42.9608 -42.9508
   -42.9305 -42.9175 -42.8754 -42.8697 -42.7701 -42.7018 -36.8903 -36.7530
   -36.6862 -36.6385 -36.5812 -36.5250 -36.4886 -36.3092 -36.2796 -36.2744
   -36.2531 -36.2467 -36.2204 -36.1939 -36.1271 -36.0705 -35.9127 -35.8793
    -5.2156  -3.5825  -3.3882  -3.2674  -3.1642  -3.0942  -2.9252  -2.6879
    -2.6642  -2.5413  -2.4827  -2.3545  -1.9060  -1.8776  -1.7526  -1.0142
    -0.8014  -0.7556  -0.3535  -0.1428   0.0305   0.0808   0.2027   0.2203
     0.3363   0.6187   0.6344   0.6376   0.8153   0.9358   0.9942   1.0471
     1.1269   1.2478   1.5388   1.6014   1.9929   2.0872   2.0915   2.4505
     2.4799   2.6051   2.6636   2.8104   2.9652   2.9697   3.0629   3.1095
     3.7437   3.9288   3.9298   4.0847   4.2461   4.2707   4.3210   4.3430
     4.4115   4.5138   4.5140   4.9043   4.9299   5.1454   5.2455   5.3368

          k = 0.0153-0.0264 0.0000 ( 29515 PWs)   bands (ev):

   -84.2076 -84.1801 -83.7370 -83.7095 -83.6745 -83.6471 -64.7534 -64.6848
   -64.3989 -64.3780 -64.3311 -64.3106 -43.7209 -43.6062 -43.5484 -43.4872
   -43.4289 -43.2588 -43.2275 -43.1869 -43.0127 -43.0096 -42.9604 -42.9519
   -42.9335 -42.9185 -42.8763 -42.8699 -42.7702 -42.7019 -36.8864 -36.7473
   -36.6833 -36.6326 -36.5787 -36.5218 -36.4850 -36.3103 -36.2753 -36.2737
   -36.2468 -36.2459 -36.2187 -36.1906 -36.1252 -36.0700 -35.9123 -35.8789
    -5.4491  -3.7164  -3.6046  -3.4473  -3.3721  -3.2460  -3.1122  -2.8327
    -2.8308  -2.6421  -2.6169  -2.5192  -2.1336  -2.0249  -2.0093  -1.0127
    -0.8689  -0.7497  -0.1257  -0.0655   0.0226   0.0356   0.2547   0.3375
     0.3873   0.4666   0.5989   0.7765   0.8036   0.8546   1.0381   1.0704
     1.2839   1.3220   1.4253   1.8212   2.2757   2.4046   2.4122   2.6536
     2.6772   2.7783   2.8522   2.9055   2.9711   3.6116   3.7043   3.7835
     3.8227   3.9718   4.1168   4.2016   4.3632   4.4044   4.5118   4.5199
     4.8019   4.8530   4.9214   4.9268   5.2828   5.2847   5.3786   5.4959

          k = 0.0153-0.0088 0.0000 ( 29527 PWs)   bands (ev):

   -84.2076 -84.1801 -83.7370 -83.7095 -83.6745 -83.6471 -64.7533 -64.6848
   -64.3988 -64.3780 -64.3311 -64.3106 -43.7219 -43.6075 -43.5489 -43.4889
   -43.4297 -43.2597 -43.2276 -43.1878 -43.0145 -43.0096 -42.9603 -42.9525
   -42.9352 -42.9190 -42.8769 -42.8700 -42.7702 -42.7020 -36.8842 -36.7440
   -36.6817 -36.6291 -36.5772 -36.5200 -36.4830 -36.3112 -36.2736 -36.2722
   -36.2469 -36.2417 -36.2176 -36.1887 -36.1241 -36.0697 -35.9121 -35.8786
    -5.5716  -3.8073  -3.7145  -3.5298  -3.4975  -3.3222  -3.2119  -2.9157
    -2.9050  -2.6923  -2.6816  -2.6071  -2.2424  -2.1789  -2.0770  -1.0143
    -0.9093  -0.7576  -0.0841  -0.0234  -0.0084   0.0573   0.2523   0.3757
     0.4317   0.5178   0.5733   0.7760   0.7895   0.8177   1.0640   1.1215
     1.2082   1.3915   1.4981   1.9843   2.5025   2.5162   2.6187   2.6903
     2.7681   2.8124   2.9657   2.9734   3.2216   3.6538   3.7945   4.0598
     4.1553   4.1804   4.3083   4.3330   4.5095   4.5738   4.5780   4.6147
     4.8341   5.0748   5.1099   5.1421   5.1569   5.5213   5.5255   5.5605

          k = 0.0305 0.0176 0.0000 ( 29510 PWs)   bands (ev):

   -84.2062 -84.1815 -83.7356 -83.7110 -83.6731 -83.6486 -64.7499 -64.6884
   -64.3954 -64.3745 -64.3346 -64.3142 -43.6967 -43.6038 -43.5513 -43.4849
   -43.4318 -43.2535 -43.2348 -43.1631 -43.0105 -43.0070 -42.9630 -42.9546
   -42.9314 -42.9163 -42.8790 -42.8723 -42.7959 -42.7274 -36.8547 -36.7425
   -36.6867 -36.6282 -36.5816 -36.4903 -36.4537 -36.3098 -36.3046 -36.2712
   -36.2497 -36.2413 -36.2220 -36.1937 -36.1218 -36.0730 -35.9454 -35.9118
    -5.3747  -3.6103  -3.5157  -3.4693  -3.3495  -3.1587  -3.1054  -2.7957
    -2.7796  -2.5981  -2.5775  -2.5065  -2.1399  -1.9918  -1.8911  -0.9755
    -0.9035  -0.7208  -0.1917  -0.0342   0.0192   0.0732   0.1673   0.3539
     0.4007   0.4112   0.5431   0.7904   0.8303   0.8855   1.0089   1.0538
     1.3150   1.3189   1.3799   1.7366   2.2080   2.2442   2.3722   2.6263
     2.6731   2.7456   2.7694   2.8818   2.9244   3.3785   3.4815   3.6755
     3.7866   4.0576   4.1025   4.2318   4.2522   4.4170   4.4297   4.4554
     4.6736   4.6759   4.8495   4.8750   5.2751   5.3110   5.3208   5.3911

          k = 0.0305 0.0352 0.0000 ( 29505 PWs)   bands (ev):

   -84.2062 -84.1815 -83.7356 -83.7110 -83.6731 -83.6486 -64.7500 -64.6884
   -64.3955 -64.3746 -64.3346 -64.3142 -43.6953 -43.6021 -43.5507 -43.4827
   -43.4309 -43.2535 -43.2336 -43.1618 -43.0091 -43.0060 -42.9632 -42.9540
   -42.9291 -42.9155 -42.8785 -42.8722 -42.7959 -42.7274 -36.8576 -36.7468
   -36.6886 -36.6327 -36.5833 -36.4928 -36.4564 -36.3091 -36.3045 -36.2747
   -36.2496 -36.2467 -36.2232 -36.1959 -36.1233 -36.0734 -35.9455 -35.9120
    -5.1988  -3.4873  -3.3740  -3.3626  -3.1806  -3.0441  -2.9678  -2.6756
    -2.6601  -2.5093  -2.5088  -2.3665  -2.0104  -1.7943  -1.7517  -0.9895
    -0.8550  -0.7100  -0.3657  -0.1217   0.0428   0.1052   0.1676   0.2321
     0.3168   0.4357   0.6572   0.7656   0.8443   0.9192   0.9367   1.0441
     1.1975   1.2164   1.5350   1.5951   1.9673   2.0781   2.1062   2.4529
     2.5265   2.5666   2.7178   2.7726   2.9496   2.9531   2.9956   3.1904
     3.7416   3.9008   3.9647   4.1034   4.2314   4.2694   4.2900   4.3391
     4.4155   4.5060   4.5320   4.9055   4.9324   5.1676   5.2136   5.3383

          k = 0.0305 0.0527 0.0000 ( 29533 PWs)   bands (ev):

   -84.2062 -84.1815 -83.7356 -83.7110 -83.6731 -83.6486 -64.7501 -64.6885
   -64.3956 -64.3748 -64.3346 -64.3142 -43.6935 -43.5999 -43.5498 -43.4796
   -43.4296 -43.2534 -43.2320 -43.1601 -43.0095 -43.0022 -42.9636 -42.9530
   -42.9260 -42.9145 -42.8777 -42.8721 -42.7958 -42.7274 -36.8617 -36.7529
   -36.6914 -36.6387 -36.5857 -36.4962 -36.4602 -36.3088 -36.3047 -36.2786
   -36.2541 -36.2497 -36.2247 -36.1990 -36.1252 -36.0738 -35.9457 -35.9123
    -4.9241  -3.3573  -3.1923  -3.1149  -2.9650  -2.8558  -2.7590  -2.5008
    -2.4449  -2.3929  -2.3429  -2.1620  -1.7620  -1.6415  -1.4628  -0.9861
    -0.8056  -0.7271  -0.5753  -0.2900  -0.1132   0.0959   0.0968   0.2087
     0.2816   0.5074   0.6098   0.7702   0.8313   0.8507   0.9078   1.0166
     1.0652   1.1459   1.5366   1.7027   1.7058   1.7591   1.8889   2.1199
     2.2972   2.3425   2.3507   2.4894   2.5390   2.6147   2.6948   3.0166
     3.4542   3.4757   3.7992   3.8240   3.9638   3.9692   4.1702   4.3014
     4.3286   4.3845   4.4196   4.9255   4.9325   5.0704   5.0963   5.4400

          k = 0.0305 0.0703 0.0000 ( 29542 PWs)   bands (ev):

   -84.2062 -84.1815 -83.7356 -83.7110 -83.6731 -83.6486 -64.7502 -64.6885
   -64.3957 -64.3749 -64.3346 -64.3142 -43.6916 -43.5977 -43.5490 -43.4764
   -43.4283 -43.2534 -43.2303 -43.1584 -43.0103 -42.9981 -42.9640 -42.9520
   -42.9228 -42.9135 -42.8769 -42.8719 -42.7958 -42.7273 -36.8657 -36.7590
   -36.6941 -36.6445 -36.5880 -36.4995 -36.4639 -36.3091 -36.3059 -36.2813
   -36.2614 -36.2500 -36.2259 -36.2020 -36.1271 -36.0742 -35.9460 -35.9125
    -4.5849  -3.2928  -2.9574  -2.8194  -2.7361  -2.6178  -2.5085  -2.2891
    -2.2087  -2.2028  -2.0724  -1.9325  -1.4614  -1.4577  -1.3145  -0.9113
    -0.8024  -0.7802  -0.6737  -0.4841  -0.3345  -0.0334  -0.0246   0.0387
     0.3874   0.5616   0.5985   0.6389   0.6974   0.7151   0.7948   0.8281
     1.2114   1.2366   1.3918   1.4363   1.4511   1.5534   1.6164   1.7675
     1.8570   1.9715   2.2068   2.2626   2.4304   2.5125   2.6697   2.9189
     2.9227   3.1712   3.4360   3.6594   3.6964   3.8561   4.0276   4.1543
     4.2590   4.3554   4.4917   4.5972   4.9015   4.9715   4.9960   5.0465

          k = 0.0305 0.0879 0.0000 ( 29544 PWs)   bands (ev):

   -84.2062 -84.1815 -83.7356 -83.7110 -83.6730 -83.6486 -64.7503 -64.6885
   -64.3958 -64.3750 -64.3346 -64.3142 -43.6902 -43.5961 -43.5484 -43.4740
   -43.4273 -43.2533 -43.2292 -43.1572 -43.0111 -42.9949 -42.9643 -42.9513
   -42.9206 -42.9126 -42.8764 -42.8718 -42.7958 -42.7273 -36.8687 -36.7636
   -36.6962 -36.6486 -36.5896 -36.5020 -36.4666 -36.3098 -36.3072 -36.2824
   -36.2666 -36.2505 -36.2266 -36.2042 -36.1285 -36.0745 -35.9462 -35.9128
    -4.2501  -3.3311  -2.7407  -2.5658  -2.5412  -2.3821  -2.2660  -2.1575
    -1.9578  -1.8919  -1.8914  -1.6515  -1.4359  -1.3432  -1.1673  -1.0989
    -0.7784  -0.7772  -0.6836  -0.6149  -0.3081  -0.1846  -0.0475  -0.0201
     0.3361   0.3474   0.4613   0.5091   0.5958   0.6180   0.7876   0.8186
     0.8572   0.9590   1.1824   1.2756   1.2896   1.3811   1.4780   1.4949
     1.6436   2.0049   2.2031   2.2755   2.4724   2.5926   2.5929   2.6910
     2.7907   3.0667   3.2567   3.4287   3.4767   3.8422   3.9000   3.9528
     4.0502   4.2435   4.3437   4.3481   4.5973   4.7987   4.8981   5.0436

          k = 0.0305 0.1055 0.0000 ( 29536 PWs)   bands (ev):

   -84.2062 -84.1815 -83.7356 -83.7110 -83.6730 -83.6486 -64.7504 -64.6885
   -64.3958 -64.3750 -64.3346 -64.3142 -43.6897 -43.5956 -43.5482 -43.4731
   -43.4270 -43.2533 -43.2287 -43.1567 -43.0113 -42.9937 -42.9645 -42.9510
   -42.9198 -42.9122 -42.8762 -42.8717 -42.7958 -42.7273 -36.8697 -36.7653
   -36.6969 -36.6501 -36.5902 -36.5028 -36.4676 -36.3104 -36.3077 -36.2828
   -36.2683 -36.2508 -36.2268 -36.2050 -36.1290 -36.0746 -35.9462 -35.9128
    -4.0816  -3.3913  -2.6485  -2.4627  -2.4550  -2.2406  -2.1511  -2.1432
    -1.9260  -1.7434  -1.6073  -1.5199  -1.4810  -1.3443  -1.3001  -1.1273
    -0.9109  -0.8686  -0.6632  -0.4230  -0.3154  -0.0175   0.0413   0.1087
     0.1152   0.1922   0.2895   0.3091   0.4422   0.6066   0.6591   0.6843
     0.9390   0.9993   1.0869   1.1311   1.1615   1.2340   1.4025   1.4945
     1.8137   1.9066   2.2954   2.3742   2.3814   2.4111   2.5722   2.8386
     2.8609   2.9468   3.3627   3.3823   3.3936   3.7336   3.7802   3.8499
     3.8956   3.9833   4.2412   4.3467   4.6804   4.7007   4.9001   5.0474

          k = 0.0305-0.0879 0.0000 ( 29544 PWs)   bands (ev):

   -84.2062 -84.1815 -83.7356 -83.7110 -83.6730 -83.6486 -64.7503 -64.6885
   -64.3958 -64.3750 -64.3346 -64.3142 -43.6902 -43.5961 -43.5484 -43.4740
   -43.4273 -43.2533 -43.2292 -43.1572 -43.0111 -42.9949 -42.9643 -42.9513
   -42.9206 -42.9126 -42.8764 -42.8718 -42.7958 -42.7273 -36.8687 -36.7636
   -36.6962 -36.6486 -36.5896 -36.5020 -36.4666 -36.3098 -36.3072 -36.2824
   -36.2666 -36.2505 -36.2266 -36.2042 -36.1285 -36.0745 -35.9462 -35.9128
    -4.2501  -3.3311  -2.7407  -2.5658  -2.5412  -2.3821  -2.2660  -2.1575
    -1.9578  -1.8920  -1.8914  -1.6515  -1.4359  -1.3432  -1.1673  -1.0989
    -0.7784  -0.7772  -0.6836  -0.6149  -0.3081  -0.1846  -0.0475  -0.0201
     0.3361   0.3474   0.4613   0.5091   0.5958   0.6180   0.7876   0.8186
     0.8572   0.9590   1.1824   1.2756   1.2896   1.3811   1.4780   1.4949
     1.6436   2.0049   2.2031   2.2755   2.4724   2.5926   2.5929   2.6910
     2.7907   3.0667   3.2567   3.4287   3.4767   3.8422   3.9000   3.9528
     4.0502   4.2435   4.3437   4.3481   4.5973   4.7987   4.8981   5.0436

          k = 0.0305-0.0703 0.0000 ( 29542 PWs)   bands (ev):

   -84.2062 -84.1815 -83.7356 -83.7110 -83.6731 -83.6486 -64.7502 -64.6885
   -64.3957 -64.3749 -64.3346 -64.3142 -43.6916 -43.5977 -43.5490 -43.4764
   -43.4283 -43.2534 -43.2303 -43.1584 -43.0103 -42.9981 -42.9640 -42.9520
   -42.9228 -42.9135 -42.8769 -42.8719 -42.7958 -42.7273 -36.8657 -36.7590
   -36.6941 -36.6445 -36.5880 -36.4995 -36.4639 -36.3091 -36.3059 -36.2813
   -36.2614 -36.2500 -36.2259 -36.2020 -36.1271 -36.0742 -35.9460 -35.9125
    -4.5849  -3.2928  -2.9574  -2.8194  -2.7361  -2.6178  -2.5085  -2.2891
    -2.2087  -2.2028  -2.0724  -1.9325  -1.4614  -1.4577  -1.3145  -0.9113
    -0.8024  -0.7802  -0.6737  -0.4841  -0.3345  -0.0334  -0.0246   0.0387
     0.3874   0.5616   0.5985   0.6389   0.6974   0.7151   0.7948   0.8281
     1.2114   1.2366   1.3918   1.4363   1.4511   1.5534   1.6164   1.7675
     1.8570   1.9715   2.2068   2.2626   2.4304   2.5125   2.6697   2.9189
     2.9227   3.1712   3.4360   3.6594   3.6964   3.8561   4.0276   4.1543
     4.2590   4.3554   4.4917   4.5972   4.9015   4.9715   4.9960   5.0465

          k = 0.0305-0.0527 0.0000 ( 29533 PWs)   bands (ev):

   -84.2062 -84.1815 -83.7356 -83.7110 -83.6731 -83.6486 -64.7501 -64.6885
   -64.3956 -64.3748 -64.3346 -64.3142 -43.6935 -43.5999 -43.5498 -43.4796
   -43.4296 -43.2534 -43.2320 -43.1601 -43.0095 -43.0022 -42.9636 -42.9530
   -42.9260 -42.9145 -42.8777 -42.8721 -42.7958 -42.7274 -36.8617 -36.7529
   -36.6914 -36.6387 -36.5857 -36.4962 -36.4602 -36.3088 -36.3047 -36.2786
   -36.2541 -36.2497 -36.2247 -36.1990 -36.1252 -36.0738 -35.9457 -35.9123
    -4.9241  -3.3573  -3.1923  -3.1149  -2.9650  -2.8558  -2.7590  -2.5008
    -2.4449  -2.3929  -2.3429  -2.1620  -1.7620  -1.6415  -1.4628  -0.9861
    -0.8056  -0.7271  -0.5753  -0.2900  -0.1132   0.0959   0.0968   0.2087
     0.2816   0.5074   0.6098   0.7702   0.8313   0.8507   0.9078   1.0166
     1.0652   1.1459   1.5366   1.7027   1.7058   1.7591   1.8889   2.1199
     2.2972   2.3425   2.3507   2.4894   2.5390   2.6147   2.6948   3.0166
     3.4542   3.4757   3.7992   3.8240   3.9638   3.9692   4.1702   4.3014
     4.3286   4.3845   4.4196   4.9254   4.9325   5.0704   5.0963   5.4415

          k = 0.0305-0.0352 0.0000 ( 29505 PWs)   bands (ev):

   -84.2062 -84.1815 -83.7356 -83.7110 -83.6731 -83.6486 -64.7500 -64.6884
   -64.3955 -64.3746 -64.3346 -64.3142 -43.6953 -43.6021 -43.5507 -43.4827
   -43.4309 -43.2535 -43.2336 -43.1618 -43.0091 -43.0060 -42.9632 -42.9540
   -42.9291 -42.9155 -42.8785 -42.8722 -42.7959 -42.7274 -36.8576 -36.7468
   -36.6886 -36.6327 -36.5833 -36.4928 -36.4564 -36.3091 -36.3045 -36.2747
   -36.2496 -36.2467 -36.2232 -36.1959 -36.1233 -36.0734 -35.9455 -35.9120
    -5.1988  -3.4873  -3.3740  -3.3626  -3.1806  -3.0441  -2.9678  -2.6756
    -2.6601  -2.5093  -2.5088  -2.3665  -2.0104  -1.7943  -1.7517  -0.9895
    -0.8550  -0.7100  -0.3657  -0.1217   0.0428   0.1052   0.1676   0.2321
     0.3168   0.4357   0.6572   0.7656   0.8443   0.9192   0.9367   1.0441
     1.1975   1.2164   1.5350   1.5951   1.9673   2.0781   2.1062   2.4529
     2.5265   2.5666   2.7178   2.7726   2.9496   2.9531   2.9956   3.1904
     3.7416   3.9008   3.9647   4.1034   4.2314   4.2694   4.2900   4.3391
     4.4155   4.5060   4.5320   4.9055   4.9324   5.1676   5.2136   5.3383

          k = 0.0305-0.0176 0.0000 ( 29510 PWs)   bands (ev):

   -84.2062 -84.1815 -83.7356 -83.7110 -83.6731 -83.6486 -64.7499 -64.6884
   -64.3954 -64.3745 -64.3346 -64.3142 -43.6967 -43.6038 -43.5513 -43.4849
   -43.4318 -43.2535 -43.2348 -43.1631 -43.0105 -43.0070 -42.9630 -42.9546
   -42.9314 -42.9163 -42.8790 -42.8723 -42.7959 -42.7274 -36.8547 -36.7425
   -36.6867 -36.6282 -36.5816 -36.4903 -36.4537 -36.3098 -36.3046 -36.2712
   -36.2497 -36.2413 -36.2220 -36.1937 -36.1218 -36.0730 -35.9454 -35.9118
    -5.3747  -3.6103  -3.5157  -3.4693  -3.3495  -3.1587  -3.1054  -2.7957
    -2.7796  -2.5981  -2.5775  -2.5065  -2.1399  -1.9918  -1.8911  -0.9755
    -0.9035  -0.7208  -0.1917  -0.0342   0.0192   0.0732   0.1673   0.3539
     0.4007   0.4112   0.5431   0.7904   0.8303   0.8855   1.0089   1.0538
     1.3150   1.3189   1.3799   1.7366   2.2080   2.2442   2.3722   2.6263
     2.6731   2.7456   2.7694   2.8818   2.9244   3.3785   3.4815   3.6755
     3.7866   4.0576   4.1025   4.2318   4.2522   4.4170   4.4297   4.4554
     4.6736   4.6759   4.8495   4.8750   5.2751   5.3110   5.3208   5.3911

          k = 0.0305 0.0000 0.0000 ( 29517 PWs)   bands (ev):

   -84.2062 -84.1815 -83.7356 -83.7110 -83.6731 -83.6486 -64.7498 -64.6884
   -64.3953 -64.3745 -64.3346 -64.3142 -43.6972 -43.6044 -43.5515 -43.4857
   -43.4321 -43.2536 -43.2352 -43.1635 -43.0114 -43.0070 -42.9629 -42.9549
   -42.9322 -42.9166 -42.8793 -42.8723 -42.7959 -42.7274 -36.8535 -36.7410
   -36.6859 -36.6265 -36.5810 -36.4894 -36.4527 -36.3101 -36.3046 -36.2698
   -36.2498 -36.2393 -36.2215 -36.1929 -36.1212 -36.0729 -35.9453 -35.9118
    -5.4351  -3.6592  -3.5667  -3.4836  -3.4280  -3.1967  -3.1525  -2.8410
    -2.8140  -2.6253  -2.6004  -2.5567  -2.1594  -2.1007  -1.9240  -0.9710
    -0.9211  -0.7284  -0.1215  -0.0169  -0.0045   0.0570   0.1619   0.3613
     0.4001   0.5142   0.5562   0.6857   0.8167   0.8540   1.0709   1.0838
     1.3152   1.3412   1.3777   1.8095   2.2811   2.3221   2.4819   2.6287
     2.7383   2.7718   2.8369   2.8985   2.9705   3.5671   3.6594   3.7053
     3.9699   3.9746   4.0665   4.2954   4.3376   4.4172   4.4647   4.5477
     4.8043   4.8511   4.8531   4.9997   5.2737   5.2933   5.3712   5.5011

          k = 0.0458 0.0264 0.0000 ( 29507 PWs)   bands (ev):

   -84.2040 -84.1838 -83.7333 -83.7132 -83.6708 -83.6508 -64.7443 -64.6941
   -64.3899 -64.3691 -64.3403 -64.3198 -43.6565 -43.5981 -43.5552 -43.4788
   -43.4353 -43.2947 -43.1950 -43.1236 -43.0049 -43.0023 -42.9673 -42.9582
   -42.9256 -42.9120 -42.8827 -42.8760 -42.8366 -42.7678 -36.8073 -36.7398
   -36.6942 -36.6264 -36.5882 -36.4428 -36.4067 -36.3605 -36.3006 -36.2691
   -36.2543 -36.2400 -36.2285 -36.2010 -36.1181 -36.0782 -35.9978 -35.9642
    -5.0634  -3.4074  -3.3037  -3.2125  -3.1377  -2.9353  -2.9121  -2.5942
    -2.5818  -2.4718  -2.3938  -2.3388  -1.9874  -1.6896  -1.6049  -0.9411
    -0.9112  -0.6612  -0.4777  -0.1628   0.0127   0.0773   0.1595   0.2496
     0.2917   0.3011   0.7604   0.7942   0.8208   0.8889   0.9979   1.0382
     1.0862   1.1758   1.4794   1.6429   1.7653   1.9284   2.0625   2.3049
     2.4601   2.5054   2.5714   2.7248   2.7327   2.7931   2.8956   3.0461
     3.6815   3.7713   3.9094   3.9156   4.0744   4.0837   4.1568   4.3819
     4.4052   4.5471   4.5671   4.5935   4.8290   4.8729   5.1600   5.2293

          k = 0.0458 0.0440 0.0000 ( 29542 PWs)   bands (ev):

   -84.2039 -84.1838 -83.7333 -83.7132 -83.6708 -83.6508 -64.7444 -64.6941
   -64.3900 -64.3692 -64.3402 -64.3198 -43.6550 -43.5963 -43.5547 -43.4764
   -43.4346 -43.2948 -43.1937 -43.1222 -43.0049 -42.9997 -42.9675 -42.9578
   -42.9231 -42.9112 -42.8823 -42.8760 -42.8367 -42.7679 -36.8106 -36.7445
   -36.6959 -36.6311 -36.5896 -36.4456 -36.4098 -36.3604 -36.3000 -36.2725
   -36.2542 -36.2458 -36.2294 -36.2029 -36.1197 -36.0784 -35.9977 -35.9640
    -4.8460  -3.3300  -3.1649  -3.0420  -2.9646  -2.7744  -2.7601  -2.4589
    -2.4049  -2.3546  -2.3141  -2.1564  -1.8374  -1.4900  -1.4358  -0.9523
    -0.8641  -0.6534  -0.6410  -0.3333  -0.1085  -0.0284   0.1245   0.1986
     0.3145   0.4226   0.7081   0.7763   0.8339   0.8792   0.8869   0.9850
     1.0714   1.1666   1.4548   1.5314   1.6942   1.8024   1.9078   2.0779
     2.1838   2.2071   2.3286   2.4425   2.5094   2.6760   2.6998   2.9635
     3.4469   3.4583   3.6920   3.7384   3.8896   3.9377   4.0102   4.1217
     4.3846   4.4144   4.5433   4.5837   4.8645   5.0308   5.0800   5.1406

          k = 0.0458 0.0615 0.0000 ( 29570 PWs)   bands (ev):

   -84.2039 -84.1838 -83.7333 -83.7132 -83.6708 -83.6508 -64.7445 -64.6942
   -64.3901 -64.3693 -64.3402 -64.3198 -43.6533 -43.5943 -43.5541 -43.4736
   -43.4337 -43.2949 -43.1922 -43.1206 -43.0056 -42.9959 -42.9678 -42.9573
   -42.9202 -42.9102 -42.8819 -42.8760 -42.8369 -42.7681 -36.8144 -36.7499
   -36.6979 -36.6364 -36.5912 -36.4488 -36.4133 -36.3604 -36.3003 -36.2755
   -36.2543 -36.2525 -36.2304 -36.2050 -36.1214 -36.0786 -35.9976 -35.9640
    -4.5452  -3.1916  -3.0653  -2.7935  -2.7536  -2.5664  -2.5406  -2.2682
    -2.2255  -2.1883  -2.0878  -1.9320  -1.5799  -1.3538  -1.3397  -0.8980
    -0.7789  -0.7632  -0.7080  -0.5161  -0.2618  -0.1941  -0.0157   0.0521
     0.3954   0.5274   0.6083   0.6648   0.7159   0.7317   0.7722   0.8090
     1.2136   1.2422   1.3616   1.3678   1.5205   1.5966   1.5978   1.7698
     1.8470   1.9754   2.2315   2.2646   2.4191   2.5667   2.6162   2.9005
     2.9265   3.1798   3.4231   3.6724   3.7106   3.8483   4.0165   4.1328
     4.2932   4.3325   4.4973   4.5933   4.9339   4.9553   5.0012   5.0162

          k = 0.0458 0.0791 0.0000 ( 29556 PWs)   bands (ev):

   -84.2039 -84.1838 -83.7333 -83.7132 -83.6708 -83.6508 -64.7446 -64.6942
   -64.3902 -64.3694 -64.3402 -64.3198 -43.6517 -43.5926 -43.5537 -43.4710
   -43.4329 -43.2950 -43.1908 -43.1192 -43.0063 -42.9925 -42.9681 -42.9568
   -42.9176 -42.9093 -42.8816 -42.8760 -42.8370 -42.7682 -36.8176 -36.7547
   -36.6997 -36.6408 -36.5926 -36.4514 -36.4162 -36.3604 -36.3015 -36.2772
   -36.2580 -36.2546 -36.2312 -36.2070 -36.1230 -36.0788 -35.9975 -35.9639
    -4.2034  -3.0704  -3.0343  -2.5319  -2.5249  -2.3198  -2.2896  -2.0508
    -2.0190  -1.9896  -1.8386  -1.6719  -1.4998  -1.2216  -1.2104  -1.0833
    -0.8732  -0.8400  -0.6297  -0.5940  -0.2750  -0.2727  -0.1529  -0.1134
     0.2838   0.3981   0.3996   0.4701   0.5553   0.6635   0.7940   0.8063
     0.8414   0.8845   1.2292   1.3203   1.3907   1.4010   1.4933   1.5507
     1.6151   2.1047   2.1730   2.2949   2.4416   2.5708   2.6148   2.6183
     2.7739   3.1320   3.3559   3.4610   3.5269   3.9412   4.0309   4.1501
     4.1853   4.2230   4.4449   4.6379   4.6496   4.8756   4.9500   4.9556

          k = 0.0458 0.0967 0.0000 ( 29558 PWs)   bands (ev):

   -84.2039 -84.1838 -83.7333 -83.7132 -83.6708 -83.6508 -64.7447 -64.6942
   -64.3902 -64.3695 -64.3402 -64.3198 -43.6508 -43.5916 -43.5534 -43.4695
   -43.4325 -43.2951 -43.1901 -43.1184 -43.0068 -42.9905 -42.9683 -42.9566
   -42.9163 -42.9087 -42.8814 -42.8760 -42.8371 -42.7683 -36.8194 -36.7575
   -36.7008 -36.6434 -36.5935 -36.4529 -36.4179 -36.3604 -36.3027 -36.2778
   -36.2611 -36.2548 -36.2316 -36.2081 -36.1238 -36.0789 -35.9975 -35.9639
    -3.9200  -3.1647  -2.9255  -2.3658  -2.3382  -2.0984  -2.0695  -1.9626
    -1.8216  -1.7529  -1.6853  -1.6206  -1.3721  -1.2972  -1.2252  -1.2219
    -1.0645  -0.8267  -0.5909  -0.4660  -0.2815  -0.2298  -0.1237  -0.0365
     0.0610   0.0849   0.1640   0.2792   0.2810   0.4039   0.6381   0.7112
     0.9329   1.0065   1.0553   1.1439   1.2791   1.3338   1.3747   1.5260
     1.6883   1.9981   2.1171   2.4172   2.4719   2.5518   2.6079   2.6757
     2.8735   3.0680   3.3073   3.3867   3.8211   3.9753   3.9979   4.0221
     4.1400   4.1480   4.2237   4.3732   4.4909   4.6226   4.6444   4.8167

          k = 0.0458 0.1143 0.0000 ( 29558 PWs)   bands (ev):

   -84.2039 -84.1838 -83.7333 -83.7132 -83.6708 -83.6508 -64.7447 -64.6942
   -64.3902 -64.3695 -64.3402 -64.3198 -43.6508 -43.5916 -43.5534 -43.4695
   -43.4325 -43.2951 -43.1901 -43.1184 -43.0068 -42.9905 -42.9683 -42.9566
   -42.9163 -42.9087 -42.8814 -42.8760 -42.8371 -42.7683 -36.8194 -36.7575
   -36.7008 -36.6434 -36.5935 -36.4529 -36.4179 -36.3604 -36.3027 -36.2778
   -36.2611 -36.2548 -36.2316 -36.2081 -36.1238 -36.0789 -35.9975 -35.9639
    -3.9200  -3.1647  -2.9255  -2.3658  -2.3382  -2.0984  -2.0695  -1.9626
    -1.8216  -1.7529  -1.6853  -1.6206  -1.3721  -1.2972  -1.2252  -1.2219
    -1.0645  -0.8267  -0.5909  -0.4660  -0.2815  -0.2298  -0.1237  -0.0365
     0.0610   0.0849   0.1640   0.2792   0.2810   0.4039   0.6381   0.7112
     0.9329   1.0065   1.0553   1.1439   1.2791   1.3338   1.3747   1.5260
     1.6883   1.9981   2.1171   2.4172   2.4719   2.5518   2.6079   2.6757
     2.8735   3.0680   3.3073   3.3867   3.8211   3.9753   3.9979   4.0221
     4.1400   4.1480   4.2237   4.3732   4.4909   4.6226   4.6444   4.8166

          k = 0.0458-0.0791 0.0000 ( 29556 PWs)   bands (ev):

   -84.2039 -84.1838 -83.7333 -83.7132 -83.6708 -83.6508 -64.7446 -64.6942
   -64.3902 -64.3694 -64.3402 -64.3198 -43.6517 -43.5926 -43.5537 -43.4710
   -43.4329 -43.2950 -43.1908 -43.1192 -43.0063 -42.9925 -42.9681 -42.9568
   -42.9176 -42.9093 -42.8816 -42.8760 -42.8370 -42.7682 -36.8176 -36.7547
   -36.6997 -36.6408 -36.5926 -36.4514 -36.4162 -36.3604 -36.3015 -36.2772
   -36.2580 -36.2546 -36.2312 -36.2070 -36.1230 -36.0788 -35.9975 -35.9639
    -4.2034  -3.0704  -3.0343  -2.5319  -2.5249  -2.3198  -2.2896  -2.0508
    -2.0190  -1.9896  -1.8386  -1.6719  -1.4998  -1.2216  -1.2104  -1.0833
    -0.8732  -0.8400  -0.6297  -0.5940  -0.2750  -0.2727  -0.1529  -0.1134
     0.2838   0.3981   0.3996   0.4701   0.5553   0.6635   0.7940   0.8063
     0.8414   0.8845   1.2292   1.3203   1.3907   1.4010   1.4933   1.5507
     1.6151   2.1047   2.1730   2.2949   2.4416   2.5708   2.6148   2.6183
     2.7739   3.1320   3.3559   3.4610   3.5269   3.9412   4.0309   4.1501
     4.1853   4.2230   4.4449   4.6379   4.6496   4.8756   4.9500   4.9556

          k = 0.0458-0.0615 0.0000 ( 29570 PWs)   bands (ev):

   -84.2039 -84.1838 -83.7333 -83.7132 -83.6708 -83.6508 -64.7445 -64.6942
   -64.3901 -64.3693 -64.3402 -64.3198 -43.6533 -43.5943 -43.5541 -43.4736
   -43.4337 -43.2949 -43.1922 -43.1206 -43.0056 -42.9959 -42.9678 -42.9573
   -42.9202 -42.9102 -42.8819 -42.8760 -42.8369 -42.7681 -36.8144 -36.7499
   -36.6979 -36.6364 -36.5912 -36.4488 -36.4133 -36.3604 -36.3003 -36.2755
   -36.2543 -36.2524 -36.2304 -36.2050 -36.1214 -36.0786 -35.9976 -35.9640
    -4.5452  -3.1916  -3.0653  -2.7935  -2.7536  -2.5664  -2.5406  -2.2682
    -2.2255  -2.1883  -2.0878  -1.9320  -1.5799  -1.3538  -1.3397  -0.8980
    -0.7789  -0.7632  -0.7080  -0.5161  -0.2618  -0.1941  -0.0157   0.0521
     0.3954   0.5274   0.6083   0.6648   0.7159   0.7317   0.7722   0.8090
     1.2136   1.2422   1.3616   1.3678   1.5205   1.5966   1.5978   1.7698
     1.8470   1.9754   2.2315   2.2646   2.4191   2.5667   2.6162   2.9005
     2.9265   3.1798   3.4231   3.6724   3.7106   3.8483   4.0165   4.1328
     4.2932   4.3325   4.4973   4.5933   4.9339   4.9553   5.0012   5.0162

          k = 0.0458-0.0440 0.0000 ( 29542 PWs)   bands (ev):

   -84.2039 -84.1838 -83.7333 -83.7132 -83.6708 -83.6508 -64.7444 -64.6941
   -64.3900 -64.3692 -64.3402 -64.3198 -43.6550 -43.5963 -43.5547 -43.4764
   -43.4346 -43.2948 -43.1937 -43.1222 -43.0049 -42.9997 -42.9675 -42.9578
   -42.9231 -42.9112 -42.8823 -42.8760 -42.8367 -42.7679 -36.8106 -36.7445
   -36.6959 -36.6311 -36.5896 -36.4456 -36.4098 -36.3604 -36.3000 -36.2725
   -36.2542 -36.2458 -36.2294 -36.2029 -36.1197 -36.0784 -35.9977 -35.9640
    -4.8460  -3.3300  -3.1649  -3.0420  -2.9646  -2.7744  -2.7601  -2.4589
    -2.4049  -2.3546  -2.3141  -2.1564  -1.8374  -1.4900  -1.4358  -0.9523
    -0.8641  -0.6534  -0.6410  -0.3333  -0.1085  -0.0284   0.1245   0.1986
     0.3145   0.4226   0.7081   0.7763   0.8339   0.8792   0.8869   0.9850
     1.0714   1.1666   1.4548   1.5314   1.6942   1.8024   1.9078   2.0779
     2.1838   2.2071   2.3286   2.4425   2.5094   2.6760   2.6998   2.9635
     3.4469   3.4583   3.6920   3.7384   3.8896   3.9377   4.0102   4.1217
     4.3846   4.4144   4.5433   4.5837   4.8645   5.0308   5.0800   5.1406

          k = 0.0458-0.0264 0.0000 ( 29507 PWs)   bands (ev):

   -84.2040 -84.1838 -83.7333 -83.7132 -83.6708 -83.6508 -64.7443 -64.6941
   -64.3899 -64.3691 -64.3403 -64.3198 -43.6565 -43.5981 -43.5552 -43.4788
   -43.4353 -43.2947 -43.1950 -43.1236 -43.0049 -43.0023 -42.9673 -42.9582
   -42.9256 -42.9120 -42.8827 -42.8760 -42.8366 -42.7678 -36.8073 -36.7398
   -36.6942 -36.6264 -36.5882 -36.4428 -36.4067 -36.3605 -36.3006 -36.2691
   -36.2543 -36.2400 -36.2285 -36.2010 -36.1181 -36.0782 -35.9978 -35.9642
    -5.0634  -3.4074  -3.3037  -3.2125  -3.1377  -2.9353  -2.9121  -2.5942
    -2.5818  -2.4718  -2.3938  -2.3388  -1.9874  -1.6896  -1.6049  -0.9411
    -0.9112  -0.6612  -0.4777  -0.1628   0.0127   0.0773   0.1595   0.2496
     0.2917   0.3011   0.7604   0.7942   0.8208   0.8889   0.9979   1.0382
     1.0862   1.1758   1.4794   1.6429   1.7653   1.9284   2.0625   2.3049
     2.4601   2.5054   2.5714   2.7248   2.7327   2.7931   2.8956   3.0461
     3.6815   3.7713   3.9094   3.9156   4.0744   4.0837   4.1568   4.3819
     4.4052   4.5471   4.5671   4.5935   4.8290   4.8729   5.1600   5.2294

          k = 0.0458-0.0088 0.0000 ( 29524 PWs)   bands (ev):

   -84.2040 -84.1838 -83.7333 -83.7132 -83.6708 -83.6508 -64.7442 -64.6941
   -64.3898 -64.3690 -64.3403 -64.3198 -43.6574 -43.5992 -43.5555 -43.4802
   -43.4358 -43.2946 -43.1958 -43.1244 -43.0059 -43.0028 -42.9672 -42.9585
   -42.9270 -42.9125 -42.8829 -42.8760 -42.8365 -42.7678 -36.8053 -36.7372
   -36.6932 -36.6236 -36.5874 -36.4412 -36.4049 -36.3606 -36.3013 -36.2669
   -36.2543 -36.2366 -36.2280 -36.1999 -36.1172 -36.0781 -35.9979 -35.9643
    -5.1767  -3.4153  -3.3932  -3.2998  -3.2632  -3.0218  -2.9878  -2.6920
    -2.6420  -2.5172  -2.4466  -2.4326  -2.0165  -1.8953  -1.6653  -0.9397
    -0.9143  -0.6834  -0.3780  -0.0397   0.0224   0.0930   0.1571   0.1945
     0.2862   0.4329   0.6345   0.6948   0.8281   0.9236   1.0407   1.0584
     1.1224   1.2469   1.5481   1.5887   1.9117   2.0038   2.2222   2.4533
     2.5498   2.5873   2.7038   2.7390   2.7817   2.9599   3.0404   3.3080
     3.7334   3.8341   4.0355   4.1281   4.2354   4.2404   4.3101   4.3404
     4.4096   4.4437   4.5916   4.9060   4.9234   5.1628   5.2146   5.3314

          k = 0.0458 0.0088 0.0000 ( 29524 PWs)   bands (ev):

   -84.2040 -84.1838 -83.7333 -83.7132 -83.6708 -83.6508 -64.7442 -64.6941
   -64.3898 -64.3690 -64.3403 -64.3198 -43.6574 -43.5992 -43.5555 -43.4802
   -43.4358 -43.2946 -43.1958 -43.1244 -43.0059 -43.0028 -42.9672 -42.9585
   -42.9270 -42.9125 -42.8829 -42.8760 -42.8365 -42.7678 -36.8053 -36.7372
   -36.6932 -36.6236 -36.5874 -36.4412 -36.4049 -36.3606 -36.3013 -36.2669
   -36.2543 -36.2366 -36.2280 -36.1999 -36.1172 -36.0781 -35.9979 -35.9643
    -5.1767  -3.4153  -3.3932  -3.2998  -3.2632  -3.0218  -2.9878  -2.6920
    -2.6420  -2.5172  -2.4466  -2.4326  -2.0165  -1.8953  -1.6653  -0.9397
    -0.9143  -0.6834  -0.3780  -0.0397   0.0224   0.0930   0.1571   0.1945
     0.2862   0.4329   0.6345   0.6948   0.8281   0.9235   1.0407   1.0584
     1.1224   1.2469   1.5481   1.5887   1.9117   2.0038   2.2222   2.4533
     2.5498   2.5873   2.7038   2.7390   2.7817   2.9599   3.0404   3.3080
     3.7334   3.8341   4.0355   4.1281   4.2354   4.2404   4.3101   4.3404
     4.4096   4.4437   4.5916   4.9060   4.9234   5.1628   5.2146   5.3314

          k = 0.0610 0.0352 0.0000 ( 29579 PWs)   bands (ev):

   -84.2010 -84.1867 -83.7304 -83.7162 -83.6679 -83.6537 -64.7370 -64.7015
   -64.3827 -64.3619 -64.3476 -64.3271 -43.6041 -43.5910 -43.5605 -43.4713
   -43.4404 -43.3481 -43.1432 -43.0721 -42.9992 -42.9950 -42.9729 -42.9633
   -42.9183 -42.9065 -42.8893 -42.8878 -42.8810 -42.8203 -36.7450 -36.7356
   -36.7031 -36.6232 -36.5959 -36.4286 -36.3803 -36.3448 -36.2931 -36.2656
   -36.2604 -36.2375 -36.2362 -36.2096 -36.1131 -36.0848 -36.0652 -36.0315
    -4.6666  -3.4074  -2.9495  -2.9135  -2.8467  -2.7150  -2.6308  -2.3404
    -2.3237  -2.2965  -2.1642  -2.1248  -1.7890  -1.3583  -1.3019  -0.8950
    -0.8853  -0.7632  -0.6100  -0.4446  -0.2074  -0.1873   0.1385   0.1790
     0.4087   0.4178   0.7134   0.7199   0.7833   0.8077   0.9637   0.9867
     1.0470   1.2475   1.2604   1.3894   1.5904   1.7214   1.7870   1.9626
     2.0013   2.0293   2.2602   2.3305   2.3585   2.6472   2.7736   2.9249
     3.2634   3.4124   3.4243   3.6761   3.7446   3.7853   3.7946   3.9195
     4.1528   4.3538   4.4095   4.4333   4.9000   4.9427   5.0367   5.2261

          k = 0.0610 0.0527 0.0000 ( 29569 PWs)   bands (ev):

   -84.2010 -84.1867 -83.7304 -83.7162 -83.6679 -83.6537 -64.7371 -64.7015
   -64.3828 -64.3620 -64.3476 -64.3270 -43.6026 -43.5893 -43.5604 -43.4690
   -43.4400 -43.3484 -43.1419 -43.0707 -42.9997 -42.9920 -42.9730 -42.9634
   -42.9160 -42.9057 -42.8897 -42.8879 -42.8811 -42.8206 -36.7482 -36.7398
   -36.7040 -36.6274 -36.5965 -36.4280 -36.3830 -36.3478 -36.2929 -36.2683
   -36.2603 -36.2427 -36.2366 -36.2104 -36.1145 -36.0847 -36.0647 -36.0309
    -4.4270  -3.3902  -2.8231  -2.7537  -2.7103  -2.5614  -2.4608  -2.2070
    -2.2068  -2.0807  -2.0749  -1.9212  -1.6299  -1.2987  -1.2064  -0.9363
    -0.7933  -0.7290  -0.6617  -0.6120  -0.3612  -0.3233   0.0536   0.1244
     0.4800   0.5071   0.5819   0.6761   0.6979   0.7708   0.8011   0.8782
     1.1416   1.1724   1.3063   1.3402   1.3993   1.5450   1.5610   1.5952
     1.8495   1.8627   2.2207   2.3039   2.3869   2.5590   2.7275   2.8881
     2.8902   3.1711   3.2377   3.5267   3.6416   3.7312   3.7820   3.8550
     4.0184   4.3028   4.3701   4.3992   4.7536   4.9577   5.1613   5.1619

          k = 0.0610 0.0703 0.0000 ( 29543 PWs)   bands (ev):

   -84.2010 -84.1867 -83.7304 -83.7162 -83.6679 -83.6537 -64.7372 -64.7016
   -64.3828 -64.3621 -64.3475 -64.3270 -43.6011 -43.5878 -43.5602 -43.4667
   -43.4397 -43.3488 -43.1405 -43.0693 -43.0003 -42.9889 -42.9732 -42.9635
   -42.9137 -42.9049 -42.8901 -42.8879 -42.8813 -42.8210 -36.7512 -36.7440
   -36.7050 -36.6315 -36.5971 -36.4275 -36.3856 -36.3506 -36.2935 -36.2702
   -36.2604 -36.2477 -36.2371 -36.2113 -36.1159 -36.0846 -36.0642 -36.0304
    -4.1223  -3.3361  -2.7867  -2.5427  -2.5155  -2.3767  -2.2471  -2.0460
    -2.0255  -1.9413  -1.8764  -1.6602  -1.4671  -1.3070  -1.1649  -1.0667
    -0.8502  -0.8231  -0.7116  -0.6019  -0.4713  -0.2362  -0.0676  -0.0001
     0.2551   0.4698   0.4875   0.5214   0.5350   0.6544   0.7034   0.8144
     0.8898   0.9344   1.2010   1.2627   1.3577   1.3795   1.4769   1.4916
     1.6804   2.0239   2.1393   2.3971   2.4285   2.5496   2.6117   2.7096
     2.7818   3.0278   3.3066   3.3483   3.5512   3.8497   3.8782   3.9273
     4.0392   4.2751   4.3219   4.3361   4.5925   4.7994   4.9530   4.9847

          k = 0.0610 0.0879 0.0000 ( 29537 PWs)   bands (ev):

   -84.2010 -84.1868 -83.7304 -83.7162 -83.6679 -83.6538 -64.7373 -64.7016
   -64.3829 -64.3622 -64.3475 -64.3270 -43.6000 -43.5866 -43.5601 -43.4650
   -43.4395 -43.3491 -43.1395 -43.0683 -43.0008 -42.9865 -42.9733 -42.9636
   -42.9120 -42.9042 -42.8903 -42.8880 -42.8814 -42.8213 -36.7532 -36.7471
   -36.7058 -36.6343 -36.5977 -36.4272 -36.3874 -36.3526 -36.2944 -36.2711
   -36.2604 -36.2513 -36.2375 -36.2121 -36.1169 -36.0845 -36.0639 -36.0301
    -3.8065  -3.2781  -2.8779  -2.3278  -2.3180  -2.1555  -2.0152  -1.8523
    -1.8196  -1.8045  -1.7640  -1.6677  -1.3265  -1.3079  -1.1855  -1.1620
    -0.9414  -0.9117  -0.7440  -0.6645  -0.3890  -0.1596  -0.1119  -0.0063
     0.0557   0.1397   0.1528   0.2625   0.2906   0.4093   0.6441   0.7118
     0.9607   1.0465   1.0477   1.1306   1.2257   1.3426   1.4479   1.4864
     1.7134   1.9593   2.1709   2.4138   2.4522   2.5446   2.6156   2.6929
     2.8372   3.1219   3.2724   3.3884   3.8362   3.9703   3.9981   3.9993
     4.1231   4.1816   4.2007   4.3637   4.4822   4.6241   4.6769   4.7871

          k = 0.0610 0.1055 0.0000 ( 29550 PWs)   bands (ev):

   -84.2010 -84.1868 -83.7304 -83.7162 -83.6679 -83.6538 -64.7373 -64.7016
   -64.3829 -64.3622 -64.3475 -64.3270 -43.5995 -43.5862 -43.5601 -43.4644
   -43.4395 -43.3493 -43.1392 -43.0679 -43.0010 -42.9856 -42.9734 -42.9637
   -42.9114 -42.9039 -42.8904 -42.8881 -42.8814 -42.8215 -36.7539 -36.7482
   -36.7061 -36.6353 -36.5979 -36.4271 -36.3880 -36.3533 -36.2949 -36.2714
   -36.2605 -36.2526 -36.2377 -36.2124 -36.1173 -36.0845 -36.0638 -36.0300
    -3.6365  -3.2531  -2.9707  -2.2295  -2.2234  -1.9983  -1.8847  -1.8257
    -1.7643  -1.7195  -1.6349  -1.6341  -1.5072  -1.4740  -1.2551  -1.0584
    -0.9339  -0.9167  -0.5682  -0.5361  -0.3174  -0.2716  -0.2497  -0.1885
    -0.1688  -0.0214   0.0811   0.1486   0.3075   0.3659   0.7311   0.7760
     0.8190   0.8535   1.1426   1.2190   1.2577   1.3524   1.3538   1.3695
     1.8423   1.8884   2.0043   2.4746   2.5386   2.5959   2.6325   2.7710
     2.9661   3.0099   3.0207   3.9613   3.9899   4.0282   4.0542   4.1130
     4.1526   4.2012   4.2580   4.3598   4.3747   4.4211   4.4992   4.5296

          k = 0.0610 0.1231 0.0000 ( 29537 PWs)   bands (ev):

   -84.2010 -84.1868 -83.7304 -83.7162 -83.6679 -83.6538 -64.7373 -64.7016
   -64.3829 -64.3622 -64.3475 -64.3270 -43.6000 -43.5866 -43.5601 -43.4650
   -43.4395 -43.3491 -43.1395 -43.0683 -43.0008 -42.9865 -42.9733 -42.9636
   -42.9120 -42.9042 -42.8903 -42.8880 -42.8814 -42.8213 -36.7532 -36.7471
   -36.7058 -36.6343 -36.5977 -36.4272 -36.3874 -36.3526 -36.2944 -36.2711
   -36.2604 -36.2513 -36.2375 -36.2121 -36.1169 -36.0845 -36.0639 -36.0301
    -3.8065  -3.2781  -2.8779  -2.3278  -2.3180  -2.1555  -2.0152  -1.8523
    -1.8196  -1.8045  -1.7640  -1.6677  -1.3265  -1.3079  -1.1855  -1.1620
    -0.9414  -0.9117  -0.7440  -0.6645  -0.3890  -0.1596  -0.1119  -0.0063
     0.0557   0.1397   0.1528   0.2625   0.2906   0.4093   0.6441   0.7118
     0.9607   1.0465   1.0477   1.1306   1.2257   1.3426   1.4479   1.4864
     1.7134   1.9593   2.1709   2.4138   2.4522   2.5446   2.6156   2.6929
     2.8372   3.1219   3.2724   3.3884   3.8362   3.9703   3.9981   3.9993
     4.1231   4.1816   4.2007   4.3637   4.4822   4.6241   4.6769   4.7871

          k = 0.0610-0.0703 0.0000 ( 29543 PWs)   bands (ev):

   -84.2010 -84.1867 -83.7304 -83.7162 -83.6679 -83.6537 -64.7372 -64.7016
   -64.3828 -64.3621 -64.3475 -64.3270 -43.6011 -43.5878 -43.5602 -43.4667
   -43.4397 -43.3488 -43.1405 -43.0693 -43.0003 -42.9889 -42.9732 -42.9635
   -42.9137 -42.9049 -42.8901 -42.8879 -42.8813 -42.8210 -36.7512 -36.7440
   -36.7050 -36.6315 -36.5971 -36.4275 -36.3856 -36.3506 -36.2935 -36.2702
   -36.2604 -36.2477 -36.2371 -36.2113 -36.1159 -36.0846 -36.0642 -36.0304
    -4.1223  -3.3361  -2.7867  -2.5427  -2.5155  -2.3767  -2.2471  -2.0460
    -2.0255  -1.9413  -1.8764  -1.6602  -1.4671  -1.3070  -1.1649  -1.0667
    -0.8502  -0.8231  -0.7116  -0.6019  -0.4713  -0.2362  -0.0676  -0.0001
     0.2551   0.4698   0.4875   0.5214   0.5350   0.6544   0.7034   0.8144
     0.8898   0.9344   1.2010   1.2627   1.3577   1.3795   1.4769   1.4916
     1.6804   2.0239   2.1393   2.3971   2.4285   2.5496   2.6117   2.7096
     2.7818   3.0278   3.3066   3.3483   3.5512   3.8497   3.8782   3.9273
     4.0392   4.2751   4.3219   4.3361   4.5925   4.7994   4.9530   4.9847

          k = 0.0610-0.0527 0.0000 ( 29569 PWs)   bands (ev):

   -84.2010 -84.1867 -83.7304 -83.7162 -83.6679 -83.6537 -64.7371 -64.7015
   -64.3828 -64.3620 -64.3476 -64.3270 -43.6026 -43.5893 -43.5604 -43.4690
   -43.4400 -43.3484 -43.1419 -43.0707 -42.9997 -42.9920 -42.9730 -42.9634
   -42.9160 -42.9057 -42.8897 -42.8879 -42.8811 -42.8206 -36.7482 -36.7398
   -36.7040 -36.6274 -36.5965 -36.4280 -36.3830 -36.3478 -36.2929 -36.2683
   -36.2603 -36.2427 -36.2366 -36.2104 -36.1145 -36.0847 -36.0647 -36.0309
    -4.4270  -3.3902  -2.8231  -2.7537  -2.7103  -2.5614  -2.4608  -2.2070
    -2.2068  -2.0807  -2.0749  -1.9212  -1.6299  -1.2987  -1.2064  -0.9363
    -0.7933  -0.7290  -0.6617  -0.6120  -0.3612  -0.3233   0.0536   0.1244
     0.4800   0.5071   0.5819   0.6761   0.6979   0.7708   0.8011   0.8782
     1.1416   1.1724   1.3063   1.3402   1.3993   1.5450   1.5610   1.5952
     1.8495   1.8627   2.2207   2.3039   2.3869   2.5590   2.7275   2.8881
     2.8902   3.1711   3.2377   3.5267   3.6416   3.7312   3.7820   3.8550
     4.0184   4.3028   4.3701   4.3992   4.7536   4.9577   5.1613   5.1619

          k = 0.0610-0.0352 0.0000 ( 29579 PWs)   bands (ev):

   -84.2010 -84.1867 -83.7304 -83.7162 -83.6679 -83.6537 -64.7370 -64.7015
   -64.3827 -64.3619 -64.3476 -64.3271 -43.6041 -43.5910 -43.5605 -43.4713
   -43.4404 -43.3481 -43.1432 -43.0721 -42.9992 -42.9950 -42.9729 -42.9633
   -42.9183 -42.9065 -42.8893 -42.8878 -42.8810 -42.8203 -36.7450 -36.7356
   -36.7031 -36.6232 -36.5959 -36.4286 -36.3803 -36.3448 -36.2931 -36.2656
   -36.2604 -36.2375 -36.2362 -36.2096 -36.1131 -36.0848 -36.0652 -36.0315
    -4.6666  -3.4074  -2.9495  -2.9135  -2.8467  -2.7150  -2.6308  -2.3404
    -2.3237  -2.2965  -2.1642  -2.1248  -1.7890  -1.3583  -1.3019  -0.8950
    -0.8853  -0.7632  -0.6100  -0.4446  -0.2074  -0.1873   0.1385   0.1790
     0.4087   0.4178   0.7134   0.7199   0.7833   0.8077   0.9637   0.9867
     1.0470   1.2475   1.2604   1.3894   1.5904   1.7214   1.7870   1.9626
     2.0013   2.0293   2.2602   2.3305   2.3585   2.6472   2.7736   2.9249
     3.2634   3.4124   3.4243   3.6761   3.7446   3.7853   3.7946   3.9195
[...]
     2.9126   3.0875   3.2960   3.3845   3.8216   3.9751   3.9850   4.0062
     4.1017   4.1647   4.2290   4.3659   4.4963   4.6087   4.6839   4.7836

          k = 0.0763 0.1319 0.0000 ( 29534 PWs)   bands (ev):

   -84.1975 -84.1902 -83.7270 -83.7196 -83.6645 -83.6572 -64.7287 -64.7101
   -64.3744 -64.3560 -64.3537 -64.3354 -43.5807 -43.5679 -43.5402 -43.4597
   -43.4474 -43.4113 -43.0804 -43.0097 -42.9942 -42.9820 -42.9792 -42.9713
   -42.9518 -42.9068 -42.8988 -42.8955 -42.8875 -42.8821 -36.7353 -36.7126
   -36.6754 -36.6241 -36.6029 -36.5045 -36.3108 -36.2855 -36.2778 -36.2660
   -36.2632 -36.2438 -36.2401 -36.2171 -36.1409 -36.1093 -36.1062 -36.0912
    -3.7246  -3.6392  -2.6525  -2.4063  -2.3831  -2.2558  -2.1379  -1.9777
    -1.8960  -1.8755  -1.7186  -1.5322  -1.3951  -1.3704  -1.1872  -1.1504
    -0.9812  -0.9304  -0.7017  -0.5611  -0.4381  -0.0749  -0.0374   0.0283
     0.0558   0.1259   0.2716   0.3841   0.4904   0.6350   0.6536   0.6962
     1.0130   1.0497   1.1204   1.1393   1.1646   1.1738   1.4531   1.4949
     1.8597   1.9178   2.3144   2.3186   2.3886   2.5168   2.5263   2.7543
     2.9121   2.9732   3.3522   3.3821   3.3954   3.7436   3.7571   3.8316
     3.9263   3.9265   4.2711   4.3184   4.6848   4.6920   4.9634   4.9791

          k = 0.0763-0.0615 0.0000 ( 29543 PWs)   bands (ev):

   -84.1976 -84.1902 -83.7270 -83.7196 -83.6645 -83.6572 -64.7286 -64.7101
   -64.3743 -64.3561 -64.3537 -64.3355 -43.5818 -43.5677 -43.5413 -43.4613
   -43.4471 -43.4106 -43.0814 -43.0109 -42.9937 -42.9843 -42.9791 -42.9706
   -42.9511 -42.9085 -42.8995 -42.8949 -42.8872 -42.8814 -36.7327 -36.7130
   -36.6733 -36.6217 -36.6032 -36.5054 -36.3092 -36.2850 -36.2764 -36.2658
   -36.2621 -36.2436 -36.2371 -36.2173 -36.1417 -36.1091 -36.1061 -36.0916
    -3.9999  -3.6068  -2.6301  -2.5893  -2.4404  -2.3797  -2.2712  -2.0939
    -1.9958  -1.9466  -1.8136  -1.6480  -1.4312  -1.2724  -1.2106  -1.1656
    -0.8575  -0.8098  -0.6360  -0.6325  -0.4949  -0.2610   0.1035   0.1042
     0.2998   0.4812   0.5006   0.6099   0.6147   0.6756   0.6906   0.7417
     0.9860   1.0231   1.1267   1.1951   1.2417   1.2713   1.3682   1.4143
     1.8309   2.0326   2.1031   2.4106   2.4205   2.4438   2.6206   2.8149
     2.8623   2.9223   3.1715   3.3216   3.4234   3.5048   3.6119   3.6857
     3.7549   3.9091   4.3667   4.3934   4.8358   4.8944   5.1735   5.1832

          k = 0.0763-0.0440 0.0000 ( 29573 PWs)   bands (ev):

   -84.1976 -84.1902 -83.7270 -83.7196 -83.6645 -83.6572 -64.7285 -64.7102
   -64.3743 -64.3561 -64.3536 -64.3355 -43.5830 -43.5674 -43.5426 -43.4630
   -43.4468 -43.4100 -43.0826 -43.0121 -42.9933 -42.9867 -42.9791 -42.9697
   -42.9506 -42.9103 -42.9002 -42.8942 -42.8869 -42.8808 -36.7297 -36.7132
   -36.6707 -36.6186 -36.6037 -36.5066 -36.3071 -36.2848 -36.2744 -36.2654
   -36.2604 -36.2438 -36.2333 -36.2178 -36.1428 -36.1096 -36.1055 -36.0921
    -4.2318  -3.5395  -2.7206  -2.6904  -2.4964  -2.4760  -2.3914  -2.1986
    -2.0836  -2.0521  -1.8989  -1.8659  -1.5659  -1.2262  -1.2106  -1.0538
    -0.7247  -0.7009  -0.6455  -0.6367  -0.4799  -0.4282   0.1141   0.1717
     0.4863   0.5132   0.5631   0.6256   0.6851   0.7925   0.8010   0.8477
     0.9782   1.0971   1.1372   1.2496   1.3318   1.4482   1.4525   1.5988
     1.6546   1.9177   2.2404   2.3389   2.4426   2.4804   2.6997   2.8328
     2.9213   2.9636   3.1862   3.3885   3.5654   3.5918   3.6008   3.6201
     3.6962   3.9792   4.4092   4.4156   4.9272   4.9835   5.2484   5.2487

          k = 0.0763-0.0264 0.0000 ( 29561 PWs)   bands (ev):

   -84.1976 -84.1902 -83.7270 -83.7196 -83.6645 -83.6572 -64.7285 -64.7102
   -64.3742 -64.3561 -64.3535 -64.3356 -43.5840 -43.5671 -43.5437 -43.4644
   -43.4465 -43.4095 -43.0835 -43.0131 -42.9929 -42.9887 -42.9791 -42.9690
   -42.9502 -42.9118 -42.9008 -42.8937 -42.8866 -42.8804 -36.7271 -36.7133
   -36.6684 -36.6158 -36.6044 -36.5078 -36.3048 -36.2850 -36.2726 -36.2648
   -36.2585 -36.2443 -36.2298 -36.2186 -36.1439 -36.1106 -36.1047 -36.0925
    -4.3946  -3.4335  -2.8084  -2.7256  -2.6002  -2.5441  -2.4864  -2.2829
    -2.1673  -2.1123  -2.0469  -1.9542  -1.6212  -1.2870  -1.2626  -0.9414
    -0.7985  -0.7140  -0.6444  -0.5905  -0.3664  -0.3372   0.0649   0.1019
     0.4505   0.5437   0.5771   0.5895   0.7097   0.7311   0.7622   0.8171
     1.0775   1.2036   1.2136   1.3098   1.4250   1.5754   1.6407   1.7390
     1.8592   1.8638   2.3048   2.3252   2.3253   2.5165   2.7054   2.8935
     2.9857   3.0862   3.3086   3.5011   3.6256   3.7285   3.7976   3.8467
     4.0078   4.2898   4.3561   4.4175   4.7569   4.9538   5.1597   5.1614

          k = 0.0763-0.0088 0.0000 ( 29562 PWs)   bands (ev):

   -84.1976 -84.1902 -83.7270 -83.7196 -83.6645 -83.6572 -64.7284 -64.7102
   -64.3741 -64.3562 -64.3534 -64.3356 -43.5847 -43.5670 -43.5443 -43.4652
   -43.4464 -43.4092 -43.0841 -43.0136 -42.9926 -42.9898 -42.9791 -42.9687
   -42.9501 -42.9126 -42.9011 -42.8934 -42.8865 -42.8803 -36.7256 -36.7134
   -36.6670 -36.6140 -36.6050 -36.5086 -36.3033 -36.2852 -36.2716 -36.2642
   -36.2572 -36.2449 -36.2277 -36.2193 -36.1446 -36.1113 -36.1042 -36.0927
    -4.4779  -3.3208  -2.8953  -2.7240  -2.6595  -2.6080  -2.5373  -2.3354
    -2.2134  -2.1673  -2.1153  -1.9769  -1.5700  -1.4107  -1.3445  -0.8868
    -0.8474  -0.7554  -0.6342  -0.4801  -0.2530  -0.2378  -0.0295  -0.0171
     0.3611   0.5461   0.5656   0.5781   0.6542   0.6900   0.7523   0.8696
     1.1652   1.1659   1.2543   1.2923   1.4964   1.7338   1.7572   1.8381
     1.9277   1.9568   2.2706   2.3219   2.4262   2.5093   2.5664   2.9078
     2.9773   3.1598   3.4677   3.6452   3.7031   3.8565   4.0206   4.1156
     4.2610   4.3442   4.5068   4.5924   4.9151   4.9624   5.0048   5.0094

          k = 0.0763 0.0088 0.0000 ( 29562 PWs)   bands (ev):

   -84.1976 -84.1902 -83.7270 -83.7196 -83.6645 -83.6572 -64.7284 -64.7102
   -64.3741 -64.3562 -64.3534 -64.3356 -43.5847 -43.5670 -43.5443 -43.4652
   -43.4464 -43.4092 -43.0841 -43.0136 -42.9926 -42.9898 -42.9791 -42.9687
   -42.9501 -42.9126 -42.9011 -42.8934 -42.8865 -42.8803 -36.7256 -36.7134
   -36.6670 -36.6140 -36.6050 -36.5086 -36.3033 -36.2852 -36.2716 -36.2642
   -36.2572 -36.2449 -36.2277 -36.2193 -36.1446 -36.1113 -36.1042 -36.0927
    -4.4779  -3.3208  -2.8953  -2.7240  -2.6595  -2.6080  -2.5373  -2.3354
    -2.2134  -2.1673  -2.1153  -1.9769  -1.5700  -1.4107  -1.3445  -0.8868
    -0.8474  -0.7554  -0.6342  -0.4801  -0.2530  -0.2378  -0.0295  -0.0171
     0.3611   0.5461   0.5656   0.5781   0.6542   0.6900   0.7523   0.8696
     1.1652   1.1659   1.2543   1.2923   1.4964   1.7338   1.7572   1.8381
     1.9277   1.9568   2.2706   2.3219   2.4262   2.5093   2.5664   2.9078
     2.9773   3.1598   3.4677   3.6452   3.7031   3.8565   4.0206   4.1156
     4.2610   4.3442   4.5068   4.5924   4.9151   4.9624   5.0048   5.0094

          k = 0.0763 0.0264 0.0000 ( 29561 PWs)   bands (ev):

   -84.1976 -84.1902 -83.7270 -83.7196 -83.6645 -83.6572 -64.7285 -64.7102
   -64.3742 -64.3561 -64.3535 -64.3356 -43.5840 -43.5671 -43.5437 -43.4644
   -43.4465 -43.4095 -43.0835 -43.0131 -42.9929 -42.9887 -42.9791 -42.9690
   -42.9502 -42.9118 -42.9008 -42.8937 -42.8866 -42.8804 -36.7271 -36.7133
   -36.6684 -36.6158 -36.6044 -36.5078 -36.3048 -36.2850 -36.2726 -36.2648
   -36.2585 -36.2443 -36.2298 -36.2186 -36.1439 -36.1106 -36.1047 -36.0925
    -4.3946  -3.4335  -2.8084  -2.7256  -2.6002  -2.5441  -2.4864  -2.2829
    -2.1673  -2.1123  -2.0469  -1.9542  -1.6212  -1.2870  -1.2626  -0.9414
    -0.7985  -0.7140  -0.6444  -0.5905  -0.3664  -0.3372   0.0649   0.1019
     0.4505   0.5437   0.5771   0.5895   0.7097   0.7311   0.7622   0.8171
     1.0775   1.2036   1.2136   1.3098   1.4250   1.5754   1.6407   1.7390
     1.8592   1.8638   2.3048   2.3252   2.3253   2.5165   2.7054   2.8935
     2.9857   3.0862   3.3086   3.5011   3.6256   3.7285   3.7976   3.8467
     4.0078   4.2898   4.3561   4.4175   4.7569   4.9538   5.1597   5.1614

          k =-0.0915-0.0527 0.0000 ( 29598 PWs)   bands (ev):

   -84.1939 -84.1939 -83.7233 -83.7233 -83.6608 -83.6608 -64.7194 -64.7194
   -64.3652 -64.3652 -64.3447 -64.3444 -43.5749 -43.5749 -43.4770 -43.4770
   -43.4540 -43.4540 -43.0178 -43.0177 -42.9861 -42.9861 -42.9773 -42.9773
   -42.9467 -42.9467 -42.9016 -42.9015 -42.8934 -42.8934 -36.7221 -36.7220
   -36.6137 -36.6137 -36.5876 -36.5875 -36.2766 -36.2766 -36.2551 -36.2548
   -36.2292 -36.2290 -36.2220 -36.2219 -36.1893 -36.1891 -36.0996 -36.0994
    -3.8294  -3.8294  -2.6191  -2.6191  -2.3643  -2.3643  -2.2086  -2.2085
    -1.9757  -1.9757  -1.6927  -1.6927  -1.3369  -1.3369  -1.2247  -1.2247
    -0.8367  -0.8366  -0.6676  -0.6675  -0.3189  -0.3189   0.2081   0.2081
     0.3616   0.3616   0.5200   0.5201   0.6654   0.6654   0.7529   0.7530
     1.0711   1.0712   1.1613   1.1613   1.1737   1.1737   1.3069   1.3070
     1.9972   1.9972   2.2042   2.2042   2.4170   2.4170   2.7077   2.7077
     2.9880   2.9881   3.1482   3.1482   3.3366   3.3366   3.5337   3.5337
     3.7595   3.7595   4.4117   4.4118   4.9531   4.9532   5.2599   5.2599

          k =-0.0915-0.0352 0.0000 ( 29552 PWs)   bands (ev):

   -84.1939 -84.1939 -83.7233 -83.7233 -83.6608 -83.6608 -64.7194 -64.7193
   -64.3653 -64.3651 -64.3447 -64.3444 -43.5756 -43.5742 -43.4778 -43.4760
   -43.4551 -43.4531 -43.0185 -43.0168 -42.9863 -42.9859 -42.9789 -42.9758
   -42.9475 -42.9459 -42.9028 -42.9004 -42.8939 -42.8929 -36.7236 -36.7204
   -36.6148 -36.6118 -36.5896 -36.5864 -36.2767 -36.2765 -36.2554 -36.2538
   -36.2303 -36.2275 -36.2230 -36.2213 -36.1911 -36.1879 -36.1003 -36.0987
    -3.9652  -3.6447  -2.6466  -2.5588  -2.4229  -2.3337  -2.2082  -2.1974
    -1.9844  -1.9667  -1.7726  -1.6745  -1.3998  -1.3224  -1.2584  -1.1640
    -0.8280  -0.7970  -0.6563  -0.6194  -0.4342  -0.2800   0.1116   0.1561
     0.2619   0.3870   0.3958   0.5437   0.6527   0.6544   0.6772   0.7791
     0.9428   1.1145   1.1490   1.2111   1.2689   1.2832   1.3553   1.4337
     1.7891   2.0554   2.2021   2.3258   2.3992   2.4768   2.6688   2.7626
     2.8240   3.0054   3.1507   3.3518   3.4062   3.4592   3.6306   3.6748
     3.7616   3.9093   4.3632   4.3960   4.8389   4.8912   5.1736   5.1825

          k =-0.0915-0.0176 0.0000 ( 29551 PWs)   bands (ev):

   -84.1939 -84.1939 -83.7233 -83.7233 -83.6608 -83.6608 -64.7195 -64.7193
   -64.3653 -64.3651 -64.3448 -64.3444 -43.5762 -43.5737 -43.4783 -43.4751
   -43.4560 -43.4526 -43.0190 -43.0160 -42.9865 -42.9858 -42.9802 -42.9747
   -42.9481 -42.9452 -42.9038 -42.8996 -42.8942 -42.8925 -36.7248 -36.7192
   -36.6153 -36.6095 -36.5919 -36.5859 -36.2768 -36.2765 -36.2553 -36.2523
   -36.2307 -36.2273 -36.2228 -36.2213 -36.1931 -36.1873 -36.1009 -36.0981
    -4.0463  -3.4396  -2.7121  -2.4651  -2.4579  -2.3329  -2.2001  -2.1935
    -2.0158  -1.9236  -1.9001  -1.6784  -1.4338  -1.3498  -1.2617  -1.1041
    -0.8285  -0.7600  -0.6404  -0.5707  -0.4721  -0.2561  -0.0677  -0.0532
     0.1759   0.3283   0.3755   0.4748   0.5558   0.5841   0.7089   0.7573
     0.8774   1.1666   1.1764   1.2958   1.3633   1.4170   1.4576   1.5810
     1.6445   2.0412   2.2801   2.3676   2.3720   2.5819   2.6267   2.6359
     2.7758   3.0971   3.2729   3.4086   3.4818   3.8511   3.8881   3.9194
     4.0262   4.2639   4.3112   4.3545   4.6001   4.7916   4.9527   4.9843

          k =-0.0915-0.0000 0.0000 ( 29550 PWs)   bands (ev):

   -84.1939 -84.1939 -83.7233 -83.7233 -83.6608 -83.6608 -64.7195 -64.7193
   -64.3653 -64.3651 -64.3448 -64.3444 -43.5763 -43.5735 -43.4784 -43.4747
   -43.4564 -43.4525 -43.0192 -43.0156 -42.9866 -42.9858 -42.9807 -42.9744
   -42.9483 -42.9449 -42.9042 -42.8993 -42.8943 -42.8924 -36.7252 -36.7188
   -36.6153 -36.6084 -36.5931 -36.5858 -36.2769 -36.2765 -36.2552 -36.2515
   -36.2308 -36.2279 -36.2222 -36.2215 -36.1940 -36.1871 -36.1011 -36.0979
    -4.0731  -3.3235  -2.7881  -2.4532  -2.4014  -2.3415  -2.2193  -2.1772
    -2.0302  -1.9741  -1.8852  -1.6866  -1.4932  -1.2905  -1.2336  -1.1139
    -0.9212  -0.6993  -0.6642  -0.5219  -0.3423  -0.2305  -0.2296  -0.2200
     0.1644   0.2762   0.3760   0.4649   0.4920   0.5533   0.7485   0.7568
     0.8516   1.1674   1.1695   1.3527   1.4017   1.4606   1.5151   1.5808
     1.6375   2.1077   2.3178   2.3593   2.3639   2.5242   2.5840   2.6107
     2.7673   3.1812   3.4267   3.4298   3.4637   3.9402   4.0373   4.1277
     4.1741   4.2168   4.4591   4.6293   4.6574   4.8642   4.9276   4.9889

          k =-0.0915 0.0176 0.0000 ( 29551 PWs)   bands (ev):

   -84.1939 -84.1939 -83.7233 -83.7233 -83.6608 -83.6608 -64.7195 -64.7193
   -64.3653 -64.3651 -64.3448 -64.3444 -43.5762 -43.5737 -43.4783 -43.4751
   -43.4560 -43.4526 -43.0190 -43.0160 -42.9865 -42.9858 -42.9802 -42.9747
   -42.9481 -42.9452 -42.9038 -42.8996 -42.8942 -42.8925 -36.7248 -36.7192
   -36.6153 -36.6095 -36.5919 -36.5859 -36.2768 -36.2765 -36.2553 -36.2523
   -36.2307 -36.2273 -36.2228 -36.2213 -36.1931 -36.1873 -36.1009 -36.0981
    -4.0463  -3.4396  -2.7121  -2.4651  -2.4579  -2.3329  -2.2001  -2.1935
    -2.0158  -1.9236  -1.9001  -1.6784  -1.4338  -1.3498  -1.2617  -1.1041
    -0.8285  -0.7600  -0.6404  -0.5707  -0.4721  -0.2561  -0.0677  -0.0532
     0.1759   0.3283   0.3755   0.4748   0.5558   0.5841   0.7089   0.7573
     0.8774   1.1666   1.1764   1.2958   1.3633   1.4170   1.4576   1.5810
     1.6445   2.0412   2.2801   2.3676   2.3720   2.5819   2.6267   2.6359
     2.7758   3.0971   3.2729   3.4086   3.4818   3.8511   3.8881   3.9194
     4.0262   4.2639   4.3112   4.3545   4.6001   4.7916   4.9527   4.9843

          k =-0.0915 0.0352 0.0000 ( 29552 PWs)   bands (ev):

   -84.1939 -84.1939 -83.7233 -83.7233 -83.6608 -83.6608 -64.7194 -64.7193
   -64.3653 -64.3651 -64.3447 -64.3444 -43.5756 -43.5742 -43.4778 -43.4760
   -43.4551 -43.4531 -43.0185 -43.0168 -42.9863 -42.9859 -42.9789 -42.9758
   -42.9475 -42.9459 -42.9028 -42.9004 -42.8939 -42.8929 -36.7236 -36.7204
   -36.6148 -36.6118 -36.5896 -36.5864 -36.2767 -36.2765 -36.2554 -36.2538
   -36.2303 -36.2275 -36.2230 -36.2213 -36.1911 -36.1879 -36.1003 -36.0987
    -3.9652  -3.6447  -2.6466  -2.5588  -2.4229  -2.3337  -2.2082  -2.1974
    -1.9844  -1.9667  -1.7726  -1.6745  -1.3998  -1.3224  -1.2584  -1.1640
    -0.8280  -0.7970  -0.6563  -0.6194  -0.4342  -0.2800   0.1116   0.1561
     0.2619   0.3870   0.3958   0.5437   0.6527   0.6544   0.6772   0.7791
     0.9428   1.1145   1.1490   1.2111   1.2689   1.2832   1.3553   1.4337
     1.7891   2.0554   2.2021   2.3258   2.3992   2.4768   2.6688   2.7626
     2.8240   3.0054   3.1507   3.3518   3.4062   3.4592   3.6306   3.6748
     3.7616   3.9093   4.3632   4.3960   4.8389   4.8912   5.1736   5.1825

          k =-0.0915-0.1582 0.0000 ( 29598 PWs)   bands (ev):

   -84.1939 -84.1939 -83.7233 -83.7233 -83.6608 -83.6608 -64.7194 -64.7194
   -64.3652 -64.3652 -64.3447 -64.3444 -43.5749 -43.5749 -43.4770 -43.4770
   -43.4540 -43.4540 -43.0178 -43.0177 -42.9861 -42.9861 -42.9773 -42.9773
   -42.9467 -42.9467 -42.9016 -42.9015 -42.8934 -42.8934 -36.7221 -36.7220
   -36.6137 -36.6137 -36.5876 -36.5875 -36.2766 -36.2766 -36.2551 -36.2548
   -36.2292 -36.2290 -36.2220 -36.2219 -36.1893 -36.1891 -36.0996 -36.0994
    -3.8294  -3.8294  -2.6191  -2.6191  -2.3643  -2.3643  -2.2086  -2.2085
    -1.9757  -1.9757  -1.6927  -1.6927  -1.3369  -1.3369  -1.2247  -1.2246
    -0.8367  -0.8366  -0.6676  -0.6675  -0.3189  -0.3189   0.2081   0.2081
     0.3616   0.3616   0.5200   0.5201   0.6654   0.6654   0.7529   0.7530
     1.0711   1.0712   1.1613   1.1613   1.1737   1.1737   1.3069   1.3070
     1.9972   1.9972   2.2042   2.2042   2.4170   2.4170   2.7077   2.7077
     2.9880   2.9881   3.1482   3.1482   3.3366   3.3366   3.5337   3.5337
     3.7595   3.7595   4.4117   4.4118   4.9531   4.9532   5.2599   5.2599

     the Fermi energy is     2.6577 ev

!    total energy              =   -2291.42857091 Ry
     estimated scf accuracy    <       0.00000573 Ry
     smearing contrib. (-TS)   =      -0.07423827 Ry
     internal energy E=F+TS    =   -2291.35433263 Ry

     The total energy is F=E-TS. E is the sum of the following terms:
     one-electron contribution =  -20206.16118451 Ry
     hartree contribution      =   10095.80731696 Ry
     xc contribution           =    -472.98475791 Ry
     ewald contribution        =    8291.98428747 Ry
     electric field correction =       0.00000536 Ry

     convergence has been achieved in  13 iterations

     negative rho (up, down):  6.144E-03 0.000E+00

     Forces acting on atoms (cartesian axes, Ry/au):

     atom    1 type  1   force =     0.00000328   -0.00198165    0.01626472
     atom    2 type  1   force =    -0.00000111   -0.00198201    0.01629388
     atom    3 type  2   force =    -0.00000068    0.00112019    0.02385385
     atom    4 type  2   force =     0.00000175    0.00112505    0.02385400
     atom    5 type  1   force =    -0.00000263    0.00335807   -0.01876471
     atom    6 type  1   force =     0.00000238    0.00333652   -0.01878872
     atom    7 type  2   force =    -0.00003414   -0.00272100   -0.01998413
     atom    8 type  2   force =     0.00003433   -0.00272638   -0.01998556
     atom    9 type  1   force =    -0.00000229    0.00020440   -0.00035826
     atom   10 type  1   force =     0.00000002    0.00020527   -0.00034715
     atom   11 type  2   force =     0.00000266    0.00003257   -0.00101606
     atom   12 type  2   force =    -0.00000358    0.00002896   -0.00102185

     Total force =     0.056763     Total SCF correction =     0.013405
     SCF correction compared to forces is large: reduce conv_thr to get better values

     Writing output data file ./Tc2Os2/Tc2Os2_beef.save/

     init_run     :    114.51s CPU    115.09s WALL (       1 calls)
     electrons    :   3294.32s CPU   3310.39s WALL (       1 calls)
     forces       :     70.58s CPU     70.94s WALL (       1 calls)

     Called by init_run:
     wfcinit      :    103.18s CPU    103.53s WALL (       1 calls)
     potinit      :      7.73s CPU      7.82s WALL (       1 calls)
     hinit0       :      1.85s CPU      1.86s WALL (       1 calls)

     Called by electrons:
     c_bands      :   2947.66s CPU   2958.00s WALL (      13 calls)
     sum_band     :    319.41s CPU    322.41s WALL (      13 calls)
     v_of_rho     :     20.50s CPU     21.53s WALL (      14 calls)
     newd         :     13.57s CPU     15.34s WALL (      14 calls)
     mix_rho      :      0.50s CPU      0.53s WALL (      13 calls)
     vdW_kernel   :      5.71s CPU      5.72s WALL (       1 calls)

     Called by c_bands:
     init_us_2    :      9.65s CPU      9.71s WALL (    2072 calls)
     cegterg      :   2922.18s CPU   2931.29s WALL (     962 calls)

     Called by *egterg:
     cdiaghg      :    130.67s CPU    130.76s WALL (    3475 calls)
     h_psi        :   1340.05s CPU   1346.66s WALL (    3549 calls)
     s_psi        :    474.10s CPU    474.67s WALL (    3549 calls)
     g_psi        :      0.84s CPU      0.84s WALL (    2513 calls)

     Called by h_psi:
     h_psi:calbec :    469.94s CPU    471.04s WALL (    3549 calls)
     vloc_psi     :    383.00s CPU    387.71s WALL (    3549 calls)
     add_vuspsi   :    481.16s CPU    481.90s WALL (    3549 calls)

     General routines
     calbec       :    736.94s CPU    738.62s WALL (    4807 calls)
     fft          :     10.71s CPU     11.13s WALL (     941 calls)
     ffts         :      0.05s CPU      0.05s WALL (      27 calls)
     fftw         :    443.12s CPU    448.57s WALL (  606210 calls)
     interpolate  :      0.19s CPU      0.20s WALL (      14 calls)

     Parallel routines
     fft_scatt_xy :     37.37s CPU     37.77s WALL (  607178 calls)
     fft_scatt_yz :     76.61s CPU     77.94s WALL (  607178 calls)

     PWSCF        :  58m10.53s CPU  58m46.79s WALL


   This run was terminated on:   4:31:20  25Jun2022            

=------------------------------------------------------------------------------=
   JOB DONE.
=------------------------------------------------------------------------------=
