
     Program PWSCF v.6.6 starts on 25Jun2022 at  6:29:57 

     This program is part of the open-source Quantum ESPRESSO suite
     for quantum simulation of materials; please cite
         "P. Giannozzi et al., J. Phys.:Condens. Matter 21 395502 (2009);
         "P. Giannozzi et al., J. Phys.:Condens. Matter 29 465901 (2017);
          URL http://www.quantum-espresso.org", 
     in publications or presentations arising from this work. More details at
     http://www.quantum-espresso.org/quote

     Parallel version (MPI), running on    37 processors

     MPI processes distributed on     1 nodes
     R & G space division:  proc/nbgrp/npool/nimage =      37
     Fft bands division:     nmany     =       1
     Reading input from Tc2Rh2.in
Warning: card &CELL ignored
Warning: card / ignored

     Current dimensions of program PWSCF are:
     Max number of different atomic species (ntypx) = 10
     Max number of k-points (npk) =  40000
     Max angular momentum in pseudopotentials (lmaxx) =  3
     Presently stress not available with electric field and gates

     Message from routine cell_base_init:
     DEPRECATED: use true lattice parameter, not A to a.u. conversion factor
     file Tc.pbe-spn-rrkjus_psl.0.3.0.UPF: wavefunction(s)  4S 4P renormalized
     file Rh.pbe-spn-rrkjus_psl.1.0.0.UPF: wavefunction(s)  4S 5S renormalized

     **************************************************************************
     Initializing libbeef V0.1.2 with the BEEF-vdW functional.
     Citation: Wellendorff et al., PRB 85, 235149 (2012).
     **************************************************************************


     IMPORTANT: XC functional enforced from input :
     Exchange-correlation= BEEF-VDW
                           (   1   4  43  14   2   0   0)
     Any further DFT definition will be discarded
     Please, verify this is what you really want


     Subspace diagonalization in iterative solution of the eigenvalue problem:
     a serial algorithm will be used

     Found symmetry operation: I + ( -0.5000  0.0000  0.0000)
     This is a supercell, fractional translations are disabled

     Parallelization info
     --------------------
     sticks:   dense  smooth     PW     G-vecs:    dense   smooth      PW
     Min         108      43     12                25054     6333     994
     Max         109      44     13                25079     6352    1009
     Sum        4029    1611    471               927573   234641   37117



     bravais-lattice index     =            0
     lattice parameter (alat)  =       1.8897  a.u.
     unit-cell volume          =    4243.8260 (a.u.)^3
     number of atoms/cell      =           12
     number of atomic types    =            2
     number of electrons       =       192.00
     number of Kohn-Sham states=          115
     kinetic-energy cutoff     =      55.1240  Ry
     charge density cutoff     =     551.2396  Ry
     convergence threshold     =      1.0E-05
     mixing beta               =       0.1000
     number of iterations used =           10  plain     mixing
     Exchange-correlation= BEEF-VDW
                           (   1   4  43  14   2   0   0)

     celldm(1)=   1.889726  celldm(2)=   0.000000  celldm(3)=   0.000000
     celldm(4)=   0.000000  celldm(5)=   0.000000  celldm(6)=   0.000000

     crystal axes: (cart. coord. in units of alat)
               a(1) = (   5.391494   0.000000   0.000000 )  
               a(2) = (  -2.695747   4.770925   0.000000 )  
               a(3) = (   0.000000   0.000000  24.448338 )  

     reciprocal axes: (cart. coord. in units 2 pi/alat)
               b(1) = (  0.185477  0.104801 -0.000000 )  
               b(2) = (  0.000000  0.209603  0.000000 )  
               b(3) = (  0.000000 -0.000000  0.040903 )  


     PseudoPot. # 1 for Tc read from file:
     ../pseudo/Tc.pbe-spn-rrkjus_psl.0.3.0.UPF
     MD5 check sum: 5f147c0bf103030af994b79b1f5562e4
     Pseudo is Ultrasoft + core correction, Zval = 15.0
     Generated using "atomic" code by A. Dal Corso v.6.2.2
     Using radial grid of 1231 points,  6 beta functions with: 
                l(1) =   0
                l(2) =   0
                l(3) =   1
                l(4) =   1
                l(5) =   2
                l(6) =   2
     Q(r) pseudized with 0 coefficients 


     PseudoPot. # 2 for Rh read from file:
     ../pseudo/Rh.pbe-spn-rrkjus_psl.1.0.0.UPF
     MD5 check sum: 912a852783f0c9b7bd5e9eb06cc0cc10
     Pseudo is Ultrasoft + core correction, Zval = 17.0
     Generated using "atomic" code by A. Dal Corso v.6.3
     Using radial grid of 1233 points,  6 beta functions with: 
                l(1) =   0
                l(2) =   0
                l(3) =   1
                l(4) =   1
                l(5) =   2
                l(6) =   2
     Q(r) pseudized with 0 coefficients 


     atomic species   valence    mass     pseudopotential
        Tc            15.00    97.90721     Tc( 1.00)
        Rh            17.00   102.90550     Rh( 1.00)

     No symmetry found



   Cartesian axes

     site n.     atom                  positions (alat units)
         1           Tc  tau(   1) = (   0.0000000   0.0000000  10.0000000  )
         2           Tc  tau(   2) = (   2.6957471   0.0000000  10.0000000  )
         3           Rh  tau(   3) = (   1.3478735   2.3854625  10.0000000  )
         4           Rh  tau(   4) = (  -1.3478735   2.3854625  10.0000000  )
         5           Tc  tau(   5) = (   2.6957471   1.5231956  12.2241689  )
         6           Tc  tau(   6) = (   0.0000000   1.5231956  12.2241689  )
         7           Rh  tau(   7) = (  -1.3478735   3.9086582  12.2241689  )
         8           Rh  tau(   8) = (   1.3478735   3.9086582  12.2241689  )
         9           Tc  tau(   9) = (  -0.0000006   3.0589742  14.3500983  )
        10           Tc  tau(  10) = (   2.6957469   3.0589756  14.3501206  )
        11           Rh  tau(  11) = (   4.0436211   0.7511625  14.3719435  )
        12           Rh  tau(  12) = (   1.3478725   0.7511622  14.3719439  )

     number of k points=    74  Fermi-Dirac smearing, width (Ry)=  0.0100
                       cart. coord. in units 2pi/alat
        k(    1) = (   0.0000000   0.0000000   0.0000000), wk =   0.0138889
        k(    2) = (   0.0000000   0.0174669   0.0000000), wk =   0.0277778
        k(    3) = (   0.0000000   0.0349338   0.0000000), wk =   0.0277778
        k(    4) = (   0.0000000   0.0524007   0.0000000), wk =   0.0277778
        k(    5) = (   0.0000000   0.0698677   0.0000000), wk =   0.0277778
        k(    6) = (   0.0000000   0.0873346   0.0000000), wk =   0.0277778
        k(    7) = (   0.0000000  -0.1048015   0.0000000), wk =   0.0138889
        k(    8) = (   0.0154564   0.0087335   0.0000000), wk =   0.0277778
        k(    9) = (   0.0154564   0.0262004   0.0000000), wk =   0.0277778
        k(   10) = (   0.0154564   0.0436673   0.0000000), wk =   0.0277778
        k(   11) = (   0.0154564   0.0611342   0.0000000), wk =   0.0277778
        k(   12) = (   0.0154564   0.0786011   0.0000000), wk =   0.0277778
        k(   13) = (   0.0154564   0.0960680   0.0000000), wk =   0.0277778
        k(   14) = (   0.0154564  -0.0960680   0.0000000), wk =   0.0277778
        k(   15) = (   0.0154564  -0.0786011   0.0000000), wk =   0.0277778
        k(   16) = (   0.0154564  -0.0611342   0.0000000), wk =   0.0277778
        k(   17) = (   0.0154564  -0.0436673   0.0000000), wk =   0.0277778
        k(   18) = (   0.0154564  -0.0262004   0.0000000), wk =   0.0277778
        k(   19) = (   0.0154564  -0.0087335   0.0000000), wk =   0.0277778
        k(   20) = (   0.0309129   0.0174669   0.0000000), wk =   0.0277778
        k(   21) = (   0.0309129   0.0349338   0.0000000), wk =   0.0277778
        k(   22) = (   0.0309129   0.0524007   0.0000000), wk =   0.0277778
        k(   23) = (   0.0309129   0.0698677   0.0000000), wk =   0.0277778
        k(   24) = (   0.0309129   0.0873346   0.0000000), wk =   0.0277778
        k(   25) = (   0.0309129   0.1048015   0.0000000), wk =   0.0277778
        k(   26) = (   0.0309129  -0.0873346   0.0000000), wk =   0.0277778
        k(   27) = (   0.0309129  -0.0698677   0.0000000), wk =   0.0277778
        k(   28) = (   0.0309129  -0.0524007   0.0000000), wk =   0.0277778
        k(   29) = (   0.0309129  -0.0349338   0.0000000), wk =   0.0277778
        k(   30) = (   0.0309129  -0.0174669   0.0000000), wk =   0.0277778
        k(   31) = (   0.0309129  -0.0000000   0.0000000), wk =   0.0277778
        k(   32) = (   0.0463693   0.0262004   0.0000000), wk =   0.0277778
        k(   33) = (   0.0463693   0.0436673   0.0000000), wk =   0.0277778
        k(   34) = (   0.0463693   0.0611342   0.0000000), wk =   0.0277778
        k(   35) = (   0.0463693   0.0786011   0.0000000), wk =   0.0277778
        k(   36) = (   0.0463693   0.0960680   0.0000000), wk =   0.0277778
        k(   37) = (   0.0463693   0.1135349   0.0000000), wk =   0.0277778
        k(   38) = (   0.0463693  -0.0786011   0.0000000), wk =   0.0277778
        k(   39) = (   0.0463693  -0.0611342   0.0000000), wk =   0.0277778
        k(   40) = (   0.0463693  -0.0436673   0.0000000), wk =   0.0277778
        k(   41) = (   0.0463693  -0.0262004   0.0000000), wk =   0.0277778
        k(   42) = (   0.0463693  -0.0087335   0.0000000), wk =   0.0277778
        k(   43) = (   0.0463693   0.0087335   0.0000000), wk =   0.0277778
        k(   44) = (   0.0618258   0.0349338   0.0000000), wk =   0.0277778
        k(   45) = (   0.0618258   0.0524007   0.0000000), wk =   0.0277778
        k(   46) = (   0.0618258   0.0698677   0.0000000), wk =   0.0277778
        k(   47) = (   0.0618258   0.0873346   0.0000000), wk =   0.0277778
        k(   48) = (   0.0618258   0.1048015   0.0000000), wk =   0.0277778
        k(   49) = (   0.0618258   0.1222684   0.0000000), wk =   0.0277778
        k(   50) = (   0.0618258  -0.0698677   0.0000000), wk =   0.0277778
        k(   51) = (   0.0618258  -0.0524007   0.0000000), wk =   0.0277778
        k(   52) = (   0.0618258  -0.0349338   0.0000000), wk =   0.0277778
        k(   53) = (   0.0618258  -0.0174669   0.0000000), wk =   0.0277778
        k(   54) = (   0.0618258   0.0000000   0.0000000), wk =   0.0277778
        k(   55) = (   0.0618258   0.0174669   0.0000000), wk =   0.0277778
        k(   56) = (   0.0772822   0.0436673   0.0000000), wk =   0.0277778
        k(   57) = (   0.0772822   0.0611342   0.0000000), wk =   0.0277778
        k(   58) = (   0.0772822   0.0786011   0.0000000), wk =   0.0277778
        k(   59) = (   0.0772822   0.0960680   0.0000000), wk =   0.0277778
        k(   60) = (   0.0772822   0.1135349   0.0000000), wk =   0.0277778
        k(   61) = (   0.0772822   0.1310018   0.0000000), wk =   0.0277778
        k(   62) = (   0.0772822  -0.0611342   0.0000000), wk =   0.0277778
        k(   63) = (   0.0772822  -0.0436673   0.0000000), wk =   0.0277778
        k(   64) = (   0.0772822  -0.0262004   0.0000000), wk =   0.0277778
        k(   65) = (   0.0772822  -0.0087335   0.0000000), wk =   0.0277778
        k(   66) = (   0.0772822   0.0087335   0.0000000), wk =   0.0277778
        k(   67) = (   0.0772822   0.0262004   0.0000000), wk =   0.0277778
        k(   68) = (  -0.0927387  -0.0524007   0.0000000), wk =   0.0138889
        k(   69) = (  -0.0927387  -0.0349338   0.0000000), wk =   0.0277778
        k(   70) = (  -0.0927387  -0.0174669   0.0000000), wk =   0.0277778
        k(   71) = (  -0.0927387   0.0000000   0.0000000), wk =   0.0277778
        k(   72) = (  -0.0927387   0.0174669   0.0000000), wk =   0.0277778
        k(   73) = (  -0.0927387   0.0349338   0.0000000), wk =   0.0277778
        k(   74) = (  -0.0927387  -0.1572022   0.0000000), wk =   0.0138889

     Dense  grid:   927573 G-vectors     FFT dimensions: (  80,  80, 360)

     Smooth grid:   234641 G-vectors     FFT dimensions: (  50,  50, 225)

     Estimated max dynamical RAM per process >     205.07 MB

     Estimated total dynamical RAM >       7.41 GB

     Initial potential from superposition of free atoms

     starting charge  191.99327, renormalised to  192.00000

     negative rho (up, down):  6.096E-03 0.000E+00


     %%%%%%%%%%%%%%%%%%%%%%%%%%%%%%%%%%%%%%%%%%%%%%%%%%%%%%%%%%%%%%%%%%%%%%%%
     %                                                                      %
     % You are using vdW-DF, which was implemented by the Thonhauser group. %
     % Please cite the following two papers that made this development      %
     % possible and the two reviews that describe the various versions:     %
     %                                                                      %
     %   T. Thonhauser et al., PRL 115, 136402 (2015).                      %
     %   T. Thonhauser et al., PRB 76, 125112 (2007).                       %
     %   K. Berland et al., Rep. Prog. Phys. 78, 066501 (2015).             %
     %   D.C. Langreth et al., J. Phys.: Condens. Matter 21, 084203 (2009). %
     %                                                                      %
     %                                                                      %
     % If you are calculating the stress with vdW-DF, please also cite:     %
     %                                                                      %
     %   R. Sabatini et al., J. Phys.: Condens. Matter 24, 424209 (2012).   %
     %                                                                      %
     %%%%%%%%%%%%%%%%%%%%%%%%%%%%%%%%%%%%%%%%%%%%%%%%%%%%%%%%%%%%%%%%%%%%%%%%



     Adding external electric field

     Computed dipole along edir(3) : 
        Dipole               -0.0000 Ry au,         -0.0000 Debye
        Dipole field         -0.0000 Ry au, 

        Potential amp.        0.0000 Ry
        Total length         45.0456 bohr

     Starting wfcs are  138 randomized atomic wfcs

     total cpu time spent up to now is      114.4 secs

     Self-consistent Calculation

     iteration #  1     ecut=    55.12 Ry     beta= 0.10
     Davidson diagonalization with overlap
     ethr =  1.00E-02,  avg # of iterations =  2.1

     negative rho (up, down):  6.074E-03 0.000E+00

     Adding external electric field

     Computed dipole along edir(3) : 
        Dipole               -0.1656 Ry au,         -0.4210 Debye
        Dipole field         -0.0005 Ry au, 

        Potential amp.        0.0442 Ry
        Total length         45.0456 bohr


     total cpu time spent up to now is      396.4 secs

     total energy              =   -2452.19592348 Ry
     estimated scf accuracy    <       4.52720553 Ry

     iteration #  2     ecut=    55.12 Ry     beta= 0.10
     Davidson diagonalization with overlap
     ethr =  2.36E-03,  avg # of iterations =  2.0

     negative rho (up, down):  6.151E-03 0.000E+00

     Adding external electric field

     Computed dipole along edir(3) : 
        Dipole                0.4982 Ry au,          1.2663 Debye
        Dipole field          0.0015 Ry au, 

        Potential amp.       -0.1329 Ry
        Total length         45.0456 bohr


     total cpu time spent up to now is      645.2 secs

     total energy              =   -2452.30486622 Ry
     estimated scf accuracy    <       5.96580361 Ry

     iteration #  3     ecut=    55.12 Ry     beta= 0.10
     Davidson diagonalization with overlap
     ethr =  2.36E-03,  avg # of iterations =  1.0

     negative rho (up, down):  6.351E-03 0.000E+00

     Adding external electric field

     Computed dipole along edir(3) : 
        Dipole               -0.0588 Ry au,         -0.1494 Debye
        Dipole field         -0.0002 Ry au, 

        Potential amp.        0.0157 Ry
        Total length         45.0456 bohr


     total cpu time spent up to now is      848.3 secs

     total energy              =   -2452.23458723 Ry
     estimated scf accuracy    <      25.98145143 Ry

     iteration #  4     ecut=    55.12 Ry     beta= 0.10
     Davidson diagonalization with overlap
     ethr =  2.36E-03,  avg # of iterations =  1.0

     negative rho (up, down):  6.253E-03 0.000E+00

     Adding external electric field

     Computed dipole along edir(3) : 
        Dipole                0.0320 Ry au,          0.0812 Debye
        Dipole field          0.0001 Ry au, 

        Potential amp.       -0.0085 Ry
        Total length         45.0456 bohr


     total cpu time spent up to now is     1053.3 secs

     total energy              =   -2452.50867982 Ry
     estimated scf accuracy    <       0.90002378 Ry

     iteration #  5     ecut=    55.12 Ry     beta= 0.10
     Davidson diagonalization with overlap
     ethr =  4.69E-04,  avg # of iterations =  2.0

     negative rho (up, down):  6.236E-03 0.000E+00

     Adding external electric field

     Computed dipole along edir(3) : 
        Dipole                0.0239 Ry au,          0.0606 Debye
        Dipole field          0.0001 Ry au, 

        Potential amp.       -0.0064 Ry
        Total length         45.0456 bohr


     total cpu time spent up to now is     1293.4 secs

     total energy              =   -2452.51818135 Ry
     estimated scf accuracy    <       0.14164331 Ry

     iteration #  6     ecut=    55.12 Ry     beta= 0.10
     Davidson diagonalization with overlap
     ethr =  7.38E-05,  avg # of iterations =  3.3

     negative rho (up, down):  6.258E-03 0.000E+00

     Adding external electric field

     Computed dipole along edir(3) : 
        Dipole                0.0169 Ry au,          0.0430 Debye
        Dipole field          0.0001 Ry au, 

        Potential amp.       -0.0045 Ry
        Total length         45.0456 bohr


     total cpu time spent up to now is     1555.2 secs

     total energy              =   -2452.52774265 Ry
     estimated scf accuracy    <       0.03367376 Ry

     iteration #  7     ecut=    55.12 Ry     beta= 0.10
     Davidson diagonalization with overlap
     ethr =  1.75E-05,  avg # of iterations =  2.1

     negative rho (up, down):  6.535E-03 0.000E+00

     Adding external electric field

     Computed dipole along edir(3) : 
        Dipole                0.0136 Ry au,          0.0346 Debye
        Dipole field          0.0000 Ry au, 

        Potential amp.       -0.0036 Ry
        Total length         45.0456 bohr


     total cpu time spent up to now is     1788.7 secs

     total energy              =   -2452.52361579 Ry
     estimated scf accuracy    <       0.02272513 Ry

     iteration #  8     ecut=    55.12 Ry     beta= 0.10
     Davidson diagonalization with overlap
     ethr =  1.18E-05,  avg # of iterations =  2.4

     negative rho (up, down):  6.698E-03 0.000E+00

     Adding external electric field

     Computed dipole along edir(3) : 
        Dipole                0.0129 Ry au,          0.0328 Debye
        Dipole field          0.0000 Ry au, 

        Potential amp.       -0.0034 Ry
        Total length         45.0456 bohr


     total cpu time spent up to now is     2055.6 secs

     total energy              =   -2452.52542791 Ry
     estimated scf accuracy    <       0.00461524 Ry

     iteration #  9     ecut=    55.12 Ry     beta= 0.10
     Davidson diagonalization with overlap
     c_bands:  1 eigenvalues not converged
     ethr =  2.40E-06,  avg # of iterations =  5.5

     negative rho (up, down):  6.732E-03 0.000E+00

     Adding external electric field

     Computed dipole along edir(3) : 
        Dipole                0.0156 Ry au,          0.0397 Debye
        Dipole field          0.0000 Ry au, 

        Potential amp.       -0.0042 Ry
        Total length         45.0456 bohr


     total cpu time spent up to now is     2324.2 secs

     total energy              =   -2452.52549683 Ry
     estimated scf accuracy    <       0.00173827 Ry

     iteration # 10     ecut=    55.12 Ry     beta= 0.10
     Davidson diagonalization with overlap
     ethr =  9.05E-07,  avg # of iterations =  4.0

     negative rho (up, down):  6.813E-03 0.000E+00

     Adding external electric field

     Computed dipole along edir(3) : 
        Dipole                0.0141 Ry au,          0.0359 Debye
        Dipole field          0.0000 Ry au, 

        Potential amp.       -0.0038 Ry
        Total length         45.0456 bohr


     total cpu time spent up to now is     2625.1 secs

     total energy              =   -2452.52537166 Ry
     estimated scf accuracy    <       0.00249768 Ry

     iteration # 11     ecut=    55.12 Ry     beta= 0.10
     Davidson diagonalization with overlap
     ethr =  9.05E-07,  avg # of iterations =  3.1

     negative rho (up, down):  6.764E-03 0.000E+00

     Adding external electric field

     Computed dipole along edir(3) : 
        Dipole                0.0148 Ry au,          0.0376 Debye
        Dipole field          0.0000 Ry au, 

        Potential amp.       -0.0039 Ry
        Total length         45.0456 bohr


     total cpu time spent up to now is     2919.4 secs

     total energy              =   -2452.52593412 Ry
     estimated scf accuracy    <       0.00105424 Ry

     iteration # 12     ecut=    55.12 Ry     beta= 0.10
     Davidson diagonalization with overlap
     ethr =  5.49E-07,  avg # of iterations =  1.9

     negative rho (up, down):  6.681E-03 0.000E+00

     Adding external electric field

     Computed dipole along edir(3) : 
        Dipole                0.0151 Ry au,          0.0384 Debye
        Dipole field          0.0000 Ry au, 

        Potential amp.       -0.0040 Ry
        Total length         45.0456 bohr


     total cpu time spent up to now is     3164.7 secs

     total energy              =   -2452.52595198 Ry
     estimated scf accuracy    <       0.00025455 Ry

     iteration # 13     ecut=    55.12 Ry     beta= 0.10
     Davidson diagonalization with overlap
     ethr =  1.33E-07,  avg # of iterations =  2.0

     negative rho (up, down):  6.592E-03 0.000E+00

     Adding external electric field

     Computed dipole along edir(3) : 
        Dipole                0.0150 Ry au,          0.0380 Debye
        Dipole field          0.0000 Ry au, 

        Potential amp.       -0.0040 Ry
        Total length         45.0456 bohr


     total cpu time spent up to now is     3421.6 secs

     total energy              =   -2452.52595824 Ry
     estimated scf accuracy    <       0.00005806 Ry

     iteration # 14     ecut=    55.12 Ry     beta= 0.10
     Davidson diagonalization with overlap
     ethr =  3.02E-08,  avg # of iterations =  2.3

     negative rho (up, down):  6.524E-03 0.000E+00

     Adding external electric field

     Computed dipole along edir(3) : 
        Dipole                0.0147 Ry au,          0.0373 Debye
        Dipole field          0.0000 Ry au, 

        Potential amp.       -0.0039 Ry
        Total length         45.0456 bohr


     total cpu time spent up to now is     3680.2 secs

     total energy              =   -2452.52596403 Ry
     estimated scf accuracy    <       0.00001110 Ry

     iteration # 15     ecut=    55.12 Ry     beta= 0.10
     Davidson diagonalization with overlap
     ethr =  5.78E-09,  avg # of iterations =  2.1

     negative rho (up, down):  6.251E-03 0.000E+00

     Adding external electric field

     Computed dipole along edir(3) : 
        Dipole                0.0141 Ry au,          0.0359 Debye
        Dipole field          0.0000 Ry au, 

        Potential amp.       -0.0038 Ry
        Total length         45.0456 bohr


     total cpu time spent up to now is     3934.9 secs

     End of self-consistent calculation

          k = 0.0000 0.0000 0.0000 ( 29249 PWs)   bands (ev):

   -76.9078 -76.8720 -76.4290 -76.3932 -76.3257 -76.2901 -65.2496 -65.1680
   -64.8623 -64.8183 -64.7811 -64.7373 -44.9338 -44.7998 -44.7721 -44.7571
   -44.7284 -44.5600 -44.4651 -44.3465 -44.3428 -44.3023 -44.2603 -44.2188
   -44.2162 -44.1815 -44.1054 -44.0922 -44.0680 -43.9725 -37.4267 -37.2600
   -37.1803 -37.1032 -37.0388 -37.0345 -36.9983 -36.7578 -36.7147 -36.7138
   -36.7006 -36.6859 -36.6396 -36.6305 -36.5515 -36.4844 -36.3280 -36.2894
    -4.5596  -3.4495  -3.4128  -3.3780  -3.2930  -3.0450  -3.0355  -2.9995
    -2.9890  -2.7932  -2.7527  -2.7505  -2.3459  -2.3205  -2.3049  -1.2796
    -1.2074  -1.1374  -0.8711  -0.6483  -0.5585  -0.3372  -0.3121  -0.2582
    -0.1708  -0.0556  -0.0177   0.0349   0.1954   0.3111   0.3122   0.4789
     0.5689   0.9602   1.3751   1.4334   1.4524   1.7031   1.7517   1.7802
     1.8136   2.1706   2.1851   2.3621   2.5475   2.5926   2.7751   3.1461
     3.1775   3.2113   3.3901   3.4280   3.4824   3.5825   3.6521   3.7425
     3.8619   3.8626   3.9589   4.2810   4.2908   4.3987   4.4882   4.5339
     4.6616   4.6925   4.9293

          k = 0.0000 0.0175 0.0000 ( 29269 PWs)   bands (ev):

   -76.9078 -76.8720 -76.4290 -76.3932 -76.3257 -76.2901 -65.2496 -65.1680
   -64.8623 -64.8183 -64.7811 -64.7373 -44.9335 -44.7995 -44.7716 -44.7570
   -44.7282 -44.5600 -44.4648 -44.3459 -44.3425 -44.3021 -44.2596 -44.2189
   -44.2160 -44.1815 -44.1053 -44.0921 -44.0680 -43.9725 -37.4274 -37.2609
   -37.1807 -37.1043 -37.0393 -37.0350 -36.9989 -36.7583 -36.7149 -36.7139
   -36.7019 -36.6863 -36.6396 -36.6311 -36.5518 -36.4845 -36.3281 -36.2895
    -4.4994  -3.3993  -3.3855  -3.3291  -3.2411  -3.0134  -2.9762  -2.9611
    -2.9599  -2.7561  -2.7299  -2.7178  -2.2941  -2.2926  -2.2453  -1.2775
    -1.1856  -1.1403  -0.8682  -0.6207  -0.5461  -0.4268  -0.3144  -0.2205
    -0.2053  -0.1007   0.0007   0.0896   0.2185   0.2773   0.2943   0.5184
     0.5499   0.9004   1.3142   1.3767   1.4399   1.6636   1.7078   1.7312
     1.7621   2.0059   2.1040   2.3468   2.5659   2.7629   2.7646   2.9124
     3.0167   3.0897   3.2379   3.4163   3.4482   3.4572   3.5554   3.7621
     3.8320   3.8520   3.9234   4.0935   4.2470   4.2691   4.3281   4.3804
     4.7394   4.8558   5.3349

          k = 0.0000 0.0349 0.0000 ( 29277 PWs)   bands (ev):

   -76.9078 -76.8720 -76.4290 -76.3932 -76.3257 -76.2901 -65.2497 -65.1680
   -64.8624 -64.8184 -64.7811 -64.7373 -44.9328 -44.7987 -44.7700 -44.7566
   -44.7276 -44.5599 -44.4641 -44.3442 -44.3418 -44.3016 -44.2576 -44.2193
   -44.2154 -44.1817 -44.1052 -44.0921 -44.0680 -43.9724 -37.4292 -37.2635
   -37.1820 -37.1074 -37.0408 -37.0362 -37.0006 -36.7598 -36.7152 -36.7141
   -36.7052 -36.6872 -36.6398 -36.6325 -36.5527 -36.4847 -36.3283 -36.2898
    -4.3235  -3.3072  -3.2546  -3.1880  -3.0934  -2.9220  -2.8823  -2.8446
    -2.8038  -2.6688  -2.6461  -2.6157  -2.2167  -2.1375  -2.0706  -1.2764
    -1.1566  -1.1250  -0.8707  -0.6195  -0.5481  -0.5097  -0.3424  -0.2852
    -0.1719  -0.1123   0.0517   0.1428   0.1862   0.2552   0.2874   0.4818
     0.6335   0.7306   1.1234   1.2413   1.3969   1.4054   1.5566   1.5936
     1.7229   1.9104   1.9168   2.2594   2.3625   2.4479   2.5791   2.8133
     2.9514   2.9834   2.9837   3.0013   3.2458   3.3379   3.4760   3.4934
     3.6491   3.6877   3.7375   3.8259   3.9734   4.1304   4.1559   4.6792
     4.7946   4.8368   5.1498

          k = 0.0000 0.0524 0.0000 ( 29299 PWs)   bands (ev):

   -76.9078 -76.8720 -76.4290 -76.3932 -76.3257 -76.2901 -65.2499 -65.1681
   -64.8625 -64.8185 -64.7811 -64.7373 -44.9317 -44.7978 -44.7678 -44.7562
   -44.7268 -44.5598 -44.4632 -44.3420 -44.3408 -44.3009 -44.2549 -44.2198
   -44.2145 -44.1820 -44.1051 -44.0920 -44.0680 -43.9723 -37.4317 -37.2671
   -37.1838 -37.1114 -37.0428 -37.0379 -37.0029 -36.7622 -36.7157 -36.7145
   -36.7094 -36.6886 -36.6402 -36.6343 -36.5538 -36.4851 -36.3286 -36.2901
    -4.0483  -3.1908  -3.0371  -2.9788  -2.8818  -2.7730  -2.7590  -2.6563
    -2.5705  -2.5412  -2.4749  -2.4602  -2.0934  -1.8989  -1.8004  -1.2843
    -1.1952  -1.0576  -0.9003  -0.8334  -0.4980  -0.4550  -0.4189  -0.3301
    -0.2236   0.0397   0.0572   0.1267   0.1363   0.2340   0.3590   0.3938
     0.4870   0.8129   0.8186   1.0720   1.1254   1.2749   1.2964   1.3595
     1.6498   1.7492   1.7703   1.9820   2.0801   2.1050   2.2568   2.3705
     2.4688   2.5578   2.7501   2.8576   3.1172   3.1735   3.1929   3.4496
     3.4826   3.5906   3.6621   3.6767   3.7394   3.9121   3.9683   4.0694
     4.8216   5.3299   5.3813

          k = 0.0000 0.0699 0.0000 ( 29337 PWs)   bands (ev):

   -76.9078 -76.8720 -76.4290 -76.3932 -76.3257 -76.2901 -65.2500 -65.1681
   -64.8626 -64.8187 -64.7811 -64.7373 -44.9307 -44.7969 -44.7655 -44.7557
   -44.7260 -44.5597 -44.4622 -44.3398 -44.3397 -44.3003 -44.2521 -44.2203
   -44.2136 -44.1822 -44.1049 -44.0919 -44.0680 -43.9723 -37.4341 -37.2707
   -37.1856 -37.1155 -37.0448 -37.0395 -37.0051 -36.7650 -36.7174 -36.7149
   -36.7121 -36.6900 -36.6409 -36.6357 -36.5550 -36.4855 -36.3288 -36.2904
    -3.7072  -3.0649  -2.7907  -2.7653  -2.6918  -2.6030  -2.5504  -2.4161
    -2.3902  -2.2889  -2.2817  -2.2463  -1.9347  -1.6341  -1.5467  -1.2762
    -1.1688  -1.1593  -0.9795  -0.8682  -0.6344  -0.5157  -0.4137  -0.2485
    -0.2335  -0.0939   0.0400   0.1479   0.2177   0.2420   0.2914   0.3004
     0.5030   0.5131   0.8435   0.8791   1.0145   1.0240   1.0300   1.2808
     1.3220   1.3422   1.4129   1.7544   1.7748   1.7853   1.9702   2.0106
     2.1514   2.1685   2.5015   2.6962   2.8943   2.9037   3.0243   3.2752
     3.3294   3.3646   3.3777   3.4971   3.6688   3.8365   4.0213   4.1583
     4.8522   5.5380   5.7422

          k = 0.0000 0.0873 0.0000 ( 29328 PWs)   bands (ev):

   -76.9078 -76.8720 -76.4290 -76.3932 -76.3257 -76.2901 -65.2501 -65.1681
   -64.8627 -64.8188 -64.7811 -64.7373 -44.9299 -44.7962 -44.7638 -44.7554
   -44.7254 -44.5596 -44.4615 -44.3391 -44.3381 -44.2998 -44.2500 -44.2206
   -44.2129 -44.1824 -44.1048 -44.0919 -44.0680 -43.9722 -37.4359 -37.2734
   -37.1869 -37.1184 -37.0462 -37.0407 -37.0068 -36.7672 -36.7200 -36.7152
   -36.7125 -36.6911 -36.6419 -36.6362 -36.5558 -36.4857 -36.3291 -36.2906
    -3.3618  -2.9932  -2.6096  -2.5811  -2.5708  -2.4815  -2.2941  -2.2350
    -2.1819  -2.1599  -2.0340  -1.9824  -1.7772  -1.5210  -1.5026  -1.3536
    -1.1426  -1.1113  -0.9602  -0.8672  -0.7718  -0.5261  -0.4772  -0.2259
    -0.2117  -0.1246  -0.0428   0.1014   0.2068   0.2246   0.3317   0.3423
     0.4721   0.5562   0.6103   0.6149   0.6322   0.8457   0.9032   1.0518
     1.0704   1.2149   1.2572   1.3259   1.3284   1.5712   1.8206   1.9719
     1.9920   2.0922   2.2710   2.4160   2.6932   2.9127   3.0053   3.0455
     3.0587   3.1627   3.2296   3.3979   3.6496   3.8467   3.9929   4.6081
     4.8775   5.5608   5.6276

          k = 0.0000-0.1048 0.0000 ( 29318 PWs)   bands (ev):

   -76.9078 -76.8720 -76.4290 -76.3932 -76.3257 -76.2901 -65.2501 -65.1681
   -64.8628 -64.8188 -64.7811 -64.7373 -44.9297 -44.7960 -44.7632 -44.7553
   -44.7252 -44.5596 -44.4613 -44.3388 -44.3375 -44.2996 -44.2493 -44.2208
   -44.2127 -44.1825 -44.1047 -44.0919 -44.0680 -43.9722 -37.4366 -37.2744
   -37.1874 -37.1194 -37.0468 -37.0411 -37.0074 -36.7680 -36.7212 -36.7153
   -36.7124 -36.6915 -36.6423 -36.6363 -36.5561 -36.4858 -36.3291 -36.2907
    -3.1474  -3.0333  -2.5467  -2.5222  -2.4680  -2.4625  -2.1907  -2.1688
    -2.1314  -2.0911  -1.8446  -1.8082  -1.7658  -1.5336  -1.4934  -1.3211
    -1.2598  -1.1584  -1.0305  -0.9537  -0.5563  -0.4670  -0.4245  -0.2442
    -0.2102  -0.1080  -0.0695   0.0941   0.1974   0.2284   0.3203   0.3465
     0.3837   0.4122   0.4729   0.5366   0.6650   0.7419   0.7429   0.7727
     1.1188   1.1313   1.1833   1.2603   1.3373   1.3724   1.8342   1.9381
     1.9513   1.9761   2.1722   2.4407   2.6092   2.9174   2.9377   2.9384
     3.0050   3.0699   3.1966   3.3706   3.6456   3.8561   3.9822   4.8872
     4.9493   5.2451   5.6566

          k = 0.0155 0.0087 0.0000 ( 29286 PWs)   bands (ev):

   -76.9072 -76.8726 -76.4284 -76.3938 -76.3252 -76.2907 -65.2482 -65.1694
   -64.8609 -64.8169 -64.7825 -64.7387 -44.9275 -44.7989 -44.7712 -44.7577
   -44.7289 -44.5664 -44.4588 -44.3455 -44.3365 -44.3028 -44.2593 -44.2182
   -44.2167 -44.1822 -44.1048 -44.0986 -44.0686 -43.9789 -37.4152 -37.2590
   -37.1820 -37.1025 -37.0361 -37.0273 -36.9869 -36.7568 -36.7267 -36.7134
   -36.6999 -36.6874 -36.6409 -36.6321 -36.5505 -36.4856 -36.3407 -36.3022
    -4.4971  -3.4094  -3.3603  -3.3378  -3.2391  -3.0123  -2.9740  -2.9659
    -2.9505  -2.7669  -2.7206  -2.7149  -2.3079  -2.2624  -2.2565  -1.2652
    -1.2034  -1.1260  -0.8488  -0.6393  -0.5327  -0.3815  -0.3120  -0.2655
    -0.1720  -0.1310  -0.0103   0.0778   0.2041   0.2825   0.3418   0.4703
     0.5550   0.9380   1.2920   1.3543   1.4144   1.6643   1.7125   1.7426
     1.8021   2.1121   2.1329   2.2810   2.5719   2.6129   2.7310   2.8464
     3.0686   3.1537   3.2733   3.4086   3.4250   3.5323   3.5937   3.6989
     3.7880   3.8273   4.0323   4.0789   4.1626   4.2320   4.3740   4.5204
     4.6604   4.9780   5.1032

          k = 0.0155 0.0262 0.0000 ( 29273 PWs)   bands (ev):

   -76.9072 -76.8726 -76.4284 -76.3938 -76.3251 -76.2907 -65.2483 -65.1694
   -64.8610 -64.8170 -64.7825 -64.7387 -44.9270 -44.7984 -44.7701 -44.7575
   -44.7285 -44.5664 -44.4583 -44.3444 -44.3360 -44.3025 -44.2579 -44.2185
   -44.2163 -44.1823 -44.1047 -44.0985 -44.0686 -43.9788 -37.4165 -37.2608
   -37.1828 -37.1045 -37.0369 -37.0283 -36.9880 -36.7577 -36.7269 -36.7137
   -36.7022 -36.6880 -36.6410 -36.6332 -36.5511 -36.4858 -36.3409 -36.3023
    -4.3789  -3.3209  -3.3060  -3.2347  -3.1386  -2.9523  -2.8970  -2.8870
    -2.8573  -2.7025  -2.6755  -2.6418  -2.2191  -2.2102  -2.1244  -1.2674
    -1.1634  -1.1310  -0.8514  -0.5884  -0.5441  -0.5077  -0.3227  -0.2403
    -0.1842  -0.1623   0.0119   0.1281   0.2362   0.2397   0.2943   0.5047
     0.5678   0.8264   1.1674   1.3024   1.3079   1.5614   1.6397   1.6779
     1.7013   1.9558   1.9885   2.2461   2.4764   2.5013   2.7015   2.7886
     2.9088   3.0395   3.1453   3.1585   3.2563   3.3420   3.4196   3.5993
     3.6434   3.7278   3.8123   3.9156   4.0999   4.1300   4.5297   4.5415
     4.6836   4.7719   5.4985

          k = 0.0155 0.0437 0.0000 ( 29274 PWs)   bands (ev):

   -76.9072 -76.8726 -76.4284 -76.3938 -76.3251 -76.2907 -65.2484 -65.1694
   -64.8611 -64.8171 -64.7825 -64.7387 -44.9261 -44.7975 -44.7682 -44.7571
   -44.7279 -44.5663 -44.4575 -44.3424 -44.3351 -44.3019 -44.2556 -44.2189
   -44.2156 -44.1825 -44.1045 -44.0985 -44.0686 -43.9788 -37.4187 -37.2639
   -37.1843 -37.1081 -37.0383 -37.0300 -36.9900 -36.7597 -36.7272 -36.7141
   -36.7061 -36.6891 -36.6412 -36.6348 -36.5521 -36.4861 -36.3411 -36.3026
    -4.1522  -3.2052  -3.1454  -3.0540  -2.9542  -2.8341  -2.7931  -2.7322
    -2.6417  -2.5971  -2.5780  -2.4937  -2.1093  -2.0301  -1.8932  -1.2803
    -1.1517  -1.0954  -0.8795  -0.7506  -0.5173  -0.4585  -0.3707  -0.3219
    -0.2256  -0.0571   0.0714   0.1378   0.1399   0.2375   0.3307   0.4036
     0.6193   0.7339   0.9167   1.1541   1.1669   1.4053   1.4070   1.4561
     1.6938   1.7544   1.8868   2.1236   2.1352   2.2656   2.3205   2.5797
     2.5970   2.7414   2.8467   2.8940   3.1316   3.1582   3.3896   3.3903
     3.4878   3.5677   3.7193   3.7942   3.8151   3.9735   4.1953   4.6763
     4.6835   4.9247   5.1656

          k = 0.0155 0.0611 0.0000 ( 29287 PWs)   bands (ev):

   -76.9072 -76.8726 -76.4284 -76.3938 -76.3251 -76.2907 -65.2485 -65.1695
   -64.8612 -64.8172 -64.7825 -64.7387 -44.9250 -44.7966 -44.7660 -44.7567
   -44.7271 -44.5662 -44.4565 -44.3401 -44.3341 -44.3013 -44.2528 -44.2194
   -44.2147 -44.1827 -44.1044 -44.0984 -44.0687 -43.9787 -37.4212 -37.2675
   -37.1861 -37.1122 -37.0399 -37.0321 -36.9923 -36.7623 -36.7275 -36.7149
   -36.7098 -36.6905 -36.6417 -36.6364 -36.5532 -36.4865 -36.3413 -36.3029
    -3.8402  -3.0770  -2.9039  -2.8438  -2.7390  -2.6573  -2.6490  -2.4967
    -2.4785  -2.4090  -2.3584  -2.3078  -1.9679  -1.7642  -1.6314  -1.2809
    -1.1772  -1.0972  -0.9264  -0.9132  -0.5495  -0.4685  -0.4180  -0.2932
    -0.2603   0.0007   0.0050   0.0710   0.1944   0.2389   0.2745   0.3759
     0.4776   0.5982   0.8794   0.9615   1.0198   1.1329   1.1686   1.3578
     1.4247   1.5675   1.6257   1.7051   1.9074   1.9986   2.0638   2.1137
     2.1892   2.3036   2.6244   2.8284   2.8936   2.9684   3.1250   3.2165
     3.4214   3.5204   3.6046   3.6546   3.6549   3.9908   4.0416   4.1096
     4.7344   5.1055   5.6720

          k = 0.0155 0.0786 0.0000 ( 29326 PWs)   bands (ev):

   -76.9072 -76.8726 -76.4284 -76.3938 -76.3251 -76.2907 -65.2487 -65.1695
   -64.8613 -64.8173 -64.7825 -64.7387 -44.9241 -44.7958 -44.7640 -44.7563
   -44.7264 -44.5662 -44.4557 -44.3382 -44.3333 -44.3008 -44.2503 -44.2198
   -44.2140 -44.1830 -44.1042 -44.0984 -44.0687 -43.9787 -37.4233 -37.2707
   -37.1876 -37.1157 -37.0413 -37.0338 -36.9943 -36.7648 -36.7278 -36.7173
   -36.7111 -36.6918 -36.6426 -36.6373 -36.5542 -36.4868 -36.3416 -36.3031
    -3.4870  -2.9657  -2.6626  -2.6487  -2.5911  -2.4893  -2.4211  -2.3070
    -2.2535  -2.1818  -2.1417  -2.0732  -1.8056  -1.5787  -1.5011  -1.2874
    -1.2040  -1.0369  -0.9914  -0.8780  -0.7646  -0.5610  -0.4340  -0.2934
    -0.2041  -0.1137  -0.0409   0.0690   0.1263   0.1886   0.3196   0.3684
     0.4029   0.5229   0.7031   0.7354   0.8356   0.9742   1.0248   1.1484
     1.1613   1.2066   1.2897   1.4563   1.4825   1.7808   1.8065   1.9794
     2.0461   2.1583   2.3144   2.5622   2.7778   2.9029   2.9742   3.0500
     3.2915   3.3292   3.3880   3.4854   3.6186   3.7503   3.9530   4.4831
     4.7730   5.2369   6.0093

          k = 0.0155 0.0961 0.0000 ( 29340 PWs)   bands (ev):

   -76.9072 -76.8726 -76.4284 -76.3938 -76.3251 -76.2908 -65.2487 -65.1695
   -64.8614 -64.8174 -64.7825 -64.7387 -44.9236 -44.7954 -44.7628 -44.7561
   -44.7260 -44.5661 -44.4552 -44.3370 -44.3328 -44.3005 -44.2489 -44.2201
   -44.2136 -44.1831 -44.1041 -44.0983 -44.0687 -43.9786 -37.4246 -37.2725
   -37.1885 -37.1177 -37.0421 -37.0348 -36.9955 -36.7664 -36.7280 -36.7193
   -36.7112 -36.6925 -36.6433 -36.6376 -36.5548 -36.4869 -36.3417 -36.3032
    -3.1750  -2.9575  -2.5411  -2.4995  -2.4660  -2.4222  -2.2321  -2.1465
    -2.1418  -2.0932  -1.8632  -1.8494  -1.7121  -1.5856  -1.4759  -1.3796
    -1.1686  -1.0894  -1.0392  -0.9871  -0.5515  -0.5405  -0.4781  -0.2338
    -0.2320  -0.1400  -0.1083   0.0464   0.1433   0.1826   0.2901   0.3201
     0.3485   0.4020   0.4969   0.5180   0.6668   0.7542   0.8055   0.9004
     1.0902   1.1248   1.1546   1.3402   1.4538   1.4811   1.7652   1.9236
     1.9851   2.0944   2.1802   2.4503   2.6521   2.8966   2.9547   2.9569
     3.0877   3.1549   3.2225   3.3791   3.6093   3.7675   3.9279   4.7946
     4.8964   5.3032   5.4458

          k = 0.0155-0.0961 0.0000 ( 29340 PWs)   bands (ev):

   -76.9072 -76.8726 -76.4284 -76.3938 -76.3251 -76.2908 -65.2487 -65.1695
   -64.8614 -64.8174 -64.7825 -64.7387 -44.9236 -44.7954 -44.7628 -44.7561
   -44.7260 -44.5661 -44.4552 -44.3370 -44.3328 -44.3005 -44.2489 -44.2201
   -44.2136 -44.1831 -44.1041 -44.0983 -44.0687 -43.9786 -37.4246 -37.2725
   -37.1885 -37.1177 -37.0421 -37.0348 -36.9955 -36.7664 -36.7280 -36.7193
   -36.7112 -36.6925 -36.6433 -36.6376 -36.5548 -36.4869 -36.3417 -36.3032
    -3.1750  -2.9575  -2.5411  -2.4995  -2.4660  -2.4222  -2.2321  -2.1465
    -2.1418  -2.0932  -1.8632  -1.8494  -1.7121  -1.5856  -1.4759  -1.3796
    -1.1686  -1.0894  -1.0392  -0.9871  -0.5515  -0.5405  -0.4781  -0.2338
    -0.2320  -0.1400  -0.1083   0.0464   0.1433   0.1826   0.2901   0.3201
     0.3485   0.4020   0.4969   0.5180   0.6668   0.7542   0.8055   0.9004
     1.0902   1.1248   1.1546   1.3402   1.4538   1.4811   1.7652   1.9236
     1.9851   2.0944   2.1802   2.4503   2.6521   2.8966   2.9547   2.9569
     3.0877   3.1549   3.2225   3.3791   3.6093   3.7675   3.9279   4.7946
     4.8964   5.3032   5.4458

          k = 0.0155-0.0786 0.0000 ( 29326 PWs)   bands (ev):

   -76.9072 -76.8726 -76.4284 -76.3938 -76.3251 -76.2907 -65.2487 -65.1695
   -64.8613 -64.8173 -64.7825 -64.7387 -44.9241 -44.7958 -44.7640 -44.7563
   -44.7264 -44.5662 -44.4557 -44.3382 -44.3333 -44.3008 -44.2503 -44.2198
   -44.2140 -44.1830 -44.1042 -44.0984 -44.0687 -43.9787 -37.4233 -37.2707
   -37.1876 -37.1157 -37.0413 -37.0338 -36.9943 -36.7648 -36.7278 -36.7173
   -36.7111 -36.6918 -36.6426 -36.6373 -36.5542 -36.4868 -36.3416 -36.3031
    -3.4870  -2.9657  -2.6626  -2.6487  -2.5911  -2.4893  -2.4211  -2.3070
    -2.2535  -2.1818  -2.1417  -2.0732  -1.8056  -1.5787  -1.5011  -1.2874
    -1.2040  -1.0369  -0.9914  -0.8780  -0.7646  -0.5610  -0.4340  -0.2934
    -0.2041  -0.1137  -0.0409   0.0690   0.1263   0.1886   0.3196   0.3684
     0.4029   0.5229   0.7031   0.7354   0.8356   0.9742   1.0248   1.1484
     1.1613   1.2066   1.2897   1.4563   1.4825   1.7808   1.8065   1.9794
     2.0461   2.1583   2.3144   2.5622   2.7778   2.9029   2.9742   3.0500
     3.2915   3.3292   3.3880   3.4854   3.6186   3.7503   3.9530   4.4831
     4.7730   5.2369   6.0095

          k = 0.0155-0.0611 0.0000 ( 29287 PWs)   bands (ev):

   -76.9072 -76.8726 -76.4284 -76.3938 -76.3251 -76.2907 -65.2485 -65.1695
   -64.8612 -64.8172 -64.7825 -64.7387 -44.9250 -44.7966 -44.7660 -44.7567
   -44.7271 -44.5662 -44.4565 -44.3401 -44.3341 -44.3013 -44.2528 -44.2194
   -44.2147 -44.1827 -44.1044 -44.0984 -44.0687 -43.9787 -37.4212 -37.2675
   -37.1861 -37.1122 -37.0399 -37.0321 -36.9923 -36.7623 -36.7275 -36.7149
   -36.7098 -36.6905 -36.6417 -36.6364 -36.5532 -36.4865 -36.3413 -36.3029
    -3.8402  -3.0770  -2.9039  -2.8438  -2.7390  -2.6573  -2.6490  -2.4967
    -2.4785  -2.4090  -2.3584  -2.3078  -1.9679  -1.7642  -1.6314  -1.2809
    -1.1772  -1.0972  -0.9264  -0.9132  -0.5495  -0.4685  -0.4180  -0.2932
    -0.2603   0.0007   0.0050   0.0710   0.1944   0.2389   0.2745   0.3759
     0.4776   0.5982   0.8794   0.9615   1.0198   1.1329   1.1686   1.3578
     1.4247   1.5675   1.6257   1.7051   1.9074   1.9986   2.0638   2.1137
     2.1892   2.3036   2.6244   2.8284   2.8936   2.9684   3.1250   3.2165
     3.4214   3.5204   3.6046   3.6546   3.6549   3.9908   4.0416   4.1096
     4.7344   5.1055   5.6720

          k = 0.0155-0.0437 0.0000 ( 29274 PWs)   bands (ev):

   -76.9072 -76.8726 -76.4284 -76.3938 -76.3251 -76.2907 -65.2484 -65.1694
   -64.8611 -64.8171 -64.7825 -64.7387 -44.9261 -44.7975 -44.7682 -44.7571
   -44.7279 -44.5663 -44.4575 -44.3424 -44.3351 -44.3019 -44.2556 -44.2189
   -44.2156 -44.1825 -44.1045 -44.0985 -44.0686 -43.9788 -37.4187 -37.2639
   -37.1843 -37.1081 -37.0383 -37.0300 -36.9900 -36.7597 -36.7272 -36.7141
   -36.7061 -36.6891 -36.6412 -36.6348 -36.5521 -36.4861 -36.3411 -36.3026
    -4.1522  -3.2052  -3.1454  -3.0540  -2.9542  -2.8341  -2.7931  -2.7322
    -2.6417  -2.5971  -2.5780  -2.4937  -2.1093  -2.0301  -1.8932  -1.2803
    -1.1517  -1.0954  -0.8795  -0.7506  -0.5173  -0.4585  -0.3707  -0.3219
    -0.2256  -0.0571   0.0714   0.1378   0.1399   0.2375   0.3307   0.4036
     0.6193   0.7339   0.9167   1.1541   1.1669   1.4053   1.4070   1.4561
     1.6938   1.7544   1.8868   2.1236   2.1352   2.2656   2.3205   2.5797
     2.5970   2.7414   2.8467   2.8940   3.1316   3.1582   3.3896   3.3903
     3.4878   3.5677   3.7193   3.7942   3.8151   3.9735   4.1953   4.6763
     4.6835   4.9247   5.1656

          k = 0.0155-0.0262 0.0000 ( 29273 PWs)   bands (ev):

   -76.9072 -76.8726 -76.4284 -76.3938 -76.3251 -76.2907 -65.2483 -65.1694
   -64.8610 -64.8170 -64.7825 -64.7387 -44.9270 -44.7984 -44.7701 -44.7575
   -44.7285 -44.5664 -44.4583 -44.3444 -44.3360 -44.3025 -44.2579 -44.2185
   -44.2163 -44.1823 -44.1047 -44.0985 -44.0686 -43.9788 -37.4165 -37.2608
   -37.1828 -37.1045 -37.0369 -37.0283 -36.9880 -36.7577 -36.7269 -36.7137
   -36.7022 -36.6880 -36.6410 -36.6332 -36.5511 -36.4858 -36.3409 -36.3023
    -4.3789  -3.3209  -3.3060  -3.2347  -3.1386  -2.9523  -2.8970  -2.8870
    -2.8573  -2.7025  -2.6755  -2.6418  -2.2191  -2.2102  -2.1244  -1.2674
    -1.1634  -1.1310  -0.8514  -0.5884  -0.5441  -0.5077  -0.3227  -0.2403
    -0.1842  -0.1623   0.0119   0.1281   0.2362   0.2397   0.2943   0.5047
     0.5678   0.8264   1.1674   1.3024   1.3079   1.5614   1.6397   1.6779
     1.7013   1.9558   1.9885   2.2461   2.4764   2.5013   2.7015   2.7886
     2.9088   3.0395   3.1453   3.1585   3.2563   3.3420   3.4196   3.5993
     3.6434   3.7278   3.8123   3.9156   4.0999   4.1300   4.5297   4.5415
     4.6836   4.7719   5.4985

          k = 0.0155-0.0087 0.0000 ( 29286 PWs)   bands (ev):

   -76.9072 -76.8726 -76.4284 -76.3938 -76.3252 -76.2907 -65.2482 -65.1694
   -64.8609 -64.8169 -64.7825 -64.7387 -44.9275 -44.7989 -44.7712 -44.7577
   -44.7289 -44.5664 -44.4588 -44.3455 -44.3365 -44.3028 -44.2593 -44.2182
   -44.2167 -44.1822 -44.1048 -44.0986 -44.0686 -43.9789 -37.4152 -37.2590
   -37.1820 -37.1025 -37.0361 -37.0273 -36.9869 -36.7568 -36.7267 -36.7134
   -36.6999 -36.6874 -36.6409 -36.6321 -36.5505 -36.4856 -36.3407 -36.3022
    -4.4971  -3.4094  -3.3603  -3.3378  -3.2391  -3.0123  -2.9740  -2.9659
    -2.9505  -2.7669  -2.7206  -2.7149  -2.3079  -2.2624  -2.2565  -1.2652
    -1.2034  -1.1260  -0.8488  -0.6393  -0.5327  -0.3815  -0.3120  -0.2655
    -0.1720  -0.1310  -0.0103   0.0778   0.2041   0.2825   0.3418   0.4703
     0.5550   0.9380   1.2920   1.3543   1.4144   1.6643   1.7125   1.7426
     1.8021   2.1121   2.1329   2.2810   2.5719   2.6129   2.7310   2.8464
     3.0686   3.1537   3.2733   3.4086   3.4250   3.5323   3.5937   3.6989
     3.7880   3.8273   4.0323   4.0789   4.1626   4.2320   4.3740   4.5204
     4.6604   4.9780   5.1032

          k = 0.0309 0.0175 0.0000 ( 29331 PWs)   bands (ev):

   -76.9055 -76.8744 -76.4266 -76.3956 -76.3234 -76.2925 -65.2442 -65.1735
   -64.8569 -64.8129 -64.7866 -64.7428 -44.9090 -44.7965 -44.7685 -44.7596
   -44.7305 -44.5852 -44.4403 -44.3428 -44.3182 -44.3045 -44.2565 -44.2183
   -44.2165 -44.1842 -44.1174 -44.1028 -44.0705 -43.9975 -37.3814 -37.2560
   -37.1870 -37.1001 -37.0406 -36.9934 -36.9532 -36.7643 -36.7535 -36.7099
   -36.6977 -36.6916 -36.6448 -36.6369 -36.5475 -36.4893 -36.3780 -36.3394
    -4.3147  -3.3078  -3.2090  -3.2076  -3.0844  -2.9204  -2.8659  -2.8403
    -2.7959  -2.6962  -2.6192  -2.6094  -2.2140  -2.0980  -2.0931  -1.2350
    -1.1988  -1.0899  -0.7940  -0.6131  -0.5726  -0.4575  -0.3393  -0.2524
    -0.1869  -0.1819  -0.0541   0.1710   0.2224   0.2265   0.3395   0.5019
     0.5462   0.8575   1.0434   1.1293   1.3529   1.5167   1.6412   1.6453
     1.7775   1.9291   1.9891   2.1112   2.3631   2.4222   2.6047   2.6471
     2.7835   2.8422   3.1354   3.2104   3.2928   3.4410   3.4844   3.5362
     3.6700   3.7062   3.7233   3.7962   3.8786   4.0665   4.2008   4.4334
     4.7985   5.0870   5.4702

          k = 0.0309 0.0349 0.0000 ( 29280 PWs)   bands (ev):

   -76.9054 -76.8744 -76.4266 -76.3956 -76.3234 -76.2925 -65.2443 -65.1736
   -64.8570 -64.8130 -64.7866 -64.7428 -44.9083 -44.7958 -44.7671 -44.7593
   -44.7301 -44.5852 -44.4397 -44.3413 -44.3175 -44.3041 -44.2547 -44.2178
   -44.2168 -44.1843 -44.1174 -44.1027 -44.0705 -43.9975 -37.3831 -37.2583
   -37.1880 -37.1028 -37.0415 -36.9948 -36.9547 -36.7644 -36.7549 -36.7102
   -36.7007 -36.6923 -36.6449 -36.6380 -36.5482 -36.4895 -36.3781 -36.3395
    -4.1455  -3.2002  -3.1275  -3.0560  -2.9456  -2.8381  -2.7620  -2.7451
    -2.6344  -2.6165  -2.5575  -2.4900  -2.1011  -2.0169  -1.9004  -1.2626
    -1.1519  -1.0866  -0.8424  -0.7260  -0.5524  -0.4218  -0.3472  -0.2845
    -0.2716  -0.1610   0.0321   0.1586   0.2079   0.2395   0.3134   0.4020
     0.6596   0.7428   0.8695   1.0567   1.2078   1.3921   1.4791   1.5838
     1.6576   1.7373   1.9260   2.0653   2.1034   2.2600   2.4631   2.4658
     2.5261   2.8381   2.8394   2.9806   3.0198   3.1476   3.2431   3.4718
     3.5186   3.5964   3.7014   3.8480   3.8572   3.9963   4.0600   4.4957
     4.9199   4.9590   5.2107

          k = 0.0309 0.0524 0.0000 ( 29300 PWs)   bands (ev):

   -76.9054 -76.8744 -76.4266 -76.3956 -76.3234 -76.2925 -65.2444 -65.1736
   -64.8571 -64.8131 -64.7866 -64.7428 -44.9073 -44.7950 -44.7651 -44.7589
   -44.7295 -44.5852 -44.4388 -44.3392 -44.3166 -44.3036 -44.2522 -44.2172
   -44.2172 -44.1845 -44.1174 -44.1026 -44.0705 -43.9975 -37.3854 -37.2615
   -37.1894 -37.1065 -37.0428 -36.9966 -36.9568 -36.7646 -36.7571 -36.7106
   -36.7044 -36.6934 -36.6452 -36.6395 -36.5493 -36.4897 -36.3782 -36.3396
    -3.8790  -3.0047  -3.0033  -2.8706  -2.7422  -2.6976  -2.6352  -2.5410
    -2.4807  -2.4746  -2.3909  -2.3106  -1.8972  -1.8869  -1.6677  -1.2788
    -1.1087  -1.1008  -0.9538  -0.8752  -0.5278  -0.4113  -0.3940  -0.3150
    -0.3117  -0.1351   0.0643   0.1081   0.1641   0.1935   0.2817   0.3750
     0.5504   0.6040   0.8243   0.9945   1.0488   1.2111   1.2387   1.4537
     1.4739   1.5526   1.7328   1.8476   1.8727   2.0158   2.0415   2.0788
     2.3461   2.4263   2.7006   2.7412   2.9128   2.9188   3.0784   3.3077
     3.4688   3.5109   3.6222   3.6606   3.7918   4.1500   4.2674   4.3869
     4.5481   4.8336   5.0270

          k = 0.0309 0.0699 0.0000 ( 29321 PWs)   bands (ev):

   -76.9054 -76.8744 -76.4266 -76.3956 -76.3233 -76.2925 -65.2446 -65.1736
   -64.8572 -64.8132 -64.7866 -64.7428 -44.9063 -44.7942 -44.7630 -44.7586
   -44.7289 -44.5852 -44.4379 -44.3372 -44.3157 -44.3032 -44.2496 -44.2177
   -44.2165 -44.1847 -44.1174 -44.1024 -44.0705 -43.9975 -37.3877 -37.2648
   -37.1908 -37.1101 -37.0441 -36.9985 -36.9589 -36.7648 -36.7596 -36.7120
   -36.7070 -36.6946 -36.6457 -36.6406 -36.5503 -36.4900 -36.3783 -36.3398
    -3.5443  -2.8707  -2.7403  -2.6862  -2.5539  -2.5153  -2.4661  -2.3385
    -2.3364  -2.2289  -2.1305  -2.1231  -1.7503  -1.6286  -1.5896  -1.2386
    -1.1655  -1.0581  -0.9811  -0.9619  -0.6612  -0.5462  -0.4218  -0.4007
    -0.2312  -0.1274  -0.0238   0.0061   0.0856   0.1681   0.2298   0.3661
     0.4036   0.5285   0.7562   0.8150   0.9627   0.9787   1.0609   1.1915
     1.2892   1.2960   1.4390   1.4810   1.5170   1.8424   1.9351   1.9933
     2.0763   2.1352   2.3865   2.7255   2.7410   2.8340   3.0684   3.0781
     3.4016   3.4655   3.5272   3.5331   3.6609   3.9667   4.1393   4.4210
     4.4915   4.6029   5.1101

          k = 0.0309 0.0873 0.0000 ( 29347 PWs)   bands (ev):

   -76.9054 -76.8744 -76.4266 -76.3956 -76.3233 -76.2925 -65.2446 -65.1736
   -64.8573 -64.8133 -64.7866 -64.7428 -44.9056 -44.7936 -44.7615 -44.7583
   -44.7285 -44.5852 -44.4373 -44.3357 -44.3150 -44.3029 -44.2477 -44.2180
   -44.2161 -44.1849 -44.1174 -44.1023 -44.0705 -43.9975 -37.3893 -37.2672
   -37.1919 -37.1128 -37.0450 -36.9998 -36.9605 -36.7650 -36.7614 -36.7142
   -36.7075 -36.6955 -36.6464 -36.6412 -36.5510 -36.4902 -36.3784 -36.3399
    -3.1960  -2.7998  -2.5292  -2.4793  -2.4332  -2.3257  -2.3233  -2.1687
    -2.1664  -2.0384  -1.9064  -1.8941  -1.6829  -1.6176  -1.4321  -1.4202
    -1.0944  -1.0706  -1.0027  -0.9444  -0.6889  -0.6074  -0.5164  -0.3913
    -0.2310  -0.2017  -0.0745  -0.0487   0.0483   0.0703   0.1639   0.3127
     0.3779   0.4300   0.5107   0.6216   0.6406   0.7830   0.7835   1.0424
     1.0788   1.1267   1.2539   1.4427   1.6142   1.6192   1.7732   1.9023
     2.0174   2.0990   2.2756   2.5965   2.7015   2.8126   2.9225   3.0254
     3.2943   3.3496   3.4261   3.4760   3.5092   3.6326   3.8199   4.5020
     4.6576   4.8825   5.1640

          k = 0.0309 0.1048 0.0000 ( 29312 PWs)   bands (ev):

   -76.9054 -76.8744 -76.4266 -76.3956 -76.3233 -76.2925 -65.2447 -65.1736
   -64.8573 -64.8134 -64.7866 -64.7428 -44.9054 -44.7934 -44.7609 -44.7583
   -44.7283 -44.5852 -44.4370 -44.3351 -44.3148 -44.3027 -44.2470 -44.2182
   -44.2159 -44.1849 -44.1174 -44.1022 -44.0705 -43.9975 -37.3899 -37.2681
   -37.1923 -37.1137 -37.0453 -37.0003 -36.9610 -36.7652 -36.7621 -36.7152
   -36.7075 -36.6958 -36.6466 -36.6413 -36.5513 -36.4903 -36.3785 -36.3399
    -2.9640  -2.8598  -2.4559  -2.3597  -2.3550  -2.2969  -2.2502  -2.0841
    -2.0742  -2.0219  -1.7950  -1.7487  -1.6086  -1.5704  -1.5569  -1.4573
    -1.2024  -1.1115  -1.0522  -0.9424  -0.5874  -0.4478  -0.4034  -0.3602
    -0.2760  -0.2484  -0.1523  -0.0935  -0.0583   0.0632   0.1216   0.1464
     0.3253   0.3368   0.3792   0.5254   0.6360   0.6438   0.7946   0.9122
     0.9699   1.1099   1.2289   1.4792   1.5560   1.6607   1.7051   1.8484
     2.0147   2.0993   2.2941   2.5694   2.6621   2.8126   2.8829   3.0429
     3.1982   3.2557   3.2639   3.3738   3.5054   3.5860   3.7900   4.5255
     4.6814   5.1819   5.1911

          k = 0.0309-0.0873 0.0000 ( 29347 PWs)   bands (ev):

   -76.9054 -76.8744 -76.4266 -76.3956 -76.3233 -76.2925 -65.2446 -65.1736
   -64.8573 -64.8133 -64.7866 -64.7428 -44.9056 -44.7936 -44.7615 -44.7583
   -44.7285 -44.5852 -44.4373 -44.3357 -44.3150 -44.3029 -44.2477 -44.2180
   -44.2161 -44.1849 -44.1174 -44.1023 -44.0705 -43.9975 -37.3893 -37.2672
   -37.1919 -37.1128 -37.0450 -36.9998 -36.9605 -36.7650 -36.7614 -36.7142
   -36.7075 -36.6955 -36.6464 -36.6412 -36.5510 -36.4902 -36.3784 -36.3399
    -3.1960  -2.7998  -2.5292  -2.4793  -2.4332  -2.3257  -2.3233  -2.1687
    -2.1664  -2.0384  -1.9064  -1.8941  -1.6829  -1.6176  -1.4321  -1.4202
    -1.0944  -1.0706  -1.0027  -0.9444  -0.6889  -0.6074  -0.5164  -0.3913
    -0.2310  -0.2017  -0.0745  -0.0487   0.0483   0.0703   0.1639   0.3127
     0.3779   0.4300   0.5107   0.6216   0.6406   0.7830   0.7835   1.0424
     1.0788   1.1267   1.2539   1.4427   1.6142   1.6192   1.7732   1.9023
     2.0174   2.0990   2.2756   2.5965   2.7015   2.8126   2.9225   3.0254
     3.2943   3.3496   3.4261   3.4760   3.5092   3.6326   3.8199   4.5020
     4.6576   4.8825   5.1640

          k = 0.0309-0.0699 0.0000 ( 29321 PWs)   bands (ev):

   -76.9054 -76.8744 -76.4266 -76.3956 -76.3233 -76.2925 -65.2446 -65.1736
   -64.8572 -64.8132 -64.7866 -64.7428 -44.9063 -44.7942 -44.7630 -44.7586
   -44.7289 -44.5852 -44.4379 -44.3372 -44.3157 -44.3032 -44.2496 -44.2177
   -44.2165 -44.1847 -44.1174 -44.1024 -44.0705 -43.9975 -37.3877 -37.2648
   -37.1908 -37.1101 -37.0441 -36.9985 -36.9589 -36.7648 -36.7596 -36.7120
   -36.7070 -36.6946 -36.6457 -36.6406 -36.5503 -36.4900 -36.3783 -36.3398
    -3.5443  -2.8707  -2.7403  -2.6862  -2.5539  -2.5153  -2.4661  -2.3385
    -2.3364  -2.2289  -2.1305  -2.1231  -1.7503  -1.6286  -1.5896  -1.2386
    -1.1655  -1.0581  -0.9811  -0.9619  -0.6612  -0.5462  -0.4218  -0.4007
    -0.2312  -0.1274  -0.0238   0.0061   0.0855   0.1681   0.2298   0.3661
     0.4036   0.5285   0.7562   0.8150   0.9627   0.9787   1.0609   1.1915
     1.2892   1.2960   1.4390   1.4810   1.5170   1.8424   1.9351   1.9933
     2.0763   2.1352   2.3865   2.7255   2.7410   2.8340   3.0684   3.0781
     3.4016   3.4655   3.5272   3.5331   3.6609   3.9667   4.1393   4.4210
     4.4915   4.6029   5.1101

          k = 0.0309-0.0524 0.0000 ( 29300 PWs)   bands (ev):

   -76.9054 -76.8744 -76.4266 -76.3956 -76.3234 -76.2925 -65.2444 -65.1736
   -64.8571 -64.8131 -64.7866 -64.7428 -44.9073 -44.7950 -44.7651 -44.7589
   -44.7295 -44.5852 -44.4388 -44.3392 -44.3166 -44.3036 -44.2522 -44.2172
   -44.2172 -44.1845 -44.1174 -44.1026 -44.0705 -43.9975 -37.3854 -37.2615
   -37.1894 -37.1065 -37.0428 -36.9966 -36.9568 -36.7646 -36.7571 -36.7106
   -36.7044 -36.6934 -36.6452 -36.6395 -36.5493 -36.4897 -36.3782 -36.3396
    -3.8790  -3.0047  -3.0033  -2.8706  -2.7422  -2.6976  -2.6352  -2.5410
    -2.4807  -2.4746  -2.3909  -2.3106  -1.8972  -1.8869  -1.6677  -1.2788
    -1.1087  -1.1008  -0.9538  -0.8752  -0.5278  -0.4113  -0.3940  -0.3150
    -0.3117  -0.1351   0.0643   0.1081   0.1641   0.1935   0.2817   0.3750
     0.5504   0.6040   0.8243   0.9945   1.0488   1.2111   1.2387   1.4537
     1.4739   1.5526   1.7328   1.8476   1.8727   2.0158   2.0415   2.0788
     2.3461   2.4263   2.7006   2.7412   2.9128   2.9188   3.0784   3.3077
     3.4688   3.5109   3.6222   3.6606   3.7918   4.1500   4.2674   4.3869
     4.5481   4.8336   5.0270

          k = 0.0309-0.0349 0.0000 ( 29280 PWs)   bands (ev):

   -76.9054 -76.8744 -76.4266 -76.3956 -76.3234 -76.2925 -65.2443 -65.1736
   -64.8570 -64.8130 -64.7866 -64.7428 -44.9083 -44.7958 -44.7671 -44.7593
   -44.7301 -44.5852 -44.4397 -44.3413 -44.3175 -44.3041 -44.2547 -44.2178
   -44.2168 -44.1843 -44.1174 -44.1027 -44.0705 -43.9975 -37.3831 -37.2583
   -37.1880 -37.1028 -37.0415 -36.9948 -36.9547 -36.7644 -36.7549 -36.7102
   -36.7007 -36.6923 -36.6449 -36.6380 -36.5482 -36.4895 -36.3781 -36.3395
    -4.1455  -3.2002  -3.1275  -3.0560  -2.9456  -2.8381  -2.7620  -2.7451
    -2.6344  -2.6165  -2.5575  -2.4900  -2.1011  -2.0169  -1.9004  -1.2626
    -1.1519  -1.0866  -0.8424  -0.7260  -0.5524  -0.4218  -0.3472  -0.2845
    -0.2716  -0.1610   0.0321   0.1586   0.2079   0.2395   0.3134   0.4020
     0.6596   0.7428   0.8695   1.0567   1.2078   1.3921   1.4791   1.5838
     1.6576   1.7373   1.9260   2.0653   2.1034   2.2600   2.4631   2.4658
     2.5261   2.8381   2.8394   2.9806   3.0198   3.1476   3.2431   3.4718
     3.5186   3.5964   3.7014   3.8480   3.8572   3.9963   4.0600   4.4957
     4.9199   4.9590   5.2107

          k = 0.0309-0.0175 0.0000 ( 29331 PWs)   bands (ev):

   -76.9055 -76.8744 -76.4266 -76.3956 -76.3234 -76.2925 -65.2442 -65.1735
   -64.8569 -64.8129 -64.7866 -64.7428 -44.9090 -44.7965 -44.7685 -44.7596
   -44.7305 -44.5852 -44.4403 -44.3428 -44.3182 -44.3045 -44.2565 -44.2183
   -44.2165 -44.1842 -44.1174 -44.1028 -44.0705 -43.9975 -37.3814 -37.2560
   -37.1870 -37.1001 -37.0406 -36.9934 -36.9532 -36.7643 -36.7535 -36.7099
   -36.6977 -36.6916 -36.6448 -36.6369 -36.5475 -36.4893 -36.3780 -36.3394
    -4.3147  -3.3078  -3.2090  -3.2076  -3.0844  -2.9204  -2.8659  -2.8403
    -2.7959  -2.6962  -2.6192  -2.6094  -2.2140  -2.0980  -2.0931  -1.2350
    -1.1988  -1.0899  -0.7940  -0.6131  -0.5726  -0.4575  -0.3393  -0.2524
    -0.1869  -0.1819  -0.0541   0.1710   0.2224   0.2265   0.3395   0.5019
     0.5462   0.8575   1.0434   1.1293   1.3529   1.5167   1.6412   1.6453
     1.7775   1.9291   1.9891   2.1112   2.3631   2.4222   2.6047   2.6471
     2.7835   2.8422   3.1354   3.2104   3.2928   3.4410   3.4844   3.5362
     3.6700   3.7062   3.7233   3.7962   3.8786   4.0665   4.2008   4.4334
     4.7985   5.0869   5.4702

          k = 0.0309-0.0000 0.0000 ( 29346 PWs)   bands (ev):

   -76.9055 -76.8744 -76.4266 -76.3956 -76.3234 -76.2925 -65.2442 -65.1735
   -64.8569 -64.8129 -64.7866 -64.7428 -44.9092 -44.7968 -44.7690 -44.7597
   -44.7307 -44.5852 -44.4406 -44.3433 -44.3184 -44.3046 -44.2571 -44.2184
   -44.2164 -44.1841 -44.1174 -44.1029 -44.0705 -43.9975 -37.3808 -37.2551
   -37.1866 -37.0991 -37.0402 -36.9929 -36.9526 -36.7643 -36.7530 -36.7097
   -36.6966 -36.6913 -36.6448 -36.6364 -36.5472 -36.4892 -36.3780 -36.3394
    -4.3725  -3.3342  -3.2725  -3.2373  -3.1327  -2.9450  -2.9076  -2.8664
    -2.8527  -2.7210  -2.6676  -2.6271  -2.2327  -2.1868  -2.1191  -1.2252
    -1.2158  -1.0944  -0.7837  -0.6387  -0.5057  -0.4696  -0.3368  -0.2609
    -0.1825  -0.1368  -0.0844   0.1597   0.2070   0.2170   0.3887   0.4742
     0.5410   0.9085   1.1012   1.1542   1.4208   1.5964   1.6185   1.6804
     1.8253   2.0098   2.1016   2.1117   2.3556   2.4575   2.6473   2.6523
     2.9274   3.0010   3.0918   3.3081   3.4769   3.4780   3.5115   3.5710
     3.6401   3.6421   3.7772   3.8710   4.1016   4.2236   4.3760   4.5247
     4.6370   4.7273   5.6492

          k = 0.0464 0.0262 0.0000 ( 29330 PWs)   bands (ev):

   -76.9026 -76.8772 -76.4238 -76.3984 -76.3206 -76.2954 -65.2378 -65.1801
   -64.8505 -64.8066 -64.7931 -64.7493 -44.8795 -44.7927 -44.7643 -44.7626
   -44.7333 -44.6151 -44.4109 -44.3385 -44.3072 -44.2890 -44.2521 -44.2208
   -44.2137 -44.1873 -44.1472 -44.0998 -44.0734 -44.0271 -37.3273 -37.2510
   -37.1946 -37.0961 -37.0475 -36.9393 -36.8993 -36.8234 -36.7486 -36.7041
   -36.6981 -36.6939 -36.6509 -36.6441 -36.5425 -36.4950 -36.4368 -36.3981
    -4.0292  -3.1717  -2.9938  -2.9832  -2.8525  -2.7872  -2.7017  -2.6646
    -2.5842  -2.5278  -2.4556  -2.4443  -2.0728  -1.8448  -1.8333  -1.2234
    -1.2079  -1.0183  -0.8442  -0.7444  -0.5793  -0.4146  -0.3414  -0.3087
    -0.2745  -0.2351   0.0478   0.1720   0.1832   0.2744   0.3422   0.4081
     0.6662   0.6972   0.7509   0.9156   1.2361   1.2824   1.4819   1.5561
     1.5684   1.6539   1.8485   1.8806   2.0483   2.0833   2.2364   2.4031
     2.5361   2.6115   2.8480   3.0007   3.0191   3.0941   3.1784   3.3826
     3.4841   3.5155   3.5643   3.6436   3.8860   3.9097   4.0044   4.0722
     4.2824   5.4312   5.8196

          k = 0.0464 0.0437 0.0000 ( 29344 PWs)   bands (ev):

   -76.9026 -76.8772 -76.4238 -76.3984 -76.3205 -76.2954 -65.2379 -65.1801
   -64.8506 -64.8067 -64.7931 -64.7493 -44.8787 -44.7921 -44.7627 -44.7624
   -44.7330 -44.6152 -44.4102 -44.3369 -44.3070 -44.2882 -44.2501 -44.2205
   -44.2141 -44.1874 -44.1473 -44.0997 -44.0734 -44.0272 -37.3291 -37.2535
   -37.1955 -37.0990 -37.0482 -36.9408 -36.9010 -36.8234 -36.7503 -36.7044
   -36.6988 -36.6970 -36.6511 -36.6450 -36.5434 -36.4951 -36.4367 -36.3981
    -3.8226  -3.0530  -2.8736  -2.8378  -2.6976  -2.6924  -2.5739  -2.5368
    -2.4750  -2.3932  -2.3392  -2.2970  -1.9382  -1.7395  -1.6445  -1.2519
    -1.1695  -1.0066  -0.9884  -0.8609  -0.5518  -0.3977  -0.3626  -0.3459
    -0.2793  -0.2585   0.1023   0.1554   0.1869   0.1881   0.2622   0.4067
     0.5086   0.5913   0.8159   0.8914   1.0776   1.1943   1.2518   1.3570
     1.4327   1.5779   1.6590   1.7692   1.9316   1.9707   1.9978   2.0624
     2.3336   2.5261   2.6684   2.6726   2.7444   2.9430   3.0163   3.3099
     3.4219   3.5131   3.5649   3.5737   3.7106   3.9042   4.1742   4.2004
     4.2131   5.1817   5.7431

          k = 0.0464 0.0611 0.0000 ( 29330 PWs)   bands (ev):

   -76.9026 -76.8773 -76.4238 -76.3985 -76.3205 -76.2954 -65.2380 -65.1801
   -64.8507 -64.8068 -64.7931 -64.7493 -44.8778 -44.7913 -44.7621 -44.7609
   -44.7326 -44.6153 -44.4094 -44.3350 -44.3068 -44.2873 -44.2478 -44.2202
   -44.2145 -44.1876 -44.1473 -44.0996 -44.0735 -44.0273 -37.3313 -37.2564
   -37.1965 -37.1023 -37.0490 -36.9425 -36.9029 -36.8233 -36.7524 -36.7050
   -36.7000 -36.6996 -36.6513 -36.6460 -36.5443 -36.4953 -36.4367 -36.3980
    -3.5331  -2.8481  -2.7289  -2.6775  -2.5450  -2.5079  -2.4359  -2.3741
    -2.3074  -2.2333  -2.1212  -2.1109  -1.7056  -1.6165  -1.6116  -1.2341
    -1.1018  -1.0520  -1.0297  -0.9771  -0.6202  -0.5289  -0.4590  -0.4135
    -0.2109  -0.1997   0.0157   0.0617   0.0744   0.1596   0.1630   0.3370
     0.4233   0.5674   0.7415   0.9097   0.9112   0.9924   1.0516   1.1605
     1.2065   1.3521   1.4300   1.5779   1.6080   1.8620   1.9492   1.9916
     2.0477   2.2132   2.3929   2.6056   2.7873   2.8071   2.9762   3.1450
     3.3853   3.4609   3.5229   3.5528   3.7303   3.7600   4.2101   4.2719
     4.5197   4.5582   4.9547

          k = 0.0464 0.0786 0.0000 ( 29325 PWs)   bands (ev):

   -76.9026 -76.8773 -76.4238 -76.3985 -76.3205 -76.2954 -65.2381 -65.1801
   -64.8508 -64.8069 -64.7931 -64.7493 -44.8770 -44.7907 -44.7619 -44.7592
   -44.7323 -44.6153 -44.4086 -44.3334 -44.3066 -44.2866 -44.2457 -44.2199
   -44.2148 -44.1877 -44.1474 -44.0994 -44.0735 -44.0273 -37.3331 -37.2589
   -37.1975 -37.1052 -37.0498 -36.9440 -36.9046 -36.8233 -36.7544 -36.7066
   -36.7014 -36.7004 -36.6517 -36.6467 -36.5451 -36.4954 -36.4366 -36.3980
    -3.1933  -2.6047  -2.5888  -2.5106  -2.3794  -2.3668  -2.2662  -2.2102
    -2.1421  -1.9793  -1.9389  -1.9266  -1.7363  -1.5058  -1.4293  -1.4049
    -1.1263  -1.1153  -0.9691  -0.8460  -0.7376  -0.6488  -0.5509  -0.5128
    -0.2922  -0.1586  -0.0846  -0.0324  -0.0229   0.0346   0.1341   0.2870
     0.3050   0.5437   0.5657   0.6239   0.6841   0.7513   0.8041   1.0158
     1.0443   1.1368   1.3289   1.4981   1.7156   1.7445   1.8832   1.8860
     2.0021   2.0805   2.3425   2.6146   2.7248   2.7408   2.9760   3.0535
     3.3633   3.3787   3.4153   3.4828   3.5959   3.8590   4.0019   4.2115
     4.2267   4.3213   4.9137

          k = 0.0464 0.0961 0.0000 ( 29332 PWs)   bands (ev):

   -76.9026 -76.8773 -76.4238 -76.3985 -76.3205 -76.2954 -65.2382 -65.1801
   -64.8509 -64.8069 -64.7931 -64.7493 -44.8765 -44.7903 -44.7618 -44.7582
   -44.7321 -44.6154 -44.4082 -44.3324 -44.3065 -44.2861 -44.2446 -44.2197
   -44.2150 -44.1878 -44.1475 -44.0994 -44.0735 -44.0274 -37.3341 -37.2604
   -37.1980 -37.1068 -37.0502 -36.9448 -36.9056 -36.8233 -36.7556 -36.7081
   -36.7016 -36.7008 -36.6519 -36.6470 -36.5456 -36.4955 -36.4366 -36.3980
    -2.8675  -2.6289  -2.3906  -2.3598  -2.2519  -2.2305  -2.1463  -2.0272
    -2.0228  -1.9663  -1.8463  -1.8330  -1.6498  -1.5873  -1.4683  -1.4331
    -1.2810  -1.0686  -0.9026  -0.7982  -0.6327  -0.6186  -0.4947  -0.4887
    -0.4398  -0.2473  -0.2362  -0.1723  -0.0901  -0.0827   0.0171   0.1756
     0.2948   0.3060   0.4680   0.4891   0.5544   0.6378   0.7818   0.7899
     0.9728   1.0537   1.3591   1.5791   1.6105   1.7872   1.8022   1.9271
     1.9994   2.0564   2.4836   2.6244   2.7010   2.7751   2.8576   3.1276
     3.3274   3.3287   3.3578   3.4305   3.4580   3.6182   3.6890   3.9299
     4.2439   4.3369   5.3105

          k = 0.0464 0.1135 0.0000 ( 29332 PWs)   bands (ev):

   -76.9026 -76.8773 -76.4238 -76.3985 -76.3205 -76.2954 -65.2382 -65.1801
   -64.8509 -64.8069 -64.7931 -64.7493 -44.8765 -44.7903 -44.7618 -44.7582
   -44.7321 -44.6154 -44.4082 -44.3324 -44.3065 -44.2861 -44.2446 -44.2197
   -44.2150 -44.1878 -44.1475 -44.0994 -44.0735 -44.0274 -37.3341 -37.2604
   -37.1980 -37.1068 -37.0502 -36.9448 -36.9056 -36.8233 -36.7556 -36.7081
   -36.7016 -36.7008 -36.6519 -36.6470 -36.5456 -36.4955 -36.4366 -36.3980
    -2.8675  -2.6289  -2.3906  -2.3598  -2.2519  -2.2305  -2.1463  -2.0272
    -2.0228  -1.9663  -1.8463  -1.8330  -1.6498  -1.5873  -1.4683  -1.4331
    -1.2810  -1.0686  -0.9026  -0.7982  -0.6327  -0.6186  -0.4947  -0.4887
    -0.4398  -0.2473  -0.2362  -0.1723  -0.0901  -0.0827   0.0171   0.1756
     0.2948   0.3060   0.4680   0.4891   0.5544   0.6378   0.7818   0.7899
     0.9728   1.0537   1.3591   1.5791   1.6105   1.7872   1.8022   1.9271
     1.9994   2.0564   2.4836   2.6244   2.7010   2.7751   2.8576   3.1276
     3.3274   3.3287   3.3578   3.4305   3.4580   3.6182   3.6890   3.9299
     4.2439   4.3369   5.3105

          k = 0.0464-0.0786 0.0000 ( 29325 PWs)   bands (ev):

   -76.9026 -76.8773 -76.4238 -76.3985 -76.3205 -76.2954 -65.2381 -65.1801
   -64.8508 -64.8069 -64.7931 -64.7493 -44.8770 -44.7907 -44.7619 -44.7592
   -44.7323 -44.6153 -44.4086 -44.3334 -44.3066 -44.2866 -44.2457 -44.2199
   -44.2148 -44.1877 -44.1474 -44.0994 -44.0735 -44.0273 -37.3331 -37.2589
   -37.1975 -37.1052 -37.0498 -36.9440 -36.9046 -36.8233 -36.7544 -36.7066
   -36.7014 -36.7004 -36.6517 -36.6467 -36.5451 -36.4954 -36.4366 -36.3980
    -3.1933  -2.6047  -2.5888  -2.5106  -2.3794  -2.3668  -2.2662  -2.2102
    -2.1421  -1.9793  -1.9389  -1.9266  -1.7363  -1.5058  -1.4293  -1.4049
    -1.1263  -1.1153  -0.9691  -0.8460  -0.7376  -0.6488  -0.5509  -0.5128
    -0.2922  -0.1586  -0.0846  -0.0324  -0.0229   0.0346   0.1341   0.2870
     0.3050   0.5437   0.5657   0.6239   0.6841   0.7513   0.8041   1.0158
     1.0443   1.1368   1.3289   1.4981   1.7156   1.7445   1.8832   1.8860
     2.0021   2.0805   2.3425   2.6146   2.7248   2.7408   2.9760   3.0535
     3.3633   3.3787   3.4153   3.4828   3.5959   3.8590   4.0019   4.2115
     4.2267   4.3213   4.9137

          k = 0.0464-0.0611 0.0000 ( 29330 PWs)   bands (ev):

   -76.9026 -76.8773 -76.4238 -76.3985 -76.3205 -76.2954 -65.2380 -65.1801
   -64.8507 -64.8068 -64.7931 -64.7493 -44.8778 -44.7913 -44.7621 -44.7609
   -44.7326 -44.6153 -44.4094 -44.3350 -44.3068 -44.2873 -44.2478 -44.2202
   -44.2145 -44.1876 -44.1473 -44.0996 -44.0735 -44.0273 -37.3313 -37.2564
   -37.1965 -37.1023 -37.0490 -36.9425 -36.9029 -36.8233 -36.7524 -36.7050
   -36.7000 -36.6996 -36.6513 -36.6460 -36.5443 -36.4953 -36.4367 -36.3980
    -3.5331  -2.8481  -2.7289  -2.6775  -2.5450  -2.5079  -2.4359  -2.3741
    -2.3074  -2.2333  -2.1212  -2.1109  -1.7056  -1.6165  -1.6116  -1.2341
    -1.1018  -1.0520  -1.0297  -0.9771  -0.6202  -0.5289  -0.4590  -0.4135
    -0.2109  -0.1997   0.0157   0.0617   0.0744   0.1596   0.1630   0.3370
     0.4233   0.5674   0.7415   0.9097   0.9112   0.9924   1.0516   1.1605
     1.2065   1.3521   1.4300   1.5779   1.6080   1.8620   1.9492   1.9916
     2.0477   2.2132   2.3929   2.6056   2.7873   2.8071   2.9762   3.1450
     3.3853   3.4609   3.5229   3.5528   3.7303   3.7600   4.2101   4.2719
     4.5197   4.5582   4.9547

          k = 0.0464-0.0437 0.0000 ( 29344 PWs)   bands (ev):

   -76.9026 -76.8772 -76.4238 -76.3984 -76.3205 -76.2954 -65.2379 -65.1801
   -64.8506 -64.8067 -64.7931 -64.7493 -44.8787 -44.7921 -44.7627 -44.7624
   -44.7330 -44.6152 -44.4102 -44.3369 -44.3070 -44.2882 -44.2501 -44.2205
   -44.2141 -44.1874 -44.1473 -44.0997 -44.0734 -44.0272 -37.3291 -37.2535
   -37.1955 -37.0990 -37.0482 -36.9408 -36.9010 -36.8234 -36.7503 -36.7044
   -36.6988 -36.6970 -36.6511 -36.6450 -36.5434 -36.4951 -36.4367 -36.3981
    -3.8226  -3.0530  -2.8736  -2.8378  -2.6976  -2.6924  -2.5739  -2.5368
    -2.4750  -2.3932  -2.3392  -2.2970  -1.9382  -1.7395  -1.6445  -1.2519
    -1.1695  -1.0066  -0.9884  -0.8609  -0.5518  -0.3977  -0.3626  -0.3459
    -0.2793  -0.2585   0.1023   0.1554   0.1869   0.1881   0.2622   0.4067
     0.5086   0.5913   0.8159   0.8914   1.0776   1.1943   1.2518   1.3570
     1.4327   1.5779   1.6590   1.7692   1.9316   1.9707   1.9978   2.0624
     2.3336   2.5261   2.6684   2.6726   2.7444   2.9430   3.0163   3.3099
     3.4219   3.5131   3.5649   3.5737   3.7106   3.9042   4.1742   4.2004
     4.2131   5.1817   5.7431

          k = 0.0464-0.0262 0.0000 ( 29330 PWs)   bands (ev):

   -76.9026 -76.8772 -76.4238 -76.3984 -76.3206 -76.2954 -65.2378 -65.1801
   -64.8505 -64.8066 -64.7931 -64.7493 -44.8795 -44.7927 -44.7643 -44.7626
   -44.7333 -44.6151 -44.4109 -44.3385 -44.3072 -44.2890 -44.2521 -44.2208
   -44.2137 -44.1873 -44.1472 -44.0998 -44.0734 -44.0271 -37.3273 -37.2510
   -37.1946 -37.0961 -37.0475 -36.9393 -36.8993 -36.8234 -36.7486 -36.7041
   -36.6981 -36.6939 -36.6509 -36.6441 -36.5425 -36.4950 -36.4368 -36.3981
    -4.0292  -3.1717  -2.9938  -2.9832  -2.8525  -2.7872  -2.7017  -2.6646
    -2.5842  -2.5278  -2.4556  -2.4443  -2.0728  -1.8448  -1.8333  -1.2234
    -1.2079  -1.0183  -0.8442  -0.7444  -0.5793  -0.4146  -0.3414  -0.3087
    -0.2745  -0.2351   0.0478   0.1720   0.1832   0.2744   0.3422   0.4081
     0.6662   0.6972   0.7509   0.9156   1.2361   1.2824   1.4819   1.5561
     1.5684   1.6539   1.8485   1.8806   2.0483   2.0833   2.2364   2.4031
     2.5361   2.6115   2.8480   3.0007   3.0191   3.0941   3.1784   3.3826
     3.4841   3.5155   3.5643   3.6436   3.8860   3.9097   4.0044   4.0722
     4.2824   5.4312   5.8195

          k = 0.0464-0.0087 0.0000 ( 29366 PWs)   bands (ev):

   -76.9026 -76.8772 -76.4238 -76.3984 -76.3206 -76.2954 -65.2377 -65.1801
   -64.8505 -64.8065 -64.7931 -64.7493 -44.8799 -44.7932 -44.7652 -44.7627
   -44.7334 -44.6151 -44.4114 -44.3395 -44.3073 -44.2894 -44.2532 -44.2210
   -44.2135 -44.1872 -44.1472 -44.0999 -44.0734 -44.0271 -37.3262 -37.2496
   -37.1941 -37.0944 -37.0470 -36.9384 -36.8983 -36.8234 -36.7478 -36.7040
   -36.6977 -36.6920 -36.6509 -36.6435 -36.5421 -36.4949 -36.4369 -36.3982
    -4.1361  -3.2007  -3.1187  -3.0410  -2.9340  -2.8224  -2.7881  -2.7110
    -2.6288  -2.6283  -2.5564  -2.4725  -2.1030  -2.0095  -1.8829  -1.2335
    -1.1778  -1.0466  -0.7440  -0.6813  -0.6190  -0.4615  -0.3616  -0.3092
    -0.2545  -0.1245  -0.0093   0.1154   0.1735   0.2820   0.3268   0.4986
     0.6788   0.7562   0.7876   0.9502   1.3675   1.4077   1.5251   1.5710
     1.6611   1.8173   1.8997   1.9160   2.0675   2.1447   2.4251   2.5103
     2.6504   2.7223   2.9655   3.0165   3.2004   3.2647   3.2953   3.4729
     3.5104   3.6448   3.6513   3.7767   3.8289   3.9683   3.9958   4.1421
     4.8067   4.8968   5.2138

          k = 0.0464 0.0087 0.0000 ( 29366 PWs)   bands (ev):

   -76.9026 -76.8772 -76.4238 -76.3984 -76.3206 -76.2954 -65.2377 -65.1801
   -64.8505 -64.8065 -64.7931 -64.7493 -44.8799 -44.7932 -44.7652 -44.7627
   -44.7334 -44.6151 -44.4114 -44.3395 -44.3073 -44.2894 -44.2532 -44.2210
   -44.2135 -44.1872 -44.1472 -44.0999 -44.0734 -44.0271 -37.3262 -37.2496
   -37.1941 -37.0944 -37.0470 -36.9384 -36.8983 -36.8234 -36.7478 -36.7040
   -36.6977 -36.6920 -36.6509 -36.6435 -36.5421 -36.4949 -36.4369 -36.3982
    -4.1361  -3.2007  -3.1187  -3.0410  -2.9340  -2.8224  -2.7881  -2.7110
    -2.6288  -2.6283  -2.5564  -2.4725  -2.1030  -2.0095  -1.8829  -1.2335
    -1.1778  -1.0466  -0.7440  -0.6813  -0.6190  -0.4615  -0.3616  -0.3092
    -0.2545  -0.1245  -0.0093   0.1154   0.1735   0.2820   0.3268   0.4986
     0.6788   0.7562   0.7876   0.9502   1.3675   1.4077   1.5251   1.5710
     1.6611   1.8173   1.8997   1.9160   2.0675   2.1447   2.4251   2.5103
     2.6504   2.7223   2.9655   3.0165   3.2004   3.2647   3.2953   3.4729
     3.5104   3.6448   3.6513   3.7767   3.8289   3.9683   3.9958   4.1421
     4.8067   4.8968   5.2138

          k = 0.0618 0.0349 0.0000 ( 29352 PWs)   bands (ev):

   -76.8989 -76.8810 -76.4201 -76.4022 -76.3169 -76.2990 -65.2294 -65.1886
   -64.8422 -64.8016 -64.7983 -64.7578 -44.8410 -44.7880 -44.7666 -44.7590
   -44.7370 -44.6540 -44.3726 -44.3333 -44.3110 -44.2509 -44.2466 -44.2244
   -44.2101 -44.1913 -44.1859 -44.0960 -44.0772 -44.0656 -37.2561 -37.2441
   -37.2042 -37.0904 -37.0560 -36.8997 -36.8680 -36.8283 -36.7421 -36.7064
   -36.6966 -36.6884 -36.6589 -36.6530 -36.5361 -36.5126 -36.5024 -36.4739
    -3.6749  -3.0280  -2.7499  -2.7383  -2.6508  -2.5963  -2.4706  -2.4263
    -2.4111  -2.2689  -2.2598  -2.2144  -1.8926  -1.5717  -1.5619  -1.2153
    -1.1943  -1.0680  -0.9305  -0.8848  -0.6077  -0.5069  -0.3574  -0.3195
    -0.2978  -0.1788   0.0734   0.1129   0.1211   0.2472   0.2855   0.3887
     0.3980   0.6515   0.7955   0.8901   0.9516   1.1107   1.1611   1.2580
     1.3873   1.3958   1.4870   1.6943   1.8381   1.8730   2.0021   2.0567
     2.2686   2.5367   2.5538   2.5778   2.6365   2.9077   3.0160   3.0226
     3.1268   3.3015   3.3265   3.5453   3.6726   3.7638   3.9757   4.0147
     4.3124   6.0239   6.0549

          k = 0.0618 0.0524 0.0000 ( 29338 PWs)   bands (ev):

   -76.8989 -76.8810 -76.4201 -76.4022 -76.3169 -76.2991 -65.2295 -65.1886
   -64.8423 -64.8016 -64.7984 -64.7577 -44.8402 -44.7874 -44.7665 -44.7576
   -44.7370 -44.6542 -44.3719 -44.3317 -44.3110 -44.2502 -44.2448 -44.2244
   -44.2104 -44.1914 -44.1861 -44.0959 -44.0773 -44.0658 -37.2578 -37.2463
   -37.2046 -37.0931 -37.0562 -36.8993 -36.8695 -36.8300 -36.7437 -36.7067
   -36.6969 -36.6910 -36.6590 -36.6534 -36.5368 -36.5123 -36.5024 -36.4736
    -3.4553  -2.9249  -2.6276  -2.6115  -2.5614  -2.4621  -2.3604  -2.3253
    -2.2091  -2.2060  -2.1233  -2.0456  -1.7443  -1.5520  -1.4832  -1.2759
    -1.0813  -1.0485  -1.0097  -0.9530  -0.6706  -0.6444  -0.3840  -0.3612
    -0.2102  -0.1362  -0.0096   0.0534   0.0652   0.1684   0.2367   0.3462
     0.4306   0.6391   0.7144   0.8085   0.9113   0.9411   1.0061   1.0067
     1.1597   1.1862   1.4821   1.5962   1.6822   1.8668   1.8739   1.9855
     2.1035   2.2275   2.3843   2.5173   2.6723   2.7306   2.9590   2.9635
     3.0639   3.2854   3.3430   3.5284   3.6002   3.6952   3.9069   4.0336
     4.6052   5.3440   5.8731

          k = 0.0618 0.0699 0.0000 ( 29353 PWs)   bands (ev):

   -76.8989 -76.8810 -76.4201 -76.4022 -76.3168 -76.2991 -65.2296 -65.1886
   -64.8424 -64.8016 -64.7984 -64.7577 -44.8394 -44.7868 -44.7664 -44.7560
   -44.7370 -44.6544 -44.3712 -44.3302 -44.3111 -44.2495 -44.2429 -44.2245
   -44.2108 -44.1915 -44.1863 -44.0957 -44.0773 -44.0660 -37.2595 -37.2486
   -37.2051 -37.0957 -37.0564 -36.8990 -36.8709 -36.8316 -36.7453 -36.7071
   -36.6976 -36.6930 -36.6591 -36.6538 -36.5375 -36.5121 -36.5024 -36.4733
    -3.1696  -2.7623  -2.4900  -2.4572  -2.4126  -2.3131  -2.2820  -2.1853
    -2.1205  -2.0246  -1.9052  -1.8936  -1.6681  -1.4968  -1.4624  -1.3786
    -1.1332  -1.0918  -1.0037  -0.8457  -0.7651  -0.7166  -0.4792  -0.4080
    -0.2614  -0.1136  -0.0910  -0.0616  -0.0217   0.0933   0.1854   0.2948
     0.3282   0.5045   0.5662   0.6899   0.6957   0.7631   0.7842   0.9317
     1.0306   1.1207   1.2200   1.6548   1.7448   1.7886   1.8547   1.9571
     2.0158   2.1346   2.3214   2.5123   2.6254   2.7612   2.8869   2.9756
     3.1389   3.2556   3.3533   3.4993   3.5370   3.6140   3.7489   4.0096
     4.6441   4.9481   5.0395

          k = 0.0618 0.0873 0.0000 ( 29344 PWs)   bands (ev):

   -76.8989 -76.8810 -76.4201 -76.4022 -76.3168 -76.2991 -65.2297 -65.1886
   -64.8424 -64.8015 -64.7985 -64.7577 -44.8389 -44.7864 -44.7664 -44.7549
   -44.7370 -44.6546 -44.3707 -44.3291 -44.3112 -44.2489 -44.2415 -44.2245
   -44.2110 -44.1915 -44.1864 -44.0956 -44.0774 -44.0661 -37.2608 -37.2502
   -37.2055 -37.0975 -37.0566 -36.8988 -36.8719 -36.8327 -36.7466 -36.7074
   -36.6988 -36.6937 -36.6592 -36.6541 -36.5381 -36.5119 -36.5023 -36.4731
    -2.8507  -2.6017  -2.3954  -2.3373  -2.2357  -2.2212  -2.0910  -2.0454
    -1.9989  -1.9532  -1.8822  -1.8418  -1.6178  -1.5827  -1.5112  -1.3787
    -1.1393  -1.0620  -0.9639  -0.9299  -0.7169  -0.5864  -0.4833  -0.4830
    -0.3992  -0.3182  -0.2092  -0.1969  -0.0608  -0.0416   0.0399   0.2356
     0.2962   0.3098   0.4466   0.5007   0.5832   0.6280   0.7460   0.7721
     0.9766   1.0060   1.4801   1.5716   1.6131   1.7742   1.8747   1.9998
     2.1036   2.1756   2.5166   2.5227   2.5782   2.8146   2.8954   3.0731
     3.1608   3.2691   3.3654   3.4285   3.4683   3.5625   3.6139   3.9709
     4.0203   4.2491   5.3721

          k = 0.0618 0.1048 0.0000 ( 29354 PWs)   bands (ev):

   -76.8989 -76.8810 -76.4201 -76.4022 -76.3168 -76.2991 -65.2297 -65.1886
   -64.8425 -64.8015 -64.7985 -64.7577 -44.8386 -44.7862 -44.7663 -44.7545
   -44.7370 -44.6546 -44.3705 -44.3287 -44.3112 -44.2486 -44.2410 -44.2246
   -44.2111 -44.1916 -44.1865 -44.0956 -44.0774 -44.0662 -37.2612 -37.2508
   -37.2056 -37.0982 -37.0567 -36.8987 -36.8723 -36.8332 -36.7471 -36.7076
   -36.6993 -36.6939 -36.6592 -36.6542 -36.5383 -36.5118 -36.5023 -36.4730
    -2.5929  -2.5343  -2.5259  -2.2332  -2.1302  -2.1286  -1.9885  -1.9826
    -1.9775  -1.8966  -1.8572  -1.8452  -1.7516  -1.7282  -1.5883  -1.2905
    -1.1981  -0.9594  -0.8165  -0.7724  -0.6157  -0.6146  -0.5763  -0.5585
    -0.5005  -0.4227  -0.4073  -0.3130  -0.1919  -0.0192   0.1210   0.1642
     0.2738   0.3164   0.3199   0.4944   0.5901   0.6099   0.6673   0.6816
     0.9335   1.0451   1.4546   1.6332   1.6801   1.6968   1.8926   2.0056
     2.1237   2.1774   2.5152   2.5720   2.7195   2.7789   3.0159   3.1578
     3.2299   3.2814   3.3773   3.4240   3.4291   3.5544   3.6280   3.6778
     3.7254   3.9519   5.6996

          k = 0.0618 0.1223 0.0000 ( 29344 PWs)   bands (ev):

   -76.8989 -76.8810 -76.4201 -76.4022 -76.3168 -76.2991 -65.2297 -65.1886
   -64.8424 -64.8015 -64.7985 -64.7577 -44.8389 -44.7864 -44.7664 -44.7549
   -44.7370 -44.6546 -44.3707 -44.3291 -44.3112 -44.2489 -44.2415 -44.2245
   -44.2110 -44.1915 -44.1864 -44.0956 -44.0774 -44.0661 -37.2608 -37.2502
   -37.2055 -37.0975 -37.0566 -36.8988 -36.8719 -36.8327 -36.7466 -36.7074
   -36.6988 -36.6937 -36.6592 -36.6541 -36.5381 -36.5119 -36.5023 -36.4731
    -2.8507  -2.6017  -2.3954  -2.3373  -2.2357  -2.2212  -2.0910  -2.0454
    -1.9989  -1.9532  -1.8822  -1.8418  -1.6178  -1.5827  -1.5112  -1.3787
    -1.1393  -1.0620  -0.9639  -0.9299  -0.7169  -0.5864  -0.4833  -0.4830
    -0.3992  -0.3182  -0.2092  -0.1969  -0.0608  -0.0416   0.0399   0.2356
     0.2962   0.3098   0.4466   0.5007   0.5832   0.6280   0.7460   0.7721
     0.9766   1.0060   1.4801   1.5716   1.6131   1.7742   1.8747   1.9998
     2.1036   2.1756   2.5166   2.5227   2.5782   2.8146   2.8954   3.0731
     3.1608   3.2691   3.3654   3.4285   3.4683   3.5625   3.6139   3.9709
     4.0203   4.2491   5.3721

          k = 0.0618-0.0699 0.0000 ( 29353 PWs)   bands (ev):

   -76.8989 -76.8810 -76.4201 -76.4022 -76.3168 -76.2991 -65.2296 -65.1886
   -64.8424 -64.8016 -64.7984 -64.7577 -44.8394 -44.7868 -44.7664 -44.7560
   -44.7370 -44.6544 -44.3712 -44.3302 -44.3111 -44.2495 -44.2429 -44.2245
   -44.2108 -44.1915 -44.1863 -44.0957 -44.0773 -44.0660 -37.2595 -37.2486
[...]
   -44.2060 -44.2050 -44.1959 -44.1111 -44.0911 -44.0819 -37.2385 -37.2145
   -37.1746 -37.0869 -37.0644 -36.9861 -36.7864 -36.7474 -36.7365 -36.7153
   -36.6886 -36.6841 -36.6680 -36.6621 -36.5989 -36.5599 -36.5293 -36.5104
    -2.8806  -2.8665  -2.3818  -2.3528  -2.2938  -2.2875  -2.2257  -2.0452
    -1.9745  -1.9576  -1.9290  -1.7282  -1.6164  -1.5794  -1.3382  -1.3381
    -1.2872  -1.2588  -0.9524  -0.8757  -0.7637  -0.5350  -0.4376  -0.3956
    -0.3059  -0.1850  -0.1679  -0.0862  -0.0330   0.0473   0.1348   0.1368
     0.3585   0.3865   0.5142   0.5242   0.5403   0.6815   0.7716   0.8594
     0.9454   1.2051   1.4110   1.5331   1.6900   1.8310   1.8346   2.0657
     2.1346   2.2716   2.3222   2.4825   2.5119   2.5446   2.7555   2.8439
     3.0228   3.0737   3.2079   3.2663   3.5476   3.6084   3.7333   3.8918
     4.6608   5.0390   5.4152

          k = 0.0773-0.0611 0.0000 ( 29364 PWs)   bands (ev):

   -76.8946 -76.8853 -76.4158 -76.4065 -76.3126 -76.3034 -65.2197 -65.1985
   -64.8325 -64.8114 -64.7886 -64.7675 -44.7955 -44.7821 -44.7715 -44.7520
   -44.7421 -44.6996 -44.3279 -44.3262 -44.3155 -44.2392 -44.2315 -44.2298
   -44.2058 -44.2055 -44.1959 -44.1108 -44.0912 -44.0818 -37.2371 -37.2147
   -37.1733 -37.0853 -37.0648 -36.9866 -36.7854 -36.7463 -36.7354 -36.7153
   -36.6880 -36.6830 -36.6680 -36.6622 -36.5994 -36.5604 -36.5287 -36.5106
    -3.1214  -2.9202  -2.4748  -2.4492  -2.4416  -2.3723  -2.2120  -2.1070
    -2.0857  -1.9962  -1.9133  -1.8857  -1.5643  -1.5258  -1.4833  -1.3976
    -1.1832  -1.0866  -0.8924  -0.8902  -0.8039  -0.7100  -0.3796  -0.2988
    -0.1993  -0.1059  -0.0832   0.0005   0.0046   0.1670   0.2251   0.3442
     0.4099   0.4225   0.5627   0.5696   0.6674   0.7314   0.7942   0.9514
     1.1121   1.1232   1.2189   1.6559   1.7652   1.7803   1.8835   1.9795
     2.0904   2.1150   2.3269   2.3340   2.4748   2.5320   2.6524   2.7472
     2.9880   3.0702   3.2074   3.2297   3.6343   3.6945   3.8993   3.9647
     5.0626   5.4159   5.5337

          k = 0.0773-0.0437 0.0000 ( 29354 PWs)   bands (ev):

   -76.8946 -76.8853 -76.4158 -76.4065 -76.3126 -76.3033 -65.2197 -65.1986
   -64.8325 -64.8115 -64.7886 -64.7676 -44.7961 -44.7826 -44.7714 -44.7532
   -44.7418 -44.6992 -44.3285 -44.3274 -44.3151 -44.2407 -44.2311 -44.2293
   -44.2062 -44.2056 -44.1959 -44.1105 -44.0913 -44.0817 -37.2355 -37.2149
   -37.1719 -37.0833 -37.0652 -36.9873 -36.7842 -36.7449 -36.7342 -36.7154
   -36.6877 -36.6812 -36.6680 -36.6625 -36.6000 -36.5611 -36.5281 -36.5108
    -3.3134  -2.9485  -2.5584  -2.5402  -2.5248  -2.4344  -2.2183  -2.1982
    -2.1881  -2.0924  -2.0589  -1.9699  -1.6924  -1.4762  -1.4697  -1.3620
    -1.0954  -0.9717  -0.9486  -0.9123  -0.7704  -0.7537  -0.3653  -0.2819
    -0.1693  -0.0748  -0.0506  -0.0199   0.0374   0.1971   0.2755   0.3852
     0.4056   0.5490   0.6260   0.6849   0.7357   0.8536   0.9615   0.9836
     1.2022   1.2491   1.3773   1.6309   1.6960   1.7597   1.8388   2.0340
     2.1076   2.1430   2.4054   2.4188   2.5063   2.5379   2.6259   2.7817
     2.9872   3.1366   3.1862   3.2420   3.6938   3.7303   3.9691   3.9721
     4.7630   5.7475   6.1935

          k = 0.0773-0.0262 0.0000 ( 29367 PWs)   bands (ev):

   -76.8946 -76.8853 -76.4158 -76.4065 -76.3126 -76.3033 -65.2196 -65.1986
   -64.8324 -64.8115 -64.7885 -64.7676 -44.7966 -44.7830 -44.7714 -44.7542
   -44.7414 -44.6989 -44.3288 -44.3285 -44.3149 -44.2420 -44.2308 -44.2288
   -44.2069 -44.2054 -44.1958 -44.1102 -44.0914 -44.0817 -37.2341 -37.2151
   -37.1706 -37.0815 -37.0657 -36.9880 -36.7831 -36.7436 -36.7332 -36.7156
   -36.6875 -36.6794 -36.6681 -36.6628 -36.6006 -36.5617 -36.5275 -36.5110
    -3.4450  -2.9259  -2.6171  -2.6130  -2.5585  -2.4499  -2.3641  -2.3057
    -2.2221  -2.1914  -2.0962  -2.0486  -1.7460  -1.5423  -1.4702  -1.2856
    -1.1073  -1.0080  -0.9523  -0.9264  -0.7122  -0.6390  -0.3631  -0.3560
    -0.2506  -0.0601  -0.0192  -0.0069   0.0276   0.1391   0.2141   0.3304
     0.4233   0.6035   0.6582   0.7525   0.8391   0.9334   1.2029   1.2128
     1.2835   1.3691   1.4919   1.5637   1.6543   1.7815   1.8025   2.1022
     2.1399   2.2193   2.4174   2.4985   2.6169   2.6929   2.9121   3.0172
     3.0282   3.1127   3.2196   3.3899   3.6861   3.7271   3.8966   3.9346
     4.5720   5.3051   5.8796

          k = 0.0773-0.0087 0.0000 ( 29339 PWs)   bands (ev):

   -76.8946 -76.8853 -76.4158 -76.4065 -76.3126 -76.3033 -65.2196 -65.1986
   -64.8324 -64.8115 -64.7884 -64.7676 -44.7969 -44.7832 -44.7714 -44.7548
   -44.7413 -44.6988 -44.3291 -44.3290 -44.3148 -44.2427 -44.2306 -44.2285
   -44.2073 -44.2053 -44.1958 -44.1101 -44.0914 -44.0816 -37.2333 -37.2151
   -37.1699 -37.0804 -37.0660 -36.9884 -36.7824 -36.7429 -36.7326 -36.7157
   -36.6874 -36.6783 -36.6682 -36.6630 -36.6010 -36.5621 -36.5272 -36.5111
    -3.5115  -2.8452  -2.7188  -2.6530  -2.5425  -2.4625  -2.4394  -2.3640
    -2.3089  -2.1961  -2.1170  -2.0875  -1.7095  -1.5959  -1.5807  -1.2473
    -1.0982  -1.0006  -0.9756  -0.8808  -0.6843  -0.5619  -0.4786  -0.3475
    -0.3136  -0.0433  -0.0279  -0.0157  -0.0096   0.0732   0.2764   0.2969
     0.3909   0.5025   0.7298   0.8305   0.9520   1.0275   1.2289   1.3622
     1.3898   1.4557   1.4659   1.6165   1.6664   1.7585   1.8144   2.0585
     2.0853   2.2495   2.4561   2.6031   2.7507   2.8513   2.9703   3.1327
     3.1458   3.1889   3.5021   3.5884   3.6321   3.7661   3.8443   4.1621
     4.4768   4.4993   4.9583

          k = 0.0773 0.0087 0.0000 ( 29339 PWs)   bands (ev):

   -76.8946 -76.8853 -76.4158 -76.4065 -76.3126 -76.3033 -65.2196 -65.1986
   -64.8324 -64.8115 -64.7884 -64.7676 -44.7969 -44.7832 -44.7714 -44.7548
   -44.7413 -44.6988 -44.3291 -44.3290 -44.3148 -44.2427 -44.2306 -44.2285
   -44.2073 -44.2053 -44.1958 -44.1101 -44.0914 -44.0816 -37.2333 -37.2151
   -37.1699 -37.0804 -37.0660 -36.9884 -36.7824 -36.7429 -36.7326 -36.7157
   -36.6874 -36.6783 -36.6682 -36.6630 -36.6010 -36.5621 -36.5272 -36.5111
    -3.5115  -2.8452  -2.7188  -2.6530  -2.5425  -2.4625  -2.4394  -2.3640
    -2.3089  -2.1961  -2.1170  -2.0875  -1.7095  -1.5959  -1.5807  -1.2473
    -1.0982  -1.0006  -0.9756  -0.8808  -0.6843  -0.5619  -0.4786  -0.3475
    -0.3136  -0.0433  -0.0279  -0.0157  -0.0096   0.0732   0.2764   0.2969
     0.3909   0.5025   0.7298   0.8305   0.9520   1.0275   1.2289   1.3622
     1.3898   1.4557   1.4659   1.6165   1.6664   1.7585   1.8144   2.0585
     2.0853   2.2495   2.4561   2.6031   2.7507   2.8513   2.9703   3.1327
     3.1458   3.1889   3.5021   3.5884   3.6321   3.7661   3.8443   4.1621
     4.4768   4.4993   4.9583

          k = 0.0773 0.0262 0.0000 ( 29367 PWs)   bands (ev):

   -76.8946 -76.8853 -76.4158 -76.4065 -76.3126 -76.3033 -65.2196 -65.1986
   -64.8324 -64.8115 -64.7885 -64.7676 -44.7966 -44.7830 -44.7714 -44.7542
   -44.7414 -44.6989 -44.3288 -44.3285 -44.3149 -44.2420 -44.2308 -44.2288
   -44.2069 -44.2054 -44.1958 -44.1102 -44.0914 -44.0817 -37.2341 -37.2151
   -37.1706 -37.0815 -37.0657 -36.9880 -36.7831 -36.7436 -36.7332 -36.7156
   -36.6875 -36.6794 -36.6681 -36.6628 -36.6006 -36.5617 -36.5275 -36.5110
    -3.4450  -2.9259  -2.6171  -2.6130  -2.5585  -2.4499  -2.3641  -2.3057
    -2.2221  -2.1914  -2.0962  -2.0486  -1.7460  -1.5423  -1.4702  -1.2856
    -1.1073  -1.0080  -0.9523  -0.9264  -0.7122  -0.6390  -0.3631  -0.3560
    -0.2506  -0.0601  -0.0192  -0.0069   0.0276   0.1391   0.2141   0.3304
     0.4233   0.6035   0.6582   0.7525   0.8391   0.9334   1.2029   1.2128
     1.2835   1.3691   1.4919   1.5637   1.6543   1.7815   1.8025   2.1022
     2.1399   2.2193   2.4174   2.4985   2.6169   2.6929   2.9121   3.0172
     3.0282   3.1127   3.2196   3.3899   3.6861   3.7271   3.8966   3.9346
     4.5720   5.3051   5.8796

          k =-0.0927-0.0524 0.0000 ( 29366 PWs)   bands (ev):

   -76.8899 -76.8899 -76.4111 -76.4111 -76.3080 -76.3080 -65.2092 -65.2091
   -64.8221 -64.8219 -64.7785 -64.7777 -44.7770 -44.7770 -44.7490 -44.7490
   -44.7459 -44.7459 -44.3217 -44.3217 -44.2793 -44.2793 -44.2347 -44.2347
   -44.2009 -44.2009 -44.1584 -44.1584 -44.0865 -44.0865 -37.2256 -37.2255
   -37.0823 -37.0822 -37.0727 -37.0726 -36.7256 -36.7254 -36.6934 -36.6933
   -36.6777 -36.6770 -36.6730 -36.6727 -36.6529 -36.6521 -36.5197 -36.5194
    -3.0405  -3.0405  -2.4733  -2.4733  -2.4195  -2.4194  -2.1540  -2.1540
    -1.9955  -1.9954  -1.8990  -1.8990  -1.5167  -1.5166  -1.4723  -1.4722
    -1.1360  -1.1359  -0.9123  -0.9123  -0.7208  -0.7207  -0.3034  -0.3034
    -0.1198  -0.1197  -0.0163  -0.0163   0.1212   0.1213   0.2314   0.2314
     0.4380   0.4381   0.5110   0.5111   0.7229   0.7230   0.8919   0.8921
     1.1153   1.1153   1.4915   1.4916   1.8287   1.8288   1.8950   1.8950
     2.0803   2.0804   2.2402   2.2403   2.3942   2.3943   2.5922   2.5924
     3.0125   3.0125   3.1647   3.1648   3.7117   3.7118   3.9673   3.9674
     5.2444   5.2444   6.2436

          k =-0.0927-0.0349 0.0000 ( 29340 PWs)   bands (ev):

   -76.8900 -76.8899 -76.4111 -76.4111 -76.3080 -76.3079 -65.2092 -65.2091
   -64.8221 -64.8219 -64.7785 -64.7777 -44.7772 -44.7767 -44.7490 -44.7489
   -44.7462 -44.7457 -44.3225 -44.3208 -44.2798 -44.2789 -44.2356 -44.2337
   -44.2010 -44.2007 -44.1588 -44.1579 -44.0866 -44.0865 -37.2264 -37.2247
   -37.0826 -37.0813 -37.0738 -37.0722 -36.7261 -36.7248 -36.6941 -36.6925
   -36.6779 -36.6771 -36.6735 -36.6718 -36.6537 -36.6518 -36.5200 -36.5191
    -3.1131  -2.9253  -2.4743  -2.4637  -2.4182  -2.3743  -2.2022  -2.1028
    -2.0794  -2.0117  -1.9335  -1.8460  -1.5489  -1.5477  -1.4540  -1.4154
    -1.1907  -1.0782  -0.9049  -0.8858  -0.8145  -0.6624  -0.3905  -0.2888
    -0.1424  -0.1149  -0.0295  -0.0130   0.0129   0.1090   0.1404   0.2095
     0.3191   0.4799   0.5376   0.5934   0.6416   0.8580   0.8825   0.9782
     1.0025   1.3269   1.4158   1.5420   1.8055   1.8362   1.8436   1.9251
     1.9390   2.2284   2.2505   2.4267   2.4752   2.4769   2.5158   2.7544
     3.0107   3.1024   3.1223   3.1849   3.6740   3.6942   3.8842   3.9409
     5.0380   5.3964   5.5577

          k =-0.0927-0.0175 0.0000 ( 29344 PWs)   bands (ev):

   -76.8900 -76.8899 -76.4112 -76.4111 -76.3080 -76.3079 -65.2092 -65.2090
   -64.8221 -64.8218 -64.7785 -64.7776 -44.7774 -44.7765 -44.7489 -44.7487
   -44.7465 -44.7457 -44.3230 -44.3202 -44.2801 -44.2786 -44.2363 -44.2330
   -44.2011 -44.2007 -44.1592 -44.1576 -44.0867 -44.0864 -37.2271 -37.2240
   -37.0825 -37.0798 -37.0754 -37.0722 -36.7264 -36.7243 -36.6946 -36.6917
   -36.6781 -36.6773 -36.6739 -36.6707 -36.6548 -36.6515 -36.5203 -36.5188
    -3.1504  -2.7683  -2.4731  -2.4565  -2.4204  -2.2779  -2.2654  -2.1619
    -2.1281  -2.0271  -1.9248  -1.8381  -1.6462  -1.5120  -1.4249  -1.4218
    -1.0978  -1.0849  -0.9871  -0.8203  -0.8115  -0.6315  -0.4894  -0.4226
    -0.1879  -0.1394  -0.1261  -0.0901  -0.0189   0.0749   0.1098   0.1651
     0.2573   0.4111   0.5957   0.6032   0.7321   0.9087   0.9168   0.9659
     1.1214   1.4049   1.5193   1.5949   1.7807   1.7875   1.7944   1.8868
     1.8924   2.2809   2.3123   2.4778   2.5771   2.6032   2.8625   2.9878
     3.0882   3.0918   3.2072   3.3876   3.6094   3.6251   3.7788   3.8447
     4.6015   4.9355   5.0188

          k =-0.0927 0.0000 0.0000 ( 29354 PWs)   bands (ev):

   -76.8900 -76.8899 -76.4112 -76.4111 -76.3080 -76.3079 -65.2092 -65.2090
   -64.8221 -64.8218 -64.7785 -64.7776 -44.7775 -44.7765 -44.7488 -44.7486
   -44.7467 -44.7458 -44.3232 -44.3200 -44.2803 -44.2784 -44.2365 -44.2327
   -44.2012 -44.2006 -44.1593 -44.1575 -44.0867 -44.0864 -37.2273 -37.2238
   -37.0824 -37.0784 -37.0769 -37.0722 -36.7265 -36.7241 -36.6948 -36.6914
   -36.6782 -36.6774 -36.6740 -36.6702 -36.6553 -36.6515 -36.5204 -36.5187
    -3.1615  -2.6006  -2.5689  -2.4787  -2.4095  -2.2891  -2.2070  -2.1866
    -2.1778  -1.9794  -1.9461  -1.8525  -1.7064  -1.4644  -1.4420  -1.4129
    -1.1346  -1.0242  -0.9878  -0.7835  -0.7644  -0.6282  -0.5804  -0.5387
    -0.2234  -0.1653  -0.1392  -0.1149  -0.0491   0.0382   0.1718   0.1790
     0.2290   0.3283   0.6175   0.6304   0.7757   0.8900   0.9181   0.9997
     1.1659   1.4434   1.5905   1.6807   1.7117   1.7387   1.7772   1.8476
     1.8934   2.3037   2.3309   2.4954   2.6551   2.6620   2.9503   3.0335
     3.1226   3.1419   3.4195   3.4785   3.5800   3.7862   3.8411   3.8543
     4.2029   4.2742   4.9079

          k =-0.0927 0.0175 0.0000 ( 29344 PWs)   bands (ev):

   -76.8900 -76.8899 -76.4112 -76.4111 -76.3080 -76.3079 -65.2092 -65.2090
   -64.8221 -64.8218 -64.7785 -64.7776 -44.7774 -44.7765 -44.7489 -44.7487
   -44.7465 -44.7457 -44.3230 -44.3202 -44.2801 -44.2786 -44.2363 -44.2330
   -44.2011 -44.2007 -44.1592 -44.1576 -44.0867 -44.0864 -37.2271 -37.2240
   -37.0825 -37.0798 -37.0754 -37.0722 -36.7264 -36.7243 -36.6946 -36.6917
   -36.6781 -36.6773 -36.6739 -36.6707 -36.6548 -36.6515 -36.5203 -36.5188
    -3.1504  -2.7683  -2.4731  -2.4565  -2.4204  -2.2779  -2.2654  -2.1619
    -2.1281  -2.0271  -1.9248  -1.8381  -1.6462  -1.5120  -1.4249  -1.4218
    -1.0978  -1.0849  -0.9871  -0.8203  -0.8115  -0.6315  -0.4894  -0.4226
    -0.1879  -0.1394  -0.1261  -0.0901  -0.0189   0.0749   0.1098   0.1651
     0.2573   0.4111   0.5957   0.6032   0.7321   0.9087   0.9168   0.9659
     1.1214   1.4049   1.5193   1.5949   1.7807   1.7875   1.7944   1.8868
     1.8924   2.2809   2.3123   2.4778   2.5771   2.6032   2.8625   2.9878
     3.0882   3.0918   3.2072   3.3876   3.6094   3.6251   3.7788   3.8447
     4.6015   4.9355   5.0188

          k =-0.0927 0.0349 0.0000 ( 29340 PWs)   bands (ev):

   -76.8900 -76.8899 -76.4111 -76.4111 -76.3080 -76.3079 -65.2092 -65.2091
   -64.8221 -64.8219 -64.7785 -64.7777 -44.7772 -44.7767 -44.7490 -44.7489
   -44.7462 -44.7457 -44.3225 -44.3208 -44.2798 -44.2789 -44.2356 -44.2337
   -44.2010 -44.2007 -44.1588 -44.1579 -44.0866 -44.0865 -37.2264 -37.2247
   -37.0826 -37.0813 -37.0738 -37.0722 -36.7261 -36.7248 -36.6941 -36.6925
   -36.6779 -36.6771 -36.6735 -36.6718 -36.6537 -36.6518 -36.5200 -36.5191
    -3.1131  -2.9253  -2.4743  -2.4637  -2.4182  -2.3743  -2.2022  -2.1028
    -2.0794  -2.0117  -1.9335  -1.8460  -1.5489  -1.5477  -1.4540  -1.4154
    -1.1907  -1.0782  -0.9049  -0.8858  -0.8145  -0.6624  -0.3905  -0.2888
    -0.1424  -0.1149  -0.0295  -0.0130   0.0129   0.1090   0.1404   0.2095
     0.3191   0.4799   0.5376   0.5934   0.6416   0.8580   0.8825   0.9782
     1.0025   1.3269   1.4158   1.5420   1.8055   1.8362   1.8436   1.9251
     1.9390   2.2284   2.2505   2.4267   2.4752   2.4769   2.5158   2.7544
     3.0107   3.1024   3.1223   3.1849   3.6740   3.6942   3.8842   3.9409
     5.0380   5.3964   5.5577

          k =-0.0927-0.1572 0.0000 ( 29366 PWs)   bands (ev):

   -76.8899 -76.8899 -76.4111 -76.4111 -76.3080 -76.3080 -65.2092 -65.2091
   -64.8221 -64.8219 -64.7785 -64.7777 -44.7770 -44.7770 -44.7490 -44.7490
   -44.7459 -44.7459 -44.3217 -44.3217 -44.2793 -44.2793 -44.2347 -44.2347
   -44.2009 -44.2009 -44.1584 -44.1584 -44.0865 -44.0865 -37.2256 -37.2255
   -37.0823 -37.0822 -37.0727 -37.0726 -36.7256 -36.7254 -36.6934 -36.6933
   -36.6777 -36.6770 -36.6730 -36.6727 -36.6529 -36.6521 -36.5197 -36.5194
    -3.0405  -3.0405  -2.4733  -2.4733  -2.4195  -2.4194  -2.1540  -2.1540
    -1.9955  -1.9954  -1.8990  -1.8990  -1.5167  -1.5166  -1.4723  -1.4722
    -1.1360  -1.1359  -0.9123  -0.9123  -0.7208  -0.7207  -0.3034  -0.3034
    -0.1198  -0.1197  -0.0163  -0.0162   0.1212   0.1213   0.2314   0.2314
     0.4380   0.4381   0.5110   0.5111   0.7229   0.7230   0.8919   0.8921
     1.1153   1.1153   1.4915   1.4916   1.8287   1.8288   1.8950   1.8950
     2.0803   2.0804   2.2402   2.2403   2.3942   2.3943   2.5922   2.5924
     3.0125   3.0125   3.1647   3.1648   3.7117   3.7118   3.9673   3.9674
     5.2444   5.2444   6.2436

     the Fermi energy is     2.2224 ev

!    total energy              =   -2452.52597256 Ry
     estimated scf accuracy    <       0.00000857 Ry
     smearing contrib. (-TS)   =      -0.06956400 Ry
     internal energy E=F+TS    =   -2452.45640855 Ry

     The total energy is F=E-TS. E is the sum of the following terms:
     one-electron contribution =  -21850.22703659 Ry
     hartree contribution      =   10927.77019902 Ry
     xc contribution           =    -421.32668630 Ry
     ewald contribution        =    8891.32711472 Ry
     electric field correction =       0.00000059 Ry

     convergence has been achieved in  15 iterations

     negative rho (up, down):  6.251E-03 0.000E+00

     Forces acting on atoms (cartesian axes, Ry/au):

     atom    1 type  1   force =     0.00000044    0.01061039    0.01978301
     atom    2 type  1   force =    -0.00000029    0.01060839    0.01987931
     atom    3 type  2   force =    -0.00000505   -0.01815430    0.01694001
     atom    4 type  2   force =     0.00000450   -0.01815314    0.01694023
     atom    5 type  1   force =    -0.00000066    0.00368457   -0.01896476
     atom    6 type  1   force =     0.00000040    0.00361526   -0.01905327
     atom    7 type  2   force =    -0.00008824    0.00351244   -0.01458329
     atom    8 type  2   force =     0.00008903    0.00351119   -0.01458279
     atom    9 type  1   force =     0.00000013    0.00000545   -0.00048316
     atom   10 type  1   force =     0.00000038    0.00001866   -0.00045617
     atom   11 type  2   force =     0.00000343    0.00037056   -0.00270969
     atom   12 type  2   force =    -0.00000407    0.00037053   -0.00270941

     Total force =     0.058817     Total SCF correction =     0.025700
     SCF correction compared to forces is large: reduce conv_thr to get better values

     Writing output data file ./Tc2Rh2/Tc2Rh2_beef.save/

     init_run     :    111.20s CPU    111.93s WALL (       1 calls)
     electrons    :   3805.95s CPU   3820.58s WALL (       1 calls)
     forces       :     61.56s CPU     62.03s WALL (       1 calls)

     Called by init_run:
     wfcinit      :    100.05s CPU    100.54s WALL (       1 calls)
     potinit      :      7.71s CPU      7.80s WALL (       1 calls)
     hinit0       :      1.80s CPU      1.81s WALL (       1 calls)

     Called by electrons:
     c_bands      :   3408.28s CPU   3416.64s WALL (      15 calls)
     sum_band     :    366.81s CPU    370.00s WALL (      15 calls)
     v_of_rho     :     22.33s CPU     23.49s WALL (      16 calls)
     newd         :     15.22s CPU     17.21s WALL (      16 calls)
     mix_rho      :      0.63s CPU      0.64s WALL (      15 calls)
     vdW_kernel   :      5.69s CPU      5.70s WALL (       1 calls)

     Called by c_bands:
     init_us_2    :     10.91s CPU     10.97s WALL (    2368 calls)
     cegterg      :   3382.87s CPU   3389.93s WALL (    1110 calls)

     Called by *egterg:
     cdiaghg      :    152.00s CPU    152.04s WALL (    3834 calls)
     h_psi        :   1516.98s CPU   1523.09s WALL (    3908 calls)
     s_psi        :    539.22s CPU    539.35s WALL (    3908 calls)
     g_psi        :      0.93s CPU      0.94s WALL (    2724 calls)

     Called by h_psi:
     h_psi:calbec :    528.71s CPU    529.44s WALL (    3908 calls)
     vloc_psi     :    437.54s CPU    442.80s WALL (    3908 calls)
     add_vuspsi   :    544.14s CPU    544.22s WALL (    3908 calls)

     General routines
     calbec       :    814.59s CPU    815.90s WALL (    5314 calls)
     fft          :     11.94s CPU     12.38s WALL (    1067 calls)
     ffts         :      0.05s CPU      0.05s WALL (      31 calls)
     fftw         :    510.33s CPU    516.50s WALL (  702106 calls)
     interpolate  :      0.26s CPU      0.27s WALL (      16 calls)

     Parallel routines
     fft_scatt_xy :     42.94s CPU     43.40s WALL (  703204 calls)
     fft_scatt_yz :     85.03s CPU     86.46s WALL (  703204 calls)

     PWSCF        :      1h 6m CPU      1h 6m WALL


   This run was terminated on:   7:36:56  25Jun2022            

=------------------------------------------------------------------------------=
   JOB DONE.
=------------------------------------------------------------------------------=
