
     Program PWSCF v.6.6 starts on 24Jun2022 at 22:15:22 

     This program is part of the open-source Quantum ESPRESSO suite
     for quantum simulation of materials; please cite
         "P. Giannozzi et al., J. Phys.:Condens. Matter 21 395502 (2009);
         "P. Giannozzi et al., J. Phys.:Condens. Matter 29 465901 (2017);
          URL http://www.quantum-espresso.org", 
     in publications or presentations arising from this work. More details at
     http://www.quantum-espresso.org/quote

     Parallel version (MPI), running on    37 processors

     MPI processes distributed on     1 nodes
     R & G space division:  proc/nbgrp/npool/nimage =      37
     Fft bands division:     nmany     =       1
     Reading input from Tc2W2.in
Warning: card &CELL ignored
Warning: card / ignored

     Current dimensions of program PWSCF are:
     Max number of different atomic species (ntypx) = 10
     Max number of k-points (npk) =  40000
     Max angular momentum in pseudopotentials (lmaxx) =  3
     Presently stress not available with electric field and gates

     Message from routine cell_base_init:
     DEPRECATED: use true lattice parameter, not A to a.u. conversion factor
     Message from routine emend_upf/check:
     BEWARE !!! Possible out of bounds while fixing pseudo
     Message from routine emend_upf/check:
     BEWARE !!! Possible out of bounds while fixing pseudo
     Message from routine read_upf:
     Pseudo file W.pbe-spn-rrkjus_psl.0.2.3.UPF has been fixed on the fly.
     To avoid this message in the future, permanently fix 
     your pseudo files following these instructions: 
     https://gitlab.com/QEF/q-e/blob/master/upftools/how_to_fix_upf.md
     file Tc.pbe-spn-rrkjus_psl.0.3.0.UPF: wavefunction(s)  4S 4P renormalized

     **************************************************************************
     Initializing libbeef V0.1.2 with the BEEF-vdW functional.
     Citation: Wellendorff et al., PRB 85, 235149 (2012).
     **************************************************************************


     IMPORTANT: XC functional enforced from input :
     Exchange-correlation= BEEF-VDW
                           (   1   4  43  14   2   0   0)
     Any further DFT definition will be discarded
     Please, verify this is what you really want


     Subspace diagonalization in iterative solution of the eigenvalue problem:
     a serial algorithm will be used

     Found symmetry operation: I + ( -0.5000 -0.5000  0.0000)
     This is a supercell, fractional translations are disabled

     Parallelization info
     --------------------
     sticks:   dense  smooth     PW     G-vecs:    dense   smooth      PW
     Min         117      47     13                27005     6825    1025
     Max         118      48     14                27028     6837    1040
     Sum        4351    1741    487               999619   252819   38199



     bravais-lattice index     =            0
     lattice parameter (alat)  =       1.8897  a.u.
     unit-cell volume          =    4573.4605 (a.u.)^3
     number of atoms/cell      =           12
     number of atomic types    =            2
     number of electrons       =       174.00
     number of Kohn-Sham states=          104
     kinetic-energy cutoff     =      55.1240  Ry
     charge density cutoff     =     551.2396  Ry
     convergence threshold     =      1.0E-05
     mixing beta               =       0.1000
     number of iterations used =           10  plain     mixing
     Exchange-correlation= BEEF-VDW
                           (   1   4  43  14   2   0   0)

     celldm(1)=   1.889726  celldm(2)=   0.000000  celldm(3)=   0.000000
     celldm(4)=   0.000000  celldm(5)=   0.000000  celldm(6)=   0.000000

     crystal axes: (cart. coord. in units of alat)
               a(1) = (   5.425608   0.000000   0.000000 )  
               a(2) = (   1.816445   5.112509   0.000000 )  
               a(3) = (   0.000000   0.000000  24.432388 )  

     reciprocal axes: (cart. coord. in units 2 pi/alat)
               b(1) = (  0.184311 -0.065485  0.000000 )  
               b(2) = (  0.000000  0.195599  0.000000 )  
               b(3) = (  0.000000  0.000000  0.040929 )  


     PseudoPot. # 1 for Tc read from file:
     ../pseudo/Tc.pbe-spn-rrkjus_psl.0.3.0.UPF
     MD5 check sum: 5f147c0bf103030af994b79b1f5562e4
     Pseudo is Ultrasoft + core correction, Zval = 15.0
     Generated using "atomic" code by A. Dal Corso v.6.2.2
     Using radial grid of 1231 points,  6 beta functions with: 
                l(1) =   0
                l(2) =   0
                l(3) =   1
                l(4) =   1
                l(5) =   2
                l(6) =   2
     Q(r) pseudized with 0 coefficients 


     PseudoPot. # 2 for W  read from file:
     ../pseudo/W.pbe-spn-rrkjus_psl.0.2.3.UPF
     MD5 check sum: 25b665cf2bbae626ad8d9f1bc024df95
     Pseudo is Ultrasoft + core correction, Zval = 14.0
     Generated using "atomic" code by A. Dal Corso v.5.0.2 svn rev. 10551
     Using radial grid of 1273 points,  6 beta functions with: 
                l(1) =   0
                l(2) =   0
                l(3) =   1
                l(4) =   1
                l(5) =   2
                l(6) =   2
     Q(r) pseudized with 0 coefficients 


     atomic species   valence    mass     pseudopotential
        Tc            15.00    97.90721     Tc( 1.00)
        W             14.00   183.84000     W ( 1.00)

     No symmetry found



   Cartesian axes

     site n.     atom                  positions (alat units)
         1           Tc  tau(   1) = (   0.0000000   0.0000000  10.0000000  )
         2           Tc  tau(   2) = (   3.6210269   2.5562546  10.0000000  )
         3           W   tau(   3) = (   2.7128041   0.0000000  10.0000000  )
         4           W   tau(   4) = (   0.9082227   2.5562546  10.0000000  )
         5           Tc  tau(   5) = (   5.4256083   3.8301943  12.2161940  )
         6           Tc  tau(   6) = (   1.8045814   1.2739396  12.2161940  )
         7           W   tau(   7) = (   2.7128041   3.8301943  12.2161940  )
         8           W   tau(   8) = (   4.5173856   1.2739396  12.2161940  )
         9           Tc  tau(   9) = (   3.6119826   2.5498697  14.3038638  )
        10           Tc  tau(  10) = (   7.2330085   5.1061243  14.3038642  )
        11           W   tau(  11) = (   6.3249673   2.5499989  14.3966991  )
        12           W   tau(  12) = (   4.5203862   5.1062526  14.3966976  )

     number of k points=    74  Fermi-Dirac smearing, width (Ry)=  0.0100
                       cart. coord. in units 2pi/alat
        k(    1) = (   0.0000000   0.0000000   0.0000000), wk =   0.0138889
        k(    2) = (   0.0000000   0.0162999   0.0000000), wk =   0.0277778
        k(    3) = (   0.0000000   0.0325998   0.0000000), wk =   0.0277778
        k(    4) = (   0.0000000   0.0488997   0.0000000), wk =   0.0277778
        k(    5) = (   0.0000000   0.0651996   0.0000000), wk =   0.0277778
        k(    6) = (   0.0000000   0.0814994   0.0000000), wk =   0.0277778
        k(    7) = (   0.0000000  -0.0977993   0.0000000), wk =   0.0138889
        k(    8) = (   0.0153593  -0.0054571   0.0000000), wk =   0.0277778
        k(    9) = (   0.0153593   0.0108428   0.0000000), wk =   0.0277778
        k(   10) = (   0.0153593   0.0271427   0.0000000), wk =   0.0277778
        k(   11) = (   0.0153593   0.0434426   0.0000000), wk =   0.0277778
        k(   12) = (   0.0153593   0.0597425   0.0000000), wk =   0.0277778
        k(   13) = (   0.0153593   0.0760424   0.0000000), wk =   0.0277778
        k(   14) = (   0.0153593  -0.1032564   0.0000000), wk =   0.0277778
        k(   15) = (   0.0153593  -0.0869565   0.0000000), wk =   0.0277778
        k(   16) = (   0.0153593  -0.0706566   0.0000000), wk =   0.0277778
        k(   17) = (   0.0153593  -0.0543567   0.0000000), wk =   0.0277778
        k(   18) = (   0.0153593  -0.0380568   0.0000000), wk =   0.0277778
        k(   19) = (   0.0153593  -0.0217569   0.0000000), wk =   0.0277778
        k(   20) = (   0.0307185  -0.0109141   0.0000000), wk =   0.0277778
        k(   21) = (   0.0307185   0.0053858   0.0000000), wk =   0.0277778
        k(   22) = (   0.0307185   0.0216857   0.0000000), wk =   0.0277778
        k(   23) = (   0.0307185   0.0379856   0.0000000), wk =   0.0277778
        k(   24) = (   0.0307185   0.0542854   0.0000000), wk =   0.0277778
        k(   25) = (   0.0307185   0.0705853   0.0000000), wk =   0.0277778
        k(   26) = (   0.0307185  -0.1087135   0.0000000), wk =   0.0277778
        k(   27) = (   0.0307185  -0.0924136   0.0000000), wk =   0.0277778
        k(   28) = (   0.0307185  -0.0761137   0.0000000), wk =   0.0277778
        k(   29) = (   0.0307185  -0.0598138   0.0000000), wk =   0.0277778
        k(   30) = (   0.0307185  -0.0435139   0.0000000), wk =   0.0277778
        k(   31) = (   0.0307185  -0.0272140   0.0000000), wk =   0.0277778
        k(   32) = (   0.0460778  -0.0163712   0.0000000), wk =   0.0277778
        k(   33) = (   0.0460778  -0.0000713   0.0000000), wk =   0.0277778
        k(   34) = (   0.0460778   0.0162286   0.0000000), wk =   0.0277778
        k(   35) = (   0.0460778   0.0325285   0.0000000), wk =   0.0277778
        k(   36) = (   0.0460778   0.0488284   0.0000000), wk =   0.0277778
        k(   37) = (   0.0460778   0.0651283   0.0000000), wk =   0.0277778
        k(   38) = (   0.0460778  -0.1141705   0.0000000), wk =   0.0277778
        k(   39) = (   0.0460778  -0.0978706   0.0000000), wk =   0.0277778
        k(   40) = (   0.0460778  -0.0815707   0.0000000), wk =   0.0277778
        k(   41) = (   0.0460778  -0.0652708   0.0000000), wk =   0.0277778
        k(   42) = (   0.0460778  -0.0489710   0.0000000), wk =   0.0277778
        k(   43) = (   0.0460778  -0.0326711   0.0000000), wk =   0.0277778
        k(   44) = (   0.0614370  -0.0218282   0.0000000), wk =   0.0277778
        k(   45) = (   0.0614370  -0.0055283   0.0000000), wk =   0.0277778
        k(   46) = (   0.0614370   0.0107716   0.0000000), wk =   0.0277778
        k(   47) = (   0.0614370   0.0270714   0.0000000), wk =   0.0277778
        k(   48) = (   0.0614370   0.0433713   0.0000000), wk =   0.0277778
        k(   49) = (   0.0614370   0.0596712   0.0000000), wk =   0.0277778
        k(   50) = (   0.0614370  -0.1196276   0.0000000), wk =   0.0277778
        k(   51) = (   0.0614370  -0.1033277   0.0000000), wk =   0.0277778
        k(   52) = (   0.0614370  -0.0870278   0.0000000), wk =   0.0277778
        k(   53) = (   0.0614370  -0.0707279   0.0000000), wk =   0.0277778
        k(   54) = (   0.0614370  -0.0544280   0.0000000), wk =   0.0277778
        k(   55) = (   0.0614370  -0.0381281   0.0000000), wk =   0.0277778
        k(   56) = (   0.0767963  -0.0272853   0.0000000), wk =   0.0277778
        k(   57) = (   0.0767963  -0.0109854   0.0000000), wk =   0.0277778
        k(   58) = (   0.0767963   0.0053145   0.0000000), wk =   0.0277778
        k(   59) = (   0.0767963   0.0216144   0.0000000), wk =   0.0277778
        k(   60) = (   0.0767963   0.0379143   0.0000000), wk =   0.0277778
        k(   61) = (   0.0767963   0.0542142   0.0000000), wk =   0.0277778
        k(   62) = (   0.0767963  -0.1250846   0.0000000), wk =   0.0277778
        k(   63) = (   0.0767963  -0.1087847   0.0000000), wk =   0.0277778
        k(   64) = (   0.0767963  -0.0924848   0.0000000), wk =   0.0277778
        k(   65) = (   0.0767963  -0.0761850   0.0000000), wk =   0.0277778
        k(   66) = (   0.0767963  -0.0598851   0.0000000), wk =   0.0277778
        k(   67) = (   0.0767963  -0.0435852   0.0000000), wk =   0.0277778
        k(   68) = (  -0.0921556   0.0327423   0.0000000), wk =   0.0138889
        k(   69) = (  -0.0921556   0.0490422   0.0000000), wk =   0.0277778
        k(   70) = (  -0.0921556   0.0653421   0.0000000), wk =   0.0277778
        k(   71) = (  -0.0921556   0.0816420   0.0000000), wk =   0.0277778
        k(   72) = (  -0.0921556   0.0979419   0.0000000), wk =   0.0277778
        k(   73) = (  -0.0921556   0.1142418   0.0000000), wk =   0.0277778
        k(   74) = (  -0.0921556  -0.0650570   0.0000000), wk =   0.0138889

     Dense  grid:   999619 G-vectors     FFT dimensions: (  80,  80, 360)

     Smooth grid:   252819 G-vectors     FFT dimensions: (  50,  50, 225)

     Estimated max dynamical RAM per process >     209.64 MB

     Estimated total dynamical RAM >       7.57 GB

     Initial potential from superposition of free atoms

     starting charge  173.99287, renormalised to  174.00000

     negative rho (up, down):  6.283E-03 0.000E+00


     %%%%%%%%%%%%%%%%%%%%%%%%%%%%%%%%%%%%%%%%%%%%%%%%%%%%%%%%%%%%%%%%%%%%%%%%
     %                                                                      %
     % You are using vdW-DF, which was implemented by the Thonhauser group. %
     % Please cite the following two papers that made this development      %
     % possible and the two reviews that describe the various versions:     %
     %                                                                      %
     %   T. Thonhauser et al., PRL 115, 136402 (2015).                      %
     %   T. Thonhauser et al., PRB 76, 125112 (2007).                       %
     %   K. Berland et al., Rep. Prog. Phys. 78, 066501 (2015).             %
     %   D.C. Langreth et al., J. Phys.: Condens. Matter 21, 084203 (2009). %
     %                                                                      %
     %                                                                      %
     % If you are calculating the stress with vdW-DF, please also cite:     %
     %                                                                      %
     %   R. Sabatini et al., J. Phys.: Condens. Matter 24, 424209 (2012).   %
     %                                                                      %
     %%%%%%%%%%%%%%%%%%%%%%%%%%%%%%%%%%%%%%%%%%%%%%%%%%%%%%%%%%%%%%%%%%%%%%%%



     Adding external electric field

     Computed dipole along edir(3) : 
        Dipole               -0.0000 Ry au,         -0.0000 Debye
        Dipole field         -0.0000 Ry au, 

        Potential amp.        0.0000 Ry
        Total length         45.0163 bohr

     Starting wfcs are  156 randomized atomic wfcs

     total cpu time spent up to now is      132.4 secs

     Self-consistent Calculation

     iteration #  1     ecut=    55.12 Ry     beta= 0.10
     Davidson diagonalization with overlap
     ethr =  1.00E-02,  avg # of iterations =  2.0

     negative rho (up, down):  6.258E-03 0.000E+00

     Adding external electric field

     Computed dipole along edir(3) : 
        Dipole               -0.0348 Ry au,         -0.0886 Debye
        Dipole field         -0.0001 Ry au, 

        Potential amp.        0.0086 Ry
        Total length         45.0163 bohr


     total cpu time spent up to now is      379.4 secs

     total energy              =   -2042.22021847 Ry
     estimated scf accuracy    <       6.65914831 Ry

     iteration #  2     ecut=    55.12 Ry     beta= 0.10
     Davidson diagonalization with overlap
     ethr =  3.83E-03,  avg # of iterations =  2.0

     negative rho (up, down):  6.237E-03 0.000E+00

     Adding external electric field

     Computed dipole along edir(3) : 
        Dipole                0.2811 Ry au,          0.7144 Debye
        Dipole field          0.0008 Ry au, 

        Potential amp.       -0.0695 Ry
        Total length         45.0163 bohr


     total cpu time spent up to now is      586.2 secs

     total energy              =   -2042.64191302 Ry
     estimated scf accuracy    <       1.08067609 Ry

     iteration #  3     ecut=    55.12 Ry     beta= 0.10
     Davidson diagonalization with overlap
     ethr =  6.21E-04,  avg # of iterations =  4.6

     negative rho (up, down):  6.326E-03 0.000E+00

     Adding external electric field

     Computed dipole along edir(3) : 
        Dipole               -0.1247 Ry au,         -0.3169 Debye
        Dipole field         -0.0003 Ry au, 

        Potential amp.        0.0308 Ry
        Total length         45.0163 bohr


     total cpu time spent up to now is      819.1 secs

     total energy              =   -2042.65111825 Ry
     estimated scf accuracy    <       3.54151921 Ry

     iteration #  4     ecut=    55.12 Ry     beta= 0.10
     Davidson diagonalization with overlap
     ethr =  6.21E-04,  avg # of iterations =  2.0

     negative rho (up, down):  6.343E-03 0.000E+00

     Adding external electric field

     Computed dipole along edir(3) : 
        Dipole                0.0424 Ry au,          0.1077 Debye
        Dipole field          0.0001 Ry au, 

        Potential amp.       -0.0105 Ry
        Total length         45.0163 bohr


     total cpu time spent up to now is     1023.9 secs

     total energy              =   -2042.71449019 Ry
     estimated scf accuracy    <       1.42316189 Ry

     iteration #  5     ecut=    55.12 Ry     beta= 0.10
     Davidson diagonalization with overlap
     ethr =  6.21E-04,  avg # of iterations =  1.0

     negative rho (up, down):  6.484E-03 0.000E+00

     Adding external electric field

     Computed dipole along edir(3) : 
        Dipole                0.0497 Ry au,          0.1264 Debye
        Dipole field          0.0001 Ry au, 

        Potential amp.       -0.0123 Ry
        Total length         45.0163 bohr


     total cpu time spent up to now is     1198.1 secs

     total energy              =   -2042.69189538 Ry
     estimated scf accuracy    <       0.20684761 Ry

     iteration #  6     ecut=    55.12 Ry     beta= 0.10
     Davidson diagonalization with overlap
     ethr =  1.19E-04,  avg # of iterations =  5.1

     negative rho (up, down):  7.017E-03 0.000E+00

     Adding external electric field

     Computed dipole along edir(3) : 
        Dipole                0.0322 Ry au,          0.0819 Debye
        Dipole field          0.0001 Ry au, 

        Potential amp.       -0.0080 Ry
        Total length         45.0163 bohr


     total cpu time spent up to now is     1442.6 secs

     total energy              =   -2042.70115547 Ry
     estimated scf accuracy    <       0.08722494 Ry

     iteration #  7     ecut=    55.12 Ry     beta= 0.10
     Davidson diagonalization with overlap
     ethr =  5.01E-05,  avg # of iterations =  9.7

     negative rho (up, down):  6.976E-03 0.000E+00

     Adding external electric field

     Computed dipole along edir(3) : 
        Dipole                0.0386 Ry au,          0.0980 Debye
        Dipole field          0.0001 Ry au, 

        Potential amp.       -0.0095 Ry
        Total length         45.0163 bohr


     total cpu time spent up to now is     1745.4 secs

     total energy              =   -2042.70008844 Ry
     estimated scf accuracy    <       0.15180059 Ry

     iteration #  8     ecut=    55.12 Ry     beta= 0.10
     Davidson diagonalization with overlap
     ethr =  5.01E-05,  avg # of iterations =  2.4

     negative rho (up, down):  8.258E-03 0.000E+00

     Adding external electric field

     Computed dipole along edir(3) : 
        Dipole                0.0376 Ry au,          0.0955 Debye
        Dipole field          0.0001 Ry au, 

        Potential amp.       -0.0093 Ry
        Total length         45.0163 bohr


     total cpu time spent up to now is     1969.2 secs

     total energy              =   -2042.71692703 Ry
     estimated scf accuracy    <       0.01483960 Ry

     iteration #  9     ecut=    55.12 Ry     beta= 0.10
     Davidson diagonalization with overlap
     ethr =  8.53E-06,  avg # of iterations =  4.8

     negative rho (up, down):  8.861E-03 0.000E+00

     Adding external electric field

     Computed dipole along edir(3) : 
        Dipole                0.0425 Ry au,          0.1081 Debye
        Dipole field          0.0001 Ry au, 

        Potential amp.       -0.0105 Ry
        Total length         45.0163 bohr


     total cpu time spent up to now is     2208.5 secs

     total energy              =   -2042.71763405 Ry
     estimated scf accuracy    <       0.00544592 Ry

     iteration # 10     ecut=    55.12 Ry     beta= 0.10
     Davidson diagonalization with overlap
     c_bands:  1 eigenvalues not converged
     c_bands:  1 eigenvalues not converged
     c_bands:  2 eigenvalues not converged
     c_bands:  2 eigenvalues not converged
     ethr =  3.13E-06,  avg # of iterations =  8.7

     negative rho (up, down):  8.083E-03 0.000E+00

     Adding external electric field

     Computed dipole along edir(3) : 
        Dipole                0.0395 Ry au,          0.1003 Debye
        Dipole field          0.0001 Ry au, 

        Potential amp.       -0.0098 Ry
        Total length         45.0163 bohr


     total cpu time spent up to now is     2529.4 secs

     total energy              =   -2042.71827473 Ry
     estimated scf accuracy    <       0.02992924 Ry

     iteration # 11     ecut=    55.12 Ry     beta= 0.10
     Davidson diagonalization with overlap
     c_bands:  1 eigenvalues not converged
     c_bands:  1 eigenvalues not converged
     c_bands:  1 eigenvalues not converged
     ethr =  3.13E-06,  avg # of iterations =  3.0

     negative rho (up, down):  8.265E-03 0.000E+00

     Adding external electric field

     Computed dipole along edir(3) : 
        Dipole                0.0405 Ry au,          0.1031 Debye
        Dipole field          0.0001 Ry au, 

        Potential amp.       -0.0100 Ry
        Total length         45.0163 bohr


     total cpu time spent up to now is     2765.9 secs

     total energy              =   -2042.71701656 Ry
     estimated scf accuracy    <       0.01266862 Ry

     iteration # 12     ecut=    55.12 Ry     beta= 0.10
     Davidson diagonalization with overlap
     ethr =  3.13E-06,  avg # of iterations =  6.8

     negative rho (up, down):  7.948E-03 0.000E+00

     Adding external electric field

     Computed dipole along edir(3) : 
        Dipole                0.0397 Ry au,          0.1009 Debye
        Dipole field          0.0001 Ry au, 

        Potential amp.       -0.0098 Ry
        Total length         45.0163 bohr


     total cpu time spent up to now is     3030.8 secs

     total energy              =   -2042.71858790 Ry
     estimated scf accuracy    <       0.00042341 Ry

     iteration # 13     ecut=    55.12 Ry     beta= 0.10
     Davidson diagonalization with overlap
     ethr =  2.43E-07,  avg # of iterations =  6.3

     negative rho (up, down):  7.685E-03 0.000E+00

     Adding external electric field

     Computed dipole along edir(3) : 
        Dipole                0.0392 Ry au,          0.0996 Debye
        Dipole field          0.0001 Ry au, 

        Potential amp.       -0.0097 Ry
        Total length         45.0163 bohr


     total cpu time spent up to now is     3323.0 secs

     total energy              =   -2042.71865951 Ry
     estimated scf accuracy    <       0.00100305 Ry

     iteration # 14     ecut=    55.12 Ry     beta= 0.10
     Davidson diagonalization with overlap
     ethr =  2.43E-07,  avg # of iterations =  1.0

     negative rho (up, down):  7.544E-03 0.000E+00

     Adding external electric field

     Computed dipole along edir(3) : 
        Dipole                0.0395 Ry au,          0.1003 Debye
        Dipole field          0.0001 Ry au, 

        Potential amp.       -0.0098 Ry
        Total length         45.0163 bohr


     total cpu time spent up to now is     3499.8 secs

     total energy              =   -2042.71859717 Ry
     estimated scf accuracy    <       0.00051557 Ry

     iteration # 15     ecut=    55.12 Ry     beta= 0.10
     Davidson diagonalization with overlap
     ethr =  2.43E-07,  avg # of iterations =  2.0

     negative rho (up, down):  7.373E-03 0.000E+00

     Adding external electric field

     Computed dipole along edir(3) : 
        Dipole                0.0395 Ry au,          0.1004 Debye
        Dipole field          0.0001 Ry au, 

        Potential amp.       -0.0098 Ry
        Total length         45.0163 bohr


     total cpu time spent up to now is     3715.9 secs

     total energy              =   -2042.71864006 Ry
     estimated scf accuracy    <       0.00004282 Ry

     iteration # 16     ecut=    55.12 Ry     beta= 0.10
     Davidson diagonalization with overlap
     ethr =  2.46E-08,  avg # of iterations =  5.6

     negative rho (up, down):  6.524E-03 0.000E+00

     Adding external electric field

     Computed dipole along edir(3) : 
        Dipole                0.0430 Ry au,          0.1094 Debye
        Dipole field          0.0001 Ry au, 

        Potential amp.       -0.0106 Ry
        Total length         45.0163 bohr


     total cpu time spent up to now is     4003.5 secs

     End of self-consistent calculation

          k = 0.0000 0.0000 0.0000 ( 31543 PWs)   bands (ev):

   -72.7375 -72.7265 -72.4455 -72.4367 -72.4355 -72.4267 -65.1613 -65.1490
   -64.5864 -64.5746 -64.5630 -64.5512 -37.5579 -37.4910 -37.4827 -37.2997
   -37.2358 -37.1747 -37.1617 -36.9606 -36.9510 -36.9143 -36.9011 -36.8881
   -36.7004 -36.6938 -36.6824 -36.6208 -36.5941 -36.5494 -36.5332 -36.5000
   -36.4571 -36.4542 -36.4259 -36.4168 -36.4004 -36.3535 -36.2334 -36.1613
   -36.1230 -36.0831 -36.0769 -36.0630 -36.0509 -36.0151 -35.9706 -35.9568
    -5.5805  -3.6486  -3.5791  -3.4706  -3.2725  -3.2105  -3.0410  -2.9410
    -2.7321  -2.7274  -2.0240  -1.9508  -1.6246  -1.3618  -1.3617  -1.2854
    -1.1345  -1.0595  -0.8606  -0.8223  -0.5784  -0.5673  -0.2184   0.3582
     0.4911   0.6428   0.6596   0.7308   1.0337   1.6586   1.7921   1.9597
     2.0901   2.4237   2.7090   2.7289   2.9495   3.1800   3.3025   3.3666
     3.5054   3.5439   3.5495   3.5623   3.6446   3.7022   3.7178   3.8333
     3.9242   3.9623   4.1022   4.1647   4.1690   4.2581   4.3588   4.4976

          k = 0.0000 0.0163 0.0000 ( 31552 PWs)   bands (ev):

   -72.7374 -72.7267 -72.4454 -72.4365 -72.4357 -72.4269 -65.1611 -65.1493
   -64.5862 -64.5748 -64.5628 -64.5514 -37.5498 -37.4819 -37.4742 -37.2961
   -37.2323 -37.1768 -37.1559 -36.9662 -36.9390 -36.9068 -36.8957 -36.8787
   -36.7126 -36.7036 -36.6857 -36.6081 -36.5965 -36.5444 -36.5313 -36.5201
   -36.4639 -36.4333 -36.4244 -36.4154 -36.4036 -36.3564 -36.2366 -36.1698
   -36.1212 -36.0901 -36.0849 -36.0667 -36.0572 -36.0201 -35.9786 -35.9648
    -5.5228  -3.5926  -3.5234  -3.4448  -3.2227  -3.1791  -3.0084  -2.9123
    -2.7000  -2.6865  -1.9978  -1.9000  -1.5976  -1.3490  -1.3238  -1.2592
    -1.1110  -1.0349  -0.8765  -0.8158  -0.5736  -0.5333  -0.2102   0.3639
     0.4236   0.5819   0.6066   0.6405   1.1399   1.5789   1.7334   1.8849
     2.0612   2.2857   2.6675   2.7014   2.9612   3.0571   3.2388   3.2974
     3.3414   3.3845   3.4331   3.5793   3.6691   3.6996   3.7140   3.8346
     3.9112   3.9797   4.0613   4.1200   4.1204   4.3140   4.3983   4.5571

          k = 0.0000 0.0326 0.0000 ( 31553 PWs)   bands (ev):

   -72.7368 -72.7272 -72.4449 -72.4362 -72.4360 -72.4274 -65.1606 -65.1499
   -64.5857 -64.5755 -64.5623 -64.5520 -37.5289 -37.4524 -37.4510 -37.2857
   -37.2233 -37.1819 -37.1399 -36.9761 -36.9116 -36.8907 -36.8862 -36.8416
   -36.7538 -36.7145 -36.6910 -36.6020 -36.5848 -36.5573 -36.5250 -36.5206
   -36.4789 -36.4451 -36.4124 -36.3984 -36.3962 -36.3644 -36.2453 -36.1921
   -36.1217 -36.1201 -36.1126 -36.0829 -36.0673 -36.0269 -35.9980 -35.9843
    -5.3537  -3.4311  -3.3917  -3.3627  -3.0907  -3.0757  -2.9020  -2.8287
    -2.6091  -2.5675  -1.9581  -1.7495  -1.4888  -1.3142  -1.2140  -1.1849
    -1.0517  -0.9690  -0.9233  -0.8038  -0.5566  -0.4221  -0.1886   0.2216
     0.3532   0.3680   0.4060   0.6455   1.2947   1.4242   1.5871   1.6724
     1.9531   1.9906   2.4413   2.6095   2.7970   2.7980   2.9500   3.0036
     3.2841   3.2889   3.3715   3.3929   3.5689   3.6176   3.6493   3.7318
     3.8943   3.9014   3.9710   4.0960   4.1669   4.3474   4.3714   4.5183

          k = 0.0000 0.0489 0.0000 ( 31592 PWs)   bands (ev):

   -72.7359 -72.7281 -72.4441 -72.4370 -72.4352 -72.4281 -65.1597 -65.1510
   -64.5848 -64.5765 -64.5614 -64.5530 -37.5020 -37.4211 -37.3999 -37.2696
   -37.2120 -37.1851 -37.1179 -36.9901 -36.8914 -36.8745 -36.8630 -36.7992
   -36.7822 -36.7324 -36.6904 -36.6065 -36.5803 -36.5608 -36.5123 -36.4978
   -36.4917 -36.4715 -36.4245 -36.3933 -36.3670 -36.3608 -36.2586 -36.2258
   -36.1703 -36.1674 -36.1308 -36.1285 -36.0640 -36.0297 -36.0185 -36.0040
    -5.0857  -3.3717  -3.1841  -3.1173  -2.9612  -2.8415  -2.7115  -2.6980
    -2.4771  -2.3832  -1.9547  -1.5056  -1.3029  -1.2661  -1.0856  -1.0423
    -0.9952  -0.9870  -0.9030  -0.8075  -0.4679  -0.2439  -0.1677   0.0145
     0.0918   0.1203   0.2604   0.7424   1.2084   1.3663   1.4245   1.4611
     1.5591   1.9098   1.9607   2.3057   2.3862   2.5057   2.6794   2.9857
     3.1103   3.1693   3.2363   3.2589   3.3920   3.4796   3.5514   3.6121
     3.7395   3.7572   3.8758   4.0699   4.1100   4.2035   4.2487   4.5439

          k = 0.0000 0.0652 0.0000 ( 31601 PWs)   bands (ev):

   -72.7347 -72.7292 -72.4430 -72.4380 -72.4342 -72.4292 -65.1585 -65.1524
   -64.5837 -64.5778 -64.5603 -64.5544 -37.4725 -37.3989 -37.3284 -37.2498
   -37.2032 -37.1776 -37.0951 -37.0079 -36.9070 -36.8993 -36.8267 -36.7975
   -36.7616 -36.7001 -36.6812 -36.6072 -36.5826 -36.5377 -36.5146 -36.4904
   -36.4799 -36.4735 -36.4371 -36.4164 -36.3527 -36.3353 -36.2762 -36.2684
   -36.2442 -36.2288 -36.1820 -36.1521 -36.0588 -36.0320 -36.0306 -36.0178
    -4.7412  -3.4463  -2.9012  -2.8180  -2.8145  -2.5439  -2.5320  -2.4629
    -2.3369  -2.1620  -1.9792  -1.2120  -1.1930  -1.1710  -1.0642  -1.0577
    -0.9931  -0.8897  -0.8451  -0.8062  -0.2882  -0.2640  -0.1917  -0.0362
    -0.0307   0.0960   0.1103   0.7440   1.0674   1.1344   1.1915   1.3012
     1.4223   1.4536   1.6183   1.8286   2.2633   2.3454   2.5875   2.6328
     2.7605   3.0296   3.1217   3.1516   3.3058   3.3400   3.4034   3.5390
     3.6027   3.6672   3.7174   3.7310   3.7897   4.0448   4.1202   4.3081

          k = 0.0000 0.0815 0.0000 ( 31641 PWs)   bands (ev):

   -72.7334 -72.7305 -72.4418 -72.4392 -72.4330 -72.4304 -65.1571 -65.1539
   -64.5823 -64.5793 -64.5589 -64.5558 -37.4424 -37.3975 -37.2488 -37.2295
   -37.2012 -37.1616 -37.0732 -37.0282 -36.9585 -36.9430 -36.7913 -36.7707
   -36.7663 -36.7022 -36.6139 -36.5781 -36.5606 -36.5447 -36.5191 -36.4663
   -36.4616 -36.4588 -36.4521 -36.4423 -36.3561 -36.3425 -36.3130 -36.3055
   -36.3042 -36.2707 -36.2151 -36.1793 -36.0525 -36.0394 -36.0308 -36.0261
    -4.3536  -3.6502  -2.6927  -2.6863  -2.4923  -2.3591  -2.2416  -2.2356
    -2.2205  -2.0111  -1.9589  -1.3871  -1.1689  -1.1318  -1.1242  -0.9851
    -0.9082  -0.8259  -0.7647  -0.6907  -0.4361  -0.3753  -0.1490  -0.0843
     0.1021   0.2323   0.4591   0.6900   0.8861   0.9254   0.9659   1.0209
     1.0777   1.1153   1.5720   1.6139   2.0592   2.2458   2.2600   2.4371
     2.7121   2.8233   3.0453   3.0673   3.1050   3.1212   3.2121   3.3286
     3.5071   3.5512   3.6874   3.7118   3.7376   3.8192   3.9587   4.1168

          k = 0.0000-0.0978 0.0000 ( 31662 PWs)   bands (ev):

   -72.7320 -72.7320 -72.4405 -72.4405 -72.4317 -72.4317 -65.1555 -65.1555
   -64.5808 -64.5808 -64.5574 -64.5574 -37.4151 -37.4151 -37.2137 -37.2137
   -37.1777 -37.1777 -37.0503 -37.0503 -36.9764 -36.9764 -36.7761 -36.7761
   -36.7309 -36.7309 -36.5744 -36.5744 -36.5238 -36.5238 -36.5103 -36.5103
   -36.4507 -36.4507 -36.4422 -36.4422 -36.3831 -36.3831 -36.3243 -36.3243
   -36.2979 -36.2979 -36.2051 -36.2051 -36.0458 -36.0458 -36.0298 -36.0298
    -3.9703  -3.9703  -2.6273  -2.6273  -2.2535  -2.2535  -2.2278  -2.2278
    -2.0174  -2.0174  -1.7431  -1.7431  -1.1776  -1.1776  -1.0364  -1.0364
    -0.8911  -0.8911  -0.5824  -0.5824  -0.3695  -0.3695  -0.2809  -0.2809
     0.3580   0.3580   0.6204   0.6204   0.7709   0.7709   0.9184   0.9184
     1.1652   1.1652   1.2641   1.2641   2.1289   2.1289   2.2731   2.2731
     2.7114   2.7114   2.9354   2.9354   3.1259   3.1259   3.1763   3.1763
     3.5088   3.5088   3.6610   3.6610   3.8147   3.8147   3.9180   3.9180

          k = 0.0154-0.0055 0.0000 ( 31552 PWs)   bands (ev):

   -72.7374 -72.7267 -72.4454 -72.4365 -72.4357 -72.4269 -65.1611 -65.1493
   -64.5862 -64.5748 -64.5628 -64.5514 -37.5498 -37.4819 -37.4742 -37.2961
   -37.2323 -37.1768 -37.1559 -36.9662 -36.9390 -36.9068 -36.8957 -36.8787
   -36.7126 -36.7036 -36.6857 -36.6081 -36.5965 -36.5444 -36.5313 -36.5201
   -36.4639 -36.4333 -36.4244 -36.4154 -36.4036 -36.3564 -36.2366 -36.1698
   -36.1212 -36.0901 -36.0849 -36.0667 -36.0572 -36.0201 -35.9786 -35.9648
    -5.5228  -3.5926  -3.5234  -3.4448  -3.2227  -3.1791  -3.0084  -2.9123
    -2.7000  -2.6865  -1.9978  -1.9000  -1.5976  -1.3490  -1.3238  -1.2592
    -1.1110  -1.0349  -0.8765  -0.8158  -0.5736  -0.5333  -0.2102   0.3639
     0.4236   0.5819   0.6066   0.6405   1.1399   1.5789   1.7334   1.8849
     2.0612   2.2857   2.6675   2.7014   2.9612   3.0571   3.2388   3.2974
     3.3414   3.3845   3.4331   3.5793   3.6691   3.6996   3.7140   3.8346
     3.9112   3.9797   4.0613   4.1200   4.1204   4.3140   4.3984   4.5571

          k = 0.0154 0.0108 0.0000 ( 31505 PWs)   bands (ev):

   -72.7375 -72.7265 -72.4455 -72.4367 -72.4355 -72.4267 -65.1614 -65.1490
   -64.5865 -64.5746 -64.5631 -64.5512 -37.5465 -37.4778 -37.4662 -37.2958
   -37.2297 -37.1690 -37.1532 -36.9731 -36.9269 -36.8998 -36.8883 -36.8755
   -36.7122 -36.6985 -36.6771 -36.6210 -36.6035 -36.5530 -36.5269 -36.4944
   -36.4565 -36.4490 -36.4321 -36.4274 -36.4031 -36.3538 -36.2358 -36.1620
   -36.1300 -36.0974 -36.0837 -36.0769 -36.0643 -36.0274 -35.9875 -35.9741
    -5.5028  -3.5852  -3.5154  -3.4213  -3.2187  -3.1546  -2.9858  -2.8957
    -2.6940  -2.6769  -1.9839  -1.9005  -1.6272  -1.2875  -1.2811  -1.2482
    -1.1137  -1.0276  -0.8353  -0.8183  -0.5538  -0.5291  -0.1510   0.4276
     0.4939   0.6217   0.6441   0.6889   1.0041   1.6746   1.7096   1.9446
     1.9871   2.3639   2.5484   2.6714   2.8784   2.9432   3.0768   3.2373
     3.2865   3.2950   3.4229   3.5682   3.6711   3.7015   3.7938   3.8198
     3.8539   3.9169   3.9656   4.1383   4.2212   4.3954   4.4355   4.5943

          k = 0.0154 0.0271 0.0000 ( 31542 PWs)   bands (ev):

   -72.7373 -72.7267 -72.4453 -72.4365 -72.4357 -72.4269 -65.1613 -65.1493
   -64.5864 -64.5748 -64.5630 -64.5514 -37.5295 -37.4542 -37.4430 -37.2886
   -37.2212 -37.1651 -37.1400 -36.9816 -36.9015 -36.8817 -36.8790 -36.8437
   -36.7280 -36.7224 -36.6746 -36.6137 -36.6088 -36.5525 -36.5185 -36.5090
   -36.4588 -36.4490 -36.4311 -36.4161 -36.4081 -36.3572 -36.2408 -36.1752
   -36.1329 -36.1270 -36.1021 -36.0891 -36.0842 -36.0385 -36.0086 -35.9956
    -5.3704  -3.4739  -3.3989  -3.3620  -3.1159  -3.0715  -2.8923  -2.8235
    -2.6219  -2.5934  -1.9465  -1.8003  -1.5745  -1.2051  -1.1902  -1.1710
    -1.0774  -0.9758  -0.8301  -0.8099  -0.5406  -0.4337  -0.0816   0.3945
     0.4740   0.5152   0.5673   0.6575   1.0894   1.5399   1.6596   1.8497
     1.8794   2.1761   2.3393   2.4780   2.7642   2.8188   2.8667   3.0637
     3.1114   3.2042   3.2786   3.4528   3.5007   3.5752   3.7029   3.7466
     3.8448   3.8721   3.9290   4.1153   4.2189   4.4362   4.4497   4.5251

          k = 0.0154 0.0434 0.0000 ( 31570 PWs)   bands (ev):

   -72.7367 -72.7273 -72.4448 -72.4362 -72.4360 -72.4274 -65.1607 -65.1500
   -64.5859 -64.5755 -64.5625 -64.5520 -37.5055 -37.4115 -37.4076 -37.2752
   -37.2093 -37.1620 -37.1198 -36.9934 -36.8833 -36.8658 -36.8524 -36.7849
   -36.7660 -36.7509 -36.6732 -36.6206 -36.5854 -36.5614 -36.5108 -36.5047
   -36.4836 -36.4623 -36.4169 -36.3968 -36.3933 -36.3667 -36.2510 -36.2097
   -36.1807 -36.1512 -36.1359 -36.1348 -36.0843 -36.0437 -36.0298 -36.0156
    -5.1355  -3.3230  -3.2724  -3.1922  -2.9443  -2.9200  -2.7125  -2.7029
    -2.4784  -2.4649  -1.9486  -1.6025  -1.4205  -1.1202  -1.0961  -1.0296
    -1.0021  -0.9129  -0.8636  -0.8100  -0.4772  -0.2621  -0.0343   0.2175
     0.3038   0.3417   0.3610   0.8278   1.2119   1.3402   1.5598   1.6198
     1.7773   1.8160   2.0356   2.2596   2.3875   2.5765   2.7188   2.8092
     2.9755   3.0677   3.1608   3.1685   3.3255   3.3775   3.5120   3.6220
     3.8060   3.8685   3.8706   3.9767   4.1230   4.2235   4.3940   4.5478

          k = 0.0154 0.0597 0.0000 ( 31589 PWs)   bands (ev):

   -72.7358 -72.7282 -72.4440 -72.4370 -72.4352 -72.4282 -65.1599 -65.1510
   -64.5850 -64.5765 -64.5616 -64.5530 -37.4783 -37.3849 -37.3412 -37.2575
   -37.1985 -37.1531 -37.0974 -37.0085 -36.9026 -36.8705 -36.8207 -36.7796
   -36.7763 -36.7027 -36.6688 -36.6201 -36.5753 -36.5620 -36.5140 -36.4912
   -36.4818 -36.4632 -36.4273 -36.3960 -36.3672 -36.3595 -36.2721 -36.2577
   -36.2399 -36.2274 -36.1908 -36.1475 -36.0808 -36.0457 -36.0435 -36.0270
    -4.8166  -3.3620  -3.0016  -2.9358  -2.7935  -2.6463  -2.5464  -2.4658
    -2.3198  -2.2835  -1.9782  -1.3151  -1.2559  -1.0617  -1.0593  -0.9805
    -0.9281  -0.8761  -0.8388  -0.8310  -0.3121  -0.1321  -0.0444   0.0326
     0.1495   0.2092   0.2381   0.8981   1.1445   1.3296   1.3297   1.4027
     1.4493   1.6368   1.7413   1.7997   2.1621   2.2338   2.5617   2.5868
     2.7642   2.8637   2.9178   2.9317   3.2104   3.3168   3.3251   3.4997
     3.5432   3.6812   3.7997   3.8387   3.8505   4.1297   4.2154   4.2666

          k = 0.0154 0.0760 0.0000 ( 31651 PWs)   bands (ev):

   -72.7346 -72.7293 -72.4430 -72.4380 -72.4341 -72.4292 -65.1587 -65.1524
   -64.5839 -64.5777 -64.5605 -64.5543 -37.4488 -37.3767 -37.2652 -37.2381
   -37.1937 -37.1395 -37.0754 -37.0254 -36.9473 -36.9279 -36.7835 -36.7821
   -36.7540 -36.6828 -36.6148 -36.6022 -36.5642 -36.5546 -36.5308 -36.4702
   -36.4556 -36.4463 -36.4370 -36.4332 -36.3498 -36.3485 -36.3240 -36.3128
   -36.2991 -36.2676 -36.2318 -36.1666 -36.0751 -36.0487 -36.0461 -36.0338
    -4.4416  -3.5198  -2.7430  -2.6531  -2.6484  -2.3778  -2.3209  -2.2185
    -2.2006  -2.0799  -2.0092  -1.2479  -1.1667  -1.0505  -1.0136  -0.9720
    -0.9525  -0.8705  -0.8226  -0.7381  -0.3154  -0.2354  -0.1324  -0.0002
     0.2153   0.2280   0.4736   0.7879   0.9010   0.9962   1.1022   1.1737
     1.2896   1.3126   1.5206   1.6015   2.0563   2.0894   2.2021   2.4510
     2.5009   2.7221   2.8499   2.8658   2.9803   3.1011   3.3698   3.3738
     3.4448   3.4975   3.5423   3.7008   3.7906   3.9466   4.1887   4.2447

          k = 0.0154-0.1033 0.0000 ( 31655 PWs)   bands (ev):

   -72.7333 -72.7306 -72.4418 -72.4392 -72.4329 -72.4304 -65.1572 -65.1539
   -64.5825 -64.5791 -64.5591 -64.5557 -37.4196 -37.3889 -37.2209 -37.2075
   -37.1913 -37.1559 -37.0522 -37.0437 -36.9922 -36.9536 -36.7810 -36.7596
   -36.7277 -36.7147 -36.5894 -36.5816 -36.5288 -36.5254 -36.5203 -36.4949
   -36.4597 -36.4475 -36.4442 -36.4280 -36.3999 -36.3721 -36.3333 -36.3195
   -36.3045 -36.2892 -36.2256 -36.1878 -36.0675 -36.0512 -36.0453 -36.0379
    -4.0507  -3.8026  -2.6309  -2.5531  -2.3638  -2.2409  -2.1721  -2.1310
    -2.0260  -1.9966  -1.8954  -1.5268  -1.2667  -1.0668  -1.0115  -1.0106
    -0.9307  -0.8337  -0.6592  -0.5178  -0.4634  -0.2768  -0.2223  -0.2181
     0.3275   0.3739   0.5673   0.6187   0.7655   0.7948   0.8331   1.0364
     1.1044   1.2311   1.2398   1.3150   2.0533   2.0920   2.2091   2.3096
     2.6063   2.6835   2.7737   2.8639   2.9782   3.1208   3.2455   3.3297
     3.4107   3.5191   3.5272   3.6334   3.7771   3.8820   4.0748   4.1881

          k = 0.0154-0.0870 0.0000 ( 31649 PWs)   bands (ev):

   -72.7321 -72.7319 -72.4405 -72.4405 -72.4317 -72.4316 -65.1556 -65.1554
   -64.5810 -64.5807 -64.5575 -64.5573 -37.4139 -37.3966 -37.2277 -37.2171
   -37.2050 -37.1813 -37.0638 -37.0285 -36.9852 -36.9271 -36.7876 -36.7584
   -36.7489 -36.7059 -36.6218 -36.5640 -36.5612 -36.5501 -36.5051 -36.4864
   -36.4763 -36.4666 -36.4608 -36.4293 -36.3709 -36.3479 -36.3172 -36.3016
   -36.2897 -36.2695 -36.2001 -36.1950 -36.0581 -36.0554 -36.0423 -36.0392
    -4.1702  -3.6985  -2.6549  -2.5657  -2.3020  -2.2907  -2.2656  -2.2095
    -2.0891  -1.9218  -1.7885  -1.5598  -1.2869  -1.1695  -1.0410  -0.9607
    -0.8740  -0.8591  -0.5922  -0.5696  -0.5273  -0.4275  -0.1571  -0.1234
     0.0066   0.2102   0.4226   0.6046   0.7325   0.8163   0.8466   0.8597
     0.9122   0.9945   1.5374   1.6528   2.0217   2.1372   2.3368   2.4561
     2.8680   2.8714   2.9305   2.9647   3.0221   3.1637   3.2292   3.2643
     3.4480   3.5550   3.6464   3.7942   3.9156   3.9362   3.9528   4.0520

          k = 0.0154-0.0707 0.0000 ( 31614 PWs)   bands (ev):

   -72.7335 -72.7305 -72.4418 -72.4392 -72.4330 -72.4303 -65.1570 -65.1539
   -64.5821 -64.5794 -64.5588 -64.5559 -37.4444 -37.3906 -37.3076 -37.2370
   -37.2050 -37.2033 -37.0842 -37.0065 -36.9276 -36.8932 -36.8169 -36.8000
   -36.7430 -36.7030 -36.6768 -36.6114 -36.5788 -36.5295 -36.5231 -36.5057
   -36.4881 -36.4599 -36.4448 -36.4385 -36.3395 -36.3262 -36.2816 -36.2742
   -36.2616 -36.2167 -36.1747 -36.1593 -36.0614 -36.0471 -36.0390 -36.0340
    -4.5630  -3.4477  -2.7669  -2.7295  -2.6035  -2.4679  -2.4535  -2.3713
    -2.2877  -1.9930  -1.8688  -1.3070  -1.2362  -1.2140  -1.0238  -0.9503
    -0.9221  -0.8438  -0.8095  -0.7117  -0.4563  -0.3854  -0.2084  -0.1869
    -0.1152   0.0304   0.0665   0.5880   0.8283   0.8916   0.9691   1.0625
     1.2711   1.3128   1.5118   1.8153   2.1995   2.4863   2.4935   2.7521
     2.7710   3.0492   3.1227   3.2093   3.2228   3.2858   3.4345   3.5080
     3.5303   3.6435   3.6986   3.8059   3.9184   4.0660   4.0695   4.2291

          k = 0.0154-0.0544 0.0000 ( 31598 PWs)   bands (ev):

   -72.7348 -72.7292 -72.4430 -72.4380 -72.4342 -72.4292 -65.1584 -65.1523
   -64.5835 -64.5778 -64.5601 -64.5544 -37.4767 -37.4095 -37.3819 -37.2579
   -37.2114 -37.2105 -37.1063 -36.9869 -36.8761 -36.8740 -36.8606 -36.8276
   -36.7785 -36.7166 -36.6959 -36.6122 -36.5912 -36.5434 -36.5193 -36.5074
   -36.4845 -36.4756 -36.4380 -36.4100 -36.3522 -36.3328 -36.2686 -36.2440
   -36.1877 -36.1593 -36.1298 -36.1237 -36.0677 -36.0382 -36.0313 -36.0175
    -4.9275  -3.3377  -3.0083  -2.9312  -2.9109  -2.6962  -2.6777  -2.6317
    -2.4235  -2.2259  -1.8518  -1.3671  -1.3308  -1.1644  -1.1188  -1.0989
    -0.9893  -0.8945  -0.8391  -0.7759  -0.4076  -0.2756  -0.2483  -0.1916
    -0.1763  -0.1614   0.2227   0.6013   0.9753   1.0715   1.2383   1.4087
     1.5515   1.6080   1.8627   1.9638   2.3432   2.6056   2.6735   3.0588
     3.1004   3.1734   3.2349   3.2927   3.3283   3.4350   3.6181   3.6514
     3.7391   3.7483   3.8215   3.8411   4.1229   4.1286   4.2058   4.4205

          k = 0.0154-0.0381 0.0000 ( 31575 PWs)   bands (ev):

   -72.7360 -72.7281 -72.4441 -72.4370 -72.4352 -72.4281 -65.1596 -65.1510
   -64.5847 -64.5765 -64.5613 -64.5531 -37.5087 -37.4401 -37.4369 -37.2761
   -37.2198 -37.2024 -37.1290 -36.9719 -36.9071 -36.8770 -36.8743 -36.8375
   -36.7949 -36.7063 -36.7011 -36.6002 -36.5828 -36.5634 -36.5274 -36.5009
   -36.4991 -36.4554 -36.4230 -36.3925 -36.3656 -36.3616 -36.2553 -36.2124
   -36.1327 -36.1155 -36.1126 -36.0800 -36.0727 -36.0354 -36.0082 -35.9945
    -5.2245  -3.3500  -3.2863  -3.2151  -3.0447  -2.9414  -2.8732  -2.7748
    -2.5598  -2.4400  -1.8759  -1.6045  -1.3883  -1.3807  -1.2011  -1.1288
    -1.0310  -0.9699  -0.9193  -0.7777  -0.5098  -0.4080  -0.2729   0.0217
     0.1000   0.1278   0.3132   0.5876   1.1401   1.3980   1.4811   1.5480
     1.6003   2.0386   2.2110   2.5074   2.5665   2.7255   2.7287   3.1396
     3.2828   3.3600   3.3603   3.5290   3.5535   3.6211   3.6355   3.7086
     3.7418   3.7628   3.8710   4.0496   4.2028   4.2097   4.4398   4.4580

          k = 0.0154-0.0218 0.0000 ( 31540 PWs)   bands (ev):

   -72.7368 -72.7272 -72.4449 -72.4362 -72.4360 -72.4274 -65.1605 -65.1499
   -64.5856 -64.5755 -64.5622 -64.5520 -37.5358 -37.4689 -37.4647 -37.2893
   -37.2283 -37.1887 -37.1471 -36.9638 -36.9340 -36.8986 -36.8826 -36.8731
   -36.7487 -36.7004 -36.6970 -36.5959 -36.5854 -36.5548 -36.5319 -36.5248
   -36.4829 -36.4330 -36.4106 -36.3983 -36.3972 -36.3636 -36.2434 -36.1877
   -36.1151 -36.0998 -36.0898 -36.0711 -36.0593 -36.0262 -35.9870 -35.9732
    -5.4280  -3.4904  -3.4202  -3.4112  -3.1401  -3.1282  -2.9726  -2.8710
    -2.6587  -2.5993  -1.9465  -1.7997  -1.5236  -1.3825  -1.2965  -1.2176
    -1.0584  -0.9956  -0.9444  -0.7989  -0.5412  -0.5151  -0.2513   0.2335
     0.3416   0.3961   0.4315   0.5854   1.3022   1.4308   1.6308   1.6891
     1.9883   2.0775   2.6505   2.6710   2.9015   2.9398   3.0756   3.1218
     3.3212   3.4325   3.4571   3.5338   3.5769   3.6770   3.7096   3.7291
     3.8669   3.9768   4.0574   4.1670   4.1708   4.2865   4.4202   4.4612

          k = 0.0307-0.0109 0.0000 ( 31553 PWs)   bands (ev):

   -72.7368 -72.7272 -72.4449 -72.4362 -72.4360 -72.4274 -65.1606 -65.1499
   -64.5857 -64.5755 -64.5623 -64.5520 -37.5289 -37.4524 -37.4510 -37.2857
   -37.2233 -37.1819 -37.1399 -36.9761 -36.9116 -36.8907 -36.8862 -36.8416
   -36.7538 -36.7145 -36.6910 -36.6020 -36.5848 -36.5573 -36.5250 -36.5206
   -36.4789 -36.4451 -36.4124 -36.3984 -36.3962 -36.3644 -36.2453 -36.1921
   -36.1217 -36.1201 -36.1126 -36.0829 -36.0673 -36.0269 -35.9980 -35.9843
    -5.3537  -3.4311  -3.3917  -3.3627  -3.0907  -3.0757  -2.9020  -2.8287
    -2.6091  -2.5675  -1.9581  -1.7495  -1.4888  -1.3142  -1.2140  -1.1849
    -1.0517  -0.9690  -0.9233  -0.8038  -0.5566  -0.4221  -0.1886   0.2216
     0.3532   0.3680   0.4060   0.6455   1.2947   1.4242   1.5871   1.6724
     1.9531   1.9906   2.4413   2.6095   2.7970   2.7980   2.9500   3.0036
     3.2841   3.2889   3.3715   3.3929   3.5689   3.6176   3.6493   3.7318
     3.8943   3.9014   3.9710   4.0960   4.1669   4.3474   4.3715   4.5184

          k = 0.0307 0.0054 0.0000 ( 31542 PWs)   bands (ev):

   -72.7373 -72.7267 -72.4453 -72.4365 -72.4357 -72.4269 -65.1613 -65.1493
   -64.5864 -64.5748 -64.5630 -64.5514 -37.5295 -37.4542 -37.4430 -37.2886
   -37.2212 -37.1651 -37.1400 -36.9816 -36.9015 -36.8817 -36.8790 -36.8437
   -36.7280 -36.7224 -36.6746 -36.6137 -36.6088 -36.5525 -36.5185 -36.5090
   -36.4588 -36.4490 -36.4311 -36.4161 -36.4081 -36.3572 -36.2408 -36.1752
   -36.1329 -36.1270 -36.1021 -36.0891 -36.0842 -36.0385 -36.0086 -35.9956
    -5.3704  -3.4739  -3.3989  -3.3620  -3.1159  -3.0715  -2.8923  -2.8235
    -2.6219  -2.5934  -1.9465  -1.8003  -1.5745  -1.2051  -1.1902  -1.1710
    -1.0774  -0.9758  -0.8301  -0.8099  -0.5406  -0.4337  -0.0816   0.3945
     0.4740   0.5152   0.5673   0.6575   1.0894   1.5399   1.6596   1.8497
     1.8794   2.1761   2.3393   2.4780   2.7642   2.8188   2.8667   3.0637
     3.1114   3.2042   3.2786   3.4528   3.5007   3.5752   3.7029   3.7466
     3.8448   3.8721   3.9290   4.1153   4.2189   4.4362   4.4497   4.5251

          k = 0.0307 0.0217 0.0000 ( 31518 PWs)   bands (ev):

   -72.7374 -72.7266 -72.4455 -72.4366 -72.4355 -72.4267 -65.1616 -65.1491
   -64.5867 -64.5746 -64.5633 -64.5512 -37.5138 -37.4393 -37.4182 -37.2846
   -37.2133 -37.1525 -37.1297 -36.9886 -36.8774 -36.8571 -36.8520 -36.8392
   -36.7459 -36.7127 -36.6603 -36.6320 -36.6246 -36.5589 -36.5083 -36.4818
   -36.4715 -36.4550 -36.4333 -36.4331 -36.4093 -36.3546 -36.2419 -36.1651
   -36.1503 -36.1391 -36.1173 -36.1038 -36.1029 -36.0626 -36.0365 -36.0239
    -5.2753  -3.4222  -3.3226  -3.2800  -3.0588  -2.9913  -2.8259  -2.7614
    -2.5997  -2.5155  -1.8719  -1.7533  -1.6050  -1.1423  -1.0831  -1.0673
    -1.0555  -0.9387  -0.8042  -0.7602  -0.4808  -0.4126   0.0405   0.4922
     0.5222   0.5748   0.6315   0.6373   0.9273   1.4699   1.7214   1.7281
     1.8782   2.1540   2.1667   2.2370   2.4414   2.7430   2.8176   2.9214
     3.0080   3.1086   3.2684   3.3491   3.3605   3.4537   3.5763   3.5833
     3.7091   3.9066   3.9956   4.0057   4.3081   4.3979   4.4460   4.5642

          k = 0.0307 0.0380 0.0000 ( 31542 PWs)   bands (ev):

   -72.7372 -72.7268 -72.4453 -72.4364 -72.4357 -72.4269 -65.1615 -65.1494
   -64.5866 -64.5748 -64.5632 -64.5514 -37.4902 -37.4021 -37.3832 -37.2745
   -37.2018 -37.1429 -37.1117 -36.9987 -36.8528 -36.8419 -36.8266 -36.7863
   -36.7686 -36.7401 -36.6532 -36.6451 -36.6166 -36.5581 -36.4982 -36.4958
   -36.4931 -36.4461 -36.4267 -36.4143 -36.4099 -36.3586 -36.2480 -36.1945
   -36.1900 -36.1486 -36.1435 -36.1388 -36.1269 -36.0771 -36.0625 -36.0519
    -5.0766  -3.2857  -3.2046  -3.1512  -2.9073  -2.8643  -2.6769  -2.6491
    -2.5039  -2.3889  -1.8450  -1.6087  -1.5090  -1.0694  -1.0100  -0.9403
    -0.9278  -0.8746  -0.7991  -0.7311  -0.4301  -0.2727   0.1273   0.3988
     0.4055   0.4493   0.5145   0.8613   0.9792   1.2793   1.5803   1.7169
     1.7478   1.8733   1.9437   2.0353   2.1398   2.6380   2.6550   2.6768
     2.8117   2.9958   3.0390   3.1216   3.1277   3.3128   3.4420   3.5999
     3.6404   3.6756   3.9595   4.0035   4.0897   4.2955   4.3279   4.5451

          k = 0.0307 0.0543 0.0000 ( 31621 PWs)   bands (ev):

   -72.7366 -72.7274 -72.4448 -72.4362 -72.4359 -72.4274 -65.1610 -65.1501
   -64.5862 -64.5754 -64.5628 -64.5520 -37.4641 -37.3504 -37.3434 -37.2595
   -37.1904 -37.1313 -37.0906 -37.0112 -36.8851 -36.8353 -36.7965 -36.7806
   -36.7551 -36.7091 -36.6544 -36.6413 -36.5998 -36.5621 -36.5228 -36.4979
   -36.4711 -36.4508 -36.4220 -36.3886 -36.3861 -36.3708 -36.2714 -36.2483
   -36.2481 -36.2130 -36.2005 -36.1477 -36.1264 -36.0818 -36.0790 -36.0620
    -4.7892  -3.2013  -3.0763  -2.9224  -2.7089  -2.6721  -2.4984  -2.4482
    -2.3464  -2.2382  -1.8742  -1.3712  -1.3399  -1.0516  -0.9399  -0.8530
    -0.8488  -0.8115  -0.7682  -0.7423  -0.2963  -0.0626   0.0121   0.1824
     0.3180   0.3524   0.4066   0.9348   1.0177   1.2183   1.4746   1.5399
     1.5423   1.6419   1.6691   1.7460   1.9592   2.2461   2.4590   2.4670
     2.6544   2.7019   2.8007   2.8019   3.0542   3.0859   3.2894   3.4155
     3.5641   3.6011   3.8169   3.8285   3.9274   4.0010   4.3255   4.3858

          k = 0.0307 0.0706 0.0000 ( 31651 PWs)   bands (ev):

   -72.7356 -72.7282 -72.4440 -72.4370 -72.4351 -72.4282 -65.1601 -65.1511
   -64.5853 -64.5764 -64.5619 -64.5530 -37.4356 -37.3348 -37.2731 -37.2420
   -37.1837 -37.1176 -37.0695 -37.0245 -36.9456 -36.8919 -36.7753 -36.7599
   -36.7262 -36.6543 -36.6459 -36.6125 -36.5951 -36.5611 -36.5343 -36.4807
   -36.4496 -36.4353 -36.4304 -36.4100 -36.3618 -36.3519 -36.3429 -36.3048
   -36.2958 -36.2638 -36.2492 -36.1574 -36.1220 -36.0843 -36.0831 -36.0655
    -4.4358  -3.3122  -2.8169  -2.6999  -2.5488  -2.3745  -2.3264  -2.1968
    -2.1500  -2.0992  -1.9046  -1.2402  -1.1442  -1.0524  -0.8999  -0.8950
    -0.8424  -0.8015  -0.7817  -0.7298  -0.1936  -0.1253  -0.0565   0.1274
     0.1772   0.4206   0.4839   0.7135   0.9017   1.0421   1.1942   1.3307
     1.3823   1.4371   1.5057   1.5442   1.9686   1.9843   2.0542   2.2948
     2.4625   2.5433   2.6236   2.6949   2.7497   3.0896   3.0982   3.2464
     3.4321   3.5308   3.7094   3.7424   3.8251   3.9615   4.1383   4.3248

          k = 0.0307-0.1087 0.0000 ( 31637 PWs)   bands (ev):

   -72.7345 -72.7294 -72.4429 -72.4380 -72.4341 -72.4292 -65.1588 -65.1524
   -64.5841 -64.5776 -64.5607 -64.5542 -37.4052 -37.3413 -37.2253 -37.2121
   -37.1848 -37.1319 -37.0476 -37.0378 -37.0048 -36.9225 -36.7663 -36.7339
   -36.7007 -36.6859 -36.6250 -36.6126 -36.5370 -36.5295 -36.5254 -36.4770
   -36.4670 -36.4450 -36.4419 -36.4173 -36.4105 -36.3724 -36.3446 -36.3159
   -36.3068 -36.2830 -36.2480 -36.1738 -36.1142 -36.0832 -36.0826 -36.0684
    -4.0487  -3.5541  -2.5830  -2.5455  -2.4198  -2.1802  -2.0497  -2.0319
    -2.0187  -1.9327  -1.9183  -1.3371  -1.3064  -0.9628  -0.9607  -0.9419
    -0.8441  -0.7887  -0.6930  -0.6339  -0.3464  -0.2066  -0.1059  -0.0728
     0.2695   0.4205   0.4504   0.5877   0.7815   0.7995   0.8215   1.0622
     1.1846   1.2373   1.2561   1.3760   1.8771   1.9919   2.1940   2.2286
     2.3270   2.5209   2.5588   2.8117   2.8345   2.9533   3.2145   3.3384
     3.3899   3.5173   3.5540   3.5997   3.7465   4.0728   4.1326   4.2869

          k = 0.0307-0.0924 0.0000 ( 31619 PWs)   bands (ev):

   -72.7332 -72.7307 -72.4417 -72.4392 -72.4329 -72.4304 -65.1573 -65.1538
   -64.5827 -64.5790 -64.5593 -64.5557 -37.3768 -37.3637 -37.2151 -37.2044
   -37.1945 -37.1932 -37.0527 -37.0260 -37.0110 -36.8997 -36.7659 -36.7344
   -36.7210 -36.6866 -36.6428 -36.5950 -36.5520 -36.5389 -36.5060 -36.5036
   -36.4886 -36.4806 -36.4591 -36.4102 -36.3872 -36.3654 -36.3297 -36.2927
   -36.2787 -36.2629 -36.2135 -36.1873 -36.1025 -36.0831 -36.0800 -36.0702
    -3.8997  -3.6747  -2.5660  -2.4459  -2.3773  -2.1192  -2.1069  -2.0578
    -1.9564  -1.8071  -1.6306  -1.5858  -1.3755  -1.1597  -1.0433  -0.9345
    -0.8412  -0.7981  -0.6070  -0.4565  -0.3525  -0.3207  -0.2019  -0.1193
    -0.0782   0.1651   0.3758   0.5169   0.5439   0.6963   0.7395   0.8239
     0.8588   0.9327   1.4497   1.6920   1.8955   2.0225   2.2585   2.4197
     2.5513   2.6125   2.8050   2.9645   3.0097   3.2061   3.2566   3.2833
     3.3824   3.4888   3.6491   3.7518   3.8324   4.1363   4.1926   4.2622

          k = 0.0307-0.0761 0.0000 ( 31604 PWs)   bands (ev):

   -72.7321 -72.7318 -72.4405 -72.4404 -72.4317 -72.4316 -65.1556 -65.1554
   -64.5811 -64.5805 -64.5576 -64.5572 -37.3947 -37.3610 -37.2809 -37.2304
   -37.2190 -37.2056 -37.0690 -37.0051 -36.9599 -36.8638 -36.7919 -36.7815
   -36.7254 -36.6997 -36.6621 -36.6135 -36.5768 -36.5586 -36.5335 -36.5125
   -36.4846 -36.4760 -36.4581 -36.4265 -36.3399 -36.3330 -36.2976 -36.2767
   -36.2588 -36.2051 -36.1698 -36.1683 -36.0872 -36.0867 -36.0724 -36.0698
    -4.2910  -3.3800  -2.6624  -2.5405  -2.4805  -2.3222  -2.2969  -2.1794
    -2.1583  -1.7887  -1.6748  -1.3692  -1.3406  -1.2976  -0.9908  -0.8736
    -0.7995  -0.7617  -0.6800  -0.5819  -0.5623  -0.4874  -0.3109  -0.2563
    -0.0742   0.0278   0.0592   0.4532   0.6533   0.6749   0.7142   0.7821
     0.8768   1.2327   1.5749   1.7375   2.0166   2.3171   2.4976   2.7189
     2.7739   2.8301   2.9997   3.0538   3.2312   3.3077   3.3531   3.3827
     3.4724   3.5374   3.7766   3.9731   4.0785   4.1568   4.2120   4.2949

          k = 0.0307-0.0598 0.0000 ( 31643 PWs)   bands (ev):

   -72.7336 -72.7304 -72.4418 -72.4392 -72.4330 -72.4303 -65.1569 -65.1539
   -64.5820 -64.5794 -64.5587 -64.5560 -37.4313 -37.3771 -37.3545 -37.2428
   -37.2387 -37.2073 -37.0883 -36.9864 -36.8994 -36.8430 -36.8414 -36.8169
   -36.7773 -36.7053 -36.6824 -36.6210 -36.5993 -36.5415 -36.5300 -36.5167
   -36.4973 -36.4615 -36.4467 -36.4322 -36.3371 -36.3228 -36.2686 -36.2652
   -36.2137 -36.1488 -36.1316 -36.1210 -36.0938 -36.0683 -36.0653 -36.0522
    -4.6695  -3.2389  -2.8048  -2.7431  -2.7014  -2.6542  -2.5074  -2.4431
    -2.3122  -2.0200  -1.6729  -1.4315  -1.2761  -1.1134  -1.0346  -0.9989
    -0.8748  -0.7824  -0.7315  -0.7222  -0.5353  -0.4828  -0.3650  -0.3418
    -0.3012  -0.1812   0.2326   0.4282   0.7394   0.8294   0.9362   1.1689
     1.3001   1.4276   1.5121   1.9370   2.1591   2.6625   2.7844   2.7935
     2.9996   3.0618   3.0850   3.2085   3.3155   3.3653   3.4677   3.5290
     3.5708   3.8355   3.9158   3.9904   4.0378   4.1366   4.3392   4.3573

          k = 0.0307-0.0435 0.0000 ( 31610 PWs)   bands (ev):

   -72.7349 -72.7291 -72.4430 -72.4380 -72.4342 -72.4292 -65.1583 -65.1523
   -64.5834 -64.5779 -64.5601 -64.5544 -37.4724 -37.4123 -37.4063 -37.2608
   -37.2244 -37.2132 -37.1100 -36.9745 -36.8842 -36.8525 -36.8433 -36.8370
   -36.8324 -36.7085 -36.6947 -36.6048 -36.6034 -36.5472 -36.5301 -36.5085
   -36.4805 -36.4763 -36.4385 -36.4083 -36.3519 -36.3323 -36.2673 -36.2365
   -36.1639 -36.1168 -36.1098 -36.0952 -36.0846 -36.0588 -36.0349 -36.0213
    -4.9906  -3.2655  -3.0454  -2.9698  -2.9425  -2.8130  -2.7230  -2.6649
    -2.4534  -2.2503  -1.7477  -1.4285  -1.3787  -1.2519  -1.1359  -1.1140
    -1.0235  -0.8484  -0.8365  -0.7446  -0.4290  -0.3507  -0.3340  -0.2354
    -0.2080  -0.1715   0.3077   0.4892   0.9093   1.0961   1.2237   1.4094
     1.6268   1.7318   1.8764   2.0198   2.3836   2.6853   2.7410   3.1702
     3.2278   3.2467   3.2871   3.3104   3.3886   3.5449   3.5619   3.6537
     3.7406   3.7758   3.7873   3.9080   4.0661   4.3469   4.3589   4.5223

          k = 0.0307-0.0272 0.0000 ( 31575 PWs)   bands (ev):

   -72.7360 -72.7281 -72.4441 -72.4370 -72.4352 -72.4281 -65.1596 -65.1510
   -64.5847 -64.5765 -64.5613 -64.5531 -37.5087 -37.4401 -37.4369 -37.2761
   -37.2198 -37.2024 -37.1290 -36.9719 -36.9071 -36.8770 -36.8743 -36.8375
   -36.7949 -36.7063 -36.7011 -36.6002 -36.5828 -36.5634 -36.5274 -36.5009
   -36.4991 -36.4554 -36.4230 -36.3925 -36.3656 -36.3616 -36.2553 -36.2124
   -36.1327 -36.1155 -36.1126 -36.0800 -36.0727 -36.0354 -36.0082 -35.9945
    -5.2245  -3.3500  -3.2863  -3.2151  -3.0447  -2.9414  -2.8732  -2.7748
    -2.5598  -2.4400  -1.8759  -1.6045  -1.3883  -1.3807  -1.2011  -1.1288
    -1.0310  -0.9699  -0.9193  -0.7777  -0.5098  -0.4080  -0.2729   0.0217
     0.1000   0.1278   0.3132   0.5876   1.1401   1.3980   1.4811   1.5480
     1.6003   2.0386   2.2110   2.5074   2.5665   2.7255   2.7287   3.1396
     3.2828   3.3600   3.3603   3.5290   3.5535   3.6211   3.6355   3.7086
     3.7418   3.7628   3.8710   4.0496   4.2029   4.2097   4.4398   4.4580

          k = 0.0461-0.0164 0.0000 ( 31592 PWs)   bands (ev):

   -72.7359 -72.7281 -72.4441 -72.4370 -72.4352 -72.4281 -65.1597 -65.1510
   -64.5848 -64.5765 -64.5614 -64.5530 -37.5020 -37.4211 -37.3999 -37.2696
   -37.2120 -37.1851 -37.1179 -36.9901 -36.8914 -36.8745 -36.8630 -36.7992
   -36.7822 -36.7324 -36.6904 -36.6065 -36.5803 -36.5608 -36.5123 -36.4978
   -36.4917 -36.4715 -36.4245 -36.3933 -36.3670 -36.3608 -36.2586 -36.2258
   -36.1703 -36.1674 -36.1308 -36.1285 -36.0640 -36.0297 -36.0185 -36.0040
    -5.0857  -3.3717  -3.1841  -3.1173  -2.9612  -2.8415  -2.7115  -2.6980
    -2.4771  -2.3832  -1.9547  -1.5056  -1.3029  -1.2661  -1.0856  -1.0423
    -0.9952  -0.9870  -0.9030  -0.8075  -0.4679  -0.2439  -0.1677   0.0145
     0.0918   0.1203   0.2604   0.7424   1.2084   1.3663   1.4245   1.4611
     1.5591   1.9098   1.9607   2.3057   2.3862   2.5057   2.6794   2.9857
     3.1103   3.1693   3.2363   3.2589   3.3920   3.4796   3.5514   3.6121
     3.7395   3.7572   3.8758   4.0698   4.1100   4.2035   4.2487   4.5441

          k = 0.0461-0.0001 0.0000 ( 31570 PWs)   bands (ev):

   -72.7367 -72.7273 -72.4448 -72.4362 -72.4360 -72.4274 -65.1607 -65.1500
   -64.5859 -64.5755 -64.5625 -64.5520 -37.5055 -37.4115 -37.4076 -37.2752
   -37.2093 -37.1620 -37.1198 -36.9934 -36.8833 -36.8658 -36.8524 -36.7849
   -36.7660 -36.7509 -36.6732 -36.6206 -36.5854 -36.5614 -36.5108 -36.5047
   -36.4836 -36.4623 -36.4169 -36.3968 -36.3933 -36.3667 -36.2510 -36.2097
   -36.1807 -36.1512 -36.1359 -36.1349 -36.0843 -36.0437 -36.0298 -36.0156
    -5.1355  -3.3230  -3.2724  -3.1922  -2.9443  -2.9200  -2.7125  -2.7029
    -2.4784  -2.4649  -1.9486  -1.6025  -1.4205  -1.1202  -1.0961  -1.0296
    -1.0021  -0.9129  -0.8636  -0.8100  -0.4772  -0.2621  -0.0343   0.2175
     0.3038   0.3417   0.3610   0.8278   1.2119   1.3402   1.5598   1.6198
     1.7773   1.8160   2.0356   2.2596   2.3875   2.5765   2.7188   2.8092
     2.9755   3.0677   3.1608   3.1685   3.3255   3.3775   3.5120   3.6220
     3.8060   3.8685   3.8706   3.9766   4.1230   4.2235   4.3940   4.5479

          k = 0.0461 0.0162 0.0000 ( 31542 PWs)   bands (ev):

   -72.7372 -72.7268 -72.4453 -72.4364 -72.4357 -72.4269 -65.1615 -65.1494
   -64.5866 -64.5748 -64.5632 -64.5514 -37.4902 -37.4021 -37.3832 -37.2745
   -37.2018 -37.1429 -37.1117 -36.9987 -36.8528 -36.8419 -36.8266 -36.7863
   -36.7686 -36.7401 -36.6532 -36.6451 -36.6166 -36.5581 -36.4982 -36.4958
   -36.4931 -36.4461 -36.4267 -36.4143 -36.4099 -36.3586 -36.2480 -36.1945
   -36.1900 -36.1486 -36.1435 -36.1388 -36.1269 -36.0771 -36.0625 -36.0519
    -5.0766  -3.2857  -3.2046  -3.1512  -2.9073  -2.8643  -2.6769  -2.6491
    -2.5039  -2.3889  -1.8450  -1.6087  -1.5090  -1.0694  -1.0100  -0.9403
    -0.9278  -0.8746  -0.7991  -0.7311  -0.4301  -0.2727   0.1273   0.3988
     0.4055   0.4493   0.5145   0.8613   0.9792   1.2793   1.5803   1.7169
     1.7478   1.8733   1.9437   2.0353   2.1398   2.6380   2.6550   2.6768
     2.8117   2.9958   3.0390   3.1216   3.1277   3.3128   3.4420   3.5999
     3.6404   3.6756   3.9595   4.0035   4.0897   4.2955   4.3279   4.5451

          k = 0.0461 0.0325 0.0000 ( 31588 PWs)   bands (ev):

   -72.7373 -72.7267 -72.4455 -72.4366 -72.4355 -72.4267 -65.1618 -65.1492
   -64.5870 -64.5746 -64.5636 -64.5512 -37.4642 -37.3778 -37.3422 -37.2677
   -37.1910 -37.1278 -37.0960 -37.0072 -36.8271 -36.8041 -36.7894 -36.7865
   -36.7678 -36.7354 -36.6730 -36.6453 -36.6301 -36.5608 -36.5176 -36.4787
   -36.4665 -36.4530 -36.4419 -36.4159 -36.4064 -36.3557 -36.2497 -36.2052
   -36.1823 -36.1811 -36.1775 -36.1626 -36.1355 -36.1154 -36.1128 -36.0949
    -4.9157  -3.2279  -3.0674  -3.0155  -2.8050  -2.7351  -2.5805  -2.5448
    -2.4567  -2.2612  -1.7113  -1.5378  -1.5219  -1.0249  -0.9358  -0.8666
    -0.7925  -0.7715  -0.7114  -0.6356  -0.3555  -0.2157   0.2881   0.4010
     0.4230   0.4308   0.5751   0.8723   0.9534   1.1303   1.3913   1.6713
     1.6946   1.7619   1.7976   1.8267   1.9392   2.4299   2.4923   2.5308
     2.7414   2.8000   2.8701   2.9811   3.0038   3.2731   3.3203   3.3984
     3.4657   3.5851   3.9311   3.9794   4.1234   4.2659   4.3068   4.3541

          k = 0.0461 0.0488 0.0000 ( 31606 PWs)   bands (ev):

   -72.7370 -72.7269 -72.4453 -72.4364 -72.4357 -72.4269 -65.1617 -65.1495
   -64.5869 -64.5748 -64.5635 -64.5514 -37.4367 -37.3308 -37.3005 -37.2560
   -37.1798 -37.1136 -37.0770 -37.0180 -36.8739 -36.7933 -36.7650 -36.7556
   -36.7319 -36.7218 -36.6771 -36.6516 -36.6146 -36.5578 -36.5328 -36.4829
   -36.4581 -36.4474 -36.4208 -36.4191 -36.3840 -36.3612 -36.2755 -36.2532
   -36.2389 -36.2123 -36.2027 -36.1916 -36.1650 -36.1319 -36.1230 -36.1191
    -4.6656  -3.1087  -2.9969  -2.8191  -2.6221  -2.5762  -2.4048  -2.3973
    -2.3367  -2.1040  -1.7003  -1.4074  -1.3442  -1.0122  -0.8556  -0.8117
    -0.7625  -0.6869  -0.6004  -0.5358  -0.2449  -0.0498   0.1567   0.2671
     0.3857   0.4163   0.5247   0.8287   0.9853   1.1930   1.3514   1.3519
     1.4786   1.5785   1.6772   1.7151   1.8268   2.1809   2.2214   2.3064
     2.4699   2.6155   2.7059   2.7752   2.8502   2.9918   3.2460   3.2939
     3.3948   3.5617   3.5863   3.8177   3.9963   4.1367   4.3031   4.3354

          k = 0.0461 0.0651 0.0000 ( 31675 PWs)   bands (ev):

   -72.7364 -72.7274 -72.4447 -72.4362 -72.4359 -72.4274 -65.1612 -65.1501
   -64.5865 -64.5754 -64.5630 -64.5520 -37.4090 -37.2751 -37.2687 -37.2414
   -37.1722 -37.0987 -37.0579 -37.0286 -36.9458 -36.8531 -36.7488 -36.7161
   -36.6943 -36.6904 -36.6522 -36.6223 -36.6067 -36.5559 -36.5381 -36.4822
   -36.4501 -36.4264 -36.4259 -36.3872 -36.3820 -36.3588 -36.3516 -36.3010
   -36.2918 -36.2671 -36.2606 -36.1896 -36.1550 -36.1387 -36.1359 -36.1177
    -4.3445  -3.0513  -2.9494  -2.6140  -2.4073  -2.3721  -2.2403  -2.1629
    -2.1580  -1.9468  -1.7263  -1.2646  -1.1002  -1.0838  -0.8077  -0.7927
    -0.7715  -0.6722  -0.6065  -0.5553  -0.0936  -0.0721   0.0682   0.1679
     0.2666   0.4847   0.4923   0.6949   0.9165   0.9692   1.2228   1.2851
     1.3843   1.4294   1.4310   1.6737   1.7769   1.8880   1.9941   2.0770
     2.2132   2.5120   2.5267   2.5296   2.6565   2.7979   3.0893   3.0974
     3.4001   3.5025   3.6087   3.6328   3.8895   3.9146   4.2555   4.2985

          k = 0.0461-0.1142 0.0000 ( 31634 PWs)   bands (ev):

   -72.7355 -72.7283 -72.4439 -72.4370 -72.4351 -72.4282 -65.1602 -65.1511
   -64.5856 -64.5764 -64.5621 -64.5530 -37.3793 -37.2752 -37.2266 -37.2108
   -37.1718 -37.1088 -37.0391 -37.0372 -37.0175 -36.8873 -36.7324 -36.6903
   -36.6735 -36.6697 -36.6512 -36.6454 -36.5427 -36.5338 -36.5286 -36.4692
   -36.4591 -36.4461 -36.4453 -36.4272 -36.3928 -36.3806 -36.3564 -36.3124
   -36.3071 -36.2877 -36.2650 -36.1818 -36.1635 -36.1374 -36.1359 -36.1177
    -3.9773  -3.2468  -2.7951  -2.4700  -2.2549  -2.0781  -2.0713  -1.9620
    -1.9390  -1.8378  -1.7325  -1.3246  -1.1931  -0.8811  -0.8793  -0.7624
    -0.7475  -0.7353  -0.6929  -0.6287  -0.2667  -0.0785   0.0173   0.0633
     0.2557   0.2603   0.5576   0.6024   0.7390   0.8385   0.8454   1.0971
     1.1886   1.2132   1.3736   1.3913   1.7216   1.8247   2.0007   2.0206
     2.1543   2.2834   2.4520   2.7187   2.7563   2.8897   2.9903   3.1217
     3.4176   3.4830   3.6620   3.6700   3.7490   3.7934   4.2681   4.2787

          k = 0.0461-0.0979 0.0000 ( 31641 PWs)   bands (ev):

   -72.7344 -72.7295 -72.4429 -72.4380 -72.4340 -72.4292 -65.1589 -65.1524
   -64.5843 -64.5776 -64.5609 -64.5542 -37.3476 -37.2949 -37.2150 -37.2008
   -37.1821 -37.1690 -37.0462 -37.0425 -37.0191 -36.8653 -36.7246 -36.6969
   -36.6967 -36.6730 -36.6412 -36.6363 -36.5399 -36.5312 -36.5257 -36.5199
   -36.4903 -36.4827 -36.4535 -36.4021 -36.3939 -36.3890 -36.3446 -36.2845
   -36.2740 -36.2541 -36.2356 -36.1779 -36.1671 -36.1336 -36.1314 -36.1190
    -3.6008  -3.5636  -2.7165  -2.4399  -2.1634  -1.9851  -1.8863  -1.8746
    -1.7776  -1.7586  -1.6452  -1.4211  -1.3945  -1.1053  -1.0333  -0.8756
    -0.7650  -0.6568  -0.6267  -0.3584  -0.3034  -0.2267  -0.1863  -0.0702
     0.0077   0.0718   0.3775   0.4450   0.5117   0.6107   0.7244   0.8471
     0.8640   0.9778   1.3263   1.6496   1.7150   2.0073   2.0595   2.2081
     2.2585   2.2749   2.6442   2.8769   3.0090   3.0767   3.1492   3.4268
     3.5050   3.5141   3.5610   3.6114   3.8059   4.0533   4.2363   4.3398

          k = 0.0461-0.0816 0.0000 ( 31610 PWs)   bands (ev):

   -72.7331 -72.7308 -72.4417 -72.4392 -72.4329 -72.4304 -65.1574 -65.1538
   -64.5828 -64.5790 -64.5593 -64.5556 -37.3277 -37.3178 -37.2504 -37.2495
   -37.2064 -37.2007 -37.0562 -37.0121 -36.9919 -36.8260 -36.7536 -36.7409
   -36.7341 -36.6718 -36.6297 -36.6096 -36.6000 -36.5745 -36.5593 -36.5080
   -36.4962 -36.4862 -36.4621 -36.4061 -36.3654 -36.3416 -36.3167 -36.2830
   -36.2413 -36.1949 -36.1793 -36.1686 -36.1431 -36.1321 -36.1275 -36.1181
    -3.9460  -3.2807  -2.7433  -2.5183  -2.2028  -2.1003  -2.0337  -1.9727
    -1.9468  -1.5611  -1.5011  -1.4260  -1.3823  -1.2949  -1.2057  -0.8948
    -0.7232  -0.6338  -0.5564  -0.4649  -0.4387  -0.4382  -0.3471  -0.2109
    -0.0094   0.0729   0.1094   0.3338   0.3657   0.4472   0.5405   0.7211
     0.7731   1.0868   1.5773   1.7099   1.7993   2.0804   2.3281   2.4572
     2.4973   2.5992   2.8796   3.0479   3.1795   3.2490   3.3081   3.4097
     3.4364   3.5371   3.6781   3.9964   4.1579   4.2623   4.2764   4.3909

          k = 0.0461-0.0653 0.0000 ( 31622 PWs)   bands (ev):

   -72.7322 -72.7318 -72.4405 -72.4404 -72.4317 -72.4316 -65.1557 -65.1554
   -64.5811 -64.5805 -64.5577 -64.5571 -37.3752 -37.3299 -37.3137 -37.2683
   -37.2210 -37.2052 -37.0700 -36.9935 -36.9452 -36.8072 -36.8053 -36.7797
   -36.7737 -36.6837 -36.6629 -36.6121 -36.6107 -36.5585 -36.5554 -36.5198
   -36.4860 -36.4790 -36.4552 -36.4262 -36.3389 -36.3273 -36.2893 -36.2516
   -36.2493 -36.1426 -36.1388 -36.1352 -36.1266 -36.1111 -36.1095 -36.0978
    -4.3312  -3.1548  -2.7603  -2.6532  -2.4259  -2.3361  -2.3160  -2.1714
    -2.1666  -1.7826  -1.5079  -1.4622  -1.3656  -1.0886  -0.9818  -0.9123
    -0.7230  -0.7059  -0.6693  -0.6533  -0.6021  -0.5545  -0.4651  -0.4340
    -0.1786  -0.0350   0.2262   0.2983   0.5762   0.6738   0.7211   0.7487
     0.7867   1.3259   1.5230   1.8663   1.9080   2.4471   2.5575   2.7206
     2.8043   2.9098   2.9968   3.0420   3.2284   3.3047   3.3556   3.3938
     3.5458   3.7961   3.8904   4.0346   4.1099   4.2149   4.2308   4.5065

          k = 0.0461-0.0490 0.0000 ( 31643 PWs)   bands (ev):

   -72.7336 -72.7304 -72.4418 -72.4392 -72.4330 -72.4303 -65.1569 -65.1539
   -64.5820 -64.5794 -64.5587 -64.5560 -37.4313 -37.3771 -37.3545 -37.2428
   -37.2387 -37.2073 -37.0883 -36.9864 -36.8994 -36.8430 -36.8414 -36.8169
   -36.7773 -36.7053 -36.6824 -36.6210 -36.5993 -36.5415 -36.5300 -36.5167
   -36.4973 -36.4615 -36.4467 -36.4322 -36.3371 -36.3228 -36.2686 -36.2652
   -36.2137 -36.1488 -36.1316 -36.1210 -36.0938 -36.0683 -36.0653 -36.0522
    -4.6695  -3.2389  -2.8048  -2.7431  -2.7014  -2.6542  -2.5074  -2.4431
    -2.3122  -2.0200  -1.6728  -1.4315  -1.2761  -1.1134  -1.0346  -0.9989
    -0.8748  -0.7824  -0.7315  -0.7222  -0.5353  -0.4828  -0.3650  -0.3418
    -0.3012  -0.1812   0.2326   0.4282   0.7394   0.8294   0.9362   1.1689
     1.3001   1.4276   1.5121   1.9370   2.1591   2.6625   2.7844   2.7935
     2.9996   3.0618   3.0850   3.2085   3.3155   3.3653   3.4677   3.5290
     3.5708   3.8355   3.9158   3.9904   4.0378   4.1366   4.3392   4.3572

          k = 0.0461-0.0327 0.0000 ( 31598 PWs)   bands (ev):

   -72.7348 -72.7292 -72.4430 -72.4380 -72.4342 -72.4292 -65.1584 -65.1523
   -64.5835 -64.5778 -64.5601 -64.5544 -37.4767 -37.4095 -37.3820 -37.2579
   -37.2114 -37.2105 -37.1063 -36.9869 -36.8761 -36.8740 -36.8606 -36.8276
   -36.7785 -36.7166 -36.6959 -36.6122 -36.5912 -36.5434 -36.5193 -36.5074
   -36.4845 -36.4756 -36.4380 -36.4100 -36.3522 -36.3328 -36.2686 -36.2440
   -36.1877 -36.1593 -36.1298 -36.1237 -36.0677 -36.0382 -36.0313 -36.0175
    -4.9275  -3.3377  -3.0083  -2.9312  -2.9109  -2.6962  -2.6777  -2.6317
    -2.4235  -2.2259  -1.8518  -1.3671  -1.3308  -1.1644  -1.1188  -1.0989
    -0.9893  -0.8945  -0.8391  -0.7759  -0.4076  -0.2756  -0.2483  -0.1916
    -0.1763  -0.1614   0.2227   0.6013   0.9753   1.0715   1.2383   1.4087
     1.5515   1.6080   1.8627   1.9638   2.3432   2.6056   2.6735   3.0588
     3.1004   3.1734   3.2349   3.2927   3.3283   3.4350   3.6181   3.6514
     3.7391   3.7483   3.8216   3.8411   4.1229   4.1286   4.2058   4.4205

          k = 0.0614-0.0218 0.0000 ( 31601 PWs)   bands (ev):

   -72.7347 -72.7292 -72.4430 -72.4380 -72.4342 -72.4292 -65.1585 -65.1524
   -64.5837 -64.5778 -64.5603 -64.5544 -37.4725 -37.3989 -37.3284 -37.2498
   -37.2032 -37.1776 -37.0951 -37.0079 -36.9070 -36.8993 -36.8267 -36.7975
   -36.7616 -36.7001 -36.6812 -36.6072 -36.5826 -36.5377 -36.5146 -36.4904
   -36.4799 -36.4735 -36.4371 -36.4164 -36.3527 -36.3353 -36.2762 -36.2684
   -36.2442 -36.2288 -36.1820 -36.1521 -36.0588 -36.0320 -36.0306 -36.0178
    -4.7412  -3.4463  -2.9012  -2.8180  -2.8145  -2.5439  -2.5320  -2.4629
    -2.3369  -2.1620  -1.9792  -1.2120  -1.1930  -1.1710  -1.0642  -1.0577
    -0.9931  -0.8897  -0.8451  -0.8062  -0.2882  -0.2640  -0.1917  -0.0362
    -0.0307   0.0960   0.1103   0.7439   1.0674   1.1344   1.1915   1.3012
     1.4223   1.4536   1.6183   1.8286   2.2633   2.3454   2.5875   2.6328
     2.7605   3.0296   3.1217   3.1516   3.3058   3.3400   3.4034   3.5390
     3.6027   3.6672   3.7174   3.7309   3.7897   4.0448   4.1202   4.3079

          k = 0.0614-0.0055 0.0000 ( 31589 PWs)   bands (ev):

   -72.7358 -72.7282 -72.4440 -72.4370 -72.4352 -72.4282 -65.1599 -65.1510
   -64.5850 -64.5765 -64.5616 -64.5530 -37.4783 -37.3849 -37.3412 -37.2575
   -37.1985 -37.1531 -37.0974 -37.0085 -36.9026 -36.8705 -36.8207 -36.7796
   -36.7763 -36.7027 -36.6688 -36.6201 -36.5753 -36.5620 -36.5140 -36.4912
   -36.4818 -36.4632 -36.4273 -36.3960 -36.3672 -36.3595 -36.2721 -36.2577
   -36.2399 -36.2275 -36.1908 -36.1475 -36.0808 -36.0456 -36.0434 -36.0270
    -4.8166  -3.3620  -3.0016  -2.9358  -2.7935  -2.6463  -2.5464  -2.4658
    -2.3198  -2.2835  -1.9782  -1.3151  -1.2559  -1.0617  -1.0593  -0.9805
    -0.9281  -0.8761  -0.8388  -0.8310  -0.3121  -0.1321  -0.0444   0.0326
     0.1495   0.2092   0.2381   0.8981   1.1445   1.3296   1.3297   1.4027
     1.4493   1.6368   1.7413   1.7997   2.1621   2.2338   2.5617   2.5868
     2.7642   2.8637   2.9178   2.9317   3.2104   3.3168   3.3251   3.4997
     3.5432   3.6812   3.7997   3.8387   3.8505   4.1297   4.2155   4.2666

          k = 0.0614 0.0108 0.0000 ( 31621 PWs)   bands (ev):

   -72.7366 -72.7274 -72.4448 -72.4362 -72.4359 -72.4274 -65.1610 -65.1501
   -64.5862 -64.5754 -64.5628 -64.5520 -37.4641 -37.3504 -37.3434 -37.2595
   -37.1904 -37.1313 -37.0906 -37.0112 -36.8851 -36.8353 -36.7965 -36.7806
   -36.7551 -36.7091 -36.6544 -36.6413 -36.5998 -36.5621 -36.5228 -36.4979
   -36.4711 -36.4508 -36.4220 -36.3886 -36.3861 -36.3708 -36.2714 -36.2483
   -36.2481 -36.2130 -36.2005 -36.1477 -36.1264 -36.0817 -36.0790 -36.0620
    -4.7892  -3.2013  -3.0763  -2.9224  -2.7089  -2.6721  -2.4984  -2.4482
    -2.3464  -2.2382  -1.8742  -1.3712  -1.3399  -1.0516  -0.9399  -0.8530
    -0.8488  -0.8115  -0.7682  -0.7423  -0.2963  -0.0626   0.0121   0.1824
     0.3180   0.3524   0.4066   0.9348   1.0177   1.2183   1.4746   1.5399
     1.5423   1.6419   1.6691   1.7460   1.9592   2.2461   2.4590   2.4670
     2.6544   2.7019   2.8007   2.8019   3.0542   3.0859   3.2894   3.4155
     3.5641   3.6011   3.8169   3.8285   3.9274   4.0010   4.3255   4.3858

          k = 0.0614 0.0271 0.0000 ( 31606 PWs)   bands (ev):

   -72.7370 -72.7269 -72.4453 -72.4364 -72.4357 -72.4269 -65.1617 -65.1495
   -64.5869 -64.5748 -64.5635 -64.5514 -37.4367 -37.3308 -37.3005 -37.2560
   -37.1798 -37.1136 -37.0770 -37.0180 -36.8739 -36.7933 -36.7650 -36.7556
   -36.7319 -36.7218 -36.6771 -36.6516 -36.6146 -36.5578 -36.5328 -36.4829
   -36.4581 -36.4474 -36.4208 -36.4191 -36.3840 -36.3612 -36.2755 -36.2532
   -36.2389 -36.2123 -36.2027 -36.1916 -36.1650 -36.1319 -36.1230 -36.1191
    -4.6656  -3.1087  -2.9969  -2.8191  -2.6221  -2.5762  -2.4048  -2.3973
    -2.3367  -2.1040  -1.7003  -1.4074  -1.3442  -1.0122  -0.8556  -0.8117
    -0.7625  -0.6869  -0.6004  -0.5358  -0.2449  -0.0498   0.1567   0.2671
     0.3857   0.4163   0.5247   0.8287   0.9853   1.1930   1.3514   1.3519
     1.4786   1.5785   1.6772   1.7151   1.8268   2.1809   2.2214   2.3064
     2.4699   2.6155   2.7059   2.7752   2.8502   2.9918   3.2460   3.2939
     3.3948   3.5617   3.5863   3.8177   3.9963   4.1367   4.3026   4.3352

          k = 0.0614 0.0434 0.0000 ( 31608 PWs)   bands (ev):

   -72.7371 -72.7267 -72.4454 -72.4365 -72.4355 -72.4267 -65.1621 -65.1493
   -64.5873 -64.5746 -64.5639 -64.5512 -37.4066 -37.2980 -37.2493 -37.2441
   -37.1690 -37.0993 -37.0605 -37.0274 -36.8946 -36.7683 -36.7626 -36.7425
   -36.7038 -36.6975 -36.6725 -36.6722 -36.5848 -36.5570 -36.5395 -36.4520
   -36.4516 -36.4501 -36.4404 -36.4208 -36.3699 -36.3574 -36.2909 -36.2623
   -36.2582 -36.2375 -36.2342 -36.2227 -36.2129 -36.1766 -36.1762 -36.1386
    -4.4577  -3.0996  -2.8246  -2.6630  -2.5049  -2.4160  -2.3083  -2.2923
    -2.2220  -1.9393  -1.5351  -1.4225  -1.2337  -0.9708  -0.7948  -0.7597
    -0.7031  -0.6255  -0.4795  -0.2258  -0.1560   0.0510   0.1616   0.3093
     0.3418   0.3510   0.3529   0.9003   1.0946   1.1038   1.1947   1.2843
     1.3194   1.5029   1.5240   1.5500   1.9235   1.9589   1.9607   2.0887
     2.2376   2.5183   2.6029   2.6907   2.6946   2.9294   3.0455   3.2305
     3.2393   3.3431   3.5920   3.7975   3.8702   4.0422   4.1224   4.2403

          k = 0.0614 0.0597 0.0000 ( 31642 PWs)   bands (ev):

   -72.7369 -72.7269 -72.4452 -72.4363 -72.4357 -72.4269 -65.1619 -65.1496
   -64.5872 -64.5748 -64.5638 -64.5514 -37.3797 -37.2469 -37.2376 -37.2046
   -37.1612 -37.0849 -37.0447 -37.0363 -36.9544 -36.8201 -36.7710 -36.7322
   -36.6734 -36.6569 -36.6352 -36.6109 -36.5695 -36.5518 -36.5409 -36.4713
   -36.4558 -36.4237 -36.4154 -36.4093 -36.3700 -36.3695 -36.3441 -36.3068
   -36.2934 -36.2866 -36.2734 -36.2573 -36.2154 -36.1926 -36.1797 -36.1467
    -4.1808  -3.0650  -2.7883  -2.4952  -2.3297  -2.2492  -2.1811  -2.1167
    -2.0519  -1.7699  -1.5235  -1.2855  -1.0465  -1.0270  -0.7771  -0.7240
    -0.6798  -0.6438  -0.4241  -0.1860  -0.0908  -0.0086   0.1781   0.2638
     0.2822   0.3162   0.4705   0.8249   0.8538   1.0773   1.1319   1.2144
     1.2942   1.3667   1.4268   1.5548   1.7182   1.7372   1.8315   1.9709
     2.0408   2.3594   2.4699   2.5478   2.5631   2.6467   2.9594   3.0859
     3.2018   3.2490   3.5074   3.6383   3.7648   3.8415   3.8699   4.0030

          k = 0.0614-0.1196 0.0000 ( 31624 PWs)   bands (ev):

   -72.7363 -72.7275 -72.4447 -72.4362 -72.4358 -72.4274 -65.1614 -65.1502
   -64.5867 -64.5754 -64.5632 -64.5520 -37.3541 -37.2266 -37.1956 -37.1929
   -37.1590 -37.0896 -37.0413 -37.0315 -37.0298 -36.8575 -36.7511 -36.7345
   -36.6567 -36.6246 -36.5967 -36.5934 -36.5455 -36.5375 -36.5298 -36.4690
   -36.4557 -36.4536 -36.4440 -36.4266 -36.3901 -36.3762 -36.3685 -36.3217
   -36.3149 -36.3004 -36.2703 -36.2599 -36.2064 -36.1938 -36.1790 -36.1544
    -3.8544  -3.0306  -2.9231  -2.3674  -2.1060  -2.0961  -2.0041  -1.9325
    -1.8910  -1.6316  -1.5213  -1.2895  -1.1133  -0.8195  -0.7999  -0.7656
    -0.7005  -0.6993  -0.4592  -0.4239  -0.2884   0.0393   0.0978   0.1112
     0.3059   0.3700   0.5418   0.6975   0.8341   0.8522   0.9189   1.0828
     1.1799   1.2251   1.2972   1.4798   1.5604   1.6487   1.7599   1.8460
     1.8765   2.3542   2.3577   2.5658   2.6712   2.7948   2.9290   2.9533
     3.2988   3.3585   3.4327   3.5587   3.6740   3.8397   3.9648   4.0123

          k = 0.0614-0.1033 0.0000 ( 31637 PWs)   bands (ev):

   -72.7355 -72.7284 -72.4439 -72.4370 -72.4350 -72.4282 -65.1604 -65.1512
   -64.5857 -64.5763 -64.5623 -64.5530 -37.3283 -37.2209 -37.2089 -37.1755
   -37.1659 -37.1435 -37.0748 -37.0455 -37.0175 -36.8325 -36.7516 -36.7167
   -36.6455 -36.6419 -36.6113 -36.5771 -36.5480 -36.5321 -36.5314 -36.5293
   -36.4914 -36.4751 -36.4490 -36.4209 -36.4150 -36.3752 -36.3582 -36.2805
   -36.2777 -36.2652 -36.2468 -36.2423 -36.2010 -36.1891 -36.1813 -36.1597
    -3.5090  -3.2012  -3.0215  -2.3289  -1.9834  -1.8534  -1.8407  -1.8195
    -1.7504  -1.6745  -1.4943  -1.4053  -1.2595  -0.9887  -0.9024  -0.7895
    -0.6884  -0.6253  -0.4872  -0.4302  -0.3246  -0.2419  -0.1152   0.0745
     0.1120   0.2546   0.4696   0.5009   0.5992   0.6616   0.7657   0.8322
     0.9772   1.1567   1.1914   1.4305   1.5789   1.8132   1.8885   1.9335
     2.0425   2.1101   2.5055   2.7779   2.9114   2.9981   3.0460   3.3936
     3.4133   3.4405   3.4680   3.6952   3.6956   3.7975   4.0493   4.1281

          k = 0.0614-0.0870 0.0000 ( 31682 PWs)   bands (ev):

   -72.7344 -72.7295 -72.4429 -72.4380 -72.4340 -72.4292 -65.1590 -65.1524
   -64.5844 -64.5776 -64.5609 -64.5542 -37.3059 -37.2574 -37.2256 -37.2093
   -37.2086 -37.1825 -37.0492 -37.0459 -37.0060 -36.7962 -36.7669 -36.7042
   -36.6968 -36.6385 -36.6187 -36.6010 -36.5813 -36.5762 -36.5624 -36.5165
   -36.5135 -36.4825 -36.4529 -36.3949 -36.3883 -36.3698 -36.3399 -36.2802
   -36.2364 -36.2102 -36.1972 -36.1883 -36.1875 -36.1828 -36.1774 -36.1578
    -3.5645  -3.2542  -2.9780  -2.3919  -1.9728  -1.9130  -1.8973  -1.8231
    -1.6134  -1.5578  -1.5387  -1.4441  -1.4214  -1.2510  -1.1218  -0.8197
    -0.7406  -0.5409  -0.4894  -0.4411  -0.4303  -0.2033  -0.1583  -0.0503
    -0.0361   0.0438   0.1068   0.3575   0.3972   0.4635   0.5314   0.8113
     0.9012   0.9162   1.4062   1.5847   1.8099   1.8811   2.0715   2.1610
     2.1742   2.3371   2.7091   2.9041   3.0094   3.2336   3.3436   3.4382
     3.4446   3.5011   3.5300   3.9250   4.0833   4.1073   4.1195   4.2897

          k = 0.0614-0.0707 0.0000 ( 31610 PWs)   bands (ev):

   -72.7331 -72.7308 -72.4417 -72.4392 -72.4329 -72.4304 -65.1574 -65.1538
   -64.5828 -64.5790 -64.5593 -64.5556 -37.3277 -37.3178 -37.2504 -37.2495
   -37.2064 -37.2007 -37.0562 -37.0121 -36.9919 -36.8260 -36.7536 -36.7409
   -36.7341 -36.6718 -36.6297 -36.6096 -36.6000 -36.5745 -36.5593 -36.5080
   -36.4962 -36.4862 -36.4621 -36.4061 -36.3654 -36.3416 -36.3167 -36.2830
   -36.2414 -36.1949 -36.1793 -36.1686 -36.1431 -36.1321 -36.1275 -36.1181
    -3.9460  -3.2807  -2.7433  -2.5183  -2.2028  -2.1003  -2.0337  -1.9727
    -1.9468  -1.5611  -1.5011  -1.4260  -1.3823  -1.2949  -1.2057  -0.8948
    -0.7232  -0.6338  -0.5564  -0.4649  -0.4387  -0.4382  -0.3471  -0.2109
    -0.0094   0.0729   0.1094   0.3338   0.3657   0.4472   0.5405   0.7211
     0.7731   1.0868   1.5773   1.7099   1.7993   2.0804   2.3281   2.4572
     2.4973   2.5992   2.8796   3.0479   3.1795   3.2490   3.3081   3.4097
     3.4364   3.5371   3.6781   3.9964   4.1579   4.2623   4.2764   4.3909

          k = 0.0614-0.0544 0.0000 ( 31604 PWs)   bands (ev):

[...]
     1.3843   1.4294   1.4310   1.6737   1.7769   1.8880   1.9941   2.0770
     2.2132   2.5120   2.5267   2.5296   2.6565   2.7979   3.0893   3.0974
     3.4001   3.5025   3.6087   3.6328   3.8895   3.9146   4.2555   4.2985

          k = 0.0768 0.0379 0.0000 ( 31642 PWs)   bands (ev):

   -72.7369 -72.7269 -72.4452 -72.4363 -72.4357 -72.4269 -65.1619 -65.1496
   -64.5872 -64.5748 -64.5638 -64.5514 -37.3797 -37.2469 -37.2376 -37.2046
   -37.1612 -37.0849 -37.0447 -37.0363 -36.9544 -36.8201 -36.7710 -36.7322
   -36.6734 -36.6569 -36.6352 -36.6109 -36.5695 -36.5518 -36.5409 -36.4713
   -36.4558 -36.4237 -36.4155 -36.4093 -36.3700 -36.3695 -36.3441 -36.3068
   -36.2934 -36.2866 -36.2734 -36.2573 -36.2154 -36.1926 -36.1797 -36.1467
    -4.1808  -3.0650  -2.7883  -2.4952  -2.3297  -2.2492  -2.1811  -2.1167
    -2.0519  -1.7699  -1.5235  -1.2855  -1.0465  -1.0270  -0.7771  -0.7240
    -0.6798  -0.6438  -0.4241  -0.1860  -0.0908  -0.0086   0.1781   0.2638
     0.2822   0.3162   0.4705   0.8249   0.8538   1.0773   1.1319   1.2144
     1.2942   1.3667   1.4268   1.5548   1.7182   1.7372   1.8315   1.9709
     2.0408   2.3594   2.4699   2.5478   2.5631   2.6467   2.9594   3.0859
     3.2018   3.2490   3.5074   3.6383   3.7648   3.8415   3.8699   4.0032

          k = 0.0768 0.0542 0.0000 ( 31634 PWs)   bands (ev):

   -72.7370 -72.7268 -72.4454 -72.4365 -72.4355 -72.4267 -65.1622 -65.1494
   -64.5875 -64.5746 -64.5641 -64.5512 -37.3564 -37.2312 -37.2074 -37.1529
   -37.1417 -37.0749 -37.0436 -37.0332 -36.9837 -36.8202 -36.8081 -36.7866
   -36.6040 -36.5989 -36.5953 -36.5809 -36.5500 -36.5408 -36.5275 -36.4612
   -36.4534 -36.4335 -36.4236 -36.3988 -36.3884 -36.3679 -36.3505 -36.3382
   -36.3266 -36.3246 -36.3136 -36.2659 -36.2584 -36.2314 -36.2223 -36.1474
    -3.9598  -3.1631  -2.6202  -2.3771  -2.2479  -2.1162  -2.1003  -2.0463
    -1.8972  -1.5987  -1.3873  -1.2414  -0.9577  -0.9413  -0.8586  -0.6979
    -0.6901  -0.5862  -0.2896  -0.2609   0.0118   0.1113   0.1519   0.3076
     0.3780   0.4152   0.4938   0.6699   0.8975   1.0282   1.0839   1.1714
     1.1916   1.3645   1.4271   1.5049   1.5653   1.6040   1.6292   1.7407
     2.2016   2.2084   2.3537   2.5379   2.5626   2.5848   2.7099   2.8960
     3.0718   3.1056   3.3929   3.5245   3.5462   3.6012   3.6734   3.8908

          k = 0.0768-0.1251 0.0000 ( 31639 PWs)   bands (ev):

   -72.7368 -72.7270 -72.4452 -72.4363 -72.4357 -72.4269 -65.1621 -65.1496
   -64.5874 -64.5748 -64.5639 -64.5514 -37.3396 -37.2248 -37.1631 -37.1473
   -37.1178 -37.0763 -37.0452 -37.0435 -37.0247 -36.8554 -36.8045 -36.7880
   -36.5872 -36.5506 -36.5463 -36.5413 -36.5344 -36.5283 -36.5257 -36.4726
   -36.4637 -36.4595 -36.4362 -36.4248 -36.4069 -36.3909 -36.3638 -36.3532
   -36.3437 -36.3428 -36.2946 -36.2684 -36.2633 -36.2380 -36.2342 -36.1504
    -3.7013  -3.2471  -2.6525  -2.2924  -2.1285  -2.0208  -1.9847  -1.9356
    -1.7733  -1.4618  -1.3761  -1.1836  -1.0371  -0.8302  -0.8034  -0.7894
    -0.7340  -0.5660  -0.4297  -0.2449  -0.2333   0.0458   0.1554   0.3458
     0.5024   0.5500   0.6033   0.6788   0.7971   0.8942   1.0016   1.0960
     1.1908   1.2074   1.2827   1.3792   1.4476   1.4816   1.6034   1.6844
     2.0208   2.2526   2.3635   2.4576   2.6241   2.7205   2.8211   2.8461
     2.9375   3.1413   3.1767   3.4332   3.5034   3.6383   3.7115   3.8319

          k = 0.0768-0.1088 0.0000 ( 31608 PWs)   bands (ev):

   -72.7363 -72.7275 -72.4447 -72.4362 -72.4358 -72.4274 -65.1614 -65.1502
   -64.5867 -64.5754 -64.5633 -64.5520 -37.3285 -37.2201 -37.1578 -37.1343
   -37.1196 -37.1151 -37.1121 -37.0463 -37.0194 -36.8278 -36.7949 -36.7671
   -36.5849 -36.5708 -36.5644 -36.5408 -36.5407 -36.5339 -36.5201 -36.5149
   -36.4807 -36.4786 -36.4533 -36.4474 -36.4237 -36.3635 -36.3627 -36.3250
   -36.3112 -36.3026 -36.2691 -36.2510 -36.2500 -36.2330 -36.2242 -36.1555
    -3.4819  -3.2631  -2.8722  -2.2721  -1.9815  -1.9293  -1.9033  -1.8406
    -1.7447  -1.4778  -1.3865  -1.3326  -1.1041  -0.8605  -0.8481  -0.7491
    -0.6948  -0.5433  -0.4841  -0.4642  -0.2611  -0.1203  -0.0626   0.2659
     0.4740   0.5057   0.5127   0.6082   0.6241   0.7397   1.0149   1.0188
     1.0718   1.1266   1.2019   1.3349   1.4202   1.6067   1.6400   1.6907
     1.8648   2.2839   2.3545   2.7099   2.7974   2.8209   2.9374   3.1510
     3.2050   3.2457   3.2668   3.4237   3.6564   3.7595   3.7798   3.8110

          k = 0.0768-0.0925 0.0000 ( 31637 PWs)   bands (ev):

   -72.7355 -72.7284 -72.4439 -72.4370 -72.4350 -72.4282 -65.1604 -65.1512
   -64.5857 -64.5763 -64.5623 -64.5530 -37.3283 -37.2209 -37.2089 -37.1755
   -37.1659 -37.1435 -37.0748 -37.0455 -37.0175 -36.8325 -36.7516 -36.7167
   -36.6455 -36.6419 -36.6113 -36.5771 -36.5480 -36.5321 -36.5314 -36.5293
   -36.4914 -36.4751 -36.4490 -36.4209 -36.4150 -36.3752 -36.3582 -36.2805
   -36.2777 -36.2652 -36.2468 -36.2423 -36.2010 -36.1891 -36.1813 -36.1597
    -3.5090  -3.2012  -3.0215  -2.3289  -1.9834  -1.8534  -1.8407  -1.8195
    -1.7504  -1.6745  -1.4943  -1.4053  -1.2595  -0.9887  -0.9024  -0.7895
    -0.6884  -0.6253  -0.4872  -0.4302  -0.3246  -0.2419  -0.1152   0.0745
     0.1120   0.2546   0.4696   0.5009   0.5992   0.6616   0.7657   0.8322
     0.9772   1.1567   1.1914   1.4305   1.5789   1.8132   1.8885   1.9335
     2.0425   2.1101   2.5055   2.7779   2.9114   2.9981   3.0460   3.3936
     3.4134   3.4405   3.4680   3.6952   3.6956   3.7975   4.0493   4.1281

          k = 0.0768-0.0762 0.0000 ( 31641 PWs)   bands (ev):

   -72.7344 -72.7295 -72.4429 -72.4380 -72.4340 -72.4292 -65.1589 -65.1524
   -64.5843 -64.5776 -64.5609 -64.5542 -37.3476 -37.2949 -37.2150 -37.2008
   -37.1821 -37.1690 -37.0462 -37.0425 -37.0191 -36.8653 -36.7246 -36.6969
   -36.6967 -36.6730 -36.6412 -36.6363 -36.5399 -36.5312 -36.5257 -36.5199
   -36.4903 -36.4827 -36.4535 -36.4021 -36.3939 -36.3890 -36.3446 -36.2845
   -36.2740 -36.2541 -36.2356 -36.1779 -36.1671 -36.1336 -36.1314 -36.1190
    -3.6008  -3.5636  -2.7165  -2.4399  -2.1634  -1.9851  -1.8863  -1.8746
    -1.7776  -1.7586  -1.6452  -1.4211  -1.3945  -1.1053  -1.0333  -0.8756
    -0.7650  -0.6568  -0.6267  -0.3584  -0.3034  -0.2267  -0.1863  -0.0702
     0.0077   0.0718   0.3775   0.4450   0.5117   0.6107   0.7244   0.8471
     0.8640   0.9778   1.3263   1.6496   1.7150   2.0073   2.0595   2.2081
     2.2585   2.2749   2.6442   2.8769   3.0090   3.0767   3.1492   3.4268
     3.5050   3.5141   3.5610   3.6114   3.8059   4.0533   4.2362   4.3398

          k = 0.0768-0.0599 0.0000 ( 31619 PWs)   bands (ev):

   -72.7332 -72.7307 -72.4417 -72.4392 -72.4329 -72.4304 -65.1573 -65.1538
   -64.5827 -64.5790 -64.5593 -64.5557 -37.3768 -37.3637 -37.2151 -37.2044
   -37.1945 -37.1932 -37.0527 -37.0260 -37.0110 -36.8997 -36.7659 -36.7344
   -36.7210 -36.6866 -36.6428 -36.5950 -36.5520 -36.5389 -36.5060 -36.5036
   -36.4886 -36.4806 -36.4591 -36.4102 -36.3872 -36.3654 -36.3297 -36.2927
   -36.2787 -36.2629 -36.2135 -36.1873 -36.1025 -36.0831 -36.0800 -36.0702
    -3.8997  -3.6747  -2.5660  -2.4459  -2.3773  -2.1192  -2.1069  -2.0578
    -1.9564  -1.8071  -1.6306  -1.5858  -1.3755  -1.1597  -1.0433  -0.9345
    -0.8412  -0.7981  -0.6070  -0.4565  -0.3525  -0.3207  -0.2019  -0.1193
    -0.0782   0.1651   0.3758   0.5169   0.5439   0.6963   0.7395   0.8239
     0.8588   0.9327   1.4497   1.6920   1.8955   2.0225   2.2585   2.4197
     2.5513   2.6125   2.8050   2.9645   3.0097   3.2061   3.2566   3.2833
     3.3824   3.4888   3.6491   3.7518   3.8324   4.1363   4.1926   4.2622

          k = 0.0768-0.0436 0.0000 ( 31649 PWs)   bands (ev):

   -72.7321 -72.7319 -72.4405 -72.4405 -72.4317 -72.4316 -65.1556 -65.1554
   -64.5810 -64.5807 -64.5575 -64.5573 -37.4139 -37.3966 -37.2277 -37.2171
   -37.2050 -37.1813 -37.0638 -37.0285 -36.9852 -36.9271 -36.7876 -36.7584
   -36.7489 -36.7059 -36.6218 -36.5640 -36.5612 -36.5501 -36.5051 -36.4864
   -36.4763 -36.4666 -36.4608 -36.4293 -36.3709 -36.3479 -36.3172 -36.3016
   -36.2897 -36.2695 -36.2001 -36.1950 -36.0581 -36.0554 -36.0423 -36.0392
    -4.1702  -3.6985  -2.6549  -2.5657  -2.3020  -2.2907  -2.2656  -2.2095
    -2.0891  -1.9218  -1.7885  -1.5598  -1.2869  -1.1695  -1.0410  -0.9607
    -0.8740  -0.8591  -0.5922  -0.5696  -0.5273  -0.4275  -0.1571  -0.1234
     0.0066   0.2102   0.4226   0.6046   0.7325   0.8163   0.8466   0.8597
     0.9122   0.9945   1.5374   1.6528   2.0217   2.1372   2.3368   2.4561
     2.8680   2.8714   2.9305   2.9647   3.0221   3.1637   3.2292   3.2643
     3.4480   3.5550   3.6464   3.7942   3.9156   3.9363   3.9528   4.0520

          k =-0.0922 0.0327 0.0000 ( 31662 PWs)   bands (ev):

   -72.7320 -72.7320 -72.4405 -72.4405 -72.4317 -72.4317 -65.1555 -65.1555
   -64.5808 -64.5808 -64.5574 -64.5574 -37.4151 -37.4151 -37.2137 -37.2137
   -37.1777 -37.1777 -37.0503 -37.0503 -36.9764 -36.9764 -36.7761 -36.7761
   -36.7309 -36.7309 -36.5744 -36.5744 -36.5238 -36.5238 -36.5103 -36.5103
   -36.4507 -36.4507 -36.4422 -36.4422 -36.3831 -36.3831 -36.3243 -36.3243
   -36.2979 -36.2979 -36.2051 -36.2051 -36.0458 -36.0458 -36.0298 -36.0298
    -3.9703  -3.9703  -2.6273  -2.6273  -2.2535  -2.2535  -2.2278  -2.2278
    -2.0174  -2.0174  -1.7431  -1.7431  -1.1776  -1.1776  -1.0364  -1.0364
    -0.8911  -0.8911  -0.5824  -0.5824  -0.3695  -0.3695  -0.2809  -0.2809
     0.3580   0.3580   0.6204   0.6204   0.7709   0.7709   0.9184   0.9184
     1.1652   1.1652   1.2641   1.2641   2.1289   2.1289   2.2731   2.2731
     2.7114   2.7114   2.9354   2.9354   3.1259   3.1259   3.1763   3.1763
     3.5088   3.5088   3.6610   3.6610   3.8147   3.8147   3.9180   3.9180

          k =-0.0922 0.0490 0.0000 ( 31655 PWs)   bands (ev):

   -72.7333 -72.7306 -72.4418 -72.4392 -72.4329 -72.4304 -65.1572 -65.1539
   -64.5825 -64.5791 -64.5591 -64.5557 -37.4196 -37.3889 -37.2209 -37.2075
   -37.1913 -37.1559 -37.0522 -37.0437 -36.9922 -36.9536 -36.7810 -36.7596
   -36.7277 -36.7147 -36.5894 -36.5816 -36.5288 -36.5254 -36.5203 -36.4949
   -36.4597 -36.4475 -36.4442 -36.4280 -36.3999 -36.3721 -36.3333 -36.3195
   -36.3045 -36.2892 -36.2256 -36.1878 -36.0675 -36.0512 -36.0453 -36.0379
    -4.0507  -3.8026  -2.6309  -2.5531  -2.3638  -2.2409  -2.1721  -2.1310
    -2.0260  -1.9966  -1.8954  -1.5268  -1.2667  -1.0668  -1.0115  -1.0106
    -0.9307  -0.8337  -0.6592  -0.5178  -0.4634  -0.2768  -0.2223  -0.2181
     0.3275   0.3739   0.5673   0.6187   0.7655   0.7948   0.8331   1.0364
     1.1044   1.2311   1.2398   1.3150   2.0533   2.0920   2.2091   2.3096
     2.6063   2.6835   2.7737   2.8639   2.9782   3.1208   3.2455   3.3297
     3.4107   3.5191   3.5272   3.6334   3.7771   3.8820   4.0748   4.1882

          k =-0.0922 0.0653 0.0000 ( 31637 PWs)   bands (ev):

   -72.7345 -72.7294 -72.4429 -72.4380 -72.4341 -72.4292 -65.1588 -65.1524
   -64.5841 -64.5776 -64.5607 -64.5542 -37.4052 -37.3413 -37.2253 -37.2121
   -37.1848 -37.1319 -37.0476 -37.0378 -37.0048 -36.9225 -36.7663 -36.7339
   -36.7007 -36.6859 -36.6250 -36.6126 -36.5370 -36.5295 -36.5254 -36.4770
   -36.4670 -36.4450 -36.4419 -36.4173 -36.4105 -36.3724 -36.3446 -36.3159
   -36.3068 -36.2830 -36.2480 -36.1738 -36.1142 -36.0832 -36.0826 -36.0684
    -4.0487  -3.5541  -2.5830  -2.5455  -2.4198  -2.1802  -2.0497  -2.0319
    -2.0187  -1.9327  -1.9183  -1.3371  -1.3064  -0.9628  -0.9607  -0.9419
    -0.8441  -0.7887  -0.6930  -0.6339  -0.3464  -0.2066  -0.1059  -0.0728
     0.2695   0.4205   0.4504   0.5877   0.7815   0.7995   0.8215   1.0622
     1.1846   1.2373   1.2561   1.3760   1.8771   1.9919   2.1940   2.2286
     2.3270   2.5209   2.5588   2.8117   2.8345   2.9533   3.2145   3.3384
     3.3899   3.5173   3.5540   3.5997   3.7465   4.0728   4.1326   4.2869

          k =-0.0922 0.0816 0.0000 ( 31634 PWs)   bands (ev):

   -72.7355 -72.7283 -72.4439 -72.4370 -72.4351 -72.4282 -65.1602 -65.1511
   -64.5856 -64.5764 -64.5621 -64.5530 -37.3793 -37.2752 -37.2266 -37.2108
   -37.1718 -37.1088 -37.0391 -37.0372 -37.0175 -36.8873 -36.7324 -36.6903
   -36.6735 -36.6697 -36.6512 -36.6454 -36.5427 -36.5338 -36.5286 -36.4692
   -36.4591 -36.4461 -36.4453 -36.4272 -36.3928 -36.3806 -36.3564 -36.3124
   -36.3071 -36.2877 -36.2650 -36.1818 -36.1635 -36.1373 -36.1359 -36.1177
    -3.9773  -3.2468  -2.7951  -2.4700  -2.2549  -2.0781  -2.0713  -1.9620
    -1.9390  -1.8378  -1.7325  -1.3246  -1.1931  -0.8811  -0.8793  -0.7624
    -0.7475  -0.7353  -0.6929  -0.6287  -0.2667  -0.0785   0.0173   0.0633
     0.2557   0.2603   0.5576   0.6024   0.7390   0.8385   0.8454   1.0971
     1.1886   1.2132   1.3736   1.3913   1.7216   1.8247   2.0007   2.0206
     2.1543   2.2834   2.4520   2.7187   2.7563   2.8897   2.9903   3.1217
     3.4176   3.4830   3.6620   3.6700   3.7490   3.7935   4.2681   4.2787

          k =-0.0922 0.0979 0.0000 ( 31624 PWs)   bands (ev):

   -72.7363 -72.7275 -72.4447 -72.4362 -72.4358 -72.4274 -65.1614 -65.1502
   -64.5867 -64.5754 -64.5632 -64.5520 -37.3541 -37.2266 -37.1956 -37.1929
   -37.1590 -37.0896 -37.0413 -37.0315 -37.0298 -36.8575 -36.7511 -36.7345
   -36.6567 -36.6246 -36.5967 -36.5934 -36.5455 -36.5375 -36.5298 -36.4690
   -36.4557 -36.4536 -36.4440 -36.4266 -36.3901 -36.3762 -36.3685 -36.3217
   -36.3149 -36.3004 -36.2703 -36.2599 -36.2064 -36.1938 -36.1790 -36.1544
    -3.8544  -3.0306  -2.9231  -2.3674  -2.1060  -2.0961  -2.0041  -1.9325
    -1.8910  -1.6316  -1.5213  -1.2895  -1.1133  -0.8195  -0.7999  -0.7656
    -0.7005  -0.6993  -0.4592  -0.4239  -0.2884   0.0393   0.0978   0.1112
     0.3059   0.3700   0.5418   0.6975   0.8341   0.8522   0.9189   1.0828
     1.1799   1.2251   1.2972   1.4798   1.5604   1.6487   1.7599   1.8460
     1.8765   2.3542   2.3577   2.5658   2.6712   2.7948   2.9290   2.9533
     3.2988   3.3585   3.4327   3.5587   3.6740   3.8396   3.9648   4.0123

          k =-0.0922 0.1142 0.0000 ( 31639 PWs)   bands (ev):

   -72.7368 -72.7270 -72.4452 -72.4363 -72.4357 -72.4269 -65.1621 -65.1496
   -64.5874 -64.5748 -64.5639 -64.5514 -37.3396 -37.2248 -37.1631 -37.1473
   -37.1178 -37.0763 -37.0452 -37.0435 -37.0247 -36.8554 -36.8045 -36.7880
   -36.5872 -36.5506 -36.5463 -36.5413 -36.5344 -36.5283 -36.5257 -36.4726
   -36.4637 -36.4595 -36.4362 -36.4248 -36.4069 -36.3909 -36.3638 -36.3532
   -36.3437 -36.3428 -36.2946 -36.2684 -36.2633 -36.2380 -36.2342 -36.1504
    -3.7013  -3.2471  -2.6525  -2.2924  -2.1285  -2.0208  -1.9847  -1.9356
    -1.7733  -1.4618  -1.3761  -1.1836  -1.0371  -0.8302  -0.8034  -0.7894
    -0.7340  -0.5660  -0.4297  -0.2449  -0.2333   0.0458   0.1554   0.3458
     0.5024   0.5500   0.6033   0.6788   0.7971   0.8942   1.0016   1.0960
     1.1908   1.2074   1.2827   1.3792   1.4476   1.4816   1.6034   1.6844
     2.0208   2.2526   2.3635   2.4576   2.6241   2.7205   2.8211   2.8461
     2.9375   3.1413   3.1767   3.4332   3.5034   3.6385   3.7115   3.8318

          k =-0.0922-0.0651 0.0000 ( 31586 PWs)   bands (ev):

   -72.7370 -72.7268 -72.4453 -72.4365 -72.4355 -72.4267 -65.1623 -65.1494
   -64.5876 -64.5746 -64.5642 -64.5512 -37.3354 -37.2241 -37.1522 -37.1351
   -37.0844 -37.0648 -37.0509 -37.0450 -37.0228 -36.8798 -36.8283 -36.7966
   -36.5474 -36.5454 -36.5424 -36.5217 -36.4942 -36.4842 -36.4808 -36.4794
   -36.4720 -36.4629 -36.4393 -36.4297 -36.4249 -36.4238 -36.4058 -36.3738
   -36.3540 -36.3505 -36.2916 -36.2911 -36.2604 -36.2586 -36.2556 -36.1490
    -3.5887  -3.3798  -2.5380  -2.2654  -2.1370  -2.0309  -1.9502  -1.9454
    -1.7205  -1.3950  -1.3337  -1.0466  -0.9512  -0.9333  -0.9171  -0.7375
    -0.7213  -0.5902  -0.4369  -0.1969  -0.1419   0.0225   0.2674   0.4267
     0.5784   0.6817   0.6829   0.6910   0.8029   0.9414   0.9638   0.9756
     1.1690   1.2165   1.2750   1.2867   1.3868   1.4678   1.4901   1.9519
     2.0361   2.2321   2.2642   2.4597   2.5161   2.6781   2.7022   2.7349
     2.9264   2.9530   3.0695   3.2717   3.4831   3.6896   3.7126   3.8083

     the Fermi energy is     2.4277 ev

!    total energy              =   -2042.71869822 Ry
     estimated scf accuracy    <       0.00000483 Ry
     smearing contrib. (-TS)   =      -0.05693869 Ry
     internal energy E=F+TS    =   -2042.66175954 Ry

     The total energy is F=E-TS. E is the sum of the following terms:
     one-electron contribution =  -16505.15344001 Ry
     hartree contribution      =    8242.90948782 Ry
     xc contribution           =    -484.72497333 Ry
     ewald contribution        =    6704.30716089 Ry
     electric field correction =       0.00000509 Ry

     convergence has been achieved in  16 iterations

     negative rho (up, down):  6.524E-03 0.000E+00

     Forces acting on atoms (cartesian axes, Ry/au):

     atom    1 type  1   force =    -0.00017121   -0.00012223    0.03710421
     atom    2 type  1   force =    -0.00017457   -0.00012401    0.03710094
     atom    3 type  2   force =    -0.00038451   -0.00026378    0.00325276
     atom    4 type  2   force =    -0.00037989   -0.00027337    0.00324053
     atom    5 type  1   force =    -0.00009222   -0.00005838   -0.01543262
     atom    6 type  1   force =    -0.00008842   -0.00006906   -0.01543058
     atom    7 type  2   force =     0.00008353    0.00006323   -0.02350701
     atom    8 type  2   force =     0.00007490    0.00004909   -0.02350625
     atom    9 type  1   force =     0.00029552    0.00020757   -0.00033315
     atom   10 type  1   force =     0.00029741    0.00021314   -0.00033175
     atom   11 type  2   force =     0.00026983    0.00018188   -0.00107627
     atom   12 type  2   force =     0.00026963    0.00019594   -0.00108082

     Total force =     0.066025     Total SCF correction =     0.004232

     Writing output data file ./Tc2W2/Tc2W2_beef.save/

     init_run     :    129.46s CPU    130.14s WALL (       1 calls)
     electrons    :   3829.39s CPU   3872.03s WALL (       1 calls)
     forces       :     62.53s CPU     62.88s WALL (       1 calls)

     Called by init_run:
     wfcinit      :    117.96s CPU    118.39s WALL (       1 calls)
     potinit      :      7.78s CPU      7.88s WALL (       1 calls)
     hinit0       :      2.16s CPU      2.17s WALL (       1 calls)

     Called by electrons:
     c_bands      :   3431.66s CPU   3464.89s WALL (      16 calls)
     sum_band     :    365.83s CPU    371.57s WALL (      16 calls)
     v_of_rho     :     22.32s CPU     23.46s WALL (      17 calls)
     newd         :     16.33s CPU     18.09s WALL (      17 calls)
     mix_rho      :      0.57s CPU      0.61s WALL (      16 calls)
     vdW_kernel   :      5.81s CPU      5.82s WALL (       1 calls)

     Called by c_bands:
     init_us_2    :      8.84s CPU      8.95s WALL (    2516 calls)
     cegterg      :   3369.21s CPU   3398.83s WALL (    1184 calls)

     Called by *egterg:
     cdiaghg      :    220.69s CPU    221.67s WALL (    6149 calls)
     h_psi        :   1462.53s CPU   1481.15s WALL (    6223 calls)
     s_psi        :    413.97s CPU    415.01s WALL (    6223 calls)
     g_psi        :      1.24s CPU      1.26s WALL (    4965 calls)

     Called by h_psi:
     h_psi:calbec :    548.96s CPU    552.32s WALL (    6223 calls)
     vloc_psi     :    487.15s CPU    501.25s WALL (    6223 calls)
     add_vuspsi   :    421.62s CPU    422.72s WALL (    6223 calls)

     General routines
     calbec       :    824.06s CPU    829.09s WALL (    7703 calls)
     fft          :     15.87s CPU     16.46s WALL (    1130 calls)
     ffts         :      0.07s CPU      0.07s WALL (      33 calls)
     fftw         :    574.71s CPU    590.29s WALL (  733200 calls)
     interpolate  :      0.21s CPU      0.22s WALL (      17 calls)

     Parallel routines
     fft_scatt_xy :     42.22s CPU     42.96s WALL (  734363 calls)
     fft_scatt_yz :    144.25s CPU    152.30s WALL (  734363 calls)

     PWSCF        :      1h 7m CPU      1h 8m WALL


   This run was terminated on:  23:23:34  24Jun2022            

=------------------------------------------------------------------------------=
   JOB DONE.
=------------------------------------------------------------------------------=
