
     Program PWSCF v.6.6 starts on 25Jun2022 at  3: 6: 9 

     This program is part of the open-source Quantum ESPRESSO suite
     for quantum simulation of materials; please cite
         "P. Giannozzi et al., J. Phys.:Condens. Matter 21 395502 (2009);
         "P. Giannozzi et al., J. Phys.:Condens. Matter 29 465901 (2017);
          URL http://www.quantum-espresso.org", 
     in publications or presentations arising from this work. More details at
     http://www.quantum-espresso.org/quote

     Parallel version (MPI), running on    37 processors

     MPI processes distributed on     1 nodes
     R & G space division:  proc/nbgrp/npool/nimage =      37
     Fft bands division:     nmany     =       1
     Reading input from Ti2Au2.in
Warning: card &CELL ignored
Warning: card / ignored

     Current dimensions of program PWSCF are:
     Max number of different atomic species (ntypx) = 10
     Max number of k-points (npk) =  40000
     Max angular momentum in pseudopotentials (lmaxx) =  3
     Presently stress not available with electric field and gates

     Message from routine cell_base_init:
     DEPRECATED: use true lattice parameter, not A to a.u. conversion factor
     file Ti.pbe-spn-rrkjus_psl.1.0.0.UPF: wavefunction(s)  3S 3D renormalized

     **************************************************************************
     Initializing libbeef V0.1.2 with the BEEF-vdW functional.
     Citation: Wellendorff et al., PRB 85, 235149 (2012).
     **************************************************************************


     IMPORTANT: XC functional enforced from input :
     Exchange-correlation= BEEF-VDW
                           (   1   4  43  14   2   0   0)
     Any further DFT definition will be discarded
     Please, verify this is what you really want


     Subspace diagonalization in iterative solution of the eigenvalue problem:
     a serial algorithm will be used


     Parallelization info
     --------------------
     sticks:   dense  smooth     PW     G-vecs:    dense   smooth      PW
     Min         123      49     13                28715     7259    1091
     Max         124      50     14                28728     7270    1122
     Sum        4575    1827    517              1062695   268831   41171



     bravais-lattice index     =            0
     lattice parameter (alat)  =       1.8897  a.u.
     unit-cell volume          =    4861.1795 (a.u.)^3
     number of atoms/cell      =           12
     number of atomic types    =            2
     number of electrons       =       138.00
     number of Kohn-Sham states=           83
     kinetic-energy cutoff     =      55.1240  Ry
     charge density cutoff     =     551.2396  Ry
     convergence threshold     =      1.0E-05
     mixing beta               =       0.1000
     number of iterations used =           10  plain     mixing
     Exchange-correlation= BEEF-VDW
                           (   1   4  43  14   2   0   0)

     celldm(1)=   1.889726  celldm(2)=   0.000000  celldm(3)=   0.000000
     celldm(4)=   0.000000  celldm(5)=   0.000000  celldm(6)=   0.000000

     crystal axes: (cart. coord. in units of alat)
               a(1) = (   5.767951   0.000000   0.000000 )  
               a(2) = (   2.787921   5.049431   0.000000 )  
               a(3) = (   0.000000   0.000000  24.733247 )  

     reciprocal axes: (cart. coord. in units 2 pi/alat)
               b(1) = (  0.173372 -0.095723  0.000000 )  
               b(2) = (  0.000000  0.198042  0.000000 )  
               b(3) = (  0.000000  0.000000  0.040431 )  


     PseudoPot. # 1 for Ti read from file:
     ../pseudo/Ti.pbe-spn-rrkjus_psl.1.0.0.UPF
     MD5 check sum: e281089c08e14b8efcf92e44a67ada65
     Pseudo is Ultrasoft + core correction, Zval = 12.0
     Generated using "atomic" code by A. Dal Corso v.6.2.2
     Using radial grid of 1177 points,  6 beta functions with: 
                l(1) =   0
                l(2) =   0
                l(3) =   1
                l(4) =   1
                l(5) =   2
                l(6) =   2
     Q(r) pseudized with 0 coefficients 


     PseudoPot. # 2 for Au read from file:
     ../pseudo/Au.pbe-n-rrkjus_psl.1.0.0.UPF
     MD5 check sum: d7e77ba19504afed2c9b41c931dde4f0
     Pseudo is Ultrasoft + core correction, Zval = 11.0
     Generated using "atomic" code by A. Dal Corso v.6.3
     Using radial grid of 1279 points,  6 beta functions with: 
                l(1) =   0
                l(2) =   0
                l(3) =   1
                l(4) =   1
                l(5) =   2
                l(6) =   2
     Q(r) pseudized with 0 coefficients 


     atomic species   valence    mass     pseudopotential
        Ti            12.00    47.86700     Ti( 1.00)
        Au            11.00   196.96657     Au( 1.00)

     No symmetry found



   Cartesian axes

     site n.     atom                  positions (alat units)
         1           Ti  tau(   1) = (   0.0000000   0.0000000  10.0000000  )
         2           Ti  tau(   2) = (   4.2779360   2.5247154  10.0000000  )
         3           Au  tau(   3) = (   2.8839754   0.0000000  10.0000000  )
         4           Au  tau(   4) = (   1.3939606   2.5247154  10.0000000  )
         5           Ti  tau(   5) = (   5.7679508   3.4040795  12.3666235  )
         6           Ti  tau(   6) = (   1.4900148   0.8793641  12.3666235  )
         7           Au  tau(   7) = (   2.8839754   3.4040795  12.3666235  )
         8           Au  tau(   8) = (   4.3739902   0.8793641  12.3666235  )
         9           Ti  tau(   9) = (   2.9751833   1.7558732  14.6116619  )
        10           Ti  tau(  10) = (   7.2531351   4.2805828  14.6116553  )
        11           Au  tau(  11) = (   5.9077104   1.7844842  14.7640396  )
        12           Au  tau(  12) = (   4.4176516   4.3092321  14.7640356  )

     number of k points=    74  Fermi-Dirac smearing, width (Ry)=  0.0100
                       cart. coord. in units 2pi/alat
        k(    1) = (   0.0000000   0.0000000   0.0000000), wk =   0.0138889
        k(    2) = (   0.0000000   0.0165035   0.0000000), wk =   0.0277778
        k(    3) = (   0.0000000   0.0330070   0.0000000), wk =   0.0277778
        k(    4) = (   0.0000000   0.0495105   0.0000000), wk =   0.0277778
        k(    5) = (   0.0000000   0.0660140   0.0000000), wk =   0.0277778
        k(    6) = (   0.0000000   0.0825175   0.0000000), wk =   0.0277778
        k(    7) = (   0.0000000  -0.0990211   0.0000000), wk =   0.0138889
        k(    8) = (   0.0144476  -0.0079769   0.0000000), wk =   0.0277778
        k(    9) = (   0.0144476   0.0085266   0.0000000), wk =   0.0277778
        k(   10) = (   0.0144476   0.0250301   0.0000000), wk =   0.0277778
        k(   11) = (   0.0144476   0.0415336   0.0000000), wk =   0.0277778
        k(   12) = (   0.0144476   0.0580371   0.0000000), wk =   0.0277778
        k(   13) = (   0.0144476   0.0745406   0.0000000), wk =   0.0277778
        k(   14) = (   0.0144476  -0.1069980   0.0000000), wk =   0.0277778
        k(   15) = (   0.0144476  -0.0904945   0.0000000), wk =   0.0277778
        k(   16) = (   0.0144476  -0.0739910   0.0000000), wk =   0.0277778
        k(   17) = (   0.0144476  -0.0574874   0.0000000), wk =   0.0277778
        k(   18) = (   0.0144476  -0.0409839   0.0000000), wk =   0.0277778
        k(   19) = (   0.0144476  -0.0244804   0.0000000), wk =   0.0277778
        k(   20) = (   0.0288953  -0.0159538   0.0000000), wk =   0.0277778
        k(   21) = (   0.0288953   0.0005497   0.0000000), wk =   0.0277778
        k(   22) = (   0.0288953   0.0170532   0.0000000), wk =   0.0277778
        k(   23) = (   0.0288953   0.0335567   0.0000000), wk =   0.0277778
        k(   24) = (   0.0288953   0.0500602   0.0000000), wk =   0.0277778
        k(   25) = (   0.0288953   0.0665637   0.0000000), wk =   0.0277778
        k(   26) = (   0.0288953  -0.1149749   0.0000000), wk =   0.0277778
        k(   27) = (   0.0288953  -0.0984714   0.0000000), wk =   0.0277778
        k(   28) = (   0.0288953  -0.0819679   0.0000000), wk =   0.0277778
        k(   29) = (   0.0288953  -0.0654644   0.0000000), wk =   0.0277778
        k(   30) = (   0.0288953  -0.0489609   0.0000000), wk =   0.0277778
        k(   31) = (   0.0288953  -0.0324573   0.0000000), wk =   0.0277778
        k(   32) = (   0.0433429  -0.0239308   0.0000000), wk =   0.0277778
        k(   33) = (   0.0433429  -0.0074272   0.0000000), wk =   0.0277778
        k(   34) = (   0.0433429   0.0090763   0.0000000), wk =   0.0277778
        k(   35) = (   0.0433429   0.0255798   0.0000000), wk =   0.0277778
        k(   36) = (   0.0433429   0.0420833   0.0000000), wk =   0.0277778
        k(   37) = (   0.0433429   0.0585868   0.0000000), wk =   0.0277778
        k(   38) = (   0.0433429  -0.1229518   0.0000000), wk =   0.0277778
        k(   39) = (   0.0433429  -0.1064483   0.0000000), wk =   0.0277778
        k(   40) = (   0.0433429  -0.0899448   0.0000000), wk =   0.0277778
        k(   41) = (   0.0433429  -0.0734413   0.0000000), wk =   0.0277778
        k(   42) = (   0.0433429  -0.0569378   0.0000000), wk =   0.0277778
        k(   43) = (   0.0433429  -0.0404343   0.0000000), wk =   0.0277778
        k(   44) = (   0.0577906  -0.0319077   0.0000000), wk =   0.0277778
        k(   45) = (   0.0577906  -0.0154042   0.0000000), wk =   0.0277778
        k(   46) = (   0.0577906   0.0010993   0.0000000), wk =   0.0277778
        k(   47) = (   0.0577906   0.0176029   0.0000000), wk =   0.0277778
        k(   48) = (   0.0577906   0.0341064   0.0000000), wk =   0.0277778
        k(   49) = (   0.0577906   0.0506099   0.0000000), wk =   0.0277778
        k(   50) = (   0.0577906  -0.1309287   0.0000000), wk =   0.0277778
        k(   51) = (   0.0577906  -0.1144252   0.0000000), wk =   0.0277778
        k(   52) = (   0.0577906  -0.0979217   0.0000000), wk =   0.0277778
        k(   53) = (   0.0577906  -0.0814182   0.0000000), wk =   0.0277778
        k(   54) = (   0.0577906  -0.0649147   0.0000000), wk =   0.0277778
        k(   55) = (   0.0577906  -0.0484112   0.0000000), wk =   0.0277778
        k(   56) = (   0.0722382  -0.0398846   0.0000000), wk =   0.0277778
        k(   57) = (   0.0722382  -0.0233811   0.0000000), wk =   0.0277778
        k(   58) = (   0.0722382  -0.0068776   0.0000000), wk =   0.0277778
        k(   59) = (   0.0722382   0.0096259   0.0000000), wk =   0.0277778
        k(   60) = (   0.0722382   0.0261294   0.0000000), wk =   0.0277778
        k(   61) = (   0.0722382   0.0426330   0.0000000), wk =   0.0277778
        k(   62) = (   0.0722382  -0.1389057   0.0000000), wk =   0.0277778
        k(   63) = (   0.0722382  -0.1224021   0.0000000), wk =   0.0277778
        k(   64) = (   0.0722382  -0.1058986   0.0000000), wk =   0.0277778
        k(   65) = (   0.0722382  -0.0893951   0.0000000), wk =   0.0277778
        k(   66) = (   0.0722382  -0.0728916   0.0000000), wk =   0.0277778
        k(   67) = (   0.0722382  -0.0563881   0.0000000), wk =   0.0277778
        k(   68) = (  -0.0866859   0.0478615   0.0000000), wk =   0.0138889
        k(   69) = (  -0.0866859   0.0643650   0.0000000), wk =   0.0277778
        k(   70) = (  -0.0866859   0.0808685   0.0000000), wk =   0.0277778
        k(   71) = (  -0.0866859   0.0973720   0.0000000), wk =   0.0277778
        k(   72) = (  -0.0866859   0.1138756   0.0000000), wk =   0.0277778
        k(   73) = (  -0.0866859   0.1303791   0.0000000), wk =   0.0277778
        k(   74) = (  -0.0866859  -0.0511595   0.0000000), wk =   0.0138889

     Dense  grid:  1062695 G-vectors     FFT dimensions: (  81,  81, 360)

     Smooth grid:   268831 G-vectors     FFT dimensions: (  54,  54, 225)

     Estimated max dynamical RAM per process >     200.69 MB

     Estimated total dynamical RAM >       7.25 GB

     Initial potential from superposition of free atoms

     starting charge  137.99047, renormalised to  138.00000

     negative rho (up, down):  1.242E-03 0.000E+00


     %%%%%%%%%%%%%%%%%%%%%%%%%%%%%%%%%%%%%%%%%%%%%%%%%%%%%%%%%%%%%%%%%%%%%%%%
     %                                                                      %
     % You are using vdW-DF, which was implemented by the Thonhauser group. %
     % Please cite the following two papers that made this development      %
     % possible and the two reviews that describe the various versions:     %
     %                                                                      %
     %   T. Thonhauser et al., PRL 115, 136402 (2015).                      %
     %   T. Thonhauser et al., PRB 76, 125112 (2007).                       %
     %   K. Berland et al., Rep. Prog. Phys. 78, 066501 (2015).             %
     %   D.C. Langreth et al., J. Phys.: Condens. Matter 21, 084203 (2009). %
     %                                                                      %
     %                                                                      %
     % If you are calculating the stress with vdW-DF, please also cite:     %
     %                                                                      %
     %   R. Sabatini et al., J. Phys.: Condens. Matter 24, 424209 (2012).   %
     %                                                                      %
     %%%%%%%%%%%%%%%%%%%%%%%%%%%%%%%%%%%%%%%%%%%%%%%%%%%%%%%%%%%%%%%%%%%%%%%%



     Adding external electric field

     Computed dipole along edir(3) : 
        Dipole               -0.0004 Ry au,         -0.0010 Debye
        Dipole field         -0.0000 Ry au, 

        Potential amp.        0.0001 Ry
        Total length         45.5706 bohr

     Starting wfcs are  114 randomized atomic wfcs

     total cpu time spent up to now is       94.3 secs

     Self-consistent Calculation

     iteration #  1     ecut=    55.12 Ry     beta= 0.10
     Davidson diagonalization with overlap
     ethr =  1.00E-02,  avg # of iterations =  2.0

     negative rho (up, down):  1.115E-03 0.000E+00

     Adding external electric field

     Computed dipole along edir(3) : 
        Dipole               -0.2362 Ry au,         -0.6003 Debye
        Dipole field         -0.0006 Ry au, 

        Potential amp.        0.0556 Ry
        Total length         45.5706 bohr


     total cpu time spent up to now is      266.8 secs

     total energy              =   -1241.07523560 Ry
     estimated scf accuracy    <       4.45022112 Ry

     iteration #  2     ecut=    55.12 Ry     beta= 0.10
     Davidson diagonalization with overlap
     ethr =  3.22E-03,  avg # of iterations =  2.7

     negative rho (up, down):  1.132E-03 0.000E+00

     Adding external electric field

     Computed dipole along edir(3) : 
        Dipole                0.5269 Ry au,          1.3394 Debye
        Dipole field          0.0014 Ry au, 

        Potential amp.       -0.1241 Ry
        Total length         45.5706 bohr


     total cpu time spent up to now is      427.7 secs

     total energy              =   -1241.08275316 Ry
     estimated scf accuracy    <       7.37090444 Ry

     iteration #  3     ecut=    55.12 Ry     beta= 0.10
     Davidson diagonalization with overlap
     ethr =  3.22E-03,  avg # of iterations =  2.6

     negative rho (up, down):  1.183E-03 0.000E+00

     Adding external electric field

     Computed dipole along edir(3) : 
        Dipole               -0.0592 Ry au,         -0.1504 Debye
        Dipole field         -0.0002 Ry au, 

        Potential amp.        0.0139 Ry
        Total length         45.5706 bohr


     total cpu time spent up to now is      582.0 secs

     total energy              =   -1241.10745955 Ry
     estimated scf accuracy    <      20.23530405 Ry

     iteration #  4     ecut=    55.12 Ry     beta= 0.10
     Davidson diagonalization with overlap
     ethr =  3.22E-03,  avg # of iterations =  1.2

     negative rho (up, down):  1.116E-03 0.000E+00

     Adding external electric field

     Computed dipole along edir(3) : 
        Dipole               -0.0116 Ry au,         -0.0295 Debye
        Dipole field         -0.0000 Ry au, 

        Potential amp.        0.0027 Ry
        Total length         45.5706 bohr


     total cpu time spent up to now is      721.1 secs

     total energy              =   -1241.40687136 Ry
     estimated scf accuracy    <       0.83632287 Ry

     iteration #  5     ecut=    55.12 Ry     beta= 0.10
     Davidson diagonalization with overlap
     ethr =  6.06E-04,  avg # of iterations =  6.1

     negative rho (up, down):  1.082E-03 0.000E+00

     Adding external electric field

     Computed dipole along edir(3) : 
        Dipole               -0.0432 Ry au,         -0.1099 Debye
        Dipole field         -0.0001 Ry au, 

        Potential amp.        0.0102 Ry
        Total length         45.5706 bohr


     total cpu time spent up to now is      906.6 secs

     total energy              =   -1241.43631337 Ry
     estimated scf accuracy    <       0.21037286 Ry

     iteration #  6     ecut=    55.12 Ry     beta= 0.10
     Davidson diagonalization with overlap
     ethr =  1.52E-04,  avg # of iterations =  5.4

     negative rho (up, down):  1.668E-03 0.000E+00

     Adding external electric field

     Computed dipole along edir(3) : 
        Dipole               -0.0533 Ry au,         -0.1354 Debye
        Dipole field         -0.0001 Ry au, 

        Potential amp.        0.0126 Ry
        Total length         45.5706 bohr


     total cpu time spent up to now is     1083.4 secs

     total energy              =   -1241.43541285 Ry
     estimated scf accuracy    <       0.11103086 Ry

     iteration #  7     ecut=    55.12 Ry     beta= 0.10
     Davidson diagonalization with overlap
     ethr =  8.05E-05,  avg # of iterations =  6.1

     negative rho (up, down):  1.513E-03 0.000E+00

     Adding external electric field

     Computed dipole along edir(3) : 
        Dipole               -0.0437 Ry au,         -0.1111 Debye
        Dipole field         -0.0001 Ry au, 

        Potential amp.        0.0103 Ry
        Total length         45.5706 bohr


     total cpu time spent up to now is     1336.1 secs

     total energy              =   -1241.42582868 Ry
     estimated scf accuracy    <       0.14624901 Ry

     iteration #  8     ecut=    55.12 Ry     beta= 0.10
     Davidson diagonalization with overlap
     c_bands:  1 eigenvalues not converged
     ethr =  8.05E-05,  avg # of iterations =  8.6

     negative rho (up, down):  1.497E-03 0.000E+00

     Adding external electric field

     Computed dipole along edir(3) : 
        Dipole               -0.0312 Ry au,         -0.0793 Debye
        Dipole field         -0.0001 Ry au, 

        Potential amp.        0.0074 Ry
        Total length         45.5706 bohr


     total cpu time spent up to now is     1538.9 secs

     total energy              =   -1241.45206814 Ry
     estimated scf accuracy    <       0.01844487 Ry

     iteration #  9     ecut=    55.12 Ry     beta= 0.10
     Davidson diagonalization with overlap
     c_bands:  2 eigenvalues not converged
     c_bands:  1 eigenvalues not converged
     c_bands:  3 eigenvalues not converged
     c_bands:  3 eigenvalues not converged
     c_bands:  2 eigenvalues not converged
     c_bands:  1 eigenvalues not converged
     c_bands:  1 eigenvalues not converged
     c_bands:  2 eigenvalues not converged
     c_bands:  2 eigenvalues not converged
     c_bands:  2 eigenvalues not converged
     c_bands:  1 eigenvalues not converged
     c_bands:  1 eigenvalues not converged
     c_bands:  4 eigenvalues not converged
     c_bands:  2 eigenvalues not converged
     c_bands:  1 eigenvalues not converged
     ethr =  1.34E-05,  avg # of iterations = 12.6

     negative rho (up, down):  2.068E-03 0.000E+00

     Adding external electric field

     Computed dipole along edir(3) : 
        Dipole               -0.0403 Ry au,         -0.1023 Debye
        Dipole field         -0.0001 Ry au, 

        Potential amp.        0.0095 Ry
        Total length         45.5706 bohr


     total cpu time spent up to now is     1784.0 secs

     total energy              =   -1241.45493895 Ry
     estimated scf accuracy    <       0.01138872 Ry

     iteration # 10     ecut=    55.12 Ry     beta= 0.10
     Davidson diagonalization with overlap
     c_bands:  2 eigenvalues not converged
     c_bands:  1 eigenvalues not converged
     c_bands:  2 eigenvalues not converged
     c_bands:  2 eigenvalues not converged
     c_bands:  2 eigenvalues not converged
     ethr =  8.25E-06,  avg # of iterations =  6.4

     negative rho (up, down):  2.633E-03 0.000E+00

     Adding external electric field

     Computed dipole along edir(3) : 
        Dipole               -0.0449 Ry au,         -0.1141 Debye
        Dipole field         -0.0001 Ry au, 

        Potential amp.        0.0106 Ry
        Total length         45.5706 bohr


     total cpu time spent up to now is     1976.0 secs

     total energy              =   -1241.45626651 Ry
     estimated scf accuracy    <       0.00603727 Ry

     iteration # 11     ecut=    55.12 Ry     beta= 0.10
     Davidson diagonalization with overlap
     c_bands:  1 eigenvalues not converged
     c_bands:  1 eigenvalues not converged
     c_bands:  1 eigenvalues not converged
     c_bands:  3 eigenvalues not converged
     ethr =  4.37E-06,  avg # of iterations =  4.5

     negative rho (up, down):  2.466E-03 0.000E+00

     Adding external electric field

     Computed dipole along edir(3) : 
        Dipole               -0.0396 Ry au,         -0.1006 Debye
        Dipole field         -0.0001 Ry au, 

        Potential amp.        0.0093 Ry
        Total length         45.5706 bohr


     total cpu time spent up to now is     2163.5 secs

     total energy              =   -1241.45662669 Ry
     estimated scf accuracy    <       0.00368313 Ry

     iteration # 12     ecut=    55.12 Ry     beta= 0.10
     Davidson diagonalization with overlap
     c_bands:  1 eigenvalues not converged
     c_bands:  1 eigenvalues not converged
     c_bands:  1 eigenvalues not converged
     c_bands:  1 eigenvalues not converged
     c_bands:  1 eigenvalues not converged
     c_bands:  1 eigenvalues not converged
     c_bands:  1 eigenvalues not converged
     ethr =  2.67E-06,  avg # of iterations =  7.4

     negative rho (up, down):  2.308E-03 0.000E+00

     Adding external electric field

     Computed dipole along edir(3) : 
        Dipole               -0.0377 Ry au,         -0.0957 Debye
        Dipole field         -0.0001 Ry au, 

        Potential amp.        0.0089 Ry
        Total length         45.5706 bohr


     total cpu time spent up to now is     2348.4 secs

     total energy              =   -1241.45664822 Ry
     estimated scf accuracy    <       0.00147737 Ry

     iteration # 13     ecut=    55.12 Ry     beta= 0.10
     Davidson diagonalization with overlap
     c_bands:  1 eigenvalues not converged
     ethr =  1.07E-06,  avg # of iterations =  3.7

     negative rho (up, down):  2.384E-03 0.000E+00

     Adding external electric field

     Computed dipole along edir(3) : 
        Dipole               -0.0356 Ry au,         -0.0905 Debye
        Dipole field         -0.0001 Ry au, 

        Potential amp.        0.0084 Ry
        Total length         45.5706 bohr


     total cpu time spent up to now is     2506.9 secs

     total energy              =   -1241.45656010 Ry
     estimated scf accuracy    <       0.00058224 Ry

     iteration # 14     ecut=    55.12 Ry     beta= 0.10
     Davidson diagonalization with overlap
     c_bands:  1 eigenvalues not converged
     ethr =  4.22E-07,  avg # of iterations =  7.8

     negative rho (up, down):  2.223E-03 0.000E+00

     Adding external electric field

     Computed dipole along edir(3) : 
        Dipole               -0.0367 Ry au,         -0.0932 Debye
        Dipole field         -0.0001 Ry au, 

        Potential amp.        0.0086 Ry
        Total length         45.5706 bohr


     total cpu time spent up to now is     2751.3 secs

     total energy              =   -1241.45672145 Ry
     estimated scf accuracy    <       0.00018247 Ry

     iteration # 15     ecut=    55.12 Ry     beta= 0.10
     Davidson diagonalization with overlap
     c_bands:  1 eigenvalues not converged
     ethr =  1.32E-07,  avg # of iterations =  5.3

     negative rho (up, down):  2.060E-03 0.000E+00

     Adding external electric field

     Computed dipole along edir(3) : 
        Dipole               -0.0383 Ry au,         -0.0975 Debye
        Dipole field         -0.0001 Ry au, 

        Potential amp.        0.0090 Ry
        Total length         45.5706 bohr


     total cpu time spent up to now is     2922.4 secs

     total energy              =   -1241.45669120 Ry
     estimated scf accuracy    <       0.00015664 Ry

     iteration # 16     ecut=    55.12 Ry     beta= 0.10
     Davidson diagonalization with overlap
     ethr =  1.14E-07,  avg # of iterations =  2.4

     negative rho (up, down):  1.948E-03 0.000E+00

     Adding external electric field

     Computed dipole along edir(3) : 
        Dipole               -0.0370 Ry au,         -0.0941 Debye
        Dipole field         -0.0001 Ry au, 

        Potential amp.        0.0087 Ry
        Total length         45.5706 bohr


     total cpu time spent up to now is     3108.2 secs

     total energy              =   -1241.45669018 Ry
     estimated scf accuracy    <       0.00008680 Ry

     iteration # 17     ecut=    55.12 Ry     beta= 0.10
     Davidson diagonalization with overlap
     c_bands:  1 eigenvalues not converged
     ethr =  6.29E-08,  avg # of iterations =  5.4

     negative rho (up, down):  1.816E-03 0.000E+00

     Adding external electric field

     Computed dipole along edir(3) : 
        Dipole               -0.0372 Ry au,         -0.0945 Debye
        Dipole field         -0.0001 Ry au, 

        Potential amp.        0.0088 Ry
        Total length         45.5706 bohr


     total cpu time spent up to now is     3281.4 secs

     total energy              =   -1241.45669334 Ry
     estimated scf accuracy    <       0.00001993 Ry

     iteration # 18     ecut=    55.12 Ry     beta= 0.10
     Davidson diagonalization with overlap
     c_bands:  1 eigenvalues not converged
     c_bands:  1 eigenvalues not converged
     c_bands:  1 eigenvalues not converged
     c_bands:  1 eigenvalues not converged
     ethr =  1.44E-08,  avg # of iterations =  9.5

     negative rho (up, down):  1.042E-03 0.000E+00

     Adding external electric field

     Computed dipole along edir(3) : 
        Dipole               -0.0314 Ry au,         -0.0799 Debye
        Dipole field         -0.0001 Ry au, 

        Potential amp.        0.0074 Ry
        Total length         45.5706 bohr


     total cpu time spent up to now is     3503.0 secs

     End of self-consistent calculation

          k = 0.0000 0.0000 0.0000 ( 33557 PWs)   bands (ev):

   -56.4585 -56.4235 -56.3979 -56.3626 -56.2694 -56.2339 -32.8076 -32.7740
   -32.7447 -32.7145 -32.7103 -32.6814 -32.6693 -32.6571 -32.6423 -32.6358
   -32.6235 -32.6071 -32.5972 -32.3584 -32.3269 -32.3218 -32.2958 -32.2902
    -6.8043  -5.5222  -5.3140  -5.1851  -4.9722  -4.9395  -4.8168  -4.7297
    -4.7171  -4.5664  -4.4830  -4.4146  -4.3788  -4.1848  -3.9945  -3.7996
    -3.6336  -3.5686  -3.3624  -3.3440  -3.2884  -3.2514  -3.2312  -3.1627
    -3.1593  -2.9869  -2.9551  -2.8428  -2.7986  -2.4562  -2.2994  -1.7258
    -1.4567  -0.1177   0.1620   0.2175   0.2949   0.3457   0.4099   0.5909
     0.6954   0.8953   0.9161   1.1007   1.1734   1.2177   1.2261   1.5384
     1.6336   1.9357   1.9969   2.0238   2.0297   2.0981   2.1611   2.5264
     2.6501   2.7228   2.8103

          k = 0.0000 0.0165 0.0000 ( 33526 PWs)   bands (ev):

   -56.4579 -56.4241 -56.3973 -56.3632 -56.2688 -56.2345 -32.8071 -32.7746
   -32.7442 -32.7140 -32.7109 -32.6821 -32.6641 -32.6566 -32.6371 -32.6352
   -32.6241 -32.6019 -32.5979 -32.3638 -32.3325 -32.3213 -32.3012 -32.2908
    -6.7531  -5.4708  -5.2678  -5.1609  -4.9479  -4.9095  -4.7972  -4.7407
    -4.7030  -4.5334  -4.4596  -4.4051  -4.3533  -4.1819  -3.9774  -3.7866
    -3.6365  -3.5509  -3.3678  -3.3611  -3.2791  -3.2700  -3.2234  -3.1836
    -3.1586  -2.9921  -2.9671  -2.8686  -2.8229  -2.4928  -2.3229  -1.7671
    -1.4487  -0.5811  -0.1415   0.1177   0.1719   0.4588   0.6061   0.6216
     0.6795   0.9099   1.0582   1.0993   1.1236   1.2581   1.2965   1.5430
     1.6288   1.7934   1.9120   1.9540   1.9908   2.1031   2.2356   2.5142
     2.6479   2.7272   2.8167

          k = 0.0000 0.0330 0.0000 ( 33548 PWs)   bands (ev):

   -56.4561 -56.4259 -56.3955 -56.3650 -56.2671 -56.2363 -32.8055 -32.7764
   -32.7426 -32.7128 -32.7126 -32.6840 -32.6552 -32.6490 -32.6335 -32.6262
   -32.6216 -32.6000 -32.5867 -32.3798 -32.3486 -32.3199 -32.3171 -32.2924
    -6.6019  -5.3200  -5.1337  -5.0909  -4.8826  -4.8220  -4.7604  -4.7383
    -4.6604  -4.4493  -4.3934  -4.3760  -4.2806  -4.1735  -3.9278  -3.7499
    -3.6509  -3.5001  -3.4086  -3.3917  -3.3062  -3.2849  -3.2362  -3.1933
    -3.1474  -3.0080  -2.9990  -2.9434  -2.8937  -2.5931  -2.3912  -1.9100
    -1.4262  -1.2610  -0.7777  -0.1864   0.0256   0.5434   0.5548   0.6544
     0.9422   0.9538   1.0498   1.0712   1.0763   1.2957   1.3486   1.5618
     1.5809   1.6689   1.7723   1.8690   1.9927   1.9965   2.2520   2.4886
     2.5996   2.6539   2.6975

          k = 0.0000 0.0495 0.0000 ( 33581 PWs)   bands (ev):

   -56.4533 -56.4286 -56.3927 -56.3678 -56.2642 -56.2391 -32.8030 -32.7792
   -32.7400 -32.7156 -32.7105 -32.6870 -32.6528 -32.6306 -32.6291 -32.6249
   -32.6034 -32.5971 -32.5625 -32.4050 -32.3743 -32.3425 -32.3174 -32.2951
    -6.3594  -5.0841  -4.9868  -4.9298  -4.8477  -4.7208  -4.6986  -4.6234
    -4.5833  -4.3589  -4.3271  -4.2797  -4.1711  -4.1542  -3.8519  -3.6968
    -3.6968  -3.4844  -3.4492  -3.4198  -3.3993  -3.3028  -3.2024  -3.1807
    -3.1372  -3.0568  -3.0471  -3.0261  -3.0028  -2.7334  -2.4976  -2.2265
    -1.9105  -1.4496  -1.3924  -0.5866  -0.0741   0.3778   0.6120   0.7366
     0.8956   0.9229   1.0199   1.0719   1.0936   1.2748   1.3622   1.3647
     1.5378   1.6469   1.8199   1.8860   1.9298   1.9567   2.1121   2.3538
     2.3832   2.6115   2.6482

          k = 0.0000 0.0660 0.0000 ( 33601 PWs)   bands (ev):

   -56.4497 -56.4323 -56.3891 -56.3714 -56.2605 -56.2428 -32.7996 -32.7828
   -32.7365 -32.7193 -32.7074 -32.6909 -32.6496 -32.6328 -32.6269 -32.6076
   -32.5933 -32.5651 -32.5308 -32.4378 -32.4075 -32.3753 -32.3142 -32.2985
    -6.0438  -4.9583  -4.8162  -4.8146  -4.6904  -4.5854  -4.5830  -4.4817
    -4.3799  -4.3294  -4.2515  -4.1478  -4.0784  -4.0399  -3.7899  -3.7666
    -3.6383  -3.5911  -3.5338  -3.4785  -3.3158  -3.2943  -3.2222  -3.1887
    -3.1777  -3.1364  -3.0907  -3.0896  -3.0513  -2.8809  -2.7452  -2.6314
    -2.4321  -2.0951  -1.3502  -0.9004  -0.1458   0.1849   0.5256   0.6821
     0.7953   0.8812   1.0204   1.1020   1.1299   1.1765   1.3926   1.4848
     1.5323   1.5560   1.7467   1.8269   1.9414   1.9445   2.0173   2.1456
     2.2755   2.5354   2.5990

          k = 0.0000 0.0825 0.0000 ( 33612 PWs)   bands (ev):

   -56.4455 -56.4365 -56.3848 -56.3757 -56.2563 -56.2471 -32.7957 -32.7869
   -32.7325 -32.7236 -32.7037 -32.6951 -32.6458 -32.6371 -32.6224 -32.6124
   -32.5562 -32.5275 -32.4937 -32.4757 -32.4459 -32.4132 -32.3105 -32.3024
    -5.6899  -5.1043  -4.6842  -4.6493  -4.4844  -4.4453  -4.4220  -4.3405
    -4.3293  -4.2100  -4.0880  -4.0043  -3.9614  -3.9161  -3.8218  -3.7323
    -3.7277  -3.5859  -3.5793  -3.5034  -3.3704  -3.3110  -3.2801  -3.2706
    -3.2368  -3.1911  -3.1654  -3.0734  -3.0677  -3.0522  -2.9791  -2.9206
    -2.7786  -2.6457  -1.2993  -1.1038  -0.1525   0.0249   0.3838   0.4598
     0.8255   0.9361   0.9398   1.0380   1.1760   1.3427   1.3994   1.4404
     1.5499   1.6628   1.7470   1.7947   1.8624   1.9030   1.9574   2.0340
     2.1585   2.2782   2.5664

          k = 0.0000-0.0990 0.0000 ( 33628 PWs)   bands (ev):

   -56.4412 -56.4408 -56.3804 -56.3801 -56.2517 -56.2516 -32.7915 -32.7912
   -32.7281 -32.7280 -32.6996 -32.6995 -32.6415 -32.6415 -32.6175 -32.6174
   -32.5164 -32.5159 -32.4870 -32.4868 -32.4536 -32.4536 -32.3065 -32.3064
    -5.3560  -5.3560  -4.6062  -4.6062  -4.4034  -4.4034  -4.3600  -4.3600
    -4.1317  -4.1317  -4.0533  -4.0533  -3.8900  -3.8900  -3.7349  -3.7349
    -3.5717  -3.5716  -3.5464  -3.5464  -3.4088  -3.4087  -3.3691  -3.3690
    -3.2654  -3.2653  -3.2222  -3.2222  -3.0651  -3.0651  -2.9793  -2.9792
    -2.8926  -2.8926  -1.2263  -1.2262  -0.0871  -0.0871   0.3430   0.3430
     0.8707   0.8707   0.9866   0.9867   1.2664   1.2664   1.4421   1.4421
     1.6694   1.6695   1.7928   1.7929   1.8188   1.8188   2.0207   2.0208
     2.0667   2.0668   2.6215

          k = 0.0144-0.0080 0.0000 ( 33526 PWs)   bands (ev):

   -56.4579 -56.4241 -56.3973 -56.3632 -56.2688 -56.2345 -32.8071 -32.7746
   -32.7442 -32.7140 -32.7109 -32.6821 -32.6641 -32.6566 -32.6371 -32.6352
   -32.6241 -32.6019 -32.5979 -32.3638 -32.3325 -32.3213 -32.3012 -32.2908
    -6.7531  -5.4708  -5.2678  -5.1609  -4.9479  -4.9095  -4.7972  -4.7407
    -4.7030  -4.5334  -4.4596  -4.4051  -4.3533  -4.1819  -3.9774  -3.7866
    -3.6365  -3.5509  -3.3678  -3.3611  -3.2791  -3.2700  -3.2234  -3.1836
    -3.1586  -2.9921  -2.9671  -2.8686  -2.8229  -2.4928  -2.3229  -1.7671
    -1.4487  -0.5811  -0.1415   0.1177   0.1719   0.4588   0.6061   0.6216
     0.6795   0.9099   1.0582   1.0993   1.1236   1.2581   1.2965   1.5430
     1.6288   1.7934   1.9119   1.9540   1.9909   2.1031   2.2357   2.5142
     2.6484   2.7272   2.7927

          k = 0.0144 0.0085 0.0000 ( 33563 PWs)   bands (ev):

   -56.4585 -56.4235 -56.3979 -56.3626 -56.2694 -56.2339 -32.8077 -32.7740
   -32.7449 -32.7149 -32.7103 -32.6814 -32.6695 -32.6574 -32.6424 -32.6357
   -32.6235 -32.6071 -32.5975 -32.3584 -32.3270 -32.3219 -32.2958 -32.2903
    -6.7607  -5.4968  -5.3012  -5.1666  -4.9531  -4.9224  -4.8013  -4.7181
    -4.7014  -4.5438  -4.4704  -4.3971  -4.3516  -4.1764  -3.9992  -3.7696
    -3.6396  -3.5636  -3.3883  -3.3832  -3.2343  -3.2298  -3.2226  -3.1611
    -3.1532  -2.9942  -2.9562  -2.8324  -2.7891  -2.4598  -2.2977  -1.7273
    -1.4668  -0.1186  -0.0560   0.1765   0.1844   0.3201   0.4405   0.5635
     0.6677   0.8704   0.8736   1.0297   1.0620   1.1852   1.2678   1.5040
     1.6557   1.7533   1.8539   1.9834   1.9875   2.1265   2.1383   2.5413
     2.6917   2.6974   2.8274

          k = 0.0144 0.0250 0.0000 ( 33560 PWs)   bands (ev):

   -56.4578 -56.4241 -56.3973 -56.3632 -56.2688 -56.2345 -32.8073 -32.7746
   -32.7444 -32.7149 -32.7110 -32.6820 -32.6645 -32.6572 -32.6374 -32.6350
   -32.6242 -32.6020 -32.5985 -32.3639 -32.3325 -32.3214 -32.3013 -32.2909
    -6.6673  -5.4226  -5.2435  -5.1258  -4.9130  -4.8774  -4.7667  -4.7185
    -4.6716  -4.4905  -4.4348  -4.3724  -4.3002  -4.1655  -3.9865  -3.7299
    -3.6472  -3.5411  -3.4160  -3.4066  -3.2512  -3.2155  -3.1901  -3.1724
    -3.1483  -3.0060  -2.9659  -2.8495  -2.8055  -2.4991  -2.3206  -1.7705
    -1.4708  -0.6479  -0.2255  -0.1879   0.0938   0.4198   0.4899   0.5724
     0.6193   0.8568   0.9705   0.9842   0.9902   1.1611   1.2568   1.4920
     1.5454   1.6377   1.7313   1.9475   1.9733   2.0709   2.1323   2.5408
     2.6457   2.6941   2.7772

          k = 0.0144 0.0415 0.0000 ( 33571 PWs)   bands (ev):

   -56.4561 -56.4259 -56.3955 -56.3650 -56.2670 -56.2362 -32.8058 -32.7764
   -32.7429 -32.7138 -32.7127 -32.6838 -32.6559 -32.6495 -32.6331 -32.6262
   -32.6219 -32.6009 -32.5868 -32.3798 -32.3487 -32.3201 -32.3172 -32.2926
    -6.4774  -5.2549  -5.1006  -5.0441  -4.8502  -4.7760  -4.7224  -4.7005
    -4.6128  -4.3928  -4.3574  -4.3356  -4.2095  -4.1519  -3.9406  -3.6758
    -3.6639  -3.4859  -3.4675  -3.4329  -3.2951  -3.2634  -3.1947  -3.1594
    -3.1261  -3.0251  -2.9866  -2.9208  -2.8737  -2.6000  -2.3915  -1.9197
    -1.4641  -1.3677  -0.8046  -0.3591  -0.2739   0.3593   0.4017   0.6282
     0.7674   0.8465   0.9229   0.9772   1.0113   1.1015   1.2503   1.2561
     1.5960   1.6288   1.7342   1.9257   1.9449   2.0007   2.0398   2.4612
     2.4943   2.5969   2.7149

          k = 0.0144 0.0580 0.0000 ( 33598 PWs)   bands (ev):

   -56.4533 -56.4286 -56.3927 -56.3678 -56.2642 -56.2391 -32.8033 -32.7792
   -32.7403 -32.7156 -32.7118 -32.6867 -32.6536 -32.6302 -32.6290 -32.6254
   -32.6044 -32.5976 -32.5627 -32.4051 -32.3743 -32.3426 -32.3176 -32.2952
    -6.2021  -5.0127  -4.9429  -4.8938  -4.8465  -4.6510  -4.6171  -4.6082
    -4.5210  -4.3167  -4.2746  -4.2422  -4.1248  -4.0996  -3.8674  -3.7111
    -3.6200  -3.5398  -3.4700  -3.4196  -3.3973  -3.2952  -3.1978  -3.1492
    -3.1119  -3.0499  -3.0357  -3.0019  -2.9859  -2.7391  -2.5031  -2.2721
    -2.0057  -1.4762  -1.4517  -0.6607  -0.4251   0.2381   0.2583   0.6427
     0.6997   0.8466   0.9388   0.9475   1.0589   1.0607   1.2173   1.2980
     1.5438   1.5859   1.8499   1.8695   1.8831   1.9812   1.9891   2.2257
     2.4076   2.5798   2.6559

          k = 0.0144 0.0745 0.0000 ( 33626 PWs)   bands (ev):

   -56.4497 -56.4323 -56.3890 -56.3714 -56.2605 -56.2427 -32.7999 -32.7827
   -32.7368 -32.7192 -32.7087 -32.6903 -32.6504 -32.6326 -32.6263 -32.6086
   -32.5937 -32.5655 -32.5310 -32.4378 -32.4074 -32.3753 -32.3144 -32.2986
    -5.8646  -4.9933  -4.7684  -4.7665  -4.6512  -4.5195  -4.5149  -4.3892
    -4.3636  -4.3061  -4.2292  -4.1105  -4.0268  -3.9971  -3.8064  -3.7834
    -3.6074  -3.5820  -3.5683  -3.4972  -3.3043  -3.3040  -3.2292  -3.1912
    -3.1582  -3.1436  -3.0831  -3.0556  -3.0065  -2.8870  -2.8204  -2.6436
    -2.4922  -2.1375  -1.4280  -0.9340  -0.4106   0.1281   0.1310   0.4812
     0.7656   0.8554   0.9127   0.9883   1.0114   1.2127   1.2856   1.4220
     1.4228   1.6021   1.8307   1.8428   1.8974   1.9348   1.9352   2.0842
     2.3152   2.5168   2.6027

          k = 0.0144-0.1070 0.0000 ( 33625 PWs)   bands (ev):

   -56.4455 -56.4365 -56.3848 -56.3757 -56.2563 -56.2470 -32.7959 -32.7868
   -32.7327 -32.7234 -32.7048 -32.6944 -32.6464 -32.6367 -32.6217 -32.6134
   -32.5566 -32.5279 -32.4938 -32.4756 -32.4457 -32.4132 -32.3106 -32.3024
    -5.5099  -5.1893  -4.6411  -4.6292  -4.4460  -4.4164  -4.3624  -4.3416
    -4.2656  -4.1875  -4.1111  -3.9745  -3.9352  -3.8963  -3.8223  -3.7323
    -3.7032  -3.6258  -3.5858  -3.4908  -3.3862  -3.3333  -3.2771  -3.2645
    -3.2583  -3.2074  -3.1522  -3.0827  -3.0602  -3.0159  -2.9858  -2.9591
    -2.7992  -2.6937  -1.3688  -1.0937  -0.3487   0.0311   0.1603   0.4314
     0.8007   0.8343   0.9837   0.9932   1.0847   1.2981   1.3583   1.3968
     1.6087   1.6508   1.7862   1.8267   1.8591   1.8777   1.9161   2.0144
     2.1960   2.2850   2.5748

          k = 0.0144-0.0905 0.0000 ( 33607 PWs)   bands (ev):

   -56.4412 -56.4408 -56.3804 -56.3801 -56.2517 -56.2516 -32.7916 -32.7911
   -32.7282 -32.7278 -32.7004 -32.6987 -32.6419 -32.6410 -32.6183 -32.6167
   -32.5165 -32.5157 -32.4872 -32.4866 -32.4537 -32.4535 -32.3066 -32.3064
    -5.4795  -5.2086  -4.6138  -4.5861  -4.4192  -4.3918  -4.3820  -4.3380
    -4.1576  -4.1318  -4.0515  -4.0427  -3.8863  -3.8851  -3.7559  -3.7120
    -3.6081  -3.5809  -3.5309  -3.5146  -3.4287  -3.4073  -3.3771  -3.3731
    -3.2706  -3.2593  -3.2239  -3.2145  -3.0841  -3.0727  -2.9785  -2.9755
    -2.9197  -2.8791  -1.2534  -1.1931  -0.2520   0.0026   0.3659   0.5115
     0.7830   0.9235   0.9696   1.0536   1.2266   1.2492   1.3873   1.5217
     1.6211   1.6903   1.7134   1.8136   1.8818   1.9166   2.0060   2.0270
     2.0661   2.1066   2.6122

          k = 0.0144-0.0740 0.0000 ( 33593 PWs)   bands (ev):

   -56.4455 -56.4364 -56.3848 -56.3756 -56.2563 -56.2471 -32.7954 -32.7870
   -32.7322 -32.7236 -32.7028 -32.6958 -32.6452 -32.6373 -32.6231 -32.6116
   -32.5559 -32.5272 -32.4936 -32.4759 -32.4461 -32.4132 -32.3104 -32.3024
    -5.8229  -5.0110  -4.7181  -4.6529  -4.5306  -4.4812  -4.4781  -4.3741
    -4.3357  -4.2280  -4.0712  -4.0238  -3.9865  -3.9398  -3.8252  -3.7425
    -3.7233  -3.6343  -3.5127  -3.4808  -3.3830  -3.3075  -3.2871  -3.2686
    -3.2098  -3.1929  -3.1764  -3.1173  -3.1023  -3.0469  -2.9704  -2.8700
    -2.7623  -2.6402  -1.2678  -1.0830  -0.0714   0.0575   0.6691   0.6847
     0.7893   0.9329   1.0412   1.1192   1.1443   1.3794   1.4301   1.4567
     1.5436   1.6620   1.7131   1.7249   1.9585   1.9852   2.0214   2.0976
     2.1392   2.2931   2.5736

          k = 0.0144-0.0575 0.0000 ( 33562 PWs)   bands (ev):

   -56.4497 -56.4322 -56.3891 -56.3714 -56.2605 -56.2428 -32.7994 -32.7828
   -32.7363 -32.7193 -32.7065 -32.6913 -32.6490 -32.6329 -32.6273 -32.6069
   -32.5929 -32.5648 -32.5307 -32.4379 -32.4075 -32.3752 -32.3141 -32.2984
    -6.1593  -4.9182  -4.8547  -4.8454  -4.7333  -4.6428  -4.6211  -4.5398
    -4.3867  -4.3480  -4.2662  -4.1720  -4.1104  -4.0702  -3.7849  -3.7544
    -3.6958  -3.5894  -3.4756  -3.4478  -3.3161  -3.2922  -3.2340  -3.2263
    -3.1964  -3.1376  -3.1207  -3.1133  -3.0487  -2.8787  -2.6962  -2.6226
    -2.3781  -2.0917  -1.3290  -0.8531   0.1595   0.1894   0.7757   0.8406
     0.9194   0.9539   1.0385   1.1517   1.2297   1.2370   1.4467   1.4521
     1.5433   1.6289   1.7100   1.8174   1.9064   2.0554   2.1609   2.2416
     2.2527   2.5532   2.6158

          k = 0.0144-0.0410 0.0000 ( 33539 PWs)   bands (ev):

   -56.4534 -56.4286 -56.3928 -56.3678 -56.2642 -56.2391 -32.8028 -32.7792
   -32.7397 -32.7156 -32.7097 -32.6873 -32.6523 -32.6309 -32.6291 -32.6246
   -32.6028 -32.5969 -32.5624 -32.4050 -32.3742 -32.3424 -32.3172 -32.2950
    -6.4423  -5.1283  -5.0112  -4.9540  -4.8273  -4.7793  -4.7405  -4.6371
    -4.6081  -4.3842  -4.3539  -4.3022  -4.2063  -4.1668  -3.8434  -3.7457
    -3.6912  -3.4437  -3.4388  -3.4161  -3.3628  -3.3176  -3.2755  -3.1984
    -3.1372  -3.0677  -3.0553  -3.0188  -3.0150  -2.7310  -2.4944  -2.2066
    -1.8497  -1.4453  -1.3787  -0.5380   0.2436   0.4467   0.6614   0.7633
     1.0138   1.0422   1.0780   1.1656   1.1685   1.4033   1.4229   1.4803
     1.4887   1.6964   1.8072   1.8463   1.8981   2.0518   2.3092   2.3951
     2.4583   2.5954   2.6351

          k = 0.0144-0.0245 0.0000 ( 33553 PWs)   bands (ev):

   -56.4561 -56.4259 -56.3956 -56.3650 -56.2671 -56.2363 -32.8054 -32.7764
   -32.7424 -32.7128 -32.7123 -32.6841 -32.6549 -32.6489 -32.6336 -32.6262
   -32.6215 -32.5997 -32.5866 -32.3797 -32.3486 -32.3198 -32.3171 -32.2924
    -6.6449  -5.3450  -5.1466  -5.1076  -4.8937  -4.8420  -4.7744  -4.7465
    -4.6765  -4.4692  -4.4049  -4.3919  -4.3034  -4.1799  -3.9233  -3.7780
    -3.6460  -3.5051  -3.3569  -3.3490  -3.3438  -3.2953  -3.2900  -3.2030
    -3.1467  -3.0030  -2.9988  -2.9519  -2.9012  -2.5908  -2.3911  -1.9067
    -1.4185  -1.2242  -0.7681  -0.1562   0.2405   0.5219   0.6035   0.6785
     0.9620   1.0082   1.0932   1.1092   1.1549   1.2984   1.5078   1.5721
     1.5907   1.7201   1.8216   1.8577   2.0062   2.0093   2.3981   2.4423
     2.6163   2.6743   2.7244

          k = 0.0289-0.0160 0.0000 ( 33548 PWs)   bands (ev):

   -56.4561 -56.4259 -56.3955 -56.3650 -56.2671 -56.2363 -32.8055 -32.7764
   -32.7426 -32.7128 -32.7126 -32.6840 -32.6552 -32.6490 -32.6335 -32.6262
   -32.6216 -32.6000 -32.5867 -32.3798 -32.3486 -32.3199 -32.3171 -32.2924
    -6.6019  -5.3200  -5.1337  -5.0909  -4.8826  -4.8220  -4.7604  -4.7383
    -4.6604  -4.4493  -4.3934  -4.3760  -4.2806  -4.1735  -3.9278  -3.7499
    -3.6509  -3.5001  -3.4086  -3.3917  -3.3062  -3.2849  -3.2362  -3.1933
    -3.1474  -3.0080  -2.9990  -2.9434  -2.8937  -2.5931  -2.3912  -1.9100
    -1.4262  -1.2610  -0.7777  -0.1864   0.0256   0.5434   0.5548   0.6544
     0.9422   0.9538   1.0498   1.0712   1.0763   1.2957   1.3486   1.5618
     1.5809   1.6689   1.7723   1.8690   1.9927   1.9966   2.2520   2.4887
     2.5998   2.6540   2.6971

          k = 0.0289 0.0005 0.0000 ( 33560 PWs)   bands (ev):

   -56.4578 -56.4241 -56.3973 -56.3632 -56.2688 -56.2345 -32.8073 -32.7746
   -32.7444 -32.7149 -32.7110 -32.6820 -32.6645 -32.6572 -32.6374 -32.6350
   -32.6242 -32.6020 -32.5985 -32.3639 -32.3325 -32.3214 -32.3013 -32.2909
    -6.6673  -5.4226  -5.2435  -5.1258  -4.9130  -4.8774  -4.7667  -4.7185
    -4.6716  -4.4905  -4.4348  -4.3724  -4.3002  -4.1655  -3.9865  -3.7299
    -3.6472  -3.5411  -3.4160  -3.4066  -3.2512  -3.2155  -3.1901  -3.1724
    -3.1483  -3.0060  -2.9659  -2.8495  -2.8055  -2.4991  -2.3206  -1.7705
    -1.4708  -0.6479  -0.2255  -0.1879   0.0938   0.4198   0.4899   0.5724
     0.6193   0.8568   0.9705   0.9842   0.9902   1.1611   1.2568   1.4920
     1.5454   1.6377   1.7313   1.9475   1.9733   2.0709   2.1324   2.5412
     2.6456   2.6940   2.7771

          k = 0.0289 0.0171 0.0000 ( 33554 PWs)   bands (ev):

   -56.4584 -56.4235 -56.3979 -56.3626 -56.2694 -56.2339 -32.8081 -32.7741
   -32.7452 -32.7162 -32.7104 -32.6813 -32.6699 -32.6582 -32.6428 -32.6354
   -32.6236 -32.6073 -32.5984 -32.3585 -32.3270 -32.3221 -32.2959 -32.2904
    -6.6349  -5.4310  -5.2676  -5.1159  -4.8988  -4.8824  -4.7458  -4.6862
    -4.6550  -4.4799  -4.4342  -4.3488  -4.2669  -4.1486  -4.0130  -3.6885
    -3.6535  -3.5498  -3.4382  -3.4184  -3.2373  -3.2008  -3.1488  -3.1354
    -3.1344  -3.0144  -2.9504  -2.8043  -2.7617  -2.4699  -2.2929  -1.7311
    -1.5117  -0.4554  -0.1193  -0.1138   0.0741   0.2635   0.2659   0.5345
     0.5949   0.7225   0.7596   0.8831   0.9066   1.1187   1.2195   1.3615
     1.4102   1.5913   1.6448   1.9736   1.9754   2.0056   2.1235   2.5514
     2.6245   2.7289   2.7829

          k = 0.0289 0.0336 0.0000 ( 33577 PWs)   bands (ev):

   -56.4578 -56.4241 -56.3972 -56.3632 -56.2688 -56.2344 -32.8077 -32.7747
   -32.7448 -32.7164 -32.7110 -32.6818 -32.6651 -32.6581 -32.6378 -32.6347
   -32.6242 -32.6023 -32.5996 -32.3640 -32.3326 -32.3217 -32.3014 -32.2910
    -6.5059  -5.3472  -5.2028  -5.0642  -4.8480  -4.8359  -4.6882  -4.6800
    -4.6105  -4.4129  -4.3875  -4.3158  -4.1896  -4.1294  -4.0040  -3.6624
    -3.6346  -3.5236  -3.4716  -3.4324  -3.2588  -3.2059  -3.1524  -3.1229
    -3.1125  -3.0292  -2.9446  -2.8176  -2.7738  -2.5109  -2.3165  -1.7761
    -1.5507  -0.7989  -0.6211  -0.2520  -0.0577   0.0847   0.3502   0.4937
     0.5390   0.6931   0.7837   0.8323   0.8643   1.0378   1.1220   1.1774
     1.4517   1.5275   1.6168   1.8972   1.9603   1.9640   2.1377   2.5234
     2.5419   2.5843   2.7354

          k = 0.0289 0.0501 0.0000 ( 33580 PWs)   bands (ev):

   -56.4560 -56.4259 -56.3954 -56.3650 -56.2670 -56.2362 -32.8062 -32.7765
   -32.7433 -32.7154 -32.7128 -32.6836 -32.6568 -32.6501 -32.6328 -32.6263
   -32.6224 -32.6021 -32.5871 -32.3799 -32.3487 -32.3203 -32.3173 -32.2927
    -6.2865  -5.1796  -5.0562  -4.9774  -4.8009  -4.7431  -4.6695  -4.6016
    -4.5380  -4.3155  -4.2960  -4.2840  -4.1141  -4.0885  -3.9598  -3.6821
    -3.5836  -3.5222  -3.4640  -3.4521  -3.3095  -3.2345  -3.2136  -3.1202
    -3.0912  -3.0483  -2.9384  -2.8949  -2.8479  -2.6114  -2.3914  -1.9355
    -1.5864  -1.5256  -0.8504  -0.6904  -0.3927  -0.0945   0.2298   0.5397
     0.5784   0.6743   0.8206   0.8322   0.8722   0.9187   1.0746   1.1720
     1.4322   1.5996   1.6787   1.8344   1.9203   1.9543   2.1177   2.2958
     2.4945   2.5509   2.6893

          k = 0.0289 0.0666 0.0000 ( 33628 PWs)   bands (ev):

   -56.4533 -56.4286 -56.3926 -56.3678 -56.2642 -56.2390 -32.8037 -32.7792
   -32.7406 -32.7155 -32.7133 -32.6864 -32.6544 -32.6298 -32.6289 -32.6260
   -32.6056 -32.5981 -32.5629 -32.4051 -32.3743 -32.3427 -32.3178 -32.2953
    -5.9909  -4.9473  -4.8924  -4.8568  -4.8236  -4.5966  -4.5773  -4.5002
    -4.4288  -4.2752  -4.2182  -4.1857  -4.0777  -3.9977  -3.8863  -3.7419
    -3.5795  -3.5599  -3.4686  -3.4258  -3.3793  -3.2930  -3.2275  -3.1345
    -3.0847  -3.0729  -3.0278  -2.9756  -2.9336  -2.7510  -2.5086  -2.3507
    -2.0943  -1.5939  -1.5404  -0.7183  -0.6862  -0.1883   0.0773   0.4572
     0.6252   0.7190   0.7712   0.8729   0.8935   1.0591   1.1277   1.2362
     1.3381   1.6150   1.8100   1.8514   1.8878   1.9436   2.0256   2.1718
     2.4241   2.5554   2.6262

          k = 0.0289-0.1150 0.0000 ( 33609 PWs)   bands (ev):

   -56.4496 -56.4323 -56.3890 -56.3714 -56.2605 -56.2427 -32.8002 -32.7827
   -32.7371 -32.7191 -32.7100 -32.6899 -32.6510 -32.6323 -32.6258 -32.6097
   -32.5942 -32.5659 -32.5311 -32.4377 -32.4073 -32.3754 -32.3146 -32.2986
    -5.6480  -5.0167  -4.7243  -4.7133  -4.6314  -4.4536  -4.4428  -4.3283
    -4.2859  -4.2732  -4.2214  -4.0508  -3.9659  -3.9597  -3.8450  -3.7999
    -3.6234  -3.5930  -3.5706  -3.4575  -3.3267  -3.2928  -3.2588  -3.1909
    -3.1508  -3.1410  -3.1081  -3.0539  -2.9450  -2.9064  -2.8967  -2.6547
    -2.5449  -2.2140  -1.5344  -0.9435  -0.6769  -0.0897  -0.0120   0.4461
     0.6693   0.7256   0.8317   0.9107   0.9844   1.1962   1.2568   1.2682
     1.3703   1.6730   1.8173   1.8622   1.8827   1.9203   1.9737   2.0880
     2.3423   2.4975   2.5717

          k = 0.0289-0.0985 0.0000 ( 33623 PWs)   bands (ev):

   -56.4455 -56.4365 -56.3847 -56.3757 -56.2563 -56.2470 -32.7961 -32.7867
   -32.7329 -32.7232 -32.7059 -32.6938 -32.6468 -32.6363 -32.6212 -32.6143
   -32.5569 -32.5282 -32.4939 -32.4754 -32.4456 -32.4132 -32.3108 -32.3024
    -5.3166  -5.2517  -4.6037  -4.5896  -4.4221  -4.4059  -4.3345  -4.3179
    -4.2080  -4.1760  -4.1360  -3.9247  -3.9195  -3.8801  -3.8278  -3.7207
    -3.6691  -3.6457  -3.6406  -3.4387  -3.4369  -3.3774  -3.2904  -3.2755
    -3.2410  -3.2011  -3.1568  -3.1106  -3.0657  -3.0356  -3.0254  -2.9317
    -2.8161  -2.7544  -1.3989  -1.0869  -0.6263  -0.0075   0.1815   0.5359
     0.7295   0.7494   0.9317   0.9779   1.1284   1.1730   1.3056   1.4276
     1.5949   1.7073   1.7512   1.8038   1.8926   1.9209   1.9963   2.0704
     2.2179   2.2928   2.6044

          k = 0.0289-0.0820 0.0000 ( 33610 PWs)   bands (ev):

   -56.4412 -56.4408 -56.3804 -56.3801 -56.2517 -56.2516 -32.7917 -32.7910
   -32.7283 -32.7276 -32.7011 -32.6980 -32.6422 -32.6406 -32.6190 -32.6162
   -32.5166 -32.5156 -32.4874 -32.4864 -32.4537 -32.4535 -32.3066 -32.3064
    -5.5596  -5.0747  -4.6189  -4.5504  -4.4484  -4.4124  -4.3574  -4.3289
    -4.1986  -4.1399  -4.0424  -4.0330  -3.8804  -3.8697  -3.7552  -3.7201
    -3.6238  -3.6183  -3.5092  -3.4773  -3.4562  -3.4131  -3.3884  -3.3783
    -3.2669  -3.2502  -3.2172  -3.2161  -3.1393  -3.0706  -2.9976  -2.9629
    -2.9543  -2.8701  -1.2263  -1.1885  -0.4530   0.0871   0.5410   0.7005
     0.7695   0.8780   0.9449   1.1175   1.1280   1.2905   1.3633   1.5502
     1.6032   1.6230   1.6782   1.8889   1.9371   1.9885   2.0271   2.0781
     2.1296   2.2061   2.5360

          k = 0.0289-0.0655 0.0000 ( 33602 PWs)   bands (ev):

   -56.4455 -56.4364 -56.3849 -56.3756 -56.2563 -56.2471 -32.7953 -32.7871
   -32.7320 -32.7237 -32.7022 -32.6962 -32.6448 -32.6374 -32.6235 -32.6112
   -32.5557 -32.5270 -32.4935 -32.4760 -32.4462 -32.4132 -32.3104 -32.3024
    -5.8927  -4.9384  -4.7452  -4.6341  -4.5846  -4.5083  -4.5047  -4.3955
    -4.3348  -4.2313  -4.0602  -4.0353  -4.0001  -3.9585  -3.8283  -3.7493
    -3.7138  -3.6748  -3.4630  -3.4540  -3.3972  -3.3100  -3.2874  -3.2625
    -3.2306  -3.1879  -3.1786  -3.1505  -3.1335  -3.0383  -2.9597  -2.8319
    -2.7539  -2.6608  -1.2659  -1.0464  -0.1520   0.2260   0.8153   0.8777
     0.9082   0.9233   1.0426   1.0643   1.1861   1.3732   1.4319   1.4397
     1.5881   1.6247   1.6556   1.7622   1.9396   2.0438   2.1493   2.1787
     2.2180   2.3695   2.5437

          k = 0.0289-0.0490 0.0000 ( 33543 PWs)   bands (ev):

   -56.4498 -56.4322 -56.3891 -56.3714 -56.2605 -56.2428 -32.7993 -32.7828
   -32.7362 -32.7193 -32.7061 -32.6914 -32.6487 -32.6329 -32.6275 -32.6066
   -32.5928 -32.5647 -32.5306 -32.4379 -32.4076 -32.3752 -32.3140 -32.2984
    -6.1990  -4.8949  -4.8690  -4.8589  -4.7518  -4.6686  -4.6324  -4.5590
    -4.3889  -4.3554  -4.2698  -4.1810  -4.1207  -4.0810  -3.7841  -3.7501
    -3.7192  -3.5895  -3.4438  -3.4321  -3.3004  -3.2949  -3.2699  -3.2401
    -3.2061  -3.1525  -3.1279  -3.1074  -3.0466  -2.8778  -2.6797  -2.6196
    -2.3547  -2.0975  -1.3270  -0.8308   0.1886   0.3199   0.7685   0.8492
     0.9747   1.0692   1.1313   1.1822   1.2533   1.2666   1.3892   1.4073
     1.5635   1.7160   1.7167   1.7791   1.8789   2.1341   2.1919   2.2875
     2.3434   2.5753   2.6148

          k = 0.0289-0.0325 0.0000 ( 33539 PWs)   bands (ev):

   -56.4534 -56.4286 -56.3928 -56.3678 -56.2642 -56.2391 -32.8028 -32.7792
   -32.7397 -32.7156 -32.7097 -32.6873 -32.6523 -32.6309 -32.6291 -32.6246
   -32.6028 -32.5969 -32.5624 -32.4050 -32.3742 -32.3424 -32.3172 -32.2950
    -6.4423  -5.1283  -5.0112  -4.9540  -4.8273  -4.7793  -4.7405  -4.6371
    -4.6081  -4.3842  -4.3539  -4.3022  -4.2063  -4.1668  -3.8434  -3.7457
    -3.6912  -3.4437  -3.4388  -3.4161  -3.3628  -3.3176  -3.2755  -3.1984
    -3.1372  -3.0677  -3.0553  -3.0188  -3.0150  -2.7310  -2.4944  -2.2066
    -1.8497  -1.4453  -1.3787  -0.5380   0.2436   0.4467   0.6614   0.7633
     1.0138   1.0422   1.0780   1.1656   1.1685   1.4033   1.4229   1.4803
     1.4887   1.6964   1.8072   1.8463   1.8981   2.0518   2.3093   2.3951
     2.4583   2.5956   2.6350

          k = 0.0433-0.0239 0.0000 ( 33581 PWs)   bands (ev):

   -56.4533 -56.4286 -56.3927 -56.3678 -56.2642 -56.2391 -32.8030 -32.7792
   -32.7400 -32.7156 -32.7105 -32.6870 -32.6528 -32.6306 -32.6291 -32.6249
   -32.6034 -32.5971 -32.5625 -32.4050 -32.3743 -32.3425 -32.3174 -32.2951
    -6.3594  -5.0841  -4.9868  -4.9298  -4.8477  -4.7208  -4.6986  -4.6234
    -4.5833  -4.3589  -4.3271  -4.2797  -4.1711  -4.1542  -3.8519  -3.6968
    -3.6968  -3.4844  -3.4492  -3.4198  -3.3993  -3.3028  -3.2024  -3.1807
    -3.1372  -3.0568  -3.0472  -3.0261  -3.0028  -2.7334  -2.4976  -2.2265
    -1.9105  -1.4496  -1.3924  -0.5866  -0.0741   0.3778   0.6120   0.7366
     0.8956   0.9229   1.0199   1.0719   1.0936   1.2748   1.3622   1.3647
     1.5378   1.6469   1.8198   1.8860   1.9298   1.9567   2.1121   2.3537
     2.3832   2.6113   2.6482

          k = 0.0433-0.0074 0.0000 ( 33571 PWs)   bands (ev):

   -56.4561 -56.4259 -56.3955 -56.3650 -56.2670 -56.2362 -32.8058 -32.7764
   -32.7429 -32.7138 -32.7127 -32.6838 -32.6559 -32.6495 -32.6331 -32.6262
   -32.6219 -32.6009 -32.5868 -32.3798 -32.3487 -32.3201 -32.3172 -32.2926
    -6.4774  -5.2549  -5.1006  -5.0441  -4.8502  -4.7760  -4.7224  -4.7005
    -4.6128  -4.3928  -4.3574  -4.3356  -4.2095  -4.1519  -3.9406  -3.6758
    -3.6639  -3.4859  -3.4675  -3.4329  -3.2951  -3.2634  -3.1947  -3.1594
    -3.1261  -3.0251  -2.9866  -2.9208  -2.8737  -2.6000  -2.3915  -1.9197
    -1.4641  -1.3677  -0.8046  -0.3591  -0.2739   0.3593   0.4017   0.6282
     0.7674   0.8465   0.9229   0.9772   1.0113   1.1015   1.2503   1.2561
     1.5960   1.6288   1.7342   1.9257   1.9449   2.0007   2.0398   2.4612
     2.4943   2.5970   2.7149

          k = 0.0433 0.0091 0.0000 ( 33577 PWs)   bands (ev):

   -56.4578 -56.4241 -56.3972 -56.3632 -56.2688 -56.2344 -32.8077 -32.7747
   -32.7448 -32.7164 -32.7110 -32.6818 -32.6651 -32.6581 -32.6378 -32.6347
   -32.6242 -32.6023 -32.5996 -32.3640 -32.3326 -32.3217 -32.3014 -32.2910
    -6.5059  -5.3472  -5.2028  -5.0642  -4.8480  -4.8359  -4.6882  -4.6800
    -4.6105  -4.4129  -4.3875  -4.3158  -4.1896  -4.1294  -4.0040  -3.6624
    -3.6346  -3.5237  -3.4716  -3.4324  -3.2588  -3.2058  -3.1524  -3.1229
    -3.1125  -3.0292  -2.9446  -2.8176  -2.7738  -2.5109  -2.3165  -1.7761
    -1.5507  -0.7989  -0.6211  -0.2520  -0.0577   0.0847   0.3502   0.4937
     0.5390   0.6931   0.7837   0.8323   0.8643   1.0378   1.1220   1.1774
     1.4517   1.5275   1.6168   1.8972   1.9603   1.9640   2.1378   2.5229
     2.5422   2.5842   2.7370

          k = 0.0433 0.0256 0.0000 ( 33568 PWs)   bands (ev):

   -56.4584 -56.4235 -56.3978 -56.3626 -56.2694 -56.2338 -32.8085 -32.7741
   -32.7456 -32.7179 -32.7104 -32.6811 -32.6706 -32.6592 -32.6434 -32.6351
   -32.6236 -32.6076 -32.5997 -32.3586 -32.3271 -32.3224 -32.2961 -32.2906
    -6.4431  -5.3565  -5.2202  -5.0463  -4.8417  -4.8175  -4.6424  -4.6381
    -4.5810  -4.3912  -4.3761  -4.2820  -4.1223  -4.0996  -4.0348  -3.6672
    -3.5818  -3.5306  -3.4931  -3.4296  -3.2750  -3.1760  -3.1061  -3.1027
    -3.1008  -3.0372  -2.9107  -2.7665  -2.7210  -2.4848  -2.2863  -1.7353
    -1.6554  -0.8056  -0.4653  -0.1905  -0.1417  -0.0647   0.2055   0.4851
     0.4928   0.5119   0.5720   0.7332   0.7894   0.9369   1.0493   1.1105
     1.2219   1.3665   1.5967   1.7436   1.9589   1.9741   2.2385   2.4793
     2.5430   2.5540   2.7190

          k = 0.0433 0.0421 0.0000 ( 33569 PWs)   bands (ev):

   -56.4577 -56.4241 -56.3972 -56.3632 -56.2688 -56.2344 -32.8082 -32.7748
   -32.7452 -32.7181 -32.7110 -32.6817 -32.6657 -32.6590 -32.6384 -32.6344
   -32.6242 -32.6025 -32.6010 -32.3641 -32.3326 -32.3220 -32.3016 -32.2912
    -6.2919  -5.2842  -5.1501  -4.9927  -4.8019  -4.7627  -4.6360  -4.5589
    -4.5257  -4.3375  -4.3060  -4.2506  -4.0763  -4.0297  -4.0274  -3.6766
    -3.5382  -3.5242  -3.5008  -3.4293  -3.2977  -3.1878  -3.1228  -3.1094
    -3.0876  -3.0490  -2.8834  -2.7839  -2.7350  -2.5266  -2.3114  -1.7817
    -1.7565  -1.0169  -0.8923  -0.4163  -0.2956  -0.2492   0.2516   0.3304
     0.4626   0.5017   0.5530   0.6886   0.7378   0.7898   1.0056   1.0739
     1.1963   1.4169   1.5716   1.6629   1.9483   1.9741   2.2385   2.3162
     2.5193   2.5385   2.6840

          k = 0.0433 0.0586 0.0000 ( 33614 PWs)   bands (ev):

   -56.4560 -56.4258 -56.3954 -56.3650 -56.2670 -56.2362 -32.8066 -32.7765
   -32.7436 -32.7170 -32.7127 -32.6834 -32.6576 -32.6507 -32.6325 -32.6262
   -32.6229 -32.6034 -32.5873 -32.3800 -32.3488 -32.3206 -32.3174 -32.2929
    -6.0606  -5.1355  -5.0038  -4.9084  -4.7451  -4.7213  -4.6112  -4.4678
    -4.4391  -4.2608  -4.2347  -4.1992  -4.0671  -3.9812  -3.9476  -3.7079
    -3.5587  -3.5266  -3.4487  -3.4188  -3.3373  -3.2229  -3.2049  -3.1217
    -3.0817  -3.0692  -2.8825  -2.8679  -2.8257  -2.6278  -2.3903  -1.9583
    -1.7943  -1.6910  -0.9523  -0.9253  -0.4792  -0.4770   0.0163   0.3641
     0.4192   0.5385   0.6702   0.6765   0.7298   0.8842   1.0061   1.1009
     1.1777   1.5773   1.6092   1.7050   1.9410   1.9569   2.1058   2.2550
     2.4940   2.5398   2.6447

          k = 0.0433-0.1230 0.0000 ( 33620 PWs)   bands (ev):

   -56.4532 -56.4286 -56.3926 -56.3678 -56.2642 -56.2390 -32.8040 -32.7792
   -32.7409 -32.7155 -32.7146 -32.6861 -32.6550 -32.6294 -32.6287 -32.6264
   -32.6067 -32.5985 -32.5631 -32.4051 -32.3742 -32.3427 -32.3180 -32.2954
    -5.7663  -4.9245  -4.8545  -4.8210  -4.7854  -4.5793  -4.5060  -4.3862
    -4.3119  -4.2571  -4.1916  -4.0977  -4.0218  -3.9164  -3.9050  -3.7936
    -3.5826  -3.5649  -3.4414  -3.4158  -3.3593  -3.2946  -3.2256  -3.1364
    -3.0998  -3.0930  -3.0467  -2.9767  -2.8705  -2.7699  -2.5121  -2.4436
    -2.1518  -1.7200  -1.6247  -1.0274  -0.7386  -0.3229  -0.1236   0.3779
     0.4112   0.6393   0.6547   0.7892   0.8547   1.0608   1.0651   1.1453
     1.1902   1.6339   1.7439   1.8098   1.9064   1.9395   2.0453   2.1950
     2.4318   2.5379   2.5895

          k = 0.0433-0.1064 0.0000 ( 33654 PWs)   bands (ev):

   -56.4496 -56.4323 -56.3889 -56.3715 -56.2605 -56.2427 -32.8005 -32.7827
   -32.7373 -32.7191 -32.7110 -32.6895 -32.6514 -32.6321 -32.6255 -32.6106
   -32.5945 -32.5663 -32.5313 -32.4377 -32.4072 -32.3754 -32.3147 -32.2987
    -5.4466  -5.0289  -4.7085  -4.6656  -4.6322  -4.3989  -4.3894  -4.2857
    -4.2603  -4.2327  -4.1647  -3.9726  -3.9571  -3.9108  -3.9085  -3.8169
    -3.6460  -3.6027  -3.5669  -3.3962  -3.3515  -3.2877  -3.2821  -3.2080
    -3.1497  -3.1409  -3.1378  -3.0824  -2.9754  -2.9297  -2.8799  -2.6628
    -2.5820  -2.2845  -1.5402  -1.0334  -0.9496  -0.1189  -0.0283   0.4584
     0.4677   0.6914   0.7820   0.8505   1.0357   1.0645   1.2026   1.2821
     1.3419   1.7279   1.7856   1.8367   1.8570   1.9373   2.1087   2.1235
     2.3562   2.4818   2.5046

          k = 0.0433-0.0899 0.0000 ( 33658 PWs)   bands (ev):

   -56.4454 -56.4365 -56.3847 -56.3757 -56.2563 -56.2470 -32.7963 -32.7867
   -32.7330 -32.7232 -32.7064 -32.6935 -32.6470 -32.6361 -32.6209 -32.6149
   -32.5571 -32.5284 -32.4940 -32.4753 -32.4455 -32.4131 -32.3108 -32.3024
    -5.2842  -5.1760  -4.5844  -4.5463  -4.4261  -4.4134  -4.3255  -4.2973
    -4.1797  -4.1750  -4.1451  -3.9182  -3.8675  -3.8455  -3.8362  -3.7541
    -3.6858  -3.6412  -3.6134  -3.5092  -3.4106  -3.3901  -3.3025  -3.2768
    -3.2349  -3.1805  -3.1685  -3.1322  -3.1096  -3.0582  -3.0525  -2.9011
    -2.8267  -2.7918  -1.3404  -1.0932  -0.8818  -0.0188   0.3384   0.5924
     0.5963   0.7706   0.8995   0.9487   1.0510   1.2342   1.2841   1.4037
     1.6267   1.6686   1.7392   1.7912   1.9461   1.9807   2.0299   2.2261
     2.2812   2.2943   2.4542

          k = 0.0433-0.0734 0.0000 ( 33617 PWs)   bands (ev):

   -56.4412 -56.4408 -56.3804 -56.3801 -56.2517 -56.2516 -32.7917 -32.7910
   -32.7284 -32.7276 -32.7014 -32.6978 -32.6422 -32.6404 -32.6192 -32.6160
   -32.5167 -32.5155 -32.4874 -32.4863 -32.4537 -32.4535 -32.3066 -32.3064
    -5.5872  -5.0159  -4.6233  -4.5149  -4.4849  -4.4153  -4.3420  -4.3298
    -4.2205  -4.1437  -4.0380  -4.0299  -3.8778  -3.8579  -3.7443  -3.7370
    -3.6446  -3.6220  -3.5025  -3.4787  -3.4518  -3.4168  -3.3936  -3.3705
    -3.2619  -3.2440  -3.2217  -3.2126  -3.1730  -3.0558  -3.0281  -2.9797
    -2.9438  -2.8666  -1.1932  -1.1921  -0.5487   0.1234   0.7027   0.7545
     0.7799   0.8391   0.9262   1.0514   1.1100   1.3544   1.4049   1.4711
     1.5997   1.6018   1.6705   1.9376   1.9605   1.9865   2.0242   2.1365
     2.2101   2.3683   2.4146

          k = 0.0433-0.0569 0.0000 ( 33602 PWs)   bands (ev):

   -56.4455 -56.4364 -56.3849 -56.3756 -56.2563 -56.2471 -32.7953 -32.7871
   -32.7320 -32.7237 -32.7022 -32.6962 -32.6448 -32.6374 -32.6235 -32.6112
   -32.5557 -32.5270 -32.4935 -32.4760 -32.4462 -32.4132 -32.3104 -32.3024
    -5.8927  -4.9384  -4.7452  -4.6341  -4.5846  -4.5083  -4.5047  -4.3955
    -4.3348  -4.2313  -4.0602  -4.0353  -4.0001  -3.9585  -3.8283  -3.7493
    -3.7138  -3.6748  -3.4629  -3.4540  -3.3972  -3.3100  -3.2874  -3.2625
    -3.2306  -3.1879  -3.1786  -3.1505  -3.1335  -3.0383  -2.9597  -2.8319
    -2.7539  -2.6608  -1.2659  -1.0464  -0.1520   0.2260   0.8153   0.8777
     0.9082   0.9233   1.0426   1.0643   1.1861   1.3732   1.4319   1.4397
     1.5881   1.6247   1.6556   1.7622   1.9396   2.0438   2.1494   2.1787
     2.2180   2.3696   2.5439

          k = 0.0433-0.0404 0.0000 ( 33562 PWs)   bands (ev):

   -56.4497 -56.4322 -56.3891 -56.3714 -56.2605 -56.2428 -32.7994 -32.7828
   -32.7363 -32.7193 -32.7065 -32.6913 -32.6490 -32.6329 -32.6273 -32.6069
   -32.5929 -32.5648 -32.5307 -32.4379 -32.4075 -32.3752 -32.3141 -32.2984
    -6.1593  -4.9182  -4.8547  -4.8454  -4.7333  -4.6428  -4.6211  -4.5398
    -4.3867  -4.3480  -4.2662  -4.1720  -4.1104  -4.0702  -3.7849  -3.7544
    -3.6958  -3.5894  -3.4756  -3.4478  -3.3161  -3.2922  -3.2340  -3.2263
    -3.1964  -3.1376  -3.1207  -3.1133  -3.0487  -2.8787  -2.6962  -2.6226
    -2.3781  -2.0917  -1.3290  -0.8531   0.1595   0.1894   0.7758   0.8406
     0.9194   0.9539   1.0385   1.1517   1.2297   1.2370   1.4467   1.4521
     1.5433   1.6289   1.7100   1.8174   1.9064   2.0555   2.1609   2.2416
     2.2528   2.5535   2.6163

          k = 0.0578-0.0319 0.0000 ( 33601 PWs)   bands (ev):

   -56.4497 -56.4323 -56.3891 -56.3714 -56.2605 -56.2428 -32.7996 -32.7828
   -32.7365 -32.7193 -32.7074 -32.6909 -32.6496 -32.6328 -32.6269 -32.6076
   -32.5933 -32.5651 -32.5308 -32.4378 -32.4075 -32.3753 -32.3142 -32.2985
    -6.0438  -4.9583  -4.8162  -4.8146  -4.6904  -4.5854  -4.5830  -4.4817
    -4.3799  -4.3294  -4.2515  -4.1478  -4.0784  -4.0399  -3.7899  -3.7666
    -3.6383  -3.5911  -3.5338  -3.4785  -3.3158  -3.2943  -3.2222  -3.1887
    -3.1777  -3.1364  -3.0907  -3.0896  -3.0513  -2.8809  -2.7452  -2.6314
    -2.4321  -2.0951  -1.3502  -0.9004  -0.1458   0.1849   0.5256   0.6821
     0.7953   0.8812   1.0204   1.1020   1.1298   1.1765   1.3926   1.4848
     1.5323   1.5560   1.7467   1.8268   1.9414   1.9446   2.0173   2.1455
     2.2757   2.5355   2.5992

          k = 0.0578-0.0154 0.0000 ( 33598 PWs)   bands (ev):

   -56.4533 -56.4286 -56.3927 -56.3678 -56.2642 -56.2391 -32.8033 -32.7792
   -32.7403 -32.7156 -32.7118 -32.6867 -32.6536 -32.6302 -32.6290 -32.6254
   -32.6044 -32.5976 -32.5627 -32.4051 -32.3743 -32.3426 -32.3176 -32.2952
    -6.2021  -5.0127  -4.9429  -4.8938  -4.8465  -4.6510  -4.6171  -4.6082
    -4.5210  -4.3167  -4.2746  -4.2422  -4.1248  -4.0996  -3.8674  -3.7111
    -3.6200  -3.5398  -3.4700  -3.4196  -3.3973  -3.2952  -3.1978  -3.1492
    -3.1119  -3.0499  -3.0357  -3.0019  -2.9859  -2.7391  -2.5031  -2.2721
    -2.0057  -1.4762  -1.4517  -0.6607  -0.4251   0.2381   0.2583   0.6427
     0.6997   0.8466   0.9388   0.9475   1.0589   1.0607   1.2173   1.2980
     1.5438   1.5859   1.8500   1.8695   1.8831   1.9811   1.9891   2.2257
     2.4076   2.5799   2.6541

          k = 0.0578 0.0011 0.0000 ( 33580 PWs)   bands (ev):

   -56.4560 -56.4259 -56.3954 -56.3650 -56.2670 -56.2362 -32.8062 -32.7765
   -32.7433 -32.7154 -32.7128 -32.6836 -32.6568 -32.6501 -32.6328 -32.6263
   -32.6224 -32.6021 -32.5871 -32.3799 -32.3487 -32.3203 -32.3173 -32.2927
    -6.2865  -5.1796  -5.0562  -4.9774  -4.8009  -4.7431  -4.6695  -4.6016
    -4.5380  -4.3155  -4.2960  -4.2840  -4.1141  -4.0885  -3.9598  -3.6821
    -3.5836  -3.5222  -3.4640  -3.4521  -3.3095  -3.2345  -3.2136  -3.1202
    -3.0912  -3.0483  -2.9384  -2.8949  -2.8479  -2.6114  -2.3914  -1.9355
    -1.5864  -1.5256  -0.8504  -0.6904  -0.3927  -0.0945   0.2298   0.5397
     0.5784   0.6743   0.8206   0.8322   0.8722   0.9187   1.0746   1.1720
     1.4322   1.5996   1.6787   1.8344   1.9203   1.9543   2.1177   2.2957
     2.4946   2.5510   2.6894

          k = 0.0578 0.0176 0.0000 ( 33569 PWs)   bands (ev):

   -56.4577 -56.4241 -56.3972 -56.3632 -56.2688 -56.2344 -32.8082 -32.7748
   -32.7452 -32.7181 -32.7110 -32.6817 -32.6657 -32.6590 -32.6384 -32.6344
   -32.6242 -32.6025 -32.6009 -32.3641 -32.3326 -32.3220 -32.3016 -32.2912
    -6.2919  -5.2842  -5.1501  -4.9927  -4.8019  -4.7627  -4.6360  -4.5589
    -4.5257  -4.3375  -4.3060  -4.2506  -4.0763  -4.0297  -4.0274  -3.6766
    -3.5382  -3.5242  -3.5008  -3.4293  -3.2977  -3.1878  -3.1228  -3.1094
    -3.0876  -3.0490  -2.8834  -2.7839  -2.7350  -2.5266  -2.3114  -1.7817
    -1.7565  -1.0169  -0.8923  -0.4163  -0.2956  -0.2492   0.2516   0.3304
     0.4627   0.5017   0.5530   0.6886   0.7379   0.7898   1.0056   1.0739
     1.1963   1.4169   1.5716   1.6629   1.9483   1.9741   2.2387   2.3163
     2.5193   2.5386   2.6842

          k = 0.0578 0.0341 0.0000 ( 33600 PWs)   bands (ev):

   -56.4583 -56.4235 -56.3977 -56.3626 -56.2694 -56.2338 -32.8090 -32.7742
   -32.7460 -32.7196 -32.7104 -32.6810 -32.6713 -32.6600 -32.6439 -32.6349
   -32.6236 -32.6078 -32.6011 -32.3587 -32.3272 -32.3227 -32.2962 -32.2908
    -6.2183  -5.3137  -5.1627  -4.9773  -4.8083  -4.7244  -4.5982  -4.4936
    -4.4843  -4.3293  -4.2781  -4.2135  -4.0613  -4.0386  -3.9556  -3.6765
    -3.5376  -3.5107  -3.4976  -3.4040  -3.3058  -3.1557  -3.1131  -3.0998
    -3.0649  -3.0517  -2.8408  -2.7292  -2.6759  -2.5018  -2.2795  -1.9228
    -1.7373  -1.0509  -0.7898  -0.6374  -0.2976  -0.0481   0.1463   0.3085
     0.3163   0.3787   0.4259   0.5785   0.5945   0.7236   0.9124   0.9768
     1.0040   1.2603   1.5146   1.5324   1.9412   2.0075   2.2065   2.3667
     2.4598   2.5468   2.6315

          k = 0.0578 0.0506 0.0000 ( 33589 PWs)   bands (ev):

   -56.4577 -56.4241 -56.3971 -56.3632 -56.2688 -56.2344 -32.8086 -32.7749
   -32.7456 -32.7196 -32.7110 -32.6816 -32.6663 -32.6597 -32.6389 -32.6342
   -32.6241 -32.6028 -32.6021 -32.3642 -32.3327 -32.3223 -32.3017 -32.2914
    -6.0700  -5.2635  -5.0944  -4.9312  -4.7759  -4.6739  -4.5995  -4.4368
    -4.3939  -4.2882  -4.2118  -4.1892  -4.0519  -4.0207  -3.9132  -3.6819
    -3.5473  -3.4980  -3.4775  -3.3802  -3.3028  -3.1752  -3.1236  -3.1195
    -3.0794  -3.0640  -2.8163  -2.7588  -2.7019  -2.5439  -2.3065  -1.9960
    -1.7853  -1.2285  -1.2272  -0.6489  -0.4227  -0.3013   0.1086   0.1953
     0.2216   0.3841   0.4244   0.5313   0.5881   0.7479   0.8948   0.9535
     0.9936   1.3485   1.4982   1.5197   1.9340   2.0003   2.1343   2.3080
     2.5023   2.5351   2.6250

          k = 0.0578-0.1309 0.0000 ( 33625 PWs)   bands (ev):

   -56.4560 -56.4258 -56.3953 -56.3650 -56.2670 -56.2362 -32.8069 -32.7766
   -32.7439 -32.7182 -32.7127 -32.6833 -32.6581 -32.6511 -32.6323 -32.6261
   -32.6232 -32.6044 -32.5875 -32.3800 -32.3488 -32.3208 -32.3175 -32.2930
    -5.8578  -5.1345  -4.9594  -4.8575  -4.7050  -4.7003  -4.5588  -4.3784
    -4.2806  -4.2418  -4.1909  -4.1053  -4.0264  -4.0023  -3.9330  -3.7113
    -3.5476  -3.5211  -3.4338  -3.3612  -3.3341  -3.2169  -3.1863  -3.1275
    -3.1193  -3.0887  -2.8792  -2.8197  -2.8141  -2.6449  -2.3898  -1.9898
    -1.9084  -1.8059  -1.3642  -1.0082  -0.4847  -0.4786  -0.2052   0.1398
     0.2764   0.4900   0.5573   0.6143   0.6794   0.8686   0.9198   0.9893
     1.0535   1.5538   1.5567   1.6153   1.9326   1.9996   2.0460   2.2522
     2.4887   2.5272   2.6179

          k = 0.0578-0.1144 0.0000 ( 33651 PWs)   bands (ev):

   -56.4532 -56.4286 -56.3926 -56.3678 -56.2642 -56.2390 -32.8042 -32.7792
   -32.7411 -32.7155 -32.7153 -32.6860 -32.6553 -32.6293 -32.6286 -32.6267
   -32.6073 -32.5988 -32.5632 -32.4051 -32.3742 -32.3428 -32.3181 -32.2955
    -5.6043  -4.9383  -4.8358  -4.7986  -4.7556  -4.5650  -4.4522  -4.3184
    -4.2670  -4.1777  -4.1664  -4.0272  -3.9902  -3.9712  -3.9296  -3.7968
    -3.5874  -3.5523  -3.4532  -3.3764  -3.3400  -3.2683  -3.2055  -3.1818
    -3.1382  -3.1252  -3.0352  -2.9897  -2.8354  -2.7836  -2.5159  -2.5049
    -2.1794  -1.6832  -1.6741  -1.4126  -0.7391  -0.2460  -0.2161   0.1722
     0.3419   0.6113   0.6214   0.7670   0.8491   0.9371   1.0746   1.0800
     1.1622   1.6469   1.7033   1.7804   1.9022   1.9382   2.0941   2.2197
     2.4348   2.4898   2.5587

          k = 0.0578-0.0979 0.0000 ( 33655 PWs)   bands (ev):

   -56.4496 -56.4323 -56.3889 -56.3715 -56.2605 -56.2427 -32.8005 -32.7827
   -32.7374 -32.7190 -32.7113 -32.6895 -32.6515 -32.6320 -32.6253 -32.6109
   -32.5947 -32.5664 -32.5313 -32.4376 -32.4072 -32.3754 -32.3147 -32.2987
    -5.3559  -5.0326  -4.7144  -4.6463  -4.6345  -4.3838  -4.3392  -4.3155
    -4.2373  -4.2212  -4.0946  -3.9999  -3.9363  -3.9288  -3.8730  -3.8395
    -3.6799  -3.5892  -3.5535  -3.3644  -3.3617  -3.2991  -3.2868  -3.2236
    -3.1714  -3.1401  -3.1336  -3.0998  -2.9982  -2.9376  -2.8625  -2.6669
    -2.5957  -2.3122  -1.4328  -1.2812  -0.9546  -0.1527   0.0877   0.3155
     0.4573   0.7089   0.7700   0.8473   0.9759   1.0583   1.1893   1.2822
     1.3428   1.7371   1.7725   1.8441   1.8478   1.9431   2.1209   2.2517
     2.3606   2.4411   2.4762

          k = 0.0578-0.0814 0.0000 ( 33658 PWs)   bands (ev):

   -56.4454 -56.4365 -56.3847 -56.3757 -56.2563 -56.2470 -32.7963 -32.7867
   -32.7330 -32.7232 -32.7064 -32.6935 -32.6470 -32.6361 -32.6209 -32.6149
   -32.5571 -32.5284 -32.4940 -32.4753 -32.4455 -32.4131 -32.3108 -32.3024
    -5.2842  -5.1760  -4.5844  -4.5463  -4.4261  -4.4134  -4.3255  -4.2973
    -4.1797  -4.1750  -4.1451  -3.9182  -3.8675  -3.8455  -3.8362  -3.7541
    -3.6858  -3.6412  -3.6134  -3.5092  -3.4106  -3.3901  -3.3025  -3.2768
    -3.2349  -3.1805  -3.1685  -3.1322  -3.1096  -3.0582  -3.0525  -2.9011
    -2.8267  -2.7918  -1.3404  -1.0932  -0.8818  -0.0188   0.3384   0.5924
     0.5963   0.7706   0.8995   0.9487   1.0510   1.2342   1.2841   1.4037
     1.6267   1.6686   1.7392   1.7912   1.9461   1.9807   2.0300   2.2262
     2.2812   2.2943   2.4556

          k = 0.0578-0.0649 0.0000 ( 33610 PWs)   bands (ev):

   -56.4412 -56.4408 -56.3804 -56.3801 -56.2517 -56.2516 -32.7917 -32.7910
   -32.7283 -32.7276 -32.7011 -32.6980 -32.6422 -32.6406 -32.6190 -32.6162
   -32.5166 -32.5156 -32.4874 -32.4864 -32.4537 -32.4535 -32.3066 -32.3064
    -5.5596  -5.0747  -4.6189  -4.5505  -4.4484  -4.4124  -4.3574  -4.3288
    -4.1986  -4.1399  -4.0424  -4.0330  -3.8804  -3.8697  -3.7552  -3.7201
    -3.6238  -3.6183  -3.5092  -3.4773  -3.4562  -3.4131  -3.3884  -3.3783
    -3.2669  -3.2502  -3.2172  -3.2161  -3.1393  -3.0706  -2.9976  -2.9629
    -2.9543  -2.8701  -1.2263  -1.1885  -0.4530   0.0871   0.5410   0.7004
     0.7695   0.8780   0.9449   1.1175   1.1280   1.2905   1.3633   1.5502
     1.6032   1.6230   1.6782   1.8889   1.9371   1.9885   2.0271   2.0781
     2.1296   2.2061   2.5363

          k = 0.0578-0.0484 0.0000 ( 33593 PWs)   bands (ev):

   -56.4455 -56.4364 -56.3848 -56.3756 -56.2563 -56.2471 -32.7954 -32.7870
   -32.7322 -32.7236 -32.7028 -32.6958 -32.6452 -32.6373 -32.6231 -32.6116
   -32.5559 -32.5272 -32.4936 -32.4759 -32.4461 -32.4132 -32.3104 -32.3024
    -5.8229  -5.0110  -4.7181  -4.6529  -4.5306  -4.4812  -4.4781  -4.3741
    -4.3357  -4.2280  -4.0712  -4.0238  -3.9865  -3.9398  -3.8252  -3.7425
    -3.7233  -3.6343  -3.5127  -3.4808  -3.3830  -3.3075  -3.2871  -3.2686
    -3.2099  -3.1929  -3.1764  -3.1173  -3.1023  -3.0469  -2.9704  -2.8700
    -2.7623  -2.6402  -1.2678  -1.0830  -0.0714   0.0575   0.6691   0.6847
     0.7893   0.9329   1.0412   1.1192   1.1443   1.3794   1.4301   1.4567
     1.5436   1.6620   1.7131   1.7249   1.9585   1.9852   2.0214   2.0974
     2.1389   2.2930   2.5732

          k = 0.0722-0.0399 0.0000 ( 33612 PWs)   bands (ev):

   -56.4455 -56.4365 -56.3848 -56.3757 -56.2563 -56.2471 -32.7957 -32.7869
   -32.7325 -32.7236 -32.7037 -32.6951 -32.6458 -32.6371 -32.6224 -32.6124
   -32.5562 -32.5275 -32.4937 -32.4757 -32.4459 -32.4132 -32.3105 -32.3024
    -5.6899  -5.1043  -4.6843  -4.6493  -4.4844  -4.4453  -4.4220  -4.3405
    -4.3293  -4.2100  -4.0880  -4.0043  -3.9614  -3.9161  -3.8218  -3.7323
    -3.7277  -3.5859  -3.5793  -3.5034  -3.3704  -3.3110  -3.2801  -3.2706
    -3.2368  -3.1911  -3.1654  -3.0734  -3.0677  -3.0522  -2.9791  -2.9206
    -2.7786  -2.6457  -1.2993  -1.1038  -0.1525   0.0249   0.3838   0.4598
     0.8255   0.9362   0.9398   1.0380   1.1760   1.3427   1.3994   1.4404
     1.5499   1.6628   1.7470   1.7947   1.8624   1.9030   1.9574   2.0340
     2.1585   2.2781   2.5665

          k = 0.0722-0.0234 0.0000 ( 33626 PWs)   bands (ev):

   -56.4497 -56.4323 -56.3890 -56.3714 -56.2605 -56.2427 -32.7999 -32.7827
   -32.7368 -32.7192 -32.7087 -32.6903 -32.6504 -32.6326 -32.6263 -32.6086
   -32.5937 -32.5655 -32.5310 -32.4378 -32.4074 -32.3753 -32.3144 -32.2986
    -5.8646  -4.9933  -4.7684  -4.7665  -4.6512  -4.5195  -4.5149  -4.3892
    -4.3636  -4.3061  -4.2292  -4.1105  -4.0268  -3.9971  -3.8064  -3.7834
    -3.6074  -3.5820  -3.5683  -3.4972  -3.3044  -3.3040  -3.2292  -3.1912
    -3.1582  -3.1436  -3.0831  -3.0556  -3.0065  -2.8870  -2.8204  -2.6436
    -2.4922  -2.1375  -1.4280  -0.9340  -0.4106   0.1281   0.1310   0.4812
     0.7656   0.8554   0.9127   0.9883   1.0114   1.2127   1.2856   1.4220
     1.4228   1.6021   1.8307   1.8428   1.8974   1.9348   1.9352   2.0842
     2.3150   2.5169   2.6022

          k = 0.0722-0.0069 0.0000 ( 33628 PWs)   bands (ev):

   -56.4533 -56.4286 -56.3926 -56.3678 -56.2642 -56.2390 -32.8037 -32.7792
   -32.7406 -32.7155 -32.7133 -32.6864 -32.6544 -32.6298 -32.6289 -32.6260
   -32.6056 -32.5981 -32.5629 -32.4051 -32.3743 -32.3427 -32.3178 -32.2953
    -5.9909  -4.9473  -4.8924  -4.8568  -4.8236  -4.5966  -4.5773  -4.5002
    -4.4288  -4.2752  -4.2182  -4.1857  -4.0777  -3.9977  -3.8863  -3.7419
    -3.5795  -3.5599  -3.4686  -3.4258  -3.3793  -3.2930  -3.2275  -3.1345
    -3.0847  -3.0729  -3.0278  -2.9755  -2.9336  -2.7510  -2.5086  -2.3507
    -2.0943  -1.5939  -1.5404  -0.7183  -0.6862  -0.1883   0.0773   0.4572
     0.6252   0.7190   0.7712   0.8729   0.8935   1.0591   1.1277   1.2362
     1.3381   1.6150   1.8100   1.8514   1.8878   1.9436   2.0257   2.1719
     2.4242   2.5555   2.6262

          k = 0.0722 0.0096 0.0000 ( 33614 PWs)   bands (ev):

   -56.4560 -56.4258 -56.3954 -56.3650 -56.2670 -56.2362 -32.8066 -32.7765
   -32.7436 -32.7170 -32.7127 -32.6834 -32.6576 -32.6507 -32.6325 -32.6262
   -32.6229 -32.6034 -32.5873 -32.3800 -32.3488 -32.3206 -32.3174 -32.2929
    -6.0606  -5.1355  -5.0038  -4.9084  -4.7451  -4.7213  -4.6112  -4.4678
    -4.4391  -4.2608  -4.2347  -4.1992  -4.0671  -3.9812  -3.9476  -3.7079
    -3.5587  -3.5266  -3.4487  -3.4188  -3.3373  -3.2229  -3.2049  -3.1217
    -3.0817  -3.0692  -2.8825  -2.8679  -2.8257  -2.6278  -2.3903  -1.9583
    -1.7943  -1.6910  -0.9523  -0.9253  -0.4792  -0.4770   0.0163   0.3641
     0.4192   0.5385   0.6702   0.6765   0.7298   0.8842   1.0061   1.1009
     1.1777   1.5773   1.6092   1.7050   1.9410   1.9569   2.1057   2.2550
     2.4937   2.5395   2.6446

          k = 0.0722 0.0261 0.0000 ( 33589 PWs)   bands (ev):

   -56.4577 -56.4241 -56.3971 -56.3632 -56.2688 -56.2344 -32.8086 -32.7749
   -32.7456 -32.7196 -32.7110 -32.6816 -32.6663 -32.6597 -32.6389 -32.6342
   -32.6241 -32.6028 -32.6021 -32.3642 -32.3327 -32.3223 -32.3017 -32.2914
    -6.0700  -5.2635  -5.0944  -4.9312  -4.7759  -4.6739  -4.5995  -4.4368
    -4.3939  -4.2882  -4.2118  -4.1892  -4.0519  -4.0207  -3.9132  -3.6819
    -3.5473  -3.4980  -3.4775  -3.3802  -3.3028  -3.1752  -3.1236  -3.1195
    -3.0794  -3.0640  -2.8163  -2.7588  -2.7019  -2.5439  -2.3065  -1.9960
    -1.7853  -1.2285  -1.2272  -0.6489  -0.4227  -0.3013   0.1086   0.1953
     0.2216   0.3841   0.4244   0.5313   0.5881   0.7479   0.8948   0.9535
     0.9936   1.3485   1.4982   1.5197   1.9340   2.0003   2.1343   2.3081
     2.5028   2.5278   2.6251

          k = 0.0722 0.0426 0.0000 ( 33582 PWs)   bands (ev):

   -56.4583 -56.4235 -56.3977 -56.3626 -56.2694 -56.2338 -32.8093 -32.7743
   -32.7463 -32.7208 -32.7104 -32.6810 -32.6717 -32.6606 -32.6443 -32.6348
   -32.6235 -32.6080 -32.6021 -32.3588 -32.3272 -32.3229 -32.2963 -32.2909
    -6.0197  -5.3114  -5.1142  -4.9277  -4.7844  -4.6442  -4.5657  -4.4062
    -4.3105  -4.2910  -4.1896  -4.1607  -4.0866  -3.9868  -3.9360  -3.6598
    -3.5324  -3.4953  -3.4714  -3.3510  -3.2603  -3.1530  -3.1427  -3.1157
    -3.0663  -3.0344  -2.7850  -2.7018  -2.6390  -2.5169  -2.2745  -2.1264
    -1.7365  -1.4772  -1.0192  -0.6689  -0.4280   0.0158   0.0236   0.1026
     0.1694   0.2948   0.3301   0.3693   0.5150   0.6130   0.6904   0.9262
     0.9360   1.2012   1.3809   1.4836   1.9275   1.9645   2.1688   2.3933
     2.3966   2.5290   2.5515

          k = 0.0722-0.1389 0.0000 ( 33592 PWs)   bands (ev):

   -56.4577 -56.4241 -56.3971 -56.3632 -56.2688 -56.2344 -32.8088 -32.7749
   -32.7457 -32.7205 -32.7110 -32.6816 -32.6666 -32.6601 -32.6392 -32.6341
   -32.6241 -32.6032 -32.6026 -32.3642 -32.3327 -32.3224 -32.3018 -32.2915
    -5.9155  -5.2721  -5.0598  -4.8963  -4.7606  -4.6076  -4.5845  -4.3739
    -4.2658  -4.2070  -4.1686  -4.1237  -4.0755  -4.0032  -3.9851  -3.6611
    -3.5169  -3.4886  -3.4674  -3.3381  -3.2342  -3.1822  -3.1728  -3.1139
    -3.0803  -3.0624  -2.7778  -2.7435  -2.6875  -2.5566  -2.3052  -2.0767
    -1.7867  -1.6254  -1.3572  -0.5648  -0.5232  -0.2719  -0.0749  -0.0600
     0.1978   0.3090   0.3864   0.4854   0.5413   0.6602   0.7298   0.9183
     0.9516   1.3125   1.4169   1.4894   1.9252   1.9512   2.1606   2.2684
     2.4941   2.5147   2.5695

          k = 0.0722-0.1224 0.0000 ( 33645 PWs)   bands (ev):

   -56.4559 -56.4258 -56.3953 -56.3650 -56.2670 -56.2361 -32.8071 -32.7766
   -32.7440 -32.7186 -32.7127 -32.6833 -32.6583 -32.6513 -32.6323 -32.6261
   -32.6233 -32.6048 -32.5876 -32.3801 -32.3488 -32.3208 -32.3176 -32.2931
    -5.7700  -5.1445  -4.9428  -4.8390  -4.6985  -4.6834  -4.5351  -4.3456
    -4.2413  -4.1738  -4.1146  -4.0680  -4.0446  -4.0327  -4.0082  -3.6984
    -3.5239  -3.5218  -3.4277  -3.3374  -3.3147  -3.2176  -3.1807  -3.1464
    -3.1230  -3.1028  -2.8706  -2.8268  -2.7949  -2.6523  -2.3914  -2.0094
    -1.8655  -1.8417  -1.6281  -1.0441  -0.4300  -0.3921  -0.3336  -0.0312
     0.2468   0.4732   0.5216   0.6333   0.6634   0.8041   0.8648   0.9671
     1.0365   1.5388   1.5449   1.5820   1.9293   2.0000   2.0457   2.2447
     2.4850   2.4915   2.6096

          k = 0.0722-0.1059 0.0000 ( 33651 PWs)   bands (ev):

   -56.4532 -56.4286 -56.3926 -56.3678 -56.2642 -56.2390 -32.8042 -32.7792
   -32.7411 -32.7155 -32.7153 -32.6860 -32.6553 -32.6293 -32.6286 -32.6267
   -32.6073 -32.5988 -32.5632 -32.4051 -32.3742 -32.3428 -32.3181 -32.2955
    -5.6043  -4.9383  -4.8358  -4.7986  -4.7556  -4.5650  -4.4522  -4.3184
    -4.2670  -4.1777  -4.1664  -4.0272  -3.9902  -3.9712  -3.9296  -3.7968
    -3.5874  -3.5523  -3.4532  -3.3764  -3.3400  -3.2683  -3.2055  -3.1818
    -3.1382  -3.1252  -3.0352  -2.9897  -2.8354  -2.7836  -2.5159  -2.5049
    -2.1794  -1.6832  -1.6741  -1.4126  -0.7391  -0.2460  -0.2161   0.1722
     0.3419   0.6113   0.6214   0.7670   0.8491   0.9371   1.0746   1.0800
     1.1622   1.6469   1.7033   1.7804   1.9023   1.9382   2.0941   2.2197
     2.4346   2.4900   2.5595

          k = 0.0722-0.0894 0.0000 ( 33654 PWs)   bands (ev):

   -56.4496 -56.4323 -56.3889 -56.3715 -56.2605 -56.2427 -32.8005 -32.7827
   -32.7373 -32.7191 -32.7110 -32.6895 -32.6514 -32.6321 -32.6255 -32.6106
   -32.5945 -32.5663 -32.5313 -32.4377 -32.4072 -32.3754 -32.3147 -32.2987
    -5.4466  -5.0289  -4.7085  -4.6656  -4.6322  -4.3989  -4.3894  -4.2857
    -4.2603  -4.2327  -4.1647  -3.9727  -3.9571  -3.9108  -3.9085  -3.8169
    -3.6460  -3.6027  -3.5669  -3.3962  -3.3515  -3.2877  -3.2821  -3.2080
    -3.1497  -3.1409  -3.1378  -3.0824  -2.9754  -2.9297  -2.8799  -2.6628
    -2.5820  -2.2845  -1.5402  -1.0334  -0.9496  -0.1189  -0.0283   0.4584
     0.4677   0.6914   0.7820   0.8505   1.0357   1.0645   1.2026   1.2821
     1.3419   1.7279   1.7856   1.8367   1.8570   1.9373   2.1087   2.1235
     2.3573   2.4826   2.5050

          k = 0.0722-0.0729 0.0000 ( 33623 PWs)   bands (ev):

   -56.4455 -56.4365 -56.3847 -56.3757 -56.2563 -56.2470 -32.7961 -32.7867
   -32.7329 -32.7232 -32.7059 -32.6938 -32.6468 -32.6363 -32.6212 -32.6143
   -32.5569 -32.5282 -32.4939 -32.4754 -32.4456 -32.4132 -32.3108 -32.3024
    -5.3166  -5.2517  -4.6037  -4.5896  -4.4221  -4.4059  -4.3345  -4.3179
    -4.2080  -4.1760  -4.1360  -3.9247  -3.9195  -3.8801  -3.8278  -3.7207
    -3.6691  -3.6457  -3.6406  -3.4387  -3.4369  -3.3774  -3.2904  -3.2755
    -3.2410  -3.2011  -3.1568  -3.1106  -3.0657  -3.0356  -3.0254  -2.9317
    -2.8161  -2.7544  -1.3989  -1.0869  -0.6263  -0.0075   0.1815   0.5359
     0.7295   0.7494   0.9317   0.9779   1.1284   1.1730   1.3056   1.4276
     1.5949   1.7073   1.7512   1.8038   1.8926   1.9209   1.9963   2.0703
     2.2174   2.2926   2.6029

          k = 0.0722-0.0564 0.0000 ( 33607 PWs)   bands (ev):

   -56.4412 -56.4408 -56.3804 -56.3801 -56.2517 -56.2516 -32.7916 -32.7911
   -32.7282 -32.7278 -32.7004 -32.6987 -32.6419 -32.6410 -32.6183 -32.6167
   -32.5165 -32.5157 -32.4872 -32.4866 -32.4537 -32.4535 -32.3066 -32.3064
    -5.4795  -5.2086  -4.6138  -4.5861  -4.4192  -4.3918  -4.3821  -4.3380
    -4.1576  -4.1318  -4.0515  -4.0427  -3.8863  -3.8851  -3.7559  -3.7120
    -3.6081  -3.5809  -3.5309  -3.5146  -3.4287  -3.4073  -3.3771  -3.3731
    -3.2706  -3.2593  -3.2238  -3.2145  -3.0841  -3.0727  -2.9785  -2.9755
    -2.9197  -2.8791  -1.2534  -1.1931  -0.2520   0.0026   0.3659   0.5115
     0.7830   0.9235   0.9696   1.0536   1.2266   1.2492   1.3873   1.5217
     1.6211   1.6903   1.7134   1.8136   1.8817   1.9166   2.0060   2.0270
     2.0661   2.1065   2.6120

          k =-0.0867 0.0479 0.0000 ( 33628 PWs)   bands (ev):

   -56.4412 -56.4408 -56.3804 -56.3801 -56.2517 -56.2516 -32.7915 -32.7912
   -32.7281 -32.7280 -32.6996 -32.6995 -32.6415 -32.6415 -32.6175 -32.6174
   -32.5164 -32.5159 -32.4870 -32.4868 -32.4536 -32.4536 -32.3065 -32.3064
    -5.3560  -5.3560  -4.6062  -4.6062  -4.4034  -4.4034  -4.3600  -4.3600
    -4.1317  -4.1317  -4.0533  -4.0533  -3.8900  -3.8900  -3.7349  -3.7349
    -3.5717  -3.5717  -3.5464  -3.5464  -3.4087  -3.4087  -3.3691  -3.3690
    -3.2654  -3.2653  -3.2222  -3.2222  -3.0651  -3.0651  -2.9793  -2.9792
    -2.8926  -2.8926  -1.2263  -1.2262  -0.0871  -0.0871   0.3430   0.3430
     0.8707   0.8707   0.9866   0.9867   1.2664   1.2664   1.4421   1.4421
     1.6694   1.6695   1.7928   1.7929   1.8188   1.8188   2.0207   2.0208
     2.0667   2.0668   2.6217

          k =-0.0867 0.0644 0.0000 ( 33625 PWs)   bands (ev):

   -56.4455 -56.4365 -56.3848 -56.3757 -56.2563 -56.2470 -32.7959 -32.7868
   -32.7327 -32.7234 -32.7048 -32.6944 -32.6464 -32.6367 -32.6217 -32.6134
   -32.5566 -32.5279 -32.4938 -32.4756 -32.4457 -32.4132 -32.3106 -32.3024
    -5.5099  -5.1893  -4.6411  -4.6292  -4.4460  -4.4164  -4.3624  -4.3416
    -4.2656  -4.1875  -4.1111  -3.9745  -3.9352  -3.8963  -3.8223  -3.7323
    -3.7032  -3.6258  -3.5858  -3.4908  -3.3862  -3.3333  -3.2771  -3.2645
    -3.2583  -3.2074  -3.1522  -3.0827  -3.0602  -3.0159  -2.9858  -2.9591
    -2.7992  -2.6937  -1.3688  -1.0937  -0.3487   0.0311   0.1603   0.4314
     0.8008   0.8343   0.9837   0.9932   1.0847   1.2981   1.3583   1.3968
     1.6087   1.6508   1.7862   1.8267   1.8591   1.8777   1.9161   2.0144
     2.1963   2.2851   2.5744

          k =-0.0867 0.0809 0.0000 ( 33609 PWs)   bands (ev):

   -56.4496 -56.4323 -56.3890 -56.3714 -56.2605 -56.2427 -32.8002 -32.7827
   -32.7371 -32.7191 -32.7100 -32.6899 -32.6510 -32.6323 -32.6258 -32.6097
   -32.5942 -32.5659 -32.5311 -32.4377 -32.4073 -32.3754 -32.3146 -32.2986
    -5.6480  -5.0167  -4.7243  -4.7133  -4.6314  -4.4536  -4.4428  -4.3283
    -4.2859  -4.2732  -4.2214  -4.0508  -3.9659  -3.9597  -3.8450  -3.7999
    -3.6234  -3.5930  -3.5706  -3.4575  -3.3267  -3.2928  -3.2588  -3.1909
    -3.1508  -3.1410  -3.1081  -3.0539  -2.9450  -2.9064  -2.8967  -2.6547
    -2.5449  -2.2140  -1.5344  -0.9435  -0.6769  -0.0897  -0.0120   0.4461
     0.6693   0.7256   0.8317   0.9107   0.9844   1.1962   1.2568   1.2682
     1.3703   1.6730   1.8173   1.8622   1.8827   1.9203   1.9737   2.0880
     2.3423   2.4975   2.6236

          k =-0.0867 0.0974 0.0000 ( 33620 PWs)   bands (ev):

   -56.4532 -56.4286 -56.3926 -56.3678 -56.2642 -56.2390 -32.8040 -32.7792
   -32.7409 -32.7155 -32.7146 -32.6861 -32.6550 -32.6294 -32.6287 -32.6264
   -32.6067 -32.5985 -32.5631 -32.4051 -32.3742 -32.3427 -32.3180 -32.2954
    -5.7663  -4.9245  -4.8545  -4.8210  -4.7854  -4.5793  -4.5060  -4.3862
    -4.3119  -4.2571  -4.1916  -4.0977  -4.0218  -3.9164  -3.9050  -3.7936
    -3.5826  -3.5649  -3.4414  -3.4158  -3.3593  -3.2946  -3.2256  -3.1364
    -3.0998  -3.0930  -3.0467  -2.9767  -2.8705  -2.7699  -2.5121  -2.4436
    -2.1518  -1.7200  -1.6247  -1.0274  -0.7386  -0.3229  -0.1236   0.3779
     0.4112   0.6393   0.6547   0.7892   0.8547   1.0608   1.0651   1.1453
     1.1902   1.6339   1.7439   1.8098   1.9064   1.9395   2.0453   2.1951
     2.4322   2.5387   2.5896

          k =-0.0867 0.1139 0.0000 ( 33625 PWs)   bands (ev):

   -56.4560 -56.4258 -56.3953 -56.3650 -56.2670 -56.2362 -32.8069 -32.7766
   -32.7439 -32.7182 -32.7127 -32.6833 -32.6581 -32.6511 -32.6323 -32.6261
   -32.6232 -32.6044 -32.5875 -32.3800 -32.3488 -32.3208 -32.3175 -32.2930
    -5.8578  -5.1345  -4.9594  -4.8575  -4.7050  -4.7003  -4.5588  -4.3784
    -4.2806  -4.2418  -4.1909  -4.1054  -4.0264  -4.0023  -3.9330  -3.7113
    -3.5476  -3.5211  -3.4338  -3.3612  -3.3341  -3.2169  -3.1863  -3.1275
    -3.1193  -3.0887  -2.8792  -2.8197  -2.8141  -2.6449  -2.3898  -1.9898
    -1.9084  -1.8059  -1.3642  -1.0082  -0.4847  -0.4786  -0.2052   0.1398
     0.2764   0.4900   0.5573   0.6143   0.6794   0.8686   0.9198   0.9893
     1.0535   1.5538   1.5567   1.6153   1.9326   1.9996   2.0459   2.2521
     2.4886   2.5267   2.6175

          k =-0.0867 0.1304 0.0000 ( 33592 PWs)   bands (ev):

   -56.4577 -56.4241 -56.3971 -56.3632 -56.2688 -56.2344 -32.8088 -32.7749
   -32.7457 -32.7205 -32.7110 -32.6816 -32.6666 -32.6601 -32.6392 -32.6341
   -32.6241 -32.6032 -32.6026 -32.3642 -32.3327 -32.3224 -32.3018 -32.2915
    -5.9155  -5.2721  -5.0598  -4.8963  -4.7606  -4.6076  -4.5845  -4.3739
    -4.2658  -4.2070  -4.1686  -4.1237  -4.0755  -4.0032  -3.9851  -3.6611
    -3.5169  -3.4886  -3.4674  -3.3381  -3.2342  -3.1822  -3.1727  -3.1139
    -3.0803  -3.0624  -2.7778  -2.7435  -2.6875  -2.5566  -2.3052  -2.0767
    -1.7867  -1.6254  -1.3572  -0.5648  -0.5232  -0.2719  -0.0749  -0.0600
     0.1978   0.3090   0.3864   0.4854   0.5413   0.6602   0.7298   0.9183
     0.9516   1.3125   1.4169   1.4894   1.9252   1.9512   2.1606   2.2684
     2.4941   2.5152   2.5697

          k =-0.0867-0.0512 0.0000 ( 33588 PWs)   bands (ev):

   -56.4583 -56.4235 -56.3977 -56.3626 -56.2694 -56.2337 -32.8094 -32.7743
   -32.7464 -32.7212 -32.7104 -32.6810 -32.6719 -32.6608 -32.6445 -32.6348
   -32.6235 -32.6080 -32.6025 -32.3588 -32.3272 -32.3230 -32.2964 -32.2910
    -5.9350  -5.3196  -5.0960  -4.9098  -4.7755  -4.6109  -4.5538  -4.3717
    -4.2798  -4.1468  -4.1423  -4.1405  -4.1035  -4.0685  -3.9666  -3.6486
    -3.5022  -3.4893  -3.4667  -3.3305  -3.2188  -3.1776  -3.1382  -3.1053
    -3.0781  -3.0228  -2.7653  -2.6917  -2.6241  -2.5236  -2.2726  -2.1617
    -1.7355  -1.7270  -1.1025  -0.5839  -0.4758  -0.1616   0.0663   0.0922
     0.1238   0.2375   0.2969   0.3482   0.4433   0.4900   0.6802   0.9079
     0.9129   1.1816   1.3389   1.4665   1.9205   1.9224   2.2012   2.3727
     2.3866   2.5183   2.5220

     the Fermi energy is     1.0774 ev

!    total energy              =   -1241.45663140 Ry
     estimated scf accuracy    <       0.00000430 Ry
     smearing contrib. (-TS)   =      -0.08369915 Ry
     internal energy E=F+TS    =   -1241.37293225 Ry

     The total energy is F=E-TS. E is the sum of the following terms:
     one-electron contribution =   -9631.52137977 Ry
     hartree contribution      =    4851.07002597 Ry
     xc contribution           =    -314.55791025 Ry
     ewald contribution        =    3853.63632924 Ry
     electric field correction =       0.00000255 Ry

     convergence has been achieved in  18 iterations

     negative rho (up, down):  1.042E-03 0.000E+00

     Forces acting on atoms (cartesian axes, Ry/au):

     atom    1 type  1   force =     0.00729660    0.00430857    0.01671460
     atom    2 type  1   force =     0.00728793    0.00429793    0.01672259
     atom    3 type  2   force =    -0.01048948   -0.00619627   -0.00939393
     atom    4 type  2   force =    -0.01048652   -0.00619015   -0.00938403
     atom    5 type  1   force =    -0.00222334   -0.00131530   -0.00241109
     atom    6 type  1   force =    -0.00224146   -0.00132493   -0.00240804
     atom    7 type  2   force =     0.00439604    0.00257616   -0.00748049
     atom    8 type  2   force =     0.00437783    0.00260603   -0.00747325
     atom    9 type  1   force =     0.00055401    0.00031897    0.00058941
     atom   10 type  1   force =     0.00054393    0.00032339    0.00058423
     atom   11 type  2   force =     0.00049050    0.00030328    0.00197004
     atom   12 type  2   force =     0.00049397    0.00029232    0.00196997

     Total force =     0.037069     Total SCF correction =     0.005312
     SCF correction compared to forces is large: reduce conv_thr to get better values

     Writing output data file ./Ti2Au2/Ti2Au2_beef.save/

     init_run     :     88.13s CPU     88.75s WALL (       1 calls)
     electrons    :   3371.24s CPU   3408.81s WALL (       1 calls)
     forces       :     56.05s CPU     56.31s WALL (       1 calls)

     Called by init_run:
     wfcinit      :     75.78s CPU     76.20s WALL (       1 calls)
     potinit      :      8.64s CPU      8.72s WALL (       1 calls)
     hinit0       :      2.35s CPU      2.36s WALL (       1 calls)

     Called by electrons:
     c_bands      :   2961.02s CPU   2992.07s WALL (      18 calls)
     sum_band     :    369.27s CPU    372.63s WALL (      18 calls)
     v_of_rho     :     30.82s CPU     32.04s WALL (      19 calls)
     newd         :     17.11s CPU     19.05s WALL (      19 calls)
     mix_rho      :      0.75s CPU      0.76s WALL (      18 calls)
     vdW_kernel   :      6.11s CPU      6.12s WALL (       1 calls)

     Called by c_bands:
     init_us_2    :      9.83s CPU      9.91s WALL (    2812 calls)
     cegterg      :   2923.37s CPU   2952.55s WALL (    1332 calls)

     Called by *egterg:
     cdiaghg      :    157.22s CPU    157.56s WALL (    8716 calls)
     h_psi        :   1491.00s CPU   1514.64s WALL (    8790 calls)
     s_psi        :    305.82s CPU    306.53s WALL (    8790 calls)
     g_psi        :      1.42s CPU      1.44s WALL (    7384 calls)

     Called by h_psi:
     h_psi:calbec :    533.00s CPU    535.37s WALL (    8790 calls)
     vloc_psi     :    624.80s CPU    645.36s WALL (    8790 calls)
     add_vuspsi   :    329.26s CPU    329.98s WALL (    8790 calls)

     General routines
     calbec       :    796.34s CPU    799.39s WALL (   10418 calls)
     fft          :     20.62s CPU     21.25s WALL (    1256 calls)
     ffts         :      0.12s CPU      0.13s WALL (      37 calls)
     fftw         :    712.58s CPU    733.97s WALL (  659502 calls)
     interpolate  :      0.32s CPU      0.33s WALL (      19 calls)

     Parallel routines
     fft_scatt_xy :     49.55s CPU     50.08s WALL (  660795 calls)
     fft_scatt_yz :    270.25s CPU    287.48s WALL (  660795 calls)

     PWSCF        :  58m48.93s CPU  59m46.09s WALL


   This run was terminated on:   4: 5:55  25Jun2022            

=------------------------------------------------------------------------------=
   JOB DONE.
=------------------------------------------------------------------------------=
