
     Program PWSCF v.6.6 starts on 25Jun2022 at  4: 5:58 

     This program is part of the open-source Quantum ESPRESSO suite
     for quantum simulation of materials; please cite
         "P. Giannozzi et al., J. Phys.:Condens. Matter 21 395502 (2009);
         "P. Giannozzi et al., J. Phys.:Condens. Matter 29 465901 (2017);
          URL http://www.quantum-espresso.org", 
     in publications or presentations arising from this work. More details at
     http://www.quantum-espresso.org/quote

     Parallel version (MPI), running on    37 processors

     MPI processes distributed on     1 nodes
     R & G space division:  proc/nbgrp/npool/nimage =      37
     Fft bands division:     nmany     =       1
     Reading input from Ti2Cd2.in
Warning: card &CELL ignored
Warning: card / ignored

     Current dimensions of program PWSCF are:
     Max number of different atomic species (ntypx) = 10
     Max number of k-points (npk) =  40000
     Max angular momentum in pseudopotentials (lmaxx) =  3
     Presently stress not available with electric field and gates

     Message from routine cell_base_init:
     DEPRECATED: use true lattice parameter, not A to a.u. conversion factor
     file Ti.pbe-spn-rrkjus_psl.1.0.0.UPF: wavefunction(s)  3S 3D renormalized
     file Cd.pbe-n-rrkjus_psl.1.0.0.UPF: wavefunction(s)  4D renormalized

     **************************************************************************
     Initializing libbeef V0.1.2 with the BEEF-vdW functional.
     Citation: Wellendorff et al., PRB 85, 235149 (2012).
     **************************************************************************


     IMPORTANT: XC functional enforced from input :
     Exchange-correlation= BEEF-VDW
                           (   1   4  43  14   2   0   0)
     Any further DFT definition will be discarded
     Please, verify this is what you really want


     Subspace diagonalization in iterative solution of the eigenvalue problem:
     a serial algorithm will be used


     Parallelization info
     --------------------
     sticks:   dense  smooth     PW     G-vecs:    dense   smooth      PW
     Min         131      52     15                30887     7810    1209
     Max         132      53     16                30904     7827    1220
     Sum        4871    1945    567              1143141   289255   44869



     bravais-lattice index     =            0
     lattice parameter (alat)  =       1.8897  a.u.
     unit-cell volume          =    5231.4875 (a.u.)^3
     number of atoms/cell      =           12
     number of atomic types    =            2
     number of electrons       =       144.00
     number of Kohn-Sham states=           86
     kinetic-energy cutoff     =      55.1240  Ry
     charge density cutoff     =     551.2396  Ry
     convergence threshold     =      1.0E-05
     mixing beta               =       0.1000
     number of iterations used =           10  plain     mixing
     Exchange-correlation= BEEF-VDW
                           (   1   4  43  14   2   0   0)

     celldm(1)=   1.889726  celldm(2)=   0.000000  celldm(3)=   0.000000
     celldm(4)=   0.000000  celldm(5)=   0.000000  celldm(6)=   0.000000

     crystal axes: (cart. coord. in units of alat)
               a(1) = (   5.937415   0.000000   0.000000 )  
               a(2) = (  -2.968708   5.244746   0.000000 )  
               a(3) = (   0.000000   0.000000  24.894695 )  

     reciprocal axes: (cart. coord. in units 2 pi/alat)
               b(1) = (  0.168423  0.095334 -0.000000 )  
               b(2) = (  0.000000  0.190667  0.000000 )  
               b(3) = (  0.000000 -0.000000  0.040169 )  


     PseudoPot. # 1 for Ti read from file:
     ../pseudo/Ti.pbe-spn-rrkjus_psl.1.0.0.UPF
     MD5 check sum: e281089c08e14b8efcf92e44a67ada65
     Pseudo is Ultrasoft + core correction, Zval = 12.0
     Generated using "atomic" code by A. Dal Corso v.6.2.2
     Using radial grid of 1177 points,  6 beta functions with: 
                l(1) =   0
                l(2) =   0
                l(3) =   1
                l(4) =   1
                l(5) =   2
                l(6) =   2
     Q(r) pseudized with 0 coefficients 


     PseudoPot. # 2 for Cd read from file:
     ../pseudo/Cd.pbe-n-rrkjus_psl.1.0.0.UPF
     MD5 check sum: a744746c89d2344a134ead0d8ab94e7a
     Pseudo is Ultrasoft + core correction, Zval = 12.0
     Generated using "atomic" code by A. Dal Corso v.6.3
     Using radial grid of 1239 points,  6 beta functions with: 
                l(1) =   0
                l(2) =   0
                l(3) =   1
                l(4) =   1
                l(5) =   2
                l(6) =   2
     Q(r) pseudized with 0 coefficients 


     atomic species   valence    mass     pseudopotential
        Ti            12.00    47.86700     Ti( 1.00)
        Cd            12.00   112.41400     Cd( 1.00)

     No symmetry found



   Cartesian axes

     site n.     atom                  positions (alat units)
         1           Ti  tau(   1) = (   0.0000000   0.0000000  10.0000000  )
         2           Ti  tau(   2) = (   2.9687077   0.0000000  10.0000000  )
         3           Cd  tau(   3) = (   1.4843539   2.6223728  10.0000000  )
         4           Cd  tau(   4) = (  -1.4843539   2.6223728  10.0000000  )
         5           Ti  tau(   5) = (   2.9687077   1.6803914  12.4473476  )
         6           Ti  tau(   6) = (  -0.0000000   1.6803914  12.4473476  )
         7           Cd  tau(   7) = (  -1.4843539   4.3027643  12.4473476  )
         8           Cd  tau(   8) = (   1.4843539   4.3027643  12.4473476  )
         9           Ti  tau(   9) = (   0.0000037   3.1968027  14.7498485  )
        10           Ti  tau(  10) = (   2.9687092   3.1967744  14.7498177  )
        11           Cd  tau(  11) = (   4.4529671   0.6084806  15.0664095  )
        12           Cd  tau(  12) = (   1.4844706   0.6084912  15.0664151  )

     number of k points=    74  Fermi-Dirac smearing, width (Ry)=  0.0100
                       cart. coord. in units 2pi/alat
        k(    1) = (   0.0000000   0.0000000   0.0000000), wk =   0.0138889
        k(    2) = (   0.0000000   0.0158889   0.0000000), wk =   0.0277778
        k(    3) = (   0.0000000   0.0317778   0.0000000), wk =   0.0277778
        k(    4) = (   0.0000000   0.0476668   0.0000000), wk =   0.0277778
        k(    5) = (   0.0000000   0.0635557   0.0000000), wk =   0.0277778
        k(    6) = (   0.0000000   0.0794446   0.0000000), wk =   0.0277778
        k(    7) = (   0.0000000  -0.0953335   0.0000000), wk =   0.0138889
        k(    8) = (   0.0140353   0.0079445   0.0000000), wk =   0.0277778
        k(    9) = (   0.0140353   0.0238334   0.0000000), wk =   0.0277778
        k(   10) = (   0.0140353   0.0397223   0.0000000), wk =   0.0277778
        k(   11) = (   0.0140353   0.0556112   0.0000000), wk =   0.0277778
        k(   12) = (   0.0140353   0.0715001   0.0000000), wk =   0.0277778
        k(   13) = (   0.0140353   0.0873890   0.0000000), wk =   0.0277778
        k(   14) = (   0.0140353  -0.0873890   0.0000000), wk =   0.0277778
        k(   15) = (   0.0140353  -0.0715001   0.0000000), wk =   0.0277778
        k(   16) = (   0.0140353  -0.0556112   0.0000000), wk =   0.0277778
        k(   17) = (   0.0140353  -0.0397223   0.0000000), wk =   0.0277778
        k(   18) = (   0.0140353  -0.0238334   0.0000000), wk =   0.0277778
        k(   19) = (   0.0140353  -0.0079445   0.0000000), wk =   0.0277778
        k(   20) = (   0.0280706   0.0158889   0.0000000), wk =   0.0277778
        k(   21) = (   0.0280706   0.0317778   0.0000000), wk =   0.0277778
        k(   22) = (   0.0280706   0.0476668   0.0000000), wk =   0.0277778
        k(   23) = (   0.0280706   0.0635557   0.0000000), wk =   0.0277778
        k(   24) = (   0.0280706   0.0794446   0.0000000), wk =   0.0277778
        k(   25) = (   0.0280706   0.0953335   0.0000000), wk =   0.0277778
        k(   26) = (   0.0280706  -0.0794446   0.0000000), wk =   0.0277778
        k(   27) = (   0.0280706  -0.0635557   0.0000000), wk =   0.0277778
        k(   28) = (   0.0280706  -0.0476667   0.0000000), wk =   0.0277778
        k(   29) = (   0.0280706  -0.0317778   0.0000000), wk =   0.0277778
        k(   30) = (   0.0280706  -0.0158889   0.0000000), wk =   0.0277778
        k(   31) = (   0.0280706   0.0000000   0.0000000), wk =   0.0277778
        k(   32) = (   0.0421059   0.0238334   0.0000000), wk =   0.0277778
        k(   33) = (   0.0421059   0.0397223   0.0000000), wk =   0.0277778
        k(   34) = (   0.0421059   0.0556112   0.0000000), wk =   0.0277778
        k(   35) = (   0.0421059   0.0715001   0.0000000), wk =   0.0277778
        k(   36) = (   0.0421059   0.0873890   0.0000000), wk =   0.0277778
        k(   37) = (   0.0421059   0.1032780   0.0000000), wk =   0.0277778
        k(   38) = (   0.0421059  -0.0715001   0.0000000), wk =   0.0277778
        k(   39) = (   0.0421059  -0.0556112   0.0000000), wk =   0.0277778
        k(   40) = (   0.0421059  -0.0397223   0.0000000), wk =   0.0277778
        k(   41) = (   0.0421059  -0.0238334   0.0000000), wk =   0.0277778
        k(   42) = (   0.0421059  -0.0079445   0.0000000), wk =   0.0277778
        k(   43) = (   0.0421059   0.0079445   0.0000000), wk =   0.0277778
        k(   44) = (   0.0561412   0.0317778   0.0000000), wk =   0.0277778
        k(   45) = (   0.0561412   0.0476668   0.0000000), wk =   0.0277778
        k(   46) = (   0.0561412   0.0635557   0.0000000), wk =   0.0277778
        k(   47) = (   0.0561412   0.0794446   0.0000000), wk =   0.0277778
        k(   48) = (   0.0561412   0.0953335   0.0000000), wk =   0.0277778
        k(   49) = (   0.0561412   0.1112224   0.0000000), wk =   0.0277778
        k(   50) = (   0.0561412  -0.0635557   0.0000000), wk =   0.0277778
        k(   51) = (   0.0561412  -0.0476667   0.0000000), wk =   0.0277778
        k(   52) = (   0.0561412  -0.0317778   0.0000000), wk =   0.0277778
        k(   53) = (   0.0561412  -0.0158889   0.0000000), wk =   0.0277778
        k(   54) = (   0.0561412   0.0000000   0.0000000), wk =   0.0277778
        k(   55) = (   0.0561412   0.0158889   0.0000000), wk =   0.0277778
        k(   56) = (   0.0701764   0.0397223   0.0000000), wk =   0.0277778
        k(   57) = (   0.0701764   0.0556112   0.0000000), wk =   0.0277778
        k(   58) = (   0.0701764   0.0715001   0.0000000), wk =   0.0277778
        k(   59) = (   0.0701764   0.0873890   0.0000000), wk =   0.0277778
        k(   60) = (   0.0701764   0.1032780   0.0000000), wk =   0.0277778
        k(   61) = (   0.0701764   0.1191669   0.0000000), wk =   0.0277778
        k(   62) = (   0.0701764  -0.0556112   0.0000000), wk =   0.0277778
        k(   63) = (   0.0701764  -0.0397223   0.0000000), wk =   0.0277778
        k(   64) = (   0.0701764  -0.0238334   0.0000000), wk =   0.0277778
        k(   65) = (   0.0701764  -0.0079445   0.0000000), wk =   0.0277778
        k(   66) = (   0.0701764   0.0079445   0.0000000), wk =   0.0277778
        k(   67) = (   0.0701764   0.0238334   0.0000000), wk =   0.0277778
        k(   68) = (  -0.0842117  -0.0476668   0.0000000), wk =   0.0138889
        k(   69) = (  -0.0842117  -0.0317778   0.0000000), wk =   0.0277778
        k(   70) = (  -0.0842117  -0.0158889   0.0000000), wk =   0.0277778
        k(   71) = (  -0.0842117  -0.0000000   0.0000000), wk =   0.0277778
        k(   72) = (  -0.0842117   0.0158889   0.0000000), wk =   0.0277778
        k(   73) = (  -0.0842117   0.0317778   0.0000000), wk =   0.0277778
        k(   74) = (  -0.0842117  -0.1430003   0.0000000), wk =   0.0138889

     Dense  grid:  1143141 G-vectors     FFT dimensions: (  90,  90, 360)

     Smooth grid:   289255 G-vectors     FFT dimensions: (  54,  54, 225)

     Estimated max dynamical RAM per process >     219.72 MB

     Estimated total dynamical RAM >       7.94 GB

     Initial potential from superposition of free atoms

     starting charge  143.96183, renormalised to  144.00000

     negative rho (up, down):  2.891E-03 0.000E+00


     %%%%%%%%%%%%%%%%%%%%%%%%%%%%%%%%%%%%%%%%%%%%%%%%%%%%%%%%%%%%%%%%%%%%%%%%
     %                                                                      %
     % You are using vdW-DF, which was implemented by the Thonhauser group. %
     % Please cite the following two papers that made this development      %
     % possible and the two reviews that describe the various versions:     %
     %                                                                      %
     %   T. Thonhauser et al., PRL 115, 136402 (2015).                      %
     %   T. Thonhauser et al., PRB 76, 125112 (2007).                       %
     %   K. Berland et al., Rep. Prog. Phys. 78, 066501 (2015).             %
     %   D.C. Langreth et al., J. Phys.: Condens. Matter 21, 084203 (2009). %
     %                                                                      %
     %                                                                      %
     % If you are calculating the stress with vdW-DF, please also cite:     %
     %                                                                      %
     %   R. Sabatini et al., J. Phys.: Condens. Matter 24, 424209 (2012).   %
     %                                                                      %
     %%%%%%%%%%%%%%%%%%%%%%%%%%%%%%%%%%%%%%%%%%%%%%%%%%%%%%%%%%%%%%%%%%%%%%%%



     Adding external electric field

     Computed dipole along edir(3) : 
        Dipole                0.0020 Ry au,          0.0052 Debye
        Dipole field          0.0000 Ry au, 

        Potential amp.       -0.0004 Ry
        Total length         45.8680 bohr

     Starting wfcs are  114 randomized atomic wfcs

     total cpu time spent up to now is      111.1 secs

     Self-consistent Calculation

     iteration #  1     ecut=    55.12 Ry     beta= 0.10
     Davidson diagonalization with overlap
     ethr =  1.00E-02,  avg # of iterations =  2.0

     negative rho (up, down):  2.782E-03 0.000E+00

     Adding external electric field

     Computed dipole along edir(3) : 
        Dipole               -0.4545 Ry au,         -1.1553 Debye
        Dipole field         -0.0011 Ry au, 

        Potential amp.        0.1002 Ry
        Total length         45.8680 bohr


     total cpu time spent up to now is      306.2 secs

     total energy              =   -1329.04880508 Ry
     estimated scf accuracy    <       3.84734205 Ry

     iteration #  2     ecut=    55.12 Ry     beta= 0.10
     Davidson diagonalization with overlap
     ethr =  2.67E-03,  avg # of iterations =  3.0

     negative rho (up, down):  2.843E-03 0.000E+00

     Adding external electric field

     Computed dipole along edir(3) : 
        Dipole                0.4673 Ry au,          1.1878 Debye
        Dipole field          0.0011 Ry au, 

        Potential amp.       -0.1030 Ry
        Total length         45.8680 bohr


     total cpu time spent up to now is      500.1 secs

     total energy              =   -1328.93571536 Ry
     estimated scf accuracy    <      21.65821241 Ry

     iteration #  3     ecut=    55.12 Ry     beta= 0.10
     Davidson diagonalization with overlap
     ethr =  2.67E-03,  avg # of iterations =  1.9

     negative rho (up, down):  2.854E-03 0.000E+00

     Adding external electric field

     Computed dipole along edir(3) : 
        Dipole               -0.0142 Ry au,         -0.0362 Debye
        Dipole field         -0.0000 Ry au, 

        Potential amp.        0.0031 Ry
        Total length         45.8680 bohr


     total cpu time spent up to now is      675.9 secs

     total energy              =   -1329.28357289 Ry
     estimated scf accuracy    <      18.76830572 Ry

     iteration #  4     ecut=    55.12 Ry     beta= 0.10
     Davidson diagonalization with overlap
     ethr =  2.67E-03,  avg # of iterations =  1.1

     negative rho (up, down):  2.837E-03 0.000E+00

     Adding external electric field

     Computed dipole along edir(3) : 
        Dipole               -0.0211 Ry au,         -0.0537 Debye
        Dipole field         -0.0001 Ry au, 

        Potential amp.        0.0047 Ry
        Total length         45.8680 bohr


     total cpu time spent up to now is      837.6 secs

     total energy              =   -1329.47702986 Ry
     estimated scf accuracy    <       0.37069993 Ry

     iteration #  5     ecut=    55.12 Ry     beta= 0.10
     Davidson diagonalization with overlap
     ethr =  2.57E-04,  avg # of iterations = 10.2

     negative rho (up, down):  2.835E-03 0.000E+00

     Adding external electric field

     Computed dipole along edir(3) : 
        Dipole               -0.0532 Ry au,         -0.1353 Debye
        Dipole field         -0.0001 Ry au, 

        Potential amp.        0.0117 Ry
        Total length         45.8680 bohr


     total cpu time spent up to now is     1094.1 secs

     total energy              =   -1329.51305949 Ry
     estimated scf accuracy    <       0.17434271 Ry

     iteration #  6     ecut=    55.12 Ry     beta= 0.10
     Davidson diagonalization with overlap
     ethr =  1.21E-04,  avg # of iterations =  3.1

     negative rho (up, down):  3.085E-03 0.000E+00

     Adding external electric field

     Computed dipole along edir(3) : 
        Dipole               -0.1319 Ry au,         -0.3353 Debye
        Dipole field         -0.0003 Ry au, 

        Potential amp.        0.0291 Ry
        Total length         45.8680 bohr


     total cpu time spent up to now is     1287.4 secs

     total energy              =   -1329.50277304 Ry
     estimated scf accuracy    <       0.14271783 Ry

     iteration #  7     ecut=    55.12 Ry     beta= 0.10
     Davidson diagonalization with overlap
     ethr =  9.91E-05,  avg # of iterations =  7.5

     negative rho (up, down):  2.940E-03 0.000E+00

     Adding external electric field

     Computed dipole along edir(3) : 
        Dipole               -0.1054 Ry au,         -0.2678 Debye
        Dipole field         -0.0003 Ry au, 

        Potential amp.        0.0232 Ry
        Total length         45.8680 bohr


     total cpu time spent up to now is     1573.8 secs

     total energy              =   -1329.52037741 Ry
     estimated scf accuracy    <       0.25632670 Ry

     iteration #  8     ecut=    55.12 Ry     beta= 0.10
     Davidson diagonalization with overlap
     ethr =  9.91E-05,  avg # of iterations =  1.8

     negative rho (up, down):  2.883E-03 0.000E+00

     Adding external electric field

     Computed dipole along edir(3) : 
        Dipole               -0.0622 Ry au,         -0.1582 Debye
        Dipole field         -0.0001 Ry au, 

        Potential amp.        0.0137 Ry
        Total length         45.8680 bohr


     total cpu time spent up to now is     1758.2 secs

     total energy              =   -1329.49948051 Ry
     estimated scf accuracy    <       0.13427801 Ry

     iteration #  9     ecut=    55.12 Ry     beta= 0.10
     Davidson diagonalization with overlap
     ethr =  9.32E-05,  avg # of iterations =  2.3

     negative rho (up, down):  2.983E-03 0.000E+00

     Adding external electric field

     Computed dipole along edir(3) : 
        Dipole               -0.0363 Ry au,         -0.0924 Debye
        Dipole field         -0.0001 Ry au, 

        Potential amp.        0.0080 Ry
        Total length         45.8680 bohr


     total cpu time spent up to now is     1942.2 secs

     total energy              =   -1329.50489150 Ry
     estimated scf accuracy    <       0.03092699 Ry

     iteration # 10     ecut=    55.12 Ry     beta= 0.10
     Davidson diagonalization with overlap
     c_bands:  1 eigenvalues not converged
     c_bands:  4 eigenvalues not converged
     c_bands:  1 eigenvalues not converged
     c_bands:  2 eigenvalues not converged
     c_bands:  1 eigenvalues not converged
     ethr =  2.15E-05,  avg # of iterations =  9.9

     negative rho (up, down):  3.152E-03 0.000E+00

     Adding external electric field

     Computed dipole along edir(3) : 
        Dipole               -0.0351 Ry au,         -0.0892 Debye
        Dipole field         -0.0001 Ry au, 

        Potential amp.        0.0077 Ry
        Total length         45.8680 bohr


     total cpu time spent up to now is     2247.9 secs

     total energy              =   -1329.51683280 Ry
     estimated scf accuracy    <       0.04380229 Ry

     iteration # 11     ecut=    55.12 Ry     beta= 0.10
     Davidson diagonalization with overlap
     ethr =  2.15E-05,  avg # of iterations =  1.6

     negative rho (up, down):  3.089E-03 0.000E+00

     Adding external electric field

     Computed dipole along edir(3) : 
        Dipole               -0.0382 Ry au,         -0.0972 Debye
        Dipole field         -0.0001 Ry au, 

        Potential amp.        0.0084 Ry
        Total length         45.8680 bohr


     total cpu time spent up to now is     2414.7 secs

     total energy              =   -1329.51619584 Ry
     estimated scf accuracy    <       0.02761924 Ry

     iteration # 12     ecut=    55.12 Ry     beta= 0.10
     Davidson diagonalization with overlap
     ethr =  1.92E-05,  avg # of iterations =  1.1

     negative rho (up, down):  3.290E-03 0.000E+00

     Adding external electric field

     Computed dipole along edir(3) : 
        Dipole               -0.0558 Ry au,         -0.1418 Debye
        Dipole field         -0.0001 Ry au, 

        Potential amp.        0.0123 Ry
        Total length         45.8680 bohr


     total cpu time spent up to now is     2580.3 secs

     total energy              =   -1329.51130207 Ry
     estimated scf accuracy    <       0.02045444 Ry

     iteration # 13     ecut=    55.12 Ry     beta= 0.10
     Davidson diagonalization with overlap
     ethr =  1.42E-05,  avg # of iterations =  5.2

     negative rho (up, down):  3.301E-03 0.000E+00

     Adding external electric field

     Computed dipole along edir(3) : 
        Dipole               -0.0577 Ry au,         -0.1466 Debye
        Dipole field         -0.0001 Ry au, 

        Potential amp.        0.0127 Ry
        Total length         45.8680 bohr


     total cpu time spent up to now is     2780.8 secs

     total energy              =   -1329.51450625 Ry
     estimated scf accuracy    <       0.00154753 Ry

     iteration # 14     ecut=    55.12 Ry     beta= 0.10
     Davidson diagonalization with overlap
     c_bands:  1 eigenvalues not converged
     c_bands:  2 eigenvalues not converged
     c_bands:  1 eigenvalues not converged
     c_bands:  2 eigenvalues not converged
     c_bands:  1 eigenvalues not converged
     c_bands:  4 eigenvalues not converged
     c_bands:  3 eigenvalues not converged
     c_bands:  2 eigenvalues not converged
     c_bands:  4 eigenvalues not converged
     c_bands:  4 eigenvalues not converged
     c_bands:  2 eigenvalues not converged
     c_bands:  2 eigenvalues not converged
     c_bands:  2 eigenvalues not converged
     c_bands:  3 eigenvalues not converged
     c_bands:  1 eigenvalues not converged
     c_bands:  3 eigenvalues not converged
     c_bands:  2 eigenvalues not converged
     c_bands:  3 eigenvalues not converged
     c_bands:  3 eigenvalues not converged
     c_bands:  1 eigenvalues not converged
     c_bands:  5 eigenvalues not converged
     c_bands:  2 eigenvalues not converged
     c_bands:  1 eigenvalues not converged
     c_bands:  3 eigenvalues not converged
     c_bands:  1 eigenvalues not converged
     c_bands:  2 eigenvalues not converged
     c_bands:  1 eigenvalues not converged
     c_bands:  3 eigenvalues not converged
     c_bands:  2 eigenvalues not converged
     c_bands:  5 eigenvalues not converged
     c_bands:  2 eigenvalues not converged
     c_bands:  5 eigenvalues not converged
     c_bands:  1 eigenvalues not converged
     c_bands:  1 eigenvalues not converged
     c_bands:  2 eigenvalues not converged
     c_bands:  3 eigenvalues not converged
     c_bands:  2 eigenvalues not converged
     c_bands:  2 eigenvalues not converged
     c_bands:  3 eigenvalues not converged
     c_bands:  1 eigenvalues not converged
     c_bands:  4 eigenvalues not converged
     c_bands:  2 eigenvalues not converged
     c_bands:  1 eigenvalues not converged
     c_bands:  5 eigenvalues not converged
     c_bands:  5 eigenvalues not converged
     c_bands:  2 eigenvalues not converged
     c_bands:  1 eigenvalues not converged
     c_bands:  2 eigenvalues not converged
     c_bands:  4 eigenvalues not converged
     c_bands:  5 eigenvalues not converged
     c_bands:  3 eigenvalues not converged
     c_bands:  2 eigenvalues not converged
     c_bands:  3 eigenvalues not converged
     c_bands:  2 eigenvalues not converged
     c_bands:  1 eigenvalues not converged
     c_bands:  5 eigenvalues not converged
     c_bands:  1 eigenvalues not converged
     c_bands:  4 eigenvalues not converged
     c_bands:  4 eigenvalues not converged
     c_bands:  1 eigenvalues not converged
     c_bands:  2 eigenvalues not converged
     ethr =  1.07E-06,  avg # of iterations = 20.3

     negative rho (up, down):  3.274E-03 0.000E+00

     Adding external electric field

     Computed dipole along edir(3) : 
        Dipole               -0.0569 Ry au,         -0.1447 Debye
        Dipole field         -0.0001 Ry au, 

        Potential amp.        0.0125 Ry
        Total length         45.8680 bohr


     total cpu time spent up to now is     3230.9 secs

     total energy              =   -1329.51494105 Ry
     estimated scf accuracy    <       0.00428766 Ry

     iteration # 15     ecut=    55.12 Ry     beta= 0.10
     Davidson diagonalization with overlap
     c_bands:  1 eigenvalues not converged
     c_bands:  1 eigenvalues not converged
     c_bands:  2 eigenvalues not converged
     c_bands:  1 eigenvalues not converged
     c_bands:  2 eigenvalues not converged
     c_bands:  1 eigenvalues not converged
     c_bands:  1 eigenvalues not converged
     c_bands:  2 eigenvalues not converged
     c_bands:  1 eigenvalues not converged
     c_bands:  1 eigenvalues not converged
     c_bands:  1 eigenvalues not converged
     c_bands:  2 eigenvalues not converged
     c_bands:  2 eigenvalues not converged
     c_bands:  1 eigenvalues not converged
     c_bands:  1 eigenvalues not converged
     c_bands:  2 eigenvalues not converged
     c_bands:  3 eigenvalues not converged
     c_bands:  1 eigenvalues not converged
     c_bands:  1 eigenvalues not converged
     c_bands:  2 eigenvalues not converged
     c_bands:  1 eigenvalues not converged
     c_bands:  1 eigenvalues not converged
     c_bands:  2 eigenvalues not converged
     c_bands:  2 eigenvalues not converged
     c_bands:  1 eigenvalues not converged
     c_bands:  2 eigenvalues not converged
     c_bands:  1 eigenvalues not converged
     c_bands:  1 eigenvalues not converged
     c_bands:  1 eigenvalues not converged
     c_bands:  1 eigenvalues not converged
     c_bands:  1 eigenvalues not converged
     ethr =  1.07E-06,  avg # of iterations = 11.2

     negative rho (up, down):  3.174E-03 0.000E+00

     Adding external electric field

     Computed dipole along edir(3) : 
        Dipole               -0.0540 Ry au,         -0.1374 Debye
        Dipole field         -0.0001 Ry au, 

        Potential amp.        0.0119 Ry
        Total length         45.8680 bohr


     total cpu time spent up to now is     3464.0 secs

     total energy              =   -1329.51486251 Ry
     estimated scf accuracy    <       0.00140963 Ry

     iteration # 16     ecut=    55.12 Ry     beta= 0.10
     Davidson diagonalization with overlap
     c_bands:  1 eigenvalues not converged
     c_bands:  1 eigenvalues not converged
     c_bands:  2 eigenvalues not converged
     c_bands:  1 eigenvalues not converged
     ethr =  9.79E-07,  avg # of iterations =  8.6

     negative rho (up, down):  3.180E-03 0.000E+00

     Adding external electric field

     Computed dipole along edir(3) : 
        Dipole               -0.0548 Ry au,         -0.1392 Debye
        Dipole field         -0.0001 Ry au, 

        Potential amp.        0.0121 Ry
        Total length         45.8680 bohr


     total cpu time spent up to now is     3686.5 secs

     total energy              =   -1329.51513809 Ry
     estimated scf accuracy    <       0.00012272 Ry

     iteration # 17     ecut=    55.12 Ry     beta= 0.10
     Davidson diagonalization with overlap
     c_bands:  2 eigenvalues not converged
     ethr =  8.52E-08,  avg # of iterations =  8.3

     negative rho (up, down):  3.179E-03 0.000E+00

     Adding external electric field

     Computed dipole along edir(3) : 
        Dipole               -0.0536 Ry au,         -0.1361 Debye
        Dipole field         -0.0001 Ry au, 

        Potential amp.        0.0118 Ry
        Total length         45.8680 bohr


     total cpu time spent up to now is     3959.0 secs

     total energy              =   -1329.51524033 Ry
     estimated scf accuracy    <       0.00010656 Ry

     iteration # 18     ecut=    55.12 Ry     beta= 0.10
     Davidson diagonalization with overlap
     ethr =  7.40E-08,  avg # of iterations =  4.0

     negative rho (up, down):  3.128E-03 0.000E+00

     Adding external electric field

     Computed dipole along edir(3) : 
        Dipole               -0.0512 Ry au,         -0.1301 Debye
        Dipole field         -0.0001 Ry au, 

        Potential amp.        0.0113 Ry
        Total length         45.8680 bohr


     total cpu time spent up to now is     4154.0 secs

     total energy              =   -1329.51517407 Ry
     estimated scf accuracy    <       0.00029915 Ry

     iteration # 19     ecut=    55.12 Ry     beta= 0.10
     Davidson diagonalization with overlap
     c_bands:  1 eigenvalues not converged
     ethr =  7.40E-08,  avg # of iterations =  6.2

     negative rho (up, down):  3.070E-03 0.000E+00

     Adding external electric field

     Computed dipole along edir(3) : 
        Dipole               -0.0518 Ry au,         -0.1316 Debye
        Dipole field         -0.0001 Ry au, 

        Potential amp.        0.0114 Ry
        Total length         45.8680 bohr


     total cpu time spent up to now is     4370.2 secs

     total energy              =   -1329.51520462 Ry
     estimated scf accuracy    <       0.00001943 Ry

     iteration # 20     ecut=    55.12 Ry     beta= 0.10
     Davidson diagonalization with overlap
     ethr =  1.35E-08,  avg # of iterations =  8.0

     negative rho (up, down):  3.029E-03 0.000E+00

     Adding external electric field

     Computed dipole along edir(3) : 
        Dipole               -0.0521 Ry au,         -0.1324 Debye
        Dipole field         -0.0001 Ry au, 

        Potential amp.        0.0115 Ry
        Total length         45.8680 bohr


     total cpu time spent up to now is     4649.2 secs

     total energy              =   -1329.51521378 Ry
     estimated scf accuracy    <       0.00001819 Ry

     iteration # 21     ecut=    55.12 Ry     beta= 0.10
     Davidson diagonalization with overlap
     ethr =  1.26E-08,  avg # of iterations =  4.1

     negative rho (up, down):  3.001E-03 0.000E+00

     Adding external electric field

     Computed dipole along edir(3) : 
        Dipole               -0.0529 Ry au,         -0.1346 Debye
        Dipole field         -0.0001 Ry au, 

        Potential amp.        0.0117 Ry
        Total length         45.8680 bohr


     total cpu time spent up to now is     4847.5 secs

     total energy              =   -1329.51520695 Ry
     estimated scf accuracy    <       0.00002535 Ry

     iteration # 22     ecut=    55.12 Ry     beta= 0.10
     Davidson diagonalization with overlap
     ethr =  1.26E-08,  avg # of iterations =  5.3

     negative rho (up, down):  2.805E-03 0.000E+00

     Adding external electric field

     Computed dipole along edir(3) : 
        Dipole               -0.0464 Ry au,         -0.1180 Debye
        Dipole field         -0.0001 Ry au, 

        Potential amp.        0.0102 Ry
        Total length         45.8680 bohr


     total cpu time spent up to now is     5069.4 secs

     End of self-consistent calculation

          k = 0.0000 0.0000 0.0000 ( 36189 PWs)   bands (ev):

   -56.7095 -56.6795 -56.5892 -56.5588 -56.3933 -56.3628 -33.0724 -33.0426
   -32.9565 -32.9394 -32.9253 -32.9123 -32.9094 -32.8487 -32.8416 -32.8169
   -32.7750 -32.7434 -32.7030 -32.6368 -32.5636 -32.4621 -32.4349 -32.4255
    -8.7387  -8.6213  -8.5985  -8.5278  -8.4697  -8.3764  -8.3755  -8.3714
    -8.3067  -8.2957  -8.2263  -8.2234  -8.0586  -8.0414  -7.9904  -7.9526
    -7.9003  -7.8803  -7.8473  -7.8234  -7.7806  -7.7767  -7.7567  -7.7425
    -7.6925  -7.6482  -7.6334  -7.5662  -7.4991  -7.2619  -6.4808  -4.9603
    -3.0620  -2.0653  -1.3607  -1.0922  -0.8154  -0.7382  -0.6403  -0.2170
    -0.1805  -0.0942   0.0527   0.1656   0.4838   0.5566   0.6575   0.8275
     0.8484   0.8897   0.9878   0.9946   1.2115   1.2503   1.3872   1.5294
     1.8295   1.8405   2.0017   2.2422   2.3506   2.3583

          k = 0.0000 0.0159 0.0000 ( 36215 PWs)   bands (ev):

   -56.7095 -56.6795 -56.5892 -56.5588 -56.3933 -56.3628 -33.0724 -33.0426
   -32.9565 -32.9395 -32.9253 -32.9123 -32.9094 -32.8488 -32.8416 -32.8169
   -32.7750 -32.7435 -32.7030 -32.6369 -32.5637 -32.4621 -32.4349 -32.4255
    -8.7379  -8.6177  -8.5982  -8.5277  -8.4643  -8.3724  -8.3723  -8.3650
    -8.3041  -8.2962  -8.2239  -8.2238  -8.0548  -8.0411  -7.9914  -7.9509
    -7.9019  -7.8794  -7.8465  -7.8163  -7.7780  -7.7759  -7.7600  -7.7414
    -7.6919  -7.6480  -7.6368  -7.5662  -7.4983  -7.2619  -6.4381  -4.9257
    -3.0572  -2.0546  -1.3552  -1.1930  -1.0809  -0.8981  -0.4744  -0.3052
    -0.1337  -0.1175   0.0878   0.1625   0.4496   0.5183   0.6271   0.7141
     0.8063   0.8260   0.9337   1.0167   1.1897   1.1934   1.4864   1.5285
     1.8787   1.9403   2.0035   2.2321   2.2401   2.3393

          k = 0.0000 0.0318 0.0000 ( 36153 PWs)   bands (ev):

   -56.7094 -56.6794 -56.5892 -56.5588 -56.3932 -56.3628 -33.0725 -33.0426
   -32.9567 -32.9397 -32.9253 -32.9124 -32.9094 -32.8490 -32.8417 -32.8169
   -32.7750 -32.7437 -32.7031 -32.6369 -32.5637 -32.4621 -32.4349 -32.4255
    -8.7355  -8.6079  -8.5974  -8.5272  -8.4496  -8.3629  -8.3617  -8.3477
    -8.2976  -8.2969  -8.2251  -8.2168  -8.0449  -8.0404  -7.9938  -7.9464
    -7.9034  -7.8770  -7.8448  -7.8010  -7.7736  -7.7692  -7.7686  -7.7381
    -7.6902  -7.6476  -7.6458  -7.5661  -7.4967  -7.2617  -6.3107  -4.8262
    -3.0660  -2.0243  -1.6667  -1.3425  -1.2005  -1.0439  -0.8376  -0.1923
    -0.1745  -0.1513   0.1005   0.1521   0.2877   0.3355   0.5892   0.6075
     0.6595   0.8054   0.8117   1.0442   1.0501   1.2299   1.5147   1.5999
     1.8910   1.9758   2.1527   2.2058   2.2136   2.2718

          k = 0.0000 0.0477 0.0000 ( 36165 PWs)   bands (ev):

   -56.7094 -56.6795 -56.5892 -56.5588 -56.3932 -56.3628 -33.0726 -33.0426
   -32.9570 -32.9399 -32.9254 -32.9126 -32.9093 -32.8492 -32.8418 -32.8170
   -32.7750 -32.7439 -32.7032 -32.6369 -32.5637 -32.4622 -32.4350 -32.4256
    -8.7323  -8.5963  -8.5947  -8.5265  -8.4291  -8.3495  -8.3473  -8.3233
    -8.2995  -8.2867  -8.2267  -8.2070  -8.0393  -8.0330  -7.9964  -7.9407
    -7.9016  -7.8737  -7.8438  -7.7880  -7.7804  -7.7706  -7.7526  -7.7337
    -7.6880  -7.6576  -7.6468  -7.5660  -7.4955  -7.2615  -6.1024  -4.6819
    -3.1639  -2.0395  -1.9799  -1.4982  -1.3299  -1.2923  -0.9754  -0.2927
    -0.2812  -0.2371   0.0057   0.0259   0.1590   0.2748   0.4166   0.5525
     0.6054   0.6448   0.7709   0.8873   1.0685   1.3812   1.5151   1.6740
     1.7443   2.0351   2.1843   2.2511   2.2822   2.3334

          k = 0.0000 0.0636 0.0000 ( 36158 PWs)   bands (ev):

   -56.7094 -56.6794 -56.5891 -56.5588 -56.3932 -56.3628 -33.0727 -33.0427
   -32.9573 -32.9401 -32.9255 -32.9127 -32.9093 -32.8495 -32.8420 -32.8169
   -32.7751 -32.7442 -32.7033 -32.6369 -32.5637 -32.4623 -32.4350 -32.4256
    -8.7291  -8.5951  -8.5815  -8.5258  -8.4078  -8.3357  -8.3336  -8.3014
    -8.2975  -8.2762  -8.2279  -8.1971  -8.0382  -8.0240  -7.9976  -7.9354
    -7.8968  -7.8705  -7.8442  -7.7919  -7.7794  -7.7675  -7.7347  -7.7293
    -7.6859  -7.6677  -7.6459  -7.5659  -7.4955  -7.2611  -5.8239  -4.5610
    -3.3588  -2.3193  -1.9318  -1.7367  -1.5926  -1.3223  -0.8751  -0.5678
    -0.4466  -0.2802  -0.1998  -0.0911   0.1390   0.1492   0.3159   0.4674
     0.5112   0.6071   0.7264   0.7668   1.1001   1.5016   1.5206   1.7115
     1.7330   2.0603   2.1555   2.2717   2.3039   2.3296

          k = 0.0000 0.0794 0.0000 ( 36114 PWs)   bands (ev):

   -56.7094 -56.6794 -56.5891 -56.5588 -56.3932 -56.3627 -33.0727 -33.0426
   -32.9574 -32.9403 -32.9256 -32.9128 -32.9093 -32.8496 -32.8421 -32.8169
   -32.7751 -32.7443 -32.7034 -32.6369 -32.5637 -32.4623 -32.4351 -32.4256
    -8.7267  -8.5942  -8.5718  -8.5254  -8.3915  -8.3252  -8.3245  -8.3027
    -8.2775  -8.2683  -8.2282  -8.1896  -8.0373  -8.0207  -7.9966  -7.9317
    -7.8918  -7.8681  -7.8454  -7.7998  -7.7740  -7.7653  -7.7261  -7.7244
    -7.6845  -7.6720  -7.6451  -7.5659  -7.4963  -7.2608  -5.5083  -4.6140
    -3.4004  -2.6951  -1.8939  -1.8891  -1.5504  -1.3193  -0.9161  -0.7594
    -0.5728  -0.3212  -0.2938  -0.1656  -0.0817   0.1271   0.3222   0.3537
     0.4724   0.6052   0.6923   0.6978   1.1165   1.5215   1.5271   1.7743
     1.7913   2.0649   2.1369   2.2414   2.3744   2.3766

          k = 0.0000-0.0953 0.0000 ( 36146 PWs)   bands (ev):

   -56.7094 -56.6794 -56.5891 -56.5588 -56.3932 -56.3627 -33.0728 -33.0427
   -32.9575 -32.9404 -32.9256 -32.9128 -32.9093 -32.8497 -32.8421 -32.8169
   -32.7751 -32.7444 -32.7034 -32.6370 -32.5637 -32.4623 -32.4351 -32.4256
    -8.7259  -8.5938  -8.5683  -8.5253  -8.3853  -8.3215  -8.3213  -8.3032
    -8.2699  -8.2655  -8.2281  -8.1869  -8.0370  -8.0205  -7.9958  -7.9304
    -7.8898  -7.8673  -7.8461  -7.8026  -7.7720  -7.7644  -7.7249  -7.7222
    -7.6840  -7.6722  -7.6448  -7.5658  -7.4968  -7.2607  -5.3100  -4.7494
    -3.2543  -2.9832  -1.9414  -1.8794  -1.3749  -1.3187  -1.1772  -0.6944
    -0.6186  -0.3618  -0.2894  -0.1913  -0.1901   0.1233   0.2645   0.3714
     0.4529   0.6040   0.6669   0.6882   1.1186   1.5262   1.5299   1.7897
     1.8266   2.0640   2.1302   2.2301   2.3795   2.3920

          k = 0.0140 0.0079 0.0000 ( 36182 PWs)   bands (ev):

   -56.7089 -56.6800 -56.5887 -56.5593 -56.3927 -56.3633 -33.0719 -33.0431
   -32.9560 -32.9390 -32.9258 -32.9099 -32.9077 -32.8482 -32.8369 -32.8175
   -32.7745 -32.7440 -32.6983 -32.6416 -32.5685 -32.4616 -32.4354 -32.4303
    -8.7224  -8.6097  -8.5791  -8.5084  -8.4581  -8.3699  -8.3665  -8.3661
    -8.3026  -8.2930  -8.2264  -8.2143  -8.0553  -8.0340  -7.9901  -7.9531
    -7.9023  -7.8925  -7.8457  -7.8239  -7.7879  -7.7817  -7.7558  -7.7531
    -7.7030  -7.6593  -7.6461  -7.5750  -7.5153  -7.2811  -6.4380  -4.9221
    -3.0389  -2.2846  -1.5691  -1.1558  -0.9393  -0.5725  -0.5020  -0.2368
    -0.1435  -0.0031   0.0838   0.1771   0.4877   0.5401   0.6729   0.7270
     0.8095   0.9322   0.9575   0.9991   1.1946   1.1963   1.4065   1.5204
     1.7780   1.8527   1.9757   2.1765   2.2806   2.3487

          k = 0.0140 0.0238 0.0000 ( 36183 PWs)   bands (ev):

   -56.7089 -56.6800 -56.5887 -56.5594 -56.3927 -56.3633 -33.0719 -33.0431
   -32.9561 -32.9391 -32.9259 -32.9099 -32.9077 -32.8483 -32.8370 -32.8175
   -32.7745 -32.7441 -32.6984 -32.6416 -32.5685 -32.4617 -32.4354 -32.4303
    -8.7208  -8.6029  -8.5786  -8.5081  -8.4480  -8.3634  -8.3586  -8.3545
    -8.3021  -8.2894  -8.2222  -8.2147  -8.0484  -8.0335  -7.9918  -7.9500
    -7.9045  -7.8912  -7.8444  -7.8113  -7.7866  -7.7765  -7.7619  -7.7510
    -7.7019  -7.6590  -7.6526  -7.5750  -7.5140  -7.2811  -6.3528  -4.8540
    -3.0350  -2.3082  -1.5722  -1.4062  -1.1318  -0.7676  -0.5988  -0.2101
    -0.1721   0.0120   0.1188   0.1700   0.3743   0.4128   0.6262   0.6302
     0.7513   0.8146   0.8837   1.0351   1.1356   1.1925   1.4967   1.5477
     1.8795   1.9050   2.0227   2.1667   2.2538   2.3160

          k = 0.0140 0.0397 0.0000 ( 36172 PWs)   bands (ev):

   -56.7089 -56.6800 -56.5886 -56.5594 -56.3927 -56.3633 -33.0720 -33.0431
   -32.9563 -32.9392 -32.9259 -32.9099 -32.9079 -32.8485 -32.8371 -32.8175
   -32.7745 -32.7443 -32.6985 -32.6417 -32.5685 -32.4617 -32.4354 -32.4304
    -8.7180  -8.5911  -8.5776  -8.5076  -8.4300  -8.3514  -8.3457  -8.3336
    -8.3029  -8.2815  -8.2187  -8.2116  -8.0373  -8.0326  -7.9943  -7.9449
    -7.9046  -7.8888  -7.8429  -7.7959  -7.7846  -7.7724  -7.7644  -7.7474
    -7.7001  -7.6634  -7.6584  -7.5749  -7.5125  -7.2810  -6.1845  -4.7285
    -3.0765  -2.3607  -1.8424  -1.5761  -1.1001  -1.0378  -0.9504  -0.2456
    -0.1898  -0.0678   0.0941   0.0943   0.1763   0.3066   0.5567   0.5889
     0.5933   0.7655   0.7982   1.0034   1.0520   1.2992   1.4919   1.6293
     1.7672   1.9839   2.1687   2.2418   2.2556   2.2934

          k = 0.0140 0.0556 0.0000 ( 36149 PWs)   bands (ev):

   -56.7089 -56.6800 -56.5886 -56.5594 -56.3927 -56.3633 -33.0721 -33.0432
   -32.9566 -32.9395 -32.9260 -32.9098 -32.9080 -32.8488 -32.8372 -32.8175
   -32.7745 -32.7446 -32.6986 -32.6417 -32.5685 -32.4618 -32.4355 -32.4304
    -8.7147  -8.5776  -8.5765  -8.5070  -8.4087  -8.3372  -8.3313  -8.3084
    -8.3045  -8.2712  -8.2193  -8.2029  -8.0315  -8.0266  -7.9965  -7.9394
    -7.9012  -7.8861  -7.8426  -7.7854  -7.7852  -7.7812  -7.7469  -7.7432
    -7.6981  -7.6746  -7.6576  -7.5748  -7.5120  -7.2808  -5.9399  -4.5833
    -3.2349  -2.4387  -2.1462  -1.5776  -1.4464  -1.1619  -0.9540  -0.3860
    -0.3306  -0.2253  -0.1150  -0.0177   0.1655   0.3183   0.3204   0.5504
     0.5551   0.6500   0.7581   0.8706   1.0853   1.4487   1.5006   1.6770
     1.6938   2.0354   2.1502   2.2650   2.3103   2.3212

          k = 0.0140 0.0715 0.0000 ( 36132 PWs)   bands (ev):

   -56.7089 -56.6800 -56.5886 -56.5593 -56.3927 -56.3633 -33.0722 -33.0432
   -32.9568 -32.9397 -32.9261 -32.9098 -32.9081 -32.8490 -32.8373 -32.8175
   -32.7746 -32.7448 -32.6987 -32.6417 -32.5685 -32.4618 -32.4355 -32.4304
    -8.7120  -8.5754  -8.5659  -8.5066  -8.3893  -8.3245  -8.3199  -8.3059
    -8.2852  -8.2620  -8.2198  -8.1947  -8.0304  -8.0206  -7.9967  -7.9350
    -7.8958  -7.8834  -7.8435  -7.7949  -7.7798  -7.7781  -7.7397  -7.7341
    -7.6964  -7.6808  -7.6568  -7.5747  -7.5126  -7.2807  -5.6378  -4.5322
    -3.3860  -2.5184  -2.4670  -1.5787  -1.5721  -1.2340  -0.8651  -0.7096
    -0.4436  -0.3326  -0.2239  -0.1132   0.0795   0.1506   0.3648   0.4484
     0.5105   0.6149   0.7239   0.7724   1.1187   1.4981   1.5133   1.7275
     1.7450   2.0518   2.1403   2.2395   2.2913   2.3663

          k = 0.0140 0.0874 0.0000 ( 36142 PWs)   bands (ev):

   -56.7089 -56.6800 -56.5886 -56.5593 -56.3927 -56.3633 -33.0723 -33.0432
   -32.9570 -32.9398 -32.9261 -32.9098 -32.9082 -32.8491 -32.8374 -32.8175
   -32.7746 -32.7449 -32.6987 -32.6417 -32.5686 -32.4619 -32.4355 -32.4305
    -8.7104  -8.5748  -8.5592  -8.5063  -8.3776  -8.3170  -8.3141  -8.3066
    -8.2710  -8.2566  -8.2197  -8.1899  -8.0298  -8.0193  -7.9958  -7.9326
    -7.8919  -7.8817  -7.8447  -7.8003  -7.7787  -7.7742  -7.7376  -7.7305
    -7.6954  -7.6807  -7.6563  -7.5747  -7.5135  -7.2805  -5.3463  -4.6729
    -3.2930  -2.8462  -2.5683  -1.5819  -1.4147  -1.2626  -1.0496  -0.7856
    -0.5408  -0.3424  -0.2696  -0.1604  -0.0963   0.1436   0.3659   0.3957
     0.4783   0.6089   0.7064   0.7203   1.1311   1.5011   1.5217   1.7752
     1.7957   2.0525   2.1414   2.2161   2.2938   2.3972

          k = 0.0140-0.0874 0.0000 ( 36142 PWs)   bands (ev):

   -56.7089 -56.6800 -56.5886 -56.5593 -56.3927 -56.3633 -33.0723 -33.0432
   -32.9570 -32.9398 -32.9261 -32.9098 -32.9082 -32.8491 -32.8374 -32.8175
   -32.7746 -32.7449 -32.6987 -32.6417 -32.5686 -32.4619 -32.4355 -32.4305
    -8.7104  -8.5748  -8.5592  -8.5063  -8.3776  -8.3170  -8.3141  -8.3066
    -8.2710  -8.2566  -8.2197  -8.1899  -8.0298  -8.0193  -7.9958  -7.9326
    -7.8919  -7.8817  -7.8447  -7.8003  -7.7787  -7.7742  -7.7376  -7.7305
    -7.6954  -7.6807  -7.6563  -7.5747  -7.5135  -7.2805  -5.3463  -4.6729
    -3.2930  -2.8462  -2.5683  -1.5819  -1.4147  -1.2626  -1.0496  -0.7856
    -0.5408  -0.3424  -0.2696  -0.1604  -0.0963   0.1436   0.3659   0.3957
     0.4783   0.6089   0.7064   0.7203   1.1311   1.5011   1.5217   1.7752
     1.7957   2.0526   2.1414   2.2159   2.2936   2.3973

          k = 0.0140-0.0715 0.0000 ( 36132 PWs)   bands (ev):

   -56.7089 -56.6800 -56.5886 -56.5593 -56.3927 -56.3633 -33.0722 -33.0432
   -32.9568 -32.9397 -32.9261 -32.9098 -32.9081 -32.8490 -32.8373 -32.8175
   -32.7746 -32.7448 -32.6987 -32.6417 -32.5685 -32.4618 -32.4355 -32.4304
    -8.7120  -8.5754  -8.5659  -8.5066  -8.3893  -8.3245  -8.3199  -8.3059
    -8.2852  -8.2620  -8.2198  -8.1947  -8.0304  -8.0206  -7.9967  -7.9350
    -7.8958  -7.8834  -7.8435  -7.7949  -7.7798  -7.7781  -7.7397  -7.7341
    -7.6964  -7.6808  -7.6568  -7.5747  -7.5126  -7.2807  -5.6378  -4.5322
    -3.3860  -2.5184  -2.4670  -1.5787  -1.5721  -1.2340  -0.8651  -0.7096
    -0.4436  -0.3326  -0.2239  -0.1132   0.0796   0.1506   0.3648   0.4484
     0.5105   0.6149   0.7239   0.7724   1.1187   1.4981   1.5133   1.7275
     1.7450   2.0517   2.1401   2.2397   2.2916   2.3662

          k = 0.0140-0.0556 0.0000 ( 36149 PWs)   bands (ev):

   -56.7089 -56.6800 -56.5886 -56.5594 -56.3927 -56.3633 -33.0721 -33.0432
   -32.9566 -32.9395 -32.9260 -32.9098 -32.9080 -32.8488 -32.8372 -32.8175
   -32.7745 -32.7446 -32.6986 -32.6417 -32.5685 -32.4618 -32.4355 -32.4304
    -8.7147  -8.5776  -8.5765  -8.5070  -8.4087  -8.3372  -8.3313  -8.3084
    -8.3045  -8.2712  -8.2193  -8.2029  -8.0315  -8.0266  -7.9965  -7.9394
    -7.9012  -7.8861  -7.8426  -7.7854  -7.7852  -7.7812  -7.7469  -7.7432
    -7.6981  -7.6746  -7.6576  -7.5748  -7.5120  -7.2808  -5.9399  -4.5833
    -3.2349  -2.4387  -2.1462  -1.5776  -1.4464  -1.1619  -0.9540  -0.3860
    -0.3306  -0.2253  -0.1150  -0.0177   0.1655   0.3183   0.3204   0.5504
     0.5550   0.6500   0.7581   0.8706   1.0853   1.4487   1.5006   1.6770
     1.6938   2.0353   2.1511   2.2683   2.3209   2.3536

          k = 0.0140-0.0397 0.0000 ( 36172 PWs)   bands (ev):

   -56.7089 -56.6800 -56.5886 -56.5594 -56.3927 -56.3633 -33.0720 -33.0431
   -32.9563 -32.9392 -32.9259 -32.9099 -32.9079 -32.8485 -32.8371 -32.8175
   -32.7745 -32.7443 -32.6985 -32.6417 -32.5685 -32.4617 -32.4354 -32.4304
    -8.7180  -8.5911  -8.5776  -8.5076  -8.4300  -8.3514  -8.3457  -8.3336
    -8.3029  -8.2815  -8.2187  -8.2116  -8.0373  -8.0326  -7.9943  -7.9449
    -7.9046  -7.8888  -7.8429  -7.7959  -7.7846  -7.7724  -7.7644  -7.7474
    -7.7001  -7.6634  -7.6584  -7.5749  -7.5125  -7.2810  -6.1845  -4.7285
    -3.0765  -2.3607  -1.8424  -1.5761  -1.1001  -1.0378  -0.9504  -0.2456
    -0.1898  -0.0678   0.0941   0.0943   0.1763   0.3066   0.5567   0.5889
     0.5933   0.7655   0.7982   1.0034   1.0520   1.2992   1.4919   1.6293
     1.7673   1.9839   2.1696   2.2419   2.2559   2.2935

          k = 0.0140-0.0238 0.0000 ( 36183 PWs)   bands (ev):

   -56.7089 -56.6800 -56.5887 -56.5594 -56.3927 -56.3633 -33.0719 -33.0431
   -32.9561 -32.9391 -32.9259 -32.9099 -32.9077 -32.8483 -32.8370 -32.8175
   -32.7745 -32.7441 -32.6984 -32.6416 -32.5685 -32.4617 -32.4354 -32.4303
    -8.7208  -8.6029  -8.5786  -8.5081  -8.4480  -8.3634  -8.3586  -8.3545
    -8.3021  -8.2894  -8.2222  -8.2147  -8.0484  -8.0335  -7.9918  -7.9500
    -7.9045  -7.8912  -7.8444  -7.8113  -7.7866  -7.7765  -7.7619  -7.7510
    -7.7019  -7.6590  -7.6526  -7.5750  -7.5140  -7.2811  -6.3528  -4.8540
    -3.0350  -2.3082  -1.5722  -1.4062  -1.1318  -0.7676  -0.5988  -0.2101
    -0.1721   0.0120   0.1188   0.1700   0.3743   0.4128   0.6262   0.6302
     0.7513   0.8146   0.8837   1.0351   1.1356   1.1925   1.4967   1.5477
     1.8794   1.9050   2.0226   2.1665   2.2544   2.3164

          k = 0.0140-0.0079 0.0000 ( 36182 PWs)   bands (ev):

   -56.7089 -56.6800 -56.5887 -56.5593 -56.3927 -56.3633 -33.0719 -33.0431
   -32.9560 -32.9390 -32.9258 -32.9099 -32.9077 -32.8482 -32.8369 -32.8175
   -32.7745 -32.7440 -32.6983 -32.6416 -32.5685 -32.4616 -32.4354 -32.4303
    -8.7224  -8.6097  -8.5791  -8.5084  -8.4581  -8.3699  -8.3665  -8.3661
    -8.3026  -8.2930  -8.2264  -8.2143  -8.0553  -8.0340  -7.9901  -7.9531
    -7.9023  -7.8925  -7.8457  -7.8239  -7.7879  -7.7817  -7.7558  -7.7531
    -7.7030  -7.6593  -7.6461  -7.5750  -7.5153  -7.2811  -6.4380  -4.9221
    -3.0389  -2.2846  -1.5691  -1.1558  -0.9393  -0.5725  -0.5020  -0.2368
    -0.1435  -0.0031   0.0838   0.1771   0.4877   0.5401   0.6729   0.7270
     0.8095   0.9322   0.9575   0.9991   1.1946   1.1963   1.4065   1.5204
     1.7780   1.8527   1.9754   2.1761   2.2795   2.3488

          k = 0.0281 0.0159 0.0000 ( 36191 PWs)   bands (ev):

   -56.7075 -56.6815 -56.5872 -56.5609 -56.3912 -56.3648 -33.0704 -33.0446
   -32.9545 -32.9375 -32.9274 -32.9115 -32.8941 -32.8467 -32.8233 -32.8191
   -32.7730 -32.7456 -32.6847 -32.6557 -32.5826 -32.4603 -32.4445 -32.4367
    -8.6760  -8.5757  -8.5223  -8.4518  -8.4243  -8.3535  -8.3507  -8.3377
    -8.3082  -8.2655  -8.2261  -8.1887  -8.0464  -8.0123  -7.9912  -7.9547
    -7.9261  -7.9078  -7.8419  -7.8263  -7.8201  -7.7857  -7.7841  -7.7545
    -7.7321  -7.6912  -7.6829  -7.6006  -7.5633  -7.3369  -6.3100  -4.8081
    -2.9713  -2.7614  -1.9882  -1.3266  -1.0920  -0.3718  -0.3619  -0.2263
    -0.1570   0.1572   0.2151   0.2350   0.4502   0.4887   0.6601   0.7088
     0.7876   0.8182   0.9090   1.0131   1.1651   1.1752   1.4348   1.4828
     1.6804   1.8230   1.8876   2.0864   2.3101   2.3340

          k = 0.0281 0.0318 0.0000 ( 36184 PWs)   bands (ev):

   -56.7074 -56.6815 -56.5871 -56.5609 -56.3912 -56.3648 -33.0705 -33.0446
   -32.9546 -32.9376 -32.9275 -32.9114 -32.8942 -32.8468 -32.8234 -32.8191
   -32.7730 -32.7458 -32.6848 -32.6557 -32.5826 -32.4604 -32.4445 -32.4368
    -8.6739  -8.5665  -8.5217  -8.4516  -8.4104  -8.3423  -8.3366  -8.3287
    -8.3084  -8.2588  -8.2211  -8.1894  -8.0380  -8.0116  -7.9928  -7.9510
    -7.9256  -7.9098  -7.8416  -7.8190  -7.8105  -7.7820  -7.7790  -7.7622
    -7.7319  -7.6916  -7.6908  -7.6005  -7.5618  -7.3371  -6.1832  -4.7101
    -2.9808  -2.8616  -1.9786  -1.5520  -1.2926  -0.7280  -0.4947  -0.2198
    -0.1050   0.1124   0.1734   0.2127   0.2288   0.4001   0.6048   0.6595
     0.6729   0.8096   0.8762   1.0296   1.1111   1.2396   1.4257   1.5722
     1.7205   1.8562   2.0954   2.1180   2.3078   2.3147

          k = 0.0281 0.0477 0.0000 ( 36139 PWs)   bands (ev):

   -56.7074 -56.6815 -56.5871 -56.5609 -56.3912 -56.3648 -33.0706 -33.0446
   -32.9549 -32.9378 -32.9275 -32.9114 -32.8944 -32.8471 -32.8235 -32.8191
   -32.7730 -32.7460 -32.6849 -32.6557 -32.5826 -32.4604 -32.4445 -32.4368
    -8.6711  -8.5539  -8.5208  -8.4514  -8.3909  -8.3281  -8.3198  -8.3150
    -8.3054  -8.2491  -8.2149  -8.1898  -8.0277  -8.0107  -7.9949  -7.9463
    -7.9247  -7.9083  -7.8410  -7.8184  -7.7967  -7.7793  -7.7731  -7.7666
    -7.7310  -7.7019  -7.6903  -7.6004  -7.5609  -7.3374  -5.9772  -4.5699
    -3.0727  -2.9887  -1.9891  -1.9188  -1.2304  -1.1672  -0.5791  -0.3415
    -0.1882  -0.0805   0.0635   0.0896   0.2215   0.3745   0.4877   0.5758
     0.6202   0.8007   0.8031   1.0217   1.0605   1.3679   1.4376   1.6273
     1.6378   1.9670   2.1183   2.2669   2.2887   2.3281

          k = 0.0281 0.0636 0.0000 ( 36135 PWs)   bands (ev):

   -56.7074 -56.6815 -56.5871 -56.5609 -56.3912 -56.3648 -33.0707 -33.0446
   -32.9551 -32.9381 -32.9276 -32.9113 -32.8945 -32.8473 -32.8236 -32.8191
   -32.7730 -32.7462 -32.6850 -32.6557 -32.5827 -32.4604 -32.4445 -32.4368
    -8.6683  -8.5413  -8.5198  -8.4512  -8.3705  -8.3178  -8.3137  -8.2963
    -8.2918  -8.2393  -8.2092  -8.1892  -8.0198  -8.0096  -7.9967  -7.9420
    -7.9229  -7.9035  -7.8408  -7.8186  -7.7880  -7.7851  -7.7759  -7.7564
    -7.7298  -7.7070  -7.6897  -7.6003  -7.5612  -7.3377  -5.7044  -4.4560
    -3.2483  -3.1080  -2.2037  -2.0213  -1.4487  -1.1422  -0.6132  -0.4996
    -0.4530  -0.1910  -0.0669  -0.0149   0.2092   0.2869   0.4228   0.5400
     0.5835   0.7192   0.7790   0.9288   1.1160   1.4466   1.4677   1.6253
     1.6937   2.0102   2.1114   2.2230   2.2852   2.3590

          k = 0.0281 0.0794 0.0000 ( 36094 PWs)   bands (ev):

   -56.7074 -56.6815 -56.5871 -56.5609 -56.3912 -56.3648 -33.0707 -33.0446
   -32.9553 -32.9382 -32.9276 -32.9113 -32.8946 -32.8475 -32.8237 -32.8190
   -32.7730 -32.7464 -32.6851 -32.6557 -32.5826 -32.4605 -32.4445 -32.4369
    -8.6662  -8.5320  -8.5189  -8.4511  -8.3546  -8.3183  -8.3029  -8.2887
    -8.2736  -8.2324  -8.2044  -8.1883  -8.0165  -8.0088  -7.9975  -7.9390
    -7.9207  -7.8981  -7.8415  -7.8187  -7.7932  -7.7822  -7.7739  -7.7568
    -7.7288  -7.7029  -7.6892  -7.6002  -7.5625  -7.3379  -5.3997  -4.5070
    -3.2818  -3.1916  -2.5659  -2.0556  -1.4073  -1.0450  -0.7938  -0.6792
    -0.5779  -0.2207  -0.1347  -0.0765   0.0887   0.2015   0.4631   0.5078
     0.5496   0.6671   0.7609   0.8614   1.1580   1.4406   1.4927   1.7045
     1.7362   2.0187   2.1112   2.1812   2.2562   2.3936

          k = 0.0281 0.0953 0.0000 ( 36138 PWs)   bands (ev):

   -56.7074 -56.6815 -56.5871 -56.5609 -56.3912 -56.3648 -33.0708 -33.0447
   -32.9554 -32.9383 -32.9277 -32.9113 -32.8946 -32.8475 -32.8238 -32.8191
   -32.7730 -32.7465 -32.6851 -32.6557 -32.5827 -32.4605 -32.4445 -32.4369
    -8.6655  -8.5286  -8.5186  -8.4511  -8.3486  -8.3186  -8.2989  -8.2861
    -8.2667  -8.2301  -8.2022  -8.1881  -8.0160  -8.0085  -7.9976  -7.9380
    -7.9196  -7.8957  -7.8422  -7.8186  -7.7962  -7.7796  -7.7732  -7.7594
    -7.7284  -7.6996  -7.6891  -7.6002  -7.5632  -7.3380  -5.2143  -4.6295
    -3.2216  -3.1586  -2.8245  -2.0700  -1.2340  -1.0521  -0.9893  -0.7472
    -0.5742  -0.2320  -0.1034  -0.0966  -0.0374   0.1990   0.4833   0.4918
     0.5300   0.6517   0.7546   0.8371   1.1716   1.4361   1.5019   1.7382
     1.7530   2.0174   2.1108   2.1670   2.2534   2.4079

          k = 0.0281-0.0794 0.0000 ( 36094 PWs)   bands (ev):

   -56.7074 -56.6815 -56.5871 -56.5609 -56.3912 -56.3648 -33.0707 -33.0446
   -32.9553 -32.9382 -32.9276 -32.9113 -32.8946 -32.8475 -32.8237 -32.8190
   -32.7730 -32.7464 -32.6851 -32.6557 -32.5826 -32.4605 -32.4445 -32.4369
    -8.6662  -8.5320  -8.5189  -8.4511  -8.3546  -8.3183  -8.3029  -8.2887
    -8.2736  -8.2324  -8.2044  -8.1883  -8.0165  -8.0088  -7.9975  -7.9390
    -7.9207  -7.8981  -7.8415  -7.8187  -7.7932  -7.7822  -7.7739  -7.7568
    -7.7288  -7.7029  -7.6892  -7.6002  -7.5625  -7.3379  -5.3997  -4.5070
    -3.2818  -3.1916  -2.5659  -2.0556  -1.4073  -1.0450  -0.7938  -0.6792
    -0.5779  -0.2207  -0.1347  -0.0765   0.0887   0.2015   0.4631   0.5078
     0.5496   0.6671   0.7609   0.8614   1.1580   1.4406   1.4927   1.7045
     1.7362   2.0187   2.1111   2.1811   2.2566   2.3935

          k = 0.0281-0.0636 0.0000 ( 36135 PWs)   bands (ev):

   -56.7074 -56.6815 -56.5871 -56.5609 -56.3912 -56.3648 -33.0707 -33.0446
   -32.9551 -32.9381 -32.9276 -32.9113 -32.8945 -32.8473 -32.8236 -32.8191
   -32.7730 -32.7462 -32.6850 -32.6557 -32.5827 -32.4604 -32.4445 -32.4368
    -8.6683  -8.5413  -8.5198  -8.4512  -8.3705  -8.3178  -8.3137  -8.2963
    -8.2918  -8.2393  -8.2092  -8.1892  -8.0198  -8.0096  -7.9967  -7.9420
    -7.9229  -7.9035  -7.8408  -7.8186  -7.7880  -7.7851  -7.7759  -7.7564
    -7.7298  -7.7070  -7.6897  -7.6003  -7.5612  -7.3377  -5.7044  -4.4560
    -3.2483  -3.1080  -2.2037  -2.0213  -1.4487  -1.1422  -0.6132  -0.4996
    -0.4530  -0.1910  -0.0669  -0.0149   0.2092   0.2869   0.4228   0.5400
     0.5835   0.7192   0.7790   0.9288   1.1160   1.4466   1.4677   1.6253
     1.6937   2.0101   2.1112   2.2238   2.2860   2.3588

          k = 0.0281-0.0477 0.0000 ( 36139 PWs)   bands (ev):

   -56.7074 -56.6815 -56.5871 -56.5609 -56.3912 -56.3648 -33.0706 -33.0446
   -32.9549 -32.9378 -32.9275 -32.9114 -32.8944 -32.8471 -32.8235 -32.8191
   -32.7730 -32.7460 -32.6849 -32.6557 -32.5826 -32.4604 -32.4445 -32.4368
    -8.6711  -8.5539  -8.5208  -8.4514  -8.3909  -8.3281  -8.3198  -8.3150
    -8.3054  -8.2491  -8.2149  -8.1898  -8.0277  -8.0107  -7.9949  -7.9463
    -7.9247  -7.9083  -7.8410  -7.8184  -7.7967  -7.7793  -7.7731  -7.7666
    -7.7310  -7.7019  -7.6903  -7.6004  -7.5609  -7.3374  -5.9772  -4.5699
    -3.0727  -2.9887  -1.9891  -1.9188  -1.2304  -1.1672  -0.5791  -0.3415
    -0.1882  -0.0805   0.0635   0.0896   0.2215   0.3745   0.4877   0.5758
     0.6202   0.8007   0.8031   1.0217   1.0605   1.3679   1.4376   1.6273
     1.6378   1.9670   2.1183   2.2661   2.2887   2.3280

          k = 0.0281-0.0318 0.0000 ( 36184 PWs)   bands (ev):

   -56.7074 -56.6815 -56.5871 -56.5609 -56.3912 -56.3648 -33.0705 -33.0446
   -32.9546 -32.9376 -32.9275 -32.9114 -32.8942 -32.8468 -32.8234 -32.8191
   -32.7730 -32.7458 -32.6848 -32.6557 -32.5826 -32.4604 -32.4445 -32.4368
    -8.6739  -8.5665  -8.5217  -8.4516  -8.4104  -8.3423  -8.3366  -8.3287
    -8.3084  -8.2588  -8.2211  -8.1894  -8.0380  -8.0116  -7.9928  -7.9510
    -7.9256  -7.9098  -7.8416  -7.8190  -7.8105  -7.7820  -7.7790  -7.7622
    -7.7319  -7.6916  -7.6908  -7.6005  -7.5618  -7.3371  -6.1832  -4.7101
    -2.9808  -2.8616  -1.9786  -1.5520  -1.2926  -0.7280  -0.4947  -0.2198
    -0.1050   0.1124   0.1734   0.2127   0.2288   0.4001   0.6048   0.6595
     0.6729   0.8096   0.8762   1.0296   1.1111   1.2396   1.4257   1.5722
     1.7205   1.8562   2.0955   2.1186   2.3111   2.3152

          k = 0.0281-0.0159 0.0000 ( 36191 PWs)   bands (ev):

   -56.7075 -56.6815 -56.5872 -56.5609 -56.3912 -56.3648 -33.0704 -33.0446
   -32.9545 -32.9375 -32.9274 -32.9115 -32.8941 -32.8467 -32.8233 -32.8191
   -32.7730 -32.7456 -32.6847 -32.6557 -32.5826 -32.4603 -32.4445 -32.4367
    -8.6760  -8.5757  -8.5223  -8.4518  -8.4243  -8.3535  -8.3507  -8.3377
    -8.3082  -8.2655  -8.2261  -8.1887  -8.0464  -8.0123  -7.9912  -7.9547
    -7.9261  -7.9078  -7.8419  -7.8263  -7.8201  -7.7857  -7.7841  -7.7545
    -7.7321  -7.6912  -7.6829  -7.6006  -7.5633  -7.3369  -6.3100  -4.8081
    -2.9713  -2.7614  -1.9882  -1.3266  -1.0920  -0.3718  -0.3619  -0.2263
    -0.1570   0.1572   0.2151   0.2350   0.4502   0.4887   0.6601   0.7088
     0.7876   0.8182   0.9090   1.0131   1.1651   1.1751   1.4348   1.4828
     1.6804   1.8230   1.8876   2.0867   2.3144   2.3358

          k = 0.0281 0.0000 0.0000 ( 36199 PWs)   bands (ev):

   -56.7075 -56.6815 -56.5872 -56.5609 -56.3912 -56.3648 -33.0704 -33.0446
   -32.9544 -32.9375 -32.9274 -32.9115 -32.8941 -32.8466 -32.8233 -32.8191
   -32.7730 -32.7455 -32.6847 -32.6557 -32.5826 -32.4603 -32.4445 -32.4367
    -8.6767  -8.5791  -8.5224  -8.4518  -8.4293  -8.3584  -8.3549  -8.3412
    -8.3080  -8.2679  -8.2279  -8.1883  -8.0495  -8.0125  -7.9906  -7.9561
    -7.9263  -7.9061  -7.8419  -7.8335  -7.8208  -7.7877  -7.7849  -7.7518
    -7.7320  -7.6913  -7.6796  -7.6006  -7.5641  -7.3368  -6.3527  -4.8424
    -2.9756  -2.7226  -1.9960  -1.3370  -0.7276  -0.5398  -0.2939  -0.1541
    -0.1043   0.1073   0.2124   0.2625   0.5208   0.5824   0.6649   0.7406
     0.7778   0.8758   0.9938   1.0112   1.1462   1.1698   1.3155   1.4960
     1.6004   1.8040   1.8740   2.0562   2.2602   2.3166

          k = 0.0421 0.0238 0.0000 ( 36202 PWs)   bands (ev):

   -56.7051 -56.6839 -56.5848 -56.5633 -56.3888 -56.3672 -33.0681 -33.0470
   -32.9521 -32.9352 -32.9300 -32.9139 -32.8726 -32.8442 -32.8218 -32.8015
   -32.7705 -32.7482 -32.6779 -32.6630 -32.6051 -32.4670 -32.4581 -32.4389
    -8.6078  -8.5214  -8.4328  -8.3706  -8.3656  -8.3318  -8.3302  -8.3146
    -8.2826  -8.2301  -8.2151  -8.1483  -8.0339  -8.0134  -7.9785  -7.9581
    -7.9580  -7.9161  -7.8760  -7.8343  -7.8334  -7.8322  -7.7982  -7.7857
    -7.7497  -7.7370  -7.7348  -7.6403  -7.6399  -7.4238  -6.0972  -4.6204
    -3.3254  -2.8638  -2.4334  -1.5767  -1.2012  -0.5447  -0.3983  -0.0724
     0.0527   0.1771   0.2439   0.2886   0.4806   0.4914   0.6416   0.7170
     0.7380   0.8287   0.9193   1.0054   1.1299   1.2180   1.3159   1.5046
     1.6338   1.6752   1.9287   2.0293   2.2409   2.2829

          k = 0.0421 0.0397 0.0000 ( 36144 PWs)   bands (ev):

   -56.7051 -56.6839 -56.5847 -56.5633 -56.3888 -56.3672 -33.0682 -33.0470
   -32.9523 -32.9353 -32.9300 -32.9138 -32.8727 -32.8444 -32.8217 -32.8016
   -32.7705 -32.7484 -32.6779 -32.6631 -32.6051 -32.4670 -32.4581 -32.4389
    -8.6058  -8.5109  -8.4324  -8.3650  -8.3547  -8.3306  -8.3158  -8.3021
    -8.2725  -8.2242  -8.2092  -8.1490  -8.0267  -8.0133  -7.9778  -7.9603
    -7.9546  -7.9173  -7.8788  -7.8330  -7.8298  -7.8194  -7.7935  -7.7855
    -7.7569  -7.7429  -7.7377  -7.6402  -7.6386  -7.4244  -5.9319  -4.5003
    -3.4830  -2.9036  -2.4354  -1.6108  -1.5282  -0.8173  -0.5231  -0.1603
    -0.0224   0.0479   0.2161   0.2939   0.2945   0.4598   0.5547   0.6717
     0.7118   0.8375   0.9066   1.0322   1.1032   1.3046   1.3351   1.5622
     1.5716   1.8533   2.0548   2.1483   2.2813   2.2949

          k = 0.0421 0.0556 0.0000 ( 36116 PWs)   bands (ev):

   -56.7051 -56.6839 -56.5847 -56.5633 -56.3888 -56.3672 -33.0682 -33.0470
   -32.9525 -32.9355 -32.9301 -32.9138 -32.8728 -32.8446 -32.8217 -32.8017
   -32.7705 -32.7486 -32.6779 -32.6632 -32.6051 -32.4670 -32.4581 -32.4390
    -8.6034  -8.4987  -8.4316  -8.3649  -8.3359  -8.3312  -8.2959  -8.2872
    -8.2606  -8.2186  -8.2013  -8.1494  -8.0220  -8.0118  -7.9769  -7.9614
    -7.9512  -7.9142  -7.8807  -7.8350  -7.8271  -7.8131  -7.7872  -7.7855
    -7.7674  -7.7430  -7.7386  -7.6402  -7.6384  -7.4251  -5.6952  -4.3665
    -3.6376  -3.0379  -2.4815  -1.9143  -1.4471  -1.1825  -0.5278  -0.3046
    -0.1748  -0.0498   0.1049   0.1371   0.2937   0.4513   0.5096   0.5902
     0.6751   0.8511   0.8622   1.0599   1.0956   1.3726   1.3791   1.5358
     1.6306   1.9398   2.0586   2.2190   2.2841   2.3175

          k = 0.0421 0.0715 0.0000 ( 36115 PWs)   bands (ev):

   -56.7050 -56.6838 -56.5847 -56.5633 -56.3888 -56.3672 -33.0683 -33.0470
   -32.9527 -32.9357 -32.9301 -32.9137 -32.8729 -32.8448 -32.8217 -32.8018
   -32.7705 -32.7488 -32.6779 -32.6633 -32.6051 -32.4670 -32.4582 -32.4390
    -8.6013  -8.4879  -8.4307  -8.3650  -8.3333  -8.3171  -8.2777  -8.2733
    -8.2509  -8.2154  -8.1926  -8.1494  -8.0226  -8.0095  -7.9761  -7.9597
    -7.9485  -7.9081  -7.8816  -7.8385  -7.8246  -7.8157  -7.7863  -7.7845
    -7.7762  -7.7388  -7.7343  -7.6402  -7.6396  -7.4258  -5.4089  -4.3249
    -3.7570  -3.1564  -2.5408  -2.2277  -1.3657  -1.2876  -0.6162  -0.4788
    -0.2794  -0.1033   0.0200   0.0440   0.2894   0.2967   0.5510   0.5540
     0.6527   0.8113   0.8503   1.0087   1.1706   1.3725   1.4298   1.5813
     1.6803   1.9647   2.0433   2.1394   2.2711   2.3466

          k = 0.0421 0.0874 0.0000 ( 36101 PWs)   bands (ev):

   -56.7050 -56.6839 -56.5847 -56.5633 -56.3888 -56.3672 -33.0684 -33.0470
   -32.9528 -32.9358 -32.9301 -32.9137 -32.8730 -32.8449 -32.8217 -32.8019
   -32.7705 -32.7489 -32.6779 -32.6633 -32.6050 -32.4670 -32.4582 -32.4390
    -8.6001  -8.4816  -8.4300  -8.3651  -8.3341  -8.3059  -8.2680  -8.2635
    -8.2464  -8.2139  -8.1866  -8.1495  -8.0244  -8.0089  -7.9756  -7.9569
    -7.9472  -7.9030  -7.8819  -7.8413  -7.8232  -7.8204  -7.7882  -7.7839
    -7.7798  -7.7388  -7.7261  -7.6410  -7.6402  -7.4262  -5.1443  -4.4447
    -3.8216  -3.0819  -2.5794  -2.5596  -1.3171  -1.1379  -0.8035  -0.6838
    -0.1929  -0.1251  -0.0400   0.0169   0.1519   0.2874   0.5375   0.5697
     0.6473   0.7793   0.8462   0.9757   1.2255   1.3519   1.4612   1.6248
     1.7124   1.9626   2.0131   2.0919   2.2795   2.3710

          k = 0.0421 0.1033 0.0000 ( 36101 PWs)   bands (ev):

   -56.7050 -56.6839 -56.5847 -56.5633 -56.3888 -56.3672 -33.0684 -33.0470
   -32.9528 -32.9358 -32.9301 -32.9137 -32.8730 -32.8449 -32.8217 -32.8019
   -32.7705 -32.7489 -32.6779 -32.6633 -32.6050 -32.4670 -32.4582 -32.4390
    -8.6001  -8.4816  -8.4300  -8.3651  -8.3341  -8.3059  -8.2680  -8.2635
    -8.2464  -8.2139  -8.1866  -8.1495  -8.0244  -8.0089  -7.9756  -7.9569
    -7.9472  -7.9030  -7.8819  -7.8413  -7.8232  -7.8204  -7.7882  -7.7839
    -7.7798  -7.7388  -7.7261  -7.6410  -7.6402  -7.4262  -5.1443  -4.4447
    -3.8216  -3.0819  -2.5794  -2.5596  -1.3171  -1.1379  -0.8035  -0.6838
    -0.1929  -0.1251  -0.0400   0.0169   0.1519   0.2874   0.5375   0.5697
     0.6473   0.7793   0.8462   0.9757   1.2255   1.3518   1.4612   1.6246
     1.7124   1.9625   2.0127   2.0914   2.2790   2.3584

          k = 0.0421-0.0715 0.0000 ( 36115 PWs)   bands (ev):

   -56.7050 -56.6838 -56.5847 -56.5633 -56.3888 -56.3672 -33.0683 -33.0470
   -32.9527 -32.9357 -32.9301 -32.9137 -32.8729 -32.8448 -32.8217 -32.8018
   -32.7705 -32.7488 -32.6779 -32.6633 -32.6051 -32.4670 -32.4582 -32.4390
    -8.6013  -8.4879  -8.4307  -8.3650  -8.3333  -8.3171  -8.2777  -8.2733
    -8.2509  -8.2154  -8.1926  -8.1494  -8.0226  -8.0095  -7.9761  -7.9597
    -7.9485  -7.9081  -7.8816  -7.8385  -7.8246  -7.8157  -7.7863  -7.7845
    -7.7762  -7.7388  -7.7343  -7.6402  -7.6396  -7.4258  -5.4089  -4.3249
    -3.7570  -3.1564  -2.5408  -2.2277  -1.3657  -1.2876  -0.6162  -0.4788
    -0.2794  -0.1033   0.0200   0.0440   0.2894   0.2967   0.5510   0.5540
     0.6527   0.8113   0.8503   1.0087   1.1706   1.3725   1.4297   1.5813
     1.6802   1.9646   2.0431   2.1383   2.2639   2.3140

          k = 0.0421-0.0556 0.0000 ( 36116 PWs)   bands (ev):

   -56.7051 -56.6839 -56.5847 -56.5633 -56.3888 -56.3672 -33.0682 -33.0470
   -32.9525 -32.9355 -32.9301 -32.9138 -32.8728 -32.8446 -32.8217 -32.8017
   -32.7705 -32.7486 -32.6779 -32.6632 -32.6051 -32.4670 -32.4581 -32.4390
    -8.6034  -8.4987  -8.4316  -8.3649  -8.3359  -8.3312  -8.2959  -8.2872
    -8.2606  -8.2186  -8.2013  -8.1494  -8.0220  -8.0118  -7.9769  -7.9614
    -7.9512  -7.9142  -7.8807  -7.8350  -7.8271  -7.8131  -7.7872  -7.7855
    -7.7674  -7.7430  -7.7386  -7.6402  -7.6384  -7.4251  -5.6952  -4.3665
    -3.6376  -3.0379  -2.4815  -1.9143  -1.4471  -1.1825  -0.5278  -0.3046
    -0.1748  -0.0498   0.1049   0.1371   0.2937   0.4513   0.5096   0.5902
     0.6751   0.8511   0.8622   1.0599   1.0956   1.3726   1.3791   1.5358
     1.6306   1.9399   2.0589   2.2201   2.2850   2.3155

          k = 0.0421-0.0397 0.0000 ( 36144 PWs)   bands (ev):

   -56.7051 -56.6839 -56.5847 -56.5633 -56.3888 -56.3672 -33.0682 -33.0470
   -32.9523 -32.9353 -32.9300 -32.9138 -32.8727 -32.8444 -32.8217 -32.8016
   -32.7705 -32.7484 -32.6779 -32.6631 -32.6051 -32.4670 -32.4581 -32.4389
    -8.6058  -8.5109  -8.4324  -8.3650  -8.3547  -8.3306  -8.3158  -8.3021
    -8.2725  -8.2242  -8.2092  -8.1490  -8.0267  -8.0133  -7.9778  -7.9603
    -7.9546  -7.9173  -7.8788  -7.8330  -7.8298  -7.8194  -7.7935  -7.7855
    -7.7569  -7.7429  -7.7377  -7.6402  -7.6386  -7.4244  -5.9319  -4.5003
    -3.4830  -2.9036  -2.4354  -1.6108  -1.5282  -0.8173  -0.5231  -0.1603
    -0.0224   0.0479   0.2161   0.2938   0.2945   0.4598   0.5547   0.6717
     0.7118   0.8375   0.9066   1.0322   1.1032   1.3046   1.3351   1.5621
     1.5716   1.8533   2.0548   2.1483   2.2812   2.2938

          k = 0.0421-0.0238 0.0000 ( 36202 PWs)   bands (ev):

   -56.7051 -56.6839 -56.5848 -56.5633 -56.3888 -56.3672 -33.0681 -33.0470
   -32.9521 -32.9352 -32.9300 -32.9139 -32.8726 -32.8442 -32.8218 -32.8015
   -32.7705 -32.7482 -32.6779 -32.6630 -32.6051 -32.4670 -32.4581 -32.4389
    -8.6078  -8.5214  -8.4328  -8.3706  -8.3656  -8.3318  -8.3302  -8.3146
    -8.2826  -8.2301  -8.2151  -8.1483  -8.0339  -8.0134  -7.9785  -7.9581
    -7.9580  -7.9161  -7.8760  -7.8343  -7.8334  -7.8322  -7.7982  -7.7857
    -7.7497  -7.7370  -7.7348  -7.6403  -7.6399  -7.4238  -6.0972  -4.6204
    -3.3254  -2.8638  -2.4334  -1.5767  -1.2012  -0.5447  -0.3983  -0.0724
     0.0527   0.1770   0.2439   0.2886   0.4806   0.4914   0.6416   0.7170
     0.7380   0.8287   0.9193   1.0054   1.1299   1.2180   1.3159   1.5047
     1.6338   1.6752   1.9289   2.0293   2.2446   2.2854

          k = 0.0421-0.0079 0.0000 ( 36209 PWs)   bands (ev):

   -56.7051 -56.6839 -56.5848 -56.5633 -56.3888 -56.3672 -33.0680 -33.0470
   -32.9520 -32.9351 -32.9300 -32.9140 -32.8726 -32.8441 -32.8218 -32.8015
   -32.7705 -32.7481 -32.6779 -32.6630 -32.6051 -32.4670 -32.4581 -32.4389
    -8.6090  -8.5273  -8.4328  -8.3795  -8.3662  -8.3404  -8.3304  -8.3217
    -8.2881  -8.2337  -8.2183  -8.1479  -8.0387  -8.0134  -7.9788  -7.9601
    -7.9566  -7.9128  -7.8735  -7.8471  -7.8346  -7.8338  -7.8002  -7.7857
    -7.7474  -7.7322  -7.7314  -7.6411  -7.6404  -7.4234  -6.1817  -4.6867
    -3.2162  -2.8658  -2.4610  -1.5909  -0.7662  -0.5551  -0.3260  -0.0486
     0.1739   0.1903   0.2765   0.3561   0.5150   0.5961   0.6833   0.7292
     0.7688   0.8712   0.8775   1.0026   1.1571   1.1801   1.2924   1.4042
     1.5050   1.6986   1.7923   1.9928   2.1648   2.2802

          k = 0.0421 0.0079 0.0000 ( 36209 PWs)   bands (ev):

   -56.7051 -56.6839 -56.5848 -56.5633 -56.3888 -56.3672 -33.0680 -33.0470
   -32.9520 -32.9351 -32.9300 -32.9140 -32.8726 -32.8441 -32.8218 -32.8015
   -32.7705 -32.7481 -32.6779 -32.6630 -32.6051 -32.4670 -32.4581 -32.4389
    -8.6090  -8.5273  -8.4328  -8.3795  -8.3662  -8.3404  -8.3304  -8.3217
    -8.2881  -8.2337  -8.2183  -8.1479  -8.0387  -8.0134  -7.9788  -7.9601
    -7.9566  -7.9128  -7.8735  -7.8471  -7.8346  -7.8338  -7.8002  -7.7857
    -7.7474  -7.7322  -7.7314  -7.6411  -7.6404  -7.4234  -6.1817  -4.6867
    -3.2162  -2.8658  -2.4610  -1.5909  -0.7662  -0.5551  -0.3260  -0.0486
     0.1739   0.1903   0.2765   0.3561   0.5150   0.5961   0.6833   0.7292
     0.7688   0.8712   0.8775   1.0026   1.1571   1.1801   1.2924   1.4042
     1.5050   1.6986   1.7923   1.9929   2.1640   2.2915

          k = 0.0561 0.0318 0.0000 ( 36178 PWs)   bands (ev):

   -56.7020 -56.6870 -56.5816 -56.5664 -56.3856 -56.3704 -33.0650 -33.0501
   -32.9489 -32.9334 -32.9321 -32.9171 -32.8445 -32.8410 -32.8251 -32.7731
   -32.7673 -32.7515 -32.7068 -32.6347 -32.6342 -32.4960 -32.4553 -32.4418
    -8.5324  -8.4504  -8.3502  -8.3207  -8.3107  -8.3008  -8.2743  -8.2401
    -8.2302  -8.2108  -8.1566  -8.0960  -8.0799  -8.0223  -7.9640  -7.9611
    -7.9463  -7.9428  -7.9182  -7.8965  -7.8631  -7.8476  -7.8371  -7.8248
    -7.8044  -7.7801  -7.7351  -7.7340  -7.6904  -7.5298  -5.8014  -4.3636
    -3.9065  -2.8646  -2.7242  -1.8621  -1.2453  -0.7627  -0.4567  -0.1024
     0.0429   0.2398   0.3294   0.3924   0.5006   0.5457   0.5643   0.7470
     0.7554   0.9230   0.9277   1.0221   1.1121   1.2137   1.2972   1.4856
     1.4968   1.7281   1.9556   1.9636   2.1198   2.2334

          k = 0.0561 0.0477 0.0000 ( 36143 PWs)   bands (ev):

   -56.7020 -56.6870 -56.5816 -56.5664 -56.3856 -56.3704 -33.0651 -33.0501
   -32.9491 -32.9333 -32.9323 -32.9170 -32.8446 -32.8412 -32.8250 -32.7732
   -32.7673 -32.7517 -32.7068 -32.6348 -32.6342 -32.4960 -32.4554 -32.4418
    -8.5307  -8.4401  -8.3515  -8.3196  -8.2967  -8.2852  -8.2662  -8.2351
    -8.2251  -8.2027  -8.1496  -8.0960  -8.0824  -8.0172  -7.9644  -7.9621
    -7.9465  -7.9465  -7.9184  -7.8972  -7.8664  -7.8477  -7.8248  -7.8241
    -7.8043  -7.7791  -7.7462  -7.7331  -7.6906  -7.5299  -5.6039  -4.2359
    -4.0930  -2.9060  -2.8032  -1.7914  -1.5806  -0.8307  -0.6590  -0.2532
     0.0540   0.1180   0.2318   0.3774   0.3942   0.5291   0.5884   0.6769
     0.7639   0.9066   0.9240   1.0802   1.1161   1.2625   1.3075   1.4849
     1.5399   1.8492   1.9774   2.1651   2.1859   2.1876

          k = 0.0561 0.0636 0.0000 ( 36142 PWs)   bands (ev):

   -56.7020 -56.6870 -56.5816 -56.5664 -56.3856 -56.3704 -33.0652 -33.0501
   -32.9493 -32.9334 -32.9324 -32.9169 -32.8447 -32.8414 -32.8250 -32.7733
   -32.7673 -32.7519 -32.7067 -32.6348 -32.6342 -32.4960 -32.4554 -32.4418
    -8.5291  -8.4293  -8.3529  -8.3182  -8.2813  -8.2686  -8.2604  -8.2319
    -8.2170  -8.1940  -8.1422  -8.0956  -8.0866  -8.0129  -7.9660  -7.9609
    -7.9496  -7.9439  -7.9163  -7.8993  -7.8769  -7.8477  -7.8239  -7.8115
    -7.8044  -7.7767  -7.7586  -7.7314  -7.6909  -7.5300  -5.3483  -4.2490
    -4.1407  -2.9831  -2.9352  -1.8632  -1.7155  -1.0479  -0.6144  -0.2625
    -0.1410   0.0323   0.1622   0.2687   0.3966   0.4579   0.5940   0.6354
     0.7679   0.8878   0.9593   1.0916   1.1620   1.2960   1.3290   1.4950
     1.5947   1.8962   1.9669   2.1284   2.1669   2.2257

          k = 0.0561 0.0794 0.0000 ( 36129 PWs)   bands (ev):

   -56.7019 -56.6870 -56.5816 -56.5664 -56.3856 -56.3704 -33.0652 -33.0501
   -32.9494 -32.9334 -32.9326 -32.9169 -32.8447 -32.8415 -32.8249 -32.7733
   -32.7672 -32.7520 -32.7067 -32.6349 -32.6341 -32.4960 -32.4554 -32.4418
    -8.5278  -8.4210  -8.3540  -8.3168  -8.2708  -8.2555  -8.2548  -8.2317
    -8.2093  -8.1873  -8.1362  -8.0950  -8.0912  -8.0109  -7.9643  -7.9604
    -7.9519  -7.9402  -7.9117  -7.9020  -7.8892  -7.8475  -7.8241  -7.8048
    -7.8033  -7.7737  -7.7677  -7.7304  -7.6910  -7.5300  -5.0741  -4.3511
    -4.1857  -3.0479  -2.9549  -2.1804  -1.6723  -0.9988  -0.6152  -0.4486
    -0.1636  -0.0117   0.1556   0.1950   0.3344   0.3991   0.5638   0.6345
     0.8000   0.8686   0.9759   1.0632   1.2323   1.3044   1.3871   1.5019
     1.6376   1.8964   1.9098   2.0318   2.1295   2.2612

          k = 0.0561 0.0953 0.0000 ( 36137 PWs)   bands (ev):

   -56.7019 -56.6870 -56.5816 -56.5664 -56.3856 -56.3704 -33.0653 -33.0501
   -32.9495 -32.9334 -32.9326 -32.9168 -32.8447 -32.8416 -32.8249 -32.7734
   -32.7672 -32.7521 -32.7067 -32.6349 -32.6342 -32.4960 -32.4554 -32.4418
    -8.5274  -8.4179  -8.3544  -8.3163  -8.2680  -8.2527  -8.2487  -8.2328
    -8.2061  -8.1848  -8.1339  -8.0948  -8.0933  -8.0106  -7.9625  -7.9603
    -7.9531  -7.9384  -7.9064  -7.9035  -7.8977  -7.8474  -7.8242  -7.8050
    -7.8008  -7.7723  -7.7711  -7.7301  -7.6911  -7.5300  -4.9202  -4.3865
    -4.2778  -3.0723  -2.8818  -2.3697  -1.6606  -0.8301  -0.6936  -0.6171
    -0.0834  -0.0344   0.1550   0.1694   0.2585   0.4001   0.5576   0.6290
     0.8185   0.8605   0.9761   1.0514   1.2549   1.3212   1.4100   1.5048
     1.6557   1.8674   1.8883   1.9977   2.1201   2.2729

          k = 0.0561 0.1112 0.0000 ( 36129 PWs)   bands (ev):

   -56.7019 -56.6870 -56.5816 -56.5664 -56.3856 -56.3704 -33.0652 -33.0501
   -32.9494 -32.9334 -32.9326 -32.9169 -32.8447 -32.8415 -32.8249 -32.7733
   -32.7672 -32.7520 -32.7067 -32.6349 -32.6341 -32.4960 -32.4554 -32.4418
    -8.5278  -8.4210  -8.3540  -8.3168  -8.2708  -8.2555  -8.2548  -8.2317
    -8.2093  -8.1873  -8.1362  -8.0950  -8.0912  -8.0109  -7.9643  -7.9604
    -7.9519  -7.9402  -7.9117  -7.9020  -7.8892  -7.8475  -7.8241  -7.8048
    -7.8033  -7.7737  -7.7677  -7.7304  -7.6910  -7.5300  -5.0741  -4.3511
    -4.1857  -3.0479  -2.9549  -2.1804  -1.6723  -0.9988  -0.6152  -0.4486
    -0.1636  -0.0117   0.1556   0.1950   0.3344   0.3991   0.5638   0.6345
     0.8000   0.8686   0.9759   1.0632   1.2323   1.3044   1.3871   1.5019
     1.6375   1.8962   1.9099   2.0319   2.1295   2.2611

          k = 0.0561-0.0636 0.0000 ( 36142 PWs)   bands (ev):

   -56.7020 -56.6870 -56.5816 -56.5664 -56.3856 -56.3704 -33.0652 -33.0501
   -32.9493 -32.9334 -32.9324 -32.9169 -32.8447 -32.8414 -32.8250 -32.7733
   -32.7673 -32.7519 -32.7067 -32.6348 -32.6342 -32.4960 -32.4554 -32.4418
    -8.5291  -8.4293  -8.3529  -8.3182  -8.2813  -8.2686  -8.2604  -8.2319
    -8.2170  -8.1940  -8.1422  -8.0956  -8.0866  -8.0129  -7.9660  -7.9609
    -7.9496  -7.9439  -7.9163  -7.8993  -7.8769  -7.8477  -7.8239  -7.8115
    -7.8044  -7.7767  -7.7586  -7.7314  -7.6909  -7.5300  -5.3483  -4.2490
    -4.1407  -2.9831  -2.9352  -1.8632  -1.7155  -1.0479  -0.6144  -0.2625
    -0.1410   0.0323   0.1622   0.2687   0.3966   0.4579   0.5940   0.6354
     0.7679   0.8878   0.9593   1.0916   1.1620   1.2960   1.3290   1.4950
     1.5948   1.8967   1.9669   2.1296   2.1670   2.2269

          k = 0.0561-0.0477 0.0000 ( 36143 PWs)   bands (ev):

   -56.7020 -56.6870 -56.5816 -56.5664 -56.3856 -56.3704 -33.0651 -33.0501
   -32.9491 -32.9333 -32.9323 -32.9170 -32.8446 -32.8412 -32.8250 -32.7732
   -32.7673 -32.7517 -32.7068 -32.6348 -32.6342 -32.4960 -32.4554 -32.4418
    -8.5307  -8.4401  -8.3515  -8.3196  -8.2967  -8.2852  -8.2662  -8.2351
    -8.2251  -8.2027  -8.1496  -8.0960  -8.0824  -8.0172  -7.9644  -7.9621
    -7.9465  -7.9465  -7.9184  -7.8972  -7.8664  -7.8477  -7.8248  -7.8241
    -7.8043  -7.7791  -7.7462  -7.7331  -7.6906  -7.5299  -5.6039  -4.2359
    -4.0930  -2.9060  -2.8032  -1.7914  -1.5806  -0.8307  -0.6590  -0.2532
     0.0540   0.1180   0.2318   0.3774   0.3942   0.5291   0.5884   0.6769
     0.7639   0.9066   0.9240   1.0802   1.1161   1.2625   1.3075   1.4849
     1.5399   1.8493   1.9775   2.1665   2.1885   2.1906

          k = 0.0561-0.0318 0.0000 ( 36178 PWs)   bands (ev):

   -56.7020 -56.6870 -56.5816 -56.5664 -56.3856 -56.3704 -33.0650 -33.0501
   -32.9489 -32.9334 -32.9321 -32.9171 -32.8445 -32.8410 -32.8251 -32.7731
   -32.7673 -32.7515 -32.7068 -32.6347 -32.6342 -32.4960 -32.4553 -32.4418
    -8.5324  -8.4504  -8.3502  -8.3207  -8.3107  -8.3008  -8.2743  -8.2401
    -8.2302  -8.2108  -8.1566  -8.0960  -8.0799  -8.0223  -7.9640  -7.9611
    -7.9463  -7.9428  -7.9182  -7.8965  -7.8631  -7.8476  -7.8371  -7.8248
    -7.8044  -7.7801  -7.7351  -7.7340  -7.6904  -7.5298  -5.8014  -4.3636
    -3.9065  -2.8646  -2.7242  -1.8621  -1.2453  -0.7627  -0.4567  -0.1024
     0.0429   0.2398   0.3294   0.3924   0.5006   0.5457   0.5643   0.7470
     0.7554   0.9230   0.9277   1.0221   1.1121   1.2137   1.2972   1.4856
     1.4968   1.7280   1.9556   1.9638   2.1207   2.2345

          k = 0.0561-0.0159 0.0000 ( 36193 PWs)   bands (ev):

   -56.7020 -56.6870 -56.5816 -56.5664 -56.3856 -56.3704 -33.0650 -33.0502
   -32.9488 -32.9334 -32.9320 -32.9172 -32.8444 -32.8409 -32.8252 -32.7731
   -32.7674 -32.7514 -32.7068 -32.6346 -32.6342 -32.4960 -32.4553 -32.4418
    -8.5337  -8.4576  -8.3493  -8.3243  -8.3168  -8.3118  -8.2822  -8.2445
    -8.2324  -8.2162  -8.1614  -8.0957  -8.0789  -8.0259  -7.9657  -7.9584
    -7.9443  -7.9391  -7.9155  -7.8965  -7.8720  -7.8476  -7.8398  -7.8258
    -7.8047  -7.7802  -7.7368  -7.7250  -7.6904  -7.5296  -5.9248  -4.4562
    -3.7326  -2.8899  -2.7117  -1.8850  -0.8638  -0.8420  -0.1237  -0.0602
     0.1220   0.2838   0.3618   0.3759   0.5190   0.5288   0.6079   0.7549
     0.8029   0.9252   0.9656   1.0463   1.0899   1.1812   1.2373   1.4457
     1.5378   1.5550   1.7756   1.9293   2.0444   2.2512

          k = 0.0561 0.0000 0.0000 ( 36187 PWs)   bands (ev):

   -56.7020 -56.6870 -56.5816 -56.5664 -56.3857 -56.3704 -33.0650 -33.0502
   -32.9488 -32.9334 -32.9319 -32.9172 -32.8444 -32.8408 -32.8252 -32.7730
   -32.7674 -32.7514 -32.7068 -32.6346 -32.6342 -32.4960 -32.4553 -32.4417
    -8.5341  -8.4602  -8.3490  -8.3271  -8.3170  -8.3157  -8.2855  -8.2462
    -8.2329  -8.2181  -8.1632  -8.0956  -8.0787  -8.0272  -7.9663  -7.9575
    -7.9431  -7.9374  -7.9130  -7.8966  -7.8788  -7.8476  -7.8393  -7.8264
    -7.8048  -7.7800  -7.7375  -7.7217  -7.6904  -7.5296  -5.9667  -4.4891
    -3.6532  -2.9220  -2.7142  -1.8818  -0.9065  -0.5444  -0.3025   0.1609
     0.2100   0.3115   0.3492   0.3873   0.4520   0.4573   0.6211   0.7910
     0.8916   0.9052   0.9390   1.0758   1.1204   1.1653   1.1843   1.4371
     1.4447   1.5608   1.7128   1.9170   1.9810   2.1602

          k = 0.0561 0.0159 0.0000 ( 36193 PWs)   bands (ev):

   -56.7020 -56.6870 -56.5816 -56.5664 -56.3856 -56.3704 -33.0650 -33.0502
   -32.9488 -32.9334 -32.9320 -32.9172 -32.8444 -32.8409 -32.8252 -32.7731
   -32.7674 -32.7514 -32.7068 -32.6346 -32.6342 -32.4960 -32.4553 -32.4418
    -8.5337  -8.4576  -8.3493  -8.3243  -8.3168  -8.3118  -8.2822  -8.2445
    -8.2324  -8.2162  -8.1614  -8.0957  -8.0789  -8.0259  -7.9657  -7.9584
    -7.9443  -7.9391  -7.9155  -7.8965  -7.8720  -7.8476  -7.8398  -7.8258
    -7.8047  -7.7802  -7.7368  -7.7250  -7.6904  -7.5296  -5.9248  -4.4562
    -3.7326  -2.8899  -2.7117  -1.8850  -0.8638  -0.8420  -0.1237  -0.0602
[...]
     1.4999   1.7783   1.8864   1.8873   2.0473   2.1809

          k = 0.0702 0.0556 0.0000 ( 36118 PWs)   bands (ev):

   -56.6983 -56.6906 -56.5780 -56.5701 -56.3820 -56.3741 -33.0615 -33.0537
   -32.9454 -32.9371 -32.9287 -32.9206 -32.8374 -32.8289 -32.8116 -32.7635
   -32.7555 -32.7402 -32.7399 -32.6679 -32.6016 -32.5297 -32.4521 -32.4450
    -8.4648  -8.3841  -8.3540  -8.2787  -8.2508  -8.2107  -8.1983  -8.1766
    -8.1506  -8.1325  -8.1037  -8.0843  -8.0510  -8.0379  -7.9985  -7.9854
    -7.9704  -7.9674  -7.9539  -7.9288  -7.9159  -7.8948  -7.8733  -7.8689
    -7.8410  -7.8138  -7.7848  -7.7511  -7.7296  -7.6254  -5.2065  -4.6576
    -3.9335  -3.3642  -2.6620  -2.0507  -1.4841  -0.7862  -0.7302  -0.2891
     0.1071   0.1440   0.2405   0.4230   0.5096   0.5784   0.6501   0.6937
     0.8557   0.8622   1.0261   1.1160   1.1577   1.2093   1.2554   1.4677
     1.5062   1.8323   1.8868   1.9437   2.0747   2.2093

          k = 0.0702 0.0715 0.0000 ( 36138 PWs)   bands (ev):

   -56.6983 -56.6906 -56.5780 -56.5701 -56.3820 -56.3741 -33.0616 -33.0537
   -32.9455 -32.9371 -32.9288 -32.9205 -32.8375 -32.8288 -32.8117 -32.7634
   -32.7557 -32.7402 -32.7400 -32.6679 -32.6016 -32.5297 -32.4521 -32.4451
    -8.4636  -8.3849  -8.3451  -8.2661  -8.2536  -8.2088  -8.1849  -8.1759
    -8.1500  -8.1251  -8.1035  -8.0803  -8.0578  -8.0343  -7.9954  -7.9900
    -7.9727  -7.9720  -7.9549  -7.9317  -7.9170  -7.8907  -7.8723  -7.8667
    -7.8385  -7.8145  -7.7835  -7.7521  -7.7398  -7.6216  -4.9505  -4.7987
    -3.9058  -3.4531  -2.7402  -2.0012  -1.7615  -0.7735  -0.6440  -0.1937
    -0.0742   0.0550   0.2620   0.3492   0.4839   0.5216   0.6168   0.6896
     0.8460   0.9163   1.0867   1.0877   1.2039   1.2707   1.2889   1.4731
     1.5143   1.8297   1.8300   1.9791   1.9927   2.0748

          k = 0.0702 0.0874 0.0000 ( 36165 PWs)   bands (ev):

   -56.6983 -56.6906 -56.5780 -56.5701 -56.3820 -56.3741 -33.0616 -33.0537
   -32.9456 -32.9371 -32.9289 -32.9205 -32.8376 -32.8288 -32.8117 -32.7634
   -32.7558 -32.7402 -32.7400 -32.6679 -32.6016 -32.5297 -32.4521 -32.4451
    -8.4629  -8.3855  -8.3390  -8.2566  -8.2561  -8.2099  -8.1768  -8.1759
    -8.1496  -8.1209  -8.1026  -8.0782  -8.0620  -8.0313  -7.9919  -7.9911
    -7.9767  -7.9751  -7.9557  -7.9333  -7.9180  -7.8892  -7.8718  -7.8650
    -7.8374  -7.8152  -7.7828  -7.7533  -7.7451  -7.6192  -4.8730  -4.7308
    -3.9940  -3.5061  -2.6989  -2.0074  -1.9871  -0.6261  -0.5531  -0.3514
    -0.0830   0.0377   0.2680   0.3057   0.3992   0.5304   0.6146   0.6568
     0.8376   0.9745   1.0710   1.0978   1.2217   1.3396   1.3867   1.4171
     1.5426   1.7327   1.8094   1.9097   1.9881   2.0215

          k = 0.0702 0.1033 0.0000 ( 36165 PWs)   bands (ev):

   -56.6983 -56.6906 -56.5780 -56.5701 -56.3820 -56.3741 -33.0616 -33.0537
   -32.9456 -32.9371 -32.9289 -32.9205 -32.8376 -32.8288 -32.8117 -32.7634
   -32.7558 -32.7402 -32.7400 -32.6679 -32.6016 -32.5297 -32.4521 -32.4451
    -8.4629  -8.3855  -8.3390  -8.2566  -8.2561  -8.2099  -8.1768  -8.1759
    -8.1496  -8.1209  -8.1026  -8.0782  -8.0620  -8.0313  -7.9919  -7.9911
    -7.9767  -7.9751  -7.9557  -7.9333  -7.9180  -7.8892  -7.8718  -7.8650
    -7.8374  -7.8152  -7.7828  -7.7533  -7.7451  -7.6192  -4.8730  -4.7308
    -3.9940  -3.5061  -2.6989  -2.0074  -1.9871  -0.6261  -0.5531  -0.3514
    -0.0830   0.0377   0.2680   0.3057   0.3992   0.5304   0.6146   0.6568
     0.8376   0.9745   1.0710   1.0978   1.2217   1.3396   1.3867   1.4172
     1.5425   1.7327   1.8092   1.9098   1.9881   2.0211

          k = 0.0702 0.1192 0.0000 ( 36138 PWs)   bands (ev):

   -56.6983 -56.6906 -56.5780 -56.5701 -56.3820 -56.3741 -33.0616 -33.0537
   -32.9455 -32.9371 -32.9288 -32.9205 -32.8375 -32.8288 -32.8117 -32.7634
   -32.7557 -32.7402 -32.7400 -32.6679 -32.6016 -32.5297 -32.4521 -32.4451
    -8.4636  -8.3849  -8.3451  -8.2661  -8.2536  -8.2088  -8.1849  -8.1759
    -8.1500  -8.1251  -8.1035  -8.0803  -8.0578  -8.0343  -7.9954  -7.9900
    -7.9727  -7.9720  -7.9549  -7.9317  -7.9170  -7.8907  -7.8723  -7.8667
    -7.8385  -7.8145  -7.7835  -7.7521  -7.7398  -7.6216  -4.9505  -4.7987
    -3.9058  -3.4531  -2.7402  -2.0012  -1.7615  -0.7735  -0.6440  -0.1937
    -0.0742   0.0550   0.2620   0.3492   0.4839   0.5216   0.6168   0.6896
     0.8460   0.9162   1.0867   1.0876   1.2039   1.2707   1.2889   1.4731
     1.5143   1.8296   1.8299   1.9790   1.9926   2.0747

          k = 0.0702-0.0556 0.0000 ( 36118 PWs)   bands (ev):

   -56.6983 -56.6906 -56.5780 -56.5701 -56.3820 -56.3741 -33.0615 -33.0537
   -32.9454 -32.9371 -32.9287 -32.9206 -32.8374 -32.8289 -32.8116 -32.7635
   -32.7555 -32.7402 -32.7399 -32.6679 -32.6016 -32.5297 -32.4521 -32.4450
    -8.4648  -8.3841  -8.3540  -8.2788  -8.2508  -8.2107  -8.1983  -8.1766
    -8.1506  -8.1325  -8.1037  -8.0843  -8.0510  -8.0379  -7.9985  -7.9854
    -7.9704  -7.9674  -7.9539  -7.9288  -7.9159  -7.8948  -7.8733  -7.8689
    -7.8410  -7.8138  -7.7848  -7.7511  -7.7296  -7.6254  -5.2065  -4.6576
    -3.9335  -3.3642  -2.6620  -2.0507  -1.4841  -0.7862  -0.7302  -0.2891
     0.1070   0.1440   0.2405   0.4230   0.5096   0.5784   0.6501   0.6937
     0.8557   0.8622   1.0261   1.1160   1.1577   1.2093   1.2554   1.4677
     1.5062   1.8322   1.8867   1.9436   2.0748   2.2098

          k = 0.0702-0.0397 0.0000 ( 36152 PWs)   bands (ev):

   -56.6984 -56.6906 -56.5780 -56.5701 -56.3820 -56.3741 -33.0615 -33.0538
   -32.9453 -32.9372 -32.9285 -32.9207 -32.8372 -32.8290 -32.8115 -32.7636
   -32.7554 -32.7402 -32.7399 -32.6680 -32.6015 -32.5297 -32.4521 -32.4451
    -8.4663  -8.3837  -8.3620  -8.2902  -8.2494  -8.2152  -8.2128  -8.1793
    -8.1506  -8.1410  -8.1025  -8.0891  -8.0432  -8.0401  -7.9986  -7.9787
    -7.9687  -7.9654  -7.9522  -7.9254  -7.9153  -7.9027  -7.8748  -7.8704
    -7.8446  -7.8133  -7.7865  -7.7503  -7.7176  -7.6294  -5.4259  -4.4654
    -4.0457  -3.2812  -2.5587  -2.1339  -1.2117  -0.9530  -0.4819  -0.3004
     0.1076   0.2053   0.3784   0.4387   0.5024   0.6407   0.6424   0.7343
     0.7812   0.8859   1.0174   1.0888   1.1302   1.1490   1.3220   1.4176
     1.4999   1.7783   1.8864   1.8873   2.0473   2.1806

          k = 0.0702-0.0238 0.0000 ( 36212 PWs)   bands (ev):

   -56.6984 -56.6906 -56.5780 -56.5701 -56.3820 -56.3741 -33.0614 -33.0538
   -32.9451 -32.9372 -32.9284 -32.9208 -32.8371 -32.8291 -32.8115 -32.7637
   -32.7553 -32.7403 -32.7398 -32.6680 -32.6015 -32.5298 -32.4521 -32.4451
    -8.4676  -8.3843  -8.3668  -8.2984  -8.2491  -8.2248  -8.2197  -8.1829
    -8.1502  -8.1480  -8.1008  -8.0934  -8.0409  -8.0360  -7.9964  -7.9745
    -7.9664  -7.9625  -7.9500  -7.9244  -7.9148  -7.9129  -7.8764  -7.8709
    -7.8484  -7.8134  -7.7880  -7.7497  -7.7073  -7.6323  -5.5825  -4.2521
    -4.1539  -3.2673  -2.5186  -2.1873  -1.1369  -0.8827  -0.1915  -0.1743
     0.0340   0.3109   0.3706   0.3933   0.4567   0.6372   0.6660   0.7280
     0.8313   0.9008   0.9789   1.0961   1.1333   1.1755   1.3734   1.4044
     1.4673   1.6608   1.7692   1.8712   1.9029   2.1626

          k = 0.0702-0.0079 0.0000 ( 36210 PWs)   bands (ev):

   -56.6984 -56.6906 -56.5780 -56.5701 -56.3820 -56.3741 -33.0614 -33.0538
   -32.9450 -32.9373 -32.9283 -32.9209 -32.8370 -32.8291 -32.8114 -32.7637
   -32.7552 -32.7403 -32.7398 -32.6680 -32.6015 -32.5298 -32.4521 -32.4451
    -8.4683  -8.3853  -8.3687  -8.3026  -8.2492  -8.2316  -8.2224  -8.1853
    -8.1520  -8.1499  -8.0996  -8.0959  -8.0410  -8.0315  -7.9942  -7.9742
    -7.9681  -7.9500  -7.9486  -7.9336  -7.9165  -7.9144  -7.8775  -7.8709
    -7.8508  -7.8136  -7.7888  -7.7493  -7.7014  -7.6338  -5.6636  -4.2155
    -4.0850  -3.3240  -2.5157  -2.1777  -1.2754  -0.5601  -0.1427  -0.0036
     0.1327   0.1992   0.3004   0.3825   0.4942   0.5520   0.6083   0.8016
     0.8672   0.9286   0.9662   1.0643   1.2095   1.2285   1.3602   1.4366
     1.4571   1.5328   1.6621   1.7975   1.8625   2.0409

          k = 0.0702 0.0079 0.0000 ( 36210 PWs)   bands (ev):

   -56.6984 -56.6906 -56.5780 -56.5701 -56.3820 -56.3741 -33.0614 -33.0538
   -32.9450 -32.9373 -32.9283 -32.9209 -32.8370 -32.8291 -32.8114 -32.7637
   -32.7552 -32.7403 -32.7398 -32.6680 -32.6015 -32.5298 -32.4521 -32.4451
    -8.4683  -8.3853  -8.3687  -8.3026  -8.2492  -8.2316  -8.2224  -8.1853
    -8.1520  -8.1499  -8.0996  -8.0959  -8.0410  -8.0315  -7.9942  -7.9742
    -7.9681  -7.9500  -7.9486  -7.9336  -7.9165  -7.9144  -7.8775  -7.8709
    -7.8508  -7.8136  -7.7888  -7.7493  -7.7014  -7.6338  -5.6636  -4.2155
    -4.0850  -3.3240  -2.5157  -2.1777  -1.2754  -0.5601  -0.1427  -0.0036
     0.1327   0.1992   0.3004   0.3825   0.4942   0.5520   0.6083   0.8016
     0.8672   0.9286   0.9662   1.0643   1.2095   1.2285   1.3603   1.4366
     1.4571   1.5328   1.6621   1.7975   1.8624   2.0409

          k = 0.0702 0.0238 0.0000 ( 36212 PWs)   bands (ev):

   -56.6984 -56.6906 -56.5780 -56.5701 -56.3820 -56.3741 -33.0614 -33.0538
   -32.9451 -32.9372 -32.9284 -32.9208 -32.8371 -32.8291 -32.8115 -32.7637
   -32.7553 -32.7403 -32.7398 -32.6680 -32.6015 -32.5298 -32.4521 -32.4451
    -8.4676  -8.3843  -8.3668  -8.2984  -8.2491  -8.2248  -8.2197  -8.1829
    -8.1502  -8.1480  -8.1008  -8.0934  -8.0409  -8.0360  -7.9964  -7.9745
    -7.9664  -7.9625  -7.9500  -7.9244  -7.9148  -7.9129  -7.8764  -7.8709
    -7.8484  -7.8134  -7.7880  -7.7497  -7.7073  -7.6323  -5.5825  -4.2521
    -4.1539  -3.2673  -2.5186  -2.1873  -1.1369  -0.8827  -0.1915  -0.1743
     0.0340   0.3109   0.3706   0.3933   0.4567   0.6372   0.6660   0.7280
     0.8313   0.9008   0.9789   1.0961   1.1333   1.1755   1.3734   1.4044
     1.4673   1.6608   1.7692   1.8710   1.9029   2.1628

          k =-0.0842-0.0477 0.0000 ( 36156 PWs)   bands (ev):

   -56.6946 -56.6943 -56.5745 -56.5735 -56.3782 -56.3778 -33.0578 -33.0575
   -32.9414 -32.9410 -32.9251 -32.9242 -32.8336 -32.8327 -32.7761 -32.7758
   -32.7597 -32.7593 -32.7045 -32.7036 -32.5659 -32.5655 -32.4488 -32.4484
    -8.4166  -8.4166  -8.2904  -8.2904  -8.2464  -8.2464  -8.1303  -8.1303
    -8.0991  -8.0991  -8.0640  -8.0640  -8.0377  -8.0376  -8.0021  -8.0020
    -7.9835  -7.9833  -7.9650  -7.9649  -7.9518  -7.9517  -7.9152  -7.9151
    -7.8114  -7.8113  -7.8003  -7.8002  -7.6907  -7.6906  -4.9772  -4.9771
    -3.6796  -3.6793  -2.3655  -2.3653  -1.1069  -1.1069  -0.4366  -0.4364
     0.1585   0.1586   0.3985   0.3986   0.5978   0.5980   0.7081   0.7082
     0.8560   0.8561   1.0656   1.0659   1.1483   1.1485   1.3380   1.3383
     1.6598   1.6599   1.8323   1.8323   2.1145   2.1154

          k =-0.0842-0.0318 0.0000 ( 36147 PWs)   bands (ev):

   -56.6946 -56.6943 -56.5745 -56.5735 -56.3782 -56.3778 -33.0578 -33.0575
   -32.9414 -32.9410 -32.9251 -32.9242 -32.8336 -32.8327 -32.7761 -32.7758
   -32.7597 -32.7593 -32.7045 -32.7036 -32.5659 -32.5655 -32.4488 -32.4484
    -8.4182  -8.4150  -8.2904  -8.2876  -8.2492  -8.2464  -8.1404  -8.1213
    -8.1034  -8.0930  -8.0665  -8.0594  -8.0410  -8.0349  -8.0045  -7.9985
    -7.9859  -7.9818  -7.9658  -7.9625  -7.9545  -7.9498  -7.9171  -7.9158
    -7.8117  -7.8109  -7.8009  -7.7999  -7.7000  -7.6811  -5.1579  -4.7506
    -3.7861  -3.6097  -2.4569  -2.2953  -1.3400  -0.8664  -0.5038  -0.2536
     0.0810   0.2463   0.2731   0.4232   0.5372   0.6249   0.6722   0.7680
     0.7848   0.9098   1.0511   1.0770   1.1878   1.1910   1.3018   1.3959
     1.6224   1.6594   1.7814   1.8474   1.9513   2.2248

          k =-0.0842-0.0159 0.0000 ( 36186 PWs)   bands (ev):

   -56.6946 -56.6943 -56.5745 -56.5735 -56.3782 -56.3779 -33.0578 -33.0575
   -32.9415 -32.9410 -32.9251 -32.9242 -32.8336 -32.8327 -32.7761 -32.7758
   -32.7598 -32.7593 -32.7045 -32.7036 -32.5659 -32.5655 -32.4488 -32.4484
    -8.4193  -8.4139  -8.2885  -8.2828  -8.2538  -8.2482  -8.1477  -8.1191
    -8.1013  -8.0895  -8.0653  -8.0558  -8.0445  -8.0326  -8.0058  -7.9947
    -7.9877  -7.9825  -7.9661  -7.9595  -7.9558  -7.9488  -7.9206  -7.9180
    -7.8119  -7.8105  -7.8016  -7.8000  -7.7066  -7.6740  -5.2729  -4.5216
    -3.8681  -3.6456  -2.4724  -2.2745  -1.5724  -0.6176  -0.4058  -0.1116
     0.0387   0.0740   0.3410   0.3857   0.4478   0.6369   0.6807   0.7257
     0.7495   0.9782   1.0275   1.1367   1.2053   1.2623   1.3918   1.4334
     1.5130   1.6370   1.6984   1.8180   1.8544   2.0136

          k =-0.0842-0.0000 0.0000 ( 36157 PWs)   bands (ev):

   -56.6946 -56.6943 -56.5745 -56.5735 -56.3782 -56.3778 -33.0578 -33.0575
   -32.9415 -32.9410 -32.9251 -32.9242 -32.8336 -32.8326 -32.7761 -32.7758
   -32.7598 -32.7593 -32.7045 -32.7036 -32.5659 -32.5655 -32.4488 -32.4484
    -8.4197  -8.4135  -8.2873  -8.2800  -8.2566  -8.2493  -8.1503  -8.1196
    -8.0990  -8.0887  -8.0636  -8.0545  -8.0463  -8.0316  -8.0062  -7.9927
    -7.9883  -7.9835  -7.9661  -7.9598  -7.9543  -7.9485  -7.9226  -7.9191
    -7.8120  -7.8102  -7.8018  -7.8000  -7.7090  -7.6714  -5.3124  -4.4052
    -3.8979  -3.7051  -2.4427  -2.2730  -1.6867  -0.4884  -0.2324  -0.1676
    -0.1010   0.1261   0.2804   0.3974   0.4594   0.6232   0.6769   0.6839
     0.7480   1.0197   1.0503   1.0863   1.2945   1.3209   1.3785   1.4450
     1.5432   1.5703   1.6213   1.7651   1.8584   1.9470

          k =-0.0842 0.0159 0.0000 ( 36186 PWs)   bands (ev):

   -56.6946 -56.6943 -56.5745 -56.5735 -56.3782 -56.3779 -33.0578 -33.0575
   -32.9415 -32.9410 -32.9251 -32.9242 -32.8336 -32.8327 -32.7761 -32.7758
   -32.7598 -32.7593 -32.7045 -32.7036 -32.5659 -32.5655 -32.4488 -32.4484
    -8.4193  -8.4139  -8.2885  -8.2828  -8.2538  -8.2482  -8.1477  -8.1191
    -8.1013  -8.0895  -8.0653  -8.0558  -8.0445  -8.0326  -8.0058  -7.9947
    -7.9877  -7.9825  -7.9661  -7.9595  -7.9558  -7.9488  -7.9206  -7.9180
    -7.8119  -7.8105  -7.8016  -7.8000  -7.7066  -7.6740  -5.2729  -4.5216
    -3.8681  -3.6456  -2.4724  -2.2745  -1.5724  -0.6176  -0.4058  -0.1116
     0.0387   0.0740   0.3410   0.3857   0.4478   0.6369   0.6807   0.7257
     0.7495   0.9782   1.0275   1.1367   1.2053   1.2623   1.3918   1.4334
     1.5130   1.6370   1.6984   1.8180   1.8544   2.0136

          k =-0.0842 0.0318 0.0000 ( 36147 PWs)   bands (ev):

   -56.6946 -56.6943 -56.5745 -56.5735 -56.3782 -56.3778 -33.0578 -33.0575
   -32.9414 -32.9410 -32.9251 -32.9242 -32.8336 -32.8327 -32.7761 -32.7758
   -32.7597 -32.7593 -32.7045 -32.7036 -32.5659 -32.5655 -32.4488 -32.4484
    -8.4182  -8.4150  -8.2904  -8.2876  -8.2492  -8.2464  -8.1404  -8.1213
    -8.1034  -8.0930  -8.0665  -8.0594  -8.0410  -8.0349  -8.0045  -7.9985
    -7.9859  -7.9818  -7.9658  -7.9625  -7.9545  -7.9498  -7.9171  -7.9158
    -7.8117  -7.8109  -7.8009  -7.7999  -7.7000  -7.6811  -5.1579  -4.7506
    -3.7861  -3.6097  -2.4569  -2.2953  -1.3400  -0.8664  -0.5038  -0.2536
     0.0810   0.2463   0.2731   0.4232   0.5372   0.6249   0.6722   0.7680
     0.7848   0.9098   1.0511   1.0770   1.1878   1.1910   1.3018   1.3959
     1.6224   1.6594   1.7814   1.8474   1.9511   2.2262

          k =-0.0842-0.1430 0.0000 ( 36156 PWs)   bands (ev):

   -56.6946 -56.6943 -56.5745 -56.5735 -56.3782 -56.3778 -33.0578 -33.0575
   -32.9414 -32.9410 -32.9251 -32.9242 -32.8336 -32.8327 -32.7761 -32.7758
   -32.7597 -32.7593 -32.7045 -32.7036 -32.5659 -32.5655 -32.4488 -32.4484
    -8.4166  -8.4166  -8.2904  -8.2904  -8.2464  -8.2464  -8.1303  -8.1303
    -8.0991  -8.0990  -8.0640  -8.0640  -8.0377  -8.0376  -8.0021  -8.0020
    -7.9835  -7.9833  -7.9650  -7.9649  -7.9518  -7.9517  -7.9152  -7.9151
    -7.8114  -7.8113  -7.8003  -7.8002  -7.6907  -7.6906  -4.9772  -4.9771
    -3.6796  -3.6793  -2.3655  -2.3653  -1.1069  -1.1069  -0.4366  -0.4364
     0.1585   0.1586   0.3985   0.3986   0.5978   0.5980   0.7081   0.7082
     0.8560   0.8561   1.0656   1.0659   1.1482   1.1485   1.3381   1.3383
     1.6598   1.6599   1.8323   1.8323   2.1128   2.1129

     the Fermi energy is     0.6898 ev

!    total energy              =   -1329.51520514 Ry
     estimated scf accuracy    <       0.00000303 Ry
     smearing contrib. (-TS)   =      -0.09086246 Ry
     internal energy E=F+TS    =   -1329.42434268 Ry

     The total energy is F=E-TS. E is the sum of the following terms:
     one-electron contribution =   -9771.10511512 Ry
     hartree contribution      =    4919.22461104 Ry
     xc contribution           =    -258.01532134 Ry
     ewald contribution        =    3780.47147756 Ry
     electric field correction =       0.00000518 Ry

     convergence has been achieved in  22 iterations

     negative rho (up, down):  2.805E-03 0.000E+00

     Forces acting on atoms (cartesian axes, Ry/au):

     atom    1 type  1   force =    -0.00000102    0.00901395    0.02014753
     atom    2 type  1   force =     0.00000310    0.00900171    0.02012640
     atom    3 type  2   force =     0.00003887   -0.00390118   -0.01958393
     atom    4 type  2   force =    -0.00003869   -0.00390672   -0.01959006
     atom    5 type  1   force =    -0.00000445   -0.00969843    0.00139091
     atom    6 type  1   force =     0.00000075   -0.00963266    0.00147052
     atom    7 type  2   force =    -0.00004648    0.00458483   -0.00242287
     atom    8 type  2   force =     0.00004351    0.00456970   -0.00242389
     atom    9 type  1   force =    -0.00000247    0.00000395   -0.00159079
     atom   10 type  1   force =    -0.00000166    0.00008591   -0.00147741
     atom   11 type  2   force =     0.00001802   -0.00006416    0.00198263
     atom   12 type  2   force =    -0.00000948   -0.00005691    0.00197095

     Total force =     0.045036     Total SCF correction =     0.006454
     SCF correction compared to forces is large: reduce conv_thr to get better values

     Writing output data file ./Ti2Cd2/Ti2Cd2_beef.save/

     init_run     :     98.11s CPU     98.75s WALL (       1 calls)
     electrons    :   4920.45s CPU   4958.77s WALL (       1 calls)
     forces       :     59.46s CPU     59.74s WALL (       1 calls)

     Called by init_run:
     wfcinit      :     83.24s CPU     83.63s WALL (       1 calls)
     potinit      :      8.87s CPU      8.97s WALL (       1 calls)
     hinit0       :      3.31s CPU      3.33s WALL (       1 calls)

     Called by electrons:
     c_bands      :   4350.90s CPU   4375.82s WALL (      22 calls)
     sum_band     :    510.98s CPU    519.91s WALL (      22 calls)
     v_of_rho     :     41.95s CPU     43.77s WALL (      23 calls)
     newd         :     23.12s CPU     25.73s WALL (      23 calls)
     mix_rho      :      1.14s CPU      1.16s WALL (      22 calls)
     vdW_kernel   :      6.01s CPU      6.02s WALL (       1 calls)

     Called by c_bands:
     init_us_2    :     12.77s CPU     12.85s WALL (    3404 calls)
     cegterg      :   4295.41s CPU   4317.98s WALL (    1633 calls)

     Called by *egterg:
     cdiaghg      :    235.86s CPU    236.12s WALL (   11013 calls)
     h_psi        :   2128.11s CPU   2147.02s WALL (   11087 calls)
     s_psi        :    454.55s CPU    454.95s WALL (   11087 calls)
     g_psi        :      2.28s CPU      2.30s WALL (    9380 calls)

     Called by h_psi:
     h_psi:calbec :    769.40s CPU    771.65s WALL (   11087 calls)
     vloc_psi     :    835.62s CPU    851.98s WALL (   11087 calls)
     add_vuspsi   :    517.66s CPU    517.94s WALL (   11087 calls)

     General routines
     calbec       :   1115.41s CPU   1119.47s WALL (   13011 calls)
     fft          :     27.54s CPU     28.53s WALL (    1508 calls)
     ffts         :      0.13s CPU      0.13s WALL (      45 calls)
     fftw         :    937.98s CPU    958.75s WALL (  863378 calls)
     interpolate  :      0.44s CPU      0.46s WALL (      23 calls)

     Parallel routines
     fft_scatt_xy :     79.98s CPU     80.83s WALL (  864931 calls)
     fft_scatt_yz :    312.77s CPU    327.22s WALL (  864931 calls)

     PWSCF        :      1h25m CPU      1h26m WALL


   This run was terminated on:   5:32:35  25Jun2022            

=------------------------------------------------------------------------------=
   JOB DONE.
=------------------------------------------------------------------------------=
