
     Program PWSCF v.6.6 starts on 25Jun2022 at  6:49:49 

     This program is part of the open-source Quantum ESPRESSO suite
     for quantum simulation of materials; please cite
         "P. Giannozzi et al., J. Phys.:Condens. Matter 21 395502 (2009);
         "P. Giannozzi et al., J. Phys.:Condens. Matter 29 465901 (2017);
          URL http://www.quantum-espresso.org", 
     in publications or presentations arising from this work. More details at
     http://www.quantum-espresso.org/quote

     Parallel version (MPI), running on    37 processors

     MPI processes distributed on     1 nodes
     R & G space division:  proc/nbgrp/npool/nimage =      37
     Fft bands division:     nmany     =       1
     Reading input from Ti2Cu2.in
Warning: card &CELL ignored
Warning: card / ignored

     Current dimensions of program PWSCF are:
     Max number of different atomic species (ntypx) = 10
     Max number of k-points (npk) =  40000
     Max angular momentum in pseudopotentials (lmaxx) =  3
     Presently stress not available with electric field and gates

     Message from routine cell_base_init:
     DEPRECATED: use true lattice parameter, not A to a.u. conversion factor
     file Ti.pbe-spn-rrkjus_psl.1.0.0.UPF: wavefunction(s)  3S 3D renormalized
     file Cu.pbe-dn-rrkjus_psl.1.0.0.UPF: wavefunction(s)  3D renormalized

     **************************************************************************
     Initializing libbeef V0.1.2 with the BEEF-vdW functional.
     Citation: Wellendorff et al., PRB 85, 235149 (2012).
     **************************************************************************


     IMPORTANT: XC functional enforced from input :
     Exchange-correlation= BEEF-VDW
                           (   1   4  43  14   2   0   0)
     Any further DFT definition will be discarded
     Please, verify this is what you really want


     Subspace diagonalization in iterative solution of the eigenvalue problem:
     a serial algorithm will be used


     Parallelization info
     --------------------
     sticks:   dense  smooth     PW     G-vecs:    dense   smooth      PW
     Min         109      44     12                25239     6386    1000
     Max         110      45     13                25254     6397    1017
     Sum        4057    1631    475               934125   236501   37429



     bravais-lattice index     =            0
     lattice parameter (alat)  =       1.8897  a.u.
     unit-cell volume          =    4273.9069 (a.u.)^3
     number of atoms/cell      =           12
     number of atomic types    =            2
     number of electrons       =       138.00
     number of Kohn-Sham states=           83
     kinetic-energy cutoff     =      55.1240  Ry
     charge density cutoff     =     551.2396  Ry
     convergence threshold     =      1.0E-05
     mixing beta               =       0.1000
     number of iterations used =           10  plain     mixing
     Exchange-correlation= BEEF-VDW
                           (   1   4  43  14   2   0   0)

     celldm(1)=   1.889726  celldm(2)=   0.000000  celldm(3)=   0.000000
     celldm(4)=   0.000000  celldm(5)=   0.000000  celldm(6)=   0.000000

     crystal axes: (cart. coord. in units of alat)
               a(1) = (   5.452922   0.000000   0.000000 )  
               a(2) = (  -2.726461   4.747563   0.000000 )  
               a(3) = (   0.000000   0.000000  24.464059 )  

     reciprocal axes: (cart. coord. in units 2 pi/alat)
               b(1) = (  0.183388  0.105317 -0.000000 )  
               b(2) = (  0.000000  0.210634  0.000000 )  
               b(3) = (  0.000000 -0.000000  0.040876 )  


     PseudoPot. # 1 for Ti read from file:
     ../pseudo/Ti.pbe-spn-rrkjus_psl.1.0.0.UPF
     MD5 check sum: e281089c08e14b8efcf92e44a67ada65
     Pseudo is Ultrasoft + core correction, Zval = 12.0
     Generated using "atomic" code by A. Dal Corso v.6.2.2
     Using radial grid of 1177 points,  6 beta functions with: 
                l(1) =   0
                l(2) =   0
                l(3) =   1
                l(4) =   1
                l(5) =   2
                l(6) =   2
     Q(r) pseudized with 0 coefficients 


     PseudoPot. # 2 for Cu read from file:
     ../pseudo/Cu.pbe-dn-rrkjus_psl.1.0.0.UPF
     MD5 check sum: 8469560995d0c2df1ffe68c099c04a63
     Pseudo is Ultrasoft + core correction, Zval = 11.0
     Generated using "atomic" code by A. Dal Corso v.6.3
     Using radial grid of 1199 points,  6 beta functions with: 
                l(1) =   0
                l(2) =   0
                l(3) =   1
                l(4) =   1
                l(5) =   2
                l(6) =   2
     Q(r) pseudized with 0 coefficients 


     atomic species   valence    mass     pseudopotential
        Ti            12.00    47.86700     Ti( 1.00)
        Cu            11.00    63.54600     Cu( 1.00)

     No symmetry found



   Cartesian axes

     site n.     atom                  positions (alat units)
         1           Ti  tau(   1) = (   0.0000000   0.0000000  10.0000000  )
         2           Ti  tau(   2) = (   2.7264611   0.0000000  10.0000000  )
         3           Cu  tau(   3) = (   1.3632305   2.3737814  10.0000000  )
         4           Cu  tau(   4) = (  -1.3632305   2.3737814  10.0000000  )
         5           Ti  tau(   5) = (   2.7264611   1.5657697  12.2320294  )
         6           Ti  tau(   6) = (   0.0000000   1.5657697  12.2320294  )
         7           Cu  tau(   7) = (  -1.3632305   3.9395511  12.2320294  )
         8           Cu  tau(   8) = (   1.3632305   3.9395511  12.2320294  )
         9           Ti  tau(   9) = (   0.0000011   3.2304623  14.4095741  )
        10           Ti  tau(  10) = (   2.7264672   3.2312023  14.4095461  )
        11           Cu  tau(  11) = (   4.0893923   0.8337663  14.4337943  )
        12           Cu  tau(  12) = (   1.3635440   0.8337660  14.4337790  )

     number of k points=    74  Fermi-Dirac smearing, width (Ry)=  0.0100
                       cart. coord. in units 2pi/alat
        k(    1) = (   0.0000000   0.0000000   0.0000000), wk =   0.0138889
        k(    2) = (   0.0000000   0.0175529   0.0000000), wk =   0.0277778
        k(    3) = (   0.0000000   0.0351057   0.0000000), wk =   0.0277778
        k(    4) = (   0.0000000   0.0526586   0.0000000), wk =   0.0277778
        k(    5) = (   0.0000000   0.0702115   0.0000000), wk =   0.0277778
        k(    6) = (   0.0000000   0.0877643   0.0000000), wk =   0.0277778
        k(    7) = (   0.0000000  -0.1053172   0.0000000), wk =   0.0138889
        k(    8) = (   0.0152823   0.0087764   0.0000000), wk =   0.0277778
        k(    9) = (   0.0152823   0.0263293   0.0000000), wk =   0.0277778
        k(   10) = (   0.0152823   0.0438822   0.0000000), wk =   0.0277778
        k(   11) = (   0.0152823   0.0614350   0.0000000), wk =   0.0277778
        k(   12) = (   0.0152823   0.0789879   0.0000000), wk =   0.0277778
        k(   13) = (   0.0152823   0.0965408   0.0000000), wk =   0.0277778
        k(   14) = (   0.0152823  -0.0965408   0.0000000), wk =   0.0277778
        k(   15) = (   0.0152823  -0.0789879   0.0000000), wk =   0.0277778
        k(   16) = (   0.0152823  -0.0614350   0.0000000), wk =   0.0277778
        k(   17) = (   0.0152823  -0.0438822   0.0000000), wk =   0.0277778
        k(   18) = (   0.0152823  -0.0263293   0.0000000), wk =   0.0277778
        k(   19) = (   0.0152823  -0.0087764   0.0000000), wk =   0.0277778
        k(   20) = (   0.0305647   0.0175529   0.0000000), wk =   0.0277778
        k(   21) = (   0.0305647   0.0351057   0.0000000), wk =   0.0277778
        k(   22) = (   0.0305647   0.0526586   0.0000000), wk =   0.0277778
        k(   23) = (   0.0305647   0.0702115   0.0000000), wk =   0.0277778
        k(   24) = (   0.0305647   0.0877643   0.0000000), wk =   0.0277778
        k(   25) = (   0.0305647   0.1053172   0.0000000), wk =   0.0277778
        k(   26) = (   0.0305647  -0.0877643   0.0000000), wk =   0.0277778
        k(   27) = (   0.0305647  -0.0702115   0.0000000), wk =   0.0277778
        k(   28) = (   0.0305647  -0.0526586   0.0000000), wk =   0.0277778
        k(   29) = (   0.0305647  -0.0351057   0.0000000), wk =   0.0277778
        k(   30) = (   0.0305647  -0.0175529   0.0000000), wk =   0.0277778
        k(   31) = (   0.0305647  -0.0000000   0.0000000), wk =   0.0277778
        k(   32) = (   0.0458470   0.0263293   0.0000000), wk =   0.0277778
        k(   33) = (   0.0458470   0.0438822   0.0000000), wk =   0.0277778
        k(   34) = (   0.0458470   0.0614350   0.0000000), wk =   0.0277778
        k(   35) = (   0.0458470   0.0789879   0.0000000), wk =   0.0277778
        k(   36) = (   0.0458470   0.0965408   0.0000000), wk =   0.0277778
        k(   37) = (   0.0458470   0.1140936   0.0000000), wk =   0.0277778
        k(   38) = (   0.0458470  -0.0789879   0.0000000), wk =   0.0277778
        k(   39) = (   0.0458470  -0.0614350   0.0000000), wk =   0.0277778
        k(   40) = (   0.0458470  -0.0438822   0.0000000), wk =   0.0277778
        k(   41) = (   0.0458470  -0.0263293   0.0000000), wk =   0.0277778
        k(   42) = (   0.0458470  -0.0087764   0.0000000), wk =   0.0277778
        k(   43) = (   0.0458470   0.0087764   0.0000000), wk =   0.0277778
        k(   44) = (   0.0611293   0.0351057   0.0000000), wk =   0.0277778
        k(   45) = (   0.0611293   0.0526586   0.0000000), wk =   0.0277778
        k(   46) = (   0.0611293   0.0702115   0.0000000), wk =   0.0277778
        k(   47) = (   0.0611293   0.0877643   0.0000000), wk =   0.0277778
        k(   48) = (   0.0611293   0.1053172   0.0000000), wk =   0.0277778
        k(   49) = (   0.0611293   0.1228701   0.0000000), wk =   0.0277778
        k(   50) = (   0.0611293  -0.0702115   0.0000000), wk =   0.0277778
        k(   51) = (   0.0611293  -0.0526586   0.0000000), wk =   0.0277778
        k(   52) = (   0.0611293  -0.0351057   0.0000000), wk =   0.0277778
        k(   53) = (   0.0611293  -0.0175529   0.0000000), wk =   0.0277778
        k(   54) = (   0.0611293   0.0000000   0.0000000), wk =   0.0277778
        k(   55) = (   0.0611293   0.0175529   0.0000000), wk =   0.0277778
        k(   56) = (   0.0764116   0.0438822   0.0000000), wk =   0.0277778
        k(   57) = (   0.0764116   0.0614350   0.0000000), wk =   0.0277778
        k(   58) = (   0.0764116   0.0789879   0.0000000), wk =   0.0277778
        k(   59) = (   0.0764116   0.0965408   0.0000000), wk =   0.0277778
        k(   60) = (   0.0764116   0.1140936   0.0000000), wk =   0.0277778
        k(   61) = (   0.0764116   0.1316465   0.0000000), wk =   0.0277778
        k(   62) = (   0.0764116  -0.0614350   0.0000000), wk =   0.0277778
        k(   63) = (   0.0764116  -0.0438822   0.0000000), wk =   0.0277778
        k(   64) = (   0.0764116  -0.0263293   0.0000000), wk =   0.0277778
        k(   65) = (   0.0764116  -0.0087764   0.0000000), wk =   0.0277778
        k(   66) = (   0.0764116   0.0087764   0.0000000), wk =   0.0277778
        k(   67) = (   0.0764116   0.0263293   0.0000000), wk =   0.0277778
        k(   68) = (  -0.0916940  -0.0526586   0.0000000), wk =   0.0138889
        k(   69) = (  -0.0916940  -0.0351057   0.0000000), wk =   0.0277778
        k(   70) = (  -0.0916940  -0.0175529   0.0000000), wk =   0.0277778
        k(   71) = (  -0.0916940   0.0000000   0.0000000), wk =   0.0277778
        k(   72) = (  -0.0916940   0.0175529   0.0000000), wk =   0.0277778
        k(   73) = (  -0.0916940   0.0351057   0.0000000), wk =   0.0277778
        k(   74) = (  -0.0916940  -0.1579758   0.0000000), wk =   0.0138889

     Dense  grid:   934125 G-vectors     FFT dimensions: (  80,  80, 360)

     Smooth grid:   236501 G-vectors     FFT dimensions: (  50,  50, 225)

     Estimated max dynamical RAM per process >     177.28 MB

     Estimated total dynamical RAM >       6.41 GB

     Check: negative core charge=   -0.000001

     Initial potential from superposition of free atoms

     starting charge  137.98974, renormalised to  138.00000

     negative rho (up, down):  8.644E-04 0.000E+00


     %%%%%%%%%%%%%%%%%%%%%%%%%%%%%%%%%%%%%%%%%%%%%%%%%%%%%%%%%%%%%%%%%%%%%%%%
     %                                                                      %
     % You are using vdW-DF, which was implemented by the Thonhauser group. %
     % Please cite the following two papers that made this development      %
     % possible and the two reviews that describe the various versions:     %
     %                                                                      %
     %   T. Thonhauser et al., PRL 115, 136402 (2015).                      %
     %   T. Thonhauser et al., PRB 76, 125112 (2007).                       %
     %   K. Berland et al., Rep. Prog. Phys. 78, 066501 (2015).             %
     %   D.C. Langreth et al., J. Phys.: Condens. Matter 21, 084203 (2009). %
     %                                                                      %
     %                                                                      %
     % If you are calculating the stress with vdW-DF, please also cite:     %
     %                                                                      %
     %   R. Sabatini et al., J. Phys.: Condens. Matter 24, 424209 (2012).   %
     %                                                                      %
     %%%%%%%%%%%%%%%%%%%%%%%%%%%%%%%%%%%%%%%%%%%%%%%%%%%%%%%%%%%%%%%%%%%%%%%%



     Adding external electric field

     Computed dipole along edir(3) : 
        Dipole               -0.0001 Ry au,         -0.0001 Debye
        Dipole field         -0.0000 Ry au, 

        Potential amp.        0.0000 Ry
        Total length         45.0746 bohr

     Starting wfcs are  114 randomized atomic wfcs

     total cpu time spent up to now is       87.3 secs

     Self-consistent Calculation

     iteration #  1     ecut=    55.12 Ry     beta= 0.10
     Davidson diagonalization with overlap
     ethr =  1.00E-02,  avg # of iterations =  2.0

     negative rho (up, down):  7.565E-04 0.000E+00

     Adding external electric field

     Computed dipole along edir(3) : 
        Dipole               -0.0603 Ry au,         -0.1534 Debye
        Dipole field         -0.0002 Ry au, 

        Potential amp.        0.0160 Ry
        Total length         45.0746 bohr


     total cpu time spent up to now is      245.5 secs

     total energy              =   -1465.97765587 Ry
     estimated scf accuracy    <       4.69445944 Ry

     iteration #  2     ecut=    55.12 Ry     beta= 0.10
     Davidson diagonalization with overlap
     ethr =  3.40E-03,  avg # of iterations =  2.3

     negative rho (up, down):  7.592E-04 0.000E+00

     Adding external electric field

     Computed dipole along edir(3) : 
        Dipole                0.2093 Ry au,          0.5320 Debye
        Dipole field          0.0006 Ry au, 

        Potential amp.       -0.0555 Ry
        Total length         45.0746 bohr


     total cpu time spent up to now is      392.2 secs

     total energy              =   -1466.31702546 Ry
     estimated scf accuracy    <       3.08962651 Ry

     iteration #  3     ecut=    55.12 Ry     beta= 0.10
     Davidson diagonalization with overlap
     ethr =  2.24E-03,  avg # of iterations =  1.8

     negative rho (up, down):  8.583E-04 0.000E+00

     Adding external electric field

     Computed dipole along edir(3) : 
        Dipole               -0.1431 Ry au,         -0.3637 Debye
        Dipole field         -0.0004 Ry au, 

        Potential amp.        0.0379 Ry
        Total length         45.0746 bohr


     total cpu time spent up to now is      536.8 secs

     total energy              =   -1466.36774113 Ry
     estimated scf accuracy    <       3.79283150 Ry

     iteration #  4     ecut=    55.12 Ry     beta= 0.10
     Davidson diagonalization with overlap
     ethr =  2.24E-03,  avg # of iterations =  1.0

     negative rho (up, down):  7.910E-04 0.000E+00

     Adding external electric field

     Computed dipole along edir(3) : 
        Dipole                0.0179 Ry au,          0.0455 Debye
        Dipole field          0.0001 Ry au, 

        Potential amp.       -0.0047 Ry
        Total length         45.0746 bohr


     total cpu time spent up to now is      659.5 secs

     total energy              =   -1466.41218031 Ry
     estimated scf accuracy    <       1.97487030 Ry

     iteration #  5     ecut=    55.12 Ry     beta= 0.10
     Davidson diagonalization with overlap
     ethr =  1.43E-03,  avg # of iterations =  1.1

     negative rho (up, down):  7.534E-04 0.000E+00

     Adding external electric field

     Computed dipole along edir(3) : 
        Dipole                0.0073 Ry au,          0.0185 Debye
        Dipole field          0.0000 Ry au, 

        Potential amp.       -0.0019 Ry
        Total length         45.0746 bohr


     total cpu time spent up to now is      785.0 secs

     total energy              =   -1466.41497664 Ry
     estimated scf accuracy    <       0.15237548 Ry

     iteration #  6     ecut=    55.12 Ry     beta= 0.10
     Davidson diagonalization with overlap
     ethr =  1.10E-04,  avg # of iterations =  8.0

     negative rho (up, down):  8.561E-04 0.000E+00

     Adding external electric field

     Computed dipole along edir(3) : 
        Dipole                0.0006 Ry au,          0.0016 Debye
        Dipole field          0.0000 Ry au, 

        Potential amp.       -0.0002 Ry
        Total length         45.0746 bohr


     total cpu time spent up to now is      961.3 secs

     total energy              =   -1466.42561212 Ry
     estimated scf accuracy    <       0.06171104 Ry

     iteration #  7     ecut=    55.12 Ry     beta= 0.10
     Davidson diagonalization with overlap
     ethr =  4.47E-05,  avg # of iterations =  2.8

     negative rho (up, down):  1.360E-03 0.000E+00

     Adding external electric field

     Computed dipole along edir(3) : 
        Dipole                0.0046 Ry au,          0.0117 Debye
        Dipole field          0.0000 Ry au, 

        Potential amp.       -0.0012 Ry
        Total length         45.0746 bohr


     total cpu time spent up to now is     1107.0 secs

     total energy              =   -1466.42629440 Ry
     estimated scf accuracy    <       0.04171633 Ry

     iteration #  8     ecut=    55.12 Ry     beta= 0.10
     Davidson diagonalization with overlap
     ethr =  3.02E-05,  avg # of iterations =  3.1

     negative rho (up, down):  1.393E-03 0.000E+00

     Adding external electric field

     Computed dipole along edir(3) : 
        Dipole                0.0048 Ry au,          0.0121 Debye
        Dipole field          0.0000 Ry au, 

        Potential amp.       -0.0013 Ry
        Total length         45.0746 bohr


     total cpu time spent up to now is     1258.2 secs

     total energy              =   -1466.42916120 Ry
     estimated scf accuracy    <       0.00703048 Ry

     iteration #  9     ecut=    55.12 Ry     beta= 0.10
     Davidson diagonalization with overlap
     c_bands:  1 eigenvalues not converged
     ethr =  5.09E-06,  avg # of iterations =  9.9

     negative rho (up, down):  1.543E-03 0.000E+00

     Adding external electric field

     Computed dipole along edir(3) : 
        Dipole                0.0050 Ry au,          0.0128 Debye
        Dipole field          0.0000 Ry au, 

        Potential amp.       -0.0013 Ry
        Total length         45.0746 bohr


     total cpu time spent up to now is     1448.7 secs

     total energy              =   -1466.43001079 Ry
     estimated scf accuracy    <       0.00738759 Ry

     iteration # 10     ecut=    55.12 Ry     beta= 0.10
     Davidson diagonalization with overlap
     ethr =  5.09E-06,  avg # of iterations =  2.6

     negative rho (up, down):  1.855E-03 0.000E+00

     Adding external electric field

     Computed dipole along edir(3) : 
        Dipole                0.0038 Ry au,          0.0097 Debye
        Dipole field          0.0000 Ry au, 

        Potential amp.       -0.0010 Ry
        Total length         45.0746 bohr


     total cpu time spent up to now is     1597.6 secs

     total energy              =   -1466.43107585 Ry
     estimated scf accuracy    <       0.00383467 Ry

     iteration # 11     ecut=    55.12 Ry     beta= 0.10
     Davidson diagonalization with overlap
     ethr =  2.78E-06,  avg # of iterations =  2.0

     negative rho (up, down):  1.765E-03 0.000E+00

     Adding external electric field

     Computed dipole along edir(3) : 
        Dipole                0.0043 Ry au,          0.0109 Debye
        Dipole field          0.0000 Ry au, 

        Potential amp.       -0.0011 Ry
        Total length         45.0746 bohr


     total cpu time spent up to now is     1728.0 secs

     total energy              =   -1466.43094845 Ry
     estimated scf accuracy    <       0.00127564 Ry

     iteration # 12     ecut=    55.12 Ry     beta= 0.10
     Davidson diagonalization with overlap
     ethr =  9.24E-07,  avg # of iterations =  6.5

     negative rho (up, down):  1.904E-03 0.000E+00

     Adding external electric field

     Computed dipole along edir(3) : 
        Dipole                0.0051 Ry au,          0.0129 Debye
        Dipole field          0.0000 Ry au, 

        Potential amp.       -0.0013 Ry
        Total length         45.0746 bohr


     total cpu time spent up to now is     1895.1 secs

     total energy              =   -1466.43144868 Ry
     estimated scf accuracy    <       0.00062811 Ry

     iteration # 13     ecut=    55.12 Ry     beta= 0.10
     Davidson diagonalization with overlap
     c_bands:  1 eigenvalues not converged
     c_bands:  1 eigenvalues not converged
     c_bands:  1 eigenvalues not converged
     c_bands:  1 eigenvalues not converged
     ethr =  4.55E-07,  avg # of iterations =  6.4

     negative rho (up, down):  1.928E-03 0.000E+00

     Adding external electric field

     Computed dipole along edir(3) : 
        Dipole                0.0031 Ry au,          0.0079 Debye
        Dipole field          0.0000 Ry au, 

        Potential amp.       -0.0008 Ry
        Total length         45.0746 bohr


     total cpu time spent up to now is     2060.8 secs

     total energy              =   -1466.43103697 Ry
     estimated scf accuracy    <       0.00196750 Ry

     iteration # 14     ecut=    55.12 Ry     beta= 0.10
     Davidson diagonalization with overlap
     c_bands:  1 eigenvalues not converged
     c_bands:  1 eigenvalues not converged
     ethr =  4.55E-07,  avg # of iterations =  5.9

     negative rho (up, down):  1.805E-03 0.000E+00

     Adding external electric field

     Computed dipole along edir(3) : 
        Dipole                0.0043 Ry au,          0.0110 Debye
        Dipole field          0.0000 Ry au, 

        Potential amp.       -0.0011 Ry
        Total length         45.0746 bohr


     total cpu time spent up to now is     2233.3 secs

     total energy              =   -1466.43135504 Ry
     estimated scf accuracy    <       0.00011277 Ry

     iteration # 15     ecut=    55.12 Ry     beta= 0.10
     Davidson diagonalization with overlap
     ethr =  8.17E-08,  avg # of iterations =  2.4

     negative rho (up, down):  1.714E-03 0.000E+00

     Adding external electric field

     Computed dipole along edir(3) : 
        Dipole                0.0042 Ry au,          0.0108 Debye
        Dipole field          0.0000 Ry au, 

        Potential amp.       -0.0011 Ry
        Total length         45.0746 bohr


     total cpu time spent up to now is     2380.5 secs

     total energy              =   -1466.43136657 Ry
     estimated scf accuracy    <       0.00004448 Ry

     iteration # 16     ecut=    55.12 Ry     beta= 0.10
     Davidson diagonalization with overlap
     ethr =  3.22E-08,  avg # of iterations =  3.2

     negative rho (up, down):  1.623E-03 0.000E+00

     Adding external electric field

     Computed dipole along edir(3) : 
        Dipole                0.0044 Ry au,          0.0111 Debye
        Dipole field          0.0000 Ry au, 

        Potential amp.       -0.0012 Ry
        Total length         45.0746 bohr


     total cpu time spent up to now is     2514.7 secs

     total energy              =   -1466.43135850 Ry
     estimated scf accuracy    <       0.00005139 Ry

     iteration # 17     ecut=    55.12 Ry     beta= 0.10
     Davidson diagonalization with overlap
     ethr =  3.22E-08,  avg # of iterations =  2.3

     negative rho (up, down):  6.843E-04 0.000E+00

     Adding external electric field

     Computed dipole along edir(3) : 
        Dipole                0.0053 Ry au,          0.0135 Debye
        Dipole field          0.0000 Ry au, 

        Potential amp.       -0.0014 Ry
        Total length         45.0746 bohr


     total cpu time spent up to now is     2660.8 secs

     End of self-consistent calculation

          k = 0.0000 0.0000 0.0000 ( 29505 PWs)   bands (ev):

   -56.7359 -56.7281 -56.6546 -56.6468 -56.4966 -56.4146 -33.1274 -33.1103
   -33.1024 -33.0717 -33.0511 -33.0272 -33.0000 -32.9914 -32.9798 -32.9579
   -32.9089 -32.8172 -32.7404 -32.5667 -32.5054 -32.5025 -32.4996 -32.3885
    -6.5330  -4.9900  -4.0755  -3.7208  -3.6709  -3.6043  -3.5119  -3.5092
    -3.5077  -3.3565  -3.3047  -3.2785  -3.2556  -3.2237  -3.1251  -2.8895
    -2.8044  -2.6553  -2.6253  -2.6131  -2.6053  -2.5402  -2.4766  -2.4461
    -2.4330  -2.3947  -2.3386  -2.2925  -2.2583  -2.0762  -1.9994  -1.7906
    -1.6005  -0.7932  -0.5710  -0.5357  -0.4858  -0.3953  -0.1783  -0.1164
    -0.1163   0.2242   0.2331   0.3307   0.5660   0.6714   0.7587   0.9838
     1.0137   1.1380   1.5929   1.6401   1.6755   1.6960   1.9090   1.9286
     2.2553   2.2852   2.4842

          k = 0.0000 0.0176 0.0000 ( 29487 PWs)   bands (ev):

   -56.7359 -56.7281 -56.6546 -56.6468 -56.4966 -56.4145 -33.1276 -33.1105
   -33.1024 -33.0716 -33.0510 -33.0278 -33.0000 -32.9914 -32.9800 -32.9576
   -32.9089 -32.8171 -32.7406 -32.5668 -32.5054 -32.5025 -32.4996 -32.3886
    -6.4822  -4.9449  -4.0514  -3.7017  -3.6560  -3.5967  -3.5020  -3.4981
    -3.4834  -3.3507  -3.2922  -3.2624  -3.2454  -3.2137  -3.0907  -2.8917
    -2.8059  -2.6573  -2.6562  -2.6022  -2.5671  -2.5496  -2.4684  -2.4402
    -2.4307  -2.4051  -2.3415  -2.2878  -2.2524  -2.0780  -1.9985  -1.7916
    -1.6068  -0.7945  -0.7576  -0.6312  -0.4778  -0.3442  -0.2612  -0.1843
    -0.1382   0.1373   0.2833   0.3060   0.4744   0.6924   0.7305   0.9576
     1.0420   1.0611   1.3593   1.5324   1.6073   1.6794   1.8525   1.9874
     2.3150   2.3494   2.5503

          k = 0.0000 0.0351 0.0000 ( 29507 PWs)   bands (ev):

   -56.7359 -56.7280 -56.6546 -56.6468 -56.4966 -56.4145 -33.1281 -33.1110
   -33.1025 -33.0714 -33.0510 -33.0292 -33.0001 -32.9914 -32.9807 -32.9569
   -32.9089 -32.8166 -32.7412 -32.5668 -32.5055 -32.5026 -32.4997 -32.3887
    -6.3324  -4.8159  -3.9947  -3.6485  -3.6137  -3.5739  -3.4821  -3.4586
    -3.4082  -3.3327  -3.2579  -3.2155  -3.2119  -3.1850  -2.9963  -2.8985
    -2.8099  -2.6788  -2.6654  -2.5934  -2.5721  -2.5050  -2.4514  -2.4347
    -2.4273  -2.4207  -2.3485  -2.2746  -2.2362  -2.0829  -1.9963  -1.7946
    -1.6418  -1.1067  -0.8085  -0.7572  -0.5748  -0.4860  -0.4858  -0.1978
    -0.1712   0.0126   0.1703   0.2645   0.3442   0.6306   0.6862   0.8333
     0.9004   0.9025   1.0585   1.4614   1.5253   1.6302   1.6749   2.0413
     2.3820   2.4263   2.5069

          k = 0.0000 0.0527 0.0000 ( 29521 PWs)   bands (ev):

   -56.7358 -56.7280 -56.6546 -56.6468 -56.4966 -56.4145 -33.1288 -33.1116
   -33.1026 -33.0710 -33.0509 -33.0312 -33.0001 -32.9913 -32.9815 -32.9560
   -32.9090 -32.8159 -32.7421 -32.5669 -32.5055 -32.5027 -32.4997 -32.3888
    -6.0906  -4.6291  -3.9556  -3.5730  -3.5513  -3.5290  -3.4407  -3.3989
    -3.3005  -3.2916  -3.2088  -3.1537  -3.1456  -3.1412  -2.9095  -2.8625
    -2.8171  -2.6923  -2.6818  -2.6030  -2.5809  -2.4898  -2.4378  -2.4361
    -2.4188  -2.3977  -2.3500  -2.2564  -2.2131  -2.0900  -1.9934  -1.8035
    -1.7991  -1.3351  -0.9651  -0.9226  -0.8309  -0.7731  -0.5159  -0.2845
    -0.1760  -0.1312  -0.0411   0.1668   0.2003   0.4463   0.5210   0.5251
     0.6594   0.8195   0.9986   1.3407   1.4268   1.5926   1.6707   2.0904
     2.1838   2.4515   2.4726

          k = 0.0000 0.0702 0.0000 ( 29559 PWs)   bands (ev):

   -56.7357 -56.7280 -56.6547 -56.6468 -56.4967 -56.4144 -33.1296 -33.1123
   -33.1027 -33.0705 -33.0508 -33.0333 -33.0001 -32.9913 -32.9822 -32.9553
   -32.9090 -32.8152 -32.7430 -32.5670 -32.5056 -32.5029 -32.4997 -32.3889
    -5.7721  -4.4774  -3.9602  -3.4943  -3.4837  -3.4597  -3.3801  -3.3260
    -3.2445  -3.1597  -3.1504  -3.0865  -3.0750  -3.0694  -2.9199  -2.8347
    -2.7496  -2.6977  -2.6836  -2.6340  -2.5679  -2.5363  -2.4471  -2.4140
    -2.4113  -2.3732  -2.3228  -2.2376  -2.1890  -2.0978  -2.0795  -1.9906
    -1.8034  -1.3564  -1.2577  -1.2312  -1.1523  -0.7368  -0.5562  -0.3830
    -0.3197  -0.2427  -0.2019  -0.0137   0.0824   0.1477   0.1781   0.4057
     0.6182   0.7558   0.9177   1.0818   1.4575   1.6669   1.6982   1.9320
     2.1346   2.3987   2.4988

          k = 0.0000 0.0878 0.0000 ( 29574 PWs)   bands (ev):

   -56.7357 -56.7279 -56.6547 -56.6468 -56.4967 -56.4144 -33.1301 -33.1128
   -33.1028 -33.0701 -33.0508 -33.0349 -33.0000 -32.9913 -32.9826 -32.9548
   -32.9090 -32.8148 -32.7437 -32.5670 -32.5056 -32.5030 -32.4997 -32.3890
    -5.4105  -4.5658  -3.8899  -3.4348  -3.4319  -3.3920  -3.3342  -3.2506
    -3.1647  -3.1378  -3.0216  -3.0141  -3.0120  -2.9897  -2.9181  -2.8733
    -2.7734  -2.6867  -2.6459  -2.6335  -2.5578  -2.5158  -2.4992  -2.4206
    -2.4060  -2.3548  -2.2975  -2.2899  -2.2237  -2.1703  -2.1044  -1.9885
    -1.8038  -1.6894  -1.4482  -1.2974  -1.2001  -0.6655  -0.5858  -0.5715
    -0.4583  -0.3763  -0.2459  -0.1698  -0.1434  -0.1120   0.1248   0.3197
     0.5887   0.7290   0.8575   0.9012   1.5327   1.6643   1.7282   1.7913
     2.1654   2.3617   2.5118

          k = 0.0000-0.1053 0.0000 ( 29578 PWs)   bands (ev):

   -56.7357 -56.7279 -56.6547 -56.6468 -56.4967 -56.4144 -33.1303 -33.1130
   -33.1029 -33.0699 -33.0508 -33.0355 -32.9999 -32.9914 -32.9828 -32.9547
   -32.9090 -32.8146 -32.7439 -32.5670 -32.5056 -32.5030 -32.4997 -32.3890
    -5.1624  -4.7496  -3.8266  -3.4127  -3.4126  -3.3581  -3.3208  -3.2049
    -3.1479  -3.1279  -2.9920  -2.9602  -2.9519  -2.9298  -2.9162  -2.9108
    -2.8195  -2.6598  -2.6570  -2.5857  -2.5539  -2.5242  -2.4628  -2.4571
    -2.4381  -2.4041  -2.3480  -2.2799  -2.2185  -2.1631  -2.1073  -1.9878
    -1.8396  -1.8016  -1.5279  -1.3534  -1.0861  -0.7440  -0.6368  -0.5691
    -0.4407  -0.4186  -0.3435  -0.2680  -0.2649  -0.1367   0.1207   0.2875
     0.5779   0.7333   0.8265   0.8363   1.5745   1.6634   1.6982   1.7720
     2.1764   2.3483   2.5156

          k = 0.0153 0.0088 0.0000 ( 29519 PWs)   bands (ev):

   -56.7346 -56.7267 -56.6560 -56.6482 -56.4952 -56.4160 -33.1262 -33.1004
   -33.0925 -33.0705 -33.0524 -33.0261 -33.0012 -32.9815 -32.9787 -32.9591
   -32.9102 -32.8160 -32.7417 -32.5657 -32.5161 -32.5102 -32.5036 -32.3992
    -6.4815  -4.9420  -4.0374  -3.7273  -3.6612  -3.5864  -3.5017  -3.4932
    -3.4917  -3.3453  -3.2915  -3.2655  -3.2440  -3.2043  -3.1063  -2.8824
    -2.8039  -2.6521  -2.6421  -2.6033  -2.5872  -2.5464  -2.4732  -2.4577
    -2.4455  -2.3984  -2.3456  -2.3048  -2.2695  -2.0948  -2.0103  -1.8098
    -1.5930  -1.0196  -0.6892  -0.6188  -0.5841  -0.3277  -0.1496  -0.1362
     0.0294   0.2024   0.2720   0.4372   0.5578   0.6748   0.7573   0.9989
     1.0122   1.0889   1.5316   1.5409   1.5985   1.6772   1.8414   1.9349
     2.2386   2.2698   2.4763

          k = 0.0153 0.0263 0.0000 ( 29524 PWs)   bands (ev):

   -56.7345 -56.7267 -56.6560 -56.6482 -56.4952 -56.4159 -33.1265 -33.1007
   -33.0925 -33.0703 -33.0524 -33.0272 -33.0013 -32.9815 -32.9791 -32.9586
   -32.9102 -32.8156 -32.7421 -32.5658 -32.5161 -32.5103 -32.5037 -32.3993
    -6.3811  -4.8540  -3.9934  -3.7042  -3.6285  -3.5711  -3.4802  -3.4692
    -3.4440  -3.3338  -3.2681  -3.2370  -3.2196  -3.1852  -3.0408  -2.8866
    -2.8070  -2.6709  -2.6588  -2.5913  -2.5616  -2.5363  -2.4604  -2.4456
    -2.4423  -2.4190  -2.3503  -2.2962  -2.2591  -2.0979  -2.0094  -1.8123
    -1.6079  -1.0589  -0.9052  -0.7592  -0.6844  -0.3518  -0.2026  -0.1468
    -0.1142   0.0994   0.2965   0.3570   0.4294   0.6716   0.6729   0.9463
     0.9846   1.0463   1.1016   1.4487   1.5351   1.6616   1.7222   2.0124
     2.3353   2.3528   2.5482

          k = 0.0153 0.0439 0.0000 ( 29501 PWs)   bands (ev):

   -56.7345 -56.7267 -56.6560 -56.6482 -56.4952 -56.4159 -33.1271 -33.1013
   -33.0926 -33.0700 -33.0523 -33.0289 -33.0013 -32.9814 -32.9798 -32.9578
   -32.9102 -32.8150 -32.7429 -32.5658 -32.5162 -32.5103 -32.5038 -32.3994
    -6.1849  -4.6922  -3.9380  -3.6591  -3.5712  -3.5383  -3.4513  -3.4120
    -3.3495  -3.3097  -3.2242  -3.1851  -3.1672  -3.1497  -2.9268  -2.8945
    -2.8127  -2.6890  -2.6738  -2.5871  -2.5802  -2.4813  -2.4499  -2.4441
    -2.4373  -2.4255  -2.3553  -2.2814  -2.2411  -2.1035  -2.0080  -1.8170
    -1.6856  -1.2254  -1.1677  -0.8932  -0.7854  -0.6093  -0.3255  -0.2362
    -0.1382  -0.0316   0.1507   0.2600   0.2784   0.5223   0.5859   0.6670
     0.7590   0.9473   1.0283   1.4292   1.4897   1.5179   1.6607   2.0455
     2.2576   2.4338   2.4349

          k = 0.0153 0.0614 0.0000 ( 29525 PWs)   bands (ev):

   -56.7344 -56.7266 -56.6560 -56.6482 -56.4953 -56.4159 -33.1279 -33.1020
   -33.0927 -33.0696 -33.0522 -33.0310 -33.0013 -32.9814 -32.9806 -32.9569
   -32.9102 -32.8143 -32.7438 -32.5659 -32.5162 -32.5103 -32.5039 -32.3995
    -5.9035  -4.5048  -3.9271  -3.5983  -3.5042  -3.4782  -3.3988  -3.3396
    -3.2688  -3.2227  -3.1700  -3.1148  -3.1021  -3.0948  -2.9076  -2.8244
    -2.7912  -2.6991  -2.6941  -2.6190  -2.5676  -2.5144  -2.4402  -2.4314
    -2.4222  -2.4032  -2.3434  -2.2658  -2.2212  -2.1110  -2.0070  -1.9209
    -1.8231  -1.3597  -1.3279  -1.0650  -1.0240  -0.8517  -0.4224  -0.3370
    -0.1882  -0.1540  -0.0839   0.0955   0.1315   0.2082   0.4535   0.4784
     0.6219   0.8770   0.9679   1.2403   1.4127   1.6353   1.6593   2.0180
     2.0882   2.4025   2.4763

          k = 0.0153 0.0790 0.0000 ( 29544 PWs)   bands (ev):

   -56.7343 -56.7266 -56.6561 -56.6482 -56.4953 -56.4158 -33.1285 -33.1026
   -33.0929 -33.0691 -33.0521 -33.0329 -33.0013 -32.9814 -32.9812 -32.9563
   -32.9103 -32.8137 -32.7447 -32.5660 -32.5162 -32.5103 -32.5041 -32.3996
    -5.5587  -4.4538  -3.9092  -3.5367  -3.4456  -3.4048  -3.3405  -3.2650
    -3.1979  -3.1280  -3.0834  -3.0475  -3.0390  -3.0189  -2.9121  -2.8530
    -2.7529  -2.7008  -2.6578  -2.6396  -2.5630  -2.5339  -2.4726  -2.4282
    -2.4186  -2.3838  -2.3076  -2.2589  -2.2182  -2.1481  -2.1147  -2.0045
    -1.8283  -1.5590  -1.4950  -1.2297  -1.2258  -0.8607  -0.4812  -0.4355
    -0.4094  -0.2845  -0.1922  -0.1616  -0.0403   0.1724   0.1764   0.3827
     0.5837   0.8322   0.8999   1.0368   1.4784   1.6594   1.7048   1.8354
     2.1258   2.3855   2.4974

          k = 0.0153 0.0965 0.0000 ( 29545 PWs)   bands (ev):

   -56.7343 -56.7266 -56.6561 -56.6482 -56.4953 -56.4158 -33.1289 -33.1029
   -33.0929 -33.0688 -33.0521 -33.0340 -33.0013 -32.9815 -32.9814 -32.9559
   -32.9102 -32.8134 -32.7451 -32.5660 -32.5162 -32.5103 -32.5041 -32.3996
    -5.2130  -4.6492  -3.8176  -3.4967  -3.4114  -3.3462  -3.3113  -3.2056
    -3.1290  -3.1215  -2.9984  -2.9855  -2.9621  -2.9546  -2.9034  -2.8997
    -2.8041  -2.6736  -2.6569  -2.6077  -2.5519  -2.5350  -2.4824  -2.4410
    -2.4340  -2.3725  -2.3479  -2.2863  -2.2441  -2.1791  -2.1261  -2.0030
    -1.8299  -1.7751  -1.6818  -1.3311  -1.0834  -0.8256  -0.6582  -0.5746
    -0.4972  -0.3932  -0.2587  -0.2280  -0.0922  -0.0347   0.1680   0.3255
     0.5647   0.8294   0.8607   0.9075   1.5640   1.6594   1.6676   1.7743
     2.1469   2.3824   2.5069

          k = 0.0153-0.0965 0.0000 ( 29545 PWs)   bands (ev):

   -56.7343 -56.7266 -56.6561 -56.6482 -56.4953 -56.4158 -33.1289 -33.1029
   -33.0929 -33.0688 -33.0521 -33.0340 -33.0013 -32.9815 -32.9814 -32.9559
   -32.9102 -32.8134 -32.7451 -32.5660 -32.5162 -32.5103 -32.5041 -32.3996
    -5.2130  -4.6492  -3.8176  -3.4967  -3.4114  -3.3462  -3.3113  -3.2056
    -3.1290  -3.1215  -2.9984  -2.9855  -2.9621  -2.9546  -2.9034  -2.8997
    -2.8041  -2.6736  -2.6569  -2.6077  -2.5519  -2.5350  -2.4824  -2.4410
    -2.4340  -2.3725  -2.3479  -2.2863  -2.2441  -2.1791  -2.1261  -2.0030
    -1.8299  -1.7751  -1.6818  -1.3311  -1.0834  -0.8256  -0.6582  -0.5746
    -0.4972  -0.3932  -0.2587  -0.2280  -0.0922  -0.0347   0.1680   0.3255
     0.5647   0.8294   0.8607   0.9075   1.5640   1.6594   1.6676   1.7743
     2.1469   2.3826   2.5067

          k = 0.0153-0.0790 0.0000 ( 29544 PWs)   bands (ev):

   -56.7343 -56.7266 -56.6561 -56.6482 -56.4953 -56.4158 -33.1285 -33.1026
   -33.0929 -33.0691 -33.0521 -33.0329 -33.0013 -32.9814 -32.9812 -32.9563
   -32.9103 -32.8137 -32.7447 -32.5660 -32.5162 -32.5103 -32.5041 -32.3996
    -5.5587  -4.4538  -3.9092  -3.5367  -3.4456  -3.4048  -3.3405  -3.2650
    -3.1979  -3.1280  -3.0834  -3.0475  -3.0390  -3.0189  -2.9121  -2.8530
    -2.7529  -2.7008  -2.6578  -2.6396  -2.5630  -2.5339  -2.4726  -2.4282
    -2.4186  -2.3838  -2.3076  -2.2589  -2.2182  -2.1481  -2.1147  -2.0045
    -1.8283  -1.5590  -1.4950  -1.2297  -1.2258  -0.8607  -0.4812  -0.4355
    -0.4094  -0.2845  -0.1922  -0.1616  -0.0403   0.1724   0.1764   0.3827
     0.5837   0.8322   0.8999   1.0368   1.4784   1.6594   1.7048   1.8354
     2.1258   2.3863   2.4976

          k = 0.0153-0.0614 0.0000 ( 29525 PWs)   bands (ev):

   -56.7344 -56.7266 -56.6560 -56.6482 -56.4953 -56.4159 -33.1279 -33.1020
   -33.0927 -33.0696 -33.0522 -33.0310 -33.0013 -32.9814 -32.9806 -32.9569
   -32.9102 -32.8143 -32.7438 -32.5659 -32.5162 -32.5103 -32.5039 -32.3995
    -5.9035  -4.5048  -3.9271  -3.5983  -3.5042  -3.4782  -3.3988  -3.3396
    -3.2688  -3.2227  -3.1700  -3.1148  -3.1021  -3.0948  -2.9076  -2.8244
    -2.7912  -2.6991  -2.6941  -2.6190  -2.5676  -2.5144  -2.4402  -2.4314
    -2.4222  -2.4032  -2.3434  -2.2658  -2.2212  -2.1110  -2.0070  -1.9209
    -1.8231  -1.3597  -1.3279  -1.0650  -1.0240  -0.8517  -0.4224  -0.3370
    -0.1882  -0.1540  -0.0839   0.0955   0.1315   0.2082   0.4535   0.4784
     0.6219   0.8770   0.9679   1.2403   1.4127   1.6353   1.6593   2.0180
     2.0883   2.4012   2.4763

          k = 0.0153-0.0439 0.0000 ( 29501 PWs)   bands (ev):

   -56.7345 -56.7267 -56.6560 -56.6482 -56.4952 -56.4159 -33.1271 -33.1013
   -33.0926 -33.0700 -33.0523 -33.0289 -33.0013 -32.9814 -32.9798 -32.9578
   -32.9102 -32.8150 -32.7429 -32.5658 -32.5162 -32.5103 -32.5038 -32.3994
    -6.1849  -4.6922  -3.9380  -3.6591  -3.5712  -3.5383  -3.4513  -3.4120
    -3.3495  -3.3097  -3.2242  -3.1851  -3.1672  -3.1497  -2.9268  -2.8945
    -2.8127  -2.6890  -2.6738  -2.5871  -2.5802  -2.4813  -2.4499  -2.4441
    -2.4373  -2.4255  -2.3553  -2.2814  -2.2411  -2.1035  -2.0080  -1.8170
    -1.6856  -1.2254  -1.1677  -0.8932  -0.7854  -0.6093  -0.3255  -0.2362
    -0.1382  -0.0316   0.1507   0.2600   0.2784   0.5223   0.5859   0.6671
     0.7590   0.9473   1.0283   1.4291   1.4897   1.5179   1.6607   2.0455
     2.2570   2.4334   2.4350

          k = 0.0153-0.0263 0.0000 ( 29524 PWs)   bands (ev):

   -56.7345 -56.7267 -56.6560 -56.6482 -56.4952 -56.4159 -33.1265 -33.1007
   -33.0925 -33.0703 -33.0524 -33.0272 -33.0013 -32.9815 -32.9791 -32.9586
   -32.9102 -32.8156 -32.7421 -32.5658 -32.5161 -32.5103 -32.5037 -32.3993
    -6.3811  -4.8540  -3.9934  -3.7042  -3.6285  -3.5711  -3.4802  -3.4692
    -3.4440  -3.3338  -3.2681  -3.2370  -3.2196  -3.1852  -3.0408  -2.8866
    -2.8070  -2.6709  -2.6588  -2.5913  -2.5616  -2.5363  -2.4604  -2.4456
    -2.4423  -2.4190  -2.3503  -2.2962  -2.2591  -2.0979  -2.0094  -1.8123
    -1.6079  -1.0589  -0.9052  -0.7592  -0.6844  -0.3518  -0.2026  -0.1468
    -0.1142   0.0994   0.2965   0.3570   0.4294   0.6716   0.6729   0.9463
     0.9846   1.0463   1.1016   1.4487   1.5351   1.6616   1.7222   2.0124
     2.3354   2.3527   2.5488

          k = 0.0153-0.0088 0.0000 ( 29519 PWs)   bands (ev):

   -56.7346 -56.7267 -56.6560 -56.6482 -56.4952 -56.4160 -33.1262 -33.1004
   -33.0925 -33.0705 -33.0524 -33.0261 -33.0012 -32.9815 -32.9787 -32.9591
   -32.9102 -32.8160 -32.7417 -32.5657 -32.5161 -32.5102 -32.5036 -32.3992
    -6.4815  -4.9420  -4.0374  -3.7273  -3.6612  -3.5864  -3.5017  -3.4932
    -3.4917  -3.3453  -3.2915  -3.2655  -3.2440  -3.2043  -3.1063  -2.8824
    -2.8039  -2.6521  -2.6421  -2.6033  -2.5872  -2.5464  -2.4732  -2.4577
    -2.4455  -2.3984  -2.3456  -2.3048  -2.2695  -2.0948  -2.0103  -1.8098
    -1.5930  -1.0196  -0.6892  -0.6188  -0.5841  -0.3277  -0.1496  -0.1362
     0.0294   0.2024   0.2720   0.4372   0.5578   0.6748   0.7573   0.9989
     1.0122   1.0889   1.5316   1.5409   1.5985   1.6772   1.8414   1.9349
     2.2386   2.2697   2.4763

          k = 0.0306 0.0176 0.0000 ( 29514 PWs)   bands (ev):

   -56.7305 -56.7227 -56.6601 -56.6523 -56.4911 -56.4201 -33.1225 -33.0712
   -33.0669 -33.0636 -33.0561 -33.0229 -33.0048 -32.9753 -32.9628 -32.9525
   -32.9137 -32.8122 -32.7456 -32.5630 -32.5472 -32.5411 -32.5069 -32.4304
    -6.3288  -4.8008  -3.9261  -3.7665  -3.6320  -3.5348  -3.4641  -3.4499
    -3.4466  -3.3119  -3.2568  -3.2343  -3.2006  -3.1491  -3.0524  -2.8619
    -2.8040  -2.6629  -2.6474  -2.5850  -2.5632  -2.5530  -2.4964  -2.4760
    -2.4615  -2.4102  -2.3642  -2.3410  -2.3028  -2.1457  -2.0415  -1.8752
    -1.5728  -1.4432  -1.0915  -0.7626  -0.6604  -0.2067  -0.1854  -0.0623
     0.2039   0.2279   0.3189   0.5038   0.5175   0.6992   0.7310   0.9984
     1.0115   1.0871   1.2164   1.3864   1.4949   1.6392   1.6905   1.9466
     2.1660   2.2755   2.3555

          k = 0.0306 0.0351 0.0000 ( 29491 PWs)   bands (ev):

   -56.7305 -56.7226 -56.6601 -56.6523 -56.4912 -56.4201 -33.1230 -33.0716
   -33.0666 -33.0636 -33.0560 -33.0243 -33.0049 -32.9759 -32.9621 -32.9525
   -32.9137 -32.8117 -32.7462 -32.5630 -32.5472 -32.5411 -32.5070 -32.4304
    -6.1818  -4.6765  -3.8715  -3.7707  -3.5850  -3.5111  -3.4301  -3.4065
    -3.3826  -3.2955  -3.2238  -3.1983  -3.1603  -3.1239  -2.9645  -2.8675
    -2.8091  -2.6869  -2.6672  -2.5779  -2.5665  -2.5060  -2.4859  -2.4711
    -2.4471  -2.4386  -2.3667  -2.3318  -2.2917  -2.1489  -2.0425  -1.8820
    -1.6032  -1.5316  -1.1315  -1.0061  -0.8636  -0.3650  -0.2836  -0.0510
     0.0702   0.1028   0.3236   0.3850   0.4040   0.5043   0.6561   0.7691
     0.9116   1.0136   1.1134   1.3929   1.4480   1.5449   1.6334   1.9758
     2.1846   2.3228   2.3406

          k = 0.0306 0.0527 0.0000 ( 29508 PWs)   bands (ev):

   -56.7304 -56.7226 -56.6601 -56.6523 -56.4912 -56.4200 -33.1236 -33.0722
   -33.0663 -33.0637 -33.0560 -33.0262 -33.0049 -32.9766 -32.9611 -32.9524
   -32.9137 -32.8110 -32.7471 -32.5631 -32.5472 -32.5411 -32.5071 -32.4305
    -5.9448  -4.4973  -3.8351  -3.7593  -3.5240  -3.4642  -3.3927  -3.3326
    -3.2815  -3.2667  -3.1675  -3.1438  -3.0981  -3.0864  -2.8838  -2.8380
    -2.8184  -2.7034  -2.6928  -2.6032  -2.5544  -2.4940  -2.4834  -2.4591
    -2.4414  -2.4336  -2.3626  -2.3220  -2.2792  -2.1540  -2.0444  -1.8949
    -1.7454  -1.6703  -1.2276  -1.1786  -1.0120  -0.7299  -0.3905  -0.1123
    -0.0592  -0.0171   0.1318   0.2169   0.2324   0.3314   0.5727   0.5819
     0.7252   1.0113   1.0797   1.3548   1.3907   1.5366   1.6268   2.0088
     2.0142   2.3359   2.4224

          k = 0.0306 0.0702 0.0000 ( 29533 PWs)   bands (ev):

   -56.7303 -56.7226 -56.6601 -56.6523 -56.4912 -56.4200 -33.1243 -33.0728
   -33.0658 -33.0638 -33.0559 -33.0282 -33.0049 -32.9773 -32.9603 -32.9524
   -32.9137 -32.8103 -32.7480 -32.5632 -32.5472 -32.5411 -32.5072 -32.4306
    -5.6327  -4.3536  -3.8437  -3.7350  -3.4609  -3.3909  -3.3330  -3.2583
    -3.2165  -3.1601  -3.1115  -3.0748  -3.0437  -3.0245  -2.8883  -2.8390
    -2.7498  -2.7127  -2.6977  -2.6310  -2.5571  -2.5199  -2.4924  -2.4530
    -2.4311  -2.4252  -2.3348  -2.3200  -2.2737  -2.1631  -2.0467  -1.9750
    -1.9218  -1.8129  -1.2873  -1.2536  -1.1265  -1.1082  -0.5127  -0.3134
    -0.1994  -0.0973  -0.0813   0.0050   0.0991   0.3056   0.4192   0.4913
     0.5984   0.9722   1.0312   1.2318   1.3863   1.6268   1.6365   1.8698
     2.0461   2.3578   2.4588

          k = 0.0306 0.0878 0.0000 ( 29543 PWs)   bands (ev):

   -56.7303 -56.7225 -56.6602 -56.6523 -56.4912 -56.4200 -33.1248 -33.0733
   -33.0655 -33.0639 -33.0558 -33.0298 -33.0049 -32.9777 -32.9598 -32.9524
   -32.9137 -32.8099 -32.7487 -32.5632 -32.5472 -32.5411 -32.5073 -32.4307
    -5.2793  -4.4416  -3.7819  -3.7099  -3.4123  -3.3168  -3.2863  -3.1955
    -3.1363  -3.0866  -3.0403  -3.0097  -3.0070  -2.9567  -2.8815  -2.8801
    -2.7828  -2.7023  -2.6593  -2.6342  -2.5585  -2.5322  -2.5003  -2.4633
    -2.4340  -2.4318  -2.3284  -2.3060  -2.2889  -2.1770  -2.1160  -2.0439
    -1.9884  -1.8790  -1.6014  -1.3638  -1.1302  -1.0423  -0.7055  -0.4480
    -0.4202  -0.2384  -0.1185  -0.0611   0.0307   0.2140   0.2998   0.4280
     0.5604   0.9307   1.0027   1.1083   1.4666   1.6440   1.6449   1.7868
     2.0741   2.3922   2.4773

          k = 0.0306 0.1053 0.0000 ( 29524 PWs)   bands (ev):

   -56.7303 -56.7225 -56.6602 -56.6523 -56.4912 -56.4199 -33.1250 -33.0734
   -33.0653 -33.0639 -33.0558 -33.0303 -33.0049 -32.9779 -32.9596 -32.9523
   -32.9136 -32.8097 -32.7489 -32.5632 -32.5472 -32.5410 -32.5073 -32.4307
    -5.0397  -4.6185  -3.7245  -3.6992  -3.3939  -3.2782  -3.2713  -3.1647
    -3.0937  -3.0889  -3.0009  -2.9773  -2.9579  -2.9195  -2.9121  -2.8756
    -2.8313  -2.6771  -2.6677  -2.6025  -2.5787  -2.5432  -2.4694  -2.4635
    -2.4596  -2.4343  -2.3466  -2.3103  -2.2966  -2.1829  -2.1608  -2.0410
    -2.0274  -1.8899  -1.7460  -1.4102  -1.1029  -0.9170  -0.8175  -0.6244
    -0.4454  -0.2858  -0.1353  -0.0483   0.0135   0.1039   0.3034   0.4009
     0.5505   0.9153   1.0034   1.0526   1.5198   1.6180   1.6477   1.7669
     2.0843   2.3985   2.4713

          k = 0.0306-0.0878 0.0000 ( 29543 PWs)   bands (ev):

   -56.7303 -56.7225 -56.6602 -56.6523 -56.4912 -56.4200 -33.1248 -33.0733
   -33.0655 -33.0639 -33.0558 -33.0298 -33.0049 -32.9777 -32.9598 -32.9524
   -32.9137 -32.8099 -32.7487 -32.5632 -32.5472 -32.5411 -32.5073 -32.4307
    -5.2793  -4.4416  -3.7819  -3.7099  -3.4123  -3.3168  -3.2863  -3.1955
    -3.1363  -3.0866  -3.0403  -3.0097  -3.0070  -2.9567  -2.8815  -2.8801
    -2.7828  -2.7023  -2.6593  -2.6342  -2.5585  -2.5322  -2.5003  -2.4633
    -2.4340  -2.4318  -2.3284  -2.3060  -2.2889  -2.1770  -2.1160  -2.0439
    -1.9884  -1.8790  -1.6014  -1.3638  -1.1302  -1.0423  -0.7055  -0.4480
    -0.4202  -0.2384  -0.1186  -0.0611   0.0307   0.2140   0.2998   0.4280
     0.5604   0.9307   1.0027   1.1083   1.4666   1.6440   1.6448   1.7867
     2.0741   2.3867   2.4769

          k = 0.0306-0.0702 0.0000 ( 29533 PWs)   bands (ev):

   -56.7303 -56.7226 -56.6601 -56.6523 -56.4912 -56.4200 -33.1243 -33.0728
   -33.0658 -33.0638 -33.0559 -33.0282 -33.0049 -32.9773 -32.9603 -32.9524
   -32.9137 -32.8103 -32.7480 -32.5632 -32.5472 -32.5411 -32.5072 -32.4306
    -5.6327  -4.3536  -3.8437  -3.7350  -3.4609  -3.3909  -3.3330  -3.2583
    -3.2165  -3.1601  -3.1115  -3.0748  -3.0437  -3.0245  -2.8883  -2.8390
    -2.7498  -2.7127  -2.6977  -2.6310  -2.5571  -2.5199  -2.4924  -2.4530
    -2.4311  -2.4252  -2.3348  -2.3200  -2.2737  -2.1631  -2.0467  -1.9750
    -1.9218  -1.8129  -1.2873  -1.2536  -1.1265  -1.1082  -0.5127  -0.3134
    -0.1994  -0.0973  -0.0813   0.0050   0.0991   0.3056   0.4192   0.4913
     0.5984   0.9722   1.0312   1.2318   1.3863   1.6268   1.6365   1.8698
     2.0461   2.3583   2.4588

          k = 0.0306-0.0527 0.0000 ( 29508 PWs)   bands (ev):

   -56.7304 -56.7226 -56.6601 -56.6523 -56.4912 -56.4200 -33.1236 -33.0722
   -33.0663 -33.0637 -33.0560 -33.0262 -33.0049 -32.9766 -32.9611 -32.9524
   -32.9137 -32.8110 -32.7471 -32.5631 -32.5472 -32.5411 -32.5071 -32.4305
    -5.9448  -4.4973  -3.8351  -3.7593  -3.5240  -3.4642  -3.3927  -3.3326
    -3.2815  -3.2667  -3.1675  -3.1438  -3.0981  -3.0864  -2.8838  -2.8380
    -2.8184  -2.7034  -2.6928  -2.6032  -2.5544  -2.4940  -2.4834  -2.4591
    -2.4414  -2.4336  -2.3626  -2.3220  -2.2792  -2.1540  -2.0444  -1.8949
    -1.7454  -1.6703  -1.2276  -1.1786  -1.0120  -0.7299  -0.3905  -0.1123
    -0.0592  -0.0171   0.1318   0.2169   0.2324   0.3314   0.5727   0.5819
     0.7252   1.0113   1.0797   1.3548   1.3907   1.5366   1.6268   2.0088
     2.0143   2.3374   2.4224

          k = 0.0306-0.0351 0.0000 ( 29491 PWs)   bands (ev):

   -56.7305 -56.7226 -56.6601 -56.6523 -56.4912 -56.4201 -33.1230 -33.0716
   -33.0666 -33.0636 -33.0560 -33.0243 -33.0049 -32.9759 -32.9621 -32.9525
   -32.9137 -32.8117 -32.7462 -32.5630 -32.5472 -32.5411 -32.5070 -32.4304
    -6.1818  -4.6765  -3.8715  -3.7707  -3.5850  -3.5111  -3.4301  -3.4065
    -3.3826  -3.2955  -3.2238  -3.1983  -3.1603  -3.1239  -2.9645  -2.8675
    -2.8091  -2.6869  -2.6672  -2.5779  -2.5665  -2.5060  -2.4859  -2.4711
    -2.4471  -2.4386  -2.3667  -2.3318  -2.2917  -2.1489  -2.0425  -1.8820
    -1.6032  -1.5316  -1.1315  -1.0061  -0.8636  -0.3650  -0.2836  -0.0510
     0.0702   0.1028   0.3236   0.3851   0.4040   0.5043   0.6561   0.7691
     0.9116   1.0136   1.1134   1.3929   1.4480   1.5449   1.6334   1.9758
     2.1845   2.3228   2.3406

          k = 0.0306-0.0176 0.0000 ( 29514 PWs)   bands (ev):

   -56.7305 -56.7227 -56.6601 -56.6523 -56.4911 -56.4201 -33.1225 -33.0712
   -33.0669 -33.0636 -33.0561 -33.0229 -33.0048 -32.9753 -32.9628 -32.9525
   -32.9137 -32.8122 -32.7456 -32.5630 -32.5472 -32.5411 -32.5069 -32.4304
    -6.3288  -4.8008  -3.9261  -3.7665  -3.6320  -3.5348  -3.4641  -3.4499
    -3.4466  -3.3119  -3.2568  -3.2343  -3.2006  -3.1491  -3.0524  -2.8619
    -2.8040  -2.6629  -2.6474  -2.5850  -2.5632  -2.5530  -2.4964  -2.4760
    -2.4615  -2.4102  -2.3642  -2.3410  -2.3028  -2.1457  -2.0415  -1.8752
    -1.5728  -1.4432  -1.0915  -0.7626  -0.6604  -0.2067  -0.1854  -0.0623
     0.2039   0.2279   0.3189   0.5038   0.5175   0.6992   0.7310   0.9984
     1.0115   1.0871   1.2164   1.3864   1.4949   1.6391   1.6905   1.9466
     2.1660   2.2756   2.3556

          k = 0.0306-0.0000 0.0000 ( 29545 PWs)   bands (ev):

   -56.7305 -56.7227 -56.6601 -56.6523 -56.4911 -56.4201 -33.1223 -33.0710
   -33.0669 -33.0636 -33.0561 -33.0225 -33.0047 -32.9751 -32.9631 -32.9525
   -32.9137 -32.8124 -32.7454 -32.5630 -32.5472 -32.5411 -32.5069 -32.4303
    -6.3785  -4.8443  -3.9492  -3.7598  -3.6520  -3.5428  -3.4869  -3.4730
    -3.4510  -3.3173  -3.2658  -3.2477  -3.2144  -3.1580  -3.0853  -2.8599
    -2.8022  -2.6395  -2.6354  -2.6166  -2.5652  -2.5593  -2.5013  -2.4770
    -2.4679  -2.3994  -2.3632  -2.3445  -2.3071  -2.1445  -2.0411  -1.8730
    -1.5683  -1.4145  -1.0751  -0.7283  -0.4326  -0.2667  -0.1430  -0.0534
     0.2522   0.3014   0.3038   0.5166   0.5836   0.6890   0.8900   0.9798
     0.9950   1.0773   1.4294   1.5034   1.5817   1.6565   1.7551   1.8047
     2.0356   2.2568   2.3658

          k = 0.0458 0.0263 0.0000 ( 29505 PWs)   bands (ev):

   -56.7241 -56.7163 -56.6666 -56.6588 -56.4847 -56.4267 -33.1166 -33.0627
   -33.0611 -33.0245 -33.0177 -33.0167 -33.0104 -32.9700 -32.9686 -32.9208
   -32.9048 -32.8062 -32.7518 -32.5969 -32.5911 -32.5570 -32.5120 -32.4797
    -6.0805  -4.5760  -3.8801  -3.7509  -3.5921  -3.4566  -3.3996  -3.3844
    -3.3809  -3.2567  -3.2163  -3.1808  -3.1270  -3.0666  -2.9712  -2.8320
    -2.8086  -2.6831  -2.6607  -2.5947  -2.5611  -2.5423  -2.5115  -2.5059
    -2.4535  -2.4309  -2.3980  -2.3857  -2.3558  -2.2167  -2.0891  -2.0259
    -1.8525  -1.5442  -1.5297  -0.9540  -0.7319  -0.2868  -0.1028   0.0733
     0.2044   0.2962   0.3851   0.4138   0.4526   0.6710   0.7854   0.8709
     0.9685   1.0072   1.2121   1.2987   1.4053   1.4790   1.6023   1.8456
     2.0058   2.1821   2.2822

          k = 0.0458 0.0439 0.0000 ( 29533 PWs)   bands (ev):

   -56.7240 -56.7162 -56.6666 -56.6588 -56.4847 -56.4266 -33.1172 -33.0625
   -33.0609 -33.0250 -33.0193 -33.0168 -33.0105 -32.9706 -32.9677 -32.9207
   -32.9048 -32.8055 -32.7526 -32.5968 -32.5911 -32.5570 -32.5121 -32.4797
    -5.8925  -4.4279  -3.9366  -3.7005  -3.5427  -3.4242  -3.3624  -3.3233
    -3.3102  -3.2372  -3.1748  -3.1385  -3.0796  -3.0400  -2.8823  -2.8314
    -2.8154  -2.7038  -2.6965  -2.6077  -2.5386  -2.5347  -2.5028  -2.4918
    -2.4497  -2.4396  -2.3950  -2.3819  -2.3492  -2.2188  -2.0939  -2.0662
    -1.9243  -1.6046  -1.5639  -1.0481  -1.0293  -0.4126  -0.3856   0.0439
     0.0668   0.1617   0.2564   0.3360   0.4211   0.4570   0.6469   0.7080
     0.8877   1.0093   1.2113   1.2840   1.4102   1.4478   1.5712   1.9018
     1.9045   2.2889   2.3259

          k = 0.0458 0.0614 0.0000 ( 29567 PWs)   bands (ev):

   -56.7240 -56.7162 -56.6666 -56.6588 -56.4847 -56.4266 -33.1178 -33.0624
   -33.0605 -33.0256 -33.0213 -33.0169 -33.0105 -32.9713 -32.9666 -32.9205
   -32.9048 -32.8048 -32.7534 -32.5968 -32.5911 -32.5571 -32.5123 -32.4798
    -5.6230  -4.2589  -3.9783  -3.6988  -3.4848  -3.3618  -3.3169  -3.2461
    -3.2207  -3.2055  -3.1068  -3.0922  -3.0158  -3.0084  -2.8574  -2.8299
    -2.7628  -2.7273  -2.7207  -2.6284  -2.5522  -2.5368  -2.5013  -2.4976
    -2.4367  -2.4345  -2.3981  -2.3636  -2.3484  -2.2242  -2.1427  -2.0996
    -1.9821  -1.7807  -1.6234  -1.1463  -1.1385  -0.8090  -0.5353  -0.1925
     0.0125   0.0577   0.0949   0.2358   0.2444   0.4673   0.5409   0.6353
     0.7032   1.0322   1.1985   1.2966   1.3383   1.5083   1.5811   1.8253
     1.9526   2.2950   2.3916

          k = 0.0458 0.0790 0.0000 ( 29546 PWs)   bands (ev):

   -56.7239 -56.7162 -56.6666 -56.6588 -56.4847 -56.4265 -33.1184 -33.0622
   -33.0601 -33.0261 -33.0230 -33.0170 -33.0105 -32.9718 -32.9658 -32.9204
   -32.9048 -32.8042 -32.7542 -32.5967 -32.5911 -32.5571 -32.5124 -32.4799
    -5.2937  -4.2177  -4.0032  -3.6981  -3.4280  -3.2854  -3.2544  -3.1805
    -3.1474  -3.1209  -3.0669  -3.0309  -2.9859  -2.9512  -2.8618  -2.8512
    -2.7681  -2.7358  -2.6769  -2.6489  -2.5701  -2.5648  -2.4960  -2.4893
    -2.4673  -2.4372  -2.3992  -2.3587  -2.3378  -2.2357  -2.2240  -2.1031
    -2.0191  -1.9401  -1.6988  -1.3572  -1.1707  -0.9245  -0.7647  -0.2968
    -0.1748  -0.0997   0.0418   0.1441   0.1950   0.4145   0.4789   0.5798
     0.5869   1.0283   1.1606   1.2711   1.3370   1.5635   1.6064   1.7899
     1.9870   2.2969   2.4192

          k = 0.0458 0.0965 0.0000 ( 29536 PWs)   bands (ev):

   -56.7239 -56.7161 -56.6667 -56.6588 -56.4848 -56.4265 -33.1187 -33.0621
   -33.0598 -33.0264 -33.0241 -33.0171 -33.0105 -32.9720 -32.9654 -32.9203
   -32.9048 -32.8039 -32.7547 -32.5967 -32.5911 -32.5571 -32.5124 -32.4799
    -4.9672  -4.4024  -4.0142  -3.6273  -3.3917  -3.2237  -3.2158  -3.1288
    -3.0746  -3.0704  -3.0417  -2.9870  -2.9662  -2.9096  -2.9034  -2.8409
    -2.8271  -2.7081  -2.6643  -2.6544  -2.5882  -2.5509  -2.5115  -2.4957
    -2.4866  -2.4455  -2.3990  -2.3792  -2.3298  -2.2653  -2.2451  -2.1100
    -2.0393  -1.9960  -1.7514  -1.6209  -1.1218  -0.9762  -0.7714  -0.4168
    -0.3298  -0.1769   0.0168   0.1455   0.1816   0.2637   0.5004   0.5358
     0.5564   1.0211   1.1322   1.2301   1.3641   1.6033   1.6225   1.7843
     2.0057   2.2985   2.3547

          k = 0.0458 0.1141 0.0000 ( 29536 PWs)   bands (ev):

   -56.7239 -56.7161 -56.6667 -56.6588 -56.4848 -56.4265 -33.1187 -33.0621
   -33.0598 -33.0264 -33.0241 -33.0171 -33.0105 -32.9720 -32.9654 -32.9203
   -32.9048 -32.8039 -32.7547 -32.5967 -32.5911 -32.5571 -32.5124 -32.4799
    -4.9672  -4.4024  -4.0142  -3.6273  -3.3917  -3.2237  -3.2158  -3.1288
    -3.0746  -3.0704  -3.0417  -2.9870  -2.9662  -2.9096  -2.9034  -2.8409
    -2.8271  -2.7081  -2.6643  -2.6544  -2.5882  -2.5509  -2.5115  -2.4957
    -2.4866  -2.4455  -2.3990  -2.3792  -2.3298  -2.2653  -2.2451  -2.1100
    -2.0393  -1.9960  -1.7514  -1.6209  -1.1218  -0.9762  -0.7714  -0.4168
    -0.3298  -0.1769   0.0168   0.1455   0.1816   0.2637   0.5004   0.5358
     0.5564   1.0211   1.1322   1.2301   1.3641   1.6033   1.6225   1.7843
     2.0057   2.2985   2.3538

          k = 0.0458-0.0790 0.0000 ( 29546 PWs)   bands (ev):

   -56.7239 -56.7162 -56.6666 -56.6588 -56.4847 -56.4265 -33.1184 -33.0622
   -33.0601 -33.0261 -33.0230 -33.0170 -33.0105 -32.9718 -32.9658 -32.9204
   -32.9048 -32.8042 -32.7542 -32.5967 -32.5911 -32.5571 -32.5124 -32.4799
    -5.2937  -4.2177  -4.0032  -3.6981  -3.4280  -3.2854  -3.2544  -3.1805
    -3.1474  -3.1209  -3.0669  -3.0309  -2.9859  -2.9513  -2.8618  -2.8512
    -2.7681  -2.7358  -2.6769  -2.6489  -2.5701  -2.5648  -2.4960  -2.4893
    -2.4673  -2.4372  -2.3992  -2.3587  -2.3378  -2.2357  -2.2240  -2.1031
    -2.0191  -1.9401  -1.6988  -1.3572  -1.1707  -0.9245  -0.7647  -0.2968
    -0.1748  -0.0997   0.0418   0.1441   0.1950   0.4145   0.4789   0.5798
     0.5869   1.0283   1.1606   1.2711   1.3370   1.5635   1.6064   1.7899
     1.9870   2.2972   2.4194

          k = 0.0458-0.0614 0.0000 ( 29567 PWs)   bands (ev):

   -56.7240 -56.7162 -56.6666 -56.6588 -56.4847 -56.4266 -33.1178 -33.0624
   -33.0605 -33.0256 -33.0213 -33.0169 -33.0105 -32.9713 -32.9666 -32.9205
   -32.9048 -32.8048 -32.7534 -32.5968 -32.5911 -32.5571 -32.5123 -32.4798
    -5.6230  -4.2589  -3.9783  -3.6988  -3.4848  -3.3618  -3.3169  -3.2461
    -3.2207  -3.2055  -3.1068  -3.0922  -3.0158  -3.0084  -2.8574  -2.8299
    -2.7628  -2.7273  -2.7207  -2.6284  -2.5522  -2.5368  -2.5013  -2.4976
    -2.4367  -2.4345  -2.3981  -2.3636  -2.3484  -2.2242  -2.1427  -2.0996
    -1.9821  -1.7807  -1.6234  -1.1463  -1.1385  -0.8090  -0.5353  -0.1925
     0.0125   0.0577   0.0949   0.2358   0.2444   0.4673   0.5409   0.6353
     0.7032   1.0322   1.1985   1.2966   1.3383   1.5083   1.5811   1.8252
     1.9525   2.2948   2.3913

          k = 0.0458-0.0439 0.0000 ( 29533 PWs)   bands (ev):

   -56.7240 -56.7162 -56.6666 -56.6588 -56.4847 -56.4266 -33.1172 -33.0625
   -33.0609 -33.0250 -33.0193 -33.0168 -33.0105 -32.9706 -32.9677 -32.9207
   -32.9048 -32.8055 -32.7526 -32.5968 -32.5911 -32.5570 -32.5121 -32.4797
    -5.8925  -4.4279  -3.9366  -3.7005  -3.5427  -3.4242  -3.3624  -3.3233
    -3.3102  -3.2372  -3.1748  -3.1385  -3.0796  -3.0400  -2.8823  -2.8314
    -2.8154  -2.7038  -2.6965  -2.6077  -2.5386  -2.5347  -2.5028  -2.4918
    -2.4497  -2.4396  -2.3950  -2.3819  -2.3492  -2.2188  -2.0939  -2.0662
    -1.9243  -1.6046  -1.5639  -1.0481  -1.0293  -0.4126  -0.3856   0.0439
     0.0668   0.1617   0.2564   0.3360   0.4211   0.4570   0.6469   0.7080
     0.8876   1.0093   1.2113   1.2840   1.4102   1.4478   1.5712   1.9018
     1.9045   2.2892   2.3261

          k = 0.0458-0.0263 0.0000 ( 29505 PWs)   bands (ev):

   -56.7241 -56.7163 -56.6666 -56.6588 -56.4847 -56.4267 -33.1166 -33.0627
   -33.0611 -33.0245 -33.0177 -33.0167 -33.0104 -32.9700 -32.9686 -32.9208
   -32.9048 -32.8062 -32.7518 -32.5969 -32.5911 -32.5570 -32.5120 -32.4797
    -6.0805  -4.5760  -3.8801  -3.7509  -3.5921  -3.4566  -3.3996  -3.3844
    -3.3809  -3.2567  -3.2163  -3.1808  -3.1270  -3.0666  -2.9712  -2.8320
    -2.8086  -2.6831  -2.6607  -2.5947  -2.5611  -2.5423  -2.5115  -2.5059
    -2.4535  -2.4309  -2.3980  -2.3857  -2.3558  -2.2167  -2.0891  -2.0259
    -1.8525  -1.5442  -1.5297  -0.9540  -0.7319  -0.2868  -0.1028   0.0733
     0.2044   0.2962   0.3851   0.4138   0.4526   0.6710   0.7854   0.8709
     0.9685   1.0072   1.2121   1.2987   1.4053   1.4790   1.6023   1.8456
     2.0059   2.1821   2.2821

          k = 0.0458-0.0088 0.0000 ( 29539 PWs)   bands (ev):

   -56.7241 -56.7163 -56.6666 -56.6587 -56.4847 -56.4267 -33.1163 -33.0628
   -33.0612 -33.0242 -33.0169 -33.0167 -33.0103 -32.9696 -32.9692 -32.9208
   -32.9048 -32.8066 -32.7514 -32.5969 -32.5911 -32.5570 -32.5120 -32.4796
    -6.1768  -4.6568  -3.8260  -3.7915  -3.6324  -3.4722  -3.4483  -3.4290
    -3.3862  -3.2662  -3.2275  -3.2092  -3.1515  -3.0813  -3.0304  -2.8285
    -2.8056  -2.6568  -2.6282  -2.6009  -2.5917  -2.5603  -2.5239  -2.5036
    -2.4635  -2.4117  -2.4011  -2.3874  -2.3613  -2.2157  -2.0867  -2.0108
    -1.8045  -1.5358  -1.5145  -0.8999  -0.4140  -0.2238  -0.0871   0.0789
     0.2792   0.3852   0.4564   0.4620   0.4870   0.8312   0.8449   0.9400
     1.0433   1.1768   1.2084   1.3232   1.3857   1.6030   1.6577   1.7802
     1.9348   2.0901   2.2741

          k = 0.0458 0.0088 0.0000 ( 29539 PWs)   bands (ev):

   -56.7241 -56.7163 -56.6666 -56.6587 -56.4847 -56.4267 -33.1163 -33.0628
   -33.0612 -33.0242 -33.0169 -33.0167 -33.0103 -32.9696 -32.9692 -32.9208
   -32.9048 -32.8066 -32.7514 -32.5969 -32.5911 -32.5570 -32.5120 -32.4796
    -6.1768  -4.6568  -3.8260  -3.7915  -3.6324  -3.4722  -3.4483  -3.4290
    -3.3862  -3.2662  -3.2275  -3.2092  -3.1515  -3.0813  -3.0304  -2.8285
    -2.8056  -2.6568  -2.6282  -2.6009  -2.5917  -2.5603  -2.5239  -2.5036
    -2.4635  -2.4117  -2.4011  -2.3874  -2.3613  -2.2157  -2.0867  -2.0108
    -1.8045  -1.5358  -1.5145  -0.8999  -0.4140  -0.2238  -0.0871   0.0789
     0.2792   0.3852   0.4564   0.4620   0.4870   0.8312   0.8449   0.9400
     1.0433   1.1768   1.2084   1.3232   1.3857   1.6030   1.6577   1.7801
     1.9348   2.0901   2.2741

          k = 0.0611 0.0351 0.0000 ( 29562 PWs)   bands (ev):

   -56.7157 -56.7079 -56.6750 -56.6672 -56.4762 -56.4352 -33.1089 -33.0707
   -33.0537 -33.0178 -33.0109 -32.9762 -32.9631 -32.9629 -32.9557 -32.9276
   -32.8445 -32.7983 -32.7598 -32.6609 -32.6547 -32.5507 -32.5434 -32.5187
    -5.7470  -4.2877  -4.1116  -3.5637  -3.5302  -3.3656  -3.3256  -3.3090
    -3.3033  -3.1809  -3.1798  -3.1053  -3.0387  -2.9731  -2.8825  -2.8176
    -2.7983  -2.7015  -2.6993  -2.6710  -2.5486  -2.5413  -2.5295  -2.4854
    -2.4803  -2.4415  -2.4400  -2.4230  -2.4014  -2.2981  -2.2932  -2.1493
    -2.1181  -1.9421  -1.5117  -1.1521  -0.7733  -0.4248  -0.1119   0.0716
     0.1632   0.2287   0.3748   0.4809   0.5318   0.6057   0.7331   0.9194
     0.9842   0.9927   1.1967   1.2228   1.3432   1.4073   1.4972   1.7499
     1.7524   2.1968   2.2828

          k = 0.0611 0.0527 0.0000 ( 29571 PWs)   bands (ev):

   -56.7156 -56.7078 -56.6751 -56.6672 -56.4762 -56.4352 -33.1095 -33.0705
   -33.0534 -33.0180 -33.0125 -32.9751 -32.9636 -32.9635 -32.9558 -32.9275
   -32.8444 -32.7976 -32.7607 -32.6607 -32.6547 -32.5507 -32.5435 -32.5189
    -5.5267  -4.2329  -4.1385  -3.5264  -3.5063  -3.3254  -3.2931  -3.2562
    -3.2307  -3.1611  -3.1308  -3.0654  -2.9935  -2.9513  -2.8404  -2.8230
    -2.7611  -2.7424  -2.7187  -2.6835  -2.5623  -2.5295  -2.5173  -2.5043
    -2.4811  -2.4393  -2.4392  -2.4211  -2.3911  -2.3418  -2.2952  -2.1612
    -2.1583  -1.9844  -1.6031  -1.2099  -0.9641  -0.4932  -0.4761  -0.1573
     0.1619   0.1913   0.2681   0.3993   0.4288   0.5878   0.6388   0.8409
     0.8568   1.0326   1.2448   1.2490   1.3064   1.4042   1.4906   1.7141
     1.8175   2.2808   2.2850

          k = 0.0611 0.0702 0.0000 ( 29549 PWs)   bands (ev):

   -56.7156 -56.7078 -56.6751 -56.6673 -56.4763 -56.4351 -33.1100 -33.0703
   -33.0530 -33.0181 -33.0143 -32.9740 -32.9641 -32.9640 -32.9558 -32.9273
   -32.8444 -32.7969 -32.7615 -32.6606 -32.6546 -32.5508 -32.5436 -32.5189
    -5.2375  -4.3275  -4.0234  -3.5468  -3.4830  -3.2625  -3.2325  -3.1863
    -3.1743  -3.1314  -3.0689  -3.0267  -2.9437  -2.9318  -2.8399  -2.8269
    -2.7684  -2.7508  -2.6978  -2.6969  -2.5890  -2.5479  -2.5357  -2.5060
    -2.4910  -2.4469  -2.4438  -2.4233  -2.3993  -2.3505  -2.3037  -2.2068
    -2.1668  -2.0448  -1.7406  -1.2320  -1.1062  -0.7035  -0.6855  -0.2088
     0.0316   0.0944   0.2549   0.3092   0.3267   0.5629   0.6342   0.6722
     0.7999   1.0996   1.2502   1.2655   1.2803   1.4299   1.5227   1.7209
     1.8725   2.2498   2.3189

          k = 0.0611 0.0878 0.0000 ( 29542 PWs)   bands (ev):

   -56.7155 -56.7078 -56.6751 -56.6673 -56.4763 -56.4351 -33.1104 -33.0701
   -33.0527 -33.0181 -33.0157 -32.9732 -32.9644 -32.9643 -32.9559 -32.9271
   -32.8444 -32.7963 -32.7621 -32.6605 -32.6546 -32.5507 -32.5436 -32.5190
    -4.9128  -4.3870  -4.1081  -3.5298  -3.4423  -3.2038  -3.1686  -3.1336
    -3.1166  -3.0845  -3.0475  -2.9795  -2.9277  -2.9101  -2.8717  -2.8146
    -2.7896  -2.7618  -2.7107  -2.6583  -2.6057  -2.5673  -2.5669  -2.5439
    -2.4985  -2.4623  -2.4521  -2.4244  -2.4144  -2.3332  -2.3158  -2.2426
    -2.1729  -2.0943  -1.7900  -1.3927  -1.2201  -0.8704  -0.6114  -0.1890
    -0.1035  -0.0614   0.2070   0.2637   0.3666   0.4361   0.5999   0.6467
     0.7803   1.1540   1.2133   1.2357   1.2725   1.4910   1.5621   1.7862
     1.9058   2.1946   2.3562

          k = 0.0611 0.1053 0.0000 ( 29556 PWs)   bands (ev):

   -56.7155 -56.7078 -56.6751 -56.6673 -56.4763 -56.4351 -33.1106 -33.0701
   -33.0526 -33.0181 -33.0162 -32.9730 -32.9646 -32.9644 -32.9560 -32.9270
   -32.8444 -32.7961 -32.7624 -32.6605 -32.6545 -32.5507 -32.5436 -32.5190
    -4.6998  -4.4072  -4.2643  -3.4949  -3.4249  -3.1678  -3.1503  -3.1109
    -3.0863  -3.0527  -3.0521  -2.9363  -2.9347  -2.9089  -2.8933  -2.8559
    -2.7735  -2.7400  -2.7137  -2.6512  -2.6247  -2.5797  -2.5651  -2.5520
    -2.5292  -2.4636  -2.4561  -2.4249  -2.4174  -2.3264  -2.3210  -2.2553
    -2.1765  -2.1124  -1.7570  -1.5642  -1.2057  -0.9465  -0.4651  -0.2785
    -0.1844  -0.0808   0.1980   0.3008   0.3226   0.3833   0.5878   0.6452
     0.7809   1.1702   1.1982   1.2248   1.2672   1.5125   1.5779   1.8542
     1.9175   2.1922   2.2093

          k = 0.0611 0.1229 0.0000 ( 29542 PWs)   bands (ev):

   -56.7155 -56.7078 -56.6751 -56.6673 -56.4763 -56.4351 -33.1104 -33.0701
   -33.0527 -33.0181 -33.0157 -32.9732 -32.9644 -32.9643 -32.9559 -32.9271
   -32.8444 -32.7963 -32.7621 -32.6605 -32.6546 -32.5507 -32.5436 -32.5190
    -4.9128  -4.3870  -4.1081  -3.5298  -3.4423  -3.2038  -3.1686  -3.1336
    -3.1165  -3.0845  -3.0475  -2.9795  -2.9277  -2.9101  -2.8717  -2.8146
    -2.7896  -2.7618  -2.7107  -2.6583  -2.6057  -2.5673  -2.5669  -2.5439
    -2.4985  -2.4623  -2.4521  -2.4244  -2.4144  -2.3332  -2.3158  -2.2426
    -2.1729  -2.0943  -1.7900  -1.3927  -1.2201  -0.8704  -0.6114  -0.1890
    -0.1035  -0.0614   0.2070   0.2637   0.3666   0.4361   0.5999   0.6467
     0.7803   1.1540   1.2133   1.2357   1.2725   1.4910   1.5621   1.7862
     1.9058   2.1951   2.3287

          k = 0.0611-0.0702 0.0000 ( 29549 PWs)   bands (ev):

   -56.7156 -56.7078 -56.6751 -56.6673 -56.4763 -56.4351 -33.1100 -33.0703
   -33.0530 -33.0181 -33.0143 -32.9740 -32.9641 -32.9640 -32.9558 -32.9273
   -32.8444 -32.7969 -32.7615 -32.6606 -32.6546 -32.5508 -32.5436 -32.5189
    -5.2375  -4.3275  -4.0234  -3.5468  -3.4830  -3.2625  -3.2325  -3.1863
    -3.1743  -3.1314  -3.0689  -3.0267  -2.9437  -2.9318  -2.8399  -2.8269
    -2.7684  -2.7508  -2.6978  -2.6969  -2.5890  -2.5479  -2.5357  -2.5060
    -2.4910  -2.4469  -2.4438  -2.4233  -2.3993  -2.3505  -2.3037  -2.2068
    -2.1668  -2.0448  -1.7406  -1.2320  -1.1062  -0.7035  -0.6855  -0.2088
     0.0316   0.0944   0.2549   0.3092   0.3267   0.5629   0.6342   0.6722
     0.7999   1.0996   1.2502   1.2655   1.2803   1.4299   1.5227   1.7209
     1.8722   2.2498   2.3186

          k = 0.0611-0.0527 0.0000 ( 29571 PWs)   bands (ev):

   -56.7156 -56.7078 -56.6751 -56.6672 -56.4762 -56.4352 -33.1095 -33.0705
   -33.0534 -33.0180 -33.0125 -32.9751 -32.9636 -32.9635 -32.9558 -32.9275
   -32.8444 -32.7976 -32.7607 -32.6607 -32.6547 -32.5507 -32.5435 -32.5189
    -5.5267  -4.2329  -4.1385  -3.5264  -3.5063  -3.3254  -3.2931  -3.2562
    -3.2307  -3.1611  -3.1308  -3.0654  -2.9935  -2.9513  -2.8404  -2.8230
    -2.7611  -2.7424  -2.7187  -2.6835  -2.5623  -2.5295  -2.5173  -2.5043
    -2.4811  -2.4393  -2.4392  -2.4211  -2.3911  -2.3418  -2.2952  -2.1612
    -2.1583  -1.9844  -1.6031  -1.2099  -0.9641  -0.4932  -0.4761  -0.1573
     0.1619   0.1913   0.2681   0.3993   0.4288   0.5878   0.6388   0.8408
     0.8568   1.0326   1.2448   1.2490   1.3064   1.4042   1.4906   1.7141
     1.8175   2.2805   2.2850

          k = 0.0611-0.0351 0.0000 ( 29562 PWs)   bands (ev):

   -56.7157 -56.7079 -56.6750 -56.6672 -56.4762 -56.4352 -33.1089 -33.0707
   -33.0537 -33.0178 -33.0109 -32.9762 -32.9631 -32.9629 -32.9557 -32.9276
   -32.8445 -32.7983 -32.7598 -32.6609 -32.6547 -32.5507 -32.5434 -32.5187
    -5.7470  -4.2877  -4.1116  -3.5637  -3.5302  -3.3656  -3.3256  -3.3090
    -3.3033  -3.1809  -3.1798  -3.1053  -3.0387  -2.9731  -2.8825  -2.8176
    -2.7983  -2.7015  -2.6993  -2.6710  -2.5486  -2.5413  -2.5295  -2.4854
    -2.4803  -2.4415  -2.4400  -2.4230  -2.4014  -2.2981  -2.2931  -2.1493
    -2.1181  -1.9421  -1.5117  -1.1521  -0.7733  -0.4248  -0.1119   0.0716
     0.1632   0.2287   0.3748   0.4809   0.5318   0.6057   0.7331   0.9194
     0.9842   0.9927   1.1967   1.2228   1.3432   1.4073   1.4972   1.7500
     1.7524   2.1964   2.2836

          k = 0.0611-0.0176 0.0000 ( 29546 PWs)   bands (ev):

   -56.7157 -56.7079 -56.6750 -56.6672 -56.4762 -56.4352 -33.1085 -33.0709
   -33.0538 -33.0177 -33.0097 -32.9770 -32.9628 -32.9624 -32.9556 -32.9277
   -32.8445 -32.7989 -32.7592 -32.6610 -32.6547 -32.5507 -32.5434 -32.5187
    -5.8837  -4.3928  -3.9831  -3.6091  -3.5787  -3.3919  -3.3856  -3.3637
    -3.3061  -3.1954  -3.1921  -3.1382  -3.0663  -2.9893  -2.9485  -2.8164
    -2.7995  -2.6796  -2.6685  -2.6495  -2.5798  -2.5640  -2.5272  -2.4889
    -2.4787  -2.4402  -2.4367  -2.4274  -2.4041  -2.2928  -2.2650  -2.1433
    -2.0843  -1.9252  -1.4956  -1.0913  -0.4816  -0.4129   0.0910   0.1813
     0.2504   0.3463   0.3932   0.5233   0.5381   0.7639   0.8209   0.9006
     1.0160   1.0476   1.2011   1.3198   1.3682   1.3746   1.5368   1.6973
     1.8126   2.0378   2.2274

          k = 0.0611 0.0000 0.0000 ( 29570 PWs)   bands (ev):

   -56.7158 -56.7079 -56.6750 -56.6672 -56.4762 -56.4352 -33.1084 -33.0710
   -33.0539 -33.0176 -33.0093 -32.9774 -32.9627 -32.9623 -32.9556 -32.9277
   -32.8445 -32.7991 -32.7590 -32.6610 -32.6547 -32.5507 -32.5434 -32.5187
    -5.9300  -4.4299  -3.9109  -3.6501  -3.5986  -3.4137  -3.3928  -3.3890
    -3.3042  -3.1956  -3.1956  -3.1522  -3.0740  -2.9953  -2.9783  -2.8163
    -2.7981  -2.6658  -2.6643  -2.6105  -2.6023  -2.5962  -2.5245  -2.4942
    -2.4788  -2.4399  -2.4326  -2.4293  -2.4043  -2.2927  -2.2534  -2.1413
    -2.0706  -1.9223  -1.4961  -1.0661  -0.4102  -0.2975   0.0109   0.2038
     0.3463   0.4247   0.4554   0.5098   0.5822   0.7016   0.8851   0.8992
     1.0327   1.1878   1.2326   1.2408   1.3389   1.4667   1.5990   1.6600
     1.8421   1.9266   2.1159

          k = 0.0611 0.0176 0.0000 ( 29546 PWs)   bands (ev):

   -56.7157 -56.7079 -56.6750 -56.6672 -56.4762 -56.4352 -33.1085 -33.0709
   -33.0538 -33.0177 -33.0097 -32.9770 -32.9628 -32.9624 -32.9556 -32.9277
   -32.8445 -32.7989 -32.7592 -32.6610 -32.6547 -32.5507 -32.5434 -32.5187
    -5.8837  -4.3928  -3.9831  -3.6091  -3.5787  -3.3919  -3.3856  -3.3637
    -3.3061  -3.1954  -3.1921  -3.1382  -3.0663  -2.9893  -2.9485  -2.8164
    -2.7995  -2.6796  -2.6685  -2.6495  -2.5798  -2.5640  -2.5272  -2.4889
    -2.4787  -2.4402  -2.4367  -2.4274  -2.4041  -2.2928  -2.2650  -2.1433
    -2.0843  -1.9252  -1.4956  -1.0913  -0.4816  -0.4129   0.0910   0.1813
     0.2504   0.3463   0.3932   0.5233   0.5381   0.7639   0.8209   0.9006
     1.0160   1.0476   1.2011   1.3198   1.3682   1.3746   1.5368   1.6973
     1.8126   2.0378   2.2276

          k = 0.0764 0.0439 0.0000 ( 29552 PWs)   bands (ev):

   -56.7059 -56.6981 -56.6849 -56.6770 -56.4664 -56.4451 -33.0998 -33.0801
   -33.0450 -33.0264 -33.0027 -32.9848 -32.9546 -32.9363 -32.8912 -32.8840
   -32.7891 -32.7729 -32.7691 -32.7348 -32.7283 -32.6171 -32.5431 -32.5265
    -5.3452  -4.4701  -3.9769  -3.5870  -3.3035  -3.2805  -3.2650  -3.2466
    -3.2316  -3.1487  -3.0959  -3.0258  -2.9569  -2.9183  -2.8606  -2.8022
    -2.7539  -2.7390  -2.7286  -2.7089  -2.5638  -2.5539  -2.5535  -2.5284
    -2.5157  -2.4988  -2.4783  -2.4393  -2.4154  -2.3879  -2.3584  -2.3559
    -2.2626  -2.2169  -1.4764  -1.3149  -0.7500  -0.5532  -0.2256  -0.1612
     0.1796   0.2932   0.3642   0.5162   0.5750   0.7369   0.7723   0.8765
     0.9324   1.1480   1.1748   1.2141   1.3119   1.3386   1.4157   1.6189
     1.6221   2.0716   2.2325

          k = 0.0764 0.0614 0.0000 ( 29553 PWs)   bands (ev):

   -56.7059 -56.6981 -56.6849 -56.6771 -56.4664 -56.4451 -33.1003 -33.0798
   -33.0447 -33.0266 -33.0044 -32.9834 -32.9550 -32.9360 -32.8916 -32.8841
   -32.7883 -32.7729 -32.7700 -32.7345 -32.7282 -32.6171 -32.5431 -32.5266
    -5.1067  -4.6380  -3.8634  -3.5869  -3.3506  -3.2460  -3.2181  -3.2174
    -3.1932  -3.0861  -3.0820  -2.9966  -2.9377  -2.9102  -2.8450  -2.8083
    -2.7695  -2.7391  -2.7318  -2.6890  -2.5857  -2.5660  -2.5567  -2.5474
    -2.5246  -2.4992  -2.4850  -2.4344  -2.4321  -2.3945  -2.3761  -2.3649
    -2.2756  -2.2298  -1.5583  -1.3180  -0.8690  -0.5958  -0.4380  -0.2172
     0.1484   0.2469   0.3748   0.4293   0.5295   0.6921   0.7561   0.7606
     1.0299   1.0993   1.1778   1.2638   1.3102   1.3396   1.3887   1.6328
     1.6787   2.0931   2.2605

          k = 0.0764 0.0790 0.0000 ( 29547 PWs)   bands (ev):

   -56.7058 -56.6980 -56.6849 -56.6771 -56.4664 -56.4451 -33.1007 -33.0795
   -33.0444 -33.0267 -33.0058 -32.9824 -32.9554 -32.9357 -32.8920 -32.8842
   -32.7876 -32.7729 -32.7707 -32.7343 -32.7281 -32.6172 -32.5431 -32.5267
    -4.8175  -4.7574  -3.8442  -3.5840  -3.4215  -3.2225  -3.1819  -3.1724
    -3.1439  -3.0650  -3.0284  -2.9691  -2.9316  -2.9031  -2.8249  -2.8172
    -2.7774  -2.7533  -2.7363  -2.6549  -2.6284  -2.5982  -2.5714  -2.5710
    -2.5301  -2.5084  -2.4928  -2.4593  -2.4318  -2.4244  -2.3775  -2.3619
    -2.2815  -2.2410  -1.6007  -1.3119  -1.0913  -0.7074  -0.4047  -0.1154
     0.0525   0.2040   0.3555   0.3915   0.5065   0.5745   0.6836   0.7932
     1.0100   1.1686   1.1971   1.2246   1.2426   1.4194   1.4674   1.7014
     1.7258   2.0992   2.1648

          k = 0.0764 0.0965 0.0000 ( 29543 PWs)   bands (ev):

   -56.7058 -56.6980 -56.6850 -56.6771 -56.4664 -56.4450 -33.1010 -33.0794
   -33.0442 -33.0267 -33.0067 -32.9818 -32.9556 -32.9356 -32.8922 -32.8843
   -32.7873 -32.7729 -32.7711 -32.7342 -32.7281 -32.6172 -32.5431 -32.5267
    -4.8192  -4.5384  -3.9981  -3.5793  -3.4128  -3.2030  -3.1707  -3.1477
    -3.1011  -3.0526  -3.0062  -2.9439  -2.9245  -2.8934  -2.8527  -2.8102
    -2.7794  -2.7295  -2.7237  -2.6815  -2.6364  -2.6237  -2.5928  -2.5853
    -2.5542  -2.5238  -2.4832  -2.4782  -2.4377  -2.4351  -2.3877  -2.3490
    -2.2828  -2.2481  -1.5307  -1.3462  -1.3163  -0.7624  -0.2264  -0.0214
     0.0153   0.0277   0.3417   0.3956   0.4308   0.5850   0.6697   0.7589
     1.0383   1.1317   1.1689   1.1974   1.3462   1.4318   1.5149   1.7500
     1.8594   2.0595   2.0969

          k = 0.0764 0.1141 0.0000 ( 29543 PWs)   bands (ev):

   -56.7058 -56.6980 -56.6850 -56.6771 -56.4664 -56.4450 -33.1010 -33.0794
   -33.0442 -33.0267 -33.0067 -32.9818 -32.9556 -32.9356 -32.8922 -32.8843
   -32.7873 -32.7729 -32.7711 -32.7342 -32.7281 -32.6172 -32.5431 -32.5267
    -4.8192  -4.5384  -3.9981  -3.5793  -3.4128  -3.2030  -3.1707  -3.1477
    -3.1011  -3.0526  -3.0062  -2.9439  -2.9245  -2.8934  -2.8527  -2.8102
    -2.7794  -2.7295  -2.7237  -2.6815  -2.6364  -2.6237  -2.5928  -2.5853
    -2.5542  -2.5238  -2.4832  -2.4782  -2.4377  -2.4351  -2.3877  -2.3490
    -2.2828  -2.2481  -1.5307  -1.3462  -1.3163  -0.7624  -0.2264  -0.0214
     0.0153   0.0277   0.3417   0.3956   0.4308   0.5850   0.6697   0.7589
     1.0383   1.1317   1.1689   1.1974   1.3462   1.4318   1.5149   1.7500
     1.8595   2.0593   2.0969

          k = 0.0764 0.1316 0.0000 ( 29547 PWs)   bands (ev):

   -56.7058 -56.6980 -56.6849 -56.6771 -56.4664 -56.4451 -33.1007 -33.0795
   -33.0444 -33.0267 -33.0058 -32.9824 -32.9554 -32.9357 -32.8920 -32.8842
   -32.7876 -32.7729 -32.7707 -32.7343 -32.7281 -32.6172 -32.5431 -32.5267
    -4.8175  -4.7574  -3.8442  -3.5840  -3.4215  -3.2225  -3.1819  -3.1724
    -3.1439  -3.0650  -3.0284  -2.9691  -2.9316  -2.9031  -2.8249  -2.8172
    -2.7774  -2.7533  -2.7363  -2.6549  -2.6284  -2.5982  -2.5714  -2.5710
    -2.5301  -2.5084  -2.4928  -2.4593  -2.4318  -2.4244  -2.3775  -2.3619
    -2.2815  -2.2410  -1.6007  -1.3119  -1.0913  -0.7074  -0.4047  -0.1154
     0.0525   0.2040   0.3555   0.3915   0.5065   0.5745   0.6836   0.7932
     1.0100   1.1686   1.1971   1.2246   1.2426   1.4194   1.4674   1.7014
     1.7258   2.0992   2.1644

          k = 0.0764-0.0614 0.0000 ( 29553 PWs)   bands (ev):

   -56.7059 -56.6981 -56.6849 -56.6771 -56.4664 -56.4451 -33.1003 -33.0798
   -33.0447 -33.0266 -33.0044 -32.9834 -32.9550 -32.9360 -32.8916 -32.8841
   -32.7883 -32.7729 -32.7700 -32.7345 -32.7282 -32.6171 -32.5431 -32.5266
    -5.1067  -4.6380  -3.8634  -3.5869  -3.3506  -3.2460  -3.2181  -3.2174
    -3.1932  -3.0861  -3.0820  -2.9966  -2.9377  -2.9102  -2.8450  -2.8083
    -2.7695  -2.7391  -2.7318  -2.6890  -2.5857  -2.5660  -2.5567  -2.5474
    -2.5246  -2.4992  -2.4850  -2.4344  -2.4321  -2.3945  -2.3761  -2.3649
    -2.2756  -2.2298  -1.5583  -1.3180  -0.8690  -0.5958  -0.4380  -0.2172
     0.1484   0.2469   0.3748   0.4293   0.5295   0.6921   0.7561   0.7606
     1.0299   1.0993   1.1778   1.2638   1.3103   1.3396   1.3887   1.6328
     1.6787   2.0930   2.3283

          k = 0.0764-0.0439 0.0000 ( 29552 PWs)   bands (ev):

   -56.7059 -56.6981 -56.6849 -56.6770 -56.4664 -56.4451 -33.0998 -33.0801
   -33.0450 -33.0264 -33.0027 -32.9848 -32.9546 -32.9363 -32.8912 -32.8840
   -32.7891 -32.7729 -32.7691 -32.7348 -32.7283 -32.6171 -32.5431 -32.5265
    -5.3452  -4.4701  -3.9769  -3.5870  -3.3035  -3.2805  -3.2650  -3.2466
    -3.2316  -3.1487  -3.0959  -3.0258  -2.9569  -2.9183  -2.8606  -2.8022
    -2.7539  -2.7390  -2.7286  -2.7089  -2.5638  -2.5539  -2.5535  -2.5284
    -2.5157  -2.4988  -2.4783  -2.4393  -2.4154  -2.3879  -2.3584  -2.3559
    -2.2626  -2.2169  -1.4764  -1.3149  -0.7500  -0.5532  -0.2256  -0.1612
     0.1796   0.2932   0.3642   0.5162   0.5750   0.7369   0.7723   0.8765
     0.9324   1.1480   1.1748   1.2141   1.3119   1.3386   1.4157   1.6189
     1.6221   2.0717   2.2321

          k = 0.0764-0.0263 0.0000 ( 29559 PWs)   bands (ev):

   -56.7060 -56.6981 -56.6848 -56.6770 -56.4663 -56.4452 -33.0994 -33.0804
   -33.0452 -33.0262 -33.0014 -32.9859 -32.9541 -32.9365 -32.8909 -32.8840
   -32.7898 -32.7729 -32.7684 -32.7350 -32.7283 -32.6171 -32.5431 -32.5265
    -5.5124  -4.2720  -4.0808  -3.6076  -3.3538  -3.3360  -3.2968  -3.2890
    -3.2110  -3.1656  -3.1021  -3.0529  -2.9768  -2.9305  -2.8763  -2.8046
    -2.7849  -2.7462  -2.6954  -2.6898  -2.5748  -2.5637  -2.5490  -2.5295
    -2.5005  -2.4978  -2.4691  -2.4484  -2.4123  -2.3892  -2.3548  -2.3279
    -2.2522  -2.2066  -1.4461  -1.2761  -0.6346  -0.5764   0.0125   0.0852
     0.1579   0.3530   0.4557   0.4821   0.5751   0.7702   0.8281   0.8561
     0.9526   1.1113   1.1514   1.2551   1.3421   1.4004   1.4555   1.6189
     1.6307   2.0331   2.1097

          k = 0.0764-0.0088 0.0000 ( 29552 PWs)   bands (ev):

   -56.7060 -56.6981 -56.6848 -56.6770 -56.4663 -56.4452 -33.0992 -33.0805
   -33.0452 -33.0261 -33.0007 -32.9866 -32.9538 -32.9366 -32.8906 -32.8839
   -32.7902 -32.7729 -32.7680 -32.7351 -32.7283 -32.6170 -32.5431 -32.5264
    -5.5981  -4.1390  -4.0921  -3.6877  -3.3836  -3.3770  -3.3256  -3.3068
    -3.1952  -3.1638  -3.1021  -3.0689  -2.9842  -2.9403  -2.9037  -2.8074
    -2.8032  -2.7442  -2.6841  -2.6450  -2.5980  -2.5680  -2.5599  -2.5406
    -2.5005  -2.4924  -2.4595  -2.4505  -2.4127  -2.3913  -2.3519  -2.3111
    -2.2495  -2.2012  -1.4489  -1.2273  -0.7092  -0.4143   0.0755   0.2655
     0.3133   0.3585   0.4359   0.5407   0.6046   0.6575   0.7266   0.9226
     1.0489   1.0610   1.1717   1.2830   1.3409   1.4290   1.5522   1.6475
     1.7250   1.9331   2.0194

          k = 0.0764 0.0088 0.0000 ( 29552 PWs)   bands (ev):

   -56.7060 -56.6981 -56.6848 -56.6770 -56.4663 -56.4452 -33.0992 -33.0805
   -33.0452 -33.0261 -33.0007 -32.9866 -32.9538 -32.9366 -32.8906 -32.8839
   -32.7902 -32.7729 -32.7680 -32.7351 -32.7283 -32.6170 -32.5431 -32.5264
    -5.5981  -4.1390  -4.0921  -3.6877  -3.3836  -3.3770  -3.3256  -3.3068
    -3.1952  -3.1638  -3.1021  -3.0689  -2.9842  -2.9403  -2.9037  -2.8074
    -2.8032  -2.7442  -2.6841  -2.6450  -2.5980  -2.5680  -2.5599  -2.5406
    -2.5005  -2.4924  -2.4595  -2.4505  -2.4127  -2.3913  -2.3519  -2.3111
    -2.2495  -2.2012  -1.4489  -1.2273  -0.7092  -0.4143   0.0755   0.2655
     0.3133   0.3585   0.4359   0.5407   0.6046   0.6575   0.7266   0.9226
     1.0489   1.0610   1.1717   1.2830   1.3409   1.4290   1.5522   1.6475
     1.7250   1.9324   2.0183

          k = 0.0764 0.0263 0.0000 ( 29559 PWs)   bands (ev):

   -56.7060 -56.6981 -56.6848 -56.6770 -56.4663 -56.4452 -33.0994 -33.0804
   -33.0452 -33.0262 -33.0014 -32.9859 -32.9541 -32.9365 -32.8909 -32.8840
   -32.7898 -32.7729 -32.7684 -32.7350 -32.7283 -32.6171 -32.5431 -32.5265
    -5.5124  -4.2720  -4.0808  -3.6076  -3.3538  -3.3360  -3.2968  -3.2890
    -3.2110  -3.1656  -3.1021  -3.0529  -2.9768  -2.9305  -2.8763  -2.8046
    -2.7849  -2.7462  -2.6954  -2.6898  -2.5748  -2.5637  -2.5490  -2.5295
    -2.5005  -2.4978  -2.4691  -2.4484  -2.4123  -2.3892  -2.3548  -2.3279
    -2.2522  -2.2066  -1.4461  -1.2761  -0.6346  -0.5764   0.0125   0.0852
     0.1579   0.3530   0.4557   0.4821   0.5751   0.7702   0.8281   0.8561
     0.9526   1.1113   1.1514   1.2551   1.3421   1.4004   1.4555   1.6189
     1.6307   2.0331   2.1097

          k =-0.0917-0.0527 0.0000 ( 29590 PWs)   bands (ev):

   -56.6955 -56.6953 -56.6877 -56.6875 -56.4558 -56.4557 -33.0900 -33.0900
   -33.0357 -33.0357 -32.9938 -32.9938 -32.9455 -32.9455 -32.8134 -32.8133
   -32.8067 -32.8064 -32.7792 -32.7791 -32.6954 -32.6954 -32.5350 -32.5347
    -4.9038  -4.9037  -3.7194  -3.7191  -3.2398  -3.2397  -3.2209  -3.2208
    -3.1467  -3.1466  -3.0096  -3.0096  -2.9416  -2.9416  -2.8556  -2.8555
    -2.7229  -2.7227  -2.6869  -2.6868  -2.5863  -2.5860  -2.5597  -2.5594
    -2.5413  -2.5412  -2.5053  -2.5052  -2.4501  -2.4500  -2.3908  -2.3907
    -2.2830  -2.2829  -1.4205  -1.4204  -0.6615  -0.6612  -0.2731  -0.2731
     0.2233   0.2236   0.4550   0.4553   0.7090   0.7093   0.8031   0.8034
     1.0920   1.0926   1.1768   1.1770   1.3265   1.3270   1.4711   1.4712
     1.7423   1.7425   2.2682

          k =-0.0917-0.0351 0.0000 ( 29562 PWs)   bands (ev):

   -56.6955 -56.6953 -56.6877 -56.6875 -56.4558 -56.4557 -33.0904 -33.0896
   -33.0359 -33.0355 -32.9953 -32.9925 -32.9458 -32.9451 -32.8137 -32.8130
   -32.8067 -32.8064 -32.7799 -32.7784 -32.6954 -32.6953 -32.5350 -32.5347
    -5.0846  -4.6690  -3.7814  -3.6775  -3.3067  -3.2385  -3.2318  -3.2262
    -3.1533  -3.0816  -3.0206  -2.9949  -2.9539  -2.9335  -2.8699  -2.8465
    -2.7294  -2.7205  -2.6951  -2.6795  -2.6010  -2.5900  -2.5672  -2.5579
    -2.5469  -2.5333  -2.5031  -2.5005  -2.4700  -2.4389  -2.4015  -2.3794
    -2.3000  -2.2685  -1.4427  -1.3884  -0.7855  -0.6313  -0.2193  -0.1402
     0.1417   0.3500   0.4169   0.4516   0.6265   0.7205   0.7701   0.8913
     1.0284   1.0838   1.1453   1.2197   1.3400   1.3848   1.4672   1.5383
     1.7363   1.7445   2.1928

          k =-0.0917-0.0176 0.0000 ( 29542 PWs)   bands (ev):

   -56.6955 -56.6953 -56.6877 -56.6875 -56.4558 -56.4557 -33.0907 -33.0893
   -33.0360 -33.0352 -32.9964 -32.9915 -32.9460 -32.9448 -32.8139 -32.8128
   -32.8067 -32.8063 -32.7805 -32.7778 -32.6954 -32.6953 -32.5350 -32.5347
    -5.1976  -4.4117  -3.8277  -3.7415  -3.3689  -3.2547  -3.2436  -3.2221
    -3.1348  -3.0375  -3.0129  -2.9824  -2.9595  -2.9410  -2.8673  -2.8538
    -2.7747  -2.6996  -2.6922  -2.6716  -2.6122  -2.6070  -2.5767  -2.5592
    -2.5506  -2.5320  -2.5156  -2.4858  -2.4829  -2.4384  -2.4105  -2.3677
    -2.3141  -2.2597  -1.4018  -1.3877  -0.9743  -0.5913  -0.0214   0.0101
     0.1400   0.3560   0.3615   0.5046   0.5129   0.7131   0.7487   0.9323
     1.0165   1.0322   1.1024   1.2412   1.3950   1.4676   1.5744   1.6027
     1.7326   1.7734   2.0359

          k =-0.0917 0.0000 0.0000 ( 29558 PWs)   bands (ev):

   -56.6955 -56.6953 -56.6877 -56.6875 -56.4558 -56.4557 -33.0908 -33.0892
   -33.0360 -33.0352 -32.9968 -32.9912 -32.9461 -32.9447 -32.8140 -32.8127
   -32.8068 -32.8063 -32.7807 -32.7776 -32.6954 -32.6953 -32.5350 -32.5347
    -5.2360  -4.2535  -3.8480  -3.8445  -3.3713  -3.2642  -3.2480  -3.2205
    -3.1281  -3.0351  -2.9804  -2.9787  -2.9613  -2.9588  -2.8595  -2.8416
    -2.8211  -2.6918  -2.6907  -2.6534  -2.6239  -2.6124  -2.5839  -2.5604
    -2.5506  -2.5326  -2.5291  -2.4852  -2.4750  -2.4429  -2.4132  -2.3624
    -2.3199  -2.2569  -1.3936  -1.3474  -1.0832  -0.5705   0.0790   0.1610
     0.1692   0.2245   0.3564   0.4248   0.5561   0.7414   0.7566   0.8380
     1.0193   1.0867   1.1131   1.1676   1.5046   1.5229   1.5841   1.6189
     1.7216   1.8759   1.9129

          k =-0.0917 0.0176 0.0000 ( 29542 PWs)   bands (ev):

   -56.6955 -56.6953 -56.6877 -56.6875 -56.4558 -56.4557 -33.0907 -33.0893
   -33.0360 -33.0352 -32.9964 -32.9915 -32.9460 -32.9448 -32.8139 -32.8128
   -32.8067 -32.8063 -32.7805 -32.7778 -32.6954 -32.6953 -32.5350 -32.5347
    -5.1976  -4.4117  -3.8277  -3.7415  -3.3689  -3.2547  -3.2436  -3.2221
    -3.1348  -3.0375  -3.0129  -2.9824  -2.9595  -2.9410  -2.8673  -2.8538
    -2.7747  -2.6996  -2.6922  -2.6716  -2.6122  -2.6070  -2.5767  -2.5592
    -2.5506  -2.5320  -2.5156  -2.4858  -2.4829  -2.4384  -2.4105  -2.3677
    -2.3141  -2.2597  -1.4018  -1.3877  -0.9743  -0.5913  -0.0214   0.0101
     0.1400   0.3560   0.3615   0.5046   0.5129   0.7131   0.7487   0.9323
     1.0165   1.0322   1.1024   1.2412   1.3950   1.4676   1.5744   1.6027
     1.7326   1.7736   2.0362

          k =-0.0917 0.0351 0.0000 ( 29562 PWs)   bands (ev):

   -56.6955 -56.6953 -56.6877 -56.6875 -56.4558 -56.4557 -33.0904 -33.0896
   -33.0359 -33.0355 -32.9953 -32.9925 -32.9458 -32.9451 -32.8137 -32.8130
   -32.8067 -32.8064 -32.7799 -32.7784 -32.6954 -32.6953 -32.5350 -32.5347
    -5.0846  -4.6690  -3.7814  -3.6775  -3.3067  -3.2385  -3.2318  -3.2262
    -3.1533  -3.0816  -3.0206  -2.9949  -2.9539  -2.9335  -2.8699  -2.8465
    -2.7294  -2.7205  -2.6951  -2.6795  -2.6010  -2.5900  -2.5672  -2.5579
    -2.5469  -2.5333  -2.5031  -2.5005  -2.4700  -2.4389  -2.4015  -2.3794
    -2.3000  -2.2685  -1.4427  -1.3884  -0.7855  -0.6313  -0.2193  -0.1402
     0.1417   0.3500   0.4169   0.4516   0.6264   0.7205   0.7701   0.8913
     1.0284   1.0838   1.1453   1.2197   1.3400   1.3848   1.4672   1.5383
     1.7362   1.7445   2.1927

          k =-0.0917-0.1580 0.0000 ( 29590 PWs)   bands (ev):

   -56.6955 -56.6953 -56.6877 -56.6875 -56.4558 -56.4557 -33.0900 -33.0900
   -33.0357 -33.0357 -32.9938 -32.9938 -32.9455 -32.9455 -32.8134 -32.8133
   -32.8067 -32.8064 -32.7792 -32.7791 -32.6954 -32.6954 -32.5350 -32.5347
    -4.9039  -4.9037  -3.7194  -3.7191  -3.2398  -3.2397  -3.2209  -3.2208
    -3.1467  -3.1466  -3.0096  -3.0096  -2.9416  -2.9416  -2.8556  -2.8555
    -2.7229  -2.7227  -2.6869  -2.6868  -2.5863  -2.5860  -2.5597  -2.5594
    -2.5413  -2.5412  -2.5053  -2.5052  -2.4501  -2.4499  -2.3908  -2.3907
    -2.2830  -2.2829  -1.4205  -1.4204  -0.6615  -0.6612  -0.2731  -0.2731
     0.2233   0.2236   0.4550   0.4553   0.7090   0.7093   0.8031   0.8034
     1.0920   1.0925   1.1768   1.1770   1.3265   1.3270   1.4711   1.4711
     1.7423   1.7425   2.2685

     the Fermi energy is     0.4738 ev

!    total energy              =   -1466.43128693 Ry
     estimated scf accuracy    <       0.00000661 Ry
     smearing contrib. (-TS)   =      -0.07711432 Ry
     internal energy E=F+TS    =   -1466.35417261 Ry

     The total energy is F=E-TS. E is the sum of the following terms:
     one-electron contribution =  -11317.94592435 Ry
     hartree contribution      =    5723.01863252 Ry
     xc contribution           =    -390.84925507 Ry
     ewald contribution        =    4519.42237421 Ry
     electric field correction =       0.00000008 Ry

     convergence has been achieved in  17 iterations

     negative rho (up, down):  6.843E-04 0.000E+00

     Forces acting on atoms (cartesian axes, Ry/au):

     atom    1 type  1   force =    -0.00000145   -0.00643729    0.00707230
     atom    2 type  1   force =    -0.00000130   -0.00645338    0.00704309
     atom    3 type  2   force =     0.00001124    0.00073980    0.00119157
     atom    4 type  2   force =    -0.00001407    0.00074526    0.00120192
     atom    5 type  1   force =    -0.00000041    0.00183616   -0.00326901
     atom    6 type  1   force =     0.00000005    0.00183224   -0.00325811
     atom    7 type  2   force =    -0.00010452    0.00341079   -0.00702672
     atom    8 type  2   force =     0.00010391    0.00340827   -0.00702154
     atom    9 type  1   force =     0.00000014   -0.00008242   -0.00128596
     atom   10 type  1   force =     0.00000427   -0.00011306   -0.00126513
     atom   11 type  2   force =     0.00001180    0.00055660    0.00330732
     atom   12 type  2   force =    -0.00000965    0.00055705    0.00331026

     Total force =     0.019038     Total SCF correction =     0.009463
     SCF correction compared to forces is large: reduce conv_thr to get better values

     Writing output data file ./Ti2Cu2/Ti2Cu2_beef.save/

     init_run     :     81.59s CPU     82.15s WALL (       1 calls)
     electrons    :   2544.97s CPU   2573.69s WALL (       1 calls)
     forces       :     45.82s CPU     46.10s WALL (       1 calls)

     Called by init_run:
     wfcinit      :     68.05s CPU     68.31s WALL (       1 calls)
     potinit      :      8.19s CPU      8.26s WALL (       1 calls)
     hinit0       :      3.37s CPU      3.38s WALL (       1 calls)

     Called by electrons:
     c_bands      :   2214.82s CPU   2237.39s WALL (      17 calls)
     sum_band     :    296.49s CPU    299.68s WALL (      17 calls)
     v_of_rho     :     25.41s CPU     26.58s WALL (      18 calls)
     newd         :     15.34s CPU     17.06s WALL (      18 calls)
     mix_rho      :      0.55s CPU      0.57s WALL (      17 calls)
     vdW_kernel   :      6.15s CPU      6.15s WALL (       1 calls)

     Called by c_bands:
     init_us_2    :      8.33s CPU      8.40s WALL (    2664 calls)
     cegterg      :   2185.61s CPU   2206.13s WALL (    1258 calls)

     Called by *egterg:
     cdiaghg      :    110.76s CPU    110.99s WALL (    5946 calls)
     h_psi        :   1102.18s CPU   1119.52s WALL (    6020 calls)
     s_psi        :    190.38s CPU    190.71s WALL (    6020 calls)
     g_psi        :      1.06s CPU      1.07s WALL (    4688 calls)

     Called by h_psi:
     h_psi:calbec :    422.24s CPU    424.39s WALL (    6020 calls)
     vloc_psi     :    475.63s CPU    490.45s WALL (    6020 calls)
     add_vuspsi   :    201.65s CPU    202.00s WALL (    6020 calls)

     General routines
     calbec       :    633.76s CPU    636.55s WALL (    7574 calls)
     fft          :     15.21s CPU     15.82s WALL (    1193 calls)
     ffts         :      0.10s CPU      0.10s WALL (      35 calls)
     fftw         :    545.60s CPU    561.21s WALL (  591966 calls)
     interpolate  :      0.26s CPU      0.28s WALL (      18 calls)

     Parallel routines
     fft_scatt_xy :     39.59s CPU     40.08s WALL (  593194 calls)
     fft_scatt_yz :    177.66s CPU    189.20s WALL (  593194 calls)

     PWSCF        :  45m27.73s CPU  46m20.99s WALL


   This run was terminated on:   7:36:10  25Jun2022            

=------------------------------------------------------------------------------=
   JOB DONE.
=------------------------------------------------------------------------------=
