
     Program PWSCF v.6.6 starts on 25Jun2022 at  9:52:26 

     This program is part of the open-source Quantum ESPRESSO suite
     for quantum simulation of materials; please cite
         "P. Giannozzi et al., J. Phys.:Condens. Matter 21 395502 (2009);
         "P. Giannozzi et al., J. Phys.:Condens. Matter 29 465901 (2017);
          URL http://www.quantum-espresso.org", 
     in publications or presentations arising from this work. More details at
     http://www.quantum-espresso.org/quote

     Parallel version (MPI), running on    37 processors

     MPI processes distributed on     1 nodes
     R & G space division:  proc/nbgrp/npool/nimage =      37
     Fft bands division:     nmany     =       1
     Reading input from Ti2Nb2.in
Warning: card &CELL ignored
Warning: card / ignored

     Current dimensions of program PWSCF are:
     Max number of different atomic species (ntypx) = 10
     Max number of k-points (npk) =  40000
     Max angular momentum in pseudopotentials (lmaxx) =  3
     Presently stress not available with electric field and gates

     Message from routine cell_base_init:
     DEPRECATED: use true lattice parameter, not A to a.u. conversion factor
     file Ti.pbe-spn-rrkjus_psl.1.0.0.UPF: wavefunction(s)  3S 3D renormalized
     file Nb.pbe-spn-rrkjus_psl.1.0.0.UPF: wavefunction(s)  4S 4P renormalized

     **************************************************************************
     Initializing libbeef V0.1.2 with the BEEF-vdW functional.
     Citation: Wellendorff et al., PRB 85, 235149 (2012).
     **************************************************************************


     IMPORTANT: XC functional enforced from input :
     Exchange-correlation= BEEF-VDW
                           (   1   4  43  14   2   0   0)
     Any further DFT definition will be discarded
     Please, verify this is what you really want


     Subspace diagonalization in iterative solution of the eigenvalue problem:
     a serial algorithm will be used

     Found symmetry operation: I + ( -0.5000  0.0000  0.0000)
     This is a supercell, fractional translations are disabled

     Parallelization info
     --------------------
     sticks:   dense  smooth     PW     G-vecs:    dense   smooth      PW
     Min         126      50     14                29604     7484    1150
     Max         127      51     15                29627     7501    1171
     Sum        4687    1881    543              1095731   277353   42973



     bravais-lattice index     =            0
     lattice parameter (alat)  =       1.8897  a.u.
     unit-cell volume          =    5015.9385 (a.u.)^3
     number of atoms/cell      =           12
     number of atomic types    =            2
     number of electrons       =       150.00
     number of Kohn-Sham states=           90
     kinetic-energy cutoff     =      55.1240  Ry
     charge density cutoff     =     551.2396  Ry
     convergence threshold     =      1.0E-05
     mixing beta               =       0.1000
     number of iterations used =           10  plain     mixing
     Exchange-correlation= BEEF-VDW
                           (   1   4  43  14   2   0   0)

     celldm(1)=   1.889726  celldm(2)=   0.000000  celldm(3)=   0.000000
     celldm(4)=   0.000000  celldm(5)=   0.000000  celldm(6)=   0.000000

     crystal axes: (cart. coord. in units of alat)
               a(1) = (   5.521343   0.000000   0.000000 )  
               a(2) = (  -2.760672   5.437703   0.000000 )  
               a(3) = (   0.000000   0.000000  24.756855 )  

     reciprocal axes: (cart. coord. in units 2 pi/alat)
               b(1) = (  0.181115  0.091951 -0.000000 )  
               b(2) = (  0.000000  0.183901  0.000000 )  
               b(3) = (  0.000000 -0.000000  0.040393 )  


     PseudoPot. # 1 for Ti read from file:
     ../pseudo/Ti.pbe-spn-rrkjus_psl.1.0.0.UPF
     MD5 check sum: e281089c08e14b8efcf92e44a67ada65
     Pseudo is Ultrasoft + core correction, Zval = 12.0
     Generated using "atomic" code by A. Dal Corso v.6.2.2
     Using radial grid of 1177 points,  6 beta functions with: 
                l(1) =   0
                l(2) =   0
                l(3) =   1
                l(4) =   1
                l(5) =   2
                l(6) =   2
     Q(r) pseudized with 0 coefficients 


     PseudoPot. # 2 for Nb read from file:
     ../pseudo/Nb.pbe-spn-rrkjus_psl.1.0.0.UPF
     MD5 check sum: 6ee677a9f002bd3e3657f443f129faad
     Pseudo is Ultrasoft + core correction, Zval = 13.0
     Generated using "atomic" code by A. Dal Corso v.6.2.2
     Using radial grid of 1227 points,  6 beta functions with: 
                l(1) =   0
                l(2) =   0
                l(3) =   1
                l(4) =   1
                l(5) =   2
                l(6) =   2
     Q(r) pseudized with 0 coefficients 


     atomic species   valence    mass     pseudopotential
        Ti            12.00    47.86700     Ti( 1.00)
        Nb            13.00    92.90637     Nb( 1.00)

     No symmetry found



   Cartesian axes

     site n.     atom                  positions (alat units)
         1           Ti  tau(   1) = (   0.0000000   0.0000000  10.0000000  )
         2           Ti  tau(   2) = (   2.7606717   0.0000000  10.0000000  )
         3           Nb  tau(   3) = (   1.3803358   2.7188516  10.0000000  )
         4           Nb  tau(   4) = (  -1.3803358   2.7188516  10.0000000  )
         5           Ti  tau(   5) = (   2.7606717   1.4015675  12.3784274  )
         6           Ti  tau(   6) = (  -0.0000000   1.4015675  12.3784274  )
         7           Nb  tau(   7) = (  -1.3803358   4.1204191  12.3784274  )
         8           Nb  tau(   8) = (   1.3803358   4.1204191  12.3784274  )
         9           Ti  tau(   9) = (  -0.0001195   2.8011625  14.7258435  )
        10           Ti  tau(  10) = (   2.7605522   2.8011527  14.7258378  )
        11           Nb  tau(  11) = (   4.1407578   0.1027322  14.6453979  )
        12           Nb  tau(  12) = (   1.3800889   0.1027329  14.6453966  )

     number of k points=    74  Fermi-Dirac smearing, width (Ry)=  0.0100
                       cart. coord. in units 2pi/alat
        k(    1) = (   0.0000000   0.0000000   0.0000000), wk =   0.0138889
        k(    2) = (   0.0000000   0.0153251   0.0000000), wk =   0.0277778
        k(    3) = (   0.0000000   0.0306502   0.0000000), wk =   0.0277778
        k(    4) = (   0.0000000   0.0459753   0.0000000), wk =   0.0277778
        k(    5) = (   0.0000000   0.0613004   0.0000000), wk =   0.0277778
        k(    6) = (   0.0000000   0.0766255   0.0000000), wk =   0.0277778
        k(    7) = (   0.0000000  -0.0919506   0.0000000), wk =   0.0138889
        k(    8) = (   0.0150929   0.0076626   0.0000000), wk =   0.0277778
        k(    9) = (   0.0150929   0.0229876   0.0000000), wk =   0.0277778
        k(   10) = (   0.0150929   0.0383127   0.0000000), wk =   0.0277778
        k(   11) = (   0.0150929   0.0536378   0.0000000), wk =   0.0277778
        k(   12) = (   0.0150929   0.0689629   0.0000000), wk =   0.0277778
        k(   13) = (   0.0150929   0.0842880   0.0000000), wk =   0.0277778
        k(   14) = (   0.0150929  -0.0842880   0.0000000), wk =   0.0277778
        k(   15) = (   0.0150929  -0.0689629   0.0000000), wk =   0.0277778
        k(   16) = (   0.0150929  -0.0536378   0.0000000), wk =   0.0277778
        k(   17) = (   0.0150929  -0.0383127   0.0000000), wk =   0.0277778
        k(   18) = (   0.0150929  -0.0229876   0.0000000), wk =   0.0277778
        k(   19) = (   0.0150929  -0.0076625   0.0000000), wk =   0.0277778
        k(   20) = (   0.0301859   0.0153251   0.0000000), wk =   0.0277778
        k(   21) = (   0.0301859   0.0306502   0.0000000), wk =   0.0277778
        k(   22) = (   0.0301859   0.0459753   0.0000000), wk =   0.0277778
        k(   23) = (   0.0301859   0.0613004   0.0000000), wk =   0.0277778
        k(   24) = (   0.0301859   0.0766255   0.0000000), wk =   0.0277778
        k(   25) = (   0.0301859   0.0919506   0.0000000), wk =   0.0277778
        k(   26) = (   0.0301859  -0.0766255   0.0000000), wk =   0.0277778
        k(   27) = (   0.0301859  -0.0613004   0.0000000), wk =   0.0277778
        k(   28) = (   0.0301859  -0.0459753   0.0000000), wk =   0.0277778
        k(   29) = (   0.0301859  -0.0306502   0.0000000), wk =   0.0277778
        k(   30) = (   0.0301859  -0.0153251   0.0000000), wk =   0.0277778
        k(   31) = (   0.0301859   0.0000000   0.0000000), wk =   0.0277778
        k(   32) = (   0.0452788   0.0229877   0.0000000), wk =   0.0277778
        k(   33) = (   0.0452788   0.0383128   0.0000000), wk =   0.0277778
        k(   34) = (   0.0452788   0.0536378   0.0000000), wk =   0.0277778
        k(   35) = (   0.0452788   0.0689629   0.0000000), wk =   0.0277778
        k(   36) = (   0.0452788   0.0842880   0.0000000), wk =   0.0277778
        k(   37) = (   0.0452788   0.0996131   0.0000000), wk =   0.0277778
        k(   38) = (   0.0452788  -0.0689629   0.0000000), wk =   0.0277778
        k(   39) = (   0.0452788  -0.0536378   0.0000000), wk =   0.0277778
        k(   40) = (   0.0452788  -0.0383127   0.0000000), wk =   0.0277778
        k(   41) = (   0.0452788  -0.0229876   0.0000000), wk =   0.0277778
        k(   42) = (   0.0452788  -0.0076625   0.0000000), wk =   0.0277778
        k(   43) = (   0.0452788   0.0076626   0.0000000), wk =   0.0277778
        k(   44) = (   0.0603718   0.0306502   0.0000000), wk =   0.0277778
        k(   45) = (   0.0603718   0.0459753   0.0000000), wk =   0.0277778
        k(   46) = (   0.0603718   0.0613004   0.0000000), wk =   0.0277778
        k(   47) = (   0.0603718   0.0766255   0.0000000), wk =   0.0277778
        k(   48) = (   0.0603718   0.0919506   0.0000000), wk =   0.0277778
        k(   49) = (   0.0603718   0.1072757   0.0000000), wk =   0.0277778
        k(   50) = (   0.0603718  -0.0613004   0.0000000), wk =   0.0277778
        k(   51) = (   0.0603718  -0.0459753   0.0000000), wk =   0.0277778
        k(   52) = (   0.0603718  -0.0306502   0.0000000), wk =   0.0277778
        k(   53) = (   0.0603718  -0.0153251   0.0000000), wk =   0.0277778
        k(   54) = (   0.0603718   0.0000000   0.0000000), wk =   0.0277778
        k(   55) = (   0.0603718   0.0153251   0.0000000), wk =   0.0277778
        k(   56) = (   0.0754647   0.0383128   0.0000000), wk =   0.0277778
        k(   57) = (   0.0754647   0.0536379   0.0000000), wk =   0.0277778
        k(   58) = (   0.0754647   0.0689629   0.0000000), wk =   0.0277778
        k(   59) = (   0.0754647   0.0842880   0.0000000), wk =   0.0277778
        k(   60) = (   0.0754647   0.0996131   0.0000000), wk =   0.0277778
        k(   61) = (   0.0754647   0.1149382   0.0000000), wk =   0.0277778
        k(   62) = (   0.0754647  -0.0536378   0.0000000), wk =   0.0277778
        k(   63) = (   0.0754647  -0.0383127   0.0000000), wk =   0.0277778
        k(   64) = (   0.0754647  -0.0229876   0.0000000), wk =   0.0277778
        k(   65) = (   0.0754647  -0.0076625   0.0000000), wk =   0.0277778
        k(   66) = (   0.0754647   0.0076626   0.0000000), wk =   0.0277778
        k(   67) = (   0.0754647   0.0229877   0.0000000), wk =   0.0277778
        k(   68) = (  -0.0905577  -0.0459753   0.0000000), wk =   0.0138889
        k(   69) = (  -0.0905577  -0.0306502   0.0000000), wk =   0.0277778
        k(   70) = (  -0.0905577  -0.0153251   0.0000000), wk =   0.0277778
        k(   71) = (  -0.0905577  -0.0000000   0.0000000), wk =   0.0277778
        k(   72) = (  -0.0905577   0.0153251   0.0000000), wk =   0.0277778
        k(   73) = (  -0.0905577   0.0306502   0.0000000), wk =   0.0277778
        k(   74) = (  -0.0905577  -0.1379259   0.0000000), wk =   0.0138889

     Dense  grid:  1095731 G-vectors     FFT dimensions: (  80,  90, 360)

     Smooth grid:   277353 G-vectors     FFT dimensions: (  50,  60, 225)

     Estimated max dynamical RAM per process >     214.60 MB

     Estimated total dynamical RAM >       7.75 GB

     Check: negative core charge=   -0.000001

     Initial potential from superposition of free atoms

     starting charge  149.98327, renormalised to  150.00000

     negative rho (up, down):  1.237E-03 0.000E+00


     %%%%%%%%%%%%%%%%%%%%%%%%%%%%%%%%%%%%%%%%%%%%%%%%%%%%%%%%%%%%%%%%%%%%%%%%
     %                                                                      %
     % You are using vdW-DF, which was implemented by the Thonhauser group. %
     % Please cite the following two papers that made this development      %
     % possible and the two reviews that describe the various versions:     %
     %                                                                      %
     %   T. Thonhauser et al., PRL 115, 136402 (2015).                      %
     %   T. Thonhauser et al., PRB 76, 125112 (2007).                       %
     %   K. Berland et al., Rep. Prog. Phys. 78, 066501 (2015).             %
     %   D.C. Langreth et al., J. Phys.: Condens. Matter 21, 084203 (2009). %
     %                                                                      %
     %                                                                      %
     % If you are calculating the stress with vdW-DF, please also cite:     %
     %                                                                      %
     %   R. Sabatini et al., J. Phys.: Condens. Matter 24, 424209 (2012).   %
     %                                                                      %
     %%%%%%%%%%%%%%%%%%%%%%%%%%%%%%%%%%%%%%%%%%%%%%%%%%%%%%%%%%%%%%%%%%%%%%%%



     Adding external electric field

     Computed dipole along edir(3) : 
        Dipole                0.0000 Ry au,          0.0001 Debye
        Dipole field          0.0000 Ry au, 

        Potential amp.       -0.0000 Ry
        Total length         45.6141 bohr

     Starting wfcs are  138 randomized atomic wfcs

     total cpu time spent up to now is      133.2 secs

     Self-consistent Calculation

     iteration #  1     ecut=    55.12 Ry     beta= 0.10
     Davidson diagonalization with overlap
     ethr =  1.00E-02,  avg # of iterations =  2.0

     negative rho (up, down):  1.199E-03 0.000E+00

     Adding external electric field

     Computed dipole along edir(3) : 
        Dipole               -0.3180 Ry au,         -0.8084 Debye
        Dipole field         -0.0008 Ry au, 

        Potential amp.        0.0727 Ry
        Total length         45.6141 bohr


     total cpu time spent up to now is      341.4 secs

     total energy              =   -1433.01636111 Ry
     estimated scf accuracy    <       9.71762519 Ry

     iteration #  2     ecut=    55.12 Ry     beta= 0.10
     Davidson diagonalization with overlap
     ethr =  6.48E-03,  avg # of iterations =  3.4

     negative rho (up, down):  1.199E-03 0.000E+00

     Adding external electric field

     Computed dipole along edir(3) : 
        Dipole                0.9440 Ry au,          2.3994 Debye
        Dipole field          0.0024 Ry au, 

        Potential amp.       -0.2158 Ry
        Total length         45.6141 bohr


     total cpu time spent up to now is      541.5 secs

     total energy              =   -1433.45538843 Ry
     estimated scf accuracy    <      12.54144255 Ry

     iteration #  3     ecut=    55.12 Ry     beta= 0.10
     Davidson diagonalization with overlap
     ethr =  6.48E-03,  avg # of iterations =  2.4

     negative rho (up, down):  1.281E-03 0.000E+00

     Adding external electric field

     Computed dipole along edir(3) : 
        Dipole                0.0209 Ry au,          0.0532 Debye
        Dipole field          0.0001 Ry au, 

        Potential amp.       -0.0048 Ry
        Total length         45.6141 bohr


     total cpu time spent up to now is      734.6 secs

     total energy              =   -1433.52510405 Ry
     estimated scf accuracy    <      54.33743341 Ry

     iteration #  4     ecut=    55.12 Ry     beta= 0.10
     Davidson diagonalization with overlap
     ethr =  6.48E-03,  avg # of iterations =  1.0

     negative rho (up, down):  1.279E-03 0.000E+00

     Adding external electric field

     Computed dipole along edir(3) : 
        Dipole               -0.1109 Ry au,         -0.2818 Debye
        Dipole field         -0.0003 Ry au, 

        Potential amp.        0.0253 Ry
        Total length         45.6141 bohr


     total cpu time spent up to now is      888.6 secs

     total energy              =   -1433.84133578 Ry
     estimated scf accuracy    <       0.91147653 Ry

     iteration #  5     ecut=    55.12 Ry     beta= 0.10
     Davidson diagonalization with overlap
     ethr =  6.08E-04,  avg # of iterations =  5.8

     negative rho (up, down):  1.226E-03 0.000E+00

     Adding external electric field

     Computed dipole along edir(3) : 
        Dipole                0.0111 Ry au,          0.0283 Debye
        Dipole field          0.0000 Ry au, 

        Potential amp.       -0.0025 Ry
        Total length         45.6141 bohr


     total cpu time spent up to now is     1114.6 secs

     total energy              =   -1433.95601487 Ry
     estimated scf accuracy    <       3.51447350 Ry

     iteration #  6     ecut=    55.12 Ry     beta= 0.10
     Davidson diagonalization with overlap
     ethr =  6.08E-04,  avg # of iterations =  1.3

     negative rho (up, down):  1.180E-03 0.000E+00

     Adding external electric field

     Computed dipole along edir(3) : 
        Dipole                0.0207 Ry au,          0.0527 Debye
        Dipole field          0.0001 Ry au, 

        Potential amp.       -0.0047 Ry
        Total length         45.6141 bohr


     total cpu time spent up to now is     1270.9 secs

     total energy              =   -1433.95569247 Ry
     estimated scf accuracy    <       0.32646055 Ry

     iteration #  7     ecut=    55.12 Ry     beta= 0.10
     Davidson diagonalization with overlap
     ethr =  2.18E-04,  avg # of iterations =  6.7

     negative rho (up, down):  1.159E-03 0.000E+00

     Adding external electric field

     Computed dipole along edir(3) : 
        Dipole                0.0457 Ry au,          0.1162 Debye
        Dipole field          0.0001 Ry au, 

        Potential amp.       -0.0104 Ry
        Total length         45.6141 bohr


     total cpu time spent up to now is     1491.7 secs

     total energy              =   -1434.00206758 Ry
     estimated scf accuracy    <       0.34295523 Ry

     iteration #  8     ecut=    55.12 Ry     beta= 0.10
     Davidson diagonalization with overlap
     ethr =  2.18E-04,  avg # of iterations =  1.0

     negative rho (up, down):  1.432E-03 0.000E+00

     Adding external electric field

     Computed dipole along edir(3) : 
        Dipole                0.0443 Ry au,          0.1126 Debye
        Dipole field          0.0001 Ry au, 

        Potential amp.       -0.0101 Ry
        Total length         45.6141 bohr


     total cpu time spent up to now is     1649.9 secs

     total energy              =   -1433.98750771 Ry
     estimated scf accuracy    <       0.19984149 Ry

     iteration #  9     ecut=    55.12 Ry     beta= 0.10
     Davidson diagonalization with overlap
     ethr =  1.33E-04,  avg # of iterations =  2.9

     negative rho (up, down):  1.572E-03 0.000E+00

     Adding external electric field

     Computed dipole along edir(3) : 
        Dipole                0.0203 Ry au,          0.0515 Debye
        Dipole field          0.0001 Ry au, 

        Potential amp.       -0.0046 Ry
        Total length         45.6141 bohr


     total cpu time spent up to now is     1823.6 secs

     total energy              =   -1433.99826804 Ry
     estimated scf accuracy    <       0.07014759 Ry

     iteration # 10     ecut=    55.12 Ry     beta= 0.10
     Davidson diagonalization with overlap
     c_bands:  1 eigenvalues not converged
     ethr =  4.68E-05,  avg # of iterations =  5.9

     negative rho (up, down):  1.791E-03 0.000E+00

     Adding external electric field

     Computed dipole along edir(3) : 
        Dipole                0.0095 Ry au,          0.0241 Debye
        Dipole field          0.0000 Ry au, 

        Potential amp.       -0.0022 Ry
        Total length         45.6141 bohr


     total cpu time spent up to now is     2008.5 secs

     total energy              =   -1434.00080520 Ry
     estimated scf accuracy    <       0.00628734 Ry

     iteration # 11     ecut=    55.12 Ry     beta= 0.10
     Davidson diagonalization with overlap
     c_bands:  1 eigenvalues not converged
     c_bands:  1 eigenvalues not converged
     c_bands:  1 eigenvalues not converged
     c_bands:  2 eigenvalues not converged
     c_bands:  1 eigenvalues not converged
     c_bands:  1 eigenvalues not converged
     c_bands:  2 eigenvalues not converged
     c_bands:  3 eigenvalues not converged
     c_bands:  2 eigenvalues not converged
     c_bands:  1 eigenvalues not converged
     c_bands:  2 eigenvalues not converged
     c_bands:  1 eigenvalues not converged
     c_bands:  2 eigenvalues not converged
     c_bands:  1 eigenvalues not converged
     c_bands:  1 eigenvalues not converged
     c_bands:  2 eigenvalues not converged
     c_bands:  1 eigenvalues not converged
     c_bands:  1 eigenvalues not converged
     c_bands:  2 eigenvalues not converged
     c_bands:  2 eigenvalues not converged
     c_bands:  1 eigenvalues not converged
     c_bands:  2 eigenvalues not converged
     c_bands:  1 eigenvalues not converged
     c_bands:  2 eigenvalues not converged
     c_bands:  1 eigenvalues not converged
     c_bands:  1 eigenvalues not converged
     c_bands:  2 eigenvalues not converged
     c_bands:  1 eigenvalues not converged
     c_bands:  1 eigenvalues not converged
     c_bands:  2 eigenvalues not converged
     ethr =  4.19E-06,  avg # of iterations = 16.1

     negative rho (up, down):  2.073E-03 0.000E+00

     Adding external electric field

     Computed dipole along edir(3) : 
        Dipole                0.0143 Ry au,          0.0365 Debye
        Dipole field          0.0000 Ry au, 

        Potential amp.       -0.0033 Ry
        Total length         45.6141 bohr


     total cpu time spent up to now is     2356.5 secs

     total energy              =   -1434.00273686 Ry
     estimated scf accuracy    <       0.00473754 Ry

     iteration # 12     ecut=    55.12 Ry     beta= 0.10
     Davidson diagonalization with overlap
     c_bands:  1 eigenvalues not converged
     c_bands:  1 eigenvalues not converged
     c_bands:  1 eigenvalues not converged
     ethr =  3.16E-06,  avg # of iterations =  4.5

     negative rho (up, down):  2.039E-03 0.000E+00

     Adding external electric field

     Computed dipole along edir(3) : 
        Dipole                0.0255 Ry au,          0.0649 Debye
        Dipole field          0.0001 Ry au, 

        Potential amp.       -0.0058 Ry
        Total length         45.6141 bohr


     total cpu time spent up to now is     2552.8 secs

     total energy              =   -1434.00268895 Ry
     estimated scf accuracy    <       0.00614790 Ry

     iteration # 13     ecut=    55.12 Ry     beta= 0.10
     Davidson diagonalization with overlap
     c_bands:  1 eigenvalues not converged
     ethr =  3.16E-06,  avg # of iterations =  1.5

     negative rho (up, down):  1.971E-03 0.000E+00

     Adding external electric field

     Computed dipole along edir(3) : 
        Dipole                0.0179 Ry au,          0.0455 Debye
        Dipole field          0.0000 Ry au, 

        Potential amp.       -0.0041 Ry
        Total length         45.6141 bohr


     total cpu time spent up to now is     2707.5 secs

     total energy              =   -1434.00299915 Ry
     estimated scf accuracy    <       0.00455402 Ry

     iteration # 14     ecut=    55.12 Ry     beta= 0.10
     Davidson diagonalization with overlap
     ethr =  3.04E-06,  avg # of iterations =  1.0

     negative rho (up, down):  1.943E-03 0.000E+00

     Adding external electric field

     Computed dipole along edir(3) : 
        Dipole                0.0161 Ry au,          0.0409 Debye
        Dipole field          0.0000 Ry au, 

        Potential amp.       -0.0037 Ry
        Total length         45.6141 bohr


     total cpu time spent up to now is     2866.0 secs

     total energy              =   -1434.00301724 Ry
     estimated scf accuracy    <       0.00080105 Ry

     iteration # 15     ecut=    55.12 Ry     beta= 0.10
     Davidson diagonalization with overlap
     ethr =  5.34E-07,  avg # of iterations =  3.1

     negative rho (up, down):  1.861E-03 0.000E+00

     Adding external electric field

     Computed dipole along edir(3) : 
        Dipole                0.0157 Ry au,          0.0400 Debye
        Dipole field          0.0000 Ry au, 

        Potential amp.       -0.0036 Ry
        Total length         45.6141 bohr


     total cpu time spent up to now is     3039.5 secs

     total energy              =   -1434.00305333 Ry
     estimated scf accuracy    <       0.00007110 Ry

     iteration # 16     ecut=    55.12 Ry     beta= 0.10
     Davidson diagonalization with overlap
     c_bands:  1 eigenvalues not converged
     c_bands:  1 eigenvalues not converged
     ethr =  4.74E-08,  avg # of iterations =  6.6

     negative rho (up, down):  1.753E-03 0.000E+00

     Adding external electric field

     Computed dipole along edir(3) : 
        Dipole                0.0166 Ry au,          0.0421 Debye
        Dipole field          0.0000 Ry au, 

        Potential amp.       -0.0038 Ry
        Total length         45.6141 bohr


     total cpu time spent up to now is     3300.4 secs

     total energy              =   -1434.00306643 Ry
     estimated scf accuracy    <       0.00001636 Ry

     iteration # 17     ecut=    55.12 Ry     beta= 0.10
     Davidson diagonalization with overlap
     ethr =  1.09E-08,  avg # of iterations =  3.5

     negative rho (up, down):  1.680E-03 0.000E+00

     Adding external electric field

     Computed dipole along edir(3) : 
        Dipole                0.0173 Ry au,          0.0439 Debye
        Dipole field          0.0000 Ry au, 

        Potential amp.       -0.0039 Ry
        Total length         45.6141 bohr


     total cpu time spent up to now is     3492.9 secs

     total energy              =   -1434.00306279 Ry
     estimated scf accuracy    <       0.00001430 Ry

     iteration # 18     ecut=    55.12 Ry     beta= 0.10
     Davidson diagonalization with overlap
     ethr =  9.54E-09,  avg # of iterations =  2.6

     negative rho (up, down):  1.119E-03 0.000E+00

     Adding external electric field

     Computed dipole along edir(3) : 
        Dipole                0.0150 Ry au,          0.0382 Debye
        Dipole field          0.0000 Ry au, 

        Potential amp.       -0.0034 Ry
        Total length         45.6141 bohr


     total cpu time spent up to now is     3673.7 secs

     End of self-consistent calculation

          k = 0.0000 0.0000 0.0000 ( 34751 PWs)   bands (ev):

   -55.7856 -55.7771 -55.7137 -55.7055 -55.5594 -55.4877 -53.6384 -53.5966
   -53.4896 -53.4472 -53.4182 -53.2695 -32.2194 -32.2090 -32.1939 -32.1170
   -32.0785 -32.0432 -32.0253 -32.0161 -32.0009 -31.9457 -31.9242 -31.7937
   -31.7077 -31.6962 -31.6678 -31.6631 -31.6385 -31.4975 -30.1702 -30.1466
   -30.0593 -30.0122 -29.9153 -29.6974 -29.5884 -29.5576 -29.5562 -29.4675
   -29.4329 -29.3852 -29.2602 -29.0882 -29.0060 -28.9786 -28.9704 -28.8581
    -4.1133  -2.8098  -2.2177  -2.0485  -1.8155  -1.7013  -1.4122  -1.2262
    -1.1466  -1.0884  -1.0559  -0.9215  -0.8979  -0.7455  -0.5548  -0.3998
     0.1996   0.2711   0.4024   0.7378   0.9385   0.9799   1.0009   1.2726
     1.2970   1.4224   1.4440   1.7467   1.9607   1.9632   2.1238   2.1548
     2.2943   2.2946   2.6552   2.7260   2.7862   2.8134   2.8660   2.8924
     2.9238   3.0078

          k = 0.0000 0.0153 0.0000 ( 34701 PWs)   bands (ev):

   -55.7856 -55.7770 -55.7137 -55.7055 -55.5594 -55.4877 -53.6384 -53.5966
   -53.4895 -53.4472 -53.4182 -53.2694 -32.2187 -32.2086 -32.1932 -32.1166
   -32.0790 -32.0428 -32.0233 -32.0163 -31.9996 -31.9447 -31.9237 -31.7925
   -31.7075 -31.6961 -31.6678 -31.6630 -31.6383 -31.4975 -30.1724 -30.1467
   -30.0613 -30.0126 -29.9159 -29.6967 -29.5913 -29.5575 -29.5574 -29.4684
   -29.4334 -29.3862 -29.2604 -29.0883 -29.0061 -28.9787 -28.9704 -28.8581
    -4.0674  -2.7655  -2.1945  -2.0052  -1.7792  -1.7020  -1.4288  -1.1883
    -1.1216  -1.0596  -1.0264  -0.8933  -0.8828  -0.7167  -0.5073  -0.4046
     0.2082   0.2719   0.4158   0.6883   0.9417   0.9439   1.0189   1.2447
     1.2564   1.4223   1.4514   1.6838   1.8842   1.8958   2.1138   2.1188
     2.2564   2.2767   2.6260   2.7045   2.7328   2.7492   2.7739   2.8098
     2.9028   3.0355

          k = 0.0000 0.0307 0.0000 ( 34694 PWs)   bands (ev):

   -55.7855 -55.7770 -55.7137 -55.7055 -55.5594 -55.4877 -53.6386 -53.5968
   -53.4895 -53.4471 -53.4183 -53.2693 -32.2169 -32.2077 -32.1911 -32.1158
   -32.0802 -32.0418 -32.0181 -32.0168 -31.9958 -31.9420 -31.9221 -31.7892
   -31.7068 -31.6956 -31.6677 -31.6630 -31.6380 -31.4974 -30.1780 -30.1473
   -30.0666 -30.0138 -29.9175 -29.6952 -29.5990 -29.5614 -29.5569 -29.4710
   -29.4348 -29.3890 -29.2610 -29.0886 -29.0064 -28.9788 -28.9703 -28.8581
    -3.9319  -2.6364  -2.1287  -1.8874  -1.7149  -1.6733  -1.4587  -1.0793
    -1.0499  -0.9852  -0.9400  -0.8403  -0.8132  -0.6305  -0.4173  -0.3695
     0.2324   0.2741   0.4438   0.5723   0.8371   0.9361   1.0234   1.1430
     1.2116   1.4078   1.4677   1.5242   1.7116   1.7348   1.9900   2.0334
     2.1930   2.1978   2.3293   2.4332   2.5992   2.6487   2.8156   2.8786
     2.9344   3.0043

          k = 0.0000 0.0460 0.0000 ( 34688 PWs)   bands (ev):

   -55.7853 -55.7769 -55.7137 -55.7055 -55.5593 -55.4877 -53.6389 -53.5969
   -53.4896 -53.4472 -53.4182 -53.2693 -32.2143 -32.2066 -32.1882 -32.1145
   -32.0819 -32.0403 -32.0176 -32.0107 -31.9907 -31.9383 -31.9199 -31.7849
   -31.7061 -31.6947 -31.6675 -31.6628 -31.6376 -31.4973 -30.1851 -30.1487
   -30.0737 -30.0154 -29.9197 -29.6933 -29.6091 -29.5669 -29.5563 -29.4745
   -29.4368 -29.3928 -29.2618 -29.0889 -29.0068 -28.9790 -28.9703 -28.8581
    -3.7140  -2.4352  -2.0323  -1.8665  -1.6297  -1.5081  -1.4656  -0.9398
    -0.9167  -0.8839  -0.8083  -0.7788  -0.7074  -0.4882  -0.4184  -0.1574
     0.2625   0.2802   0.3751   0.4945   0.7106   0.8801   0.9127   1.0578
     1.1859   1.3087   1.3588   1.4799   1.4847   1.5942   1.7844   1.8253
     1.9077   2.0360   2.1283   2.1980   2.4037   2.6466   2.6554   2.7478
     2.9148   2.9714

          k = 0.0000 0.0613 0.0000 ( 34664 PWs)   bands (ev):

   -55.7852 -55.7768 -55.7137 -55.7055 -55.5592 -55.4877 -53.6392 -53.5970
   -53.4895 -53.4471 -53.4183 -53.2692 -32.2115 -32.2056 -32.1852 -32.1132
   -32.0836 -32.0389 -32.0183 -32.0031 -31.9859 -31.9346 -31.9178 -31.7807
   -31.7054 -31.6937 -31.6673 -31.6627 -31.6371 -31.4973 -30.1919 -30.1504
   -30.0809 -30.0171 -29.9219 -29.6917 -29.6189 -29.5726 -29.5556 -29.4780
   -29.4388 -29.3967 -29.2626 -29.0892 -29.0072 -28.9792 -28.9702 -28.8581
    -3.4261  -2.2044  -2.0374  -1.9259  -1.4883  -1.3477  -1.3034  -0.8053
    -0.7736  -0.7440  -0.7121  -0.6608  -0.6603  -0.3273  -0.2968   0.0693
     0.1413   0.3268   0.3334   0.4150   0.6679   0.7307   0.7423   1.0134
     1.0878   1.1198   1.2086   1.3787   1.4239   1.4800   1.4829   1.5619
     1.6192   1.8124   1.8731   2.0793   2.2770   2.4162   2.4858   2.6898
     3.0149   3.0415

          k = 0.0000 0.0766 0.0000 ( 34678 PWs)   bands (ev):

   -55.7851 -55.7767 -55.7137 -55.7055 -55.5592 -55.4877 -53.6394 -53.5972
   -53.4896 -53.4471 -53.4182 -53.2692 -32.2092 -32.2051 -32.1830 -32.1123
   -32.0848 -32.0379 -32.0189 -31.9972 -31.9826 -31.9318 -31.9163 -31.7778
   -31.7049 -31.6927 -31.6672 -31.6627 -31.6367 -31.4972 -30.1967 -30.1518
   -30.0861 -30.0183 -29.9236 -29.6908 -29.6259 -29.5769 -29.5552 -29.4805
   -29.4403 -29.3996 -29.2632 -29.0894 -29.0075 -28.9793 -28.9702 -28.8582
    -3.0889  -2.3695  -1.9015  -1.8393  -1.5222  -1.0931  -1.0592  -0.7543
    -0.6923  -0.6734  -0.6435  -0.5645  -0.5509  -0.1536  -0.1206  -0.0810
     0.1556   0.2998   0.3931   0.5202   0.5700   0.6112   0.6696   0.8938
     0.9146   1.0498   1.1150   1.2449   1.2671   1.2689   1.3616   1.4370
     1.4492   1.4927   1.7191   1.8576   2.3008   2.3182   2.4326   2.7828
     2.9862   3.0738

          k = 0.0000-0.0920 0.0000 ( 34708 PWs)   bands (ev):

   -55.7850 -55.7767 -55.7137 -55.7055 -55.5592 -55.4877 -53.6395 -53.5973
   -53.4896 -53.4472 -53.4183 -53.2693 -32.2082 -32.2051 -32.1822 -32.1121
   -32.0853 -32.0375 -32.0191 -31.9950 -31.9814 -31.9307 -31.9158 -31.7768
   -31.7048 -31.6923 -31.6672 -31.6627 -31.6365 -31.4972 -30.1984 -30.1523
   -30.0881 -30.0188 -29.9242 -29.6905 -29.6284 -29.5784 -29.5551 -29.4814
   -29.4409 -29.4006 -29.2634 -29.0895 -29.0076 -28.9794 -28.9702 -28.8582
    -2.7828  -2.6586  -1.8051  -1.7380  -1.5986  -0.9561  -0.8850  -0.8372
    -0.6608  -0.6072  -0.6050  -0.5224  -0.5058  -0.2951  -0.0603   0.0675
     0.1455   0.2525   0.4347   0.4657   0.4865   0.6709   0.7591   0.8233
     0.8497   1.0369   1.1361   1.1474   1.1755   1.1815   1.2147   1.3086
     1.3788   1.4772   1.5879   1.8604   2.2504   2.2624   2.6036   2.7249
     2.8517   2.9194

          k = 0.0151 0.0077 0.0000 ( 34736 PWs)   bands (ev):

   -55.7844 -55.7758 -55.7149 -55.7067 -55.5582 -55.4890 -53.6358 -53.5941
   -53.4922 -53.4498 -53.4158 -53.2720 -32.2101 -32.1999 -32.1924 -32.1180
   -32.0776 -32.0343 -32.0232 -32.0172 -31.9991 -31.9462 -31.9250 -31.7918
   -31.7087 -31.6953 -31.6773 -31.6725 -31.6393 -31.5071 -30.1525 -30.1282
   -30.0576 -29.9940 -29.9184 -29.6948 -29.5873 -29.5598 -29.5546 -29.4704
   -29.4355 -29.3834 -29.2627 -29.0863 -29.0276 -29.0002 -28.9724 -28.8793
    -4.0557  -2.7532  -2.1763  -2.0014  -1.7891  -1.6501  -1.3654  -1.2364
    -1.1026  -1.0347  -1.0212  -0.8878  -0.8660  -0.7274  -0.5322  -0.3649
     0.2108   0.2773   0.4458   0.7344   0.9218   1.0028   1.0306   1.2594
     1.3140   1.4286   1.4361   1.7327   1.9095   1.9336   2.0692   2.0989
     2.2590   2.2757   2.5421   2.6596   2.7078   2.7160   2.7886   2.9001
     2.9290   2.9768

          k = 0.0151 0.0230 0.0000 ( 34718 PWs)   bands (ev):

   -55.7843 -55.7758 -55.7149 -55.7067 -55.5582 -55.4890 -53.6360 -53.5942
   -53.4921 -53.4498 -53.4158 -53.2720 -32.2089 -32.1993 -32.1909 -32.1174
   -32.0785 -32.0336 -32.0196 -32.0175 -31.9965 -31.9443 -31.9239 -31.7895
   -31.7083 -31.6950 -31.6772 -31.6725 -31.6391 -31.5070 -30.1565 -30.1285
   -30.0612 -29.9948 -29.9194 -29.6937 -29.5927 -29.5594 -29.5572 -29.4721
   -29.4365 -29.3853 -29.2630 -29.0865 -29.0278 -29.0003 -28.9724 -28.8793
    -3.9649  -2.6657  -2.1310  -1.9185  -1.7210  -1.6548  -1.3917  -1.1755
    -1.0424  -0.9771  -0.9679  -0.8368  -0.8310  -0.6718  -0.4413  -0.3709
     0.2277   0.2784   0.4674   0.6465   0.9223   0.9241   1.0451   1.2125
     1.2423   1.4238   1.4524   1.6023   1.7765   1.8131   1.9891   2.0675
     2.2107   2.2272   2.3727   2.4913   2.6452   2.7492   2.7572   2.8247
     2.8877   3.0171

          k = 0.0151 0.0383 0.0000 ( 34700 PWs)   bands (ev):

   -55.7842 -55.7757 -55.7149 -55.7067 -55.5581 -55.4890 -53.6362 -53.5943
   -53.4922 -53.4498 -53.4158 -53.2719 -32.2066 -32.1982 -32.1884 -32.1163
   -32.0799 -32.0323 -32.0182 -32.0132 -31.9921 -31.9412 -31.9221 -31.7856
   -31.7076 -31.6943 -31.6771 -31.6724 -31.6388 -31.5070 -30.1629 -30.1295
   -30.0675 -29.9962 -29.9213 -29.6919 -29.6017 -29.5620 -29.5589 -29.4750
   -29.4381 -29.3886 -29.2637 -29.0868 -29.0281 -29.0004 -28.9723 -28.8793
    -3.7876  -2.4982  -2.0480  -1.8033  -1.6592  -1.5910  -1.4115  -1.0666
    -0.9261  -0.8785  -0.8701  -0.7839  -0.7248  -0.5636  -0.3835  -0.2624
     0.2571   0.2810   0.4611   0.5346   0.7910   0.8952   0.9860   1.1081
     1.2161   1.3895   1.3947   1.4787   1.5590   1.6652   1.8428   1.9215
     2.0195   2.0902   2.1777   2.2341   2.5201   2.6363   2.7896   2.8448
     2.8923   2.9002

          k = 0.0151 0.0536 0.0000 ( 34669 PWs)   bands (ev):

   -55.7840 -55.7756 -55.7149 -55.7067 -55.5580 -55.4890 -53.6365 -53.5944
   -53.4921 -53.4497 -53.4158 -53.2718 -32.2038 -32.1971 -32.1854 -32.1151
   -32.0816 -32.0309 -32.0189 -32.0056 -31.9870 -31.9376 -31.9200 -31.7813
   -31.7070 -31.6934 -31.6770 -31.6723 -31.6383 -31.5069 -30.1698 -30.1310
   -30.0748 -29.9979 -29.9234 -29.6902 -29.6117 -29.5676 -29.5583 -29.4784
   -29.4401 -29.3926 -29.2644 -29.0871 -29.0284 -29.0005 -28.9723 -28.8793
    -3.5335  -2.2698  -1.9430  -1.9024  -1.4881  -1.4135  -1.3920  -0.9310
    -0.7757  -0.7693  -0.7391  -0.7189  -0.6091  -0.4141  -0.3373  -0.0382
     0.2495   0.2987   0.3345   0.4825   0.6923   0.8003   0.8248   1.0326
     1.1684   1.1816   1.2682   1.4063   1.4588   1.5430   1.5968   1.6832
     1.6883   1.8827   1.9727   2.2065   2.2182   2.5178   2.6122   2.6560
     2.9435   2.9707

          k = 0.0151 0.0690 0.0000 ( 34663 PWs)   bands (ev):

   -55.7839 -55.7756 -55.7149 -55.7067 -55.5580 -55.4890 -53.6368 -53.5946
   -53.4921 -53.4497 -53.4158 -53.2718 -32.2012 -32.1964 -32.1828 -32.1141
   -32.0831 -32.0296 -32.0195 -31.9988 -31.9829 -31.9344 -31.9183 -31.7778
   -31.7065 -31.6924 -31.6769 -31.6723 -31.6379 -31.5069 -30.1756 -30.1326
   -30.0810 -29.9994 -29.9253 -29.6889 -29.6202 -29.5727 -29.5578 -29.4813
   -29.4418 -29.3960 -29.2651 -29.0874 -29.0287 -29.0007 -28.9722 -28.8793
    -3.2182  -2.1788  -1.9771  -1.8414  -1.4427  -1.2146  -1.1648  -0.8097
    -0.6826  -0.6732  -0.6452  -0.6149  -0.5255  -0.2226  -0.1719   0.0256
     0.1267   0.3425   0.3865   0.4225   0.6335   0.6387   0.6780   0.9691
     0.9757   1.0630   1.1318   1.2547   1.3086   1.3694   1.4346   1.5110
     1.5155   1.6036   1.7983   1.9261   2.2983   2.3160   2.4440   2.7254
     2.8526   2.9943

          k = 0.0151 0.0843 0.0000 ( 34663 PWs)   bands (ev):

   -55.7838 -55.7755 -55.7150 -55.7067 -55.5580 -55.4890 -53.6369 -53.5947
   -53.4921 -53.4497 -53.4157 -53.2718 -32.1995 -32.1961 -32.1812 -32.1135
   -32.0840 -32.0289 -32.0198 -31.9946 -31.9807 -31.9326 -31.9173 -31.7758
   -31.7062 -31.6916 -31.6768 -31.6722 -31.6376 -31.5069 -30.1789 -30.1336
   -30.0846 -30.0002 -29.9264 -29.6883 -29.6250 -29.5756 -29.5575 -29.4830
   -29.4428 -29.3980 -29.2655 -29.0875 -29.0289 -29.0008 -28.9722 -28.8793
    -2.8684  -2.4897  -1.7765  -1.7481  -1.5126  -1.0447  -0.8897  -0.8122
    -0.6317  -0.6237  -0.5767  -0.5384  -0.4535  -0.2313  -0.0485   0.0199
     0.1660   0.2697   0.4327   0.4436   0.5158   0.6668   0.7140   0.7946
     0.8523   1.0222   1.0313   1.1186   1.1939   1.2082   1.3236   1.3692
     1.4133   1.4615   1.6595   1.8654   2.1651   2.3561   2.4931   2.7457
     2.8108   2.8779

          k = 0.0151-0.0843 0.0000 ( 34663 PWs)   bands (ev):

   -55.7838 -55.7755 -55.7150 -55.7067 -55.5580 -55.4890 -53.6369 -53.5947
   -53.4921 -53.4497 -53.4157 -53.2718 -32.1995 -32.1961 -32.1812 -32.1135
   -32.0840 -32.0289 -32.0198 -31.9946 -31.9807 -31.9326 -31.9173 -31.7758
   -31.7062 -31.6916 -31.6768 -31.6722 -31.6376 -31.5069 -30.1789 -30.1336
   -30.0846 -30.0002 -29.9264 -29.6883 -29.6250 -29.5756 -29.5575 -29.4830
   -29.4428 -29.3980 -29.2655 -29.0875 -29.0289 -29.0008 -28.9722 -28.8793
    -2.8684  -2.4897  -1.7765  -1.7481  -1.5126  -1.0447  -0.8897  -0.8122
    -0.6317  -0.6238  -0.5767  -0.5384  -0.4535  -0.2313  -0.0484   0.0199
     0.1659   0.2697   0.4327   0.4436   0.5158   0.6668   0.7139   0.7946
     0.8523   1.0222   1.0313   1.1186   1.1939   1.2081   1.3236   1.3691
     1.4133   1.4615   1.6594   1.8654   2.1651   2.3561   2.4931   2.7460
     2.8107   2.8780

          k = 0.0151-0.0690 0.0000 ( 34663 PWs)   bands (ev):

   -55.7839 -55.7756 -55.7149 -55.7067 -55.5580 -55.4890 -53.6368 -53.5946
   -53.4921 -53.4497 -53.4158 -53.2718 -32.2012 -32.1964 -32.1828 -32.1141
   -32.0831 -32.0296 -32.0195 -31.9988 -31.9829 -31.9344 -31.9183 -31.7778
   -31.7065 -31.6924 -31.6769 -31.6723 -31.6379 -31.5069 -30.1756 -30.1326
   -30.0810 -29.9994 -29.9253 -29.6889 -29.6202 -29.5727 -29.5578 -29.4813
   -29.4418 -29.3960 -29.2651 -29.0874 -29.0287 -29.0007 -28.9722 -28.8793
    -3.2182  -2.1788  -1.9770  -1.8414  -1.4427  -1.2146  -1.1648  -0.8096
    -0.6826  -0.6732  -0.6452  -0.6148  -0.5255  -0.2224  -0.1721   0.0256
     0.1267   0.3425   0.3865   0.4224   0.6335   0.6387   0.6780   0.9691
     0.9757   1.0630   1.1318   1.2547   1.3086   1.3695   1.4345   1.5110
     1.5155   1.6036   1.7982   1.9261   2.2984   2.3160   2.4440   2.7253
     2.8526   2.9940

          k = 0.0151-0.0536 0.0000 ( 34669 PWs)   bands (ev):

   -55.7840 -55.7756 -55.7149 -55.7067 -55.5580 -55.4890 -53.6365 -53.5944
   -53.4921 -53.4497 -53.4158 -53.2718 -32.2038 -32.1971 -32.1854 -32.1151
   -32.0816 -32.0309 -32.0189 -32.0056 -31.9870 -31.9376 -31.9200 -31.7813
   -31.7070 -31.6934 -31.6770 -31.6723 -31.6383 -31.5069 -30.1698 -30.1310
   -30.0748 -29.9979 -29.9234 -29.6902 -29.6117 -29.5676 -29.5583 -29.4784
   -29.4401 -29.3926 -29.2644 -29.0871 -29.0284 -29.0005 -28.9723 -28.8793
    -3.5335  -2.2698  -1.9430  -1.9024  -1.4881  -1.4135  -1.3920  -0.9310
    -0.7757  -0.7693  -0.7392  -0.7189  -0.6091  -0.4139  -0.3374  -0.0382
     0.2495   0.2987   0.3345   0.4825   0.6923   0.8003   0.8247   1.0326
     1.1684   1.1816   1.2681   1.4063   1.4588   1.5429   1.5968   1.6831
     1.6883   1.8826   1.9727   2.2065   2.2183   2.5179   2.6122   2.6560
     2.9435   2.9706

          k = 0.0151-0.0383 0.0000 ( 34700 PWs)   bands (ev):

   -55.7842 -55.7757 -55.7149 -55.7067 -55.5581 -55.4890 -53.6362 -53.5943
   -53.4922 -53.4498 -53.4158 -53.2719 -32.2066 -32.1982 -32.1884 -32.1163
   -32.0799 -32.0323 -32.0182 -32.0132 -31.9921 -31.9412 -31.9221 -31.7856
   -31.7076 -31.6943 -31.6771 -31.6724 -31.6388 -31.5070 -30.1629 -30.1295
   -30.0675 -29.9962 -29.9213 -29.6919 -29.6017 -29.5620 -29.5589 -29.4750
   -29.4381 -29.3886 -29.2637 -29.0868 -29.0281 -29.0004 -28.9723 -28.8793
    -3.7876  -2.4982  -2.0480  -1.8033  -1.6592  -1.5910  -1.4115  -1.0666
    -0.9260  -0.8785  -0.8701  -0.7839  -0.7249  -0.5636  -0.3835  -0.2624
     0.2571   0.2810   0.4611   0.5346   0.7910   0.8952   0.9860   1.1081
     1.2161   1.3895   1.3948   1.4786   1.5589   1.6651   1.8428   1.9214
     2.0196   2.0902   2.1776   2.2341   2.5201   2.6364   2.7893   2.8447
     2.8913   2.9001

          k = 0.0151-0.0230 0.0000 ( 34718 PWs)   bands (ev):

   -55.7843 -55.7758 -55.7149 -55.7067 -55.5582 -55.4890 -53.6360 -53.5942
   -53.4921 -53.4498 -53.4158 -53.2720 -32.2089 -32.1993 -32.1909 -32.1174
   -32.0785 -32.0336 -32.0196 -32.0175 -31.9965 -31.9443 -31.9239 -31.7895
   -31.7083 -31.6950 -31.6772 -31.6725 -31.6391 -31.5070 -30.1565 -30.1285
   -30.0612 -29.9948 -29.9194 -29.6937 -29.5927 -29.5594 -29.5572 -29.4721
   -29.4365 -29.3853 -29.2630 -29.0865 -29.0278 -29.0003 -28.9724 -28.8793
    -3.9649  -2.6657  -2.1310  -1.9185  -1.7210  -1.6548  -1.3917  -1.1755
    -1.0424  -0.9771  -0.9679  -0.8368  -0.8310  -0.6718  -0.4414  -0.3709
     0.2277   0.2784   0.4674   0.6465   0.9223   0.9241   1.0451   1.2125
     1.2423   1.4237   1.4524   1.6023   1.7764   1.8130   1.9892   2.0675
     2.2107   2.2272   2.3727   2.4913   2.6453   2.7493   2.7572   2.8248
     2.8877   3.0187

          k = 0.0151-0.0077 0.0000 ( 34736 PWs)   bands (ev):

   -55.7844 -55.7758 -55.7149 -55.7067 -55.5582 -55.4890 -53.6358 -53.5941
   -53.4922 -53.4498 -53.4158 -53.2720 -32.2101 -32.1999 -32.1924 -32.1180
   -32.0776 -32.0343 -32.0232 -32.0172 -31.9991 -31.9462 -31.9250 -31.7918
   -31.7087 -31.6953 -31.6773 -31.6725 -31.6393 -31.5071 -30.1525 -30.1282
   -30.0576 -29.9940 -29.9184 -29.6948 -29.5873 -29.5598 -29.5546 -29.4704
   -29.4355 -29.3834 -29.2627 -29.0863 -29.0276 -29.0002 -28.9724 -28.8793
    -4.0557  -2.7532  -2.1763  -2.0014  -1.7891  -1.6501  -1.3654  -1.2364
    -1.1026  -1.0347  -1.0212  -0.8878  -0.8660  -0.7273  -0.5322  -0.3649
     0.2108   0.2773   0.4458   0.7344   0.9218   1.0028   1.0306   1.2594
     1.3140   1.4286   1.4360   1.7327   1.9095   1.9335   2.0692   2.0989
     2.2590   2.2757   2.5421   2.6597   2.7077   2.7160   2.7884   2.9001
     2.9285   2.9783

          k = 0.0302 0.0153 0.0000 ( 34703 PWs)   bands (ev):

   -55.7808 -55.7723 -55.7185 -55.7103 -55.5546 -55.4926 -53.6285 -53.5867
   -53.4998 -53.4574 -53.4084 -53.2796 -32.1878 -32.1830 -32.1734 -32.1209
   -32.0749 -32.0215 -32.0172 -32.0070 -31.9940 -31.9476 -31.9273 -31.7864
   -31.7117 -31.7053 -31.7012 -31.6913 -31.6419 -31.5349 -30.1000 -30.0740
   -30.0522 -29.9404 -29.9272 -29.6873 -29.5839 -29.5662 -29.5499 -29.4787
   -29.4432 -29.3780 -29.2698 -29.0914 -29.0810 -29.0621 -28.9784 -28.9412
    -3.8867  -2.5885  -2.0553  -1.8669  -1.7225  -1.5055  -1.2510  -1.2277
    -1.0206  -0.9483  -0.8304  -0.7906  -0.7643  -0.6706  -0.4661  -0.2640
     0.2407   0.2940   0.5738   0.7243   0.8702   1.0490   1.0870   1.2299
     1.3572   1.4059   1.4617   1.6609   1.7488   1.7993   1.8822   2.0280
     2.1615   2.2144   2.2408   2.4487   2.5744   2.6543   2.7322   2.7736
     2.8204   2.9023

          k = 0.0302 0.0307 0.0000 ( 34702 PWs)   bands (ev):

   -55.7807 -55.7722 -55.7185 -55.7103 -55.5546 -55.4926 -53.6287 -53.5869
   -53.4998 -53.4574 -53.4085 -53.2795 -32.1858 -32.1812 -32.1725 -32.1202
   -32.0760 -32.0218 -32.0124 -32.0061 -31.9906 -31.9455 -31.9261 -31.7834
   -31.7114 -31.7053 -31.7012 -31.6908 -31.6417 -31.5350 -30.1049 -30.0746
   -30.0570 -29.9415 -29.9284 -29.6859 -29.5908 -29.5659 -29.5534 -29.4807
   -29.4443 -29.3806 -29.2702 -29.0915 -29.0812 -29.0622 -28.9784 -28.9412
    -3.7538  -2.4609  -1.9910  -1.7583  -1.6450  -1.5182  -1.2506  -1.1762
    -0.9322  -0.8588  -0.7616  -0.7216  -0.7047  -0.5960  -0.3478  -0.2586
     0.2643   0.2929   0.5750   0.6231   0.8577   0.9203   1.0289   1.2118
     1.2669   1.4138   1.4173   1.4853   1.5650   1.7462   1.7516   1.9483
     1.9555   2.0938   2.1639   2.2405   2.6075   2.6364   2.7204   2.7613
     2.8407   2.8524

          k = 0.0302 0.0460 0.0000 ( 34689 PWs)   bands (ev):

   -55.7806 -55.7721 -55.7185 -55.7103 -55.5545 -55.4926 -53.6290 -53.5870
   -53.4997 -53.4574 -53.4085 -53.2794 -32.1832 -32.1788 -32.1714 -32.1193
   -32.0775 -32.0223 -32.0056 -32.0048 -31.9860 -31.9427 -31.9245 -31.7794
   -31.7110 -31.7054 -31.7012 -31.6900 -31.6414 -31.5351 -30.1113 -30.0758
   -30.0635 -29.9430 -29.9300 -29.6842 -29.5999 -29.5654 -29.5585 -29.4833
   -29.4458 -29.3841 -29.2707 -29.0915 -29.0815 -29.0623 -28.9783 -28.9411
    -3.5395  -2.2599  -1.8950  -1.7122  -1.5268  -1.4748  -1.2494  -1.0611
    -0.8008  -0.7366  -0.6745  -0.6492  -0.5627  -0.4847  -0.2757  -0.1319
     0.2903   0.2982   0.4382   0.5832   0.7763   0.8034   0.9073   1.0796
     1.2232   1.2469   1.2887   1.4089   1.4860   1.5765   1.6236   1.6810
     1.7573   1.9036   2.0344   2.1279   2.2876   2.6315   2.6352   2.7054
     2.7743   2.8809

          k = 0.0302 0.0613 0.0000 ( 34656 PWs)   bands (ev):

   -55.7804 -55.7721 -55.7186 -55.7103 -55.5545 -55.4926 -53.6293 -53.5872
   -53.4996 -53.4573 -53.4085 -53.2793 -32.1805 -32.1761 -32.1704 -32.1183
   -32.0791 -32.0227 -32.0035 -31.9987 -31.9815 -31.9398 -31.9229 -31.7756
   -31.7106 -31.7054 -31.7012 -31.6891 -31.6410 -31.5351 -30.1173 -30.0774
   -30.0700 -29.9445 -29.9317 -29.6828 -29.6088 -29.5650 -29.5636 -29.4859
   -29.4473 -29.3877 -29.2711 -29.0916 -29.0818 -29.0624 -28.9782 -28.9410
    -3.2552  -2.0126  -1.8899  -1.7863  -1.3879  -1.3086  -1.1756  -0.9256
    -0.6594  -0.6296  -0.6039  -0.5407  -0.4413  -0.3129  -0.1817   0.0517
     0.1825   0.3453   0.3644   0.4734   0.6853   0.6930   0.7244   0.9773
     1.0218   1.0999   1.1806   1.2963   1.3124   1.3566   1.4740   1.6012
     1.6097   1.6949   1.7983   1.9923   2.1733   2.3632   2.5638   2.6765
     2.8377   2.9975

          k = 0.0302 0.0766 0.0000 ( 34642 PWs)   bands (ev):

   -55.7803 -55.7720 -55.7186 -55.7103 -55.5544 -55.4926 -53.6295 -53.5873
   -53.4996 -53.4573 -53.4084 -53.2793 -32.1784 -32.1739 -32.1700 -32.1176
   -32.0803 -32.0231 -32.0026 -31.9933 -31.9784 -31.9378 -31.9218 -31.7729
   -31.7104 -31.7054 -31.7011 -31.6883 -31.6407 -31.5352 -30.1216 -30.0786
   -30.0747 -29.9456 -29.9329 -29.6819 -29.6151 -29.5674 -29.5647 -29.4879
   -29.4484 -29.3904 -29.2715 -29.0916 -29.0820 -29.0625 -28.9782 -28.9409
    -2.9193  -2.1991  -1.7321  -1.6952  -1.3199  -1.2654  -0.9082  -0.8121
    -0.5912  -0.5522  -0.5438  -0.4418  -0.3829  -0.0809  -0.0805  -0.0116
     0.1601   0.3199   0.4154   0.4362   0.5541   0.5725   0.6652   0.8460
     0.8865   0.9679   1.0073   1.0790   1.1952   1.2954   1.3337   1.4047
     1.5304   1.5365   1.7406   1.8821   2.1178   2.3038   2.4525   2.7129
     2.7869   2.8079

          k = 0.0302 0.0920 0.0000 ( 34636 PWs)   bands (ev):

   -55.7803 -55.7720 -55.7186 -55.7103 -55.5544 -55.4926 -53.6295 -53.5873
   -53.4996 -53.4573 -53.4084 -53.2793 -32.1777 -32.1730 -32.1699 -32.1174
   -32.0807 -32.0232 -32.0023 -31.9913 -31.9774 -31.9370 -31.9214 -31.7720
   -31.7103 -31.7054 -31.7011 -31.6880 -31.6406 -31.5352 -30.1232 -30.0791
   -30.0764 -29.9460 -29.9334 -29.6816 -29.6174 -29.5688 -29.5646 -29.4886
   -29.4488 -29.3913 -29.2717 -29.0916 -29.0821 -29.0626 -28.9781 -28.9409
    -2.5946  -2.5129  -1.6586  -1.5606  -1.3973  -1.2137  -0.7725  -0.6988
    -0.5733  -0.5100  -0.5100  -0.4708  -0.3592  -0.2310   0.0481   0.0966
     0.2191   0.2513   0.3563   0.4619   0.4797   0.6597   0.6750   0.7254
     0.7339   0.9506   0.9628   1.0583   1.0984   1.1209   1.3566   1.3790
     1.4741   1.4851   1.6997   1.8892   2.0243   2.3920   2.4648   2.5466
     2.7672   2.8617

          k = 0.0302-0.0766 0.0000 ( 34642 PWs)   bands (ev):

   -55.7803 -55.7720 -55.7186 -55.7103 -55.5544 -55.4926 -53.6295 -53.5873
   -53.4996 -53.4573 -53.4084 -53.2793 -32.1784 -32.1739 -32.1700 -32.1176
   -32.0803 -32.0231 -32.0026 -31.9933 -31.9784 -31.9378 -31.9218 -31.7729
   -31.7104 -31.7054 -31.7011 -31.6883 -31.6407 -31.5352 -30.1216 -30.0786
   -30.0747 -29.9456 -29.9329 -29.6819 -29.6151 -29.5674 -29.5647 -29.4879
   -29.4484 -29.3904 -29.2715 -29.0916 -29.0820 -29.0625 -28.9782 -28.9409
    -2.9193  -2.1991  -1.7321  -1.6953  -1.3199  -1.2655  -0.9081  -0.8120
    -0.5912  -0.5522  -0.5438  -0.4418  -0.3829  -0.0809  -0.0802  -0.0117
     0.1601   0.3199   0.4154   0.4362   0.5541   0.5724   0.6652   0.8460
     0.8865   0.9679   1.0074   1.0790   1.1953   1.2953   1.3337   1.4047
     1.5303   1.5364   1.7405   1.8821   2.1178   2.3037   2.4526   2.7129
     2.7869   2.8078

          k = 0.0302-0.0613 0.0000 ( 34656 PWs)   bands (ev):

   -55.7804 -55.7721 -55.7186 -55.7103 -55.5545 -55.4926 -53.6293 -53.5872
   -53.4996 -53.4573 -53.4085 -53.2793 -32.1805 -32.1761 -32.1704 -32.1183
   -32.0791 -32.0227 -32.0035 -31.9987 -31.9815 -31.9398 -31.9229 -31.7756
   -31.7106 -31.7054 -31.7012 -31.6891 -31.6410 -31.5351 -30.1173 -30.0774
   -30.0700 -29.9445 -29.9316 -29.6828 -29.6088 -29.5650 -29.5636 -29.4859
   -29.4473 -29.3877 -29.2711 -29.0916 -29.0818 -29.0624 -28.9782 -28.9410
    -3.2552  -2.0125  -1.8899  -1.7863  -1.3879  -1.3086  -1.1756  -0.9255
    -0.6594  -0.6296  -0.6039  -0.5407  -0.4414  -0.3126  -0.1818   0.0518
     0.1825   0.3453   0.3644   0.4734   0.6852   0.6930   0.7243   0.9773
     1.0218   1.0999   1.1806   1.2964   1.3124   1.3567   1.4739   1.6012
     1.6096   1.6947   1.7983   1.9924   2.1732   2.3629   2.5632   2.6767
     2.8379   2.8744

          k = 0.0302-0.0460 0.0000 ( 34689 PWs)   bands (ev):

   -55.7806 -55.7721 -55.7185 -55.7103 -55.5545 -55.4926 -53.6290 -53.5870
   -53.4997 -53.4574 -53.4085 -53.2794 -32.1832 -32.1788 -32.1714 -32.1193
   -32.0775 -32.0223 -32.0056 -32.0048 -31.9860 -31.9427 -31.9245 -31.7794
   -31.7110 -31.7054 -31.7012 -31.6900 -31.6414 -31.5351 -30.1113 -30.0758
   -30.0635 -29.9430 -29.9300 -29.6842 -29.5999 -29.5654 -29.5585 -29.4833
   -29.4458 -29.3841 -29.2707 -29.0915 -29.0815 -29.0623 -28.9783 -28.9411
    -3.5395  -2.2599  -1.8950  -1.7122  -1.5268  -1.4748  -1.2494  -1.0611
    -0.8008  -0.7367  -0.6745  -0.6491  -0.5627  -0.4846  -0.2757  -0.1318
     0.2903   0.2982   0.4381   0.5831   0.7763   0.8034   0.9073   1.0797
     1.2232   1.2469   1.2886   1.4089   1.4859   1.5764   1.6236   1.6810
     1.7572   1.9036   2.0344   2.1279   2.2877   2.6316   2.6353   2.7054
     2.7743   2.8807

          k = 0.0302-0.0307 0.0000 ( 34702 PWs)   bands (ev):

   -55.7807 -55.7722 -55.7185 -55.7103 -55.5546 -55.4926 -53.6287 -53.5869
   -53.4998 -53.4574 -53.4085 -53.2795 -32.1858 -32.1812 -32.1725 -32.1202
   -32.0760 -32.0218 -32.0124 -32.0061 -31.9906 -31.9455 -31.9261 -31.7834
   -31.7114 -31.7053 -31.7012 -31.6908 -31.6417 -31.5350 -30.1049 -30.0746
   -30.0570 -29.9415 -29.9284 -29.6859 -29.5908 -29.5659 -29.5534 -29.4807
   -29.4443 -29.3806 -29.2702 -29.0915 -29.0812 -29.0622 -28.9784 -28.9412
    -3.7538  -2.4609  -1.9910  -1.7583  -1.6450  -1.5182  -1.2506  -1.1762
    -0.9322  -0.8588  -0.7616  -0.7215  -0.7047  -0.5960  -0.3478  -0.2586
     0.2643   0.2929   0.5750   0.6230   0.8577   0.9203   1.0289   1.2118
     1.2669   1.4138   1.4173   1.4852   1.5650   1.7462   1.7517   1.9483
     1.9556   2.0938   2.1639   2.2405   2.6077   2.6365   2.7203   2.7613
     2.8408   2.8523

          k = 0.0302-0.0153 0.0000 ( 34703 PWs)   bands (ev):

   -55.7808 -55.7723 -55.7185 -55.7103 -55.5546 -55.4926 -53.6285 -53.5867
   -53.4998 -53.4574 -53.4084 -53.2796 -32.1878 -32.1830 -32.1734 -32.1209
   -32.0749 -32.0215 -32.0172 -32.0070 -31.9940 -31.9476 -31.9273 -31.7864
   -31.7117 -31.7053 -31.7012 -31.6913 -31.6419 -31.5349 -30.1000 -30.0740
   -30.0522 -29.9404 -29.9272 -29.6873 -29.5839 -29.5662 -29.5499 -29.4787
   -29.4432 -29.3780 -29.2698 -29.0914 -29.0810 -29.0621 -28.9784 -28.9412
    -3.8867  -2.5885  -2.0553  -1.8669  -1.7225  -1.5055  -1.2510  -1.2277
    -1.0206  -0.9483  -0.8303  -0.7906  -0.7643  -0.6706  -0.4660  -0.2640
     0.2407   0.2940   0.5738   0.7242   0.8702   1.0490   1.0870   1.2299
     1.3572   1.4058   1.4617   1.6610   1.7488   1.7994   1.8821   2.0281
     2.1616   2.2144   2.2407   2.4487   2.5745   2.6542   2.7322   2.7736
     2.8204   2.9023

          k = 0.0302 0.0000 0.0000 ( 34711 PWs)   bands (ev):

   -55.7808 -55.7723 -55.7185 -55.7103 -55.5546 -55.4926 -53.6285 -53.5867
   -53.4998 -53.4574 -53.4084 -53.2796 -32.1885 -32.1836 -32.1737 -32.1211
   -32.0745 -32.0214 -32.0190 -32.0073 -31.9952 -31.9484 -31.9277 -31.7875
   -31.7119 -31.7053 -31.7012 -31.6914 -31.6420 -31.5349 -30.0981 -30.0739
   -30.0505 -29.9400 -29.9268 -29.6878 -29.5813 -29.5664 -29.5487 -29.4780
   -29.4428 -29.3771 -29.2697 -29.0914 -29.0809 -29.0621 -28.9784 -28.9412
    -3.9317  -2.6320  -2.0778  -1.9071  -1.7492  -1.5052  -1.2768  -1.2143
    -1.0513  -0.9803  -0.8565  -0.8191  -0.7791  -0.6964  -0.5103  -0.2627
     0.2322   0.2947   0.5651   0.7695   0.8703   1.0911   1.1030   1.2253
     1.3942   1.4330   1.4536   1.7548   1.8126   1.8233   1.9273   2.0396
     2.2219   2.2448   2.2812   2.5551   2.6111   2.6153   2.7127   2.7445
     2.7827   2.8780

          k = 0.0453 0.0230 0.0000 ( 34677 PWs)   bands (ev):

   -55.7751 -55.7666 -55.7242 -55.7160 -55.5490 -55.4983 -53.6169 -53.5750
   -53.5118 -53.4695 -53.3967 -53.2915 -32.1806 -32.1397 -32.1316 -32.1250
   -32.0705 -32.0266 -32.0081 -31.9861 -31.9650 -31.9505 -31.9314 -31.7780
   -31.7493 -31.7450 -31.7169 -31.6870 -31.6461 -31.5791 -30.0432 -30.0150
   -29.9873 -29.9407 -29.8542 -29.6756 -29.5777 -29.5767 -29.5422 -29.4915
   -29.4550 -29.3694 -29.2810 -29.1905 -29.1625 -29.0709 -29.0385 -28.9879
    -3.6176  -2.3322  -1.8729  -1.6673  -1.6649  -1.2970  -1.2567  -1.0145
    -0.9352  -0.7973  -0.6497  -0.6043  -0.5629  -0.5223  -0.3572  -0.1082
     0.2768   0.3147   0.6939   0.7801   0.7858   1.0152   1.0737   1.2654
     1.3316   1.3342   1.4377   1.4985   1.5336   1.6767   1.7776   1.8382
     1.8991   2.0700   2.1521   2.1584   2.4937   2.5138   2.6127   2.6521
     2.7191   2.7255

          k = 0.0453 0.0383 0.0000 ( 34666 PWs)   bands (ev):

   -55.7750 -55.7665 -55.7243 -55.7160 -55.5489 -55.4983 -53.6171 -53.5752
   -53.5118 -53.4694 -53.3968 -53.2915 -32.1785 -32.1377 -32.1309 -32.1243
   -32.0717 -32.0269 -32.0028 -31.9824 -31.9640 -31.9488 -31.9305 -31.7748
   -31.7495 -31.7451 -31.7169 -31.6864 -31.6460 -31.5793 -30.0484 -30.0201
   -29.9881 -29.9417 -29.8554 -29.6742 -29.5849 -29.5764 -29.5461 -29.4930
   -29.4558 -29.3722 -29.2811 -29.1902 -29.1624 -29.0712 -29.0383 -28.9878
    -3.4483  -2.1716  -1.8013  -1.6333  -1.5623  -1.3141  -1.1483  -1.0237
    -0.8304  -0.6812  -0.5510  -0.5486  -0.4718  -0.4464  -0.2327  -0.0834
     0.3039   0.3097   0.5642   0.7453   0.7635   0.8726   0.9464   1.1609
     1.2190   1.2583   1.3089   1.4129   1.4665   1.5628   1.6312   1.6977
     1.7621   1.9279   1.9936   2.0601   2.3248   2.5336   2.6134   2.6466
     2.7246   2.7377

          k = 0.0453 0.0536 0.0000 ( 34673 PWs)   bands (ev):

   -55.7748 -55.7665 -55.7243 -55.7160 -55.5489 -55.4983 -53.6174 -53.5753
   -53.5117 -53.4694 -53.3968 -53.2914 -32.1760 -32.1353 -32.1300 -32.1235
   -32.0731 -32.0273 -31.9965 -31.9782 -31.9628 -31.9469 -31.9294 -31.7712
   -31.7499 -31.7452 -31.7169 -31.6856 -31.6458 -31.5796 -30.0543 -30.0256
   -29.9893 -29.9428 -29.8567 -29.6728 -29.5931 -29.5761 -29.5507 -29.4946
   -29.4568 -29.3755 -29.2812 -29.1899 -29.1622 -29.0716 -29.0381 -28.9877
    -3.2042  -1.9460  -1.7076  -1.6128  -1.5804  -1.2264  -1.0090  -1.0002
    -0.6929  -0.5662  -0.4855  -0.4043  -0.3451  -0.3449  -0.1398   0.0177
     0.3067   0.3266   0.4191   0.6206   0.7043   0.7350   0.7914   0.9503
     1.0839   1.0847   1.2112   1.3194   1.3686   1.3808   1.4664   1.6070
     1.7178   1.7804   1.8226   1.9793   2.0274   2.3880   2.5995   2.6599
     2.6662   2.9042

          k = 0.0453 0.0690 0.0000 ( 34641 PWs)   bands (ev):

   -55.7747 -55.7664 -55.7243 -55.7160 -55.5488 -55.4983 -53.6176 -53.5754
   -53.5116 -53.4694 -53.3968 -53.2913 -32.1738 -32.1331 -32.1294 -32.1228
   -32.0744 -32.0276 -31.9908 -31.9748 -31.9617 -31.9454 -31.9284 -31.7683
   -31.7501 -31.7453 -31.7169 -31.6848 -31.6456 -31.5799 -30.0593 -30.0302
   -29.9905 -29.9437 -29.8580 -29.6717 -29.5999 -29.5759 -29.5547 -29.4961
   -29.4576 -29.3784 -29.2813 -29.1897 -29.1621 -29.0718 -29.0380 -28.9876
    -2.8984  -1.8582  -1.6798  -1.6113  -1.5253  -1.1051  -0.8879  -0.8604
    -0.5617  -0.5023  -0.4219  -0.3246  -0.2260  -0.1571   0.0033   0.0994
     0.1246   0.3776   0.3995   0.4422   0.6094   0.6111   0.6808   0.7956
     0.8993   0.9494   1.0728   1.0813   1.2170   1.3194   1.3799   1.4536
     1.6197   1.7056   1.7388   1.8525   2.1035   2.1208   2.5381   2.6382
     2.7290   2.8063

          k = 0.0453 0.0843 0.0000 ( 34616 PWs)   bands (ev):

   -55.7747 -55.7663 -55.7243 -55.7160 -55.5488 -55.4983 -53.6177 -53.5755
   -53.5116 -53.4694 -53.3967 -53.2913 -32.1725 -32.1317 -32.1291 -32.1224
   -32.0751 -32.0278 -31.9874 -31.9728 -31.9611 -31.9445 -31.9279 -31.7667
   -31.7503 -31.7452 -31.7170 -31.6842 -31.6455 -31.5800 -30.0623 -30.0328
   -29.9913 -29.9442 -29.8586 -29.6711 -29.6038 -29.5758 -29.5571 -29.4969
   -29.4581 -29.3801 -29.2814 -29.1896 -29.1620 -29.0720 -29.0379 -28.9876
    -2.5512  -2.1889  -1.5425  -1.4943  -1.4289  -1.1587  -0.7444  -0.6434
    -0.5344  -0.4425  -0.3753  -0.3076  -0.2161  -0.0785  -0.0138   0.1951
     0.2504   0.2631   0.3541   0.4293   0.5365   0.5467   0.6309   0.6829
     0.7157   0.8372   0.9809   1.0114   1.1152   1.1678   1.2683   1.4671
     1.5651   1.6389   1.7170   1.8889   1.9237   2.2720   2.3995   2.4889
     2.7776   2.8373

          k = 0.0453 0.0996 0.0000 ( 34616 PWs)   bands (ev):

   -55.7747 -55.7663 -55.7243 -55.7160 -55.5488 -55.4983 -53.6177 -53.5755
   -53.5116 -53.4694 -53.3967 -53.2913 -32.1725 -32.1317 -32.1291 -32.1224
   -32.0751 -32.0278 -31.9874 -31.9728 -31.9611 -31.9445 -31.9279 -31.7667
   -31.7503 -31.7452 -31.7170 -31.6842 -31.6455 -31.5800 -30.0623 -30.0328
   -29.9913 -29.9442 -29.8586 -29.6711 -29.6038 -29.5758 -29.5571 -29.4970
   -29.4581 -29.3801 -29.2814 -29.1896 -29.1620 -29.0720 -29.0379 -28.9876
    -2.5512  -2.1889  -1.5425  -1.4942  -1.4289  -1.1587  -0.7444  -0.6434
    -0.5344  -0.4425  -0.3753  -0.3076  -0.2161  -0.0784  -0.0136   0.1951
     0.2504   0.2630   0.3541   0.4293   0.5365   0.5466   0.6309   0.6829
     0.7157   0.8371   0.9809   1.0115   1.1152   1.1677   1.2683   1.4671
     1.5651   1.6389   1.7170   1.8888   1.9237   2.2720   2.3996   2.4890
     2.7776   2.8375

          k = 0.0453-0.0690 0.0000 ( 34641 PWs)   bands (ev):

   -55.7747 -55.7664 -55.7243 -55.7160 -55.5488 -55.4983 -53.6176 -53.5754
   -53.5116 -53.4694 -53.3968 -53.2913 -32.1738 -32.1331 -32.1294 -32.1228
   -32.0744 -32.0276 -31.9908 -31.9748 -31.9617 -31.9454 -31.9284 -31.7683
   -31.7501 -31.7453 -31.7169 -31.6848 -31.6456 -31.5799 -30.0593 -30.0302
   -29.9905 -29.9437 -29.8580 -29.6717 -29.5999 -29.5759 -29.5547 -29.4961
   -29.4576 -29.3784 -29.2813 -29.1897 -29.1621 -29.0718 -29.0380 -28.9876
    -2.8984  -1.8582  -1.6798  -1.6114  -1.5253  -1.1051  -0.8878  -0.8604
    -0.5617  -0.5024  -0.4219  -0.3246  -0.2259  -0.1569   0.0032   0.0994
     0.1246   0.3776   0.3995   0.4421   0.6094   0.6110   0.6808   0.7956
     0.8993   0.9494   1.0728   1.0814   1.2171   1.3194   1.3799   1.4536
     1.6195   1.7056   1.7387   1.8525   2.1035   2.1208   2.5381   2.6382
     2.7291   2.8063

          k = 0.0453-0.0536 0.0000 ( 34673 PWs)   bands (ev):

   -55.7748 -55.7665 -55.7243 -55.7160 -55.5489 -55.4983 -53.6174 -53.5753
   -53.5117 -53.4694 -53.3968 -53.2914 -32.1760 -32.1353 -32.1300 -32.1235
   -32.0731 -32.0273 -31.9965 -31.9782 -31.9628 -31.9469 -31.9294 -31.7712
   -31.7499 -31.7452 -31.7169 -31.6856 -31.6458 -31.5796 -30.0543 -30.0256
   -29.9893 -29.9428 -29.8567 -29.6727 -29.5931 -29.5761 -29.5507 -29.4946
   -29.4568 -29.3755 -29.2812 -29.1899 -29.1622 -29.0716 -29.0381 -28.9877
    -3.2042  -1.9460  -1.7076  -1.6128  -1.5804  -1.2263  -1.0090  -1.0002
    -0.6929  -0.5662  -0.4855  -0.4041  -0.3452  -0.3448  -0.1398   0.0177
     0.3067   0.3266   0.4190   0.6206   0.7043   0.7350   0.7914   0.9503
     1.0839   1.0847   1.2112   1.3194   1.3687   1.3808   1.4664   1.6068
     1.7178   1.7802   1.8226   1.9793   2.0273   2.3881   2.5995   2.6600
     2.6663   2.9071

          k = 0.0453-0.0383 0.0000 ( 34666 PWs)   bands (ev):

   -55.7750 -55.7665 -55.7243 -55.7160 -55.5489 -55.4983 -53.6171 -53.5752
   -53.5118 -53.4694 -53.3968 -53.2915 -32.1785 -32.1377 -32.1309 -32.1243
   -32.0717 -32.0269 -32.0028 -31.9824 -31.9640 -31.9488 -31.9305 -31.7748
   -31.7495 -31.7451 -31.7169 -31.6864 -31.6460 -31.5793 -30.0484 -30.0201
   -29.9881 -29.9417 -29.8554 -29.6742 -29.5850 -29.5764 -29.5461 -29.4930
   -29.4558 -29.3722 -29.2811 -29.1902 -29.1624 -29.0712 -29.0383 -28.9878
    -3.4483  -2.1716  -1.8013  -1.6332  -1.5623  -1.3141  -1.1483  -1.0237
    -0.8304  -0.6811  -0.5510  -0.5485  -0.4718  -0.4463  -0.2327  -0.0834
     0.3039   0.3097   0.5642   0.7453   0.7635   0.8726   0.9464   1.1610
     1.2191   1.2583   1.3088   1.4129   1.4664   1.5628   1.6312   1.6976
     1.7620   1.9279   1.9936   2.0601   2.3248   2.5336   2.6136   2.6467
     2.7247   2.7378

          k = 0.0453-0.0230 0.0000 ( 34677 PWs)   bands (ev):

   -55.7751 -55.7666 -55.7242 -55.7160 -55.5490 -55.4983 -53.6169 -53.5750
   -53.5118 -53.4695 -53.3967 -53.2915 -32.1806 -32.1397 -32.1316 -32.1250
   -32.0705 -32.0266 -32.0081 -31.9861 -31.9650 -31.9505 -31.9314 -31.7780
   -31.7493 -31.7450 -31.7169 -31.6870 -31.6461 -31.5791 -30.0433 -30.0150
   -29.9873 -29.9407 -29.8542 -29.6756 -29.5777 -29.5767 -29.5422 -29.4915
   -29.4550 -29.3693 -29.2810 -29.1905 -29.1625 -29.0709 -29.0385 -28.9879
    -3.6176  -2.3322  -1.8729  -1.6673  -1.6649  -1.2970  -1.2567  -1.0145
    -0.9352  -0.7973  -0.6496  -0.6043  -0.5629  -0.5223  -0.3572  -0.1082
     0.2768   0.3147   0.6938   0.7800   0.7858   1.0152   1.0737   1.2655
     1.3316   1.3341   1.4377   1.4984   1.5336   1.6767   1.7776   1.8381
     1.8992   2.0700   2.1521   2.1584   2.4938   2.5138   2.6127   2.6523
     2.7196   2.7255

          k = 0.0453-0.0077 0.0000 ( 34683 PWs)   bands (ev):

   -55.7751 -55.7666 -55.7242 -55.7160 -55.5490 -55.4983 -53.6168 -53.5749
   -53.5119 -53.4695 -53.3967 -53.2916 -32.1818 -32.1408 -32.1321 -32.1254
   -32.0698 -32.0265 -32.0110 -31.9882 -31.9656 -31.9516 -31.9319 -31.7799
   -31.7492 -31.7449 -31.7169 -31.6873 -31.6462 -31.5790 -30.0403 -30.0118
   -29.9870 -29.9401 -29.8535 -29.6765 -29.5768 -29.5734 -29.5400 -29.4907
   -29.4545 -29.3677 -29.2810 -29.1906 -29.1625 -29.0707 -29.0386 -28.9880
    -3.7042  -2.4152  -1.9111  -1.7340  -1.6811  -1.3178  -1.2940  -0.9963
    -0.9904  -0.8644  -0.6996  -0.6355  -0.6114  -0.5632  -0.4377  -0.1112
     0.2612   0.3209   0.7585   0.7896   0.7903   1.1153   1.1518   1.2452
     1.3128   1.4059   1.5323   1.6179   1.6598   1.6882   1.8701   1.8766
     1.9850   2.1675   2.2720   2.3465   2.3791   2.5056   2.5586   2.5754
     2.5926   2.8197

          k = 0.0453 0.0077 0.0000 ( 34683 PWs)   bands (ev):

   -55.7751 -55.7666 -55.7242 -55.7160 -55.5490 -55.4983 -53.6168 -53.5749
   -53.5119 -53.4695 -53.3967 -53.2916 -32.1818 -32.1408 -32.1321 -32.1254
   -32.0698 -32.0265 -32.0110 -31.9882 -31.9656 -31.9516 -31.9319 -31.7799
   -31.7492 -31.7449 -31.7169 -31.6873 -31.6462 -31.5790 -30.0403 -30.0118
   -29.9870 -29.9401 -29.8535 -29.6765 -29.5768 -29.5734 -29.5400 -29.4907
   -29.4545 -29.3677 -29.2810 -29.1906 -29.1625 -29.0707 -29.0386 -28.9880
    -3.7042  -2.4152  -1.9111  -1.7340  -1.6811  -1.3178  -1.2940  -0.9963
    -0.9904  -0.8644  -0.6996  -0.6355  -0.6114  -0.5632  -0.4377  -0.1112
     0.2612   0.3209   0.7585   0.7896   0.7904   1.1153   1.1518   1.2452
     1.3129   1.4058   1.5323   1.6179   1.6598   1.6882   1.8700   1.8766
     1.9850   2.1675   2.2721   2.3464   2.3791   2.5056   2.5586   2.5753
     2.5925   2.8200

          k = 0.0604 0.0307 0.0000 ( 34672 PWs)   bands (ev):

   -55.7676 -55.7592 -55.7317 -55.7234 -55.5416 -55.5057 -53.6017 -53.5598
   -53.5275 -53.4852 -53.3815 -53.3071 -32.1716 -32.1329 -32.0832 -32.0752
   -32.0646 -32.0335 -31.9969 -31.9763 -31.9557 -31.9375 -31.9093 -31.8067
   -31.8023 -31.7675 -31.7242 -31.6809 -31.6517 -31.6364 -30.0308 -29.9588
   -29.9015 -29.8717 -29.7405 -29.6606 -29.5903 -29.5685 -29.5316 -29.5072
   -29.4698 -29.3578 -29.3179 -29.2952 -29.2891 -29.1637 -29.0589 -29.0003
    -3.2677  -2.0143  -1.8179  -1.5809  -1.4298  -1.2078  -1.0718  -0.8454
    -0.7701  -0.6674  -0.4926  -0.3821  -0.3403  -0.2116  -0.1940   0.0856
     0.2941   0.3334   0.6604   0.6849   0.7937   0.9028   1.0428   1.1184
     1.1996   1.2132   1.3619   1.4491   1.4623   1.5245   1.6798   1.7352
     1.7971   1.8238   1.9108   2.0580   2.2615   2.2785   2.4636   2.5228
     2.5829   2.7202

          k = 0.0604 0.0460 0.0000 ( 34628 PWs)   bands (ev):

   -55.7675 -55.7591 -55.7317 -55.7234 -55.5415 -55.5057 -53.6020 -53.5599
   -53.5273 -53.4850 -53.3815 -53.3070 -32.1696 -32.1328 -32.0811 -32.0742
   -32.0658 -32.0336 -31.9919 -31.9729 -31.9551 -31.9375 -31.9080 -31.8074
   -31.8027 -31.7644 -31.7247 -31.6803 -31.6517 -31.6368 -30.0354 -29.9587
   -29.9061 -29.8728 -29.7416 -29.6594 -29.5902 -29.5750 -29.5352 -29.5075
   -29.4700 -29.3605 -29.3171 -29.2948 -29.2888 -29.1634 -29.0592 -29.0001
    -3.0717  -1.8634  -1.8363  -1.5187  -1.3809  -1.0834  -1.0730  -0.7713
    -0.7314  -0.5580  -0.4030  -0.2831  -0.2696  -0.1543  -0.0878   0.1323
     0.3286   0.3336   0.5251   0.6614   0.6759   0.7769   0.9005   0.9201
     1.0796   1.1338   1.2246   1.3788   1.4229   1.4843   1.4962   1.5550
     1.7191   1.8018   1.8239   1.9891   1.9954   2.2850   2.3254   2.6748
     2.7219   2.7686

          k = 0.0604 0.0613 0.0000 ( 34646 PWs)   bands (ev):

   -55.7674 -55.7591 -55.7318 -55.7235 -55.5415 -55.5058 -53.6022 -53.5600
   -53.5273 -53.4851 -53.3815 -53.3070 -32.1675 -32.1328 -32.0788 -32.0733
   -32.0669 -32.0337 -31.9868 -31.9696 -31.9547 -31.9375 -31.9066 -31.8080
   -31.8031 -31.7614 -31.7253 -31.6795 -31.6517 -31.6373 -30.0401 -29.9587
   -29.9104 -29.8740 -29.7428 -29.6583 -29.5902 -29.5813 -29.5389 -29.5078
   -29.4702 -29.3632 -29.3163 -29.2945 -29.2885 -29.1630 -29.0595 -29.0000
    -2.8097  -1.8907  -1.6122  -1.5155  -1.4376  -0.9920  -0.9381  -0.7419
    -0.6115  -0.4641  -0.3089  -0.2169  -0.1466  -0.0956   0.0135   0.1909
     0.3144   0.3841   0.3863   0.5215   0.6622   0.6631   0.7493   0.7518
     0.8526   1.0230   1.0948   1.1985   1.3156   1.3204   1.4924   1.5470
     1.5986   1.7310   1.7831   1.9123   1.9465   2.0661   2.4202   2.5988
     2.6901   2.7612

          k = 0.0604 0.0766 0.0000 ( 34626 PWs)   bands (ev):

   -55.7673 -55.7590 -55.7318 -55.7235 -55.5414 -55.5058 -53.6023 -53.5601
   -53.5272 -53.4850 -53.3815 -53.3069 -32.1660 -32.1327 -32.0769 -32.0728
   -32.0678 -32.0338 -31.9828 -31.9672 -31.9544 -31.9376 -31.9055 -31.8085
   -31.8035 -31.7591 -31.7257 -31.6788 -31.6517 -31.6378 -30.0435 -29.9586
   -29.9135 -29.8749 -29.7436 -29.6576 -29.5902 -29.5858 -29.5416 -29.5080
   -29.4703 -29.3652 -29.3158 -29.2942 -29.2883 -29.1628 -29.0597 -28.9999
    -2.4960  -1.9027  -1.8129  -1.3652  -1.3445  -0.9409  -0.8089  -0.6465
    -0.5657  -0.3931  -0.2586  -0.1578  -0.0709  -0.0707   0.1339   0.2030
     0.2557   0.3498   0.4033   0.4211   0.5911   0.6014   0.6458   0.6692
     0.7747   0.8403   0.9843   1.0558   1.1781   1.2095   1.3433   1.5851
     1.5904   1.6637   1.8336   1.8545   1.8558   2.1079   2.4037   2.4802
     2.6072   2.7313

          k = 0.0604 0.0920 0.0000 ( 34642 PWs)   bands (ev):

   -55.7673 -55.7590 -55.7318 -55.7235 -55.5414 -55.5058 -53.6024 -53.5602
   -53.5272 -53.4850 -53.3816 -53.3069 -32.1655 -32.1327 -32.0762 -32.0727
   -32.0681 -32.0338 -31.9814 -31.9664 -31.9544 -31.9376 -31.9051 -31.8087
   -31.8037 -31.7584 -31.7259 -31.6786 -31.6517 -31.6380 -30.0448 -29.9586
   -29.9146 -29.8753 -29.7439 -29.6573 -29.5902 -29.5874 -29.5426 -29.5081
   -29.4703 -29.3659 -29.3156 -29.2941 -29.2882 -29.1627 -29.0597 -28.9999
    -2.1578  -2.1470  -1.9057  -1.3352  -1.1647  -1.0171  -0.7337  -0.5916
    -0.5456  -0.3493  -0.2538  -0.1471  -0.1261  -0.0464   0.1713   0.2032
     0.2848   0.3731   0.3873   0.4611   0.5342   0.5868   0.6287   0.6438
     0.6633   0.7136   0.9834   1.0627   1.0849   1.1768   1.2600   1.5889
     1.6595   1.6604   1.7102   1.7996   1.9130   2.2886   2.2984   2.3355
     2.6662   2.6847

          k = 0.0604 0.1073 0.0000 ( 34626 PWs)   bands (ev):

   -55.7673 -55.7590 -55.7318 -55.7235 -55.5414 -55.5058 -53.6023 -53.5601
   -53.5272 -53.4850 -53.3815 -53.3069 -32.1660 -32.1327 -32.0769 -32.0728
   -32.0678 -32.0338 -31.9828 -31.9672 -31.9544 -31.9376 -31.9055 -31.8085
   -31.8035 -31.7591 -31.7257 -31.6788 -31.6517 -31.6378 -30.0435 -29.9586
   -29.9135 -29.8749 -29.7436 -29.6576 -29.5902 -29.5858 -29.5416 -29.5080
   -29.4703 -29.3652 -29.3158 -29.2942 -29.2883 -29.1628 -29.0597 -28.9999
    -2.4960  -1.9027  -1.8129  -1.3652  -1.3445  -0.9409  -0.8089  -0.6464
    -0.5657  -0.3931  -0.2586  -0.1578  -0.0709  -0.0706   0.1340   0.2030
     0.2557   0.3498   0.4033   0.4211   0.5912   0.6014   0.6457   0.6692
     0.7747   0.8403   0.9843   1.0559   1.1781   1.2094   1.3433   1.5850
     1.5905   1.6637   1.8335   1.8545   1.8558   2.1078   2.4038   2.4802
     2.6073   2.7314

          k = 0.0604-0.0613 0.0000 ( 34646 PWs)   bands (ev):

   -55.7674 -55.7591 -55.7318 -55.7235 -55.5415 -55.5058 -53.6022 -53.5600
   -53.5273 -53.4851 -53.3815 -53.3070 -32.1675 -32.1328 -32.0788 -32.0733
   -32.0669 -32.0337 -31.9868 -31.9696 -31.9547 -31.9375 -31.9066 -31.8080
   -31.8031 -31.7614 -31.7253 -31.6795 -31.6517 -31.6373 -30.0401 -29.9587
   -29.9104 -29.8740 -29.7428 -29.6583 -29.5902 -29.5813 -29.5389 -29.5078
   -29.4702 -29.3632 -29.3163 -29.2945 -29.2885 -29.1630 -29.0595 -29.0000
    -2.8097  -1.8907  -1.6121  -1.5155  -1.4377  -0.9920  -0.9381  -0.7419
    -0.6116  -0.4641  -0.3089  -0.2169  -0.1466  -0.0955   0.0136   0.1909
     0.3144   0.3841   0.3862   0.5215   0.6621   0.6631   0.7493   0.7518
     0.8526   1.0229   1.0947   1.1986   1.3155   1.3204   1.4924   1.5470
     1.5983   1.7310   1.7831   1.9122   1.9465   2.0661   2.4202   2.5989
     2.6902   2.7614

          k = 0.0604-0.0460 0.0000 ( 34628 PWs)   bands (ev):

   -55.7675 -55.7591 -55.7317 -55.7234 -55.5415 -55.5057 -53.6020 -53.5599
   -53.5273 -53.4850 -53.3815 -53.3070 -32.1695 -32.1328 -32.0811 -32.0742
   -32.0658 -32.0336 -31.9919 -31.9729 -31.9551 -31.9375 -31.9080 -31.8074
   -31.8027 -31.7644 -31.7247 -31.6803 -31.6517 -31.6368 -30.0355 -29.9587
   -29.9061 -29.8728 -29.7416 -29.6594 -29.5902 -29.5750 -29.5352 -29.5075
   -29.4700 -29.3605 -29.3171 -29.2948 -29.2888 -29.1634 -29.0592 -29.0001
    -3.0717  -1.8634  -1.8363  -1.5187  -1.3809  -1.0834  -1.0730  -0.7713
    -0.7314  -0.5579  -0.4030  -0.2831  -0.2696  -0.1542  -0.0877   0.1323
     0.3286   0.3335   0.5250   0.6614   0.6758   0.7769   0.9006   0.9201
     1.0796   1.1337   1.2247   1.3788   1.4229   1.4843   1.4962   1.5548
     1.7191   1.8016   1.8239   1.9891   1.9954   2.2850   2.3255   2.6751
     2.7221   2.7688

          k = 0.0604-0.0307 0.0000 ( 34672 PWs)   bands (ev):

   -55.7676 -55.7592 -55.7317 -55.7234 -55.5416 -55.5057 -53.6017 -53.5598
   -53.5275 -53.4852 -53.3815 -53.3071 -32.1716 -32.1329 -32.0832 -32.0752
   -32.0646 -32.0335 -31.9969 -31.9763 -31.9557 -31.9375 -31.9093 -31.8067
   -31.8023 -31.7675 -31.7242 -31.6809 -31.6517 -31.6364 -30.0308 -29.9588
   -29.9015 -29.8717 -29.7405 -29.6606 -29.5903 -29.5685 -29.5316 -29.5072
   -29.4698 -29.3578 -29.3179 -29.2952 -29.2891 -29.1637 -29.0589 -29.0003
    -3.2677  -2.0143  -1.8179  -1.5809  -1.4297  -1.2078  -1.0718  -0.8454
    -0.7701  -0.6673  -0.4926  -0.3821  -0.3403  -0.2116  -0.1939   0.0857
     0.2941   0.3334   0.6603   0.6849   0.7937   0.9028   1.0428   1.1184
     1.1996   1.2132   1.3620   1.4490   1.4622   1.5244   1.6797   1.7353
     1.7970   1.8238   1.9109   2.0580   2.2615   2.2785   2.4638   2.5226
     2.5828   2.7205

          k = 0.0604-0.0153 0.0000 ( 34676 PWs)   bands (ev):

   -55.7677 -55.7593 -55.7317 -55.7234 -55.5416 -55.5057 -53.6016 -53.5597
   -53.5276 -53.4852 -53.3814 -53.3072 -32.1730 -32.1329 -32.0846 -32.0759
   -32.0638 -32.0334 -32.0004 -31.9788 -31.9561 -31.9376 -31.9102 -31.8063
   -31.8021 -31.7698 -31.7239 -31.6812 -31.6517 -31.6361 -30.0274 -29.9589
   -29.8980 -29.8710 -29.7397 -29.6616 -29.5903 -29.5636 -29.5290 -29.5071
   -29.4697 -29.3558 -29.3186 -29.2955 -29.2893 -29.1640 -29.0587 -29.0004
    -3.3886  -2.1257  -1.7683  -1.6022  -1.5039  -1.3358  -1.0615  -0.9171
    -0.7475  -0.7460  -0.5540  -0.4542  -0.3796  -0.2983  -0.2566   0.0708
     0.2748   0.3497   0.6867   0.7499   0.9248   1.0065   1.0958   1.1251
     1.1957   1.3370   1.4479   1.5325   1.5464   1.6470   1.7654   1.8555
     1.9013   1.9188   2.0553   2.0991   2.2563   2.3203   2.4257   2.4635
     2.5555   2.6099

          k = 0.0604 0.0000 0.0000 ( 34672 PWs)   bands (ev):

   -55.7677 -55.7593 -55.7316 -55.7234 -55.5416 -55.5057 -53.6015 -53.5596
   -53.5276 -53.4852 -53.3814 -53.3072 -32.1735 -32.1329 -32.0851 -32.0761
   -32.0635 -32.0334 -32.0017 -31.9797 -31.9563 -31.9376 -31.9106 -31.8061
   -31.8020 -31.7706 -31.7237 -31.6814 -31.6517 -31.6360 -30.0261 -29.9589
   -29.8967 -29.8708 -29.7394 -29.6620 -29.5903 -29.5617 -29.5281 -29.5070
   -29.4697 -29.3551 -29.3189 -29.2956 -29.2894 -29.1641 -29.0586 -29.0004
    -3.4294  -2.1635  -1.7486  -1.5885  -1.5322  -1.4047  -1.0621  -0.9401
    -0.7734  -0.7351  -0.5760  -0.4789  -0.3939  -0.3400  -0.2740   0.0676
     0.2686   0.3579   0.6860   0.7842   1.0141   1.0447   1.0575   1.1248
     1.1781   1.3596   1.5070   1.5630   1.6101   1.7281   1.7771   1.8919
     1.9284   1.9551   2.0876   2.2228   2.2807   2.2828   2.3414   2.3773
     2.5319   2.5784

          k = 0.0604 0.0153 0.0000 ( 34676 PWs)   bands (ev):

   -55.7677 -55.7593 -55.7317 -55.7234 -55.5416 -55.5057 -53.6016 -53.5597
   -53.5276 -53.4852 -53.3814 -53.3072 -32.1730 -32.1329 -32.0846 -32.0759
   -32.0638 -32.0334 -32.0004 -31.9788 -31.9561 -31.9376 -31.9102 -31.8063
   -31.8021 -31.7698 -31.7239 -31.6812 -31.6517 -31.6361 -30.0274 -29.9589
   -29.8980 -29.8710 -29.7397 -29.6616 -29.5903 -29.5636 -29.5290 -29.5071
   -29.4697 -29.3558 -29.3186 -29.2955 -29.2893 -29.1640 -29.0587 -29.0004
    -3.3886  -2.1257  -1.7683  -1.6022  -1.5039  -1.3358  -1.0615  -0.9171
    -0.7475  -0.7460  -0.5540  -0.4542  -0.3796  -0.2983  -0.2566   0.0708
     0.2748   0.3497   0.6867   0.7500   0.9249   1.0065   1.0956   1.1251
     1.1958   1.3370   1.4479   1.5324   1.5465   1.6471   1.7654   1.8556
     1.9013   1.9188   2.0553   2.0991   2.2563   2.3203   2.4255   2.4633
     2.5550   2.6098

          k = 0.0755 0.0383 0.0000 ( 34651 PWs)   bands (ev):

   -55.7590 -55.7506 -55.7404 -55.7321 -55.5329 -55.5144 -53.5840 -53.5455
   -53.5419 -53.5033 -53.3636 -53.3251 -32.1614 -32.1413 -32.0576 -32.0419
   -32.0168 -32.0101 -31.9850 -31.9657 -31.9628 -31.9453 -31.8734 -31.8687
   -31.8443 -31.7561 -31.7335 -31.7030 -31.6734 -31.6585 -30.0151 -29.9778
   -29.7664 -29.7357 -29.6436 -29.6151 -29.5971 -29.5567 -29.5241 -29.5186
   -29.4861 -29.4631 -29.4338 -29.3436 -29.3112 -29.3065 -29.0449 -29.0146
    -2.8648  -2.0736  -1.6855  -1.3944  -1.2166  -1.1382  -0.8773  -0.7706
    -0.6101  -0.5810  -0.3506  -0.1376  -0.1366   0.0073   0.0169   0.2455
     0.3006   0.3546   0.4954   0.6000   0.7329   0.8220   0.8961   1.0141
     1.0522   1.1112   1.3364   1.3571   1.3967   1.5284   1.5392   1.6219
     1.6338   1.7153   1.7666   1.9671   2.0470   2.1214   2.2451   2.6357
     2.7204   2.7295

          k = 0.0755 0.0536 0.0000 ( 34659 PWs)   bands (ev):

   -55.7589 -55.7505 -55.7404 -55.7321 -55.5329 -55.5144 -53.5842 -53.5455
   -53.5420 -53.5032 -53.3636 -53.3251 -32.1598 -32.1418 -32.0585 -32.0415
   -32.0152 -32.0093 -31.9811 -31.9638 -31.9630 -31.9462 -31.8744 -31.8693
   -31.8432 -31.7536 -31.7347 -31.7037 -31.6728 -31.6587 -30.0188 -29.9766
   -29.7699 -29.7367 -29.6427 -29.6155 -29.5978 -29.5616 -29.5227 -29.5215
   -29.4854 -29.4615 -29.4334 -29.3458 -29.3102 -29.3060 -29.0452 -29.0144
    -2.6580  -2.1885  -1.5209  -1.3840  -1.2620  -1.0149  -0.8932  -0.6660
    -0.6033  -0.5394  -0.2726  -0.1488  -0.0644   0.0462   0.1092   0.2604
     0.3232   0.3914   0.4219   0.5737   0.6528   0.7236   0.7925   0.9041
     0.9494   1.0748   1.1934   1.2279   1.3529   1.4916   1.5156   1.5806
     1.6477   1.6556   1.7587   1.7946   1.9778   2.1316   2.2555   2.6231
     2.7368   2.8044

          k = 0.0755 0.0690 0.0000 ( 34625 PWs)   bands (ev):

   -55.7588 -55.7505 -55.7405 -55.7321 -55.5328 -55.5144 -53.5843 -53.5453
   -53.5421 -53.5032 -53.3636 -53.3250 -32.1584 -32.1422 -32.0593 -32.0411
   -32.0134 -32.0087 -31.9774 -31.9648 -31.9607 -31.9470 -31.8754 -31.8698
   -31.8421 -31.7514 -31.7357 -31.7043 -31.6724 -31.6588 -30.0219 -29.9756
   -29.7728 -29.7376 -29.6419 -29.6160 -29.5984 -29.5655 -29.5239 -29.5216
   -29.4848 -29.4603 -29.4331 -29.3477 -29.3094 -29.3056 -29.0454 -29.0142
    -2.3965  -2.2653  -1.4865  -1.3680  -1.3006  -0.9023  -0.8615  -0.6075
    -0.6075  -0.4836  -0.1923  -0.1767  -0.0432   0.0827   0.2493   0.2538
     0.3055   0.3220   0.4230   0.5106   0.5523   0.7456   0.7479   0.8311
     0.9475   0.9600   1.0549   1.0919   1.3113   1.3711   1.4073   1.5491
     1.6185   1.7283   1.7619   1.8264   1.8556   2.2513   2.2917   2.4145
     2.6627   2.7391

          k = 0.0755 0.0843 0.0000 ( 34639 PWs)   bands (ev):

   -55.7587 -55.7504 -55.7405 -55.7321 -55.5328 -55.5144 -53.5844 -53.5453
   -53.5421 -53.5031 -53.3637 -53.3250 -32.1576 -32.1425 -32.0598 -32.0409
   -32.0121 -32.0084 -31.9753 -31.9656 -31.9595 -31.9475 -31.8760 -31.8702
   -31.8415 -31.7501 -31.7363 -31.7047 -31.6721 -31.6589 -30.0237 -29.9750
   -29.7743 -29.7381 -29.6415 -29.6163 -29.5987 -29.5677 -29.5253 -29.5211
   -29.4844 -29.4597 -29.4329 -29.3487 -29.3089 -29.3054 -29.0455 -29.0141
    -2.3034  -2.0966  -1.7747  -1.3556  -1.0923  -0.9169  -0.8056  -0.6193
    -0.5836  -0.4606  -0.2005  -0.1303  -0.0431   0.1092   0.1798   0.2772
     0.3215   0.3391   0.4258   0.4702   0.5626   0.7385   0.7483   0.7830
     0.8539   0.8898   1.0204   1.0859   1.2265   1.3032   1.3670   1.4882
     1.5813   1.6711   1.8314   1.8682   1.9145   2.2372   2.3536   2.4182
     2.5282   2.6122

          k = 0.0755 0.0996 0.0000 ( 34639 PWs)   bands (ev):

   -55.7587 -55.7504 -55.7405 -55.7321 -55.5328 -55.5144 -53.5844 -53.5453
   -53.5421 -53.5031 -53.3637 -53.3250 -32.1576 -32.1425 -32.0598 -32.0409
   -32.0121 -32.0084 -31.9753 -31.9656 -31.9595 -31.9475 -31.8760 -31.8702
   -31.8415 -31.7501 -31.7363 -31.7047 -31.6721 -31.6589 -30.0237 -29.9750
   -29.7743 -29.7381 -29.6415 -29.6163 -29.5987 -29.5677 -29.5253 -29.5211
   -29.4844 -29.4597 -29.4329 -29.3487 -29.3089 -29.3054 -29.0455 -29.0141
    -2.3034  -2.0966  -1.7747  -1.3556  -1.0923  -0.9169  -0.8056  -0.6193
    -0.5836  -0.4606  -0.2006  -0.1303  -0.0431   0.1092   0.1799   0.2772
     0.3215   0.3391   0.4258   0.4702   0.5626   0.7385   0.7483   0.7830
     0.8539   0.8898   1.0204   1.0859   1.2265   1.3032   1.3670   1.4882
     1.5813   1.6712   1.8314   1.8681   1.9145   2.2372   2.3535   2.4181
     2.5283   2.6122

          k = 0.0755 0.1149 0.0000 ( 34625 PWs)   bands (ev):

   -55.7588 -55.7505 -55.7405 -55.7321 -55.5328 -55.5144 -53.5843 -53.5453
   -53.5421 -53.5032 -53.3636 -53.3250 -32.1584 -32.1422 -32.0593 -32.0411
   -32.0134 -32.0087 -31.9774 -31.9648 -31.9607 -31.9470 -31.8754 -31.8698
   -31.8421 -31.7513 -31.7357 -31.7043 -31.6724 -31.6588 -30.0219 -29.9756
   -29.7728 -29.7376 -29.6419 -29.6160 -29.5984 -29.5655 -29.5239 -29.5216
   -29.4848 -29.4603 -29.4331 -29.3477 -29.3094 -29.3056 -29.0454 -29.0142
    -2.3965  -2.2653  -1.4865  -1.3680  -1.3006  -0.9023  -0.8615  -0.6075
    -0.6075  -0.4835  -0.1923  -0.1767  -0.0432   0.0827   0.2494   0.2539
     0.3055   0.3219   0.4230   0.5106   0.5523   0.7456   0.7478   0.8311
     0.9474   0.9600   1.0549   1.0920   1.3113   1.3711   1.4073   1.5491
     1.6184   1.7282   1.7619   1.8265   1.8554   2.2512   2.2917   2.4146
     2.6628   2.7392

          k = 0.0755-0.0536 0.0000 ( 34659 PWs)   bands (ev):

   -55.7589 -55.7505 -55.7404 -55.7321 -55.5329 -55.5144 -53.5842 -53.5455
   -53.5420 -53.5032 -53.3636 -53.3251 -32.1598 -32.1418 -32.0585 -32.0415
   -32.0152 -32.0093 -31.9811 -31.9638 -31.9630 -31.9462 -31.8744 -31.8693
   -31.8432 -31.7536 -31.7347 -31.7037 -31.6728 -31.6587 -30.0188 -29.9766
   -29.7699 -29.7367 -29.6427 -29.6155 -29.5978 -29.5616 -29.5227 -29.5215
   -29.4854 -29.4615 -29.4334 -29.3458 -29.3102 -29.3060 -29.0452 -29.0144
    -2.6580  -2.1885  -1.5209  -1.3840  -1.2620  -1.0148  -0.8932  -0.6661
    -0.6033  -0.5393  -0.2726  -0.1488  -0.0643   0.0462   0.1093   0.2604
     0.3232   0.3914   0.4219   0.5737   0.6527   0.7236   0.7925   0.9041
     0.9493   1.0748   1.1933   1.2280   1.3528   1.4916   1.5155   1.5804
     1.6477   1.6556   1.7586   1.7945   1.9779   2.1317   2.2555   2.6231
     2.7366   2.8021

          k = 0.0755-0.0383 0.0000 ( 34651 PWs)   bands (ev):

   -55.7590 -55.7506 -55.7404 -55.7321 -55.5329 -55.5144 -53.5840 -53.5455
   -53.5419 -53.5033 -53.3636 -53.3251 -32.1614 -32.1413 -32.0576 -32.0419
   -32.0168 -32.0101 -31.9850 -31.9657 -31.9628 -31.9453 -31.8734 -31.8687
   -31.8443 -31.7561 -31.7335 -31.7030 -31.6734 -31.6585 -30.0151 -29.9778
   -29.7664 -29.7357 -29.6436 -29.6151 -29.5971 -29.5567 -29.5241 -29.5186
   -29.4861 -29.4631 -29.4338 -29.3436 -29.3112 -29.3065 -29.0449 -29.0145
    -2.8649  -2.0736  -1.6855  -1.3944  -1.2166  -1.1382  -0.8773  -0.7706
    -0.6100  -0.5810  -0.3507  -0.1376  -0.1366   0.0073   0.0170   0.2455
     0.3006   0.3546   0.4954   0.5999   0.7329   0.8220   0.8961   1.0141
     1.0522   1.1112   1.3364   1.3571   1.3967   1.5284   1.5391   1.6219
     1.6338   1.7151   1.7666   1.9670   2.0470   2.1215   2.2451   2.6358
     2.7206   2.7296

          k = 0.0755-0.0230 0.0000 ( 34685 PWs)   bands (ev):

   -55.7590 -55.7506 -55.7403 -55.7320 -55.5330 -55.5144 -53.5839 -53.5457
   -53.5418 -53.5034 -53.3636 -53.3252 -32.1628 -32.1409 -32.0568 -32.0422
   -32.0180 -32.0109 -31.9883 -31.9680 -31.9622 -31.9447 -31.8726 -31.8683
   -31.8453 -31.7583 -31.7325 -31.7023 -31.6739 -31.6583 -30.0120 -29.9788
   -29.7631 -29.7349 -29.6445 -29.6147 -29.5965 -29.5521 -29.5253 -29.5161
   -29.4868 -29.4648 -29.4343 -29.3416 -29.3120 -29.3071 -29.0447 -29.0147
    -3.0074  -1.9243  -1.8021  -1.4001  -1.2907  -1.2540  -0.8561  -0.8497
    -0.6667  -0.5333  -0.4127  -0.2220  -0.1498  -0.0837  -0.0319   0.2412
     0.2513   0.3755   0.5803   0.6143   0.8337   0.8485   1.0077   1.0770
     1.1151   1.2019   1.3509   1.3997   1.4905   1.5238   1.5995   1.6442
     1.7149   1.7952   1.9504   2.0074   2.1070   2.2187   2.2423   2.3717
     2.5627   2.6606

          k = 0.0755-0.0077 0.0000 ( 34680 PWs)   bands (ev):

   -55.7591 -55.7507 -55.7403 -55.7320 -55.5330 -55.5143 -53.5838 -53.5457
   -53.5418 -53.5034 -53.3636 -53.3252 -32.1635 -32.1407 -32.0563 -32.0425
   -32.0186 -32.0113 -31.9901 -31.9693 -31.9620 -31.9443 -31.8721 -31.8682
   -31.8458 -31.7595 -31.7319 -31.7020 -31.6743 -31.6582 -30.0102 -29.9794
   -29.7611 -29.7345 -29.6450 -29.6146 -29.5962 -29.5493 -29.5261 -29.5147
   -29.4871 -29.4658 -29.4346 -29.3404 -29.3125 -29.3074 -29.0446 -29.0148
    -3.0799  -1.8620  -1.7613  -1.4876  -1.3749  -1.2844  -0.8948  -0.8443
    -0.6947  -0.4887  -0.4473  -0.2751  -0.1718  -0.1607  -0.0580   0.2385
     0.2456   0.3964   0.5734   0.7023   0.8688   0.8953   1.0213   1.0304
     1.1880   1.2882   1.3552   1.3686   1.5407   1.5412   1.6610   1.7427
     1.7723   1.8541   2.0266   2.1318   2.1386   2.2137   2.2515   2.2745
     2.4306   2.4710

          k = 0.0755 0.0077 0.0000 ( 34680 PWs)   bands (ev):

   -55.7591 -55.7507 -55.7403 -55.7320 -55.5330 -55.5143 -53.5838 -53.5457
   -53.5418 -53.5034 -53.3636 -53.3252 -32.1635 -32.1407 -32.0563 -32.0425
   -32.0186 -32.0113 -31.9901 -31.9693 -31.9620 -31.9443 -31.8721 -31.8682
   -31.8458 -31.7595 -31.7319 -31.7020 -31.6743 -31.6582 -30.0102 -29.9794
   -29.7611 -29.7345 -29.6450 -29.6146 -29.5962 -29.5493 -29.5261 -29.5147
   -29.4871 -29.4658 -29.4346 -29.3404 -29.3125 -29.3074 -29.0446 -29.0148
    -3.0799  -1.8620  -1.7612  -1.4877  -1.3748  -1.2845  -0.8948  -0.8443
    -0.6947  -0.4887  -0.4472  -0.2752  -0.1719  -0.1608  -0.0580   0.2385
     0.2456   0.3963   0.5734   0.7024   0.8687   0.8953   1.0213   1.0304
     1.1880   1.2882   1.3552   1.3687   1.5407   1.5412   1.6610   1.7427
     1.7724   1.8541   2.0266   2.1318   2.1386   2.2137   2.2514   2.2746
     2.4306   2.4709

          k = 0.0755 0.0230 0.0000 ( 34685 PWs)   bands (ev):

   -55.7590 -55.7506 -55.7403 -55.7320 -55.5330 -55.5144 -53.5839 -53.5457
   -53.5418 -53.5034 -53.3636 -53.3252 -32.1628 -32.1409 -32.0568 -32.0422
   -32.0180 -32.0109 -31.9883 -31.9680 -31.9622 -31.9447 -31.8726 -31.8683
   -31.8453 -31.7583 -31.7325 -31.7023 -31.6739 -31.6583 -30.0120 -29.9788
   -29.7631 -29.7349 -29.6445 -29.6147 -29.5965 -29.5521 -29.5253 -29.5161
   -29.4868 -29.4648 -29.4343 -29.3416 -29.3120 -29.3071 -29.0447 -29.0147
    -3.0074  -1.9243  -1.8021  -1.4002  -1.2906  -1.2540  -0.8560  -0.8497
    -0.6667  -0.5333  -0.4127  -0.2221  -0.1499  -0.0838  -0.0319   0.2413
     0.2514   0.3754   0.5804   0.6144   0.8336   0.8485   1.0077   1.0771
     1.1151   1.2019   1.3509   1.3996   1.4905   1.5238   1.5996   1.6443
     1.7149   1.7953   1.9504   2.0074   2.1071   2.2186   2.2424   2.3716
     2.5626   2.6605

          k =-0.0906-0.0460 0.0000 ( 34662 PWs)   bands (ev):

   -55.7497 -55.7497 -55.7413 -55.7413 -55.5237 -55.5236 -53.5649 -53.5649
   -53.5227 -53.5227 -53.3445 -53.3444 -32.1511 -32.1510 -32.0498 -32.0497
   -31.9744 -31.9744 -31.9557 -31.9557 -31.9439 -31.9439 -31.9391 -31.9391
   -31.7743 -31.7742 -31.7440 -31.7439 -31.6659 -31.6659 -29.9971 -29.9971
   -29.6270 -29.6270 -29.6170 -29.6170 -29.5862 -29.5862 -29.5401 -29.5401
   -29.5025 -29.5025 -29.4570 -29.4569 -29.3277 -29.3276 -29.0298 -29.0298
    -2.4486  -2.4486  -1.4318  -1.4318  -1.1083  -1.1083  -0.7577  -0.7577
    -0.5635  -0.5635  -0.2385  -0.2385   0.0748   0.0749   0.2459   0.2459
     0.3006   0.3006   0.5326   0.5326   0.6644   0.6644   0.9945   0.9945
     1.0559   1.0559   1.2524   1.2525   1.3252   1.3252   1.5877   1.5878
     1.7038   1.7038   1.7850   1.7850   1.9447   1.9447   2.5516   2.5516
     2.8408   2.8409

          k =-0.0906-0.0307 0.0000 ( 34652 PWs)   bands (ev):

   -55.7497 -55.7496 -55.7414 -55.7413 -55.5237 -55.5236 -53.5650 -53.5647
   -53.5227 -53.5226 -53.3445 -53.3444 -32.1521 -32.1501 -32.0504 -32.0492
   -31.9765 -31.9718 -31.9572 -31.9541 -31.9453 -31.9428 -31.9398 -31.9387
   -31.7751 -31.7733 -31.7458 -31.7423 -31.6663 -31.6655 -29.9994 -29.9948
   -29.6285 -29.6257 -29.6182 -29.6151 -29.5871 -29.5856 -29.5433 -29.5372
   -29.5043 -29.5008 -29.4577 -29.4561 -29.3292 -29.3261 -29.0300 -29.0296
    -2.5921  -2.2546  -1.5121  -1.3298  -1.2432  -1.0544  -0.8208  -0.6925
    -0.6114  -0.4921  -0.2841  -0.2114   0.0399   0.0882   0.1501   0.2668
     0.3248   0.3746   0.4298   0.5530   0.6244   0.8208   0.9845   0.9871
     1.0145   1.0732   1.2108   1.2254   1.3230   1.4090   1.5516   1.5712
     1.6566   1.6846   1.8276   1.8759   1.9285   2.0168   2.4133   2.6248
     2.7577   2.8102

          k =-0.0906-0.0153 0.0000 ( 34659 PWs)   bands (ev):

   -55.7498 -55.7495 -55.7414 -55.7412 -55.5237 -55.5236 -53.5651 -53.5646
   -53.5228 -53.5225 -53.3445 -53.3443 -32.1528 -32.1493 -32.0508 -32.0487
   -31.9777 -31.9695 -31.9582 -31.9530 -31.9465 -31.9423 -31.9406 -31.9384
   -31.7756 -31.7724 -31.7473 -31.7411 -31.6666 -31.6652 -30.0011 -29.9931
   -29.6296 -29.6248 -29.6186 -29.6130 -29.5878 -29.5854 -29.5458 -29.5353
   -29.5057 -29.4997 -29.4582 -29.4555 -29.3304 -29.3250 -29.0302 -29.0294
    -2.6800  -2.0202  -1.5610  -1.4789  -1.2056  -1.0353  -0.8721  -0.6600
    -0.6320  -0.4085  -0.3179  -0.2320  -0.0252   0.0670   0.1202   0.2373
     0.3347   0.3988   0.4968   0.5016   0.6924   0.8908   0.9101   0.9849
     1.0336   1.0918   1.1651   1.1776   1.3825   1.4453   1.5104   1.5160
     1.5917   1.7680   1.8325   1.9203   2.0137   2.1752   2.2379   2.5961
     2.6820   2.7564

          k =-0.0906-0.0000 0.0000 ( 34662 PWs)   bands (ev):

   -55.7498 -55.7495 -55.7414 -55.7412 -55.5237 -55.5236 -53.5651 -53.5646
   -53.5228 -53.5225 -53.3445 -53.3444 -32.1531 -32.1490 -32.0509 -32.0486
   -31.9782 -31.9684 -31.9586 -31.9528 -31.9468 -31.9422 -31.9410 -31.9384
   -31.7757 -31.7721 -31.7479 -31.7407 -31.6667 -31.6651 -30.0017 -29.9925
   -29.6300 -29.6245 -29.6187 -29.6121 -29.5882 -29.5854 -29.5467 -29.5346
   -29.5062 -29.4993 -29.4584 -29.4553 -29.3308 -29.3246 -29.0302 -29.0294
    -2.7095  -1.8046  -1.6966  -1.5773  -1.1417  -1.0299  -0.9100  -0.6517
    -0.6326  -0.3559  -0.3288  -0.2664  -0.0602   0.0288   0.1473   0.2162
     0.3343   0.4135   0.4739   0.5692   0.7298   0.8369   0.8698   1.0510
     1.0628   1.0720   1.1271   1.1710   1.4344   1.4432   1.4663   1.5131
     1.5520   1.8029   1.8667   1.9783   2.0045   2.1329   2.3884   2.4190
     2.6607   2.7966

          k =-0.0906 0.0153 0.0000 ( 34659 PWs)   bands (ev):

   -55.7498 -55.7495 -55.7414 -55.7412 -55.5237 -55.5236 -53.5651 -53.5646
   -53.5228 -53.5225 -53.3445 -53.3443 -32.1528 -32.1493 -32.0508 -32.0487
   -31.9777 -31.9695 -31.9582 -31.9530 -31.9465 -31.9423 -31.9406 -31.9384
   -31.7756 -31.7724 -31.7473 -31.7411 -31.6666 -31.6652 -30.0011 -29.9931
   -29.6296 -29.6248 -29.6186 -29.6130 -29.5878 -29.5854 -29.5458 -29.5353
   -29.5057 -29.4997 -29.4582 -29.4555 -29.3304 -29.3250 -29.0302 -29.0294
    -2.6800  -2.0202  -1.5610  -1.4789  -1.2056  -1.0352  -0.8722  -0.6600
    -0.6320  -0.4085  -0.3179  -0.2320  -0.0251   0.0670   0.1202   0.2373
     0.3347   0.3988   0.4968   0.5017   0.6924   0.8908   0.9100   0.9850
     1.0336   1.0918   1.1651   1.1776   1.3825   1.4453   1.5103   1.5159
     1.5917   1.7679   1.8326   1.9202   2.0138   2.1752   2.2380   2.5962
     2.6822   2.7565

          k =-0.0906 0.0307 0.0000 ( 34652 PWs)   bands (ev):

   -55.7497 -55.7496 -55.7414 -55.7413 -55.5237 -55.5236 -53.5650 -53.5647
   -53.5227 -53.5226 -53.3445 -53.3444 -32.1521 -32.1501 -32.0504 -32.0492
   -31.9765 -31.9718 -31.9572 -31.9541 -31.9453 -31.9428 -31.9398 -31.9387
   -31.7751 -31.7733 -31.7458 -31.7423 -31.6663 -31.6655 -29.9994 -29.9948
   -29.6285 -29.6257 -29.6182 -29.6151 -29.5871 -29.5856 -29.5433 -29.5372
   -29.5043 -29.5008 -29.4577 -29.4561 -29.3292 -29.3261 -29.0300 -29.0296
    -2.5921  -2.2546  -1.5121  -1.3298  -1.2431  -1.0543  -0.8208  -0.6925
    -0.6113  -0.4921  -0.2841  -0.2113   0.0399   0.0882   0.1502   0.2667
     0.3247   0.3747   0.4298   0.5530   0.6244   0.8207   0.9845   0.9872
     1.0144   1.0732   1.2108   1.2254   1.3229   1.4090   1.5515   1.5711
     1.6564   1.6845   1.8275   1.8760   1.9285   2.0170   2.4134   2.6249
     2.7580   2.8104

          k =-0.0906-0.1379 0.0000 ( 34662 PWs)   bands (ev):

   -55.7497 -55.7497 -55.7413 -55.7413 -55.5237 -55.5236 -53.5649 -53.5649
   -53.5227 -53.5227 -53.3445 -53.3444 -32.1511 -32.1510 -32.0498 -32.0497
   -31.9744 -31.9744 -31.9557 -31.9557 -31.9439 -31.9439 -31.9391 -31.9391
   -31.7743 -31.7742 -31.7440 -31.7439 -31.6659 -31.6659 -29.9971 -29.9971
   -29.6270 -29.6270 -29.6170 -29.6170 -29.5862 -29.5862 -29.5401 -29.5401
   -29.5025 -29.5025 -29.4570 -29.4569 -29.3277 -29.3276 -29.0298 -29.0298
    -2.4486  -2.4486  -1.4318  -1.4318  -1.1083  -1.1083  -0.7578  -0.7577
    -0.5635  -0.5635  -0.2385  -0.2385   0.0749   0.0749   0.2460   0.2460
     0.3005   0.3005   0.5326   0.5326   0.6643   0.6643   0.9945   0.9945
     1.0559   1.0559   1.2524   1.2524   1.3251   1.3252   1.5876   1.5876
     1.7037   1.7038   1.7850   1.7850   1.9448   1.9448   2.5516   2.5516
     2.8410   2.8413

     the Fermi energy is     1.2833 ev

!    total energy              =   -1434.00301737 Ry
     estimated scf accuracy    <       0.00000216 Ry
     smearing contrib. (-TS)   =      -0.10081841 Ry
     internal energy E=F+TS    =   -1433.90219896 Ry

     The total energy is F=E-TS. E is the sum of the following terms:
     one-electron contribution =  -11197.23421834 Ry
     hartree contribution      =    5587.36154071 Ry
     xc contribution           =    -230.53904630 Ry
     ewald contribution        =    4406.50952440 Ry
     electric field correction =       0.00000056 Ry

     convergence has been achieved in  18 iterations

     negative rho (up, down):  1.119E-03 0.000E+00

     Forces acting on atoms (cartesian axes, Ry/au):

     atom    1 type  1   force =    -0.00000753    0.00028856    0.00274270
     atom    2 type  1   force =    -0.00000834    0.00029245    0.00275218
     atom    3 type  2   force =     0.00001084   -0.00127045    0.01629732
     atom    4 type  2   force =     0.00000374   -0.00126756    0.01630093
     atom    5 type  1   force =    -0.00000123    0.00169516   -0.00901127
     atom    6 type  1   force =    -0.00000357    0.00169785   -0.00900912
     atom    7 type  2   force =     0.00000714   -0.00259334   -0.01142918
     atom    8 type  2   force =     0.00000330   -0.00259172   -0.01142600
     atom    9 type  1   force =     0.00000118    0.00047559    0.00055095
     atom   10 type  1   force =     0.00000160    0.00047335    0.00054530
     atom   11 type  2   force =    -0.00000788    0.00140048    0.00084554
     atom   12 type  2   force =     0.00000075    0.00139964    0.00084065

     Total force =     0.031606     Total SCF correction =     0.005261
     SCF correction compared to forces is large: reduce conv_thr to get better values

     Writing output data file ./Ti2Nb2/Ti2Nb2_beef.save/

     init_run     :    128.21s CPU    128.73s WALL (       1 calls)
     electrons    :   3504.81s CPU   3540.69s WALL (       1 calls)
     forces       :     53.85s CPU     54.06s WALL (       1 calls)

     Called by init_run:
     wfcinit      :    113.23s CPU    113.57s WALL (       1 calls)
     potinit      :      8.63s CPU      8.70s WALL (       1 calls)
     hinit0       :      3.97s CPU      3.98s WALL (       1 calls)

     Called by electrons:
     c_bands      :   3066.40s CPU   3091.58s WALL (      18 calls)
     sum_band     :    396.86s CPU    404.42s WALL (      18 calls)
     v_of_rho     :     30.77s CPU     31.96s WALL (      19 calls)
     newd         :     17.95s CPU     19.92s WALL (      19 calls)
     mix_rho      :      0.76s CPU      0.77s WALL (      18 calls)
     vdW_kernel   :      6.11s CPU      6.12s WALL (       1 calls)

     Called by c_bands:
     init_us_2    :     10.33s CPU     10.37s WALL (    2812 calls)
     cegterg      :   3014.37s CPU   3037.51s WALL (    1332 calls)

     Called by *egterg:
     cdiaghg      :    144.75s CPU    145.06s WALL (    6603 calls)
     h_psi        :   1572.50s CPU   1591.53s WALL (    6677 calls)
     s_psi        :    331.88s CPU    332.25s WALL (    6677 calls)
     g_psi        :      1.33s CPU      1.35s WALL (    5271 calls)

     Called by h_psi:
     h_psi:calbec :    548.21s CPU    550.27s WALL (    6677 calls)
     vloc_psi     :    661.74s CPU    678.24s WALL (    6677 calls)
     add_vuspsi   :    358.07s CPU    358.54s WALL (    6677 calls)

     General routines
     calbec       :    816.07s CPU    819.38s WALL (    8305 calls)
     fft          :     21.31s CPU     21.85s WALL (    1256 calls)
     ffts         :      0.13s CPU      0.13s WALL (      37 calls)
     fftw         :    768.95s CPU    789.74s WALL (  690194 calls)
     interpolate  :      0.38s CPU      0.39s WALL (      19 calls)

     Parallel routines
     fft_scatt_xy :     53.28s CPU     53.82s WALL (  691487 calls)
     fft_scatt_yz :    287.62s CPU    303.96s WALL (  691487 calls)

     PWSCF        :      1h 1m CPU      1h 2m WALL


   This run was terminated on:  10:55: 2  25Jun2022            

=------------------------------------------------------------------------------=
   JOB DONE.
=------------------------------------------------------------------------------=
