
     Program PWSCF v.6.6 starts on 25Jun2022 at 11:50:30 

     This program is part of the open-source Quantum ESPRESSO suite
     for quantum simulation of materials; please cite
         "P. Giannozzi et al., J. Phys.:Condens. Matter 21 395502 (2009);
         "P. Giannozzi et al., J. Phys.:Condens. Matter 29 465901 (2017);
          URL http://www.quantum-espresso.org", 
     in publications or presentations arising from this work. More details at
     http://www.quantum-espresso.org/quote

     Parallel version (MPI), running on    37 processors

     MPI processes distributed on     1 nodes
     R & G space division:  proc/nbgrp/npool/nimage =      37
     Fft bands division:     nmany     =       1
     Reading input from Ti2Pt2.in
Warning: card &CELL ignored
Warning: card / ignored

     Current dimensions of program PWSCF are:
     Max number of different atomic species (ntypx) = 10
     Max number of k-points (npk) =  40000
     Max angular momentum in pseudopotentials (lmaxx) =  3
     Presently stress not available with electric field and gates

     Message from routine cell_base_init:
     DEPRECATED: use true lattice parameter, not A to a.u. conversion factor
     file Ti.pbe-spn-rrkjus_psl.1.0.0.UPF: wavefunction(s)  3S 3D renormalized
     file Pt.pbe-n-rrkjus_psl.1.0.0.UPF: wavefunction(s)  6S renormalized

     **************************************************************************
     Initializing libbeef V0.1.2 with the BEEF-vdW functional.
     Citation: Wellendorff et al., PRB 85, 235149 (2012).
     **************************************************************************


     IMPORTANT: XC functional enforced from input :
     Exchange-correlation= BEEF-VDW
                           (   1   4  43  14   2   0   0)
     Any further DFT definition will be discarded
     Please, verify this is what you really want


     Subspace diagonalization in iterative solution of the eigenvalue problem:
     a serial algorithm will be used


     Parallelization info
     --------------------
     sticks:   dense  smooth     PW     G-vecs:    dense   smooth      PW
     Min         115      45     13                26730     6741    1039
     Max         117      46     14                26737     6768    1058
     Sum        4265    1699    499               989183   250205   38679



     bravais-lattice index     =            0
     lattice parameter (alat)  =       1.8897  a.u.
     unit-cell volume          =    4526.7543 (a.u.)^3
     number of atoms/cell      =           12
     number of atomic types    =            2
     number of electrons       =       132.00
     number of Kohn-Sham states=           79
     kinetic-energy cutoff     =      55.1240  Ry
     charge density cutoff     =     551.2396  Ry
     convergence threshold     =      1.0E-05
     mixing beta               =       0.1000
     number of iterations used =           10  plain     mixing
     Exchange-correlation= BEEF-VDW
                           (   1   4  43  14   2   0   0)

     celldm(1)=   1.889726  celldm(2)=   0.000000  celldm(3)=   0.000000
     celldm(4)=   0.000000  celldm(5)=   0.000000  celldm(6)=   0.000000

     crystal axes: (cart. coord. in units of alat)
               a(1) = (   5.587654   0.000000   0.000000 )  
               a(2) = (   2.715147   4.883631   0.000000 )  
               a(3) = (   0.000000   0.000000  24.582048 )  

     reciprocal axes: (cart. coord. in units 2 pi/alat)
               b(1) = (  0.178966 -0.099500  0.000000 )  
               b(2) = (  0.000000  0.204766  0.000000 )  
               b(3) = (  0.000000  0.000000  0.040680 )  


     PseudoPot. # 1 for Ti read from file:
     ../pseudo/Ti.pbe-spn-rrkjus_psl.1.0.0.UPF
     MD5 check sum: e281089c08e14b8efcf92e44a67ada65
     Pseudo is Ultrasoft + core correction, Zval = 12.0
     Generated using "atomic" code by A. Dal Corso v.6.2.2
     Using radial grid of 1177 points,  6 beta functions with: 
                l(1) =   0
                l(2) =   0
                l(3) =   1
                l(4) =   1
                l(5) =   2
                l(6) =   2
     Q(r) pseudized with 0 coefficients 


     PseudoPot. # 2 for Pt read from file:
     ../pseudo/Pt.pbe-n-rrkjus_psl.1.0.0.UPF
     MD5 check sum: 6bc887cfe28d63a5fc1f72d35a7d3ef7
     Pseudo is Ultrasoft + core correction, Zval = 10.0
     Generated using "atomic" code by A. Dal Corso v.6.3
     Using radial grid of 1277 points,  6 beta functions with: 
                l(1) =   0
                l(2) =   0
                l(3) =   1
                l(4) =   1
                l(5) =   2
                l(6) =   2
     Q(r) pseudized with 0 coefficients 


     atomic species   valence    mass     pseudopotential
        Ti            12.00    47.86700     Ti( 1.00)
        Pt            10.00   195.08400     Pt( 1.00)

     No symmetry found



   Cartesian axes

     site n.     atom                  positions (alat units)
         1           Ti  tau(   1) = (   0.0000000   0.0000000  10.0000000  )
         2           Ti  tau(   2) = (   4.1514001   2.4418156  10.0000000  )
         3           Pt  tau(   3) = (   2.7938268   0.0000000  10.0000000  )
         4           Pt  tau(   4) = (   1.3575733   2.4418156  10.0000000  )
         5           Ti  tau(   5) = (   5.5876537   3.2866068  12.2910240  )
         6           Ti  tau(   6) = (   1.4362536   0.8447912  12.2910240  )
         7           Pt  tau(   7) = (   2.7938268   3.2866068  12.2910240  )
         8           Pt  tau(   8) = (   4.2300804   0.8447912  12.2910240  )
         9           Ti  tau(   9) = (   3.2660340   1.9210500  14.5884086  )
        10           Ti  tau(  10) = (   7.4174216   4.3628595  14.5884073  )
        11           Pt  tau(  11) = (   6.0762058   1.9306985  14.5526521  )
        12           Pt  tau(  12) = (   4.6399826   4.3724649  14.5526525  )

     number of k points=    74  Fermi-Dirac smearing, width (Ry)=  0.0100
                       cart. coord. in units 2pi/alat
        k(    1) = (   0.0000000   0.0000000   0.0000000), wk =   0.0138889
        k(    2) = (   0.0000000   0.0170638   0.0000000), wk =   0.0277778
        k(    3) = (   0.0000000   0.0341276   0.0000000), wk =   0.0277778
        k(    4) = (   0.0000000   0.0511914   0.0000000), wk =   0.0277778
        k(    5) = (   0.0000000   0.0682552   0.0000000), wk =   0.0277778
        k(    6) = (   0.0000000   0.0853190   0.0000000), wk =   0.0277778
        k(    7) = (   0.0000000  -0.1023828   0.0000000), wk =   0.0138889
        k(    8) = (   0.0149138  -0.0082916   0.0000000), wk =   0.0277778
        k(    9) = (   0.0149138   0.0087722   0.0000000), wk =   0.0277778
        k(   10) = (   0.0149138   0.0258360   0.0000000), wk =   0.0277778
        k(   11) = (   0.0149138   0.0428998   0.0000000), wk =   0.0277778
        k(   12) = (   0.0149138   0.0599636   0.0000000), wk =   0.0277778
        k(   13) = (   0.0149138   0.0770274   0.0000000), wk =   0.0277778
        k(   14) = (   0.0149138  -0.1106745   0.0000000), wk =   0.0277778
        k(   15) = (   0.0149138  -0.0936107   0.0000000), wk =   0.0277778
        k(   16) = (   0.0149138  -0.0765469   0.0000000), wk =   0.0277778
        k(   17) = (   0.0149138  -0.0594830   0.0000000), wk =   0.0277778
        k(   18) = (   0.0149138  -0.0424192   0.0000000), wk =   0.0277778
        k(   19) = (   0.0149138  -0.0253554   0.0000000), wk =   0.0277778
        k(   20) = (   0.0298277  -0.0165833   0.0000000), wk =   0.0277778
        k(   21) = (   0.0298277   0.0004806   0.0000000), wk =   0.0277778
        k(   22) = (   0.0298277   0.0175444   0.0000000), wk =   0.0277778
        k(   23) = (   0.0298277   0.0346082   0.0000000), wk =   0.0277778
        k(   24) = (   0.0298277   0.0516720   0.0000000), wk =   0.0277778
        k(   25) = (   0.0298277   0.0687358   0.0000000), wk =   0.0277778
        k(   26) = (   0.0298277  -0.1189661   0.0000000), wk =   0.0277778
        k(   27) = (   0.0298277  -0.1019023   0.0000000), wk =   0.0277778
        k(   28) = (   0.0298277  -0.0848385   0.0000000), wk =   0.0277778
        k(   29) = (   0.0298277  -0.0677747   0.0000000), wk =   0.0277778
        k(   30) = (   0.0298277  -0.0507109   0.0000000), wk =   0.0277778
        k(   31) = (   0.0298277  -0.0336471   0.0000000), wk =   0.0277778
        k(   32) = (   0.0447415  -0.0248749   0.0000000), wk =   0.0277778
        k(   33) = (   0.0447415  -0.0078111   0.0000000), wk =   0.0277778
        k(   34) = (   0.0447415   0.0092527   0.0000000), wk =   0.0277778
        k(   35) = (   0.0447415   0.0263165   0.0000000), wk =   0.0277778
        k(   36) = (   0.0447415   0.0433803   0.0000000), wk =   0.0277778
        k(   37) = (   0.0447415   0.0604442   0.0000000), wk =   0.0277778
        k(   38) = (   0.0447415  -0.1272577   0.0000000), wk =   0.0277778
        k(   39) = (   0.0447415  -0.1101939   0.0000000), wk =   0.0277778
        k(   40) = (   0.0447415  -0.0931301   0.0000000), wk =   0.0277778
        k(   41) = (   0.0447415  -0.0760663   0.0000000), wk =   0.0277778
        k(   42) = (   0.0447415  -0.0590025   0.0000000), wk =   0.0277778
        k(   43) = (   0.0447415  -0.0419387   0.0000000), wk =   0.0277778
        k(   44) = (   0.0596553  -0.0331665   0.0000000), wk =   0.0277778
        k(   45) = (   0.0596553  -0.0161027   0.0000000), wk =   0.0277778
        k(   46) = (   0.0596553   0.0009611   0.0000000), wk =   0.0277778
        k(   47) = (   0.0596553   0.0180249   0.0000000), wk =   0.0277778
        k(   48) = (   0.0596553   0.0350887   0.0000000), wk =   0.0277778
        k(   49) = (   0.0596553   0.0521525   0.0000000), wk =   0.0277778
        k(   50) = (   0.0596553  -0.1355493   0.0000000), wk =   0.0277778
        k(   51) = (   0.0596553  -0.1184855   0.0000000), wk =   0.0277778
        k(   52) = (   0.0596553  -0.1014217   0.0000000), wk =   0.0277778
        k(   53) = (   0.0596553  -0.0843579   0.0000000), wk =   0.0277778
        k(   54) = (   0.0596553  -0.0672941   0.0000000), wk =   0.0277778
        k(   55) = (   0.0596553  -0.0502303   0.0000000), wk =   0.0277778
        k(   56) = (   0.0745692  -0.0414581   0.0000000), wk =   0.0277778
        k(   57) = (   0.0745692  -0.0243943   0.0000000), wk =   0.0277778
        k(   58) = (   0.0745692  -0.0073305   0.0000000), wk =   0.0277778
        k(   59) = (   0.0745692   0.0097333   0.0000000), wk =   0.0277778
        k(   60) = (   0.0745692   0.0267971   0.0000000), wk =   0.0277778
        k(   61) = (   0.0745692   0.0438609   0.0000000), wk =   0.0277778
        k(   62) = (   0.0745692  -0.1438410   0.0000000), wk =   0.0277778
        k(   63) = (   0.0745692  -0.1267772   0.0000000), wk =   0.0277778
        k(   64) = (   0.0745692  -0.1097134   0.0000000), wk =   0.0277778
        k(   65) = (   0.0745692  -0.0926496   0.0000000), wk =   0.0277778
        k(   66) = (   0.0745692  -0.0755857   0.0000000), wk =   0.0277778
        k(   67) = (   0.0745692  -0.0585219   0.0000000), wk =   0.0277778
        k(   68) = (  -0.0894830   0.0497498   0.0000000), wk =   0.0138889
        k(   69) = (  -0.0894830   0.0668136   0.0000000), wk =   0.0277778
        k(   70) = (  -0.0894830   0.0838774   0.0000000), wk =   0.0277778
        k(   71) = (  -0.0894830   0.1009412   0.0000000), wk =   0.0277778
        k(   72) = (  -0.0894830   0.1180050   0.0000000), wk =   0.0277778
        k(   73) = (  -0.0894830   0.1350688   0.0000000), wk =   0.0277778
        k(   74) = (  -0.0894830  -0.0526331   0.0000000), wk =   0.0138889

     Dense  grid:   989183 G-vectors     FFT dimensions: (  80,  80, 360)

     Smooth grid:   250205 G-vectors     FFT dimensions: (  50,  50, 225)

     Estimated max dynamical RAM per process >     183.39 MB

     Estimated total dynamical RAM >       6.63 GB

     Initial potential from superposition of free atoms

     starting charge  131.99011, renormalised to  132.00000

     negative rho (up, down):  1.042E-03 0.000E+00


     %%%%%%%%%%%%%%%%%%%%%%%%%%%%%%%%%%%%%%%%%%%%%%%%%%%%%%%%%%%%%%%%%%%%%%%%
     %                                                                      %
     % You are using vdW-DF, which was implemented by the Thonhauser group. %
     % Please cite the following two papers that made this development      %
     % possible and the two reviews that describe the various versions:     %
     %                                                                      %
     %   T. Thonhauser et al., PRL 115, 136402 (2015).                      %
     %   T. Thonhauser et al., PRB 76, 125112 (2007).                       %
     %   K. Berland et al., Rep. Prog. Phys. 78, 066501 (2015).             %
     %   D.C. Langreth et al., J. Phys.: Condens. Matter 21, 084203 (2009). %
     %                                                                      %
     %                                                                      %
     % If you are calculating the stress with vdW-DF, please also cite:     %
     %                                                                      %
     %   R. Sabatini et al., J. Phys.: Condens. Matter 24, 424209 (2012).   %
     %                                                                      %
     %%%%%%%%%%%%%%%%%%%%%%%%%%%%%%%%%%%%%%%%%%%%%%%%%%%%%%%%%%%%%%%%%%%%%%%%



     Adding external electric field

     Computed dipole along edir(3) : 
        Dipole                0.0001 Ry au,          0.0002 Debye
        Dipole field          0.0000 Ry au, 

        Potential amp.       -0.0000 Ry
        Total length         45.2920 bohr

     Starting wfcs are  114 randomized atomic wfcs

     total cpu time spent up to now is       85.3 secs

     Self-consistent Calculation

     iteration #  1     ecut=    55.12 Ry     beta= 0.10
     Davidson diagonalization with overlap
     ethr =  1.00E-02,  avg # of iterations =  2.0

     negative rho (up, down):  9.175E-04 0.000E+00

     Adding external electric field

     Computed dipole along edir(3) : 
        Dipole                0.2352 Ry au,          0.5978 Debye
        Dipole field          0.0007 Ry au, 

        Potential amp.       -0.0591 Ry
        Total length         45.2920 bohr


     total cpu time spent up to now is      225.8 secs

     total energy              =   -1119.54133746 Ry
     estimated scf accuracy    <       3.51817734 Ry

     iteration #  2     ecut=    55.12 Ry     beta= 0.10
     Davidson diagonalization with overlap
     ethr =  2.67E-03,  avg # of iterations =  2.3

     negative rho (up, down):  9.418E-04 0.000E+00

     Adding external electric field

     Computed dipole along edir(3) : 
        Dipole               -0.4553 Ry au,         -1.1573 Debye
        Dipole field         -0.0013 Ry au, 

        Potential amp.        0.1145 Ry
        Total length         45.2920 bohr


     total cpu time spent up to now is      361.2 secs

     total energy              =   -1119.62571257 Ry
     estimated scf accuracy    <       5.41479109 Ry

     iteration #  3     ecut=    55.12 Ry     beta= 0.10
     Davidson diagonalization with overlap
     ethr =  2.67E-03,  avg # of iterations =  2.1

     negative rho (up, down):  9.724E-04 0.000E+00

     Adding external electric field

     Computed dipole along edir(3) : 
        Dipole                0.0641 Ry au,          0.1630 Debye
        Dipole field          0.0002 Ry au, 

        Potential amp.       -0.0161 Ry
        Total length         45.2920 bohr


     total cpu time spent up to now is      495.6 secs

     total energy              =   -1119.70800531 Ry
     estimated scf accuracy    <      12.42511990 Ry

     iteration #  4     ecut=    55.12 Ry     beta= 0.10
     Davidson diagonalization with overlap
     ethr =  2.67E-03,  avg # of iterations =  1.1

     negative rho (up, down):  9.361E-04 0.000E+00

     Adding external electric field

     Computed dipole along edir(3) : 
        Dipole                0.0672 Ry au,          0.1708 Debye
        Dipole field          0.0002 Ry au, 

        Potential amp.       -0.0169 Ry
        Total length         45.2920 bohr


     total cpu time spent up to now is      610.2 secs

     total energy              =   -1119.90154061 Ry
     estimated scf accuracy    <       0.39025571 Ry

     iteration #  5     ecut=    55.12 Ry     beta= 0.10
     Davidson diagonalization with overlap
     ethr =  2.96E-04,  avg # of iterations =  6.0

     negative rho (up, down):  9.324E-04 0.000E+00

     Adding external electric field

     Computed dipole along edir(3) : 
        Dipole                0.0695 Ry au,          0.1767 Debye
        Dipole field          0.0002 Ry au, 

        Potential amp.       -0.0175 Ry
        Total length         45.2920 bohr


     total cpu time spent up to now is      758.8 secs

     total energy              =   -1119.87900122 Ry
     estimated scf accuracy    <       0.23643129 Ry

     iteration #  6     ecut=    55.12 Ry     beta= 0.10
     Davidson diagonalization with overlap
     ethr =  1.79E-04,  avg # of iterations =  2.0

     negative rho (up, down):  1.761E-03 0.000E+00

     Adding external electric field

     Computed dipole along edir(3) : 
        Dipole                0.1013 Ry au,          0.2574 Debye
        Dipole field          0.0003 Ry au, 

        Potential amp.       -0.0255 Ry
        Total length         45.2920 bohr


     total cpu time spent up to now is      890.0 secs

     total energy              =   -1119.86896167 Ry
     estimated scf accuracy    <       0.10614467 Ry

     iteration #  7     ecut=    55.12 Ry     beta= 0.10
     Davidson diagonalization with overlap
     ethr =  8.04E-05,  avg # of iterations =  7.0

     negative rho (up, down):  1.344E-03 0.000E+00

     Adding external electric field

     Computed dipole along edir(3) : 
        Dipole                0.0630 Ry au,          0.1600 Debye
        Dipole field          0.0002 Ry au, 

        Potential amp.       -0.0158 Ry
        Total length         45.2920 bohr


     total cpu time spent up to now is     1085.9 secs

     total energy              =   -1119.88521475 Ry
     estimated scf accuracy    <       0.05708227 Ry

     iteration #  8     ecut=    55.12 Ry     beta= 0.10
     Davidson diagonalization with overlap
     ethr =  4.32E-05,  avg # of iterations =  6.3

     negative rho (up, down):  1.595E-03 0.000E+00

     Adding external electric field

     Computed dipole along edir(3) : 
        Dipole                0.0794 Ry au,          0.2018 Debye
        Dipole field          0.0002 Ry au, 

        Potential amp.       -0.0200 Ry
        Total length         45.2920 bohr


     total cpu time spent up to now is     1249.7 secs

     total energy              =   -1119.88957554 Ry
     estimated scf accuracy    <       0.02752030 Ry

     iteration #  9     ecut=    55.12 Ry     beta= 0.10
     Davidson diagonalization with overlap
     c_bands:  1 eigenvalues not converged
     c_bands:  1 eigenvalues not converged
     c_bands:  4 eigenvalues not converged
     c_bands:  1 eigenvalues not converged
     ethr =  2.08E-05,  avg # of iterations =  5.3

     negative rho (up, down):  2.310E-03 0.000E+00

     Adding external electric field

     Computed dipole along edir(3) : 
        Dipole                0.0596 Ry au,          0.1516 Debye
        Dipole field          0.0002 Ry au, 

        Potential amp.       -0.0150 Ry
        Total length         45.2920 bohr


     total cpu time spent up to now is     1408.4 secs

     total energy              =   -1119.89459046 Ry
     estimated scf accuracy    <       0.01507523 Ry

     iteration # 10     ecut=    55.12 Ry     beta= 0.10
     Davidson diagonalization with overlap
     c_bands:  1 eigenvalues not converged
     c_bands:  1 eigenvalues not converged
     c_bands:  1 eigenvalues not converged
     c_bands:  1 eigenvalues not converged
     c_bands:  1 eigenvalues not converged
     c_bands:  4 eigenvalues not converged
     c_bands:  2 eigenvalues not converged
     c_bands:  1 eigenvalues not converged
     c_bands:  2 eigenvalues not converged
     c_bands:  1 eigenvalues not converged
     c_bands:  1 eigenvalues not converged
     ethr =  1.14E-05,  avg # of iterations =  7.5

     negative rho (up, down):  2.518E-03 0.000E+00

     Adding external electric field

     Computed dipole along edir(3) : 
        Dipole                0.0861 Ry au,          0.2187 Debye
        Dipole field          0.0002 Ry au, 

        Potential amp.       -0.0216 Ry
        Total length         45.2920 bohr


     total cpu time spent up to now is     1571.9 secs

     total energy              =   -1119.89416639 Ry
     estimated scf accuracy    <       0.01342549 Ry

     iteration # 11     ecut=    55.12 Ry     beta= 0.10
     Davidson diagonalization with overlap
     c_bands:  1 eigenvalues not converged
     c_bands:  5 eigenvalues not converged
     c_bands:  1 eigenvalues not converged
     c_bands:  1 eigenvalues not converged
     c_bands:  1 eigenvalues not converged
     c_bands:  1 eigenvalues not converged
     c_bands:  2 eigenvalues not converged
     c_bands:  1 eigenvalues not converged
     ethr =  1.02E-05,  avg # of iterations =  6.1

     negative rho (up, down):  2.406E-03 0.000E+00

     Adding external electric field

     Computed dipole along edir(3) : 
        Dipole                0.0735 Ry au,          0.1869 Debye
        Dipole field          0.0002 Ry au, 

        Potential amp.       -0.0185 Ry
        Total length         45.2920 bohr


     total cpu time spent up to now is     1724.2 secs

     total energy              =   -1119.89474302 Ry
     estimated scf accuracy    <       0.00946728 Ry

     iteration # 12     ecut=    55.12 Ry     beta= 0.10
     Davidson diagonalization with overlap
     c_bands:  2 eigenvalues not converged
     c_bands:  1 eigenvalues not converged
     c_bands:  1 eigenvalues not converged
     c_bands:  2 eigenvalues not converged
     c_bands:  4 eigenvalues not converged
     c_bands:  1 eigenvalues not converged
     ethr =  7.17E-06,  avg # of iterations =  6.5

     negative rho (up, down):  2.360E-03 0.000E+00

     Adding external electric field

     Computed dipole along edir(3) : 
        Dipole                0.0707 Ry au,          0.1796 Debye
        Dipole field          0.0002 Ry au, 

        Potential amp.       -0.0178 Ry
        Total length         45.2920 bohr


     total cpu time spent up to now is     1889.2 secs

     total energy              =   -1119.89506903 Ry
     estimated scf accuracy    <       0.00231783 Ry

     iteration # 13     ecut=    55.12 Ry     beta= 0.10
     Davidson diagonalization with overlap
     c_bands:  1 eigenvalues not converged
     c_bands:  1 eigenvalues not converged
     c_bands:  1 eigenvalues not converged
     c_bands:  1 eigenvalues not converged
     c_bands:  1 eigenvalues not converged
     c_bands:  3 eigenvalues not converged
     c_bands:  1 eigenvalues not converged
     c_bands:  1 eigenvalues not converged
     c_bands:  1 eigenvalues not converged
     c_bands:  1 eigenvalues not converged
     c_bands:  2 eigenvalues not converged
     c_bands:  1 eigenvalues not converged
     c_bands:  1 eigenvalues not converged
     c_bands:  1 eigenvalues not converged
     c_bands:  1 eigenvalues not converged
     c_bands:  1 eigenvalues not converged
     c_bands:  1 eigenvalues not converged
     c_bands:  1 eigenvalues not converged
     c_bands:  1 eigenvalues not converged
     c_bands:  1 eigenvalues not converged
     c_bands:  3 eigenvalues not converged
     c_bands:  1 eigenvalues not converged
     c_bands:  2 eigenvalues not converged
     c_bands:  1 eigenvalues not converged
     c_bands:  1 eigenvalues not converged
     c_bands:  1 eigenvalues not converged
     ethr =  1.76E-06,  avg # of iterations = 14.9

     negative rho (up, down):  2.133E-03 0.000E+00

     Adding external electric field

     Computed dipole along edir(3) : 
        Dipole                0.0701 Ry au,          0.1783 Debye
        Dipole field          0.0002 Ry au, 

        Potential amp.       -0.0176 Ry
        Total length         45.2920 bohr


     total cpu time spent up to now is     2118.0 secs

     total energy              =   -1119.89544291 Ry
     estimated scf accuracy    <       0.00059977 Ry

     iteration # 14     ecut=    55.12 Ry     beta= 0.10
     Davidson diagonalization with overlap
     c_bands:  1 eigenvalues not converged
     c_bands:  1 eigenvalues not converged
     c_bands:  1 eigenvalues not converged
     c_bands:  1 eigenvalues not converged
     c_bands:  2 eigenvalues not converged
     ethr =  4.54E-07,  avg # of iterations =  6.9

     negative rho (up, down):  2.282E-03 0.000E+00

     Adding external electric field

     Computed dipole along edir(3) : 
        Dipole                0.0727 Ry au,          0.1847 Debye
        Dipole field          0.0002 Ry au, 

        Potential amp.       -0.0183 Ry
        Total length         45.2920 bohr


     total cpu time spent up to now is     2283.6 secs

     total energy              =   -1119.89543175 Ry
     estimated scf accuracy    <       0.00027666 Ry

     iteration # 15     ecut=    55.12 Ry     beta= 0.10
     Davidson diagonalization with overlap
     ethr =  2.10E-07,  avg # of iterations =  8.0

     negative rho (up, down):  2.073E-03 0.000E+00

     Adding external electric field

     Computed dipole along edir(3) : 
        Dipole                0.0720 Ry au,          0.1831 Debye
        Dipole field          0.0002 Ry au, 

        Potential amp.       -0.0181 Ry
        Total length         45.2920 bohr


     total cpu time spent up to now is     2518.9 secs

     total energy              =   -1119.89551127 Ry
     estimated scf accuracy    <       0.00037569 Ry

     iteration # 16     ecut=    55.12 Ry     beta= 0.10
     Davidson diagonalization with overlap
     ethr =  2.10E-07,  avg # of iterations =  1.9

     negative rho (up, down):  1.843E-03 0.000E+00

     Adding external electric field

     Computed dipole along edir(3) : 
        Dipole                0.0713 Ry au,          0.1812 Debye
        Dipole field          0.0002 Ry au, 

        Potential amp.       -0.0179 Ry
        Total length         45.2920 bohr


     total cpu time spent up to now is     2654.7 secs

     total energy              =   -1119.89543913 Ry
     estimated scf accuracy    <       0.00015364 Ry

     iteration # 17     ecut=    55.12 Ry     beta= 0.10
     Davidson diagonalization with overlap
     ethr =  1.16E-07,  avg # of iterations =  6.1

     negative rho (up, down):  1.756E-03 0.000E+00

     Adding external electric field

     Computed dipole along edir(3) : 
        Dipole                0.0714 Ry au,          0.1815 Debye
        Dipole field          0.0002 Ry au, 

        Potential amp.       -0.0180 Ry
        Total length         45.2920 bohr


     total cpu time spent up to now is     2865.0 secs

     total energy              =   -1119.89547033 Ry
     estimated scf accuracy    <       0.00013269 Ry

     iteration # 18     ecut=    55.12 Ry     beta= 0.10
     Davidson diagonalization with overlap
     ethr =  1.01E-07,  avg # of iterations =  2.0

     negative rho (up, down):  8.820E-04 0.000E+00

     Adding external electric field

     Computed dipole along edir(3) : 
        Dipole                0.0721 Ry au,          0.1832 Debye
        Dipole field          0.0002 Ry au, 

        Potential amp.       -0.0181 Ry
        Total length         45.2920 bohr


     total cpu time spent up to now is     3016.2 secs

     End of self-consistent calculation

          k = 0.0000 0.0000 0.0000 ( 31357 PWs)   bands (ev):

   -56.3581 -56.3058 -56.2519 -56.2082 -56.1984 -56.1563 -32.7171 -32.6703
   -32.6159 -32.6132 -32.6002 -32.5842 -32.5656 -32.5466 -32.5382 -32.4969
   -32.4928 -32.4590 -32.4091 -32.3423 -32.2980 -32.1814 -32.1729 -32.0682
    -6.5995  -5.0603  -4.7404  -4.4024  -4.1905  -4.1399  -3.9557  -3.9096
    -3.8817  -3.6314  -3.6035  -3.4582  -3.3958  -3.3080  -2.8659  -2.8301
    -2.5253  -2.3576  -2.0539  -1.9587  -1.8886  -1.7230  -1.7130  -1.6678
    -1.5865  -1.5674  -1.3084  -1.0998  -1.0453  -0.6099  -0.3286  -0.2624
     0.0797   0.7474   0.7984   0.8371   0.9456   1.1497   1.2930   1.4338
     1.5248   1.5591   1.5819   1.7606   1.8220   1.9247   2.1753   2.1786
     2.2115   2.3583   2.5860   2.7518   2.7539   2.7548   3.0377

          k = 0.0000 0.0171 0.0000 ( 31317 PWs)   bands (ev):

   -56.3572 -56.3067 -56.2510 -56.2073 -56.1993 -56.1571 -32.7163 -32.6711
   -32.6151 -32.6062 -32.5931 -32.5836 -32.5666 -32.5459 -32.5391 -32.4979
   -32.4859 -32.4582 -32.4101 -32.3416 -32.2989 -32.1890 -32.1804 -32.0757
    -6.5418  -5.0019  -4.6830  -4.3727  -4.1607  -4.1000  -3.9625  -3.8843
    -3.8565  -3.6178  -3.5588  -3.4282  -3.3587  -3.2967  -2.8421  -2.8069
    -2.5245  -2.3326  -2.0617  -1.9681  -1.8769  -1.7349  -1.7119  -1.6872
    -1.6090  -1.6036  -1.3171  -1.1325  -1.0760  -0.6774  -0.3758  -0.2535
     0.0268   0.4887   0.7662   0.8858   0.9592   1.1710   1.1740   1.2847
     1.4330   1.5170   1.5556   1.6808   1.7671   1.9130   2.0939   2.1252
     2.3414   2.4369   2.5377   2.5521   2.7286   2.7379   3.0206

          k = 0.0000 0.0341 0.0000 ( 31344 PWs)   bands (ev):

   -56.3546 -56.3093 -56.2483 -56.2047 -56.2020 -56.1597 -32.7142 -32.6736
   -32.6130 -32.5855 -32.5817 -32.5726 -32.5693 -32.5439 -32.5418 -32.5008
   -32.4653 -32.4562 -32.4130 -32.3396 -32.3013 -32.2114 -32.2024 -32.0976
    -6.3717  -4.8309  -4.5136  -4.2909  -4.0870  -3.9835  -3.9672  -3.8145
    -3.7788  -3.5796  -3.4392  -3.3410  -3.2604  -3.2502  -2.7738  -2.7374
    -2.5268  -2.2620  -2.0859  -2.0057  -1.8458  -1.8259  -1.7692  -1.7065
    -1.6477  -1.6380  -1.3403  -1.2295  -1.1659  -0.8565  -0.4894  -0.2882
    -0.2464   0.0990   0.5177   0.6984   0.9805   1.0031   1.0106   1.2291
     1.2353   1.3974   1.5889   1.6002   1.7146   1.8231   2.0351   2.0457
     2.2023   2.3234   2.4958   2.5700   2.6479   2.7155   2.9939

          k = 0.0000 0.0512 0.0000 ( 31324 PWs)   bands (ev):

   -56.3504 -56.3134 -56.2440 -56.2062 -56.2005 -56.1638 -32.7106 -32.6775
   -32.6094 -32.5785 -32.5739 -32.5526 -32.5459 -32.5405 -32.5391 -32.5053
   -32.4528 -32.4326 -32.4175 -32.3364 -32.3051 -32.2468 -32.2373 -32.1323
    -6.0983  -4.5635  -4.2424  -4.2131  -4.0436  -3.8734  -3.8047  -3.7077
    -3.6479  -3.5308  -3.2902  -3.2093  -3.1726  -3.0799  -2.6720  -2.6232
    -2.5457  -2.1708  -2.1162  -2.1027  -2.0004  -1.8939  -1.8197  -1.7049
    -1.6841  -1.6060  -1.3816  -1.3704  -1.3095  -1.0908  -0.9161  -0.6568
    -0.2902  -0.2352  -0.1456   0.4469   0.5835   1.0717   1.0797   1.1097
     1.2803   1.4132   1.4747   1.6027   1.6067   1.7293   1.8483   1.9966
     2.0332   2.2496   2.4325   2.4669   2.5465   2.7767   2.7829

          k = 0.0000 0.0683 0.0000 ( 31309 PWs)   bands (ev):

   -56.3450 -56.3188 -56.2384 -56.2117 -56.1951 -56.1692 -32.7060 -32.6826
   -32.6046 -32.5794 -32.5742 -32.5515 -32.5359 -32.5115 -32.5080 -32.4959
   -32.4482 -32.4234 -32.3895 -32.3322 -32.3099 -32.2926 -32.2824 -32.1773
    -5.7399  -4.3064  -4.2400  -3.9244  -3.8889  -3.6910  -3.6117  -3.5701
    -3.4880  -3.4476  -3.2043  -3.0323  -2.9998  -2.8662  -2.5988  -2.5603
    -2.4726  -2.2859  -2.1803  -2.1792  -2.0731  -1.9855  -1.8524  -1.7217
    -1.6678  -1.6304  -1.5361  -1.4903  -1.4867  -1.3833  -1.3086  -0.9827
    -0.8633  -0.7522  -0.2121   0.1350   0.4616   0.8561   1.0553   1.2303
     1.2604   1.3193   1.4756   1.5101   1.5852   1.6613   1.8365   1.9742
     1.9791   2.1195   2.3334   2.3462   2.4707   2.5313   2.5831

          k = 0.0000 0.0853 0.0000 ( 31266 PWs)   bands (ev):

   -56.3386 -56.3251 -56.2320 -56.2181 -56.1889 -56.1754 -32.7005 -32.6884
   -32.5988 -32.5858 -32.5690 -32.5573 -32.5303 -32.5174 -32.4573 -32.4450
   -32.4426 -32.4297 -32.3459 -32.3392 -32.3345 -32.3267 -32.3152 -32.2291
    -5.3275  -4.5527  -3.9479  -3.7910  -3.5175  -3.5070  -3.4644  -3.4363
    -3.4058  -3.1940  -3.1487  -2.8758  -2.8284  -2.7389  -2.5781  -2.5524
    -2.4684  -2.3139  -2.2766  -2.2245  -2.1424  -2.0551  -1.9349  -1.8575
    -1.7597  -1.7105  -1.7002  -1.6055  -1.5802  -1.5186  -1.4303  -1.4100
    -1.3531  -1.0874  -0.1848  -0.0379   0.4289   0.6782   0.9198   0.9807
     1.2829   1.3922   1.4122   1.5719   1.6309   1.7313   1.8676   1.9682
     2.0027   2.0357   2.2795   2.2878   2.4011   2.4059   2.5002

          k = 0.0000-0.1024 0.0000 ( 31272 PWs)   bands (ev):

   -56.3319 -56.3319 -56.2251 -56.2249 -56.1822 -56.1821 -32.6945 -32.6945
   -32.5925 -32.5924 -32.5633 -32.5632 -32.5241 -32.5239 -32.4364 -32.4362
   -32.4019 -32.4017 -32.3900 -32.3900 -32.3215 -32.3213 -32.2842 -32.2841
    -4.9106  -4.9105  -3.7842  -3.7842  -3.4529  -3.4528  -3.3632  -3.3632
    -3.0998  -3.0998  -3.0271  -3.0271  -2.7808  -2.7808  -2.5969  -2.5969
    -2.3472  -2.3471  -2.1981  -2.1981  -2.0805  -2.0805  -1.9944  -1.9943
    -1.8737  -1.8736  -1.8275  -1.8274  -1.6229  -1.6228  -1.4340  -1.4340
    -1.2942  -1.2942  -0.1416  -0.1416   0.5315   0.5315   0.8491   0.8492
     1.3281   1.3282   1.5064   1.5065   1.7173   1.7174   1.8949   1.8949
     2.1423   2.1424   2.2890   2.2928   2.3099   2.3104   2.4070

          k = 0.0149-0.0083 0.0000 ( 31317 PWs)   bands (ev):

   -56.3572 -56.3067 -56.2510 -56.2073 -56.1993 -56.1571 -32.7163 -32.6711
   -32.6151 -32.6062 -32.5931 -32.5836 -32.5666 -32.5459 -32.5391 -32.4979
   -32.4859 -32.4582 -32.4101 -32.3416 -32.2989 -32.1890 -32.1804 -32.0757
    -6.5418  -5.0019  -4.6830  -4.3727  -4.1607  -4.1000  -3.9625  -3.8843
    -3.8565  -3.6178  -3.5588  -3.4282  -3.3587  -3.2967  -2.8421  -2.8069
    -2.5245  -2.3326  -2.0617  -1.9681  -1.8769  -1.7349  -1.7119  -1.6872
    -1.6090  -1.6036  -1.3171  -1.1325  -1.0760  -0.6774  -0.3758  -0.2535
     0.0268   0.4887   0.7662   0.8858   0.9592   1.1710   1.1740   1.2847
     1.4330   1.5170   1.5556   1.6808   1.7671   1.9130   2.0939   2.1252
     2.3414   2.4369   2.5381   2.5522   2.7293   2.7380   3.0218

          k = 0.0149 0.0088 0.0000 ( 31379 PWs)   bands (ev):

   -56.3581 -56.3058 -56.2518 -56.2082 -56.1984 -56.1562 -32.7173 -32.6703
   -32.6163 -32.6137 -32.6002 -32.5846 -32.5658 -32.5470 -32.5382 -32.4972
   -32.4931 -32.4592 -32.4094 -32.3425 -32.2982 -32.1814 -32.1730 -32.0683
    -6.5485  -5.0259  -4.7207  -4.3729  -4.1643  -4.1133  -3.9370  -3.8823
    -3.8624  -3.5939  -3.5708  -3.4384  -3.3711  -3.2922  -2.8338  -2.8133
    -2.5338  -2.3434  -2.0763  -1.9802  -1.8509  -1.7438  -1.6794  -1.6450
    -1.5919  -1.5615  -1.3094  -1.0802  -1.0241  -0.6137  -0.3505  -0.2594
     0.0677   0.6234   0.6664   0.8635   0.8813   1.1448   1.2071   1.3344
     1.4497   1.5572   1.5598   1.7122   1.7621   1.8956   1.9749   2.1190
     2.3101   2.3583   2.5406   2.5596   2.5910   2.7799   3.0159

          k = 0.0149 0.0258 0.0000 ( 31365 PWs)   bands (ev):

   -56.3571 -56.3067 -56.2509 -56.2073 -56.1993 -56.1571 -32.7168 -32.6711
   -32.6159 -32.6071 -32.5933 -32.5843 -32.5668 -32.5466 -32.5391 -32.4985
   -32.4863 -32.4587 -32.4107 -32.3419 -32.2991 -32.1890 -32.1806 -32.0758
    -6.4412  -4.9363  -4.6455  -4.3173  -4.1143  -4.0479  -3.9260  -3.8307
    -3.8190  -3.5473  -3.4944  -3.3889  -3.3105  -3.2638  -2.8162  -2.7381
    -2.5416  -2.3057  -2.0960  -2.0094  -1.8263  -1.7651  -1.6762  -1.6386
    -1.6033  -1.5935  -1.3155  -1.0967  -1.0385  -0.6875  -0.3937  -0.2710
    -0.0004   0.3599   0.4802   0.8510   0.8879   1.0343   1.1324   1.1479
     1.2914   1.4270   1.5283   1.6294   1.6689   1.8043   1.8754   2.0618
     2.1283   2.3463   2.4626   2.5689   2.5813   2.7324   3.0066

          k = 0.0149 0.0429 0.0000 ( 31321 PWs)   bands (ev):

   -56.3545 -56.3093 -56.2481 -56.2046 -56.2020 -56.1597 -32.7147 -32.6736
   -32.6139 -32.5867 -32.5827 -32.5727 -32.5695 -32.5446 -32.5417 -32.5015
   -32.4659 -32.4568 -32.4138 -32.3400 -32.3016 -32.2113 -32.2027 -32.0977
    -6.2252  -4.7412  -4.4625  -4.2246  -4.0544  -3.9078  -3.8945  -3.7369
    -3.7316  -3.4873  -3.3505  -3.2855  -3.2088  -3.1862  -2.7571  -2.6227
    -2.5527  -2.2266  -2.1257  -2.0642  -1.8430  -1.8227  -1.7515  -1.6966
    -1.6128  -1.5889  -1.3272  -1.1874  -1.1279  -0.8726  -0.4965  -0.3863
    -0.2922   0.0142   0.3491   0.4062   0.8397   0.8559   0.9598   1.0135
     1.1890   1.3173   1.4831   1.4897   1.5549   1.6616   1.8063   1.8845
     2.0238   2.2958   2.4005   2.5395   2.6164   2.6224   2.8543

          k = 0.0149 0.0600 0.0000 ( 31284 PWs)   bands (ev):

   -56.3503 -56.3134 -56.2439 -56.2062 -56.2005 -56.1638 -32.7112 -32.6774
   -32.6103 -32.5797 -32.5740 -32.5539 -32.5457 -32.5412 -32.5392 -32.5060
   -32.4534 -32.4333 -32.4183 -32.3368 -32.3053 -32.2466 -32.2375 -32.1324
    -5.9123  -4.4620  -4.2088  -4.1851  -3.9950  -3.7625  -3.7062  -3.6126
    -3.6052  -3.4333  -3.2081  -3.1398  -3.0977  -3.0170  -2.6637  -2.5777
    -2.4820  -2.1742  -2.1628  -2.1184  -2.0187  -1.8989  -1.8468  -1.7126
    -1.6002  -1.5811  -1.3480  -1.3351  -1.2893  -1.1073  -1.0250  -0.6728
    -0.4079  -0.2988  -0.2042   0.2679   0.2918   0.8130   0.8192   1.0755
     1.2604   1.2795   1.3833   1.4308   1.4360   1.6137   1.6675   1.8830
     1.9995   2.1455   2.3315   2.4389   2.5249   2.5304   2.5858

          k = 0.0149 0.0770 0.0000 ( 31268 PWs)   bands (ev):

   -56.3449 -56.3188 -56.2383 -56.2117 -56.1951 -56.1691 -32.7066 -32.6824
   -32.6054 -32.5794 -32.5755 -32.5510 -32.5364 -32.5124 -32.5089 -32.4960
   -32.4487 -32.4240 -32.3901 -32.3325 -32.3101 -32.2922 -32.2826 -32.1772
    -5.5246  -4.3830  -4.1499  -3.8507  -3.8367  -3.5775  -3.5172  -3.4637
    -3.4141  -3.4038  -3.1424  -2.9740  -2.9152  -2.8314  -2.6224  -2.5572
    -2.3411  -2.3088  -2.2336  -2.2079  -2.0651  -2.0016  -1.8944  -1.7395
    -1.6637  -1.6055  -1.5170  -1.5099  -1.5093  -1.3316  -1.3201  -1.0892
    -0.8937  -0.8386  -0.3050   0.0404   0.3020   0.6579   0.6984   1.0125
     1.2229   1.3403   1.3505   1.4499   1.5205   1.5918   1.7965   1.8768
     1.9355   2.0041   2.3081   2.3369   2.4247   2.4660   2.4998

          k = 0.0149-0.1107 0.0000 ( 31231 PWs)   bands (ev):

   -56.3385 -56.3251 -56.2319 -56.2182 -56.1889 -56.1754 -32.7010 -32.6880
   -32.5994 -32.5855 -32.5703 -32.5567 -32.5304 -32.5177 -32.4584 -32.4451
   -32.4428 -32.4301 -32.3452 -32.3397 -32.3347 -32.3269 -32.3153 -32.2289
    -5.1004  -4.6851  -3.9018  -3.7351  -3.4934  -3.4427  -3.3834  -3.3769
    -3.3374  -3.1925  -3.0955  -2.8467  -2.8098  -2.7254  -2.5824  -2.5206
    -2.4461  -2.3263  -2.3250  -2.1916  -2.1186  -2.0620  -1.9615  -1.9000
    -1.8174  -1.7373  -1.7158  -1.6211  -1.6187  -1.5020  -1.4625  -1.4315
    -1.3022  -1.1321  -0.2743  -0.0647   0.4282   0.5193   0.6663   0.9158
     1.2747   1.3351   1.4646   1.4807   1.5538   1.7823   1.8055   1.8848
     2.0021   2.0920   2.2765   2.3106   2.3479   2.4092   2.4664

          k = 0.0149-0.0936 0.0000 ( 31294 PWs)   bands (ev):

   -56.3319 -56.3318 -56.2252 -56.2249 -56.1823 -56.1821 -32.6949 -32.6941
   -32.5928 -32.5919 -32.5644 -32.5626 -32.5240 -32.5238 -32.4365 -32.4362
   -32.4027 -32.4009 -32.3901 -32.3900 -32.3215 -32.3213 -32.2845 -32.2838
    -5.0729  -4.6995  -3.7928  -3.7719  -3.4916  -3.4420  -3.3915  -3.3733
    -3.1403  -3.0945  -2.9889  -2.9881  -2.7852  -2.7781  -2.6302  -2.5853
    -2.3280  -2.3220  -2.2197  -2.1904  -2.1179  -2.0677  -2.0087  -1.9968
    -1.9026  -1.8648  -1.8370  -1.8311  -1.6822  -1.5714  -1.4663  -1.4115
    -1.3566  -1.2466  -0.1566  -0.1182   0.4627   0.5189   0.8871   0.9890
     1.2467   1.4150   1.4565   1.5972   1.7015   1.7040   1.8692   1.9433
     2.0828   2.2077   2.2740   2.2925   2.3270   2.3754   2.3869

          k = 0.0149-0.0765 0.0000 ( 31305 PWs)   bands (ev):

   -56.3387 -56.3251 -56.2320 -56.2181 -56.1889 -56.1755 -32.7001 -32.6886
   -32.5981 -32.5859 -32.5683 -32.5581 -32.5299 -32.5170 -32.4563 -32.4450
   -32.4425 -32.4294 -32.3464 -32.3388 -32.3344 -32.3266 -32.3152 -32.2293
    -5.4885  -4.3891  -3.9880  -3.8475  -3.6028  -3.5863  -3.5303  -3.4930
    -3.4351  -3.1766  -3.1659  -2.9068  -2.8605  -2.7611  -2.5742  -2.5588
    -2.4871  -2.3861  -2.2293  -2.1957  -2.1335  -2.0343  -1.9089  -1.8675
    -1.7550  -1.7443  -1.7061  -1.5884  -1.5561  -1.5414  -1.4370  -1.4088
    -1.3422  -1.0575  -0.1620   0.0198   0.5514   0.6933   1.1235   1.2221
     1.2820   1.3962   1.5044   1.5928   1.6670   1.7871   1.9044   1.9560
     2.0649   2.0658   2.2312   2.2611   2.4343   2.5315   2.5687

          k = 0.0149-0.0595 0.0000 ( 31329 PWs)   bands (ev):

   -56.3450 -56.3188 -56.2385 -56.2117 -56.1952 -56.1692 -32.7056 -32.6827
   -32.6039 -32.5793 -32.5735 -32.5519 -32.5353 -32.5107 -32.5073 -32.4958
   -32.4479 -32.4229 -32.3891 -32.3320 -32.3097 -32.2930 -32.2822 -32.1773
    -5.8759  -4.3093  -4.2070  -3.9923  -3.9420  -3.7911  -3.6870  -3.6295
    -3.5442  -3.4516  -3.2320  -3.0804  -3.0607  -2.8967  -2.6392  -2.5863
    -2.5025  -2.2758  -2.1641  -2.1122  -2.0649  -1.9625  -1.8364  -1.7554
    -1.7435  -1.6108  -1.5719  -1.4933  -1.4664  -1.3938  -1.3068  -0.9143
    -0.8461  -0.7009  -0.1943   0.2145   0.7246   0.9778   1.1900   1.2732
     1.3542   1.4306   1.4903   1.6203   1.7184   1.7598   1.8750   1.9620
     2.0445   2.1830   2.3305   2.3871   2.4844   2.6904   2.7011

          k = 0.0149-0.0424 0.0000 ( 31331 PWs)   bands (ev):

   -56.3505 -56.3134 -56.2441 -56.2062 -56.2005 -56.1639 -32.7103 -32.6776
   -32.6088 -32.5779 -32.5737 -32.5518 -32.5462 -32.5400 -32.5390 -32.5048
   -32.4525 -32.4322 -32.4171 -32.3362 -32.3049 -32.2470 -32.2371 -32.1323
    -6.1953  -4.6243  -4.2795  -4.2128  -4.0431  -3.9631  -3.8603  -3.7582
    -3.6611  -3.5825  -3.3297  -3.2388  -3.2226  -3.1130  -2.7515  -2.6320
    -2.5298  -2.1880  -2.0746  -2.0674  -1.9822  -1.8858  -1.8621  -1.7245
    -1.7119  -1.6225  -1.4090  -1.3758  -1.3254  -1.0825  -0.8594  -0.6498
    -0.2237  -0.2138  -0.1192   0.5269   0.8724   1.0917   1.1867   1.2278
     1.2591   1.4018   1.5694   1.7161   1.7301   1.8261   1.9769   2.0224
     2.1498   2.2637   2.4186   2.5456   2.5876   2.7581   2.9790

          k = 0.0149-0.0254 0.0000 ( 31335 PWs)   bands (ev):

   -56.3546 -56.3093 -56.2483 -56.2047 -56.2020 -56.1597 -32.7140 -32.6737
   -32.6126 -32.5850 -32.5813 -32.5725 -32.5692 -32.5435 -32.5419 -32.5005
   -32.4651 -32.4560 -32.4127 -32.3395 -32.3012 -32.2114 -32.2023 -32.0976
    -6.4219  -4.8646  -4.5332  -4.3141  -4.0962  -4.0110  -3.9959  -3.8418
    -3.7916  -3.6116  -3.4701  -3.3590  -3.2779  -3.2713  -2.8209  -2.7381
    -2.5177  -2.2751  -2.0573  -1.9803  -1.8868  -1.8233  -1.7760  -1.7139
    -1.6568  -1.6465  -1.3402  -1.2465  -1.1800  -0.8506  -0.4875  -0.2581
    -0.2314   0.1316   0.5581   0.8887   0.9490   1.0530   1.0676   1.2080
     1.3213   1.4532   1.6028   1.6231   1.7648   1.9056   2.0482   2.1464
     2.3171   2.3632   2.4838   2.6444   2.6537   2.7162   3.0055

          k = 0.0298-0.0166 0.0000 ( 31344 PWs)   bands (ev):

   -56.3546 -56.3093 -56.2483 -56.2047 -56.2020 -56.1597 -32.7142 -32.6736
   -32.6130 -32.5855 -32.5817 -32.5726 -32.5693 -32.5439 -32.5418 -32.5008
   -32.4653 -32.4562 -32.4130 -32.3396 -32.3013 -32.2114 -32.2024 -32.0976
    -6.3717  -4.8309  -4.5136  -4.2909  -4.0870  -3.9835  -3.9672  -3.8145
    -3.7788  -3.5796  -3.4392  -3.3410  -3.2604  -3.2502  -2.7738  -2.7374
    -2.5268  -2.2620  -2.0860  -2.0057  -1.8458  -1.8259  -1.7692  -1.7065
    -1.6477  -1.6380  -1.3403  -1.2295  -1.1659  -0.8565  -0.4894  -0.2882
    -0.2464   0.0990   0.5177   0.6984   0.9805   1.0031   1.0106   1.2291
     1.2353   1.3974   1.5889   1.6002   1.7146   1.8231   2.0351   2.0457
     2.2023   2.3234   2.4959   2.5701   2.6480   2.7156   2.9951

          k = 0.0298 0.0005 0.0000 ( 31365 PWs)   bands (ev):

   -56.3571 -56.3067 -56.2509 -56.2073 -56.1993 -56.1571 -32.7168 -32.6711
   -32.6159 -32.6071 -32.5933 -32.5843 -32.5668 -32.5466 -32.5391 -32.4985
   -32.4863 -32.4587 -32.4107 -32.3419 -32.2991 -32.1890 -32.1806 -32.0758
    -6.4412  -4.9363  -4.6455  -4.3173  -4.1143  -4.0479  -3.9260  -3.8307
    -3.8190  -3.5473  -3.4944  -3.3889  -3.3105  -3.2638  -2.8162  -2.7381
    -2.5416  -2.3057  -2.0960  -2.0094  -1.8263  -1.7651  -1.6762  -1.6386
    -1.6033  -1.5935  -1.3155  -1.0967  -1.0385  -0.6875  -0.3937  -0.2710
    -0.0004   0.3599   0.4802   0.8510   0.8879   1.0343   1.1324   1.1479
     1.2914   1.4270   1.5283   1.6294   1.6689   1.8043   1.8754   2.0618
     2.1283   2.3463   2.4626   2.5689   2.5813   2.7324   3.0063

          k = 0.0298 0.0175 0.0000 ( 31351 PWs)   bands (ev):

   -56.3580 -56.3058 -56.2517 -56.2081 -56.1984 -56.1562 -32.7179 -32.6703
   -32.6173 -32.6150 -32.6004 -32.5858 -32.5661 -32.5478 -32.5383 -32.4981
   -32.4937 -32.4599 -32.4103 -32.3429 -32.2986 -32.1814 -32.1733 -32.0684
    -6.4001  -4.9354  -4.6681  -4.2911  -4.0895  -4.0403  -3.8855  -3.8122
    -3.7892  -3.4853  -3.4801  -3.3783  -3.2946  -3.2401  -2.8427  -2.6667
    -2.5580  -2.3046  -2.1053  -2.0333  -1.8234  -1.7835  -1.6217  -1.5856
    -1.5748  -1.5394  -1.2993  -1.0285  -0.9631  -0.6237  -0.4138  -0.2504
     0.0332   0.2604   0.4395   0.7317   0.8312   0.9651   1.0663   1.1858
     1.2415   1.4383   1.4488   1.5795   1.5839   1.7374   1.7892   2.0049
     2.0459   2.2076   2.3871   2.4618   2.6359   2.7521   2.9778

          k = 0.0298 0.0346 0.0000 ( 31314 PWs)   bands (ev):

   -56.3570 -56.3067 -56.2507 -56.2072 -56.1993 -56.1570 -32.7174 -32.6711
   -32.6170 -32.6086 -32.5935 -32.5859 -32.5671 -32.5475 -32.5392 -32.4994
   -32.4871 -32.4596 -32.4118 -32.3424 -32.2996 -32.1890 -32.1810 -32.0760
    -6.2497  -4.8310  -4.5819  -4.2183  -4.0289  -3.9601  -3.8618  -3.7471
    -3.7134  -3.4146  -3.3820  -3.3072  -3.2105  -3.1934  -2.8251  -2.5738
    -2.5576  -2.2591  -2.1222  -2.0729  -1.8449  -1.8169  -1.6196  -1.5981
    -1.5547  -1.5452  -1.2849  -1.0397  -0.9706  -0.7045  -0.4535  -0.2928
    -0.0643   0.0951   0.1335   0.6404   0.7727   0.8320   0.8877   1.0383
     1.1644   1.2253   1.3371   1.4404   1.5318   1.6279   1.6583   1.7114
     2.0157   2.2173   2.3432   2.4245   2.6148   2.6868   2.9570

          k = 0.0298 0.0517 0.0000 ( 31267 PWs)   bands (ev):

   -56.3543 -56.3093 -56.2480 -56.2046 -56.2019 -56.1596 -32.7154 -32.6735
   -32.6149 -32.5883 -32.5845 -32.5729 -32.5697 -32.5454 -32.5418 -32.5024
   -32.4667 -32.4576 -32.4149 -32.3405 -32.3020 -32.2112 -32.2030 -32.0978
    -5.9968  -4.6339  -4.3946  -4.1273  -4.0002  -3.8172  -3.7968  -3.6417
    -3.5995  -3.3439  -3.2368  -3.1776  -3.1322  -3.0782  -2.7638  -2.5944
    -2.4293  -2.1812  -2.1527  -2.1323  -1.8853  -1.8805  -1.7336  -1.6717
    -1.5552  -1.5412  -1.2659  -1.1462  -1.0793  -0.8980  -0.5612  -0.5314
    -0.3981  -0.0915   0.0510   0.2505   0.5308   0.5594   0.7535   0.9003
     1.0984   1.1754   1.2011   1.3190   1.3956   1.5106   1.5680   1.7300
     1.9902   2.0966   2.3035   2.3997   2.4867   2.6026   2.6997

          k = 0.0298 0.0687 0.0000 ( 31253 PWs)   bands (ev):

   -56.3502 -56.3134 -56.2437 -56.2062 -56.2005 -56.1637 -32.7119 -32.6773
   -32.6112 -32.5816 -32.5740 -32.5553 -32.5458 -32.5417 -32.5395 -32.5066
   -32.4541 -32.4340 -32.4192 -32.3372 -32.3057 -32.2463 -32.2379 -32.1324
    -5.6556  -4.3673  -4.1940  -4.1273  -3.9159  -3.6447  -3.6406  -3.4926
    -3.4562  -3.2997  -3.1143  -3.0581  -2.9890  -2.9348  -2.6645  -2.6271
    -2.3096  -2.2187  -2.2099  -2.0897  -2.0453  -1.8965  -1.8889  -1.7469
    -1.5840  -1.5370  -1.3513  -1.2778  -1.2567  -1.1638  -1.1413  -0.7010
    -0.5530  -0.4690  -0.2995   0.1115   0.1346   0.4110   0.5478   0.9425
     1.0323   1.1802   1.2995   1.3007   1.4285   1.4486   1.6227   1.7591
     1.9021   1.9916   2.2875   2.3637   2.4173   2.4739   2.6049

          k = 0.0298-0.1190 0.0000 ( 31210 PWs)   bands (ev):

   -56.3447 -56.3189 -56.2382 -56.2117 -56.1951 -56.1691 -32.7072 -32.6822
   -32.6060 -32.5792 -32.5773 -32.5510 -32.5366 -32.5129 -32.5100 -32.4962
   -32.4492 -32.4246 -32.3907 -32.3328 -32.3103 -32.2917 -32.2828 -32.1771
    -5.2522  -4.4333  -4.0860  -3.8229  -3.7688  -3.4800  -3.4653  -3.3204
    -3.2997  -3.2720  -3.0958  -2.9133  -2.8203  -2.8203  -2.6593  -2.5398
    -2.3239  -2.2764  -2.2636  -2.2128  -2.0695  -1.9920  -1.9287  -1.8132
    -1.7001  -1.6093  -1.5814  -1.5314  -1.5078  -1.3532  -1.2717  -1.1970
    -0.9383  -0.9288  -0.4564  -0.0324   0.2103   0.4242   0.4642   0.8492
     1.1904   1.2360   1.2586   1.4053   1.4701   1.6787   1.7388   1.7754
     1.8214   2.0496   2.2855   2.3411   2.3943   2.4107   2.5693

          k = 0.0298-0.1019 0.0000 ( 31241 PWs)   bands (ev):

   -56.3385 -56.3252 -56.2318 -56.2182 -56.1889 -56.1754 -32.7014 -32.6878
   -32.5997 -32.5851 -32.5718 -32.5565 -32.5304 -32.5177 -32.4593 -32.4452
   -32.4431 -32.4304 -32.3446 -32.3402 -32.3348 -32.3270 -32.3154 -32.2287
    -4.8333  -4.7759  -3.8886  -3.6741  -3.5945  -3.3775  -3.3208  -3.2915
    -3.2612  -3.1208  -3.0635  -2.8305  -2.8094  -2.7207  -2.5843  -2.4533
    -2.4138  -2.3711  -2.3460  -2.1684  -2.0931  -2.0579  -1.9964  -1.9870
    -1.9170  -1.7948  -1.7623  -1.6664  -1.6458  -1.5026  -1.4679  -1.4624
    -1.2470  -1.1813  -0.3227  -0.0910   0.2325   0.3909   0.7521   0.9059
     1.2267   1.2995   1.4165   1.4491   1.6265   1.6989   1.8474   1.8547
     2.0465   2.1481   2.2520   2.3383   2.3709   2.4600   2.4708

          k = 0.0298-0.0848 0.0000 ( 31284 PWs)   bands (ev):

   -56.3320 -56.3318 -56.2252 -56.2249 -56.1823 -56.1821 -32.6951 -32.6938
   -32.5928 -32.5914 -32.5654 -32.5623 -32.5238 -32.5235 -32.4366 -32.4362
   -32.4033 -32.4002 -32.3902 -32.3900 -32.3215 -32.3213 -32.2848 -32.2836
    -5.1740  -4.4713  -3.8406  -3.7515  -3.5737  -3.4430  -3.4171  -3.3964
    -3.1238  -3.1186  -2.9493  -2.9318  -2.7911  -2.7664  -2.6748  -2.5634
    -2.3630  -2.2711  -2.2342  -2.1722  -2.1701  -2.0616  -2.0440  -1.9767
    -1.9201  -1.8767  -1.8521  -1.8413  -1.7440  -1.5563  -1.4894  -1.4172
    -1.3934  -1.2209  -0.1369  -0.1104   0.3675   0.4914   1.0411   1.1113
     1.2763   1.4208   1.4306   1.6594   1.6644   1.7462   1.8909   1.9634
     2.0584   2.1388   2.2715   2.3312   2.3694   2.4051   2.5248

          k = 0.0298-0.0678 0.0000 ( 31296 PWs)   bands (ev):

   -56.3388 -56.3251 -56.2321 -56.2181 -56.1889 -56.1755 -32.6998 -32.6888
   -32.5976 -32.5858 -32.5680 -32.5587 -32.5296 -32.5167 -32.4558 -32.4451
   -32.4424 -32.4293 -32.3467 -32.3386 -32.3344 -32.3265 -32.3151 -32.2294
    -5.5715  -4.2298  -4.0094  -3.9337  -3.6617  -3.6330  -3.5699  -3.5282
    -3.4507  -3.1726  -3.1487  -2.9200  -2.8922  -2.7785  -2.5762  -2.5707
    -2.4990  -2.4367  -2.2354  -2.1234  -2.1049  -2.0139  -1.8913  -1.8827
    -1.8141  -1.7496  -1.7181  -1.6221  -1.5575  -1.5276  -1.4476  -1.4056
    -1.3216  -1.0446  -0.1692   0.0738   0.6689   0.6732   1.1842   1.3145
     1.4236   1.4615   1.5505   1.5551   1.6944   1.8463   1.9348   1.9460
     2.0818   2.0901   2.1711   2.2435   2.4629   2.5849   2.6045

          k = 0.0298-0.0507 0.0000 ( 31333 PWs)   bands (ev):

   -56.3451 -56.3188 -56.2385 -56.2117 -56.1952 -56.1693 -32.7054 -32.6828
   -32.6035 -32.5793 -32.5733 -32.5522 -32.5351 -32.5103 -32.5071 -32.4958
   -32.4478 -32.4227 -32.3890 -32.3319 -32.3097 -32.2931 -32.2822 -32.1773
    -5.9223  -4.3347  -4.1225  -4.0582  -3.9633  -3.8329  -3.7132  -3.6483
    -3.5647  -3.4527  -3.2316  -3.1036  -3.0831  -2.9083  -2.6852  -2.5825
    -2.4998  -2.2733  -2.1604  -2.0790  -2.0470  -1.9496  -1.8533  -1.7839
    -1.7630  -1.6069  -1.5889  -1.4971  -1.4604  -1.3912  -1.3061  -0.8912
    -0.8408  -0.6843  -0.1908   0.2440   0.8519   1.0191   1.2078   1.3000
     1.3393   1.4154   1.6128   1.6602   1.7843   1.8022   1.8832   1.9498
     2.0670   2.1852   2.3286   2.4063   2.4767   2.7377   2.7970

          k = 0.0298-0.0336 0.0000 ( 31331 PWs)   bands (ev):

   -56.3505 -56.3134 -56.2441 -56.2062 -56.2005 -56.1639 -32.7103 -32.6776
   -32.6088 -32.5779 -32.5737 -32.5518 -32.5462 -32.5400 -32.5390 -32.5048
   -32.4525 -32.4322 -32.4171 -32.3362 -32.3049 -32.2470 -32.2371 -32.1323
    -6.1953  -4.6243  -4.2795  -4.2128  -4.0431  -3.9631  -3.8603  -3.7582
    -3.6611  -3.5825  -3.3297  -3.2388  -3.2226  -3.1130  -2.7515  -2.6320
    -2.5298  -2.1880  -2.0746  -2.0674  -1.9822  -1.8858  -1.8621  -1.7245
    -1.7119  -1.6225  -1.4090  -1.3758  -1.3254  -1.0825  -0.8594  -0.6498
    -0.2237  -0.2138  -0.1192   0.5269   0.8724   1.0917   1.1867   1.2278
     1.2591   1.4018   1.5694   1.7161   1.7301   1.8261   1.9769   2.0224
     2.1498   2.2636   2.4185   2.5455   2.5878   2.7583   2.9815

          k = 0.0447-0.0249 0.0000 ( 31324 PWs)   bands (ev):

   -56.3504 -56.3134 -56.2440 -56.2062 -56.2005 -56.1638 -32.7106 -32.6775
   -32.6094 -32.5785 -32.5739 -32.5526 -32.5459 -32.5405 -32.5391 -32.5053
   -32.4528 -32.4326 -32.4175 -32.3364 -32.3051 -32.2468 -32.2373 -32.1323
    -6.0983  -4.5635  -4.2424  -4.2131  -4.0436  -3.8734  -3.8047  -3.7077
    -3.6479  -3.5308  -3.2902  -3.2093  -3.1726  -3.0799  -2.6720  -2.6232
    -2.5457  -2.1708  -2.1162  -2.1027  -2.0004  -1.8939  -1.8197  -1.7049
    -1.6841  -1.6060  -1.3816  -1.3704  -1.3095  -1.0908  -0.9161  -0.6568
    -0.2902  -0.2352  -0.1456   0.4469   0.5835   1.0716   1.0797   1.1097
     1.2803   1.4132   1.4747   1.6027   1.6067   1.7293   1.8483   1.9967
     2.0331   2.2495   2.4325   2.4668   2.5465   2.7769   2.7820

          k = 0.0447-0.0078 0.0000 ( 31321 PWs)   bands (ev):

   -56.3545 -56.3093 -56.2481 -56.2046 -56.2020 -56.1597 -32.7147 -32.6736
   -32.6139 -32.5867 -32.5827 -32.5727 -32.5695 -32.5446 -32.5417 -32.5015
   -32.4659 -32.4568 -32.4138 -32.3400 -32.3016 -32.2113 -32.2027 -32.0977
    -6.2252  -4.7412  -4.4625  -4.2246  -4.0544  -3.9078  -3.8945  -3.7369
    -3.7316  -3.4873  -3.3505  -3.2855  -3.2088  -3.1862  -2.7570  -2.6227
    -2.5527  -2.2266  -2.1257  -2.0642  -1.8430  -1.8227  -1.7515  -1.6966
    -1.6128  -1.5889  -1.3272  -1.1874  -1.1279  -0.8726  -0.4965  -0.3863
    -0.2922   0.0142   0.3491   0.4062   0.8397   0.8559   0.9598   1.0135
     1.1890   1.3173   1.4831   1.4897   1.5549   1.6616   1.8063   1.8845
     2.0237   2.2958   2.4005   2.5395   2.6165   2.6223   2.8545

          k = 0.0447 0.0093 0.0000 ( 31314 PWs)   bands (ev):

   -56.3570 -56.3067 -56.2507 -56.2072 -56.1993 -56.1570 -32.7174 -32.6711
   -32.6170 -32.6086 -32.5935 -32.5859 -32.5671 -32.5475 -32.5392 -32.4994
   -32.4871 -32.4596 -32.4118 -32.3424 -32.2996 -32.1890 -32.1810 -32.0760
    -6.2497  -4.8310  -4.5819  -4.2183  -4.0289  -3.9601  -3.8618  -3.7471
    -3.7134  -3.4146  -3.3820  -3.3072  -3.2105  -3.1934  -2.8251  -2.5738
    -2.5576  -2.2591  -2.1222  -2.0729  -1.8449  -1.8169  -1.6196  -1.5981
    -1.5547  -1.5452  -1.2849  -1.0397  -0.9706  -0.7045  -0.4535  -0.2928
    -0.0643   0.0951   0.1335   0.6404   0.7727   0.8320   0.8877   1.0383
     1.1644   1.2253   1.3371   1.4404   1.5318   1.6279   1.6583   1.7114
     2.0156   2.2172   2.3431   2.4245   2.6144   2.6867   2.9558

          k = 0.0447 0.0263 0.0000 ( 31322 PWs)   bands (ev):

   -56.3578 -56.3058 -56.2515 -56.2081 -56.1984 -56.1561 -32.7187 -32.6703
   -32.6184 -32.6167 -32.6008 -32.5878 -32.5663 -32.5487 -32.5386 -32.4991
   -32.4946 -32.4609 -32.4116 -32.3434 -32.2990 -32.1813 -32.1737 -32.0686
    -6.1701  -4.8307  -4.5935  -4.1779  -3.9750  -3.9461  -3.8146  -3.7039
    -3.6535  -3.3630  -3.3182  -3.2734  -3.1598  -3.1473  -2.8487  -2.5964
    -2.4570  -2.2515  -2.1234  -2.0997  -1.8831  -1.8463  -1.5714  -1.5396
    -1.5170  -1.4667  -1.2388  -0.9615  -0.8741  -0.6333  -0.5564  -0.2365
    -0.1150  -0.0207   0.1144   0.4363   0.6368   0.7523   0.9291   0.9589
     1.0475   1.1505   1.1952   1.3776   1.4195   1.5516   1.5843   1.6002
     1.9813   2.0669   2.2658   2.3174   2.5807   2.7355   2.9065

          k = 0.0447 0.0434 0.0000 ( 31289 PWs)   bands (ev):

   -56.3568 -56.3067 -56.2505 -56.2072 -56.1993 -56.1569 -32.7182 -32.6711
   -32.6180 -32.6103 -32.5939 -32.5882 -32.5673 -32.5482 -32.5397 -32.5003
   -32.4880 -32.4606 -32.4131 -32.3429 -32.3000 -32.1889 -32.1814 -32.0761
    -5.9895  -4.7431  -4.4997  -4.1020  -3.9172  -3.8704  -3.7833  -3.6184
    -3.5571  -3.2787  -3.2284  -3.1770  -3.0879  -3.0549  -2.8236  -2.6203
    -2.3453  -2.2045  -2.1428  -2.1367  -1.9228  -1.8843  -1.5897  -1.5618
    -1.4992  -1.4828  -1.1913  -0.9842  -0.8982  -0.7347  -0.6437  -0.3117
    -0.2536  -0.1391  -0.0500   0.2458   0.4584   0.6318   0.7496   0.9197
     0.9328   1.0005   1.0624   1.1557   1.3367   1.4127   1.4776   1.5715
     1.9471   1.9818   2.2172   2.2954   2.4569   2.6813   2.8263

          k = 0.0447 0.0604 0.0000 ( 31274 PWs)   bands (ev):

   -56.3542 -56.3093 -56.2478 -56.2046 -56.2019 -56.1595 -32.7161 -32.6734
   -32.6157 -32.5898 -32.5868 -32.5732 -32.5698 -32.5460 -32.5423 -32.5031
   -32.4675 -32.4586 -32.4160 -32.3410 -32.3024 -32.2111 -32.2034 -32.0980
    -5.7161  -4.5765  -4.3141  -4.0243  -3.9380  -3.7511  -3.6875  -3.4923
    -3.4316  -3.1804  -3.1379  -3.0563  -3.0140  -2.9391  -2.7485  -2.6483
    -2.2713  -2.1842  -2.1813  -2.1247  -1.9360  -1.9359  -1.7176  -1.6380
    -1.5842  -1.4954  -1.1603  -1.1413  -1.0577  -0.9418  -0.7804  -0.7041
    -0.4644  -0.1954  -0.0608   0.0845   0.1368   0.2847   0.4818   0.8033
     0.8356   0.9499   1.0930   1.2330   1.2591   1.3370   1.4934   1.6107
     1.8321   1.9425   2.2405   2.3209   2.3444   2.5491   2.7205

          k = 0.0447-0.1273 0.0000 ( 31236 PWs)   bands (ev):

   -56.3500 -56.3134 -56.2436 -56.2062 -56.2005 -56.1636 -32.7125 -32.6772
   -32.6117 -32.5837 -32.5739 -32.5564 -32.5462 -32.5420 -32.5398 -32.5070
   -32.4548 -32.4346 -32.4201 -32.3376 -32.3060 -32.2461 -32.2381 -32.1324
    -5.3663  -4.3530  -4.1741  -4.0686  -3.8361  -3.6121  -3.5278  -3.3230
    -3.2814  -3.1608  -3.0754  -2.9683  -2.8724  -2.8555  -2.6872  -2.6292
    -2.3135  -2.2318  -2.1735  -2.0726  -2.0716  -1.8950  -1.8529  -1.7863
    -1.6455  -1.5198  -1.4167  -1.3148  -1.3018  -1.1910  -1.1532  -0.7318
    -0.6841  -0.6443  -0.4125  -0.0598  -0.0226   0.2907   0.3060   0.7130
     0.9674   1.0146   1.1718   1.3094   1.3211   1.4623   1.6109   1.6292
     1.7731   1.9967   2.2454   2.3201   2.3707   2.4393   2.6824

          k = 0.0447-0.1102 0.0000 ( 31247 PWs)   bands (ev):

   -56.3447 -56.3189 -56.2381 -56.2117 -56.1951 -56.1690 -32.7076 -32.6820
   -32.6063 -32.5790 -32.5789 -32.5512 -32.5367 -32.5129 -32.5111 -32.4963
   -32.4496 -32.4252 -32.3912 -32.3330 -32.3105 -32.2914 -32.2830 -32.1770
    -4.9722  -4.4604  -4.1245  -3.8235  -3.7006  -3.4576  -3.3561  -3.2051
    -3.1625  -3.1123  -3.1039  -2.8594  -2.8436  -2.7357  -2.7130  -2.4805
    -2.4060  -2.2970  -2.2686  -2.1462  -2.0717  -1.9681  -1.9310  -1.8740
    -1.8090  -1.6431  -1.6331  -1.5878  -1.5268  -1.3865  -1.2921  -1.2060
    -1.0027  -0.9631  -0.5380  -0.0881  -0.0523   0.2710   0.5871   0.7571
     1.0613   1.1730   1.2099   1.3489   1.5463   1.6151   1.6886   1.7906
     1.8598   2.0957   2.2612   2.3529   2.3876   2.4354   2.6969

          k = 0.0447-0.0931 0.0000 ( 31282 PWs)   bands (ev):

   -56.3384 -56.3252 -56.2317 -56.2182 -56.1889 -56.1753 -32.7017 -32.6877
   -32.5998 -32.5848 -32.5728 -32.5566 -32.5303 -32.5176 -32.4599 -32.4453
   -32.4432 -32.4307 -32.3442 -32.3404 -32.3350 -32.3272 -32.3155 -32.2286
    -4.8217  -4.5980  -3.9681  -3.6612  -3.6304  -3.3291  -3.2849  -3.2486
    -3.2025  -3.0611  -3.0474  -2.8426  -2.7905  -2.7205  -2.5726  -2.4859
    -2.3694  -2.3355  -2.3017  -2.1854  -2.1663  -2.0881  -2.0397  -2.0047
    -1.9246  -1.8602  -1.8008  -1.7034  -1.6883  -1.4916  -1.4891  -1.4594
    -1.2195  -1.2165  -0.2891  -0.1239   0.0324   0.3541   0.8894   0.9293
     1.1983   1.2293   1.3995   1.4345   1.6445   1.7236   1.8411   1.8708
     2.0693   2.1695   2.2395   2.3458   2.4554   2.4770   2.5982

          k = 0.0447-0.0761 0.0000 ( 31277 PWs)   bands (ev):

   -56.3320 -56.3317 -56.2252 -56.2248 -56.1823 -56.1821 -32.6952 -32.6937
   -32.5928 -32.5912 -32.5659 -32.5623 -32.5236 -32.5234 -32.4367 -32.4363
   -32.4034 -32.4000 -32.3902 -32.3900 -32.3215 -32.3213 -32.2849 -32.2835
    -5.2081  -4.3388  -3.9123  -3.7401  -3.6066  -3.4522  -3.4201  -3.4023
    -3.1278  -3.1095  -2.9350  -2.9108  -2.7940  -2.7536  -2.6953  -2.5176
    -2.4490  -2.2532  -2.2179  -2.2008  -2.1332  -2.0889  -2.0486  -1.9549
    -1.9167  -1.8863  -1.8579  -1.8500  -1.7815  -1.5639  -1.4967  -1.4432
    -1.3807  -1.2148  -0.1493  -0.0661   0.2869   0.5113   1.0585   1.2534
     1.2878   1.3770   1.4424   1.6387   1.6409   1.8256   1.9097   1.9805
     2.0522   2.0651   2.2737   2.3263   2.3781   2.4314   2.5889

          k = 0.0447-0.0590 0.0000 ( 31296 PWs)   bands (ev):

   -56.3388 -56.3251 -56.2321 -56.2181 -56.1889 -56.1755 -32.6998 -32.6888
   -32.5976 -32.5858 -32.5680 -32.5587 -32.5296 -32.5167 -32.4558 -32.4451
   -32.4424 -32.4293 -32.3467 -32.3386 -32.3344 -32.3265 -32.3151 -32.2294
    -5.5715  -4.2298  -4.0094  -3.9337  -3.6617  -3.6330  -3.5699  -3.5282
    -3.4507  -3.1726  -3.1487  -2.9200  -2.8922  -2.7785  -2.5762  -2.5707
    -2.4990  -2.4367  -2.2354  -2.1234  -2.1049  -2.0139  -1.8913  -1.8827
    -1.8141  -1.7496  -1.7181  -1.6221  -1.5575  -1.5276  -1.4476  -1.4056
    -1.3216  -1.0446  -0.1692   0.0738   0.6689   0.6733   1.1842   1.3145
     1.4236   1.4615   1.5505   1.5551   1.6944   1.8463   1.9348   1.9460
     2.0818   2.0901   2.1711   2.2435   2.4629   2.5850   2.6045

          k = 0.0447-0.0419 0.0000 ( 31329 PWs)   bands (ev):

   -56.3450 -56.3188 -56.2385 -56.2117 -56.1952 -56.1692 -32.7056 -32.6827
   -32.6039 -32.5793 -32.5735 -32.5519 -32.5353 -32.5107 -32.5073 -32.4958
   -32.4479 -32.4229 -32.3891 -32.3320 -32.3097 -32.2930 -32.2822 -32.1773
    -5.8759  -4.3093  -4.2070  -3.9923  -3.9420  -3.7911  -3.6870  -3.6295
    -3.5442  -3.4516  -3.2320  -3.0804  -3.0607  -2.8967  -2.6392  -2.5863
    -2.5025  -2.2758  -2.1641  -2.1122  -2.0649  -1.9625  -1.8364  -1.7554
    -1.7435  -1.6108  -1.5719  -1.4933  -1.4664  -1.3938  -1.3068  -0.9143
    -0.8461  -0.7009  -0.1943   0.2145   0.7246   0.9778   1.1900   1.2732
     1.3542   1.4306   1.4903   1.6203   1.7184   1.7598   1.8750   1.9620
     2.0446   2.1831   2.3304   2.3871   2.4843   2.6903   2.7012

          k = 0.0597-0.0332 0.0000 ( 31309 PWs)   bands (ev):

   -56.3450 -56.3188 -56.2384 -56.2117 -56.1951 -56.1692 -32.7060 -32.6826
   -32.6046 -32.5794 -32.5742 -32.5515 -32.5359 -32.5115 -32.5080 -32.4959
   -32.4482 -32.4234 -32.3895 -32.3322 -32.3099 -32.2926 -32.2824 -32.1773
    -5.7399  -4.3064  -4.2400  -3.9244  -3.8889  -3.6910  -3.6117  -3.5701
    -3.4880  -3.4476  -3.2043  -3.0323  -2.9998  -2.8662  -2.5988  -2.5603
    -2.4726  -2.2860  -2.1803  -2.1792  -2.0731  -1.9855  -1.8524  -1.7217
    -1.6678  -1.6304  -1.5361  -1.4903  -1.4867  -1.3833  -1.3086  -0.9827
    -0.8633  -0.7522  -0.2121   0.1350   0.4616   0.8561   1.0553   1.2303
     1.2604   1.3193   1.4756   1.5101   1.5852   1.6613   1.8365   1.9742
     1.9791   2.1196   2.3334   2.3463   2.4727   2.5321   2.5852

          k = 0.0597-0.0161 0.0000 ( 31284 PWs)   bands (ev):

   -56.3503 -56.3134 -56.2439 -56.2062 -56.2005 -56.1638 -32.7112 -32.6774
   -32.6103 -32.5797 -32.5740 -32.5539 -32.5457 -32.5412 -32.5392 -32.5060
   -32.4534 -32.4333 -32.4183 -32.3368 -32.3053 -32.2466 -32.2375 -32.1324
    -5.9123  -4.4620  -4.2088  -4.1851  -3.9950  -3.7625  -3.7062  -3.6126
    -3.6052  -3.4333  -3.2081  -3.1398  -3.0977  -3.0170  -2.6637  -2.5777
    -2.4820  -2.1742  -2.1628  -2.1184  -2.0187  -1.8989  -1.8468  -1.7126
    -1.6002  -1.5811  -1.3480  -1.3351  -1.2893  -1.1073  -1.0250  -0.6728
    -0.4079  -0.2988  -0.2042   0.2679   0.2918   0.8130   0.8192   1.0755
     1.2604   1.2795   1.3833   1.4308   1.4360   1.6137   1.6675   1.8830
     1.9995   2.1455   2.3315   2.4389   2.5249   2.5304   2.5855

          k = 0.0597 0.0010 0.0000 ( 31267 PWs)   bands (ev):

   -56.3543 -56.3093 -56.2480 -56.2046 -56.2019 -56.1596 -32.7154 -32.6735
   -32.6149 -32.5883 -32.5845 -32.5729 -32.5697 -32.5454 -32.5418 -32.5024
   -32.4667 -32.4576 -32.4149 -32.3405 -32.3020 -32.2112 -32.2030 -32.0978
    -5.9968  -4.6339  -4.3946  -4.1273  -4.0002  -3.8172  -3.7968  -3.6416
    -3.5995  -3.3439  -3.2368  -3.1776  -3.1322  -3.0782  -2.7638  -2.5944
    -2.4293  -2.1812  -2.1527  -2.1323  -1.8853  -1.8805  -1.7336  -1.6717
    -1.5552  -1.5412  -1.2659  -1.1462  -1.0793  -0.8980  -0.5612  -0.5314
    -0.3981  -0.0915   0.0510   0.2505   0.5308   0.5594   0.7535   0.9003
     1.0984   1.1754   1.2011   1.3190   1.3956   1.5106   1.5680   1.7300
     1.9902   2.0966   2.3036   2.3996   2.4866   2.6025   2.6995

          k = 0.0597 0.0180 0.0000 ( 31289 PWs)   bands (ev):

   -56.3568 -56.3067 -56.2505 -56.2072 -56.1993 -56.1569 -32.7182 -32.6711
   -32.6180 -32.6103 -32.5939 -32.5882 -32.5673 -32.5482 -32.5397 -32.5003
   -32.4880 -32.4606 -32.4131 -32.3429 -32.3000 -32.1889 -32.1814 -32.0761
    -5.9895  -4.7431  -4.4997  -4.1020  -3.9172  -3.8704  -3.7833  -3.6184
    -3.5571  -3.2787  -3.2284  -3.1770  -3.0879  -3.0549  -2.8236  -2.6203
    -2.3453  -2.2045  -2.1428  -2.1367  -1.9228  -1.8842  -1.5897  -1.5618
    -1.4992  -1.4828  -1.1913  -0.9842  -0.8982  -0.7347  -0.6437  -0.3117
    -0.2536  -0.1391  -0.0500   0.2458   0.4584   0.6318   0.7496   0.9197
     0.9328   1.0005   1.0624   1.1557   1.3367   1.4127   1.4776   1.5715
     1.9471   1.9818   2.2172   2.2954   2.4569   2.6814   2.8243

          k = 0.0597 0.0351 0.0000 ( 31284 PWs)   bands (ev):

   -56.3577 -56.3057 -56.2514 -56.2080 -56.1983 -56.1560 -32.7195 -32.6702
   -32.6193 -32.6184 -32.6011 -32.5903 -32.5664 -32.5494 -32.5392 -32.4999
   -32.4955 -32.4620 -32.4129 -32.3440 -32.2995 -32.1813 -32.1741 -32.0688
    -5.8907  -4.7773  -4.5014  -4.0684  -3.8598  -3.8337  -3.7429  -3.5609
    -3.4844  -3.2754  -3.1303  -3.1166  -3.0220  -2.9744  -2.8335  -2.6437
    -2.2722  -2.1968  -2.1500  -2.1357  -1.9476  -1.9099  -1.5774  -1.5138
    -1.4743  -1.3642  -1.1214  -0.9006  -0.8761  -0.7852  -0.6287  -0.2705
    -0.2349  -0.2208  -0.0934  -0.0118   0.3328   0.6598   0.6820   0.7842
     0.8083   0.8601   1.0416   1.0491   1.2004   1.3693   1.3726   1.4699
     1.8294   1.8971   2.1255   2.2601   2.3562   2.7506   2.8052

          k = 0.0597 0.0522 0.0000 ( 31263 PWs)   bands (ev):

   -56.3567 -56.3066 -56.2504 -56.2072 -56.1992 -56.1568 -32.7190 -32.6710
   -32.6186 -32.6118 -32.5942 -32.5905 -32.5673 -32.5487 -32.5403 -32.5009
   -32.4887 -32.4616 -32.4142 -32.3434 -32.3004 -32.1888 -32.1818 -32.0763
    -5.7051  -4.7303  -4.4090  -4.0053  -3.8059  -3.7993  -3.6986  -3.4715
    -3.3888  -3.2187  -3.0538  -3.0156  -2.9601  -2.8941  -2.7899  -2.6521
    -2.2829  -2.1612  -2.1556  -2.1196  -1.9321  -1.9207  -1.6235  -1.5675
    -1.4619  -1.4157  -1.0768  -1.0512  -0.9338  -0.7945  -0.7247  -0.5324
    -0.3113  -0.2926  -0.1434  -0.0613   0.2044   0.4210   0.6267   0.6699
     0.7102   0.7535   0.8824   1.0638   1.1203   1.2868   1.3433   1.4628
     1.7204   1.8743   2.1537   2.2483   2.2649   2.6469   2.8005

          k = 0.0597-0.1355 0.0000 ( 31261 PWs)   bands (ev):

   -56.3541 -56.3093 -56.2477 -56.2046 -56.2019 -56.1594 -32.7167 -32.6734
   -32.6161 -32.5909 -32.5888 -32.5734 -32.5697 -32.5462 -32.5429 -32.5034
   -32.4681 -32.4593 -32.4168 -32.3413 -32.3027 -32.2109 -32.2037 -32.0981
    -5.4439  -4.6065  -4.2388  -3.9501  -3.8854  -3.7087  -3.5847  -3.3497
    -3.2721  -3.1364  -3.0271  -2.9341  -2.8780  -2.8698  -2.6986  -2.6514
    -2.3540  -2.1678  -2.1358  -2.0837  -1.9402  -1.8912  -1.7155  -1.6824
    -1.6028  -1.4734  -1.2385  -1.0850  -1.0805  -1.0071  -0.9581  -0.8319
    -0.4963  -0.2914  -0.2719  -0.0532   0.1157   0.1296   0.2456   0.5641
     0.7414   0.7991   1.0587   1.0766   1.2305   1.2558   1.4547   1.4664
     1.7035   1.9077   2.1939   2.2583   2.2858   2.5124   2.7753

          k = 0.0597-0.1185 0.0000 ( 31264 PWs)   bands (ev):

   -56.3500 -56.3134 -56.2435 -56.2062 -56.2005 -56.1636 -32.7129 -32.6771
   -32.6119 -32.5850 -32.5738 -32.5570 -32.5465 -32.5421 -32.5400 -32.5072
   -32.4553 -32.4349 -32.4207 -32.3378 -32.3062 -32.2459 -32.2383 -32.1325
    -5.1322  -4.4215  -4.1600  -4.0229  -3.7864  -3.5951  -3.4369  -3.2006
    -3.1295  -3.1109  -3.0640  -2.9043  -2.8825  -2.7145  -2.7121  -2.5747
    -2.4699  -2.1905  -2.1474  -2.0713  -2.0328  -1.8562  -1.8531  -1.7853
    -1.7052  -1.5602  -1.4800  -1.3851  -1.3739  -1.2212  -1.1062  -0.8052
    -0.7561  -0.6958  -0.4863  -0.2538  -0.1005   0.1730   0.4040   0.6023
     0.8155   0.9803   1.0885   1.2812   1.3199   1.4669   1.4936   1.6697
     1.7390   2.0165   2.2183   2.3040   2.3491   2.4376   2.7479

          k = 0.0597-0.1014 0.0000 ( 31228 PWs)   bands (ev):

   -56.3446 -56.3189 -56.2381 -56.2117 -56.1951 -56.1690 -32.7077 -32.6820
   -32.6063 -32.5796 -32.5788 -32.5513 -32.5367 -32.5126 -32.5117 -32.4964
   -32.4498 -32.4254 -32.3913 -32.3331 -32.3105 -32.2912 -32.2831 -32.1770
    -4.8239  -4.4688  -4.1967  -3.8159  -3.6737  -3.4462  -3.2882  -3.1751
    -3.1442  -3.0791  -2.9949  -2.9232  -2.8090  -2.7519  -2.6478  -2.5448
    -2.4306  -2.2986  -2.2100  -2.1351  -2.0624  -1.9951  -1.9572  -1.9185
    -1.7433  -1.7159  -1.6754  -1.6128  -1.5458  -1.3995  -1.2997  -1.2031
    -1.0187  -0.9843  -0.5498  -0.1634  -0.1148   0.2273   0.6888   0.7253
     0.9651   1.1525   1.2022   1.3391   1.5676   1.5845   1.6714   1.7839
     1.9383   2.0940   2.2521   2.3695   2.3803   2.4748   2.6740

          k = 0.0597-0.0844 0.0000 ( 31282 PWs)   bands (ev):

   -56.3384 -56.3252 -56.2317 -56.2182 -56.1889 -56.1753 -32.7017 -32.6877
   -32.5998 -32.5848 -32.5728 -32.5566 -32.5303 -32.5176 -32.4599 -32.4453
   -32.4432 -32.4307 -32.3442 -32.3404 -32.3350 -32.3272 -32.3155 -32.2286
    -4.8217  -4.5980  -3.9681  -3.6612  -3.6304  -3.3291  -3.2849  -3.2486
    -3.2025  -3.0611  -3.0474  -2.8426  -2.7905  -2.7205  -2.5726  -2.4859
    -2.3694  -2.3355  -2.3017  -2.1854  -2.1663  -2.0881  -2.0397  -2.0047
    -1.9246  -1.8602  -1.8008  -1.7034  -1.6883  -1.4916  -1.4891  -1.4594
    -1.2195  -1.2165  -0.2891  -0.1239   0.0324   0.3541   0.8894   0.9293
     1.1983   1.2293   1.3995   1.4345   1.6445   1.7236   1.8411   1.8708
     2.0693   2.1695   2.2396   2.3457   2.4541   2.4769   2.5978

          k = 0.0597-0.0673 0.0000 ( 31284 PWs)   bands (ev):

   -56.3320 -56.3318 -56.2252 -56.2249 -56.1823 -56.1821 -32.6951 -32.6938
   -32.5928 -32.5914 -32.5654 -32.5623 -32.5238 -32.5235 -32.4366 -32.4362
   -32.4033 -32.4002 -32.3902 -32.3900 -32.3215 -32.3213 -32.2848 -32.2836
    -5.1740  -4.4713  -3.8406  -3.7515  -3.5737  -3.4430  -3.4171  -3.3964
    -3.1238  -3.1186  -2.9493  -2.9318  -2.7911  -2.7664  -2.6748  -2.5634
    -2.3630  -2.2711  -2.2342  -2.1722  -2.1701  -2.0616  -2.0440  -1.9767
    -1.9201  -1.8767  -1.8521  -1.8413  -1.7440  -1.5563  -1.4894  -1.4172
    -1.3934  -1.2209  -0.1369  -0.1104   0.3675   0.4914   1.0411   1.1113
     1.2763   1.4208   1.4306   1.6594   1.6644   1.7462   1.8909   1.9634
     2.0584   2.1388   2.2715   2.3312   2.3693   2.4051   2.5203

          k = 0.0597-0.0502 0.0000 ( 31305 PWs)   bands (ev):

   -56.3387 -56.3251 -56.2320 -56.2181 -56.1889 -56.1755 -32.7001 -32.6886
   -32.5981 -32.5859 -32.5683 -32.5581 -32.5299 -32.5170 -32.4563 -32.4450
   -32.4425 -32.4294 -32.3464 -32.3388 -32.3344 -32.3266 -32.3152 -32.2293
    -5.4885  -4.3891  -3.9880  -3.8475  -3.6028  -3.5863  -3.5303  -3.4930
    -3.4351  -3.1766  -3.1659  -2.9068  -2.8605  -2.7611  -2.5742  -2.5588
    -2.4871  -2.3861  -2.2293  -2.1957  -2.1335  -2.0343  -1.9089  -1.8675
    -1.7550  -1.7443  -1.7062  -1.5884  -1.5561  -1.5414  -1.4370  -1.4089
    -1.3422  -1.0575  -0.1620   0.0198   0.5514   0.6933   1.1235   1.2221
     1.2820   1.3962   1.5044   1.5928   1.6670   1.7871   1.9044   1.9560
     2.0649   2.0658   2.2312   2.2611   2.4342   2.5316   2.5680

          k = 0.0746-0.0415 0.0000 ( 31266 PWs)   bands (ev):

   -56.3386 -56.3251 -56.2320 -56.2181 -56.1889 -56.1754 -32.7005 -32.6884
   -32.5988 -32.5858 -32.5690 -32.5573 -32.5303 -32.5174 -32.4573 -32.4450
   -32.4426 -32.4297 -32.3459 -32.3392 -32.3345 -32.3267 -32.3152 -32.2291
    -5.3275  -4.5526  -3.9479  -3.7910  -3.5175  -3.5070  -3.4644  -3.4363
    -3.4058  -3.1940  -3.1487  -2.8758  -2.8284  -2.7389  -2.5781  -2.5524
    -2.4684  -2.3139  -2.2766  -2.2245  -2.1424  -2.0551  -1.9349  -1.8575
    -1.7597  -1.7105  -1.7002  -1.6055  -1.5802  -1.5186  -1.4303  -1.4100
    -1.3531  -1.0874  -0.1848  -0.0379   0.4289   0.6782   0.9198   0.9807
     1.2829   1.3922   1.4122   1.5719   1.6309   1.7313   1.8676   1.9682
     2.0027   2.0357   2.2795   2.2878   2.4022   2.4059   2.5000

          k = 0.0746-0.0244 0.0000 ( 31268 PWs)   bands (ev):

   -56.3449 -56.3188 -56.2383 -56.2117 -56.1951 -56.1691 -32.7066 -32.6824
   -32.6054 -32.5794 -32.5755 -32.5510 -32.5364 -32.5124 -32.5089 -32.4960
   -32.4487 -32.4240 -32.3901 -32.3325 -32.3101 -32.2922 -32.2826 -32.1772
    -5.5246  -4.3830  -4.1499  -3.8507  -3.8367  -3.5775  -3.5172  -3.4637
    -3.4141  -3.4038  -3.1424  -2.9740  -2.9152  -2.8314  -2.6224  -2.5572
    -2.3411  -2.3088  -2.2336  -2.2079  -2.0651  -2.0016  -1.8944  -1.7395
    -1.6637  -1.6055  -1.5170  -1.5099  -1.5093  -1.3316  -1.3201  -1.0892
    -0.8937  -0.8386  -0.3050   0.0404   0.3020   0.6579   0.6984   1.0125
     1.2229   1.3403   1.3505   1.4499   1.5205   1.5917   1.7965   1.8768
     1.9355   2.0041   2.3083   2.3369   2.4249   2.4667   2.5006

          k = 0.0746-0.0073 0.0000 ( 31253 PWs)   bands (ev):

   -56.3502 -56.3134 -56.2437 -56.2062 -56.2005 -56.1637 -32.7119 -32.6773
   -32.6112 -32.5816 -32.5740 -32.5553 -32.5458 -32.5417 -32.5395 -32.5066
   -32.4541 -32.4340 -32.4192 -32.3372 -32.3057 -32.2463 -32.2379 -32.1324
    -5.6556  -4.3673  -4.1940  -4.1273  -3.9159  -3.6447  -3.6406  -3.4926
    -3.4562  -3.2997  -3.1143  -3.0581  -2.9890  -2.9348  -2.6645  -2.6271
    -2.3096  -2.2187  -2.2099  -2.0897  -2.0453  -1.8965  -1.8889  -1.7469
    -1.5840  -1.5370  -1.3513  -1.2778  -1.2567  -1.1638  -1.1413  -0.7010
    -0.5530  -0.4690  -0.2995   0.1115   0.1346   0.4110   0.5478   0.9425
     1.0323   1.1802   1.2995   1.3007   1.4285   1.4486   1.6227   1.7591
     1.9021   1.9916   2.2876   2.3637   2.4175   2.4741   2.6051

          k = 0.0746 0.0097 0.0000 ( 31274 PWs)   bands (ev):

   -56.3542 -56.3093 -56.2478 -56.2046 -56.2019 -56.1595 -32.7161 -32.6734
   -32.6157 -32.5898 -32.5868 -32.5732 -32.5698 -32.5460 -32.5423 -32.5031
   -32.4675 -32.4586 -32.4160 -32.3410 -32.3024 -32.2111 -32.2034 -32.0980
    -5.7161  -4.5765  -4.3141  -4.0243  -3.9380  -3.7511  -3.6875  -3.4923
    -3.4316  -3.1804  -3.1379  -3.0563  -3.0140  -2.9391  -2.7485  -2.6483
    -2.2713  -2.1842  -2.1813  -2.1247  -1.9360  -1.9359  -1.7176  -1.6380
    -1.5842  -1.4954  -1.1603  -1.1413  -1.0577  -0.9418  -0.7804  -0.7041
    -0.4644  -0.1954  -0.0608   0.0845   0.1368   0.2847   0.4818   0.8033
     0.8356   0.9499   1.0930   1.2330   1.2591   1.3370   1.4934   1.6107
     1.8321   1.9425   2.2405   2.3206   2.3443   2.5489   2.7200

          k = 0.0746 0.0268 0.0000 ( 31263 PWs)   bands (ev):

   -56.3567 -56.3066 -56.2504 -56.2072 -56.1992 -56.1568 -32.7190 -32.6710
   -32.6186 -32.6118 -32.5942 -32.5905 -32.5673 -32.5487 -32.5403 -32.5009
   -32.4887 -32.4616 -32.4142 -32.3434 -32.3004 -32.1888 -32.1818 -32.0763
    -5.7051  -4.7303  -4.4090  -4.0053  -3.8059  -3.7993  -3.6986  -3.4715
    -3.3888  -3.2187  -3.0538  -3.0156  -2.9601  -2.8941  -2.7899  -2.6521
    -2.2829  -2.1612  -2.1556  -2.1196  -1.9321  -1.9207  -1.6235  -1.5675
    -1.4619  -1.4157  -1.0768  -1.0512  -0.9338  -0.7945  -0.7247  -0.5324
    -0.3113  -0.2926  -0.1434  -0.0613   0.2044   0.4210   0.6267   0.6699
     0.7102   0.7535   0.8824   1.0638   1.1203   1.2868   1.3433   1.4628
     1.7204   1.8743   2.1537   2.2483   2.2649   2.6466   2.7749

          k = 0.0746 0.0439 0.0000 ( 31258 PWs)   bands (ev):

   -56.3575 -56.3057 -56.2512 -56.2080 -56.1983 -56.1559 -32.7201 -32.6702
   -32.6197 -32.6196 -32.6014 -32.5924 -32.5664 -32.5497 -32.5399 -32.5003
   -32.4961 -32.4629 -32.4138 -32.3443 -32.2999 -32.1812 -32.1744 -32.0689
    -5.6254  -4.8005  -4.4195  -3.9936  -3.7949  -3.6973  -3.6902  -3.4267
    -3.3392  -3.2489  -3.0059  -2.9330  -2.8830  -2.8717  -2.7859  -2.6164
    -2.3368  -2.1530  -2.1359  -2.0889  -1.8885  -1.8816  -1.6899  -1.4956
    -1.4346  -1.2809  -1.2247  -1.0234  -0.8658  -0.7282  -0.6012  -0.5262
    -0.5164  -0.2083  -0.1738  -0.1501   0.1381   0.4834   0.4960   0.5625
     0.6275   0.7707   0.7852   0.9574   1.0127   1.2335   1.2521   1.3612
     1.6169   1.8269   2.1006   2.1785   2.2196   2.7110   2.7419

          k = 0.0746-0.1438 0.0000 ( 31265 PWs)   bands (ev):

   -56.3566 -56.3066 -56.2503 -56.2071 -56.1992 -56.1568 -32.7194 -32.6710
   -32.6189 -32.6126 -32.5944 -32.5920 -32.5672 -32.5489 -32.5408 -32.5012
   -32.4891 -32.4622 -32.4148 -32.3437 -32.3007 -32.1888 -32.1820 -32.0764
    -5.4872  -4.7761  -4.3489  -3.9531  -3.7563  -3.7441  -3.6214  -3.3590
    -3.2821  -3.2156  -2.9707  -2.8860  -2.8800  -2.8243  -2.7412  -2.5861
    -2.4011  -2.1203  -2.1084  -2.0953  -1.8431  -1.8340  -1.7668  -1.5687
    -1.4298  -1.3733  -1.3209  -1.0155  -0.9190  -0.8416  -0.7264  -0.7177
    -0.5110  -0.2816  -0.1985  -0.0230   0.0608   0.3026   0.4344   0.5193
     0.5507   0.6428   0.8485   0.9836   1.0164   1.2207   1.2693   1.3439
     1.6132   1.8296   2.1310   2.1631   2.2226   2.6137   2.7348

          k = 0.0746-0.1268 0.0000 ( 31254 PWs)   bands (ev):

   -56.3541 -56.3092 -56.2477 -56.2046 -56.2019 -56.1594 -32.7169 -32.6734
   -32.6163 -32.5913 -32.5895 -32.5735 -32.5696 -32.5463 -32.5431 -32.5036
   -32.4683 -32.4596 -32.4171 -32.3414 -32.3028 -32.2109 -32.2038 -32.0981
    -5.3120  -4.6500  -4.2082  -3.9247  -3.8638  -3.6928  -3.5361  -3.2840
    -3.2011  -3.1449  -2.9862  -2.9108  -2.8790  -2.7627  -2.6671  -2.6175
    -2.4519  -2.1295  -2.1205  -2.0617  -1.9097  -1.8436  -1.8069  -1.6447
    -1.5788  -1.4718  -1.3608  -1.1237  -1.0819  -1.0473  -1.0046  -0.8538
    -0.5208  -0.3590  -0.2946  -0.1077   0.0468   0.1595   0.1936   0.4875
     0.6370   0.7789   1.0143   1.0496   1.2229   1.2311   1.3919   1.4459
     1.6750   1.8963   2.1776   2.2334   2.2741   2.4956   2.7339

          k = 0.0746-0.1097 0.0000 ( 31264 PWs)   bands (ev):

   -56.3500 -56.3134 -56.2435 -56.2062 -56.2005 -56.1636 -32.7129 -32.6771
   -32.6119 -32.5850 -32.5738 -32.5570 -32.5465 -32.5421 -32.5400 -32.5072
   -32.4553 -32.4349 -32.4207 -32.3378 -32.3062 -32.2459 -32.2383 -32.1325
    -5.1322  -4.4215  -4.1600  -4.0229  -3.7864  -3.5951  -3.4369  -3.2006
    -3.1295  -3.1109  -3.0640  -2.9043  -2.8825  -2.7145  -2.7121  -2.5747
    -2.4699  -2.1905  -2.1474  -2.0713  -2.0328  -1.8562  -1.8531  -1.7853
    -1.7052  -1.5602  -1.4800  -1.3851  -1.3739  -1.2212  -1.1062  -0.8051
    -0.7561  -0.6958  -0.4863  -0.2538  -0.1005   0.1730   0.4040   0.6023
     0.8155   0.9803   1.0885   1.2812   1.3199   1.4669   1.4936   1.6697
     1.7390   2.0165   2.2183   2.3040   2.3492   2.4377   2.7484

          k = 0.0746-0.0926 0.0000 ( 31247 PWs)   bands (ev):

   -56.3447 -56.3189 -56.2381 -56.2117 -56.1951 -56.1690 -32.7076 -32.6820
   -32.6063 -32.5790 -32.5789 -32.5512 -32.5367 -32.5129 -32.5111 -32.4963
   -32.4496 -32.4252 -32.3912 -32.3330 -32.3105 -32.2914 -32.2830 -32.1770
    -4.9722  -4.4604  -4.1245  -3.8235  -3.7006  -3.4576  -3.3561  -3.2051
    -3.1625  -3.1123  -3.1039  -2.8594  -2.8436  -2.7357  -2.7130  -2.4805
    -2.4060  -2.2970  -2.2686  -2.1462  -2.0717  -1.9681  -1.9310  -1.8741
    -1.8090  -1.6431  -1.6331  -1.5878  -1.5268  -1.3865  -1.2921  -1.2060
    -1.0027  -0.9631  -0.5380  -0.0881  -0.0523   0.2710   0.5871   0.7571
     1.0613   1.1730   1.2099   1.3489   1.5463   1.6151   1.6886   1.7906
     1.8598   2.0957   2.2612   2.3529   2.3874   2.4354   2.6967

          k = 0.0746-0.0756 0.0000 ( 31241 PWs)   bands (ev):

   -56.3385 -56.3252 -56.2318 -56.2182 -56.1889 -56.1754 -32.7014 -32.6878
   -32.5997 -32.5851 -32.5718 -32.5565 -32.5304 -32.5177 -32.4593 -32.4452
   -32.4431 -32.4304 -32.3446 -32.3402 -32.3348 -32.3270 -32.3154 -32.2287
    -4.8333  -4.7759  -3.8886  -3.6741  -3.5945  -3.3775  -3.3208  -3.2915
    -3.2612  -3.1208  -3.0635  -2.8305  -2.8094  -2.7207  -2.5843  -2.4533
    -2.4138  -2.3711  -2.3460  -2.1684  -2.0931  -2.0579  -1.9964  -1.9870
    -1.9170  -1.7948  -1.7623  -1.6664  -1.6458  -1.5026  -1.4679  -1.4624
    -1.2470  -1.1813  -0.3227  -0.0910   0.2325   0.3909   0.7521   0.9059
     1.2267   1.2995   1.4165   1.4491   1.6265   1.6989   1.8474   1.8547
     2.0465   2.1481   2.2521   2.3383   2.3708   2.4605   2.4701

          k = 0.0746-0.0585 0.0000 ( 31294 PWs)   bands (ev):

   -56.3319 -56.3318 -56.2252 -56.2249 -56.1823 -56.1821 -32.6949 -32.6941
   -32.5928 -32.5919 -32.5644 -32.5626 -32.5240 -32.5238 -32.4365 -32.4363
   -32.4027 -32.4009 -32.3901 -32.3900 -32.3215 -32.3213 -32.2845 -32.2838
    -5.0729  -4.6995  -3.7928  -3.7719  -3.4916  -3.4420  -3.3915  -3.3733
    -3.1403  -3.0945  -2.9889  -2.9881  -2.7852  -2.7781  -2.6302  -2.5853
    -2.3280  -2.3219  -2.2197  -2.1904  -2.1179  -2.0677  -2.0087  -1.9968
    -1.9026  -1.8648  -1.8370  -1.8311  -1.6822  -1.5714  -1.4663  -1.4115
    -1.3566  -1.2466  -0.1566  -0.1182   0.4627   0.5189   0.8871   0.9890
     1.2467   1.4150   1.4565   1.5972   1.7015   1.7040   1.8692   1.9433
     2.0828   2.2078   2.2740   2.2925   2.3270   2.3756   2.3871

          k =-0.0895 0.0497 0.0000 ( 31272 PWs)   bands (ev):

   -56.3319 -56.3319 -56.2251 -56.2249 -56.1822 -56.1821 -32.6945 -32.6945
   -32.5925 -32.5924 -32.5633 -32.5632 -32.5241 -32.5239 -32.4364 -32.4362
   -32.4019 -32.4017 -32.3900 -32.3900 -32.3215 -32.3213 -32.2843 -32.2841
    -4.9106  -4.9105  -3.7842  -3.7842  -3.4529  -3.4528  -3.3632  -3.3632
    -3.0998  -3.0998  -3.0271  -3.0271  -2.7808  -2.7808  -2.5969  -2.5969
    -2.3472  -2.3471  -2.1981  -2.1981  -2.0805  -2.0805  -1.9944  -1.9943
    -1.8737  -1.8736  -1.8275  -1.8274  -1.6229  -1.6228  -1.4340  -1.4340
    -1.2942  -1.2942  -0.1416  -0.1416   0.5315   0.5315   0.8491   0.8492
     1.3281   1.3281   1.5064   1.5065   1.7173   1.7174   1.8949   1.8949
     2.1423   2.1424   2.2889   2.2915   2.3099   2.3106   2.4069

          k =-0.0895 0.0668 0.0000 ( 31231 PWs)   bands (ev):

   -56.3385 -56.3251 -56.2319 -56.2182 -56.1889 -56.1754 -32.7010 -32.6880
   -32.5994 -32.5855 -32.5703 -32.5567 -32.5304 -32.5177 -32.4584 -32.4451
   -32.4428 -32.4301 -32.3452 -32.3397 -32.3347 -32.3269 -32.3153 -32.2289
    -5.1004  -4.6851  -3.9018  -3.7351  -3.4934  -3.4427  -3.3834  -3.3769
    -3.3374  -3.1925  -3.0955  -2.8467  -2.8098  -2.7254  -2.5824  -2.5206
    -2.4461  -2.3263  -2.3250  -2.1915  -2.1186  -2.0620  -1.9615  -1.9000
    -1.8174  -1.7373  -1.7158  -1.6212  -1.6187  -1.5020  -1.4625  -1.4315
    -1.3022  -1.1321  -0.2743  -0.0647   0.4282   0.5193   0.6663   0.9158
     1.2747   1.3351   1.4646   1.4807   1.5538   1.7823   1.8055   1.8848
     2.0021   2.0920   2.2765   2.3104   2.3478   2.4047   2.4656

          k =-0.0895 0.0839 0.0000 ( 31210 PWs)   bands (ev):

   -56.3447 -56.3189 -56.2382 -56.2117 -56.1951 -56.1691 -32.7072 -32.6822
   -32.6060 -32.5792 -32.5773 -32.5510 -32.5366 -32.5129 -32.5100 -32.4962
   -32.4492 -32.4246 -32.3907 -32.3328 -32.3103 -32.2917 -32.2828 -32.1771
    -5.2522  -4.4333  -4.0860  -3.8229  -3.7688  -3.4800  -3.4653  -3.3204
    -3.2997  -3.2720  -3.0958  -2.9133  -2.8203  -2.8203  -2.6593  -2.5398
    -2.3239  -2.2764  -2.2636  -2.2128  -2.0695  -1.9920  -1.9287  -1.8132
    -1.7001  -1.6093  -1.5814  -1.5314  -1.5078  -1.3532  -1.2717  -1.1970
    -0.9383  -0.9288  -0.4564  -0.0324   0.2103   0.4242   0.4642   0.8492
     1.1904   1.2360   1.2586   1.4053   1.4701   1.6787   1.7388   1.7754
     1.8214   2.0496   2.2855   2.3411   2.3943   2.4107   2.5693

          k =-0.0895 0.1009 0.0000 ( 31236 PWs)   bands (ev):

   -56.3500 -56.3134 -56.2436 -56.2062 -56.2005 -56.1636 -32.7125 -32.6772
   -32.6117 -32.5837 -32.5739 -32.5564 -32.5462 -32.5420 -32.5398 -32.5070
   -32.4548 -32.4346 -32.4201 -32.3376 -32.3060 -32.2461 -32.2381 -32.1324
    -5.3663  -4.3530  -4.1741  -4.0686  -3.8361  -3.6121  -3.5278  -3.3230
    -3.2814  -3.1608  -3.0754  -2.9683  -2.8724  -2.8555  -2.6872  -2.6292
    -2.3135  -2.2318  -2.1735  -2.0726  -2.0716  -1.8950  -1.8529  -1.7863
    -1.6455  -1.5198  -1.4167  -1.3148  -1.3018  -1.1910  -1.1532  -0.7318
    -0.6841  -0.6443  -0.4125  -0.0598  -0.0226   0.2907   0.3060   0.7130
     0.9674   1.0146   1.1718   1.3094   1.3211   1.4623   1.6109   1.6292
     1.7731   1.9967   2.2454   2.3201   2.3707   2.4392   2.6823

          k =-0.0895 0.1180 0.0000 ( 31261 PWs)   bands (ev):

   -56.3541 -56.3093 -56.2477 -56.2046 -56.2019 -56.1594 -32.7167 -32.6734
   -32.6161 -32.5909 -32.5888 -32.5734 -32.5697 -32.5462 -32.5429 -32.5034
   -32.4681 -32.4593 -32.4168 -32.3413 -32.3027 -32.2109 -32.2037 -32.0981
    -5.4439  -4.6065  -4.2388  -3.9501  -3.8854  -3.7087  -3.5847  -3.3497
    -3.2721  -3.1364  -3.0271  -2.9341  -2.8780  -2.8698  -2.6986  -2.6514
    -2.3540  -2.1678  -2.1358  -2.0837  -1.9402  -1.8912  -1.7155  -1.6824
    -1.6028  -1.4734  -1.2385  -1.0850  -1.0805  -1.0071  -0.9581  -0.8319
    -0.4963  -0.2914  -0.2719  -0.0532   0.1157   0.1296   0.2456   0.5641
     0.7414   0.7991   1.0587   1.0766   1.2305   1.2558   1.4547   1.4664
     1.7035   1.9077   2.1939   2.2581   2.2858   2.5124   2.7752

          k =-0.0895 0.1351 0.0000 ( 31265 PWs)   bands (ev):

   -56.3566 -56.3066 -56.2503 -56.2071 -56.1992 -56.1568 -32.7194 -32.6710
   -32.6189 -32.6126 -32.5944 -32.5920 -32.5672 -32.5489 -32.5408 -32.5012
   -32.4891 -32.4622 -32.4148 -32.3437 -32.3007 -32.1888 -32.1820 -32.0764
    -5.4872  -4.7761  -4.3489  -3.9531  -3.7563  -3.7441  -3.6214  -3.3590
    -3.2821  -3.2156  -2.9707  -2.8860  -2.8800  -2.8243  -2.7412  -2.5861
    -2.4011  -2.1203  -2.1084  -2.0953  -1.8431  -1.8340  -1.7668  -1.5687
    -1.4298  -1.3733  -1.3209  -1.0155  -0.9190  -0.8416  -0.7264  -0.7177
    -0.5110  -0.2816  -0.1985  -0.0230   0.0608   0.3026   0.4344   0.5193
     0.5507   0.6428   0.8485   0.9836   1.0164   1.2207   1.2693   1.3439
     1.6132   1.8296   2.1310   2.1630   2.2226   2.6138   2.7348

          k =-0.0895-0.0526 0.0000 ( 31230 PWs)   bands (ev):

   -56.3575 -56.3057 -56.2512 -56.2080 -56.1983 -56.1559 -32.7203 -32.6702
   -32.6200 -32.6199 -32.6015 -32.5932 -32.5664 -32.5498 -32.5401 -32.5005
   -32.4963 -32.4632 -32.4141 -32.3445 -32.3000 -32.1812 -32.1745 -32.0690
    -5.5006  -4.8355  -4.3873  -3.9676  -3.7691  -3.6707  -3.6340  -3.3590
    -3.2918  -3.2554  -2.9568  -2.8883  -2.8686  -2.7820  -2.7553  -2.5591
    -2.4257  -2.1348  -2.0801  -2.0756  -1.8184  -1.8020  -1.7452  -1.4905
    -1.4888  -1.4080  -1.2486  -0.9943  -0.8569  -0.7096  -0.6754  -0.6283
    -0.5835  -0.2067  -0.2037  -0.1061   0.0626   0.3982   0.4121   0.4628
     0.5806   0.6658   0.7679   0.9263   0.9364   1.1851   1.2123   1.2902
     1.5643   1.7998   2.0955   2.1191   2.2051   2.6732   2.7298

     the Fermi energy is     1.2715 ev

!    total energy              =   -1119.89538928 Ry
     estimated scf accuracy    <       0.00000549 Ry
     smearing contrib. (-TS)   =      -0.07806447 Ry
     internal energy E=F+TS    =   -1119.81732481 Ry

     The total energy is F=E-TS. E is the sum of the following terms:
     one-electron contribution =   -9425.40713308 Ry
     hartree contribution      =    4743.38385246 Ry
     xc contribution           =    -263.81624242 Ry
     ewald contribution        =    3826.02218382 Ry
     electric field correction =       0.00001442 Ry

     convergence has been achieved in  18 iterations

     negative rho (up, down):  8.820E-04 0.000E+00

     Forces acting on atoms (cartesian axes, Ry/au):

     atom    1 type  1   force =    -0.00292040   -0.00172041   -0.00827214
     atom    2 type  1   force =    -0.00292917   -0.00172277   -0.00828396
     atom    3 type  2   force =    -0.02199440   -0.01294404    0.00647490
     atom    4 type  2   force =    -0.02197985   -0.01293910    0.00647747
     atom    5 type  1   force =     0.01035569    0.00608965   -0.00667090
     atom    6 type  1   force =     0.01034978    0.00608682   -0.00667129
     atom    7 type  2   force =     0.01401925    0.00823226    0.00492470
     atom    8 type  2   force =     0.01399881    0.00824651    0.00492039
     atom    9 type  1   force =    -0.00014948   -0.00008614    0.00232378
     atom   10 type  1   force =    -0.00013487   -0.00008197    0.00232864
     atom   11 type  2   force =     0.00069334    0.00042422    0.00124029
     atom   12 type  2   force =     0.00069131    0.00041499    0.00120812

     Total force =     0.050152     Total SCF correction =     0.003339

     Writing output data file ./Ti2Pt2/Ti2Pt2_beef.save/

     init_run     :     80.94s CPU     81.39s WALL (       1 calls)
     electrons    :   2908.87s CPU   2931.39s WALL (       1 calls)
     forces       :     51.02s CPU     51.34s WALL (       1 calls)

     Called by init_run:
     wfcinit      :     68.39s CPU     68.69s WALL (       1 calls)
     potinit      :      8.29s CPU      8.35s WALL (       1 calls)
     hinit0       :      2.26s CPU      2.27s WALL (       1 calls)

     Called by electrons:
     c_bands      :   2547.01s CPU   2562.75s WALL (      18 calls)
     sum_band     :    323.72s CPU    327.44s WALL (      18 calls)
     v_of_rho     :     28.37s CPU     29.51s WALL (      19 calls)
     newd         :     16.52s CPU     18.27s WALL (      19 calls)
     mix_rho      :      0.66s CPU      0.68s WALL (      18 calls)
     vdW_kernel   :      6.05s CPU      6.06s WALL (       1 calls)

     Called by c_bands:
     init_us_2    :      9.11s CPU      9.19s WALL (    2812 calls)
     cegterg      :   2508.84s CPU   2522.26s WALL (    1332 calls)

     Called by *egterg:
     cdiaghg      :    140.78s CPU    141.07s WALL (    8281 calls)
     h_psi        :   1216.53s CPU   1226.44s WALL (    8355 calls)
     s_psi        :    233.78s CPU    234.25s WALL (    8355 calls)
     g_psi        :      1.10s CPU      1.12s WALL (    6949 calls)

     Called by h_psi:
     h_psi:calbec :    496.10s CPU    498.01s WALL (    8355 calls)
     vloc_psi     :    471.35s CPU    478.83s WALL (    8355 calls)
     add_vuspsi   :    246.18s CPU    246.70s WALL (    8355 calls)

     General routines
     calbec       :    737.16s CPU    739.95s WALL (    9983 calls)
     fft          :     20.37s CPU     21.11s WALL (    1256 calls)
     ffts         :      0.11s CPU      0.11s WALL (      37 calls)
     fftw         :    539.34s CPU    547.79s WALL (  624176 calls)
     interpolate  :      0.34s CPU      0.35s WALL (      19 calls)

     Parallel routines
     fft_scatt_xy :     40.70s CPU     41.20s WALL (  625469 calls)
     fft_scatt_yz :    165.87s CPU    169.53s WALL (  625469 calls)

     PWSCF        :  50m54.28s CPU  51m36.44s WALL


   This run was terminated on:  12:42: 7  25Jun2022            

=------------------------------------------------------------------------------=
   JOB DONE.
=------------------------------------------------------------------------------=
