
     Program PWSCF v.6.6 starts on 24Jun2022 at 23:23:38 

     This program is part of the open-source Quantum ESPRESSO suite
     for quantum simulation of materials; please cite
         "P. Giannozzi et al., J. Phys.:Condens. Matter 21 395502 (2009);
         "P. Giannozzi et al., J. Phys.:Condens. Matter 29 465901 (2017);
          URL http://www.quantum-espresso.org", 
     in publications or presentations arising from this work. More details at
     http://www.quantum-espresso.org/quote

     Parallel version (MPI), running on    37 processors

     MPI processes distributed on     1 nodes
     R & G space division:  proc/nbgrp/npool/nimage =      37
     Fft bands division:     nmany     =       1
     Reading input from Ti2Pd2.in
Warning: card &CELL ignored
Warning: card / ignored

     Current dimensions of program PWSCF are:
     Max number of different atomic species (ntypx) = 10
     Max number of k-points (npk) =  40000
     Max angular momentum in pseudopotentials (lmaxx) =  3
     Presently stress not available with electric field and gates

     Message from routine cell_base_init:
     DEPRECATED: use true lattice parameter, not A to a.u. conversion factor
     file Ti.pbe-spn-rrkjus_psl.1.0.0.UPF: wavefunction(s)  3S 3D renormalized
     file Pd.pbe-n-rrkjus_psl.1.0.0.UPF: wavefunction(s)  4D renormalized

     **************************************************************************
     Initializing libbeef V0.1.2 with the BEEF-vdW functional.
     Citation: Wellendorff et al., PRB 85, 235149 (2012).
     **************************************************************************


     IMPORTANT: XC functional enforced from input :
     Exchange-correlation= BEEF-VDW
                           (   1   4  43  14   2   0   0)
     Any further DFT definition will be discarded
     Please, verify this is what you really want


     Subspace diagonalization in iterative solution of the eigenvalue problem:
     a serial algorithm will be used

     Found symmetry operation: I + (  0.5000 -0.5000  0.0000)
     This is a supercell, fractional translations are disabled

     Parallelization info
     --------------------
     sticks:   dense  smooth     PW     G-vecs:    dense   smooth      PW
     Min         116      46     13                26980     6818    1047
     Max         117      47     14                27003     6831    1066
     Sum        4321    1723    503               998703   252485   38995



     bravais-lattice index     =            0
     lattice parameter (alat)  =       1.8897  a.u.
     unit-cell volume          =    4568.5650 (a.u.)^3
     number of atoms/cell      =           12
     number of atomic types    =            2
     number of electrons       =       132.00
     number of Kohn-Sham states=           79
     kinetic-energy cutoff     =      55.1240  Ry
     charge density cutoff     =     551.2396  Ry
     convergence threshold     =      1.0E-05
     mixing beta               =       0.1000
     number of iterations used =           10  plain     mixing
     Exchange-correlation= BEEF-VDW
                           (   1   4  43  14   2   0   0)

     celldm(1)=   1.889726  celldm(2)=   0.000000  celldm(3)=   0.000000
     celldm(4)=   0.000000  celldm(5)=   0.000000  celldm(6)=   0.000000

     crystal axes: (cart. coord. in units of alat)
               a(1) = (   5.605808   0.000000   0.000000 )  
               a(2) = (   2.706752   4.909030   0.000000 )  
               a(3) = (   0.000000   0.000000  24.600809 )  

     reciprocal axes: (cart. coord. in units 2 pi/alat)
               b(1) = (  0.178386 -0.098359  0.000000 )  
               b(2) = (  0.000000  0.203706  0.000000 )  
               b(3) = (  0.000000  0.000000  0.040649 )  


     PseudoPot. # 1 for Ti read from file:
     ../pseudo/Ti.pbe-spn-rrkjus_psl.1.0.0.UPF
     MD5 check sum: e281089c08e14b8efcf92e44a67ada65
     Pseudo is Ultrasoft + core correction, Zval = 12.0
     Generated using "atomic" code by A. Dal Corso v.6.2.2
     Using radial grid of 1177 points,  6 beta functions with: 
                l(1) =   0
                l(2) =   0
                l(3) =   1
                l(4) =   1
                l(5) =   2
                l(6) =   2
     Q(r) pseudized with 0 coefficients 


     PseudoPot. # 2 for Pd read from file:
     ../pseudo/Pd.pbe-n-rrkjus_psl.1.0.0.UPF
     MD5 check sum: d9f693bf1c5b493397a6bd6f2231cfc3
     Pseudo is Ultrasoft + core correction, Zval = 10.0
     Generated using "atomic" code by A. Dal Corso v.6.3
     Using radial grid of 1235 points,  6 beta functions with: 
                l(1) =   0
                l(2) =   0
                l(3) =   1
                l(4) =   1
                l(5) =   2
                l(6) =   2
     Q(r) pseudized with 0 coefficients 


     atomic species   valence    mass     pseudopotential
        Ti            12.00    47.86700     Ti( 1.00)
        Pd            10.00   106.42000     Pd( 1.00)

     No symmetry found



   Cartesian axes

     site n.     atom                  positions (alat units)
         1           Ti  tau(   1) = (   0.0000000   0.0000000  10.0000000  )
         2           Ti  tau(   2) = (   4.1562800   2.4545151  10.0000000  )
         3           Pd  tau(   3) = (   2.8029040   0.0000000  10.0000000  )
         4           Pd  tau(   4) = (   1.3533760   2.4545151  10.0000000  )
         5           Ti  tau(   5) = (   5.6058080   3.3105422  12.3004047  )
         6           Ti  tau(   6) = (   1.4495280   0.8560271  12.3004047  )
         7           Pd  tau(   7) = (   2.8029040   3.3105422  12.3004047  )
         8           Pd  tau(   8) = (   4.2524320   0.8560271  12.3004047  )
         9           Ti  tau(   9) = (   3.1408126   1.8548232  14.5560160  )
        10           Ti  tau(  10) = (   7.2971024   4.3093451  14.5560118  )
        11           Pd  tau(  11) = (   5.9563160   1.8622632  14.5662444  )
        12           Pd  tau(  12) = (   4.5067874   4.3167835  14.5662404  )

     number of k points=    74  Fermi-Dirac smearing, width (Ry)=  0.0100
                       cart. coord. in units 2pi/alat
        k(    1) = (   0.0000000   0.0000000   0.0000000), wk =   0.0138889
        k(    2) = (   0.0000000   0.0169755   0.0000000), wk =   0.0277778
        k(    3) = (   0.0000000   0.0339510   0.0000000), wk =   0.0277778
        k(    4) = (   0.0000000   0.0509266   0.0000000), wk =   0.0277778
        k(    5) = (   0.0000000   0.0679021   0.0000000), wk =   0.0277778
        k(    6) = (   0.0000000   0.0848776   0.0000000), wk =   0.0277778
        k(    7) = (   0.0000000  -0.1018531   0.0000000), wk =   0.0138889
        k(    8) = (   0.0148655  -0.0081966   0.0000000), wk =   0.0277778
        k(    9) = (   0.0148655   0.0087789   0.0000000), wk =   0.0277778
        k(   10) = (   0.0148655   0.0257544   0.0000000), wk =   0.0277778
        k(   11) = (   0.0148655   0.0427300   0.0000000), wk =   0.0277778
        k(   12) = (   0.0148655   0.0597055   0.0000000), wk =   0.0277778
        k(   13) = (   0.0148655   0.0766810   0.0000000), wk =   0.0277778
        k(   14) = (   0.0148655  -0.1100497   0.0000000), wk =   0.0277778
        k(   15) = (   0.0148655  -0.0930742   0.0000000), wk =   0.0277778
        k(   16) = (   0.0148655  -0.0760987   0.0000000), wk =   0.0277778
        k(   17) = (   0.0148655  -0.0591231   0.0000000), wk =   0.0277778
        k(   18) = (   0.0148655  -0.0421476   0.0000000), wk =   0.0277778
        k(   19) = (   0.0148655  -0.0251721   0.0000000), wk =   0.0277778
        k(   20) = (   0.0297311  -0.0163932   0.0000000), wk =   0.0277778
        k(   21) = (   0.0297311   0.0005823   0.0000000), wk =   0.0277778
        k(   22) = (   0.0297311   0.0175579   0.0000000), wk =   0.0277778
        k(   23) = (   0.0297311   0.0345334   0.0000000), wk =   0.0277778
        k(   24) = (   0.0297311   0.0515089   0.0000000), wk =   0.0277778
        k(   25) = (   0.0297311   0.0684844   0.0000000), wk =   0.0277778
        k(   26) = (   0.0297311  -0.1182463   0.0000000), wk =   0.0277778
        k(   27) = (   0.0297311  -0.1012708   0.0000000), wk =   0.0277778
        k(   28) = (   0.0297311  -0.0842953   0.0000000), wk =   0.0277778
        k(   29) = (   0.0297311  -0.0673197   0.0000000), wk =   0.0277778
        k(   30) = (   0.0297311  -0.0503442   0.0000000), wk =   0.0277778
        k(   31) = (   0.0297311  -0.0333687   0.0000000), wk =   0.0277778
        k(   32) = (   0.0445966  -0.0245898   0.0000000), wk =   0.0277778
        k(   33) = (   0.0445966  -0.0076143   0.0000000), wk =   0.0277778
        k(   34) = (   0.0445966   0.0093613   0.0000000), wk =   0.0277778
        k(   35) = (   0.0445966   0.0263368   0.0000000), wk =   0.0277778
        k(   36) = (   0.0445966   0.0433123   0.0000000), wk =   0.0277778
        k(   37) = (   0.0445966   0.0602878   0.0000000), wk =   0.0277778
        k(   38) = (   0.0445966  -0.1264429   0.0000000), wk =   0.0277778
        k(   39) = (   0.0445966  -0.1094674   0.0000000), wk =   0.0277778
        k(   40) = (   0.0445966  -0.0924919   0.0000000), wk =   0.0277778
        k(   41) = (   0.0445966  -0.0755163   0.0000000), wk =   0.0277778
        k(   42) = (   0.0445966  -0.0585408   0.0000000), wk =   0.0277778
        k(   43) = (   0.0445966  -0.0415653   0.0000000), wk =   0.0277778
        k(   44) = (   0.0594621  -0.0327864   0.0000000), wk =   0.0277778
        k(   45) = (   0.0594621  -0.0158108   0.0000000), wk =   0.0277778
        k(   46) = (   0.0594621   0.0011647   0.0000000), wk =   0.0277778
        k(   47) = (   0.0594621   0.0181402   0.0000000), wk =   0.0277778
        k(   48) = (   0.0594621   0.0351157   0.0000000), wk =   0.0277778
        k(   49) = (   0.0594621   0.0520912   0.0000000), wk =   0.0277778
        k(   50) = (   0.0594621  -0.1346395   0.0000000), wk =   0.0277778
        k(   51) = (   0.0594621  -0.1176640   0.0000000), wk =   0.0277778
        k(   52) = (   0.0594621  -0.1006884   0.0000000), wk =   0.0277778
        k(   53) = (   0.0594621  -0.0837129   0.0000000), wk =   0.0277778
        k(   54) = (   0.0594621  -0.0667374   0.0000000), wk =   0.0277778
        k(   55) = (   0.0594621  -0.0497619   0.0000000), wk =   0.0277778
        k(   56) = (   0.0743277  -0.0409830   0.0000000), wk =   0.0277778
        k(   57) = (   0.0743277  -0.0240074   0.0000000), wk =   0.0277778
        k(   58) = (   0.0743277  -0.0070319   0.0000000), wk =   0.0277778
        k(   59) = (   0.0743277   0.0099436   0.0000000), wk =   0.0277778
        k(   60) = (   0.0743277   0.0269191   0.0000000), wk =   0.0277778
        k(   61) = (   0.0743277   0.0438946   0.0000000), wk =   0.0277778
        k(   62) = (   0.0743277  -0.1428361   0.0000000), wk =   0.0277778
        k(   63) = (   0.0743277  -0.1258606   0.0000000), wk =   0.0277778
        k(   64) = (   0.0743277  -0.1088850   0.0000000), wk =   0.0277778
        k(   65) = (   0.0743277  -0.0919095   0.0000000), wk =   0.0277778
        k(   66) = (   0.0743277  -0.0749340   0.0000000), wk =   0.0277778
        k(   67) = (   0.0743277  -0.0579585   0.0000000), wk =   0.0277778
        k(   68) = (  -0.0891932   0.0491796   0.0000000), wk =   0.0138889
        k(   69) = (  -0.0891932   0.0661551   0.0000000), wk =   0.0277778
        k(   70) = (  -0.0891932   0.0831306   0.0000000), wk =   0.0277778
        k(   71) = (  -0.0891932   0.1001061   0.0000000), wk =   0.0277778
        k(   72) = (  -0.0891932   0.1170816   0.0000000), wk =   0.0277778
        k(   73) = (  -0.0891932   0.1340571   0.0000000), wk =   0.0277778
        k(   74) = (  -0.0891932  -0.0526736   0.0000000), wk =   0.0138889

     Dense  grid:   998703 G-vectors     FFT dimensions: (  80,  80, 360)

     Smooth grid:   252485 G-vectors     FFT dimensions: (  54,  54, 225)

     Estimated max dynamical RAM per process >     185.05 MB

     Estimated total dynamical RAM >       6.69 GB

     Initial potential from superposition of free atoms

     starting charge  131.98770, renormalised to  132.00000

     negative rho (up, down):  1.246E-03 0.000E+00


     %%%%%%%%%%%%%%%%%%%%%%%%%%%%%%%%%%%%%%%%%%%%%%%%%%%%%%%%%%%%%%%%%%%%%%%%
     %                                                                      %
     % You are using vdW-DF, which was implemented by the Thonhauser group. %
     % Please cite the following two papers that made this development      %
     % possible and the two reviews that describe the various versions:     %
     %                                                                      %
     %   T. Thonhauser et al., PRL 115, 136402 (2015).                      %
     %   T. Thonhauser et al., PRB 76, 125112 (2007).                       %
     %   K. Berland et al., Rep. Prog. Phys. 78, 066501 (2015).             %
     %   D.C. Langreth et al., J. Phys.: Condens. Matter 21, 084203 (2009). %
     %                                                                      %
     %                                                                      %
     % If you are calculating the stress with vdW-DF, please also cite:     %
     %                                                                      %
     %   R. Sabatini et al., J. Phys.: Condens. Matter 24, 424209 (2012).   %
     %                                                                      %
     %%%%%%%%%%%%%%%%%%%%%%%%%%%%%%%%%%%%%%%%%%%%%%%%%%%%%%%%%%%%%%%%%%%%%%%%



     Adding external electric field

     Computed dipole along edir(3) : 
        Dipole               -0.0000 Ry au,         -0.0000 Debye
        Dipole field         -0.0000 Ry au, 

        Potential amp.        0.0000 Ry
        Total length         45.3266 bohr

     Starting wfcs are  114 randomized atomic wfcs

     total cpu time spent up to now is       86.4 secs

     Self-consistent Calculation

     iteration #  1     ecut=    55.12 Ry     beta= 0.10
     Davidson diagonalization with overlap
     ethr =  1.00E-02,  avg # of iterations =  2.0

     negative rho (up, down):  1.156E-03 0.000E+00

     Adding external electric field

     Computed dipole along edir(3) : 
        Dipole                0.0777 Ry au,          0.1974 Debye
        Dipole field          0.0002 Ry au, 

        Potential amp.       -0.0194 Ry
        Total length         45.3266 bohr


     total cpu time spent up to now is      235.2 secs

     total energy              =   -1133.38885479 Ry
     estimated scf accuracy    <       3.60932648 Ry

     iteration #  2     ecut=    55.12 Ry     beta= 0.10
     Davidson diagonalization with overlap
     ethr =  2.73E-03,  avg # of iterations =  3.5

     negative rho (up, down):  1.168E-03 0.000E+00

     Adding external electric field

     Computed dipole along edir(3) : 
        Dipole               -0.2798 Ry au,         -0.7113 Debye
        Dipole field         -0.0008 Ry au, 

        Potential amp.        0.0698 Ry
        Total length         45.3266 bohr


     total cpu time spent up to now is      383.1 secs

     total energy              =   -1133.66981863 Ry
     estimated scf accuracy    <       3.13411639 Ry

     iteration #  3     ecut=    55.12 Ry     beta= 0.10
     Davidson diagonalization with overlap
     ethr =  2.37E-03,  avg # of iterations =  1.3

     negative rho (up, down):  1.275E-03 0.000E+00

     Adding external electric field

     Computed dipole along edir(3) : 
        Dipole                0.0743 Ry au,          0.1888 Debye
        Dipole field          0.0002 Ry au, 

        Potential amp.       -0.0185 Ry
        Total length         45.3266 bohr


     total cpu time spent up to now is      511.5 secs

     total energy              =   -1133.68367130 Ry
     estimated scf accuracy    <       7.41636739 Ry

     iteration #  4     ecut=    55.12 Ry     beta= 0.10
     Davidson diagonalization with overlap
     ethr =  2.37E-03,  avg # of iterations =  1.0

     negative rho (up, down):  1.200E-03 0.000E+00

     Adding external electric field

     Computed dipole along edir(3) : 
        Dipole                0.0223 Ry au,          0.0566 Debye
        Dipole field          0.0001 Ry au, 

        Potential amp.       -0.0056 Ry
        Total length         45.3266 bohr


     total cpu time spent up to now is      636.0 secs

     total energy              =   -1133.75387343 Ry
     estimated scf accuracy    <       0.66837625 Ry

     iteration #  5     ecut=    55.12 Ry     beta= 0.10
     Davidson diagonalization with overlap
     ethr =  5.06E-04,  avg # of iterations =  2.3

     negative rho (up, down):  1.277E-03 0.000E+00

     Adding external electric field

     Computed dipole along edir(3) : 
        Dipole                0.0290 Ry au,          0.0738 Debye
        Dipole field          0.0001 Ry au, 

        Potential amp.       -0.0072 Ry
        Total length         45.3266 bohr


     total cpu time spent up to now is      773.7 secs

     total energy              =   -1133.72309155 Ry
     estimated scf accuracy    <       0.17211119 Ry

     iteration #  6     ecut=    55.12 Ry     beta= 0.10
     Davidson diagonalization with overlap
     ethr =  1.30E-04,  avg # of iterations =  8.9

     negative rho (up, down):  1.202E-03 0.000E+00

     Adding external electric field

     Computed dipole along edir(3) : 
        Dipole                0.0264 Ry au,          0.0671 Debye
        Dipole field          0.0001 Ry au, 

        Potential amp.       -0.0066 Ry
        Total length         45.3266 bohr


     total cpu time spent up to now is      964.7 secs

     total energy              =   -1133.74561682 Ry
     estimated scf accuracy    <       0.10067372 Ry

     iteration #  7     ecut=    55.12 Ry     beta= 0.10
     Davidson diagonalization with overlap
     ethr =  7.63E-05,  avg # of iterations =  1.5

     negative rho (up, down):  1.914E-03 0.000E+00

     Adding external electric field

     Computed dipole along edir(3) : 
        Dipole                0.0232 Ry au,          0.0590 Debye
        Dipole field          0.0001 Ry au, 

        Potential amp.       -0.0058 Ry
        Total length         45.3266 bohr


     total cpu time spent up to now is     1097.4 secs

     total energy              =   -1133.74201914 Ry
     estimated scf accuracy    <       0.03477611 Ry

     iteration #  8     ecut=    55.12 Ry     beta= 0.10
     Davidson diagonalization with overlap
     c_bands:  2 eigenvalues not converged
     ethr =  2.63E-05,  avg # of iterations =  8.6

     negative rho (up, down):  1.968E-03 0.000E+00

     Adding external electric field

     Computed dipole along edir(3) : 
        Dipole                0.0251 Ry au,          0.0637 Debye
        Dipole field          0.0001 Ry au, 

        Potential amp.       -0.0062 Ry
        Total length         45.3266 bohr


     total cpu time spent up to now is     1286.7 secs

     total energy              =   -1133.74647576 Ry
     estimated scf accuracy    <       0.00857370 Ry

     iteration #  9     ecut=    55.12 Ry     beta= 0.10
     Davidson diagonalization with overlap
     c_bands:  1 eigenvalues not converged
     c_bands:  1 eigenvalues not converged
     c_bands:  1 eigenvalues not converged
     c_bands:  1 eigenvalues not converged
     c_bands:  1 eigenvalues not converged
     c_bands:  1 eigenvalues not converged
     c_bands:  1 eigenvalues not converged
     c_bands:  1 eigenvalues not converged
     ethr =  6.50E-06,  avg # of iterations =  9.9

     negative rho (up, down):  1.970E-03 0.000E+00

     Adding external electric field

     Computed dipole along edir(3) : 
        Dipole                0.0192 Ry au,          0.0488 Debye
        Dipole field          0.0001 Ry au, 

        Potential amp.       -0.0048 Ry
        Total length         45.3266 bohr


     total cpu time spent up to now is     1478.6 secs

     total energy              =   -1133.74694561 Ry
     estimated scf accuracy    <       0.01601318 Ry

     iteration # 10     ecut=    55.12 Ry     beta= 0.10
     Davidson diagonalization with overlap
     c_bands:  1 eigenvalues not converged
     c_bands:  1 eigenvalues not converged
     ethr =  6.50E-06,  avg # of iterations =  7.1

     negative rho (up, down):  2.375E-03 0.000E+00

     Adding external electric field

     Computed dipole along edir(3) : 
        Dipole                0.0232 Ry au,          0.0589 Debye
        Dipole field          0.0001 Ry au, 

        Potential amp.       -0.0058 Ry
        Total length         45.3266 bohr


     total cpu time spent up to now is     1662.2 secs

     total energy              =   -1133.74794930 Ry
     estimated scf accuracy    <       0.01433287 Ry

     iteration # 11     ecut=    55.12 Ry     beta= 0.10
     Davidson diagonalization with overlap
     c_bands:  1 eigenvalues not converged
     ethr =  6.50E-06,  avg # of iterations =  2.9

     negative rho (up, down):  2.351E-03 0.000E+00

     Adding external electric field

     Computed dipole along edir(3) : 
        Dipole                0.0255 Ry au,          0.0648 Debye
        Dipole field          0.0001 Ry au, 

        Potential amp.       -0.0064 Ry
        Total length         45.3266 bohr


     total cpu time spent up to now is     1810.0 secs

     total energy              =   -1133.74733537 Ry
     estimated scf accuracy    <       0.00797233 Ry

     iteration # 12     ecut=    55.12 Ry     beta= 0.10
     Davidson diagonalization with overlap
     ethr =  6.04E-06,  avg # of iterations =  3.9

     negative rho (up, down):  2.145E-03 0.000E+00

     Adding external electric field

     Computed dipole along edir(3) : 
        Dipole                0.0240 Ry au,          0.0611 Debye
        Dipole field          0.0001 Ry au, 

        Potential amp.       -0.0060 Ry
        Total length         45.3266 bohr


     total cpu time spent up to now is     1964.3 secs

     total energy              =   -1133.74819536 Ry
     estimated scf accuracy    <       0.00146675 Ry

     iteration # 13     ecut=    55.12 Ry     beta= 0.10
     Davidson diagonalization with overlap
     c_bands:  1 eigenvalues not converged
     c_bands:  1 eigenvalues not converged
     c_bands:  1 eigenvalues not converged
     c_bands:  1 eigenvalues not converged
     ethr =  1.11E-06,  avg # of iterations =  4.9

     negative rho (up, down):  2.130E-03 0.000E+00

     Adding external electric field

     Computed dipole along edir(3) : 
        Dipole                0.0222 Ry au,          0.0565 Debye
        Dipole field          0.0001 Ry au, 

        Potential amp.       -0.0055 Ry
        Total length         45.3266 bohr


     total cpu time spent up to now is     2114.9 secs

     total energy              =   -1133.74816440 Ry
     estimated scf accuracy    <       0.00070810 Ry

     iteration # 14     ecut=    55.12 Ry     beta= 0.10
     Davidson diagonalization with overlap
     c_bands:  1 eigenvalues not converged
     ethr =  5.36E-07,  avg # of iterations =  6.8

     negative rho (up, down):  2.132E-03 0.000E+00

     Adding external electric field

     Computed dipole along edir(3) : 
        Dipole                0.0237 Ry au,          0.0603 Debye
        Dipole field          0.0001 Ry au, 

        Potential amp.       -0.0059 Ry
        Total length         45.3266 bohr


     total cpu time spent up to now is     2283.2 secs

     total energy              =   -1133.74820594 Ry
     estimated scf accuracy    <       0.00051035 Ry

     iteration # 15     ecut=    55.12 Ry     beta= 0.10
     Davidson diagonalization with overlap
     c_bands:  2 eigenvalues not converged
     c_bands:  1 eigenvalues not converged
     c_bands:  1 eigenvalues not converged
     ethr =  3.87E-07,  avg # of iterations =  5.8

     negative rho (up, down):  2.027E-03 0.000E+00

     Adding external electric field

     Computed dipole along edir(3) : 
        Dipole                0.0239 Ry au,          0.0608 Debye
        Dipole field          0.0001 Ry au, 

        Potential amp.       -0.0060 Ry
        Total length         45.3266 bohr


     total cpu time spent up to now is     2450.7 secs

     total energy              =   -1133.74828795 Ry
     estimated scf accuracy    <       0.00019772 Ry

     iteration # 16     ecut=    55.12 Ry     beta= 0.10
     Davidson diagonalization with overlap
     ethr =  1.50E-07,  avg # of iterations =  2.6

     negative rho (up, down):  1.888E-03 0.000E+00

     Adding external electric field

     Computed dipole along edir(3) : 
        Dipole                0.0234 Ry au,          0.0594 Debye
        Dipole field          0.0001 Ry au, 

        Potential amp.       -0.0058 Ry
        Total length         45.3266 bohr


     total cpu time spent up to now is     2593.1 secs

     total energy              =   -1133.74828538 Ry
     estimated scf accuracy    <       0.00002642 Ry

     iteration # 17     ecut=    55.12 Ry     beta= 0.10
     Davidson diagonalization with overlap
     c_bands:  1 eigenvalues not converged
     ethr =  2.00E-08,  avg # of iterations =  7.7

     negative rho (up, down):  1.804E-03 0.000E+00

     Adding external electric field

     Computed dipole along edir(3) : 
        Dipole                0.0233 Ry au,          0.0593 Debye
        Dipole field          0.0001 Ry au, 

        Potential amp.       -0.0058 Ry
        Total length         45.3266 bohr


     total cpu time spent up to now is     2801.7 secs

     total energy              =   -1133.74829098 Ry
     estimated scf accuracy    <       0.00001622 Ry

     iteration # 18     ecut=    55.12 Ry     beta= 0.10
     Davidson diagonalization with overlap
     ethr =  1.23E-08,  avg # of iterations =  1.9

     negative rho (up, down):  1.767E-03 0.000E+00

     Adding external electric field

     Computed dipole along edir(3) : 
        Dipole                0.0236 Ry au,          0.0600 Debye
        Dipole field          0.0001 Ry au, 

        Potential amp.       -0.0059 Ry
        Total length         45.3266 bohr


     total cpu time spent up to now is     2942.0 secs

     total energy              =   -1133.74828748 Ry
     estimated scf accuracy    <       0.00002005 Ry

     iteration # 19     ecut=    55.12 Ry     beta= 0.10
     Davidson diagonalization with overlap
     ethr =  1.23E-08,  avg # of iterations =  2.8

     negative rho (up, down):  1.065E-03 0.000E+00

     Adding external electric field

     Computed dipole along edir(3) : 
        Dipole                0.0256 Ry au,          0.0651 Debye
        Dipole field          0.0001 Ry au, 

        Potential amp.       -0.0064 Ry
        Total length         45.3266 bohr


     total cpu time spent up to now is     3094.9 secs

     End of self-consistent calculation

          k = 0.0000 0.0000 0.0000 ( 31621 PWs)   bands (ev):

   -56.6399 -56.5912 -56.5776 -56.5288 -56.5028 -56.4539 -32.9961 -32.9518
   -32.9397 -32.8937 -32.8887 -32.8806 -32.8705 -32.8391 -32.8339 -32.8239
   -32.8008 -32.7815 -32.7504 -32.6156 -32.5742 -32.4847 -32.4644 -32.4349
    -5.4446  -4.0847  -4.0549  -3.9895  -3.9027  -3.8490  -3.6859  -3.5367
    -3.4131  -3.3983  -3.3379  -3.3363  -3.2438  -3.2138  -2.7254  -2.7122
    -2.4980  -2.3401  -2.1507  -2.0697  -2.0546  -1.9334  -1.9121  -1.8968
    -1.8252  -1.6898  -1.5495  -1.5320  -1.4656  -1.0889  -0.8767  -0.4694
    -0.3498   0.4440   0.4878   0.5498   0.7187   0.7723   0.8764   0.9027
     1.0963   1.1407   1.1983   1.3767   1.4267   1.4571   1.5091   1.6329
     1.7530   1.9684   2.2717   2.2939   2.3876   2.5733   2.6849

          k = 0.0000 0.0170 0.0000 ( 31638 PWs)   bands (ev):

   -56.6390 -56.5920 -56.5767 -56.5296 -56.5020 -56.4548 -32.9954 -32.9526
   -32.9390 -32.8945 -32.8821 -32.8801 -32.8637 -32.8399 -32.8273 -32.8234
   -32.8000 -32.7823 -32.7514 -32.6150 -32.5749 -32.4918 -32.4715 -32.4419
    -5.3925  -4.0363  -4.0287  -3.9505  -3.8780  -3.8193  -3.6632  -3.5058
    -3.4155  -3.3732  -3.3202  -3.3029  -3.2113  -3.2051  -2.7055  -2.6959
    -2.4971  -2.3208  -2.1617  -2.0610  -2.0524  -1.9635  -1.9397  -1.9050
    -1.8058  -1.6952  -1.5677  -1.5545  -1.4870  -1.1287  -0.9074  -0.5130
    -0.3415   0.4084   0.4164   0.5360   0.5654   0.7345   0.8864   0.9116
     0.9877   1.1362   1.1543   1.2473   1.3741   1.4510   1.5956   1.7562
     1.7917   1.9570   2.1952   2.2222   2.2854   2.4452   2.5668

          k = 0.0000 0.0340 0.0000 ( 31625 PWs)   bands (ev):

   -56.6366 -56.5944 -56.5743 -56.5320 -56.4995 -56.4572 -32.9934 -32.9550
   -32.9366 -32.8968 -32.8784 -32.8625 -32.8443 -32.8421 -32.8217 -32.8080
   -32.7976 -32.7849 -32.7541 -32.6130 -32.5771 -32.5126 -32.4924 -32.4624
    -5.2390  -3.9533  -3.8987  -3.8375  -3.8071  -3.7341  -3.5991  -3.4094
    -3.4088  -3.3279  -3.2482  -3.2211  -3.1759  -3.1158  -2.6555  -2.6413
    -2.4988  -2.2674  -2.1831  -2.1110  -2.0543  -2.0115  -1.9848  -1.8945
    -1.7846  -1.7130  -1.6201  -1.6167  -1.5499  -1.2381  -0.9886  -0.6647
    -0.3210  -0.0687   0.3631   0.3675   0.6101   0.6401   0.6850   0.8048
     0.9260   1.1522   1.1566   1.2255   1.2993   1.4227   1.5646   1.7223
     1.8482   1.9517   2.0208   2.0635   2.1803   2.2068   2.4731

          k = 0.0000 0.0509 0.0000 ( 31616 PWs)   bands (ev):

   -56.6327 -56.5983 -56.5704 -56.5359 -56.4956 -56.4611 -32.9901 -32.9587
   -32.9329 -32.9004 -32.8756 -32.8463 -32.8313 -32.8190 -32.8125 -32.7938
   -32.7889 -32.7770 -32.7584 -32.6099 -32.5805 -32.5456 -32.5255 -32.4949
    -4.9939  -3.8409  -3.7063  -3.7029  -3.6672  -3.5947  -3.4986  -3.4038
    -3.2700  -3.2391  -3.1634  -3.1284  -3.0705  -2.9636  -2.5877  -2.5493
    -2.5150  -2.2391  -2.2341  -2.1709  -2.1631  -2.0003  -1.9576  -1.8891
    -1.7790  -1.7552  -1.7125  -1.6733  -1.6494  -1.3857  -1.1050  -0.9816
    -0.5506  -0.2919  -0.1679   0.2707   0.3889   0.6895   0.6971   0.7696
     0.9905   1.0606   1.1008   1.1833   1.2840   1.3666   1.5125   1.5390
     1.6280   1.8284   1.9303   2.0545   2.0597   2.1767   2.2925

          k = 0.0000 0.0679 0.0000 ( 31604 PWs)   bands (ev):

   -56.6276 -56.6033 -56.5653 -56.5409 -56.4906 -56.4661 -32.9857 -32.9635
   -32.9281 -32.9051 -32.8718 -32.8511 -32.8152 -32.7940 -32.7903 -32.7888
   -32.7713 -32.7637 -32.7365 -32.6059 -32.5882 -32.5849 -32.5683 -32.5369
    -4.6770  -3.7367  -3.5932  -3.5397  -3.4905  -3.3863  -3.3825  -3.3481
    -3.2205  -3.1210  -3.0072  -2.9835  -2.9139  -2.7726  -2.5456  -2.5152
    -2.4359  -2.3967  -2.2906  -2.2584  -2.0828  -2.0049  -1.9219  -1.8966
    -1.8518  -1.8299  -1.7752  -1.7408  -1.7208  -1.5178  -1.4140  -1.2457
    -1.0133  -0.6763  -0.2622   0.0774   0.1706   0.5645   0.7960   0.8557
     0.8985   0.9721   1.0898   1.1623   1.2001   1.2362   1.4660   1.5065
     1.5926   1.7467   1.8561   1.8844   2.0008   2.1127   2.1446

          k = 0.0000 0.0849 0.0000 ( 31576 PWs)   bands (ev):

   -56.6218 -56.6092 -56.5594 -56.5468 -56.4847 -56.4720 -32.9805 -32.9690
   -32.9225 -32.9106 -32.8672 -32.8565 -32.8105 -32.7995 -32.7830 -32.7701
   -32.7423 -32.7228 -32.6890 -32.6378 -32.6179 -32.6010 -32.5900 -32.5853
    -4.3254  -3.7803  -3.4725  -3.4285  -3.3609  -3.3117  -3.2155  -3.2122
    -3.1354  -3.0548  -2.8371  -2.8304  -2.7757  -2.6496  -2.5297  -2.4886
    -2.4255  -2.3617  -2.3277  -2.2566  -2.0813  -2.0461  -2.0041  -1.9408
    -1.9094  -1.8684  -1.8528  -1.7854  -1.7798  -1.6599  -1.5594  -1.4585
    -1.3904  -1.1247  -0.2678  -0.1621   0.1736   0.4684   0.6633   0.7073
     0.9075   0.9879   1.0010   1.1233   1.2688   1.3276   1.4860   1.5650
     1.5917   1.6458   1.8175   1.8419   1.9519   1.9869   2.0188

          k = 0.0000-0.1019 0.0000 ( 31550 PWs)   bands (ev):

   -56.6155 -56.6154 -56.5532 -56.5530 -56.4784 -56.4783 -32.9749 -32.9748
   -32.9166 -32.9165 -32.8620 -32.8619 -32.8052 -32.8051 -32.7766 -32.7766
   -32.6903 -32.6902 -32.6705 -32.6705 -32.6377 -32.6375 -32.5953 -32.5952
    -4.0007  -4.0006  -3.3880  -3.3879  -3.2943  -3.2943  -3.2031  -3.2031
    -2.9790  -2.9790  -2.8018  -2.8018  -2.7169  -2.7169  -2.4971  -2.4971
    -2.3270  -2.3269  -2.2365  -2.2365  -2.1269  -2.1268  -2.0107  -2.0106
    -1.9051  -1.9051  -1.8382  -1.8382  -1.7805  -1.7805  -1.5931  -1.5931
    -1.4037  -1.4037  -0.2707  -0.2707   0.3196   0.3196   0.5945   0.5946
     0.9436   0.9436   1.0622   1.0623   1.3794   1.3794   1.4633   1.4633
     1.6917   1.6918   1.8499   1.8499   1.9019   1.9020   1.9994

          k = 0.0149-0.0082 0.0000 ( 31638 PWs)   bands (ev):

   -56.6390 -56.5920 -56.5767 -56.5296 -56.5020 -56.4548 -32.9954 -32.9526
   -32.9390 -32.8945 -32.8821 -32.8801 -32.8637 -32.8399 -32.8273 -32.8234
   -32.8000 -32.7823 -32.7514 -32.6150 -32.5749 -32.4918 -32.4715 -32.4419
    -5.3925  -4.0363  -4.0287  -3.9505  -3.8780  -3.8193  -3.6632  -3.5058
    -3.4155  -3.3732  -3.3202  -3.3029  -3.2113  -3.2051  -2.7055  -2.6959
    -2.4971  -2.3208  -2.1617  -2.0610  -2.0524  -1.9635  -1.9397  -1.9050
    -1.8058  -1.6952  -1.5677  -1.5545  -1.4870  -1.1287  -0.9074  -0.5130
    -0.3415   0.4084   0.4164   0.5360   0.5654   0.7345   0.8864   0.9116
     0.9877   1.1362   1.1543   1.2473   1.3741   1.4510   1.5956   1.7562
     1.7917   1.9569   2.1952   2.2222   2.2854   2.4452   2.5655

          k = 0.0149 0.0088 0.0000 ( 31607 PWs)   bands (ev):

   -56.6398 -56.5912 -56.5775 -56.5288 -56.5028 -56.4539 -32.9963 -32.9518
   -32.9397 -32.8937 -32.8890 -32.8812 -32.8705 -32.8390 -32.8340 -32.8246
   -32.8004 -32.7816 -32.7509 -32.6157 -32.5742 -32.4847 -32.4644 -32.4349
    -5.3924  -4.0472  -4.0285  -3.9665  -3.8801  -3.8170  -3.6676  -3.5263
    -3.3865  -3.3673  -3.3183  -3.3165  -3.2266  -3.2003  -2.7170  -2.6883
    -2.4989  -2.3287  -2.1757  -2.0748  -2.0203  -1.9268  -1.9167  -1.8922
    -1.8021  -1.6946  -1.5581  -1.5181  -1.4493  -1.0929  -0.8740  -0.4741
    -0.3619   0.2884   0.5058   0.5255   0.6236   0.6819   0.8492   0.8878
     1.0812   1.0838   1.1681   1.2634   1.3636   1.4293   1.4578   1.6979
     1.7790   1.9539   2.1037   2.2591   2.3254   2.3620   2.6678

          k = 0.0149 0.0258 0.0000 ( 31637 PWs)   bands (ev):

   -56.6390 -56.5920 -56.5767 -56.5296 -56.5020 -56.4547 -32.9958 -32.9526
   -32.9389 -32.8945 -32.8827 -32.8811 -32.8639 -32.8399 -32.8276 -32.8247
   -32.7994 -32.7825 -32.7523 -32.6151 -32.5750 -32.4918 -32.4716 -32.4420
    -5.2895  -3.9782  -3.9694  -3.9031  -3.8349  -3.7557  -3.6265  -3.4860
    -3.3716  -3.3155  -3.2844  -3.2551  -3.1780  -3.1778  -2.7058  -2.6338
    -2.4990  -2.2990  -2.1916  -2.1040  -1.9791  -1.9620  -1.9258  -1.9022
    -1.7694  -1.7033  -1.5804  -1.5288  -1.4575  -1.1360  -0.9039  -0.5233
    -0.3631   0.1587   0.2817   0.4893   0.5573   0.5640   0.8136   0.8404
     0.9180   1.0485   1.0964   1.2139   1.2910   1.3683   1.4275   1.7598
     1.7939   1.8995   2.0027   2.1161   2.1353   2.2611   2.5524

          k = 0.0149 0.0427 0.0000 ( 31613 PWs)   bands (ev):

   -56.6365 -56.5944 -56.5742 -56.5320 -56.4995 -56.4572 -32.9939 -32.9550
   -32.9365 -32.8968 -32.8797 -32.8633 -32.8444 -32.8420 -32.8234 -32.8083
   -32.7968 -32.7850 -32.7553 -32.6131 -32.5773 -32.5126 -32.4925 -32.4625
    -5.0898  -3.8851  -3.8246  -3.7615  -3.7509  -3.6418  -3.5422  -3.3830
    -3.3665  -3.2538  -3.1974  -3.1517  -3.1307  -3.0709  -2.6644  -2.5491
    -2.5025  -2.2406  -2.2071  -2.1702  -2.0546  -1.9662  -1.9353  -1.9073
    -1.7397  -1.7262  -1.6170  -1.5877  -1.5165  -1.2454  -0.9897  -0.6912
    -0.3514  -0.2159   0.0318   0.2468   0.4887   0.5185   0.6322   0.7247
     0.8751   1.0423   1.0559   1.1518   1.2223   1.3304   1.3410   1.5083
     1.6681   1.8878   1.9616   2.0426   2.0506   2.1541   2.3710

          k = 0.0149 0.0597 0.0000 ( 31584 PWs)   bands (ev):

   -56.6326 -56.5983 -56.5703 -56.5359 -56.4956 -56.4610 -32.9907 -32.9587
   -32.9328 -32.9004 -32.8771 -32.8460 -32.8321 -32.8207 -32.8127 -32.7928
   -32.7888 -32.7773 -32.7598 -32.6100 -32.5807 -32.5455 -32.5256 -32.4949
    -4.8067  -3.7663  -3.6503  -3.6420  -3.5817  -3.4900  -3.4078  -3.3669
    -3.2114  -3.1921  -3.1178  -3.0683  -2.9859  -2.9168  -2.5989  -2.5219
    -2.4483  -2.2820  -2.2453  -2.1942  -2.1443  -1.9965  -1.9174  -1.8926
    -1.7751  -1.7570  -1.6669  -1.6401  -1.6217  -1.3829  -1.1167  -1.0583
    -0.6855  -0.3703  -0.2321  -0.0285   0.1805   0.5612   0.5667   0.7215
     0.9096   0.9483   1.0346   1.0423   1.1494   1.2043   1.3045   1.3738
     1.6253   1.7670   1.8957   1.9740   2.0431   2.0650   2.2786

          k = 0.0149 0.0767 0.0000 ( 31567 PWs)   bands (ev):

   -56.6276 -56.6033 -56.5652 -56.5409 -56.4906 -56.4661 -32.9863 -32.9634
   -32.9280 -32.9051 -32.8734 -32.8505 -32.8168 -32.7936 -32.7911 -32.7878
   -32.7715 -32.7652 -32.7368 -32.6060 -32.5880 -32.5850 -32.5684 -32.5369
    -4.4666  -3.7067  -3.5527  -3.4849  -3.4056  -3.3330  -3.3298  -3.2224
    -3.1711  -3.0699  -2.9940  -2.9326  -2.8293  -2.7333  -2.5484  -2.5259
    -2.4079  -2.3505  -2.3430  -2.2707  -2.0670  -2.0127  -1.9362  -1.8840
    -1.8590  -1.8294  -1.7671  -1.7019  -1.6700  -1.5072  -1.4829  -1.2717
    -1.1304  -0.7435  -0.4465  -0.0638   0.0620   0.4481   0.5083   0.7079
     0.8098   0.9305   1.0253   1.0705   1.0900   1.2372   1.3959   1.4084
     1.5918   1.6289   1.8757   1.9125   1.9846   1.9995   2.1029

          k = 0.0149-0.1100 0.0000 ( 31524 PWs)   bands (ev):

   -56.6217 -56.6092 -56.5594 -56.5468 -56.4847 -56.4720 -32.9810 -32.9688
   -32.9224 -32.9106 -32.8686 -32.8556 -32.8117 -32.7987 -32.7819 -32.7715
   -32.7430 -32.7230 -32.6892 -32.6374 -32.6178 -32.6010 -32.5900 -32.5852
    -4.1182  -3.8473  -3.4259  -3.3940  -3.3060  -3.2724  -3.1981  -3.1504
    -3.0931  -3.0029  -2.8743  -2.8045  -2.7338  -2.6294  -2.5061  -2.4806
    -2.4436  -2.3560  -2.3091  -2.2363  -2.0911  -2.0871  -1.9915  -1.9640
    -1.9496  -1.8595  -1.8211  -1.7781  -1.7742  -1.6421  -1.5577  -1.5007
    -1.4261  -1.2246  -0.4680  -0.1598   0.2592   0.2964   0.4125   0.6660
     0.8688   0.9125   1.0510   1.0937   1.1906   1.4045   1.4084   1.4580
     1.6001   1.6773   1.8176   1.9099   1.9142   1.9622   1.9708

          k = 0.0149-0.0931 0.0000 ( 31570 PWs)   bands (ev):

   -56.6155 -56.6154 -56.5532 -56.5530 -56.4784 -56.4783 -32.9752 -32.9745
   -32.9166 -32.9165 -32.8631 -32.8609 -32.8060 -32.8040 -32.7780 -32.7755
   -32.6908 -32.6897 -32.6706 -32.6705 -32.6378 -32.6375 -32.5953 -32.5952
    -4.1289  -3.8371  -3.3917  -3.3731  -3.3049  -3.2837  -3.2121  -3.2018
    -3.0189  -2.9546  -2.8145  -2.7904  -2.7176  -2.7077  -2.5264  -2.4458
    -2.3523  -2.3185  -2.2590  -2.2279  -2.1433  -2.1187  -2.0165  -2.0138
    -1.9255  -1.9203  -1.8476  -1.8439  -1.7806  -1.7416  -1.6116  -1.6000
    -1.4519  -1.3813  -0.3367  -0.1725   0.2088   0.3323   0.5839   0.7721
     0.8562   1.0102   1.0258   1.1567   1.3271   1.3649   1.4414   1.5353
     1.6292   1.7301   1.8190   1.8488   1.9106   1.9794   1.9958

          k = 0.0149-0.0761 0.0000 ( 31598 PWs)   bands (ev):

   -56.6218 -56.6091 -56.5595 -56.5468 -56.4847 -56.4721 -32.9801 -32.9692
   -32.9225 -32.9106 -32.8661 -32.8573 -32.8091 -32.7999 -32.7842 -32.7690
   -32.7417 -32.7227 -32.6888 -32.6381 -32.6179 -32.6010 -32.5899 -32.5854
    -4.4727  -3.7008  -3.4941  -3.4486  -3.4017  -3.3626  -3.2832  -3.2243
    -3.1690  -3.0991  -2.8608  -2.8144  -2.8024  -2.6759  -2.5496  -2.4823
    -2.4378  -2.3846  -2.3001  -2.2687  -2.0681  -2.0566  -2.0012  -1.9291
    -1.9112  -1.9030  -1.8632  -1.8040  -1.7810  -1.6543  -1.6147  -1.3689
    -1.3642  -1.1112  -0.2065  -0.0711   0.2884   0.4076   0.8559   0.8924
     0.9443   0.9935   1.1216   1.1913   1.2022   1.3815   1.5327   1.5455
     1.6418   1.6848   1.7523   1.7750   1.9881   2.0819   2.1386

          k = 0.0149-0.0591 0.0000 ( 31625 PWs)   bands (ev):

   -56.6277 -56.6033 -56.5654 -56.5409 -56.4906 -56.4662 -32.9853 -32.9636
   -32.9281 -32.9051 -32.8708 -32.8516 -32.8138 -32.7941 -32.7898 -32.7897
   -32.7711 -32.7627 -32.7363 -32.6058 -32.5884 -32.5848 -32.5683 -32.5369
    -4.8093  -3.7559  -3.6087  -3.5698  -3.5445  -3.4821  -3.4212  -3.3899
    -3.2592  -3.1502  -3.0204  -3.0181  -2.9687  -2.8043  -2.5455  -2.5404
    -2.4758  -2.3927  -2.2473  -2.2280  -2.0873  -2.0030  -1.9602  -1.9255
    -1.8329  -1.8150  -1.8122  -1.7645  -1.7526  -1.5347  -1.3541  -1.2311
    -0.9183  -0.6648  -0.2511   0.2181   0.4484   0.5923   0.8479   0.8902
     0.9921   1.0951   1.1389   1.2243   1.3274   1.3638   1.5062   1.5592
     1.6028   1.7303   1.8365   1.9682   1.9748   2.2568   2.2982

          k = 0.0149-0.0421 0.0000 ( 31580 PWs)   bands (ev):

   -56.6327 -56.5983 -56.5704 -56.5359 -56.4956 -56.4611 -32.9897 -32.9587
   -32.9329 -32.9004 -32.8747 -32.8465 -32.8308 -32.8178 -32.8124 -32.7945
   -32.7888 -32.7768 -32.7576 -32.6098 -32.5804 -32.5456 -32.5254 -32.4948
    -5.0907  -3.8792  -3.7502  -3.7308  -3.7141  -3.6603  -3.5319  -3.4259
    -3.3121  -3.2529  -3.1868  -3.1628  -3.1140  -2.9893  -2.6240  -2.5680
    -2.5115  -2.2297  -2.2255  -2.1536  -2.1374  -2.0264  -2.0067  -1.8752
    -1.8087  -1.7392  -1.7367  -1.6854  -1.6642  -1.3856  -1.0994  -0.9478
    -0.4720  -0.2845  -0.1309   0.4957   0.5540   0.7236   0.7661   0.7696
     0.9696   1.1368   1.1463   1.2659   1.3601   1.4336   1.6460   1.6503
     1.7380   1.8032   1.9221   2.0491   2.1117   2.3090   2.5961

          k = 0.0149-0.0252 0.0000 ( 31617 PWs)   bands (ev):

   -56.6366 -56.5944 -56.5743 -56.5320 -56.4995 -56.4572 -32.9932 -32.9550
   -32.9366 -32.8968 -32.8779 -32.8622 -32.8443 -32.8421 -32.8211 -32.8079
   -32.7980 -32.7848 -32.7537 -32.6130 -32.5770 -32.5126 -32.4924 -32.4623
    -5.2899  -3.9772  -3.9326  -3.8610  -3.8267  -3.7647  -3.6172  -3.4259
    -3.4171  -3.3535  -3.2668  -3.2459  -3.1890  -3.1309  -2.6826  -2.6450
    -2.4970  -2.2776  -2.1581  -2.0854  -2.0595  -2.0515  -2.0009  -1.8866
    -1.8052  -1.7068  -1.6322  -1.6130  -1.5620  -1.2354  -0.9883  -0.6564
    -0.3131  -0.0192   0.4136   0.5377   0.5899   0.6533   0.7682   0.8216
     0.9294   1.1878   1.2412   1.2481   1.2776   1.4460   1.6988   1.7292
     1.8608   1.9675   2.0717   2.1472   2.1693   2.3138   2.6258

          k = 0.0297-0.0164 0.0000 ( 31625 PWs)   bands (ev):

   -56.6366 -56.5944 -56.5743 -56.5320 -56.4995 -56.4572 -32.9934 -32.9550
   -32.9366 -32.8968 -32.8784 -32.8625 -32.8443 -32.8421 -32.8217 -32.8080
   -32.7976 -32.7849 -32.7541 -32.6130 -32.5771 -32.5126 -32.4924 -32.4624
    -5.2390  -3.9533  -3.8987  -3.8375  -3.8071  -3.7341  -3.5991  -3.4094
    -3.4088  -3.3279  -3.2482  -3.2211  -3.1759  -3.1158  -2.6555  -2.6413
    -2.4988  -2.2674  -2.1831  -2.1110  -2.0543  -2.0115  -1.9848  -1.8945
    -1.7846  -1.7130  -1.6201  -1.6167  -1.5499  -1.2381  -0.9886  -0.6647
    -0.3210  -0.0687   0.3631   0.3675   0.6101   0.6401   0.6850   0.8048
     0.9261   1.1522   1.1566   1.2255   1.2993   1.4227   1.5646   1.7223
     1.8482   1.9517   2.0208   2.0635   2.1804   2.2068   2.4727

          k = 0.0297 0.0006 0.0000 ( 31637 PWs)   bands (ev):

   -56.6390 -56.5920 -56.5767 -56.5296 -56.5020 -56.4547 -32.9958 -32.9526
   -32.9389 -32.8945 -32.8827 -32.8811 -32.8639 -32.8399 -32.8276 -32.8247
   -32.7994 -32.7825 -32.7523 -32.6151 -32.5750 -32.4918 -32.4716 -32.4420
    -5.2895  -3.9782  -3.9694  -3.9031  -3.8349  -3.7557  -3.6265  -3.4860
    -3.3716  -3.3155  -3.2844  -3.2551  -3.1780  -3.1778  -2.7058  -2.6338
    -2.4990  -2.2990  -2.1916  -2.1040  -1.9791  -1.9620  -1.9258  -1.9022
    -1.7694  -1.7033  -1.5804  -1.5288  -1.4575  -1.1360  -0.9039  -0.5233
    -0.3631   0.1587   0.2817   0.4893   0.5573   0.5640   0.8136   0.8404
     0.9180   1.0485   1.0964   1.2139   1.2910   1.3682   1.4275   1.7598
     1.7939   1.8995   2.0027   2.1161   2.1353   2.2611   2.6475

          k = 0.0297 0.0176 0.0000 ( 31601 PWs)   bands (ev):

   -56.6397 -56.5912 -56.5775 -56.5287 -56.5028 -56.4539 -32.9969 -32.9518
   -32.9396 -32.8937 -32.8899 -32.8826 -32.8707 -32.8390 -32.8344 -32.8264
   -32.7997 -32.7818 -32.7522 -32.6158 -32.5744 -32.4847 -32.4646 -32.4350
    -5.2395  -3.9637  -3.9551  -3.8900  -3.8152  -3.7210  -3.6149  -3.4920
    -3.3166  -3.2819  -3.2609  -3.2552  -3.1734  -3.1546  -2.7300  -2.5858
    -2.4994  -2.2975  -2.1961  -2.1278  -1.9654  -1.9450  -1.8865  -1.8629
    -1.7521  -1.7012  -1.5736  -1.4805  -1.4031  -1.1039  -0.8666  -0.4879
    -0.3983  -0.0422   0.3715   0.4024   0.4577   0.5184   0.7682   0.8457
     0.9495   0.9591   1.0440   1.1125   1.2128   1.2586   1.4044   1.6895
     1.7473   1.8203   1.8737   1.9930   2.1732   2.2754   2.6187

          k = 0.0297 0.0345 0.0000 ( 31594 PWs)   bands (ev):

   -56.6389 -56.5920 -56.5766 -56.5296 -56.5019 -56.4547 -32.9965 -32.9527
   -32.9387 -32.8944 -32.8837 -32.8829 -32.8641 -32.8398 -32.8280 -32.8266
   -32.7986 -32.7826 -32.7539 -32.6153 -32.5753 -32.4919 -32.4718 -32.4421
    -5.0915  -3.8905  -3.8888  -3.7948  -3.7534  -3.6327  -3.5575  -3.4381
    -3.3015  -3.2226  -3.2041  -3.1629  -3.1165  -3.1079  -2.7214  -2.5099
    -2.4990  -2.2614  -2.2037  -2.1712  -1.9999  -1.9162  -1.9117  -1.8577
    -1.7190  -1.7096  -1.5805  -1.4856  -1.4041  -1.1490  -0.8979  -0.5436
    -0.4376  -0.1984   0.0349   0.3047   0.3602   0.5264   0.6445   0.7378
     0.7928   0.9059   0.9956   1.0994   1.1152   1.1548   1.3186   1.4278
     1.6755   1.7574   1.8435   1.9428   2.1606   2.2140   2.6054

          k = 0.0297 0.0515 0.0000 ( 31555 PWs)   bands (ev):

   -56.6364 -56.5944 -56.5741 -56.5320 -56.4995 -56.4571 -32.9946 -32.9550
   -32.9363 -32.8966 -32.8817 -32.8644 -32.8445 -32.8420 -32.8252 -32.8087
   -32.7960 -32.7849 -32.7571 -32.6133 -32.5775 -32.5126 -32.4927 -32.4626
    -4.8542  -3.7870  -3.7560  -3.6622  -3.6442  -3.5135  -3.4404  -3.3256
    -3.3118  -3.1420  -3.1246  -3.0772  -3.0240  -2.9961  -2.6805  -2.5052
    -2.4217  -2.2414  -2.2252  -2.1937  -2.0750  -1.9618  -1.8990  -1.8919
    -1.7402  -1.6982  -1.5786  -1.5496  -1.4709  -1.2554  -0.9932  -0.7459
    -0.5595  -0.4308  -0.1977   0.0819   0.2471   0.3342   0.5716   0.5882
     0.7578   0.8734   0.9351   1.0107   1.0493   1.0751   1.2075   1.2301
     1.6307   1.6626   1.8685   1.9201   2.0812   2.1621   2.3545

          k = 0.0297 0.0685 0.0000 ( 31533 PWs)   bands (ev):

   -56.6325 -56.5983 -56.5702 -56.5359 -56.4956 -56.4610 -32.9914 -32.9586
   -32.9326 -32.9002 -32.8791 -32.8457 -32.8330 -32.8223 -32.8129 -32.7921
   -32.7884 -32.7777 -32.7616 -32.6101 -32.5808 -32.5454 -32.5257 -32.4950
    -4.5449  -3.6657  -3.5796  -3.5744  -3.4907  -3.3983  -3.3238  -3.2489
    -3.1562  -3.1026  -3.0545  -2.9965  -2.8704  -2.8607  -2.6113  -2.5360
    -2.3403  -2.3318  -2.2593  -2.2121  -2.1131  -1.9966  -1.9497  -1.8639
    -1.7864  -1.7458  -1.6442  -1.5911  -1.5754  -1.3833  -1.1883  -1.1340
    -0.8239  -0.6932  -0.3289  -0.0640  -0.0420   0.2564   0.3938   0.6504
     0.6643   0.8323   0.8806   1.0000   1.0157   1.1056   1.2408   1.2659
     1.5158   1.6307   1.8785   1.9294   1.9894   2.0859   2.1792

          k = 0.0297-0.1182 0.0000 ( 31508 PWs)   bands (ev):

   -56.6275 -56.6033 -56.5652 -56.5409 -56.4906 -56.4660 -32.9869 -32.9633
   -32.9278 -32.9050 -32.8751 -32.8501 -32.8180 -32.7930 -32.7918 -32.7870
   -32.7717 -32.7669 -32.7371 -32.6060 -32.5878 -32.5852 -32.5684 -32.5369
    -4.1971  -3.6724  -3.4909  -3.4248  -3.3152  -3.2918  -3.2742  -3.1282
    -3.0806  -3.0281  -2.9810  -2.8626  -2.7321  -2.7102  -2.5576  -2.5261
    -2.4137  -2.3637  -2.3203  -2.2565  -2.0542  -2.0440  -1.9750  -1.8949
    -1.8576  -1.8222  -1.7649  -1.6867  -1.6409  -1.5750  -1.4834  -1.3000
    -1.2410  -0.8750  -0.7245  -0.1290   0.1243   0.1862   0.2162   0.6086
     0.7680   0.8232   0.9415   0.9809   1.1223   1.2879   1.3197   1.3630
     1.4050   1.6704   1.8791   1.9238   1.9386   2.0025   2.1280

          k = 0.0297-0.1013 0.0000 ( 31559 PWs)   bands (ev):

   -56.6216 -56.6092 -56.5593 -56.5469 -56.4847 -56.4719 -32.9814 -32.9686
   -32.9223 -32.9105 -32.8699 -32.8551 -32.8126 -32.7978 -32.7811 -32.7730
   -32.7436 -32.7231 -32.6894 -32.6371 -32.6178 -32.6011 -32.5901 -32.5851
    -3.8931  -3.8737  -3.3681  -3.3627  -3.2540  -3.2413  -3.1886  -3.1151
    -3.0514  -2.9707  -2.9360  -2.7609  -2.7017  -2.6113  -2.4870  -2.4381
    -2.4363  -2.3566  -2.3283  -2.2018  -2.1575  -2.1029  -2.0737  -1.9643
    -1.9377  -1.8477  -1.8228  -1.7727  -1.7615  -1.6675  -1.5892  -1.5329
    -1.4645  -1.3434  -0.5741  -0.1348   0.0921   0.1310   0.4563   0.6878
     0.8354   0.8927   0.9881   1.1050   1.2356   1.3206   1.3908   1.4412
     1.6208   1.7109   1.7842   1.9233   1.9344   1.9663   2.0063

          k = 0.0297-0.0843 0.0000 ( 31583 PWs)   bands (ev):

   -56.6155 -56.6154 -56.5532 -56.5530 -56.4784 -56.4783 -32.9755 -32.9742
   -32.9165 -32.9164 -32.8640 -32.8603 -32.8064 -32.8030 -32.7791 -32.7747
   -32.6912 -32.6894 -32.6707 -32.6704 -32.6379 -32.6374 -32.5953 -32.5952
    -4.2097  -3.6595  -3.4105  -3.3486  -3.3103  -3.2858  -3.2252  -3.2107
    -3.0545  -2.9450  -2.8263  -2.7835  -2.7129  -2.6861  -2.5121  -2.4557
    -2.3631  -2.3139  -2.2940  -2.2173  -2.1493  -2.1324  -2.0249  -2.0054
    -1.9572  -1.9411  -1.8893  -1.8451  -1.7735  -1.7155  -1.6309  -1.5936
    -1.4616  -1.4448  -0.2629  -0.1770   0.1280   0.2307   0.7811   0.8064
     0.9320   0.9904   1.0263   1.2604   1.2640   1.3745   1.4453   1.5541
     1.6006   1.6562   1.7842   1.9444   1.9488   1.9934   2.0103

          k = 0.0297-0.0673 0.0000 ( 31617 PWs)   bands (ev):

   -56.6219 -56.6091 -56.5595 -56.5467 -56.4847 -56.4721 -32.9799 -32.9694
   -32.9225 -32.9105 -32.8655 -32.8578 -32.8082 -32.8001 -32.7850 -32.7684
   -32.7413 -32.7226 -32.6887 -32.6383 -32.6179 -32.6010 -32.5898 -32.5854
    -4.5489  -3.6362  -3.4825  -3.4527  -3.4277  -3.4216  -3.3294  -3.2334
    -3.1874  -3.1182  -2.8744  -2.8336  -2.7849  -2.6986  -2.5600  -2.4905
    -2.4501  -2.4165  -2.2800  -2.2353  -2.0817  -2.0467  -1.9769  -1.9518
    -1.9353  -1.9095  -1.8961  -1.8287  -1.7751  -1.6427  -1.6318  -1.3579
    -1.2933  -1.1480  -0.2231   0.0576   0.3038   0.4243   0.8907   0.9532
     1.0356   1.0944   1.1713   1.1728   1.2726   1.4380   1.4903   1.5425
     1.6314   1.6984   1.7377   1.7553   1.9721   2.1249   2.2243

          k = 0.0297-0.0503 0.0000 ( 31643 PWs)   bands (ev):

   -56.6277 -56.6033 -56.5654 -56.5409 -56.4906 -56.4662 -32.9852 -32.9637
   -32.9281 -32.9051 -32.8704 -32.8518 -32.8132 -32.7942 -32.7902 -32.7895
   -32.7711 -32.7624 -32.7362 -32.6058 -32.5885 -32.5848 -32.5683 -32.5369
    -4.8543  -3.7623  -3.6106  -3.5780  -3.5498  -3.5355  -3.4376  -3.4011
    -3.2738  -3.1579  -3.0343  -3.0222  -2.9875  -2.8160  -2.5673  -2.5458
    -2.4755  -2.3921  -2.2413  -2.1969  -2.0822  -2.0026  -1.9963  -1.9265
    -1.8511  -1.8235  -1.8007  -1.7694  -1.7640  -1.5385  -1.3341  -1.2262
    -0.8799  -0.6678  -0.2551   0.2743   0.5967   0.5983   0.8327   0.8917
     0.9840   1.1249   1.1937   1.2655   1.4099   1.4364   1.5025   1.5319
     1.5943   1.7448   1.8474   1.9492   1.9984   2.2831   2.3881

          k = 0.0297-0.0334 0.0000 ( 31580 PWs)   bands (ev):

   -56.6327 -56.5983 -56.5704 -56.5359 -56.4956 -56.4611 -32.9897 -32.9587
   -32.9329 -32.9004 -32.8747 -32.8465 -32.8308 -32.8178 -32.8124 -32.7945
   -32.7888 -32.7768 -32.7576 -32.6098 -32.5804 -32.5456 -32.5254 -32.4948
    -5.0907  -3.8792  -3.7502  -3.7308  -3.7141  -3.6603  -3.5319  -3.4259
    -3.3121  -3.2529  -3.1868  -3.1628  -3.1140  -2.9893  -2.6240  -2.5680
    -2.5115  -2.2297  -2.2255  -2.1536  -2.1374  -2.0264  -2.0067  -1.8752
    -1.8087  -1.7392  -1.7367  -1.6854  -1.6642  -1.3856  -1.0994  -0.9478
    -0.4720  -0.2845  -0.1309   0.4957   0.5540   0.7236   0.7661   0.7696
     0.9696   1.1368   1.1463   1.2659   1.3601   1.4336   1.6460   1.6503
     1.7380   1.8032   1.9221   2.0491   2.1119   2.3087   2.5961

          k = 0.0446-0.0246 0.0000 ( 31616 PWs)   bands (ev):

   -56.6327 -56.5983 -56.5704 -56.5359 -56.4956 -56.4611 -32.9901 -32.9587
   -32.9329 -32.9004 -32.8756 -32.8463 -32.8313 -32.8190 -32.8125 -32.7938
   -32.7889 -32.7770 -32.7584 -32.6099 -32.5805 -32.5456 -32.5255 -32.4949
    -4.9939  -3.8409  -3.7063  -3.7029  -3.6672  -3.5947  -3.4986  -3.4038
    -3.2700  -3.2391  -3.1634  -3.1284  -3.0705  -2.9636  -2.5877  -2.5493
    -2.5150  -2.2391  -2.2341  -2.1709  -2.1631  -2.0003  -1.9576  -1.8891
    -1.7790  -1.7552  -1.7125  -1.6733  -1.6494  -1.3857  -1.1050  -0.9816
    -0.5506  -0.2919  -0.1679   0.2707   0.3889   0.6895   0.6971   0.7696
     0.9905   1.0606   1.1008   1.1833   1.2840   1.3666   1.5125   1.5390
     1.6280   1.8284   1.9303   2.0545   2.0597   2.1768   2.2925

          k = 0.0446-0.0076 0.0000 ( 31613 PWs)   bands (ev):

   -56.6365 -56.5944 -56.5742 -56.5320 -56.4995 -56.4572 -32.9939 -32.9550
   -32.9365 -32.8968 -32.8797 -32.8633 -32.8444 -32.8420 -32.8234 -32.8083
   -32.7968 -32.7850 -32.7553 -32.6131 -32.5773 -32.5126 -32.4925 -32.4625
    -5.0898  -3.8851  -3.8246  -3.7615  -3.7509  -3.6418  -3.5422  -3.3830
    -3.3665  -3.2538  -3.1974  -3.1517  -3.1307  -3.0709  -2.6644  -2.5491
    -2.5025  -2.2406  -2.2071  -2.1702  -2.0546  -1.9662  -1.9353  -1.9073
    -1.7397  -1.7262  -1.6170  -1.5877  -1.5165  -1.2454  -0.9897  -0.6912
    -0.3514  -0.2159   0.0318   0.2468   0.4887   0.5185   0.6322   0.7247
     0.8751   1.0423   1.0559   1.1518   1.2223   1.3304   1.3410   1.5083
     1.6681   1.8878   1.9616   2.0426   2.0506   2.1541   2.3726

          k = 0.0446 0.0094 0.0000 ( 31594 PWs)   bands (ev):

   -56.6389 -56.5920 -56.5766 -56.5296 -56.5019 -56.4547 -32.9965 -32.9527
   -32.9387 -32.8944 -32.8837 -32.8829 -32.8641 -32.8398 -32.8280 -32.8266
   -32.7986 -32.7826 -32.7539 -32.6153 -32.5753 -32.4919 -32.4718 -32.4421
    -5.0915  -3.8905  -3.8888  -3.7948  -3.7534  -3.6327  -3.5575  -3.4381
    -3.3015  -3.2226  -3.2041  -3.1629  -3.1165  -3.1079  -2.7214  -2.5099
    -2.4990  -2.2614  -2.2037  -2.1712  -1.9999  -1.9162  -1.9117  -1.8577
    -1.7190  -1.7096  -1.5805  -1.4856  -1.4041  -1.1490  -0.8979  -0.5436
    -0.4376  -0.1984   0.0349   0.3047   0.3602   0.5264   0.6445   0.7378
     0.7928   0.9059   0.9956   1.0994   1.1152   1.1548   1.3186   1.4278
     1.6755   1.7574   1.8435   1.9428   2.1605   2.2140   2.4884

          k = 0.0446 0.0263 0.0000 ( 31592 PWs)   bands (ev):

   -56.6396 -56.5912 -56.5773 -56.5287 -56.5028 -56.4538 -32.9977 -32.9519
   -32.9394 -32.8935 -32.8911 -32.8848 -32.8710 -32.8390 -32.8349 -32.8283
   -32.7990 -32.7818 -32.7541 -32.6161 -32.5747 -32.4848 -32.4647 -32.4352
    -4.9992  -3.8934  -3.8547  -3.7590  -3.7142  -3.5778  -3.5422  -3.4137
    -3.2304  -3.2086  -3.1430  -3.1347  -3.0767  -3.0701  -2.7468  -2.4952
    -2.4451  -2.2548  -2.2009  -2.1966  -2.0243  -1.9057  -1.8700  -1.7942
    -1.7058  -1.7031  -1.5521  -1.4295  -1.3360  -1.1193  -0.8560  -0.6005
    -0.5090  -0.3226   0.0320   0.1759   0.2360   0.4583   0.6401   0.7108
     0.7950   0.7972   0.8082   0.9663   0.9891   1.1068   1.2487   1.3761
     1.5198   1.6419   1.7269   1.9237   2.1734   2.2648   2.5063

          k = 0.0446 0.0433 0.0000 ( 31564 PWs)   bands (ev):

   -56.6388 -56.5920 -56.5765 -56.5296 -56.5019 -56.4546 -32.9974 -32.9528
   -32.9385 -32.8942 -32.8851 -32.8848 -32.8644 -32.8398 -32.8285 -32.8284
   -32.7980 -32.7825 -32.7559 -32.6155 -32.5755 -32.4919 -32.4720 -32.4422
    -4.8178  -3.8296  -3.7869  -3.6643  -3.6393  -3.5101  -3.4555  -3.3334
    -3.2305  -3.1428  -3.0706  -3.0393  -3.0128  -2.9933  -2.7362  -2.4941
    -2.3724  -2.2456  -2.2174  -2.2022  -2.0605  -1.8964  -1.8951  -1.7967
    -1.7224  -1.6840  -1.5227  -1.4393  -1.3403  -1.1653  -0.8953  -0.8071
    -0.5735  -0.3044  -0.2750   0.0281   0.1295   0.4362   0.4532   0.6040
     0.6086   0.7710   0.7976   0.9096   0.9267   1.0081   1.0706   1.1591
     1.4919   1.6072   1.7025   1.9020   2.1113   2.2625   2.4530

          k = 0.0446 0.0603 0.0000 ( 31550 PWs)   bands (ev):

   -56.6363 -56.5944 -56.5740 -56.5320 -56.4995 -56.4570 -32.9954 -32.9551
   -32.9361 -32.8965 -32.8838 -32.8654 -32.8448 -32.8420 -32.8268 -32.8091
   -32.7954 -32.7846 -32.7590 -32.6135 -32.5777 -32.5126 -32.4928 -32.4627
    -4.5585  -3.7035  -3.6898  -3.5432  -3.5379  -3.4302  -3.3070  -3.2625
    -3.2021  -3.0629  -3.0080  -2.9956  -2.8966  -2.8883  -2.6873  -2.5119
    -2.3108  -2.2964  -2.2318  -2.1557  -2.1169  -1.9522  -1.8792  -1.8751
    -1.7528  -1.6793  -1.5307  -1.5041  -1.4358  -1.2771  -1.0144  -0.9445
    -0.8655  -0.6108  -0.1937  -0.1172   0.0191   0.0598   0.4137   0.4788
     0.5555   0.6429   0.8018   0.8430   0.9218   0.9441   1.1190   1.1316
     1.3931   1.6038   1.7677   1.8897   2.0405   2.1563   2.2837

          k = 0.0446-0.1264 0.0000 ( 31499 PWs)   bands (ev):

   -56.6324 -56.5983 -56.5701 -56.5359 -56.4956 -56.4609 -32.9920 -32.9586
   -32.9324 -32.9001 -32.8809 -32.8456 -32.8339 -32.8235 -32.8132 -32.7916
   -32.7878 -32.7781 -32.7633 -32.6103 -32.5810 -32.5453 -32.5258 -32.4951
    -4.2417  -3.5707  -3.5348  -3.4945  -3.4193  -3.3374  -3.2821  -3.1187
    -3.0475  -3.0350  -3.0135  -2.8938  -2.8259  -2.7506  -2.6040  -2.5766
    -2.3360  -2.3004  -2.2524  -2.2318  -2.0881  -2.0000  -1.9551  -1.8491
    -1.7937  -1.7460  -1.6617  -1.5878  -1.5138  -1.4328  -1.3364  -1.1440
    -0.9879  -0.9248  -0.4662  -0.1661  -0.1357   0.0590   0.1710   0.4740
     0.5870   0.7144   0.7576   0.9127   1.0018   1.0964   1.1985   1.2037
     1.3081   1.6433   1.8345   1.8940   1.9751   2.0642   2.2258

          k = 0.0446-0.1095 0.0000 ( 31529 PWs)   bands (ev):

   -56.6274 -56.6033 -56.5651 -56.5410 -56.4906 -56.4660 -32.9873 -32.9632
   -32.9277 -32.9048 -32.8765 -32.8499 -32.8188 -32.7928 -32.7919 -32.7866
   -32.7718 -32.7684 -32.7373 -32.6061 -32.5876 -32.5853 -32.5684 -32.5369
    -3.9086  -3.6445  -3.4301  -3.4109  -3.2784  -3.2481  -3.2049  -3.1063
    -3.0400  -2.9991  -2.9439  -2.7694  -2.7232  -2.6428  -2.5703  -2.4978
    -2.4096  -2.3857  -2.3275  -2.2099  -2.0955  -2.0570  -2.0154  -1.8928
    -1.8837  -1.8220  -1.7635  -1.6900  -1.6813  -1.5827  -1.5392  -1.3233
    -1.3178  -0.9943  -0.8401  -0.1665  -0.1408   0.0259   0.3081   0.5347
     0.7172   0.7849   0.8491   0.9351   1.1884   1.2363   1.2890   1.3070
     1.3944   1.6928   1.8544   1.9174   1.9616   2.0072   2.1393

          k = 0.0446-0.0925 0.0000 ( 31538 PWs)   bands (ev):

   -56.6216 -56.6092 -56.5593 -56.5469 -56.4847 -56.4719 -32.9817 -32.9685
   -32.9222 -32.9104 -32.8708 -32.8548 -32.8130 -32.7971 -32.7807 -32.7740
   -32.7439 -32.7232 -32.6895 -32.6369 -32.6178 -32.6011 -32.5901 -32.5851
    -3.9157  -3.6400  -3.4065  -3.3064  -3.2314  -3.2214  -3.1944  -3.1113
    -3.0236  -2.9814  -2.9651  -2.7448  -2.6272  -2.5974  -2.4741  -2.4704
    -2.3860  -2.3628  -2.3101  -2.2433  -2.1773  -2.1338  -2.1122  -1.9773
    -1.9140  -1.8436  -1.8270  -1.7846  -1.7436  -1.7117  -1.6300  -1.5715
    -1.4970  -1.4031  -0.5230  -0.1537  -0.1394   0.0779   0.5987   0.6722
     0.8601   0.8652   0.9723   1.0541   1.2375   1.3486   1.3744   1.4325
     1.6402   1.7027   1.7695   1.9387   1.9525   1.9728   2.1265

          k = 0.0446-0.0755 0.0000 ( 31621 PWs)   bands (ev):

   -56.6156 -56.6154 -56.5532 -56.5530 -56.4784 -56.4783 -32.9755 -32.9742
   -32.9165 -32.9163 -32.8644 -32.8601 -32.8066 -32.8025 -32.7797 -32.7745
   -32.6913 -32.6892 -32.6708 -32.6704 -32.6380 -32.6373 -32.5953 -32.5952
    -4.2372  -3.5118  -3.4908  -3.3353  -3.3104  -3.2927  -3.2338  -3.2148
    -3.0664  -2.9428  -2.8316  -2.7807  -2.7102  -2.6701  -2.4803  -2.4721
    -2.4231  -2.3097  -2.2733  -2.2086  -2.1519  -2.1462  -2.0270  -1.9969
    -1.9659  -1.9474  -1.9240  -1.8445  -1.7790  -1.7129  -1.6298  -1.5508
    -1.5213  -1.4597  -0.1948  -0.1331  -0.0365   0.2506   0.8423   0.8718
     0.9302   0.9977   1.0338   1.2363   1.2634   1.4457   1.4689   1.5280
     1.5801   1.5938   1.7760   1.9499   1.9593   2.0173   2.0568

          k = 0.0446-0.0585 0.0000 ( 31617 PWs)   bands (ev):

   -56.6219 -56.6091 -56.5595 -56.5467 -56.4847 -56.4721 -32.9799 -32.9694
   -32.9225 -32.9105 -32.8655 -32.8578 -32.8082 -32.8001 -32.7850 -32.7684
   -32.7413 -32.7226 -32.6887 -32.6383 -32.6179 -32.6010 -32.5898 -32.5854
    -4.5489  -3.6362  -3.4825  -3.4527  -3.4277  -3.4216  -3.3294  -3.2334
    -3.1874  -3.1182  -2.8744  -2.8336  -2.7849  -2.6986  -2.5600  -2.4905
    -2.4501  -2.4165  -2.2800  -2.2353  -2.0817  -2.0467  -1.9769  -1.9518
    -1.9353  -1.9095  -1.8961  -1.8287  -1.7751  -1.6427  -1.6318  -1.3579
    -1.2933  -1.1480  -0.2231   0.0576   0.3038   0.4243   0.8907   0.9532
     1.0356   1.0944   1.1713   1.1729   1.2726   1.4380   1.4903   1.5425
     1.6314   1.6984   1.7377   1.7553   1.9721   2.1248   2.2243

          k = 0.0446-0.0416 0.0000 ( 31625 PWs)   bands (ev):

   -56.6277 -56.6033 -56.5654 -56.5409 -56.4906 -56.4662 -32.9853 -32.9636
   -32.9281 -32.9051 -32.8708 -32.8516 -32.8138 -32.7941 -32.7898 -32.7897
   -32.7711 -32.7627 -32.7363 -32.6058 -32.5884 -32.5848 -32.5683 -32.5369
    -4.8093  -3.7559  -3.6087  -3.5698  -3.5445  -3.4821  -3.4212  -3.3899
    -3.2592  -3.1502  -3.0204  -3.0181  -2.9687  -2.8043  -2.5455  -2.5404
    -2.4758  -2.3927  -2.2473  -2.2280  -2.0873  -2.0030  -1.9602  -1.9255
    -1.8329  -1.8150  -1.8122  -1.7645  -1.7526  -1.5347  -1.3541  -1.2311
    -0.9183  -0.6648  -0.2511   0.2181   0.4484   0.5923   0.8479   0.8902
     0.9921   1.0951   1.1389   1.2243   1.3274   1.3638   1.5062   1.5592
     1.6028   1.7303   1.8365   1.9683   1.9748   2.2720   2.3385

          k = 0.0595-0.0328 0.0000 ( 31604 PWs)   bands (ev):

   -56.6276 -56.6033 -56.5653 -56.5409 -56.4906 -56.4661 -32.9857 -32.9635
   -32.9281 -32.9051 -32.8718 -32.8511 -32.8152 -32.7940 -32.7903 -32.7888
   -32.7713 -32.7637 -32.7365 -32.6059 -32.5882 -32.5849 -32.5683 -32.5369
    -4.6770  -3.7367  -3.5932  -3.5397  -3.4905  -3.3863  -3.3825  -3.3481
    -3.2205  -3.1210  -3.0072  -2.9835  -2.9139  -2.7726  -2.5456  -2.5152
    -2.4359  -2.3967  -2.2906  -2.2584  -2.0828  -2.0049  -1.9219  -1.8966
    -1.8518  -1.8299  -1.7752  -1.7408  -1.7208  -1.5178  -1.4140  -1.2457
    -1.0133  -0.6763  -0.2622   0.0774   0.1706   0.5645   0.7960   0.8557
     0.8985   0.9721   1.0898   1.1623   1.2001   1.2362   1.4660   1.5065
     1.5926   1.7467   1.8561   1.8844   2.0008   2.1127   2.1445

          k = 0.0595-0.0158 0.0000 ( 31584 PWs)   bands (ev):

   -56.6326 -56.5983 -56.5703 -56.5359 -56.4956 -56.4610 -32.9907 -32.9587
   -32.9328 -32.9004 -32.8771 -32.8460 -32.8321 -32.8207 -32.8127 -32.7928
   -32.7888 -32.7773 -32.7598 -32.6100 -32.5807 -32.5455 -32.5256 -32.4949
    -4.8067  -3.7663  -3.6503  -3.6420  -3.5817  -3.4900  -3.4078  -3.3669
    -3.2114  -3.1921  -3.1178  -3.0683  -2.9859  -2.9168  -2.5989  -2.5219
    -2.4483  -2.2820  -2.2453  -2.1942  -2.1443  -1.9965  -1.9174  -1.8926
    -1.7751  -1.7570  -1.6669  -1.6401  -1.6217  -1.3829  -1.1167  -1.0583
    -0.6855  -0.3703  -0.2321  -0.0285   0.1805   0.5612   0.5667   0.7215
     0.9096   0.9483   1.0346   1.0423   1.1494   1.2043   1.3045   1.3738
     1.6253   1.7670   1.8957   1.9740   2.0431   2.0649   2.2364

          k = 0.0595 0.0012 0.0000 ( 31555 PWs)   bands (ev):

   -56.6364 -56.5944 -56.5741 -56.5320 -56.4995 -56.4571 -32.9946 -32.9550
   -32.9363 -32.8966 -32.8817 -32.8644 -32.8445 -32.8420 -32.8252 -32.8087
   -32.7960 -32.7849 -32.7571 -32.6133 -32.5775 -32.5126 -32.4927 -32.4626
    -4.8542  -3.7870  -3.7560  -3.6622  -3.6442  -3.5135  -3.4404  -3.3256
    -3.3118  -3.1420  -3.1246  -3.0772  -3.0240  -2.9961  -2.6805  -2.5052
    -2.4217  -2.2414  -2.2252  -2.1937  -2.0750  -1.9618  -1.8990  -1.8919
    -1.7402  -1.6982  -1.5786  -1.5496  -1.4709  -1.2554  -0.9932  -0.7459
    -0.5595  -0.4308  -0.1977   0.0819   0.2471   0.3342   0.5716   0.5882
     0.7578   0.8734   0.9351   1.0106   1.0493   1.0751   1.2075   1.2301
     1.6307   1.6626   1.8686   1.9201   2.0812   2.1621   2.3545

          k = 0.0595 0.0181 0.0000 ( 31564 PWs)   bands (ev):

   -56.6388 -56.5920 -56.5765 -56.5296 -56.5019 -56.4546 -32.9974 -32.9528
   -32.9385 -32.8942 -32.8851 -32.8848 -32.8644 -32.8398 -32.8285 -32.8284
   -32.7980 -32.7825 -32.7559 -32.6155 -32.5755 -32.4919 -32.4720 -32.4422
    -4.8178  -3.8296  -3.7869  -3.6643  -3.6393  -3.5101  -3.4555  -3.3334
    -3.2305  -3.1428  -3.0706  -3.0393  -3.0128  -2.9933  -2.7362  -2.4941
    -2.3724  -2.2456  -2.2174  -2.2022  -2.0605  -1.8964  -1.8951  -1.7967
    -1.7224  -1.6840  -1.5227  -1.4393  -1.3403  -1.1653  -0.8953  -0.8071
    -0.5735  -0.3044  -0.2750   0.0281   0.1295   0.4362   0.4532   0.6040
     0.6086   0.7710   0.7976   0.9096   0.9267   1.0081   1.0706   1.1591
     1.4919   1.6072   1.7025   1.9020   2.1113   2.2625   2.4530

          k = 0.0595 0.0351 0.0000 ( 31536 PWs)   bands (ev):

   -56.6395 -56.5911 -56.5772 -56.5287 -56.5027 -56.4537 -32.9985 -32.9520
   -32.9391 -32.8933 -32.8922 -32.8870 -32.8713 -32.8392 -32.8354 -32.8300
   -32.7985 -32.7816 -32.7561 -32.6163 -32.5749 -32.4849 -32.4649 -32.4353
    -4.7007  -3.8436  -3.7599  -3.6363  -3.5867  -3.5051  -3.4028  -3.2848
    -3.1508  -3.1506  -3.0081  -2.9729  -2.9598  -2.9303  -2.7567  -2.4873
    -2.3210  -2.2644  -2.2109  -2.1908  -2.0808  -1.8883  -1.8544  -1.7220
    -1.7197  -1.6946  -1.4741  -1.3787  -1.2644  -1.1344  -1.0643  -0.8448
    -0.5322  -0.3465  -0.3136  -0.0910  -0.0491   0.3458   0.4502   0.5239
     0.5592   0.6652   0.6872   0.7938   0.8463   0.9219   1.0334   1.0646
     1.2971   1.5718   1.5977   1.8853   2.0647   2.3529   2.4986

          k = 0.0595 0.0521 0.0000 ( 31559 PWs)   bands (ev):

   -56.6386 -56.5920 -56.5764 -56.5295 -56.5019 -56.4545 -32.9981 -32.9529
   -32.9382 -32.8941 -32.8872 -32.8858 -32.8647 -32.8400 -32.8298 -32.8289
   -32.7976 -32.7822 -32.7578 -32.6156 -32.5757 -32.4919 -32.4721 -32.4424
    -4.5106  -3.7946  -3.7051  -3.5633  -3.5075  -3.4672  -3.3089  -3.2010
    -3.1774  -3.0815  -2.9571  -2.9074  -2.8803  -2.8598  -2.7344  -2.4953
    -2.2855  -2.2737  -2.2046  -2.1777  -2.0895  -1.8819  -1.8649  -1.7643
    -1.7340  -1.6906  -1.4458  -1.4131  -1.3161  -1.2146  -1.1758  -0.8818
    -0.6396  -0.5219  -0.3391  -0.2039  -0.1509   0.2833   0.3369   0.3889
     0.5014   0.5640   0.6647   0.6968   0.7815   0.8702   0.9890   1.0146
     1.2255   1.5573   1.6185   1.8721   2.0045   2.2562   2.3657

          k = 0.0595-0.1346 0.0000 ( 31531 PWs)   bands (ev):

   -56.6362 -56.5944 -56.5739 -56.5320 -56.4995 -56.4570 -32.9960 -32.9551
   -32.9359 -32.8963 -32.8855 -32.8662 -32.8450 -32.8421 -32.8278 -32.8095
   -32.7952 -32.7841 -32.7606 -32.6136 -32.5778 -32.5126 -32.4929 -32.4628
    -4.2611  -3.6909  -3.6238  -3.4720  -3.4110  -3.3945  -3.2391  -3.1814
    -3.0792  -3.0330  -2.9536  -2.8659  -2.8391  -2.7719  -2.6714  -2.5416
    -2.2657  -2.2656  -2.2459  -2.1263  -2.1258  -1.9213  -1.8854  -1.8422
    -1.7595  -1.6971  -1.5739  -1.4504  -1.4491  -1.3249  -1.2084  -1.0256
    -0.9890  -0.6849  -0.3746  -0.2829  -0.0525  -0.0371   0.2111   0.3345
     0.4163   0.5232   0.6583   0.7875   0.8703   0.8955   1.0628   1.0669
     1.1838   1.5838   1.7107   1.8705   1.9859   2.1185   2.3087

          k = 0.0595-0.1177 0.0000 ( 31513 PWs)   bands (ev):

   -56.6324 -56.5983 -56.5701 -56.5359 -56.4956 -56.4609 -32.9923 -32.9586
   -32.9322 -32.8999 -32.8820 -32.8456 -32.8344 -32.8241 -32.8133 -32.7914
   -32.7874 -32.7783 -32.7644 -32.6104 -32.5811 -32.5453 -32.5258 -32.4951
    -3.9782  -3.5655  -3.5206  -3.4191  -3.3841  -3.3062  -3.2481  -3.0487
    -3.0242  -3.0007  -2.9341  -2.8504  -2.8015  -2.6608  -2.6308  -2.5817
    -2.3418  -2.3012  -2.2236  -2.2105  -2.0723  -2.0187  -1.9198  -1.8348
    -1.8096  -1.8027  -1.6977  -1.5906  -1.4955  -1.4936  -1.4158  -1.1850
    -1.0679  -0.9785  -0.5625  -0.3759  -0.2076   0.0159   0.1536   0.3796
     0.5382   0.6226   0.6910   0.8949   0.9951   1.0932   1.1293   1.2005
     1.2135   1.6583   1.8018   1.8857   1.9704   2.0377   2.2954

          k = 0.0595-0.1007 0.0000 ( 31511 PWs)   bands (ev):

   -56.6274 -56.6034 -56.5651 -56.5410 -56.4906 -56.4660 -32.9875 -32.9632
   -32.9276 -32.9048 -32.8770 -32.8498 -32.8190 -32.7929 -32.7917 -32.7864
   -32.7718 -32.7690 -32.7374 -32.6061 -32.5876 -32.5853 -32.5684 -32.5369
    -3.7303  -3.6336  -3.4701  -3.4042  -3.2742  -3.2222  -3.1433  -3.1164
    -3.0707  -2.9884  -2.9063  -2.7420  -2.7237  -2.5745  -2.5672  -2.4905
    -2.4492  -2.4146  -2.2562  -2.1910  -2.1472  -2.0615  -2.0470  -1.9076
    -1.8859  -1.8214  -1.7612  -1.7062  -1.6687  -1.6529  -1.5214  -1.3542
    -1.3345  -1.0379  -0.8357  -0.3034  -0.1406  -0.0448   0.3848   0.5059
     0.6776   0.7734   0.8157   0.9380   1.1770   1.2167   1.2729   1.2926
     1.4345   1.6899   1.8427   1.9195   1.9829   2.0169   2.1409

          k = 0.0595-0.0837 0.0000 ( 31538 PWs)   bands (ev):

   -56.6216 -56.6092 -56.5593 -56.5469 -56.4847 -56.4719 -32.9817 -32.9685
   -32.9222 -32.9104 -32.8708 -32.8548 -32.8130 -32.7971 -32.7807 -32.7740
   -32.7439 -32.7232 -32.6895 -32.6369 -32.6178 -32.6011 -32.5901 -32.5851
    -3.9157  -3.6400  -3.4065  -3.3064  -3.2314  -3.2214  -3.1944  -3.1113
    -3.0236  -2.9814  -2.9651  -2.7448  -2.6272  -2.5974  -2.4741  -2.4704
    -2.3860  -2.3628  -2.3101  -2.2433  -2.1773  -2.1338  -2.1122  -1.9773
    -1.9140  -1.8436  -1.8270  -1.7846  -1.7436  -1.7117  -1.6300  -1.5715
    -1.4970  -1.4031  -0.5230  -0.1537  -0.1394   0.0779   0.5987   0.6722
     0.8601   0.8652   0.9723   1.0541   1.2375   1.3486   1.3744   1.4325
     1.6402   1.7027   1.7695   1.9387   1.9525   1.9728   2.1265

          k = 0.0595-0.0667 0.0000 ( 31583 PWs)   bands (ev):

   -56.6155 -56.6154 -56.5532 -56.5530 -56.4784 -56.4783 -32.9755 -32.9742
   -32.9165 -32.9164 -32.8640 -32.8603 -32.8064 -32.8030 -32.7791 -32.7747
   -32.6912 -32.6894 -32.6707 -32.6704 -32.6379 -32.6374 -32.5953 -32.5952
    -4.2097  -3.6595  -3.4105  -3.3486  -3.3103  -3.2858  -3.2252  -3.2107
    -3.0545  -2.9450  -2.8263  -2.7835  -2.7129  -2.6861  -2.5121  -2.4557
    -2.3631  -2.3139  -2.2940  -2.2173  -2.1493  -2.1324  -2.0249  -2.0054
    -1.9572  -1.9411  -1.8893  -1.8451  -1.7735  -1.7155  -1.6309  -1.5936
    -1.4616  -1.4448  -0.2629  -0.1770   0.1280   0.2307   0.7811   0.8064
     0.9320   0.9904   1.0263   1.2604   1.2640   1.3745   1.4453   1.5541
     1.6006   1.6562   1.7842   1.9444   1.9488   1.9934   2.0103

          k = 0.0595-0.0498 0.0000 ( 31598 PWs)   bands (ev):

   -56.6218 -56.6091 -56.5595 -56.5468 -56.4847 -56.4721 -32.9801 -32.9692
   -32.9225 -32.9106 -32.8661 -32.8573 -32.8091 -32.7999 -32.7842 -32.7690
   -32.7417 -32.7227 -32.6888 -32.6381 -32.6179 -32.6010 -32.5899 -32.5854
    -4.4727  -3.7008  -3.4941  -3.4486  -3.4017  -3.3626  -3.2832  -3.2243
    -3.1690  -3.0991  -2.8608  -2.8144  -2.8024  -2.6759  -2.5496  -2.4823
    -2.4378  -2.3846  -2.3001  -2.2687  -2.0681  -2.0566  -2.0012  -1.9291
    -1.9112  -1.9030  -1.8632  -1.8040  -1.7810  -1.6543  -1.6147  -1.3689
    -1.3642  -1.1112  -0.2065  -0.0711   0.2884   0.4076   0.8559   0.8924
     0.9443   0.9935   1.1216   1.1913   1.2022   1.3815   1.5327   1.5455
     1.6417   1.6848   1.7523   1.7750   1.9881   2.0819   2.1386

          k = 0.0743-0.0410 0.0000 ( 31576 PWs)   bands (ev):

   -56.6218 -56.6092 -56.5594 -56.5468 -56.4847 -56.4720 -32.9805 -32.9690
   -32.9225 -32.9106 -32.8672 -32.8565 -32.8105 -32.7995 -32.7830 -32.7701
   -32.7423 -32.7228 -32.6890 -32.6378 -32.6179 -32.6010 -32.5900 -32.5853
    -4.3254  -3.7803  -3.4725  -3.4285  -3.3609  -3.3117  -3.2155  -3.2122
    -3.1354  -3.0548  -2.8371  -2.8304  -2.7757  -2.6496  -2.5297  -2.4886
    -2.4255  -2.3617  -2.3277  -2.2566  -2.0813  -2.0461  -2.0041  -1.9408
    -1.9094  -1.8684  -1.8528  -1.7854  -1.7798  -1.6599  -1.5594  -1.4585
    -1.3904  -1.1247  -0.2678  -0.1621   0.1736   0.4684   0.6633   0.7073
     0.9075   0.9879   1.0010   1.1233   1.2688   1.3276   1.4860   1.5650
     1.5917   1.6458   1.8175   1.8418   1.9518   1.9869   2.0187

          k = 0.0743-0.0240 0.0000 ( 31567 PWs)   bands (ev):

   -56.6276 -56.6033 -56.5652 -56.5409 -56.4906 -56.4661 -32.9863 -32.9634
   -32.9280 -32.9051 -32.8734 -32.8505 -32.8168 -32.7936 -32.7911 -32.7878
   -32.7715 -32.7652 -32.7368 -32.6060 -32.5880 -32.5850 -32.5684 -32.5369
    -4.4666  -3.7067  -3.5527  -3.4849  -3.4056  -3.3330  -3.3298  -3.2224
    -3.1711  -3.0699  -2.9940  -2.9326  -2.8293  -2.7333  -2.5484  -2.5259
    -2.4079  -2.3505  -2.3430  -2.2707  -2.0670  -2.0127  -1.9362  -1.8840
    -1.8590  -1.8294  -1.7671  -1.7019  -1.6700  -1.5072  -1.4829  -1.2717
    -1.1304  -0.7435  -0.4465  -0.0638   0.0620   0.4481   0.5083   0.7079
     0.8098   0.9305   1.0253   1.0705   1.0900   1.2372   1.3959   1.4084
     1.5918   1.6289   1.8758   1.9125   1.9848   1.9996   2.1029

          k = 0.0743-0.0070 0.0000 ( 31533 PWs)   bands (ev):

   -56.6325 -56.5983 -56.5702 -56.5359 -56.4956 -56.4610 -32.9914 -32.9586
   -32.9326 -32.9002 -32.8791 -32.8457 -32.8330 -32.8223 -32.8129 -32.7921
   -32.7884 -32.7777 -32.7616 -32.6101 -32.5808 -32.5454 -32.5257 -32.4950
    -4.5449  -3.6657  -3.5796  -3.5744  -3.4907  -3.3983  -3.3238  -3.2489
    -3.1562  -3.1026  -3.0545  -2.9965  -2.8704  -2.8607  -2.6113  -2.5360
    -2.3403  -2.3318  -2.2593  -2.2121  -2.1131  -1.9966  -1.9497  -1.8639
    -1.7864  -1.7458  -1.6442  -1.5911  -1.5754  -1.3833  -1.1883  -1.1340
    -0.8239  -0.6932  -0.3289  -0.0640  -0.0420   0.2564   0.3938   0.6504
     0.6643   0.8323   0.8806   1.0000   1.0157   1.1056   1.2408   1.2659
     1.5158   1.6307   1.8785   1.9294   1.9894   2.0858   2.1792

          k = 0.0743 0.0099 0.0000 ( 31550 PWs)   bands (ev):

   -56.6363 -56.5944 -56.5740 -56.5320 -56.4995 -56.4570 -32.9954 -32.9551
   -32.9361 -32.8965 -32.8838 -32.8655 -32.8448 -32.8420 -32.8268 -32.8091
   -32.7954 -32.7846 -32.7590 -32.6135 -32.5777 -32.5126 -32.4928 -32.4627
    -4.5585  -3.7035  -3.6898  -3.5432  -3.5379  -3.4302  -3.3070  -3.2625
    -3.2021  -3.0629  -3.0080  -2.9956  -2.8966  -2.8883  -2.6873  -2.5119
    -2.3108  -2.2964  -2.2318  -2.1557  -2.1169  -1.9522  -1.8792  -1.8751
    -1.7528  -1.6793  -1.5307  -1.5041  -1.4358  -1.2771  -1.0144  -0.9445
    -0.8655  -0.6108  -0.1937  -0.1172   0.0191   0.0598   0.4137   0.4788
     0.5555   0.6429   0.8018   0.8430   0.9218   0.9441   1.1190   1.1316
     1.3931   1.6038   1.7677   1.8897   2.0405   2.1563   2.2837

          k = 0.0743 0.0269 0.0000 ( 31559 PWs)   bands (ev):

   -56.6386 -56.5920 -56.5764 -56.5295 -56.5019 -56.4545 -32.9981 -32.9529
   -32.9382 -32.8941 -32.8872 -32.8858 -32.8647 -32.8400 -32.8298 -32.8289
   -32.7976 -32.7822 -32.7578 -32.6156 -32.5757 -32.4919 -32.4721 -32.4424
    -4.5106  -3.7946  -3.7051  -3.5633  -3.5075  -3.4672  -3.3089  -3.2010
    -3.1774  -3.0815  -2.9571  -2.9074  -2.8803  -2.8598  -2.7344  -2.4953
    -2.2855  -2.2737  -2.2046  -2.1777  -2.0895  -1.8819  -1.8649  -1.7643
    -1.7340  -1.6906  -1.4458  -1.4131  -1.3161  -1.2146  -1.1758  -0.8818
    -0.6396  -0.5219  -0.3391  -0.2039  -0.1509   0.2833   0.3369   0.3889
     0.5014   0.5640   0.6647   0.6968   0.7815   0.8702   0.9890   1.0146
     1.2255   1.5573   1.6185   1.8721   2.0045   2.2562   2.3657

          k = 0.0743 0.0439 0.0000 ( 31546 PWs)   bands (ev):

   -56.6394 -56.5911 -56.5771 -56.5287 -56.5027 -56.4537 -32.9992 -32.9521
   -32.9388 -32.8931 -32.8930 -32.8888 -32.8716 -32.8394 -32.8357 -32.8311
   -32.7983 -32.7812 -32.7578 -32.6164 -32.5751 -32.4849 -32.4651 -32.4354
    -4.4086  -3.8288  -3.6963  -3.5543  -3.4752  -3.4635  -3.2713  -3.1701
    -3.1082  -3.1080  -2.9012  -2.8623  -2.8259  -2.8247  -2.7431  -2.4930
    -2.2773  -2.2331  -2.1968  -2.1761  -2.0440  -1.8426  -1.8329  -1.7947
    -1.7262  -1.6617  -1.4588  -1.4118  -1.3426  -1.2092  -1.1443  -0.8363
    -0.5798  -0.5391  -0.4847  -0.2880  -0.2056   0.2371   0.2684   0.3809
     0.4109   0.5608   0.5728   0.6579   0.6905   0.8234   0.9259   0.9311
     1.0566   1.5252   1.5434   1.8583   1.9380   2.3122   2.3817

          k = 0.0743-0.1428 0.0000 ( 31525 PWs)   bands (ev):

   -56.6386 -56.5920 -56.5763 -56.5295 -56.5019 -56.4545 -32.9985 -32.9529
   -32.9380 -32.8939 -32.8885 -32.8864 -32.8649 -32.8401 -32.8305 -32.8291
   -32.7975 -32.7818 -32.7589 -32.6157 -32.5759 -32.4920 -32.4722 -32.4424
    -4.2659  -3.8009  -3.6611  -3.5121  -3.4441  -3.4043  -3.2067  -3.1560
    -3.1149  -3.0596  -2.8969  -2.8310  -2.8076  -2.7852  -2.7134  -2.5126
    -2.2717  -2.2184  -2.1834  -2.1520  -2.0097  -1.9204  -1.8090  -1.8035
    -1.7350  -1.6775  -1.5951  -1.4090  -1.3707  -1.2282  -1.2075  -0.8768
    -0.7807  -0.5575  -0.5496  -0.3472  -0.1433   0.1798   0.2562   0.3016
     0.3789   0.3850   0.5709   0.6122   0.7269   0.8535   0.9325   0.9517
     1.0308   1.5282   1.5853   1.8543   1.9181   2.2502   2.3235

          k = 0.0743-0.1259 0.0000 ( 31498 PWs)   bands (ev):

   -56.6362 -56.5944 -56.5739 -56.5320 -56.4995 -56.4569 -32.9962 -32.9551
   -32.9358 -32.8962 -32.8861 -32.8665 -32.8451 -32.8422 -32.8281 -32.8096
   -32.7951 -32.7839 -32.7612 -32.6137 -32.5779 -32.5126 -32.4929 -32.4628
    -4.1076  -3.7120  -3.6009  -3.4569  -3.3752  -3.3322  -3.2501  -3.1221
    -3.0339  -3.0280  -2.9326  -2.8580  -2.8080  -2.7222  -2.6578  -2.5609
    -2.2726  -2.2483  -2.1988  -2.1118  -2.0990  -1.9885  -1.8168  -1.7927
    -1.7657  -1.7612  -1.6262  -1.4653  -1.4332  -1.3519  -1.2681  -1.0958
    -0.9837  -0.7015  -0.5065  -0.3440  -0.0606  -0.0052   0.1047   0.2707
     0.4072   0.4430   0.6086   0.7706   0.8641   0.8821   1.0392   1.0397
     1.1049   1.5765   1.6928   1.8632   1.9636   2.1044   2.3372

          k = 0.0743-0.1089 0.0000 ( 31513 PWs)   bands (ev):

   -56.6324 -56.5983 -56.5701 -56.5359 -56.4956 -56.4609 -32.9923 -32.9586
   -32.9322 -32.8999 -32.8820 -32.8456 -32.8344 -32.8241 -32.8133 -32.7914
   -32.7874 -32.7783 -32.7644 -32.6104 -32.5811 -32.5453 -32.5258 -32.4951
    -3.9782  -3.5655  -3.5206  -3.4191  -3.3841  -3.3062  -3.2481  -3.0487
    -3.0242  -3.0007  -2.9341  -2.8504  -2.8015  -2.6608  -2.6308  -2.5817
    -2.3418  -2.3012  -2.2236  -2.2105  -2.0723  -2.0187  -1.9198  -1.8348
    -1.8096  -1.8027  -1.6977  -1.5906  -1.4955  -1.4936  -1.4158  -1.1850
    -1.0679  -0.9785  -0.5625  -0.3759  -0.2076   0.0159   0.1536   0.3796
     0.5382   0.6226   0.6910   0.8949   0.9951   1.0932   1.1293   1.2005
     1.2135   1.6583   1.8019   1.8857   1.9704   2.0377   2.2962

          k = 0.0743-0.0919 0.0000 ( 31529 PWs)   bands (ev):

   -56.6274 -56.6033 -56.5651 -56.5410 -56.4906 -56.4660 -32.9873 -32.9632
   -32.9277 -32.9048 -32.8765 -32.8499 -32.8188 -32.7928 -32.7919 -32.7866
   -32.7718 -32.7684 -32.7373 -32.6061 -32.5876 -32.5853 -32.5684 -32.5369
    -3.9086  -3.6445  -3.4301  -3.4109  -3.2784  -3.2481  -3.2049  -3.1063
    -3.0400  -2.9991  -2.9439  -2.7694  -2.7232  -2.6428  -2.5703  -2.4978
    -2.4096  -2.3857  -2.3275  -2.2099  -2.0955  -2.0570  -2.0154  -1.8928
    -1.8837  -1.8220  -1.7635  -1.6900  -1.6813  -1.5827  -1.5392  -1.3233
    -1.3178  -0.9943  -0.8401  -0.1665  -0.1408   0.0259   0.3081   0.5347
     0.7172   0.7849   0.8491   0.9351   1.1884   1.2363   1.2890   1.3070
     1.3944   1.6928   1.8545   1.9175   1.9616   2.0072   2.1393

          k = 0.0743-0.0749 0.0000 ( 31559 PWs)   bands (ev):

   -56.6216 -56.6092 -56.5593 -56.5469 -56.4847 -56.4719 -32.9814 -32.9686
   -32.9223 -32.9105 -32.8699 -32.8551 -32.8126 -32.7978 -32.7811 -32.7730
   -32.7436 -32.7231 -32.6894 -32.6371 -32.6178 -32.6011 -32.5901 -32.5851
    -3.8931  -3.8737  -3.3681  -3.3627  -3.2540  -3.2413  -3.1886  -3.1151
    -3.0514  -2.9707  -2.9360  -2.7609  -2.7017  -2.6113  -2.4870  -2.4381
    -2.4363  -2.3566  -2.3283  -2.2018  -2.1575  -2.1029  -2.0737  -1.9643
    -1.9377  -1.8477  -1.8228  -1.7727  -1.7615  -1.6675  -1.5892  -1.5329
    -1.4645  -1.3434  -0.5741  -0.1348   0.0921   0.1310   0.4563   0.6878
     0.8354   0.8927   0.9881   1.1050   1.2356   1.3206   1.3908   1.4412
     1.6208   1.7109   1.7842   1.9233   1.9344   1.9663   2.0063

          k = 0.0743-0.0580 0.0000 ( 31570 PWs)   bands (ev):

   -56.6155 -56.6154 -56.5532 -56.5530 -56.4784 -56.4783 -32.9752 -32.9745
   -32.9166 -32.9165 -32.8631 -32.8609 -32.8060 -32.8040 -32.7780 -32.7755
   -32.6908 -32.6897 -32.6706 -32.6705 -32.6378 -32.6375 -32.5953 -32.5952
    -4.1289  -3.8371  -3.3917  -3.3731  -3.3049  -3.2837  -3.2121  -3.2018
    -3.0189  -2.9546  -2.8145  -2.7904  -2.7176  -2.7077  -2.5264  -2.4458
    -2.3523  -2.3185  -2.2590  -2.2279  -2.1433  -2.1187  -2.0165  -2.0138
    -1.9255  -1.9203  -1.8476  -1.8439  -1.7806  -1.7416  -1.6116  -1.6000
    -1.4519  -1.3813  -0.3367  -0.1725   0.2088   0.3323   0.5839   0.7721
     0.8562   1.0102   1.0258   1.1567   1.3271   1.3649   1.4414   1.5353
     1.6292   1.7301   1.8190   1.8488   1.9106   1.9791   1.9958

          k =-0.0892 0.0492 0.0000 ( 31550 PWs)   bands (ev):

   -56.6155 -56.6154 -56.5532 -56.5530 -56.4784 -56.4783 -32.9749 -32.9748
   -32.9166 -32.9165 -32.8620 -32.8619 -32.8052 -32.8051 -32.7766 -32.7766
   -32.6903 -32.6902 -32.6705 -32.6705 -32.6377 -32.6375 -32.5953 -32.5952
    -4.0007  -4.0006  -3.3879  -3.3879  -3.2943  -3.2943  -3.2031  -3.2031
    -2.9790  -2.9790  -2.8018  -2.8018  -2.7169  -2.7169  -2.4971  -2.4971
    -2.3269  -2.3269  -2.2365  -2.2365  -2.1269  -2.1268  -2.0107  -2.0106
    -1.9051  -1.9051  -1.8382  -1.8382  -1.7805  -1.7805  -1.5931  -1.5931
    -1.4037  -1.4037  -0.2707  -0.2707   0.3196   0.3196   0.5945   0.5946
     0.9436   0.9436   1.0622   1.0623   1.3794   1.3794   1.4633   1.4633
     1.6917   1.6918   1.8499   1.8500   1.9019   1.9020   1.9995

          k =-0.0892 0.0662 0.0000 ( 31524 PWs)   bands (ev):

   -56.6217 -56.6092 -56.5594 -56.5468 -56.4847 -56.4720 -32.9810 -32.9688
   -32.9224 -32.9106 -32.8686 -32.8556 -32.8117 -32.7987 -32.7819 -32.7715
   -32.7430 -32.7230 -32.6892 -32.6374 -32.6178 -32.6010 -32.5900 -32.5852
    -4.1182  -3.8473  -3.4259  -3.3940  -3.3060  -3.2724  -3.1981  -3.1504
    -3.0931  -3.0029  -2.8743  -2.8045  -2.7338  -2.6294  -2.5061  -2.4806
    -2.4436  -2.3560  -2.3091  -2.2363  -2.0911  -2.0871  -1.9915  -1.9640
    -1.9496  -1.8595  -1.8211  -1.7781  -1.7742  -1.6421  -1.5577  -1.5007
    -1.4261  -1.2246  -0.4680  -0.1598   0.2592   0.2964   0.4125   0.6660
     0.8688   0.9125   1.0510   1.0937   1.1906   1.4045   1.4084   1.4580
     1.6001   1.6773   1.8176   1.9099   1.9142   1.9622   1.9708

          k =-0.0892 0.0831 0.0000 ( 31508 PWs)   bands (ev):

   -56.6275 -56.6033 -56.5652 -56.5409 -56.4906 -56.4660 -32.9869 -32.9633
   -32.9278 -32.9050 -32.8751 -32.8501 -32.8180 -32.7930 -32.7918 -32.7870
   -32.7717 -32.7669 -32.7371 -32.6060 -32.5878 -32.5852 -32.5684 -32.5369
    -4.1971  -3.6724  -3.4909  -3.4248  -3.3152  -3.2918  -3.2742  -3.1282
    -3.0806  -3.0281  -2.9810  -2.8626  -2.7321  -2.7102  -2.5576  -2.5261
    -2.4137  -2.3637  -2.3203  -2.2565  -2.0542  -2.0440  -1.9750  -1.8949
    -1.8576  -1.8222  -1.7649  -1.6867  -1.6409  -1.5750  -1.4834  -1.3000
    -1.2410  -0.8750  -0.7245  -0.1290   0.1243   0.1862   0.2162   0.6086
     0.7680   0.8232   0.9415   0.9809   1.1223   1.2879   1.3197   1.3630
     1.4050   1.6704   1.8791   1.9239   1.9386   2.0025   2.1280

          k =-0.0892 0.1001 0.0000 ( 31499 PWs)   bands (ev):

   -56.6324 -56.5983 -56.5701 -56.5359 -56.4956 -56.4609 -32.9920 -32.9586
   -32.9324 -32.9001 -32.8809 -32.8456 -32.8339 -32.8235 -32.8132 -32.7916
   -32.7878 -32.7781 -32.7633 -32.6103 -32.5810 -32.5453 -32.5258 -32.4951
    -4.2417  -3.5707  -3.5348  -3.4945  -3.4193  -3.3374  -3.2821  -3.1187
    -3.0475  -3.0350  -3.0135  -2.8938  -2.8259  -2.7506  -2.6040  -2.5766
    -2.3360  -2.3004  -2.2524  -2.2318  -2.0881  -2.0000  -1.9551  -1.8491
    -1.7937  -1.7460  -1.6617  -1.5878  -1.5138  -1.4328  -1.3364  -1.1440
    -0.9879  -0.9248  -0.4662  -0.1661  -0.1357   0.0590   0.1710   0.4740
     0.5870   0.7144   0.7576   0.9127   1.0018   1.0964   1.1985   1.2037
     1.3081   1.6433   1.8346   1.8941   1.9751   2.0642   2.2259

          k =-0.0892 0.1171 0.0000 ( 31531 PWs)   bands (ev):

   -56.6362 -56.5944 -56.5739 -56.5320 -56.4995 -56.4570 -32.9960 -32.9551
   -32.9359 -32.8963 -32.8855 -32.8662 -32.8450 -32.8421 -32.8278 -32.8095
   -32.7952 -32.7841 -32.7606 -32.6136 -32.5778 -32.5126 -32.4929 -32.4628
    -4.2611  -3.6909  -3.6238  -3.4720  -3.4110  -3.3945  -3.2391  -3.1814
    -3.0792  -3.0330  -2.9536  -2.8659  -2.8391  -2.7719  -2.6714  -2.5416
    -2.2657  -2.2656  -2.2459  -2.1263  -2.1258  -1.9214  -1.8854  -1.8422
    -1.7595  -1.6971  -1.5739  -1.4504  -1.4491  -1.3249  -1.2084  -1.0256
    -0.9890  -0.6849  -0.3746  -0.2829  -0.0525  -0.0371   0.2111   0.3345
     0.4163   0.5232   0.6583   0.7875   0.8703   0.8955   1.0628   1.0669
     1.1838   1.5838   1.7107   1.8705   1.9859   2.1185   2.3087

          k =-0.0892 0.1341 0.0000 ( 31525 PWs)   bands (ev):

   -56.6386 -56.5920 -56.5763 -56.5295 -56.5019 -56.4545 -32.9985 -32.9529
   -32.9380 -32.8939 -32.8885 -32.8864 -32.8649 -32.8401 -32.8305 -32.8291
   -32.7975 -32.7818 -32.7589 -32.6157 -32.5759 -32.4920 -32.4722 -32.4424
    -4.2659  -3.8009  -3.6611  -3.5121  -3.4441  -3.4043  -3.2067  -3.1560
    -3.1149  -3.0596  -2.8969  -2.8310  -2.8076  -2.7852  -2.7134  -2.5126
    -2.2717  -2.2184  -2.1834  -2.1520  -2.0097  -1.9204  -1.8090  -1.8035
    -1.7350  -1.6775  -1.5951  -1.4090  -1.3707  -1.2282  -1.2075  -0.8768
    -0.7807  -0.5575  -0.5496  -0.3472  -0.1433   0.1798   0.2562   0.3016
     0.3789   0.3850   0.5709   0.6122   0.7269   0.8535   0.9325   0.9517
     1.0308   1.5282   1.5853   1.8543   1.9181   2.2501   2.3234

          k =-0.0892-0.0527 0.0000 ( 31534 PWs)   bands (ev):

   -56.6394 -56.5911 -56.5771 -56.5287 -56.5027 -56.4536 -32.9994 -32.9522
   -32.9388 -32.8933 -32.8930 -32.8895 -32.8717 -32.8395 -32.8358 -32.8314
   -32.7983 -32.7810 -32.7584 -32.6165 -32.5752 -32.4849 -32.4652 -32.4355
    -4.2658  -3.8407  -3.6741  -3.5255  -3.4640  -3.4069  -3.2119  -3.1269
    -3.1041  -3.0918  -2.8627  -2.8295  -2.8201  -2.7609  -2.7264  -2.5048
    -2.2796  -2.2067  -2.1619  -2.1285  -1.9803  -1.8382  -1.8305  -1.7894
    -1.7250  -1.7093  -1.6397  -1.3964  -1.3301  -1.1884  -1.1472  -0.8331
    -0.6826  -0.6210  -0.5214  -0.3774  -0.1813   0.1562   0.2672   0.3150
     0.3175   0.5082   0.5453   0.5552   0.6607   0.8633   0.8765   0.9003
     0.9153   1.5082   1.5297   1.8485   1.8834   2.2968   2.3529

     the Fermi energy is     0.9085 ev

!    total energy              =   -1133.74821859 Ry
     estimated scf accuracy    <       0.00000232 Ry
     smearing contrib. (-TS)   =      -0.08776029 Ry
     internal energy E=F+TS    =   -1133.66045830 Ry

     The total energy is F=E-TS. E is the sum of the following terms:
     one-electron contribution =   -9439.75933426 Ry
     hartree contribution      =    4753.43536778 Ry
     xc contribution           =    -250.00140951 Ry
     ewald contribution        =    3802.66491587 Ry
     electric field correction =       0.00000180 Ry

     convergence has been achieved in  19 iterations

     negative rho (up, down):  1.065E-03 0.000E+00

     Forces acting on atoms (cartesian axes, Ry/au):

     atom    1 type  1   force =    -0.00216844   -0.00127889    0.00297178
     atom    2 type  1   force =    -0.00217129   -0.00127906    0.00297093
     atom    3 type  2   force =    -0.01060090   -0.00626387    0.00372938
     atom    4 type  2   force =    -0.01060549   -0.00626023    0.00372805
     atom    5 type  1   force =     0.00535176    0.00315814   -0.00622218
     atom    6 type  1   force =     0.00535425    0.00316235   -0.00622122
     atom    7 type  2   force =     0.00689222    0.00407435   -0.00360584
     atom    8 type  2   force =     0.00689508    0.00406864   -0.00360536
     atom    9 type  1   force =     0.00060720    0.00035805    0.00152744
     atom   10 type  1   force =     0.00060819    0.00035701    0.00152805
     atom   11 type  2   force =    -0.00008309   -0.00004786    0.00159938
     atom   12 type  2   force =    -0.00007951   -0.00004863    0.00159959

     Total force =     0.026099     Total SCF correction =     0.008898
     SCF correction compared to forces is large: reduce conv_thr to get better values

     Writing output data file ./Ti2Pd2/Ti2Pd2_beef.save/

     init_run     :     83.58s CPU     84.22s WALL (       1 calls)
     electrons    :   2992.51s CPU   3008.67s WALL (       1 calls)
     forces       :     49.09s CPU     49.34s WALL (       1 calls)

     Called by init_run:
     wfcinit      :     72.33s CPU     72.67s WALL (       1 calls)
     potinit      :      7.68s CPU      7.77s WALL (       1 calls)
     hinit0       :      1.92s CPU      1.93s WALL (       1 calls)

     Called by electrons:
     c_bands      :   2615.89s CPU   2624.78s WALL (      19 calls)
     sum_band     :    338.91s CPU    342.54s WALL (      19 calls)
     v_of_rho     :     25.23s CPU     26.60s WALL (      20 calls)
     newd         :     18.90s CPU     21.22s WALL (      20 calls)
     mix_rho      :      0.72s CPU      0.75s WALL (      19 calls)
     vdW_kernel   :      5.70s CPU      5.71s WALL (       1 calls)

     Called by c_bands:
     init_us_2    :     13.31s CPU     13.42s WALL (    2960 calls)
     cegterg      :   2587.65s CPU   2594.98s WALL (    1406 calls)

     Called by *egterg:
     cdiaghg      :    123.19s CPU    123.26s WALL (    7721 calls)
     h_psi        :   1431.37s CPU   1438.03s WALL (    7795 calls)
     s_psi        :    471.64s CPU    471.79s WALL (    7795 calls)
     g_psi        :      1.12s CPU      1.13s WALL (    6315 calls)

     Called by h_psi:
     h_psi:calbec :    481.75s CPU    482.46s WALL (    7795 calls)
     vloc_psi     :    452.45s CPU    458.22s WALL (    7795 calls)
     add_vuspsi   :    492.10s CPU    492.27s WALL (    7795 calls)

     General routines
     calbec       :    725.29s CPU    726.30s WALL (    9497 calls)
     fft          :     13.94s CPU     14.43s WALL (    1319 calls)
     ffts         :      0.08s CPU      0.08s WALL (      39 calls)
     fftw         :    522.08s CPU    528.66s WALL (  641404 calls)
     interpolate  :      0.26s CPU      0.26s WALL (      20 calls)

     Parallel routines
     fft_scatt_xy :     43.48s CPU     44.06s WALL (  642762 calls)
     fft_scatt_yz :    105.60s CPU    107.25s WALL (  642762 calls)

     PWSCF        :  52m12.46s CPU  52m42.20s WALL


   This run was terminated on:   0:16:20  25Jun2022            

=------------------------------------------------------------------------------=
   JOB DONE.
=------------------------------------------------------------------------------=
