
     Program PWSCF v.6.6 starts on 25Jun2022 at 14:54:16 

     This program is part of the open-source Quantum ESPRESSO suite
     for quantum simulation of materials; please cite
         "P. Giannozzi et al., J. Phys.:Condens. Matter 21 395502 (2009);
         "P. Giannozzi et al., J. Phys.:Condens. Matter 29 465901 (2017);
          URL http://www.quantum-espresso.org", 
     in publications or presentations arising from this work. More details at
     http://www.quantum-espresso.org/quote

     Parallel version (MPI), running on    37 processors

     MPI processes distributed on     1 nodes
     R & G space division:  proc/nbgrp/npool/nimage =      37
     Fft bands division:     nmany     =       1
     Reading input from Ti2Ru2.in
Warning: card &CELL ignored
Warning: card / ignored

     Current dimensions of program PWSCF are:
     Max number of different atomic species (ntypx) = 10
     Max number of k-points (npk) =  40000
     Max angular momentum in pseudopotentials (lmaxx) =  3
     Presently stress not available with electric field and gates

     Message from routine cell_base_init:
     DEPRECATED: use true lattice parameter, not A to a.u. conversion factor
     file Ti.pbe-spn-rrkjus_psl.1.0.0.UPF: wavefunction(s)  3S 3D renormalized

     **************************************************************************
     Initializing libbeef V0.1.2 with the BEEF-vdW functional.
     Citation: Wellendorff et al., PRB 85, 235149 (2012).
     **************************************************************************


     IMPORTANT: XC functional enforced from input :
     Exchange-correlation= BEEF-VDW
                           (   1   4  43  14   2   0   0)
     Any further DFT definition will be discarded
     Please, verify this is what you really want


     Subspace diagonalization in iterative solution of the eigenvalue problem:
     a serial algorithm will be used

     Found symmetry operation: I + (  0.5000  0.5000  0.0000)
     This is a supercell, fractional translations are disabled

     Parallelization info
     --------------------
     sticks:   dense  smooth     PW     G-vecs:    dense   smooth      PW
     Min         113      45     13                26137     6605     991
     Max         114      46     14                26168     6626    1013
     Sum        4215    1681    483               967791   244677   37179



     bravais-lattice index     =            0
     lattice parameter (alat)  =       1.8897  a.u.
     unit-cell volume          =    4427.8824 (a.u.)^3
     number of atoms/cell      =           12
     number of atomic types    =            2
     number of electrons       =       168.00
     number of Kohn-Sham states=          101
     kinetic-energy cutoff     =      55.1240  Ry
     charge density cutoff     =     551.2396  Ry
     convergence threshold     =      1.0E-05
     mixing beta               =       0.1000
     number of iterations used =           10  plain     mixing
     Exchange-correlation= BEEF-VDW
                           (   1   4  43  14   2   0   0)

     celldm(1)=   1.889726  celldm(2)=   0.000000  celldm(3)=   0.000000
     celldm(4)=   0.000000  celldm(5)=   0.000000  celldm(6)=   0.000000

     crystal axes: (cart. coord. in units of alat)
               a(1) = (   5.344836   0.000000   0.000000 )  
               a(2) = (   1.783299   5.038563   0.000000 )  
               a(3) = (   0.000000   0.000000  24.364555 )  

     reciprocal axes: (cart. coord. in units 2 pi/alat)
               b(1) = (  0.187096 -0.066219  0.000000 )  
               b(2) = (  0.000000  0.198469  0.000000 )  
               b(3) = (  0.000000  0.000000  0.041043 )  


     PseudoPot. # 1 for Ti read from file:
     ../pseudo/Ti.pbe-spn-rrkjus_psl.1.0.0.UPF
     MD5 check sum: e281089c08e14b8efcf92e44a67ada65
     Pseudo is Ultrasoft + core correction, Zval = 12.0
     Generated using "atomic" code by A. Dal Corso v.6.2.2
     Using radial grid of 1177 points,  6 beta functions with: 
                l(1) =   0
                l(2) =   0
                l(3) =   1
                l(4) =   1
                l(5) =   2
                l(6) =   2
     Q(r) pseudized with 0 coefficients 


     PseudoPot. # 2 for Ru read from file:
     ../pseudo/Ru.pbe-spn-rrkjus_psl.1.0.0.UPF
     MD5 check sum: fbaca725316a1a65f98761fd4ac95971
     Pseudo is Ultrasoft + core correction, Zval = 16.0
     Generated using "atomic" code by A. Dal Corso v.6.2.2
     Using radial grid of 1233 points,  6 beta functions with: 
                l(1) =   0
                l(2) =   0
                l(3) =   1
                l(4) =   1
                l(5) =   2
                l(6) =   2
     Q(r) pseudized with 0 coefficients 


     atomic species   valence    mass     pseudopotential
        Ti            12.00    47.86700     Ti( 1.00)
        Ru            16.00   101.07000     Ru( 1.00)

     No symmetry found



   Cartesian axes

     site n.     atom                  positions (alat units)
         1           Ti  tau(   1) = (   0.0000000   0.0000000  10.0000000  )
         2           Ti  tau(   2) = (   3.5640673   2.5192813  10.0000000  )
         3           Ru  tau(   3) = (   2.6724178   0.0000000  10.0000000  )
         4           Ru  tau(   4) = (   0.8916495   2.5192813  10.0000000  )
         5           Ti  tau(   5) = (   5.3448357   3.7780276  12.1822777  )
         6           Ti  tau(   6) = (   1.7807684   1.2587463  12.1822777  )
         7           Ru  tau(   7) = (   2.6724178   3.7780276  12.1822777  )
         8           Ru  tau(   8) = (   4.4531862   1.2587463  12.1822777  )
         9           Ti  tau(   9) = (   3.5623036   2.5180350  14.3761256  )
        10           Ti  tau(  10) = (   7.1263682   5.0373136  14.3761258  )
        11           Ru  tau(  11) = (   6.2345453   2.5179084  14.2391377  )
        12           Ru  tau(  12) = (   4.4537738   5.0371903  14.2391381  )

     number of k points=    74  Fermi-Dirac smearing, width (Ry)=  0.0100
                       cart. coord. in units 2pi/alat
        k(    1) = (   0.0000000   0.0000000   0.0000000), wk =   0.0138889
        k(    2) = (   0.0000000   0.0165391   0.0000000), wk =   0.0277778
        k(    3) = (   0.0000000   0.0330782   0.0000000), wk =   0.0277778
        k(    4) = (   0.0000000   0.0496173   0.0000000), wk =   0.0277778
        k(    5) = (   0.0000000   0.0661564   0.0000000), wk =   0.0277778
        k(    6) = (   0.0000000   0.0826955   0.0000000), wk =   0.0277778
        k(    7) = (   0.0000000  -0.0992346   0.0000000), wk =   0.0138889
        k(    8) = (   0.0155914  -0.0055183   0.0000000), wk =   0.0277778
        k(    9) = (   0.0155914   0.0110209   0.0000000), wk =   0.0277778
        k(   10) = (   0.0155914   0.0275600   0.0000000), wk =   0.0277778
        k(   11) = (   0.0155914   0.0440991   0.0000000), wk =   0.0277778
        k(   12) = (   0.0155914   0.0606382   0.0000000), wk =   0.0277778
        k(   13) = (   0.0155914   0.0771773   0.0000000), wk =   0.0277778
        k(   14) = (   0.0155914  -0.1047529   0.0000000), wk =   0.0277778
        k(   15) = (   0.0155914  -0.0882138   0.0000000), wk =   0.0277778
        k(   16) = (   0.0155914  -0.0716747   0.0000000), wk =   0.0277778
        k(   17) = (   0.0155914  -0.0551356   0.0000000), wk =   0.0277778
        k(   18) = (   0.0155914  -0.0385965   0.0000000), wk =   0.0277778
        k(   19) = (   0.0155914  -0.0220574   0.0000000), wk =   0.0277778
        k(   20) = (   0.0311827  -0.0110365   0.0000000), wk =   0.0277778
        k(   21) = (   0.0311827   0.0055026   0.0000000), wk =   0.0277778
        k(   22) = (   0.0311827   0.0220417   0.0000000), wk =   0.0277778
        k(   23) = (   0.0311827   0.0385808   0.0000000), wk =   0.0277778
        k(   24) = (   0.0311827   0.0551199   0.0000000), wk =   0.0277778
        k(   25) = (   0.0311827   0.0716590   0.0000000), wk =   0.0277778
        k(   26) = (   0.0311827  -0.1102712   0.0000000), wk =   0.0277778
        k(   27) = (   0.0311827  -0.0937320   0.0000000), wk =   0.0277778
        k(   28) = (   0.0311827  -0.0771929   0.0000000), wk =   0.0277778
        k(   29) = (   0.0311827  -0.0606538   0.0000000), wk =   0.0277778
        k(   30) = (   0.0311827  -0.0441147   0.0000000), wk =   0.0277778
        k(   31) = (   0.0311827  -0.0275756   0.0000000), wk =   0.0277778
        k(   32) = (   0.0467741  -0.0165548   0.0000000), wk =   0.0277778
        k(   33) = (   0.0467741  -0.0000157   0.0000000), wk =   0.0277778
        k(   34) = (   0.0467741   0.0165234   0.0000000), wk =   0.0277778
        k(   35) = (   0.0467741   0.0330626   0.0000000), wk =   0.0277778
        k(   36) = (   0.0467741   0.0496017   0.0000000), wk =   0.0277778
        k(   37) = (   0.0467741   0.0661408   0.0000000), wk =   0.0277778
        k(   38) = (   0.0467741  -0.1157894   0.0000000), wk =   0.0277778
        k(   39) = (   0.0467741  -0.0992503   0.0000000), wk =   0.0277778
        k(   40) = (   0.0467741  -0.0827112   0.0000000), wk =   0.0277778
        k(   41) = (   0.0467741  -0.0661721   0.0000000), wk =   0.0277778
        k(   42) = (   0.0467741  -0.0496330   0.0000000), wk =   0.0277778
        k(   43) = (   0.0467741  -0.0330939   0.0000000), wk =   0.0277778
        k(   44) = (   0.0623655  -0.0220730   0.0000000), wk =   0.0277778
        k(   45) = (   0.0623655  -0.0055339   0.0000000), wk =   0.0277778
        k(   46) = (   0.0623655   0.0110052   0.0000000), wk =   0.0277778
        k(   47) = (   0.0623655   0.0275443   0.0000000), wk =   0.0277778
        k(   48) = (   0.0623655   0.0440834   0.0000000), wk =   0.0277778
        k(   49) = (   0.0623655   0.0606225   0.0000000), wk =   0.0277778
        k(   50) = (   0.0623655  -0.1213077   0.0000000), wk =   0.0277778
        k(   51) = (   0.0623655  -0.1047686   0.0000000), wk =   0.0277778
        k(   52) = (   0.0623655  -0.0882295   0.0000000), wk =   0.0277778
        k(   53) = (   0.0623655  -0.0716903   0.0000000), wk =   0.0277778
        k(   54) = (   0.0623655  -0.0551512   0.0000000), wk =   0.0277778
        k(   55) = (   0.0623655  -0.0386121   0.0000000), wk =   0.0277778
        k(   56) = (   0.0779569  -0.0275913   0.0000000), wk =   0.0277778
        k(   57) = (   0.0779569  -0.0110522   0.0000000), wk =   0.0277778
        k(   58) = (   0.0779569   0.0054869   0.0000000), wk =   0.0277778
        k(   59) = (   0.0779569   0.0220260   0.0000000), wk =   0.0277778
        k(   60) = (   0.0779569   0.0385651   0.0000000), wk =   0.0277778
        k(   61) = (   0.0779569   0.0551043   0.0000000), wk =   0.0277778
        k(   62) = (   0.0779569  -0.1268259   0.0000000), wk =   0.0277778
        k(   63) = (   0.0779569  -0.1102868   0.0000000), wk =   0.0277778
        k(   64) = (   0.0779569  -0.0937477   0.0000000), wk =   0.0277778
        k(   65) = (   0.0779569  -0.0772086   0.0000000), wk =   0.0277778
        k(   66) = (   0.0779569  -0.0606695   0.0000000), wk =   0.0277778
        k(   67) = (   0.0779569  -0.0441304   0.0000000), wk =   0.0277778
        k(   68) = (  -0.0935482   0.0331095   0.0000000), wk =   0.0138889
        k(   69) = (  -0.0935482   0.0496486   0.0000000), wk =   0.0277778
        k(   70) = (  -0.0935482   0.0661878   0.0000000), wk =   0.0277778
        k(   71) = (  -0.0935482   0.0827269   0.0000000), wk =   0.0277778
        k(   72) = (  -0.0935482   0.0992660   0.0000000), wk =   0.0277778
        k(   73) = (  -0.0935482   0.1158051   0.0000000), wk =   0.0277778
        k(   74) = (  -0.0935482  -0.0661251   0.0000000), wk =   0.0138889

     Dense  grid:   967791 G-vectors     FFT dimensions: (  75,  75, 360)

     Smooth grid:   244677 G-vectors     FFT dimensions: (  48,  48, 225)

     Estimated max dynamical RAM per process >     199.95 MB

     Estimated total dynamical RAM >       7.22 GB

     Check: negative core charge=   -0.000001

     Initial potential from superposition of free atoms

     starting charge  167.98730, renormalised to  168.00000

     negative rho (up, down):  1.571E-03 0.000E+00


     %%%%%%%%%%%%%%%%%%%%%%%%%%%%%%%%%%%%%%%%%%%%%%%%%%%%%%%%%%%%%%%%%%%%%%%%
     %                                                                      %
     % You are using vdW-DF, which was implemented by the Thonhauser group. %
     % Please cite the following two papers that made this development      %
     % possible and the two reviews that describe the various versions:     %
     %                                                                      %
     %   T. Thonhauser et al., PRL 115, 136402 (2015).                      %
     %   T. Thonhauser et al., PRB 76, 125112 (2007).                       %
     %   K. Berland et al., Rep. Prog. Phys. 78, 066501 (2015).             %
     %   D.C. Langreth et al., J. Phys.: Condens. Matter 21, 084203 (2009). %
     %                                                                      %
     %                                                                      %
     % If you are calculating the stress with vdW-DF, please also cite:     %
     %                                                                      %
     %   R. Sabatini et al., J. Phys.: Condens. Matter 24, 424209 (2012).   %
     %                                                                      %
     %%%%%%%%%%%%%%%%%%%%%%%%%%%%%%%%%%%%%%%%%%%%%%%%%%%%%%%%%%%%%%%%%%%%%%%%



     Adding external electric field

     Computed dipole along edir(3) : 
        Dipole                0.0003 Ry au,          0.0008 Debye
        Dipole field          0.0000 Ry au, 

        Potential amp.       -0.0001 Ry
        Total length         44.8913 bohr

     Starting wfcs are  120 randomized atomic wfcs

     total cpu time spent up to now is       93.5 secs

     Self-consistent Calculation

     iteration #  1     ecut=    55.12 Ry     beta= 0.10
     Davidson diagonalization with overlap
     ethr =  1.00E-02,  avg # of iterations =  2.5

     negative rho (up, down):  1.524E-03 0.000E+00

     Adding external electric field

     Computed dipole along edir(3) : 
        Dipole                0.0524 Ry au,          0.1332 Debye
        Dipole field          0.0001 Ry au, 

        Potential amp.       -0.0133 Ry
        Total length         44.8913 bohr


     total cpu time spent up to now is      314.5 secs

     total energy              =   -1910.48594001 Ry
     estimated scf accuracy    <       9.92702441 Ry

     iteration #  2     ecut=    55.12 Ry     beta= 0.10
     Davidson diagonalization with overlap
     ethr =  5.91E-03,  avg # of iterations =  1.7

     negative rho (up, down):  1.452E-03 0.000E+00

     Adding external electric field

     Computed dipole along edir(3) : 
        Dipole               -0.1463 Ry au,         -0.3719 Debye
        Dipole field         -0.0004 Ry au, 

        Potential amp.        0.0373 Ry
        Total length         44.8913 bohr


     total cpu time spent up to now is      493.4 secs

     total energy              =   -1911.03227283 Ry
     estimated scf accuracy    <       1.07511667 Ry

     iteration #  3     ecut=    55.12 Ry     beta= 0.10
     Davidson diagonalization with overlap
     ethr =  6.40E-04,  avg # of iterations =  7.4

     negative rho (up, down):  1.502E-03 0.000E+00

     Adding external electric field

     Computed dipole along edir(3) : 
        Dipole                0.2051 Ry au,          0.5214 Debye
        Dipole field          0.0006 Ry au, 

        Potential amp.       -0.0523 Ry
        Total length         44.8913 bohr


     total cpu time spent up to now is      754.8 secs

     total energy              =   -1911.12101571 Ry
     estimated scf accuracy    <       2.89998337 Ry

     iteration #  4     ecut=    55.12 Ry     beta= 0.10
     Davidson diagonalization with overlap
     ethr =  6.40E-04,  avg # of iterations =  2.8

     negative rho (up, down):  1.524E-03 0.000E+00

     Adding external electric field

     Computed dipole along edir(3) : 
        Dipole                0.0181 Ry au,          0.0460 Debye
        Dipole field          0.0001 Ry au, 

        Potential amp.       -0.0046 Ry
        Total length         44.8913 bohr


     total cpu time spent up to now is      930.3 secs

     total energy              =   -1911.10713628 Ry
     estimated scf accuracy    <       2.40756038 Ry

     iteration #  5     ecut=    55.12 Ry     beta= 0.10
     Davidson diagonalization with overlap
     ethr =  6.40E-04,  avg # of iterations =  1.8

     negative rho (up, down):  1.502E-03 0.000E+00

     Adding external electric field

     Computed dipole along edir(3) : 
        Dipole                0.0347 Ry au,          0.0882 Debye
        Dipole field          0.0001 Ry au, 

        Potential amp.       -0.0088 Ry
        Total length         44.8913 bohr


     total cpu time spent up to now is     1105.8 secs

     total energy              =   -1911.11801687 Ry
     estimated scf accuracy    <       0.26902709 Ry

     iteration #  6     ecut=    55.12 Ry     beta= 0.10
     Davidson diagonalization with overlap
     c_bands:  1 eigenvalues not converged
     ethr =  1.60E-04,  avg # of iterations =  8.3

     negative rho (up, down):  1.483E-03 0.000E+00

     Adding external electric field

     Computed dipole along edir(3) : 
        Dipole                0.0424 Ry au,          0.1077 Debye
        Dipole field          0.0001 Ry au, 

        Potential amp.       -0.0108 Ry
        Total length         44.8913 bohr


     total cpu time spent up to now is     1339.5 secs

     total energy              =   -1911.12224551 Ry
     estimated scf accuracy    <       0.17986173 Ry

     iteration #  7     ecut=    55.12 Ry     beta= 0.10
     Davidson diagonalization with overlap
     c_bands:  2 eigenvalues not converged
     ethr =  1.07E-04,  avg # of iterations =  3.1

     negative rho (up, down):  1.689E-03 0.000E+00

     Adding external electric field

     Computed dipole along edir(3) : 
        Dipole                0.0395 Ry au,          0.1005 Debye
        Dipole field          0.0001 Ry au, 

        Potential amp.       -0.0101 Ry
        Total length         44.8913 bohr


     total cpu time spent up to now is     1530.0 secs

     total energy              =   -1911.13575455 Ry
     estimated scf accuracy    <       0.04733882 Ry

     iteration #  8     ecut=    55.12 Ry     beta= 0.10
     Davidson diagonalization with overlap
     c_bands:  1 eigenvalues not converged
     ethr =  2.82E-05,  avg # of iterations =  8.3

     negative rho (up, down):  2.498E-03 0.000E+00

     Adding external electric field

     Computed dipole along edir(3) : 
        Dipole                0.0473 Ry au,          0.1203 Debye
        Dipole field          0.0001 Ry au, 

        Potential amp.       -0.0121 Ry
        Total length         44.8913 bohr


     total cpu time spent up to now is     1761.0 secs

     total energy              =   -1911.13512864 Ry
     estimated scf accuracy    <       0.04569632 Ry

     iteration #  9     ecut=    55.12 Ry     beta= 0.10
     Davidson diagonalization with overlap
     c_bands:  1 eigenvalues not converged
     ethr =  2.72E-05,  avg # of iterations =  2.7

     negative rho (up, down):  2.462E-03 0.000E+00

     Adding external electric field

     Computed dipole along edir(3) : 
        Dipole                0.0463 Ry au,          0.1177 Debye
        Dipole field          0.0001 Ry au, 

        Potential amp.       -0.0118 Ry
        Total length         44.8913 bohr


     total cpu time spent up to now is     1948.5 secs

     total energy              =   -1911.13720310 Ry
     estimated scf accuracy    <       0.00821966 Ry

     iteration # 10     ecut=    55.12 Ry     beta= 0.10
     Davidson diagonalization with overlap
     c_bands:  1 eigenvalues not converged
     c_bands:  1 eigenvalues not converged
     c_bands:  2 eigenvalues not converged
     c_bands:  1 eigenvalues not converged
     c_bands:  1 eigenvalues not converged
     c_bands:  1 eigenvalues not converged
     c_bands:  1 eigenvalues not converged
     c_bands:  1 eigenvalues not converged
     c_bands:  1 eigenvalues not converged
     c_bands:  2 eigenvalues not converged
     c_bands:  2 eigenvalues not converged
     ethr =  4.89E-06,  avg # of iterations = 10.8

     negative rho (up, down):  2.614E-03 0.000E+00

     Adding external electric field

     Computed dipole along edir(3) : 
        Dipole                0.0404 Ry au,          0.1027 Debye
        Dipole field          0.0001 Ry au, 

        Potential amp.       -0.0103 Ry
        Total length         44.8913 bohr


     total cpu time spent up to now is     2285.4 secs

     total energy              =   -1911.13805034 Ry
     estimated scf accuracy    <       0.01747014 Ry

     iteration # 11     ecut=    55.12 Ry     beta= 0.10
     Davidson diagonalization with overlap
     c_bands:  1 eigenvalues not converged
     c_bands:  1 eigenvalues not converged
     ethr =  4.89E-06,  avg # of iterations =  5.7

     negative rho (up, down):  2.951E-03 0.000E+00

     Adding external electric field

     Computed dipole along edir(3) : 
        Dipole                0.0442 Ry au,          0.1123 Debye
        Dipole field          0.0001 Ry au, 

        Potential amp.       -0.0113 Ry
        Total length         44.8913 bohr


     total cpu time spent up to now is     2500.4 secs

     total energy              =   -1911.13801771 Ry
     estimated scf accuracy    <       0.00838937 Ry

     iteration # 12     ecut=    55.12 Ry     beta= 0.10
     Davidson diagonalization with overlap
     ethr =  4.89E-06,  avg # of iterations =  2.5

     negative rho (up, down):  2.778E-03 0.000E+00

     Adding external electric field

     Computed dipole along edir(3) : 
        Dipole                0.0412 Ry au,          0.1047 Debye
        Dipole field          0.0001 Ry au, 

        Potential amp.       -0.0105 Ry
        Total length         44.8913 bohr


     total cpu time spent up to now is     2698.0 secs

     total energy              =   -1911.13896035 Ry
     estimated scf accuracy    <       0.00099404 Ry

     iteration # 13     ecut=    55.12 Ry     beta= 0.10
     Davidson diagonalization with overlap
     c_bands:  1 eigenvalues not converged
     c_bands:  1 eigenvalues not converged
     ethr =  5.92E-07,  avg # of iterations =  5.9

     negative rho (up, down):  2.791E-03 0.000E+00

     Adding external electric field

     Computed dipole along edir(3) : 
        Dipole                0.0436 Ry au,          0.1108 Debye
        Dipole field          0.0001 Ry au, 

        Potential amp.       -0.0111 Ry
        Total length         44.8913 bohr


     total cpu time spent up to now is     2917.2 secs

     total energy              =   -1911.13907587 Ry
     estimated scf accuracy    <       0.00038169 Ry

     iteration # 14     ecut=    55.12 Ry     beta= 0.10
     Davidson diagonalization with overlap
     c_bands:  1 eigenvalues not converged
     c_bands:  1 eigenvalues not converged
     c_bands:  1 eigenvalues not converged
     c_bands:  1 eigenvalues not converged
     ethr =  2.27E-07,  avg # of iterations =  7.9

     negative rho (up, down):  2.612E-03 0.000E+00

     Adding external electric field

     Computed dipole along edir(3) : 
        Dipole                0.0438 Ry au,          0.1114 Debye
        Dipole field          0.0001 Ry au, 

        Potential amp.       -0.0112 Ry
        Total length         44.8913 bohr


     total cpu time spent up to now is     3163.0 secs

     total energy              =   -1911.13912954 Ry
     estimated scf accuracy    <       0.00020661 Ry

     iteration # 15     ecut=    55.12 Ry     beta= 0.10
     Davidson diagonalization with overlap
     ethr =  1.23E-07,  avg # of iterations =  2.8

     negative rho (up, down):  2.462E-03 0.000E+00

     Adding external electric field

     Computed dipole along edir(3) : 
        Dipole                0.0420 Ry au,          0.1068 Debye
        Dipole field          0.0001 Ry au, 

        Potential amp.       -0.0107 Ry
        Total length         44.8913 bohr


     total cpu time spent up to now is     3360.4 secs

     total energy              =   -1911.13914358 Ry
     estimated scf accuracy    <       0.00002588 Ry

     iteration # 16     ecut=    55.12 Ry     beta= 0.10
     Davidson diagonalization with overlap
     ethr =  1.54E-08,  avg # of iterations =  5.9

     negative rho (up, down):  1.365E-03 0.000E+00

     Adding external electric field

     Computed dipole along edir(3) : 
        Dipole                0.0429 Ry au,          0.1090 Debye
        Dipole field          0.0001 Ry au, 

        Potential amp.       -0.0109 Ry
        Total length         44.8913 bohr


     total cpu time spent up to now is     3625.8 secs

     End of self-consistent calculation

          k = 0.0000 0.0000 0.0000 ( 30535 PWs)   bands (ev):

   -71.1411 -71.1309 -70.6531 -70.6432 -70.6290 -70.6193 -55.7998 -55.7929
   -55.7807 -55.7739 -55.5860 -55.5674 -41.2188 -41.1322 -41.1185 -41.1144
   -41.1064 -41.0748 -40.7418 -40.6900 -40.6826 -40.6719 -40.6669 -40.6540
   -40.5998 -40.5973 -40.5856 -40.5684 -40.5548 -40.5482 -32.1218 -32.1148
   -32.1067 -32.1013 -32.0286 -32.0071 -31.9526 -31.9399 -31.9291 -31.9190
   -31.8764 -31.8485 -31.8288 -31.7953 -31.7949 -31.7640 -31.7391 -31.6955
    -4.5202  -2.9292  -2.7352  -2.6815  -2.6493  -2.5679  -2.4489  -2.3412
    -2.3087  -2.1833  -1.7863  -1.7157  -1.1476  -1.1449  -1.0179  -0.9992
    -0.9189  -0.7891  -0.7482  -0.7456  -0.6395  -0.5051  -0.2411   0.1422
     0.2377   0.2435   0.4041   0.7596   1.0517   1.2246   1.2530   1.3407
     1.3667   1.9191   2.3191   2.6169   2.6243   2.6331   2.7445   2.7518
     2.8655   2.9656   3.1411   3.1688   3.2187   3.2335   3.2505   3.2870
     3.3822   3.3823   3.4293   3.4920   3.5372

          k = 0.0000 0.0165 0.0000 ( 30534 PWs)   bands (ev):

   -71.1409 -71.1311 -70.6529 -70.6433 -70.6289 -70.6194 -55.7995 -55.7927
   -55.7811 -55.7743 -55.5857 -55.5678 -41.2162 -41.1316 -41.1184 -41.1142
   -41.1065 -41.0771 -40.7392 -40.6875 -40.6819 -40.6714 -40.6667 -40.6540
   -40.6000 -40.5991 -40.5858 -40.5682 -40.5550 -40.5504 -32.1216 -32.1147
   -32.1071 -32.1017 -32.0260 -32.0046 -31.9530 -31.9407 -31.9304 -31.9205
   -31.8738 -31.8520 -31.8324 -31.7960 -31.7955 -31.7632 -31.7394 -31.6990
    -4.4687  -2.8813  -2.6922  -2.6445  -2.6228  -2.5384  -2.4240  -2.3276
    -2.2718  -2.1643  -1.7464  -1.6861  -1.1981  -1.0561  -1.0042  -0.9994
    -0.8951  -0.7804  -0.7676  -0.6799  -0.6572  -0.4966  -0.2362   0.1079
     0.2034   0.2401   0.4036   0.7857   0.9831   1.1060   1.2359   1.3240
     1.3404   1.8610   2.0846   2.5679   2.5881   2.6217   2.6665   2.7118
     2.8488   2.9472   3.1129   3.1663   3.2002   3.2253   3.2464   3.3045
     3.3062   3.3942   3.4291   3.4395   3.5294

          k = 0.0000 0.0331 0.0000 ( 30556 PWs)   bands (ev):

   -71.1404 -71.1316 -70.6524 -70.6438 -70.6284 -70.6199 -55.7986 -55.7918
   -55.7821 -55.7754 -55.5849 -55.5688 -41.2086 -41.1298 -41.1180 -41.1137
   -41.1067 -41.0838 -40.7316 -40.6800 -40.6799 -40.6700 -40.6663 -40.6544
   -40.6065 -40.5989 -40.5866 -40.5675 -40.5570 -40.5557 -32.1212 -32.1143
   -32.1083 -32.1026 -32.0183 -31.9971 -31.9538 -31.9427 -31.9338 -31.9247
   -31.8661 -31.8622 -31.8427 -31.7978 -31.7972 -31.7613 -31.7403 -31.7093
    -4.3173  -2.7444  -2.5692  -2.5594  -2.5347  -2.4555  -2.3506  -2.2824
    -2.1615  -2.1121  -1.6283  -1.6145  -1.2100  -1.0018  -0.9666  -0.9287
    -0.8246  -0.7606  -0.7440  -0.7078  -0.5882  -0.4492  -0.2240   0.0175
     0.1009   0.2207   0.4286   0.7584   0.7743   0.8957   1.2277   1.2608
     1.2783   1.6045   1.6625   2.2794   2.3875   2.6204   2.6540   2.6984
     2.7497   2.9075   2.9784   3.0370   3.0786   3.1148   3.1680   3.2161
     3.3542   3.3564   3.4764   3.4948   3.5300

          k = 0.0000 0.0496 0.0000 ( 30583 PWs)   bands (ev):

   -71.1396 -71.1324 -70.6516 -70.6446 -70.6276 -70.6207 -55.7973 -55.7905
   -55.7838 -55.7770 -55.5835 -55.5704 -41.1967 -41.1273 -41.1175 -41.1128
   -41.1071 -41.0947 -40.7196 -40.6771 -40.6687 -40.6678 -40.6657 -40.6548
   -40.6174 -40.5979 -40.5878 -40.5681 -40.5660 -40.5568 -32.1205 -32.1135
   -32.1100 -32.1040 -32.0059 -31.9851 -31.9548 -31.9451 -31.9387 -31.9305
   -31.8781 -31.8586 -31.8537 -31.8004 -31.7993 -31.7586 -31.7418 -31.7252
    -4.0763  -2.5434  -2.5201  -2.3863  -2.3551  -2.3329  -2.2322  -2.1850
    -2.0418  -1.9800  -1.5461  -1.4366  -1.1802  -1.0134  -0.9208  -0.7888
    -0.7826  -0.7450  -0.7172  -0.6770  -0.5171  -0.3143  -0.2107  -0.0764
    -0.0273   0.1584   0.3335   0.4333   0.6727   0.8755   1.0895   1.1533
     1.1766   1.2673   1.2730   1.9685   2.2092   2.2949   2.6164   2.6351
     2.6698   2.8308   2.8380   2.8945   2.9203   3.0242   3.1139   3.1685
     3.2237   3.3078   3.3587   3.5121   3.5231

          k = 0.0000 0.0662 0.0000 ( 30629 PWs)   bands (ev):

   -71.1385 -71.1335 -70.6506 -70.6456 -70.6266 -70.6217 -55.7955 -55.7886
   -55.7859 -55.7791 -55.5818 -55.5725 -41.1813 -41.1248 -41.1174 -41.1118
   -41.1087 -41.1078 -40.7042 -40.6739 -40.6659 -40.6653 -40.6577 -40.6514
   -40.6317 -40.5968 -40.5893 -40.5816 -40.5650 -40.5582 -32.1195 -32.1124
   -32.1121 -32.1057 -31.9897 -31.9699 -31.9552 -31.9466 -31.9439 -31.9364
   -31.8979 -31.8785 -31.8377 -31.8032 -31.8008 -31.7555 -31.7452 -31.7437
    -3.7642  -2.5802  -2.3259  -2.1873  -2.1760  -2.1199  -2.0782  -2.0349
    -1.9784  -1.7339  -1.5141  -1.1807  -1.1347  -1.0437  -0.9002  -0.8593
    -0.7453  -0.7079  -0.6439  -0.5860  -0.4303  -0.2296  -0.1479  -0.1173
    -0.0879   0.0282   0.0639   0.3051   0.6105   0.6694   0.7547   0.7889
     1.1096   1.1198   1.3304   1.5340   2.0846   2.0931   2.2304   2.3859
     2.6302   2.7405   2.8118   2.8258   2.8755   2.9485   3.0951   3.1370
     3.1666   3.2335   3.2627   3.2670   3.4052

          k = 0.0000 0.0827 0.0000 ( 30607 PWs)   bands (ev):

   -71.1373 -71.1347 -70.6494 -70.6468 -70.6254 -70.6229 -55.7933 -55.7883
   -55.7865 -55.7815 -55.5796 -55.5748 -41.1636 -41.1279 -41.1198 -41.1178
   -41.1107 -41.1086 -40.6868 -40.6712 -40.6660 -40.6627 -40.6583 -40.6483
   -40.6349 -40.5997 -40.5936 -40.5910 -40.5634 -40.5599 -32.1181 -32.1143
   -32.1110 -32.1076 -31.9713 -31.9555 -31.9551 -31.9483 -31.9453 -31.9379
   -31.9197 -31.9006 -31.8200 -31.8059 -31.7998 -31.7675 -31.7520 -31.7461
    -3.4107  -2.7658  -2.1455  -2.0540  -1.9795  -1.9551  -1.9488  -1.8943
    -1.8465  -1.5284  -1.4481  -1.1151  -1.0910  -0.9575  -0.9251  -0.8817
    -0.8167  -0.7437  -0.5885  -0.5157  -0.3423  -0.3317  -0.2574  -0.0947
    -0.0443   0.0148   0.1767   0.2041   0.3295   0.3749   0.4892   0.7118
     1.0554   1.1285   1.1629   1.4498   1.7735   1.9843   2.0337   2.0964
     2.6688   2.7361   2.7560   2.7948   2.8372   2.8535   2.9450   3.0403
     3.1325   3.1499   3.1945   3.2057   3.2701

          k = 0.0000-0.0992 0.0000 ( 30552 PWs)   bands (ev):

   -71.1360 -71.1360 -70.6481 -70.6481 -70.6241 -70.6241 -55.7908 -55.7908
   -55.7840 -55.7840 -55.5773 -55.5772 -41.1451 -41.1451 -41.1189 -41.1189
   -41.1096 -41.1096 -40.6716 -40.6715 -40.6640 -40.6640 -40.6603 -40.6603
   -40.6168 -40.6168 -40.5927 -40.5927 -40.5616 -40.5616 -32.1164 -32.1164
   -32.1093 -32.1093 -31.9576 -31.9576 -31.9504 -31.9504 -31.9393 -31.9392
   -31.9224 -31.9224 -31.8092 -31.8092 -31.7885 -31.7885 -31.7489 -31.7489
    -3.0593  -3.0593  -2.0338  -2.0338  -1.9261  -1.9261  -1.8615  -1.8615
    -1.6256  -1.6256  -1.1746  -1.1746  -1.1156  -1.1156  -0.9366  -0.9366
    -0.6796  -0.6796  -0.5046  -0.5046  -0.4268  -0.4268  -0.1996  -0.1996
     0.0122   0.0122   0.1361   0.1361   0.3025   0.3025   0.5652   0.5652
     1.0049   1.0049   1.3167   1.3167   1.7658   1.7658   2.0177   2.0177
     2.7200   2.7200   2.7555   2.7555   2.7952   2.7952   2.8919   2.8919
     3.1687   3.1688   3.2205   3.2215   3.2589

          k = 0.0156-0.0055 0.0000 ( 30534 PWs)   bands (ev):

   -71.1409 -71.1311 -70.6529 -70.6433 -70.6289 -70.6194 -55.7995 -55.7927
   -55.7811 -55.7743 -55.5857 -55.5678 -41.2162 -41.1316 -41.1184 -41.1142
   -41.1065 -41.0771 -40.7392 -40.6875 -40.6819 -40.6714 -40.6667 -40.6540
   -40.6000 -40.5991 -40.5858 -40.5682 -40.5550 -40.5504 -32.1216 -32.1147
   -32.1071 -32.1017 -32.0260 -32.0046 -31.9530 -31.9407 -31.9304 -31.9205
   -31.8738 -31.8520 -31.8324 -31.7960 -31.7955 -31.7632 -31.7394 -31.6990
    -4.4687  -2.8813  -2.6922  -2.6445  -2.6228  -2.5384  -2.4240  -2.3276
    -2.2718  -2.1643  -1.7464  -1.6861  -1.1981  -1.0561  -1.0042  -0.9994
    -0.8951  -0.7804  -0.7676  -0.6799  -0.6572  -0.4966  -0.2362   0.1079
     0.2034   0.2401   0.4036   0.7857   0.9831   1.1060   1.2359   1.3240
     1.3404   1.8610   2.0846   2.5679   2.5881   2.6217   2.6665   2.7118
     2.8488   2.9472   3.1129   3.1663   3.2003   3.2253   3.2464   3.3045
     3.3062   3.3942   3.4291   3.4393   3.5305

          k = 0.0156 0.0110 0.0000 ( 30521 PWs)   bands (ev):

   -71.1411 -71.1309 -70.6531 -70.6432 -70.6290 -70.6193 -55.7999 -55.7930
   -55.7808 -55.7740 -55.5861 -55.5674 -41.2182 -41.1313 -41.1179 -41.1146
   -41.1060 -41.0747 -40.7412 -40.6894 -40.6814 -40.6714 -40.6661 -40.6540
   -40.5997 -40.5972 -40.5857 -40.5683 -40.5549 -40.5481 -32.1230 -32.1145
   -32.1063 -32.1018 -32.0300 -32.0084 -31.9530 -31.9398 -31.9334 -31.9223
   -31.8776 -31.8489 -31.8292 -31.7977 -31.7951 -31.7623 -31.7399 -31.6959
    -4.4517  -2.8730  -2.6825  -2.6418  -2.6082  -2.5257  -2.4054  -2.3163
    -2.2861  -2.1429  -1.7473  -1.6802  -1.2654  -1.0364  -0.9863  -0.9450
    -0.8982  -0.7951  -0.7281  -0.6882  -0.6262  -0.4801  -0.1859   0.1271
     0.2457   0.2787   0.4023   0.7423   1.0641   1.2090   1.2705   1.2783
     1.2843   1.8160   2.2334   2.5077   2.6028   2.6191   2.6704   2.6954
     2.8446   2.8579   2.9903   2.9905   3.0446   3.1678   3.2019   3.2971
     3.3468   3.3873   3.4694   3.4784   3.5196

          k = 0.0156 0.0276 0.0000 ( 30579 PWs)   bands (ev):

   -71.1409 -71.1311 -70.6529 -70.6433 -70.6289 -70.6194 -55.7997 -55.7928
   -55.7812 -55.7744 -55.5860 -55.5677 -41.2151 -41.1299 -41.1172 -41.1146
   -41.1057 -41.0769 -40.7380 -40.6863 -40.6796 -40.6703 -40.6653 -40.6542
   -40.5999 -40.5990 -40.5861 -40.5680 -40.5552 -40.5503 -32.1241 -32.1140
   -32.1064 -32.1025 -32.0287 -32.0071 -31.9536 -31.9404 -31.9384 -31.9267
   -31.8762 -31.8527 -31.8331 -31.8004 -31.7958 -31.7602 -31.7409 -31.6998
    -4.3339  -2.7747  -2.5949  -2.5614  -2.5495  -2.4588  -2.3370  -2.2766
    -2.2286  -2.0867  -1.6696  -1.6271  -1.2908  -1.0336  -0.8991  -0.8885
    -0.8483  -0.7906  -0.7117  -0.6305  -0.6022  -0.4395  -0.1311   0.0906
     0.2008   0.2906   0.4254   0.7542   0.9902   1.0497   1.1475   1.2434
     1.3256   1.6713   1.9454   2.3645   2.4608   2.5972   2.6213   2.6231
     2.6940   2.7724   2.8560   2.9175   2.9322   3.0759   3.1793   3.2312
     3.3038   3.3082   3.3735   3.5040   3.5458

          k = 0.0156 0.0441 0.0000 ( 30583 PWs)   bands (ev):

   -71.1403 -71.1317 -70.6524 -70.6438 -70.6284 -70.6199 -55.7989 -55.7920
   -55.7823 -55.7755 -55.5853 -55.5687 -41.2072 -41.1276 -41.1164 -41.1142
   -41.1057 -41.0836 -40.7301 -40.6785 -40.6771 -40.6684 -40.6645 -40.6546
   -40.6064 -40.5987 -40.5870 -40.5672 -40.5569 -40.5560 -32.1248 -32.1131
   -32.1073 -32.1035 -32.0220 -32.0006 -31.9544 -31.9443 -31.9418 -31.9326
   -31.8693 -31.8629 -31.8433 -31.8037 -31.7972 -31.7574 -31.7424 -31.7101
    -4.1234  -2.6054  -2.4938  -2.4394  -2.4069  -2.3524  -2.2218  -2.1940
    -2.1029  -2.0092  -1.5683  -1.5168  -1.2678  -1.0083  -0.8850  -0.8005
    -0.7702  -0.7237  -0.6698  -0.6689  -0.5223  -0.3289  -0.0896   0.0389
     0.0959   0.2244   0.4982   0.6703   0.7488   0.8529   1.0438   1.2920
     1.2976   1.4123   1.4754   2.0779   2.2136   2.3410   2.5320   2.5449
     2.6179   2.7100   2.7197   2.7994   2.8473   2.9833   3.0201   3.1490
     3.2688   3.2894   3.3085   3.3974   3.5677

          k = 0.0156 0.0606 0.0000 ( 30563 PWs)   bands (ev):

   -71.1395 -71.1325 -70.6516 -70.6446 -70.6276 -70.6207 -55.7975 -55.7907
   -55.7840 -55.7772 -55.5840 -55.5703 -41.1951 -41.1251 -41.1161 -41.1135
   -41.1060 -41.0945 -40.7179 -40.6742 -40.6672 -40.6660 -40.6640 -40.6549
   -40.6174 -40.5977 -40.5883 -40.5680 -40.5657 -40.5571 -32.1248 -32.1120
   -32.1087 -32.1049 -32.0101 -31.9891 -31.9550 -31.9498 -31.9435 -31.9384
   -31.8783 -31.8589 -31.8573 -31.8070 -31.7986 -31.7543 -31.7443 -31.7256
    -3.8351  -2.5175  -2.4015  -2.2253  -2.2178  -2.2012  -2.0699  -2.0614
    -1.9339  -1.9152  -1.5322  -1.2959  -1.2190  -0.9896  -0.9096  -0.7611
    -0.7299  -0.7106  -0.6226  -0.6027  -0.4481  -0.1573  -0.1281   0.0330
     0.0607   0.1219   0.2637   0.4668   0.6252   0.7869   0.9343   1.0315
     1.0722   1.2637   1.3636   1.5892   2.0840   2.0934   2.1913   2.3320
     2.4920   2.6726   2.7334   2.7497   2.7552   2.9105   2.9759   3.0228
     3.1807   3.2224   3.2347   3.2598   3.4318

          k = 0.0156 0.0772 0.0000 ( 30579 PWs)   bands (ev):

   -71.1385 -71.1335 -70.6506 -70.6456 -70.6266 -70.6217 -55.7956 -55.7888
   -55.7860 -55.7792 -55.5823 -55.5723 -41.1798 -41.1231 -41.1163 -41.1126
   -41.1087 -41.1066 -40.7027 -40.6716 -40.6646 -40.6633 -40.6583 -40.6497
   -40.6319 -40.5965 -40.5899 -40.5819 -40.5645 -40.5586 -32.1240 -32.1105
   -32.1104 -32.1065 -31.9936 -31.9735 -31.9565 -31.9520 -31.9465 -31.9409
   -31.8976 -31.8782 -31.8409 -31.8095 -31.7994 -31.7514 -31.7467 -31.7449
    -3.4930  -2.6598  -2.2108  -2.0757  -1.9949  -1.9628  -1.9237  -1.9167
    -1.8922  -1.6791  -1.5220  -1.1923  -1.0168  -1.0022  -0.9623  -0.7873
    -0.7727  -0.7083  -0.6022  -0.5176  -0.3657  -0.2495  -0.1081  -0.0257
     0.0348   0.0704   0.2676   0.3292   0.4259   0.4941   0.6250   0.7694
     1.0204   1.1714   1.2709   1.4492   1.7442   1.9391   2.0068   2.0541
     2.4986   2.6685   2.6731   2.7702   2.7837   2.8670   2.8737   3.0081
     3.0552   3.0766   3.1188   3.1596   3.2688

          k = 0.0156-0.1048 0.0000 ( 30598 PWs)   bands (ev):

   -71.1372 -71.1347 -70.6494 -70.6468 -70.6254 -70.6229 -55.7934 -55.7884
   -55.7866 -55.7816 -55.5801 -55.5745 -41.1624 -41.1281 -41.1189 -41.1175
   -41.1116 -41.1075 -40.6855 -40.6698 -40.6659 -40.6608 -40.6591 -40.6489
   -40.6336 -40.6002 -40.5934 -40.5916 -40.5629 -40.5602 -32.1225 -32.1121
   -32.1089 -32.1082 -31.9740 -31.9587 -31.9568 -31.9502 -31.9486 -31.9379
   -31.9188 -31.8997 -31.8215 -31.8108 -31.7984 -31.7669 -31.7495 -31.7481
    -3.1340  -2.9169  -2.0718  -1.9722  -1.9072  -1.8678  -1.8561  -1.8469
    -1.6772  -1.5693  -1.4265  -1.2003  -1.0393  -1.0021  -0.8948  -0.8128
    -0.7799  -0.6609  -0.5743  -0.4887  -0.3732  -0.3673  -0.2249  -0.1699
     0.0387   0.0929   0.1631   0.2152   0.2897   0.3002   0.5399   0.5941
     0.9597   1.0106   1.2122   1.3914   1.7229   1.7871   1.9648   1.9770
     2.5673   2.6681   2.7119   2.7773   2.7857   2.8149   2.8447   2.9641
     3.0597   3.0890   3.0892   3.1546   3.2597

          k = 0.0156-0.0882 0.0000 ( 30616 PWs)   bands (ev):

   -71.1361 -71.1359 -70.6481 -70.6481 -70.6242 -70.6241 -55.7909 -55.7908
   -55.7841 -55.7840 -55.5776 -55.5769 -41.1458 -41.1441 -41.1195 -41.1186
   -41.1106 -41.1086 -40.6714 -40.6713 -40.6651 -40.6643 -40.6610 -40.6583
   -40.6179 -40.6159 -40.5933 -40.5924 -40.5620 -40.5612 -32.1202 -32.1138
   -32.1100 -32.1072 -31.9597 -31.9589 -31.9486 -31.9483 -31.9400 -31.9381
   -31.9242 -31.9215 -31.8113 -31.8058 -31.7899 -31.7885 -31.7525 -31.7455
    -3.2504  -2.8101  -2.0255  -2.0130  -1.9373  -1.9228  -1.9140  -1.8546
    -1.7283  -1.4932  -1.2278  -1.1398  -1.1376  -1.0494  -1.0081  -0.7923
    -0.6652  -0.6622  -0.6335  -0.4709  -0.3821  -0.3513  -0.3003  -0.1925
    -0.1095  -0.0930   0.0926   0.1775   0.2189   0.2889   0.4963   0.6531
     0.9882   1.0480   1.0531   1.4329   1.7604   1.9636   1.9659   2.1037
     2.6848   2.7125   2.7638   2.7872   2.8163   2.8292   2.9358   2.9891
     3.1360   3.1408   3.2236   3.2658   3.3205

          k = 0.0156-0.0717 0.0000 ( 30621 PWs)   bands (ev):

   -71.1374 -71.1346 -70.6494 -70.6468 -70.6254 -70.6229 -55.7932 -55.7883
   -55.7864 -55.7815 -55.5792 -55.5751 -41.1646 -41.1270 -41.1214 -41.1182
   -41.1099 -41.1096 -40.6877 -40.6728 -40.6670 -40.6635 -40.6567 -40.6480
   -40.6364 -40.5994 -40.5938 -40.5907 -40.5637 -40.5595 -32.1174 -32.1154
   -32.1116 -32.1054 -31.9678 -31.9571 -31.9554 -31.9450 -31.9400 -31.9355
   -31.9213 -31.9020 -31.8171 -31.8028 -31.8010 -31.7689 -31.7556 -31.7433
    -3.6058  -2.5799  -2.1828  -2.0993  -2.0923  -2.0382  -1.9976  -1.9791
    -1.9702  -1.4870  -1.4293  -1.1610  -1.0730  -1.0345  -0.9091  -0.8091
    -0.7749  -0.6847  -0.5960  -0.5477  -0.4049  -0.3149  -0.3104  -0.2523
    -0.1590  -0.0546   0.0238   0.1441   0.3112   0.4417   0.6126   0.7643
     0.9460   1.1449   1.2896   1.3839   1.9980   2.0356   2.1749   2.4046
     2.7303   2.7751   2.8034   2.8182   2.8404   2.9091   3.0948   3.1972
     3.2286   3.2461   3.2488   3.3270   3.3293

          k = 0.0156-0.0551 0.0000 ( 30591 PWs)   bands (ev):

   -71.1386 -71.1334 -70.6506 -70.6456 -70.6266 -70.6217 -55.7953 -55.7885
   -55.7858 -55.7791 -55.5814 -55.5727 -41.1823 -41.1259 -41.1182 -41.1112
   -41.1088 -41.1087 -40.7053 -40.6760 -40.6671 -40.6661 -40.6563 -40.6531
   -40.6316 -40.5971 -40.5890 -40.5814 -40.5652 -40.5579 -32.1169 -32.1143
   -32.1129 -32.1040 -31.9864 -31.9663 -31.9562 -31.9500 -31.9351 -31.9310
   -31.8986 -31.8791 -31.8346 -31.8027 -31.7984 -31.7589 -31.7457 -31.7415
    -3.9344  -2.4794  -2.3979  -2.2955  -2.2531  -2.2199  -2.1888  -2.1649
    -2.0341  -1.7832  -1.4486  -1.2909  -1.1250  -1.0729  -0.8980  -0.7910
    -0.7644  -0.6922  -0.6860  -0.6206  -0.4924  -0.3172  -0.2946  -0.2245
    -0.1461  -0.0460   0.1219   0.2883   0.5802   0.6812   0.9093   0.9158
     1.0080   1.1880   1.2617   1.8478   2.0859   2.1312   2.6225   2.6815
     2.6899   2.7970   2.8623   2.9016   2.9402   3.0307   3.1480   3.1957
     3.2134   3.3116   3.3524   3.4100   3.5462

          k = 0.0156-0.0386 0.0000 ( 30597 PWs)   bands (ev):

   -71.1396 -71.1324 -70.6516 -70.6446 -70.6276 -70.6207 -55.7972 -55.7903
   -55.7837 -55.7769 -55.5832 -55.5705 -41.1976 -41.1286 -41.1184 -41.1125
   -41.1078 -41.0948 -40.7205 -40.6790 -40.6693 -40.6686 -40.6670 -40.6545
   -40.6174 -40.5981 -40.5875 -40.5682 -40.5661 -40.5566 -32.1184 -32.1139
   -32.1114 -32.1028 -32.0035 -31.9827 -31.9549 -31.9466 -31.9316 -31.9255
   -31.8780 -31.8585 -31.8515 -31.7999 -31.7966 -31.7613 -31.7403 -31.7251
    -4.2011  -2.6226  -2.5056  -2.4833  -2.4252  -2.3913  -2.3134  -2.2726
    -2.0985  -2.0198  -1.5316  -1.5121  -1.1036  -1.0881  -0.9346  -0.8555
    -0.8056  -0.7750  -0.7236  -0.7170  -0.5291  -0.4532  -0.3034  -0.1100
    -0.0182   0.1821   0.3666   0.3949   0.6202   0.9486   1.1234   1.1657
     1.2019   1.3267   1.3968   2.1536   2.2532   2.4241   2.6528   2.7607
     2.7874   2.9221   2.9966   3.0672   3.0726   3.1334   3.1653   3.1807
     3.2665   3.3889   3.4019   3.5007   3.5852

          k = 0.0156-0.0221 0.0000 ( 30539 PWs)   bands (ev):

   -71.1404 -71.1316 -70.6524 -70.6438 -70.6284 -70.6199 -55.7986 -55.7917
   -55.7821 -55.7753 -55.5847 -55.5689 -41.2091 -41.1306 -41.1185 -41.1135
   -41.1071 -41.0839 -40.7321 -40.6810 -40.6806 -40.6704 -40.6671 -40.6542
   -40.6066 -40.5990 -40.5865 -40.5676 -40.5571 -40.5556 -32.1200 -32.1145
   -32.1089 -32.1020 -32.0169 -31.9958 -31.9537 -31.9431 -31.9298 -31.9217
   -31.8648 -31.8620 -31.8424 -31.7973 -31.7956 -31.7629 -31.7396 -31.7090
    -4.3834  -2.7945  -2.6222  -2.5814  -2.5710  -2.4914  -2.3926  -2.3147
    -2.1833  -2.1474  -1.6669  -1.6295  -1.1100  -1.0736  -1.0477  -0.9389
    -0.8484  -0.7774  -0.7512  -0.7196  -0.6071  -0.5030  -0.2758   0.0239
     0.1053   0.2135   0.4032   0.7689   0.7827   0.9145   1.2301   1.2461
     1.3605   1.6620   1.7530   2.3398   2.4580   2.6357   2.7222   2.7387
     2.8121   3.0131   3.0178   3.1320   3.1556   3.2453   3.3044   3.3091
     3.3160   3.3494   3.4463   3.4595   3.4651

          k = 0.0312-0.0110 0.0000 ( 30556 PWs)   bands (ev):

   -71.1404 -71.1316 -70.6524 -70.6438 -70.6284 -70.6199 -55.7986 -55.7918
   -55.7821 -55.7754 -55.5849 -55.5688 -41.2086 -41.1298 -41.1180 -41.1137
   -41.1067 -41.0838 -40.7316 -40.6800 -40.6799 -40.6700 -40.6663 -40.6544
   -40.6065 -40.5989 -40.5866 -40.5675 -40.5570 -40.5557 -32.1212 -32.1143
   -32.1083 -32.1026 -32.0183 -31.9971 -31.9538 -31.9427 -31.9338 -31.9247
   -31.8661 -31.8622 -31.8427 -31.7978 -31.7972 -31.7613 -31.7403 -31.7093
    -4.3173  -2.7444  -2.5692  -2.5594  -2.5347  -2.4555  -2.3506  -2.2824
    -2.1615  -2.1121  -1.6283  -1.6145  -1.2100  -1.0018  -0.9666  -0.9287
    -0.8246  -0.7606  -0.7440  -0.7078  -0.5882  -0.4492  -0.2240   0.0175
     0.1009   0.2207   0.4286   0.7584   0.7743   0.8957   1.2277   1.2608
     1.2783   1.6045   1.6625   2.2794   2.3875   2.6204   2.6540   2.6985
     2.7497   2.9075   2.9784   3.0370   3.0786   3.1149   3.1680   3.2160
     3.3541   3.3564   3.4765   3.4951   3.5300

          k = 0.0312 0.0055 0.0000 ( 30579 PWs)   bands (ev):

   -71.1409 -71.1311 -70.6529 -70.6433 -70.6289 -70.6194 -55.7997 -55.7928
   -55.7812 -55.7744 -55.5860 -55.5677 -41.2151 -41.1299 -41.1172 -41.1146
   -41.1057 -41.0769 -40.7380 -40.6863 -40.6796 -40.6703 -40.6653 -40.6542
   -40.5999 -40.5990 -40.5861 -40.5680 -40.5552 -40.5503 -32.1241 -32.1140
   -32.1064 -32.1025 -32.0287 -32.0071 -31.9536 -31.9404 -31.9384 -31.9267
   -31.8762 -31.8527 -31.8331 -31.8004 -31.7958 -31.7602 -31.7409 -31.6998
    -4.3339  -2.7747  -2.5949  -2.5614  -2.5495  -2.4588  -2.3370  -2.2766
    -2.2286  -2.0867  -1.6696  -1.6271  -1.2908  -1.0336  -0.8991  -0.8885
    -0.8483  -0.7906  -0.7117  -0.6305  -0.6022  -0.4395  -0.1311   0.0906
     0.2008   0.2906   0.4254   0.7542   0.9902   1.0497   1.1475   1.2434
     1.3256   1.6713   1.9454   2.3645   2.4608   2.5972   2.6213   2.6231
     2.6940   2.7724   2.8560   2.9175   2.9322   3.0760   3.1793   3.2312
     3.3043   3.3082   3.3735   3.5041   3.5455

          k = 0.0312 0.0220 0.0000 ( 30581 PWs)   bands (ev):

   -71.1410 -71.1310 -70.6531 -70.6432 -70.6290 -70.6193 -55.8001 -55.7933
   -55.7810 -55.7742 -55.5866 -55.5673 -41.2166 -41.1288 -41.1161 -41.1151
   -41.1050 -41.0744 -40.7395 -40.6877 -40.6782 -40.6696 -40.6641 -40.6541
   -40.5996 -40.5970 -40.5862 -40.5679 -40.5551 -40.5478 -32.1267 -32.1134
   -32.1062 -32.1019 -32.0339 -32.0121 -31.9542 -31.9445 -31.9399 -31.9310
   -31.8810 -31.8500 -31.8303 -31.8040 -31.7957 -31.7581 -31.7419 -31.6971
    -4.2511  -2.7167  -2.5629  -2.4972  -2.4877  -2.4051  -2.2725  -2.2483
    -2.2236  -2.0244  -1.6340  -1.5831  -1.3356  -1.0573  -0.8370  -0.8102
    -0.8085  -0.7863  -0.6714  -0.5828  -0.5460  -0.4228  -0.0319   0.1132
     0.2405   0.3886   0.3926   0.6945   1.0093   1.1057   1.1244   1.1784
     1.3291   1.5647   1.9959   2.2366   2.4336   2.5251   2.5313   2.5367
     2.5515   2.6646   2.6865   2.8077   2.8188   2.9835   3.0119   3.1499
     3.2970   3.3015   3.3545   3.4772   3.5489

          k = 0.0312 0.0386 0.0000 ( 30594 PWs)   bands (ev):

   -71.1408 -71.1312 -70.6529 -70.6433 -70.6288 -70.6194 -55.7999 -55.7931
   -55.7814 -55.7747 -55.5866 -55.5676 -41.2132 -41.1269 -41.1151 -41.1151
   -41.1045 -41.0766 -40.7360 -40.6843 -40.6761 -40.6679 -40.6630 -40.6541
   -40.5998 -40.5988 -40.5868 -40.5675 -40.5555 -40.5500 -32.1287 -32.1124
   -32.1073 -32.1015 -32.0334 -32.0116 -31.9554 -31.9510 -31.9410 -31.9363
   -31.8803 -31.8540 -31.8343 -31.8080 -31.7965 -31.7555 -31.7433 -31.7011
    -4.0747  -2.5856  -2.4628  -2.4101  -2.3594  -2.3131  -2.1844  -2.1638
    -2.1471  -1.9370  -1.5263  -1.5238  -1.3301  -1.0485  -0.8248  -0.7835
    -0.7055  -0.6895  -0.6235  -0.5718  -0.4769  -0.3485   0.0441   0.1136
     0.1894   0.3117   0.5107   0.6671   0.8889   0.8927   1.0032   1.2518
     1.3377   1.4026   1.6893   2.1021   2.1585   2.2404   2.3906   2.4095
     2.4571   2.5965   2.5987   2.6996   2.7095   2.9043   2.9097   3.1130
     3.2237   3.2637   3.2702   3.4041   3.4888

          k = 0.0312 0.0551 0.0000 ( 30572 PWs)   bands (ev):

   -71.1403 -71.1317 -70.6524 -70.6438 -70.6284 -70.6199 -55.7991 -55.7923
   -55.7825 -55.7757 -55.5859 -55.5686 -41.2052 -41.1246 -41.1149 -41.1144
   -41.1044 -41.0834 -40.7280 -40.6764 -40.6738 -40.6656 -40.6625 -40.6542
   -40.6063 -40.5986 -40.5878 -40.5666 -40.5567 -40.5562 -32.1298 -32.1112
   -32.1088 -32.1016 -32.0269 -32.0053 -31.9592 -31.9540 -31.9452 -31.9391
   -31.8736 -31.8639 -31.8443 -31.8117 -31.7977 -31.7527 -31.7451 -31.7112
    -3.8168  -2.4087  -2.3967  -2.2961  -2.1953  -2.1699  -2.0648  -2.0238
    -2.0001  -1.8466  -1.4926  -1.3473  -1.2834  -1.0326  -0.8500  -0.7097
    -0.6424  -0.6029  -0.5959  -0.5638  -0.4385  -0.1878  -0.0188   0.1511
     0.1614   0.2231   0.5176   0.5248   0.5793   0.8836   0.9124   1.1465
     1.2279   1.3506   1.3527   1.6487   1.9921   2.0170   2.0674   2.2281
     2.2961   2.5486   2.5635   2.6422   2.6551   2.8590   2.8778   2.9313
     3.1049   3.1891   3.2293   3.3303   3.3674

          k = 0.0312 0.0717 0.0000 ( 30592 PWs)   bands (ev):

   -71.1395 -71.1325 -70.6516 -70.6446 -70.6276 -70.6207 -55.7977 -55.7909
   -55.7842 -55.7773 -55.5846 -55.5701 -41.1932 -41.1225 -41.1144 -41.1143
   -41.1047 -41.0945 -40.7160 -40.6717 -40.6651 -40.6630 -40.6629 -40.6544
   -40.6175 -40.5976 -40.5892 -40.5679 -40.5652 -40.5573 -32.1298 -32.1104
   -32.1098 -32.1023 -32.0146 -31.9934 -31.9637 -31.9535 -31.9506 -31.9397
   -31.8789 -31.8612 -31.8594 -31.8143 -31.7986 -31.7500 -31.7472 -31.7263
    -3.4966  -2.4982  -2.2235  -2.0748  -2.0570  -1.9716  -1.9246  -1.8397
    -1.8227  -1.7842  -1.4754  -1.2504  -1.1193  -1.0403  -0.8877  -0.6687
    -0.6396  -0.6395  -0.5613  -0.5102  -0.3852  -0.1543   0.0022   0.0341
     0.1032   0.2133   0.3183   0.3516   0.5004   0.7137   0.8371   0.8735
     0.9372   1.1538   1.3424   1.3992   1.6788   1.8531   1.8974   1.9803
     2.2698   2.4726   2.5781   2.6620   2.7013   2.7839   2.8446   2.8764
     2.9193   3.0710   3.1900   3.1925   3.2291

          k = 0.0312-0.1103 0.0000 ( 30583 PWs)   bands (ev):

   -71.1384 -71.1336 -70.6506 -70.6456 -70.6266 -70.6217 -55.7958 -55.7890
   -55.7862 -55.7794 -55.5828 -55.5720 -41.1782 -41.1211 -41.1154 -41.1134
   -41.1090 -41.1054 -40.7010 -40.6700 -40.6645 -40.6604 -40.6574 -40.6485
   -40.6323 -40.5965 -40.5907 -40.5822 -40.5639 -40.5588 -32.1286 -32.1119
   -32.1083 -32.1036 -31.9969 -31.9764 -31.9660 -31.9546 -31.9511 -31.9388
   -31.8976 -31.8782 -31.8435 -31.8153 -31.7989 -31.7497 -31.7480 -31.7447
    -3.1431  -2.7153  -2.0705  -1.9288  -1.8819  -1.8241  -1.7837  -1.7727
    -1.7333  -1.5708  -1.4980  -1.2549  -1.0763  -0.9131  -0.8458  -0.7467
    -0.6770  -0.6610  -0.5459  -0.4544  -0.3790  -0.2660  -0.1520  -0.1353
     0.0620   0.1950   0.2654   0.3208   0.3662   0.3686   0.5114   0.6414
     0.8721   0.9986   1.1002   1.4205   1.6735   1.7549   1.8505   1.8570
     2.3477   2.4710   2.6337   2.6927   2.7593   2.7811   2.8280   2.9011
     2.9807   2.9988   3.0951   3.1383   3.2099

          k = 0.0312-0.0937 0.0000 ( 30625 PWs)   bands (ev):

   -71.1372 -71.1348 -70.6494 -70.6468 -70.6254 -70.6229 -55.7935 -55.7884
   -55.7867 -55.7816 -55.5805 -55.5742 -41.1611 -41.1279 -41.1185 -41.1174
   -41.1124 -41.1065 -40.6840 -40.6690 -40.6670 -40.6585 -40.6583 -40.6497
   -40.6326 -40.6008 -40.5934 -40.5923 -40.5624 -40.5604 -32.1263 -32.1133
   -32.1068 -32.1054 -31.9754 -31.9655 -31.9590 -31.9531 -31.9470 -31.9365
   -31.9187 -31.8994 -31.8219 -31.8145 -31.7982 -31.7669 -31.7525 -31.7450
    -3.0220  -2.8000  -1.9816  -1.8716  -1.8700  -1.8626  -1.8182  -1.7907
    -1.6005  -1.4789  -1.3126  -1.2821  -1.1219  -0.8659  -0.8513  -0.8043
    -0.6554  -0.5587  -0.5136  -0.5050  -0.4044  -0.3557  -0.3091  -0.2030
    -0.1428  -0.1315   0.0954   0.1709   0.2868   0.3051   0.4408   0.5799
     0.8354   0.8859   1.0464   1.4284   1.6949   1.8289   1.8566   2.0699
     2.4943   2.5284   2.7101   2.7613   2.7934   2.8666   2.9110   2.9831
     3.0289   3.0780   3.1262   3.2587   3.2596

          k = 0.0312-0.0772 0.0000 ( 30618 PWs)   bands (ev):

   -71.1361 -71.1359 -70.6481 -70.6481 -70.6242 -70.6241 -55.7909 -55.7908
   -55.7841 -55.7840 -55.5779 -55.5766 -41.1463 -41.1432 -41.1202 -41.1185
   -41.1113 -41.1079 -40.6712 -40.6704 -40.6668 -40.6651 -40.6608 -40.6565
   -40.6188 -40.6154 -40.5938 -40.5923 -40.5622 -40.5608 -32.1230 -32.1145
   -32.1076 -32.1053 -31.9626 -31.9602 -31.9485 -31.9443 -31.9381 -31.9372
   -31.9269 -31.9216 -31.8120 -31.8016 -31.7928 -31.7894 -31.7553 -31.7432
    -3.3695  -2.5271  -2.0053  -2.0009  -1.9690  -1.9666  -1.9207  -1.9155
    -1.8002  -1.3109  -1.2779  -1.1678  -1.1238  -1.0373  -0.8589  -0.7201
    -0.6600  -0.6211  -0.6049  -0.4751  -0.4423  -0.4025  -0.3403  -0.3263
    -0.2104  -0.1188  -0.0625   0.0701   0.1566   0.1894   0.5317   0.7045
     0.7847   1.1191   1.1634   1.2775   1.8379   1.9490   2.0420   2.3777
     2.6352   2.6673   2.7711   2.8096   2.8617   2.8687   2.9219   3.0990
     3.1656   3.2405   3.2726   3.3363   3.4394

          k = 0.0312-0.0607 0.0000 ( 30615 PWs)   bands (ev):

   -71.1374 -71.1346 -70.6494 -70.6468 -70.6254 -70.6229 -55.7931 -55.7883
   -55.7863 -55.7815 -55.5790 -55.5753 -41.1651 -41.1257 -41.1231 -41.1184
   -41.1102 -41.1094 -40.6881 -40.6740 -40.6677 -40.6636 -40.6555 -40.6479
   -40.6374 -40.5994 -40.5939 -40.5906 -40.5638 -40.5592 -32.1192 -32.1154
   -32.1101 -32.1041 -31.9647 -31.9583 -31.9571 -31.9443 -31.9340 -31.9339
   -31.9229 -31.9033 -31.8134 -31.8067 -31.7976 -31.7702 -31.7579 -31.7417
    -3.7062  -2.3774  -2.1898  -2.1765  -2.1410  -2.1047  -2.1002  -2.0356
    -1.9951  -1.5152  -1.3019  -1.2156  -1.1373  -0.9632  -0.9514  -0.7214
    -0.6695  -0.6290  -0.5854  -0.5595  -0.4724  -0.4097  -0.4049  -0.3814
    -0.2482  -0.2227   0.0894   0.1221   0.3242   0.4850   0.5136   0.8349
     0.8777   1.1760   1.2805   1.5353   1.9095   2.0364   2.4231   2.6794
     2.7528   2.7836   2.8141   2.8194   2.8222   2.9627   3.0097   3.2421
     3.2612   3.2623   3.3090   3.3428   3.5111

          k = 0.0312-0.0441 0.0000 ( 30584 PWs)   bands (ev):

   -71.1386 -71.1334 -70.6506 -70.6456 -70.6266 -70.6217 -55.7953 -55.7885
   -55.7858 -55.7790 -55.5812 -55.5727 -41.1827 -41.1263 -41.1185 -41.1110
   -41.1090 -41.1089 -40.7057 -40.6769 -40.6675 -40.6663 -40.6549 -40.6547
   -40.6315 -40.5972 -40.5889 -40.5814 -40.5653 -40.5578 -32.1165 -32.1152
   -32.1125 -32.1032 -31.9851 -31.9647 -31.9566 -31.9518 -31.9316 -31.9290
   -31.8989 -31.8794 -31.8332 -31.8036 -31.7966 -31.7602 -31.7460 -31.7407
    -3.9923  -2.4219  -2.4009  -2.3360  -2.2841  -2.2530  -2.2462  -2.2291
    -2.0536  -1.8026  -1.4018  -1.3292  -1.1585  -1.0120  -0.9096  -0.8620
    -0.7258  -0.7117  -0.6678  -0.6318  -0.4967  -0.3816  -0.3671  -0.2738
    -0.1377  -0.0587   0.1525   0.2787   0.5230   0.7044   0.9594   0.9598
     0.9644   1.1654   1.3328   1.9947   2.0593   2.1020   2.6917   2.7750
     2.7995   2.8012   2.8962   2.9558   2.9754   3.0864   3.0947   3.1708
     3.2480   3.2934   3.4009   3.4217   3.5173

          k = 0.0312-0.0276 0.0000 ( 30597 PWs)   bands (ev):

   -71.1396 -71.1324 -70.6516 -70.6446 -70.6276 -70.6207 -55.7972 -55.7903
   -55.7837 -55.7769 -55.5832 -55.5705 -41.1976 -41.1286 -41.1184 -41.1125
   -41.1078 -41.0948 -40.7205 -40.6790 -40.6693 -40.6686 -40.6670 -40.6545
   -40.6174 -40.5981 -40.5875 -40.5682 -40.5661 -40.5566 -32.1184 -32.1139
   -32.1114 -32.1028 -32.0035 -31.9827 -31.9549 -31.9466 -31.9316 -31.9255
   -31.8780 -31.8585 -31.8515 -31.7999 -31.7966 -31.7613 -31.7403 -31.7251
    -4.2011  -2.6226  -2.5056  -2.4833  -2.4252  -2.3913  -2.3134  -2.2726
    -2.0985  -2.0198  -1.5316  -1.5121  -1.1036  -1.0881  -0.9346  -0.8555
    -0.8056  -0.7750  -0.7236  -0.7170  -0.5291  -0.4532  -0.3034  -0.1100
    -0.0182   0.1821   0.3666   0.3949   0.6202   0.9486   1.1234   1.1657
     1.2019   1.3267   1.3968   2.1536   2.2532   2.4241   2.6528   2.7607
     2.7874   2.9221   2.9966   3.0672   3.0726   3.1334   3.1653   3.1807
     3.2665   3.3889   3.4017   3.5002   3.5852

          k = 0.0468-0.0166 0.0000 ( 30583 PWs)   bands (ev):

   -71.1396 -71.1324 -70.6516 -70.6446 -70.6276 -70.6207 -55.7973 -55.7905
   -55.7838 -55.7770 -55.5835 -55.5704 -41.1967 -41.1273 -41.1175 -41.1128
   -41.1071 -41.0947 -40.7196 -40.6771 -40.6687 -40.6678 -40.6657 -40.6548
   -40.6174 -40.5979 -40.5878 -40.5681 -40.5660 -40.5568 -32.1205 -32.1135
   -32.1100 -32.1040 -32.0059 -31.9852 -31.9548 -31.9451 -31.9387 -31.9305
   -31.8781 -31.8586 -31.8537 -31.8004 -31.7993 -31.7586 -31.7418 -31.7252
    -4.0763  -2.5434  -2.5201  -2.3863  -2.3551  -2.3329  -2.2322  -2.1850
    -2.0418  -1.9800  -1.5461  -1.4366  -1.1802  -1.0134  -0.9208  -0.7888
    -0.7826  -0.7450  -0.7172  -0.6770  -0.5171  -0.3143  -0.2107  -0.0764
    -0.0273   0.1584   0.3335   0.4333   0.6727   0.8755   1.0895   1.1533
     1.1766   1.2673   1.2730   1.9685   2.2092   2.2949   2.6164   2.6351
     2.6698   2.8308   2.8380   2.8945   2.9203   3.0242   3.1139   3.1685
     3.2237   3.3078   3.3587   3.5121   3.5231

          k = 0.0468-0.0000 0.0000 ( 30583 PWs)   bands (ev):

   -71.1403 -71.1317 -70.6524 -70.6438 -70.6284 -70.6199 -55.7989 -55.7920
   -55.7823 -55.7755 -55.5853 -55.5687 -41.2072 -41.1276 -41.1164 -41.1142
   -41.1057 -41.0836 -40.7301 -40.6785 -40.6771 -40.6684 -40.6645 -40.6546
   -40.6064 -40.5987 -40.5870 -40.5672 -40.5569 -40.5560 -32.1248 -32.1131
   -32.1073 -32.1035 -32.0220 -32.0006 -31.9544 -31.9443 -31.9418 -31.9326
   -31.8693 -31.8629 -31.8433 -31.8037 -31.7972 -31.7574 -31.7424 -31.7101
    -4.1234  -2.6054  -2.4938  -2.4394  -2.4069  -2.3524  -2.2218  -2.1940
    -2.1029  -2.0092  -1.5683  -1.5168  -1.2678  -1.0083  -0.8850  -0.8005
    -0.7701  -0.7237  -0.6698  -0.6689  -0.5223  -0.3289  -0.0896   0.0389
     0.0959   0.2244   0.4982   0.6703   0.7488   0.8529   1.0438   1.2920
     1.2976   1.4123   1.4754   2.0779   2.2136   2.3410   2.5320   2.5449
     2.6179   2.7100   2.7197   2.7994   2.8473   2.9833   3.0201   3.1490
     3.2688   3.2894   3.3085   3.3974   3.5677

          k = 0.0468 0.0165 0.0000 ( 30594 PWs)   bands (ev):

   -71.1408 -71.1312 -70.6529 -70.6433 -70.6288 -70.6194 -55.7999 -55.7931
   -55.7814 -55.7747 -55.5866 -55.5676 -41.2132 -41.1269 -41.1151 -41.1151
   -41.1045 -41.0765 -40.7360 -40.6843 -40.6761 -40.6679 -40.6630 -40.6541
   -40.5998 -40.5988 -40.5868 -40.5675 -40.5555 -40.5500 -32.1287 -32.1124
   -32.1073 -32.1015 -32.0334 -32.0116 -31.9554 -31.9510 -31.9410 -31.9363
   -31.8803 -31.8540 -31.8343 -31.8080 -31.7965 -31.7555 -31.7433 -31.7011
    -4.0747  -2.5856  -2.4628  -2.4101  -2.3594  -2.3131  -2.1844  -2.1638
    -2.1471  -1.9370  -1.5263  -1.5238  -1.3301  -1.0485  -0.8248  -0.7835
    -0.7055  -0.6895  -0.6235  -0.5718  -0.4769  -0.3485   0.0441   0.1136
     0.1894   0.3117   0.5107   0.6671   0.8889   0.8927   1.0032   1.2518
     1.3377   1.4026   1.6893   2.1021   2.1585   2.2404   2.3906   2.4095
     2.4571   2.5965   2.5987   2.6996   2.7095   2.9043   2.9097   3.1130
     3.2235   3.2642   3.2703   3.4043   3.4902

          k = 0.0468 0.0331 0.0000 ( 30589 PWs)   bands (ev):

   -71.1409 -71.1310 -70.6531 -70.6431 -70.6290 -70.6193 -55.8004 -55.7936
   -55.7813 -55.7744 -55.5873 -55.5672 -41.2144 -41.1254 -41.1157 -41.1136
   -41.1036 -41.0740 -40.7372 -40.6853 -40.6746 -40.6664 -40.6617 -40.6535
   -40.5996 -40.5967 -40.5871 -40.5674 -40.5553 -40.5475 -32.1319 -32.1115
   -32.1084 -32.0996 -32.0393 -32.0171 -31.9603 -31.9547 -31.9446 -31.9382
   -31.8857 -31.8515 -31.8317 -31.8126 -31.7969 -31.7533 -31.7445 -31.6987
    -3.9350  -2.4967  -2.4255  -2.2976  -2.2474  -2.2248  -2.1565  -2.1362
    -2.0409  -1.8359  -1.4578  -1.4572  -1.3569  -1.0488  -0.8281  -0.7286
    -0.6602  -0.5637  -0.5451  -0.4977  -0.3801  -0.3666   0.1627   0.1737
     0.1776   0.3413   0.5456   0.6493   0.7327   0.8874   1.1117   1.1867
     1.2586   1.3739   1.6562   1.9572   2.0048   2.0787   2.1801   2.2302
     2.2506   2.5070   2.5528   2.6116   2.6274   2.8046   2.8159   3.0522
     3.1375   3.1648   3.2015   3.4184   3.4422

          k = 0.0468 0.0496 0.0000 ( 30618 PWs)   bands (ev):

   -71.1407 -71.1312 -70.6529 -70.6433 -70.6288 -70.6194 -55.8003 -55.7934
   -55.7817 -55.7749 -55.5872 -55.5675 -41.2110 -41.1235 -41.1158 -41.1126
   -41.1030 -41.0762 -40.7337 -40.6819 -40.6729 -40.6642 -40.6611 -40.6531
   -40.5998 -40.5987 -40.5879 -40.5668 -40.5556 -40.5497 -32.1340 -32.1104
   -32.1098 -32.0984 -32.0388 -32.0167 -31.9670 -31.9557 -31.9505 -31.9388
   -31.8849 -31.8554 -31.8357 -31.8167 -31.7978 -31.7510 -31.7459 -31.7026
    -3.7143  -2.3587  -2.3303  -2.2347  -2.1325  -2.0967  -2.0529  -2.0404
    -1.8850  -1.7265  -1.4223  -1.3278  -1.3271  -1.0303  -0.8424  -0.6588
    -0.5828  -0.4990  -0.4945  -0.4157  -0.4044  -0.2208   0.0457   0.2208
     0.2311   0.2930   0.5319   0.6371   0.6569   0.7619   1.0085   1.1213
     1.2935   1.3284   1.3889   1.6620   1.8231   1.8851   1.8907   2.0735
     2.0744   2.3901   2.4669   2.5608   2.5732   2.7469   2.8257   2.8896
     3.0017   3.1046   3.1593   3.2536   3.3425

          k = 0.0468 0.0661 0.0000 ( 30585 PWs)   bands (ev):

   -71.1402 -71.1318 -70.6524 -70.6438 -70.6283 -70.6199 -55.7994 -55.7926
   -55.7828 -55.7759 -55.5865 -55.5684 -41.2031 -41.1216 -41.1155 -41.1123
   -41.1030 -41.0832 -40.7258 -40.6742 -40.6713 -40.6618 -40.6614 -40.6530
   -40.6062 -40.5988 -40.5889 -40.5660 -40.5566 -40.5563 -32.1348 -32.1112
   -32.1091 -32.0982 -32.0317 -32.0098 -31.9719 -31.9559 -31.9553 -31.9389
   -31.8777 -31.8650 -31.8453 -31.8194 -31.7986 -31.7487 -31.7477 -31.7124
    -3.4279  -2.3014  -2.2017  -2.1884  -2.0086  -1.9577  -1.9022  -1.8405
    -1.7128  -1.6401  -1.4083  -1.2960  -1.1575  -1.0254  -0.8703  -0.5982
    -0.5046  -0.4967  -0.4687  -0.4216  -0.4001  -0.0943  -0.0531   0.1025
     0.2114   0.2709   0.3752   0.4788   0.6366   0.8111   0.9063   0.9309
     1.0005   1.1819   1.3082   1.3513   1.5723   1.7307   1.7370   1.8906
     2.0148   2.2550   2.4831   2.5526   2.6205   2.6875   2.7618   2.8193
     2.8337   3.0515   3.0909   3.2211   3.2440

          k = 0.0468-0.1158 0.0000 ( 30635 PWs)   bands (ev):

   -71.1394 -71.1326 -70.6516 -70.6446 -70.6275 -70.6207 -55.7980 -55.7911
   -55.7843 -55.7775 -55.5851 -55.5699 -41.1915 -41.1201 -41.1149 -41.1130
   -41.1035 -41.0946 -40.7142 -40.6700 -40.6632 -40.6626 -40.6596 -40.6534
   -40.6176 -40.5978 -40.5902 -40.5680 -40.5647 -40.5575 -32.1341 -32.1125
   -32.1078 -32.0990 -32.0182 -31.9967 -31.9741 -31.9598 -31.9533 -31.9385
   -31.8795 -31.8642 -31.8600 -31.8204 -31.7991 -31.7497 -31.7467 -31.7271
    -3.0976  -2.4768  -2.0652  -2.0409  -1.8802  -1.7915  -1.7739  -1.6187
    -1.5900  -1.5884  -1.4206  -1.2988  -1.0460  -0.9759  -0.8980  -0.5556
    -0.5377  -0.5189  -0.4895  -0.4299  -0.4169  -0.1680  -0.0656   0.0025
     0.0348   0.1266   0.4345   0.4632   0.4767   0.5206   0.6112   0.6981
     0.7743   0.9898   1.0212   1.3950   1.6041   1.6345   1.7061   1.7353
     2.0925   2.2373   2.5476   2.5972   2.6865   2.7022   2.7588   2.8062
     2.8902   2.9741   3.1216   3.1248   3.2125

          k = 0.0468-0.0993 0.0000 ( 30624 PWs)   bands (ev):

   -71.1383 -71.1336 -70.6506 -70.6456 -70.6265 -70.6217 -55.7960 -55.7891
   -55.7863 -55.7794 -55.5831 -55.5718 -41.1770 -41.1193 -41.1148 -41.1140
   -41.1095 -41.1045 -40.6996 -40.6691 -40.6651 -40.6578 -40.6558 -40.6480
   -40.6327 -40.5966 -40.5916 -40.5825 -40.5635 -40.5589 -32.1319 -32.1136
   -32.1065 -32.1007 -31.9990 -31.9780 -31.9732 -31.9617 -31.9496 -31.9373
   -31.8979 -31.8784 -31.8452 -31.8193 -31.7990 -31.7519 -31.7467 -31.7439
    -2.7564  -2.7476  -2.0157  -1.9413  -1.7831  -1.7225  -1.6860  -1.6141
    -1.5653  -1.4820  -1.3355  -1.3146  -1.0877  -0.9196  -0.7264  -0.6592
    -0.5963  -0.5355  -0.5108  -0.4978  -0.4330  -0.2532  -0.2201  -0.1395
    -0.0880   0.0413   0.1643   0.2013   0.3460   0.3776   0.4705   0.5028
     0.6470   0.7853   1.0517   1.4489   1.5695   1.6759   1.6906   1.9588
     2.2571   2.3049   2.6384   2.6486   2.7712   2.7962   2.8685   2.8828
     3.0411   3.0741   3.1336   3.1904   3.2010

          k = 0.0468-0.0827 0.0000 ( 30640 PWs)   bands (ev):

   -71.1371 -71.1348 -70.6494 -70.6468 -70.6254 -70.6229 -55.7935 -55.7885
   -55.7867 -55.7816 -55.5807 -55.5741 -41.1604 -41.1275 -41.1185 -41.1174
   -41.1129 -41.1059 -40.6830 -40.6685 -40.6680 -40.6578 -40.6566 -40.6504
   -40.6322 -40.6013 -40.5935 -40.5929 -40.5620 -40.5605 -32.1284 -32.1144
   -32.1054 -32.1032 -31.9754 -31.9695 -31.9620 -31.9547 -31.9445 -31.9356
   -31.9190 -31.8995 -31.8219 -31.8164 -31.7984 -31.7672 -31.7543 -31.7433
    -3.0755  -2.4562  -2.0845  -1.9137  -1.8313  -1.8239  -1.7468  -1.7463
    -1.6172  -1.3426  -1.3376  -1.1596  -1.0747  -0.8635  -0.8338  -0.6893
    -0.5749  -0.5400  -0.5122  -0.4718  -0.4361  -0.4314  -0.3458  -0.2991
    -0.2095  -0.1488  -0.1375   0.0540   0.1373   0.2957   0.4560   0.5767
     0.6748   0.8100   1.1752   1.3117   1.6557   1.8142   1.8584   2.2568
     2.4328   2.4592   2.7054   2.7426   2.8053   2.8803   2.9462   2.9983
     3.0643   3.1953   3.1985   3.3600   3.4769

          k = 0.0468-0.0662 0.0000 ( 30608 PWs)   bands (ev):

   -71.1361 -71.1359 -70.6481 -70.6481 -70.6242 -70.6241 -55.7909 -55.7908
   -55.7841 -55.7840 -55.5780 -55.5765 -41.1464 -41.1428 -41.1204 -41.1185
   -41.1116 -41.1076 -40.6712 -40.6694 -40.6682 -40.6654 -40.6606 -40.6558
   -40.6192 -40.6152 -40.5940 -40.5923 -40.5622 -40.5606 -32.1240 -32.1149
   -32.1064 -32.1046 -31.9637 -31.9605 -31.9493 -31.9416 -31.9390 -31.9342
   -31.9292 -31.9219 -31.8122 -31.7978 -31.7962 -31.7898 -31.7563 -31.7423
    -3.4098  -2.2753  -2.2073  -1.9918  -1.9762  -1.9441  -1.9314  -1.9110
    -1.8248  -1.2900  -1.2165  -1.1923  -1.1533  -0.9485  -0.7454  -0.7112
    -0.6152  -0.5822  -0.5743  -0.5407  -0.5081  -0.4768  -0.4569  -0.3251
    -0.3238  -0.1375  -0.0525   0.0817   0.0818   0.1887   0.4684   0.7113
     0.7525   1.1480   1.2116   1.2633   1.7478   1.9417   2.1487   2.5359
     2.6016   2.6549   2.7497   2.8195   2.8548   2.8653   2.9159   3.0830
     3.2077   3.2395   3.3685   3.3796   3.4707

          k = 0.0468-0.0496 0.0000 ( 30615 PWs)   bands (ev):

   -71.1374 -71.1346 -70.6494 -70.6468 -70.6254 -70.6229 -55.7931 -55.7883
   -55.7863 -55.7815 -55.5790 -55.5753 -41.1651 -41.1257 -41.1231 -41.1184
   -41.1102 -41.1094 -40.6881 -40.6740 -40.6677 -40.6636 -40.6555 -40.6479
   -40.6374 -40.5994 -40.5939 -40.5906 -40.5638 -40.5592 -32.1192 -32.1154
   -32.1101 -32.1041 -31.9647 -31.9583 -31.9571 -31.9443 -31.9340 -31.9339
   -31.9229 -31.9033 -31.8134 -31.8067 -31.7976 -31.7702 -31.7579 -31.7417
    -3.7062  -2.3774  -2.1898  -2.1765  -2.1410  -2.1047  -2.1002  -2.0356
    -1.9951  -1.5152  -1.3019  -1.2156  -1.1373  -0.9632  -0.9514  -0.7214
    -0.6695  -0.6290  -0.5854  -0.5595  -0.4724  -0.4097  -0.4049  -0.3814
    -0.2482  -0.2227   0.0894   0.1221   0.3242   0.4850   0.5136   0.8349
     0.8777   1.1760   1.2805   1.5353   1.9095   2.0364   2.4231   2.6794
     2.7527   2.7835   2.8141   2.8194   2.8222   2.9627   3.0097   3.2421
     3.2613   3.2623   3.3090   3.3427   3.5110

          k = 0.0468-0.0331 0.0000 ( 30591 PWs)   bands (ev):

   -71.1386 -71.1334 -70.6506 -70.6456 -70.6266 -70.6217 -55.7953 -55.7885
   -55.7858 -55.7791 -55.5814 -55.5727 -41.1823 -41.1259 -41.1182 -41.1112
   -41.1088 -41.1087 -40.7053 -40.6760 -40.6671 -40.6661 -40.6563 -40.6531
   -40.6316 -40.5971 -40.5890 -40.5814 -40.5652 -40.5579 -32.1169 -32.1143
   -32.1129 -32.1040 -31.9864 -31.9664 -31.9562 -31.9500 -31.9351 -31.9310
   -31.8986 -31.8791 -31.8346 -31.8026 -31.7984 -31.7589 -31.7457 -31.7415
    -3.9344  -2.4794  -2.3979  -2.2955  -2.2531  -2.2199  -2.1888  -2.1649
    -2.0341  -1.7832  -1.4485  -1.2909  -1.1250  -1.0729  -0.8980  -0.7910
    -0.7644  -0.6922  -0.6860  -0.6206  -0.4924  -0.3172  -0.2946  -0.2245
    -0.1461  -0.0460   0.1219   0.2883   0.5802   0.6812   0.9093   0.9158
     1.0080   1.1880   1.2617   1.8478   2.0859   2.1312   2.6225   2.6815
     2.6899   2.7970   2.8623   2.9016   2.9402   3.0308   3.1480   3.1958
     3.2134   3.3115   3.3523   3.4100   3.5463

          k = 0.0624-0.0221 0.0000 ( 30629 PWs)   bands (ev):

   -71.1385 -71.1335 -70.6506 -70.6456 -70.6266 -70.6217 -55.7955 -55.7886
   -55.7859 -55.7791 -55.5818 -55.5725 -41.1813 -41.1248 -41.1174 -41.1118
   -41.1087 -41.1078 -40.7042 -40.6739 -40.6659 -40.6653 -40.6577 -40.6514
   -40.6317 -40.5968 -40.5893 -40.5816 -40.5650 -40.5582 -32.1195 -32.1124
   -32.1121 -32.1057 -31.9897 -31.9699 -31.9552 -31.9466 -31.9439 -31.9364
   -31.8979 -31.8785 -31.8377 -31.8033 -31.8008 -31.7555 -31.7452 -31.7437
    -3.7642  -2.5802  -2.3259  -2.1873  -2.1760  -2.1199  -2.0782  -2.0349
    -1.9784  -1.7339  -1.5141  -1.1807  -1.1347  -1.0437  -0.9002  -0.8593
    -0.7453  -0.7079  -0.6439  -0.5860  -0.4303  -0.2297  -0.1479  -0.1173
    -0.0879   0.0282   0.0639   0.3051   0.6105   0.6694   0.7547   0.7889
     1.1096   1.1198   1.3304   1.5340   2.0845   2.0931   2.2304   2.3859
     2.6302   2.7406   2.8119   2.8259   2.8755   2.9486   3.0952   3.1370
     3.1666   3.2332   3.2627   3.2671   3.4051

          k = 0.0624-0.0055 0.0000 ( 30563 PWs)   bands (ev):

   -71.1395 -71.1325 -70.6516 -70.6446 -70.6276 -70.6207 -55.7975 -55.7907
   -55.7840 -55.7772 -55.5840 -55.5703 -41.1951 -41.1251 -41.1161 -41.1135
   -41.1060 -41.0945 -40.7179 -40.6742 -40.6672 -40.6660 -40.6640 -40.6549
   -40.6174 -40.5977 -40.5883 -40.5680 -40.5657 -40.5571 -32.1248 -32.1120
   -32.1087 -32.1049 -32.0101 -31.9891 -31.9550 -31.9498 -31.9435 -31.9384
   -31.8783 -31.8588 -31.8573 -31.8070 -31.7986 -31.7543 -31.7443 -31.7256
    -3.8351  -2.5175  -2.4015  -2.2253  -2.2178  -2.2012  -2.0699  -2.0614
    -1.9339  -1.9152  -1.5322  -1.2959  -1.2190  -0.9896  -0.9096  -0.7611
    -0.7299  -0.7106  -0.6226  -0.6027  -0.4481  -0.1573  -0.1281   0.0330
     0.0607   0.1219   0.2637   0.4668   0.6252   0.7869   0.9343   1.0315
     1.0722   1.2637   1.3636   1.5892   2.0840   2.0934   2.1913   2.3320
     2.4920   2.6726   2.7334   2.7497   2.7552   2.9105   2.9759   3.0228
     3.1807   3.2224   3.2347   3.2598   3.4317

          k = 0.0624 0.0110 0.0000 ( 30572 PWs)   bands (ev):

   -71.1403 -71.1317 -70.6524 -70.6438 -70.6284 -70.6199 -55.7991 -55.7923
   -55.7825 -55.7757 -55.5859 -55.5686 -41.2052 -41.1246 -41.1149 -41.1144
   -41.1044 -41.0834 -40.7280 -40.6764 -40.6738 -40.6656 -40.6625 -40.6542
   -40.6063 -40.5986 -40.5878 -40.5666 -40.5567 -40.5562 -32.1298 -32.1112
   -32.1088 -32.1016 -32.0269 -32.0053 -31.9592 -31.9540 -31.9452 -31.9391
   -31.8736 -31.8639 -31.8443 -31.8117 -31.7977 -31.7527 -31.7451 -31.7112
    -3.8168  -2.4087  -2.3967  -2.2961  -2.1953  -2.1699  -2.0647  -2.0238
    -2.0001  -1.8466  -1.4926  -1.3473  -1.2834  -1.0326  -0.8500  -0.7097
    -0.6424  -0.6029  -0.5959  -0.5638  -0.4385  -0.1878  -0.0188   0.1511
     0.1614   0.2231   0.5176   0.5248   0.5793   0.8836   0.9124   1.1465
     1.2279   1.3506   1.3527   1.6487   1.9921   2.0170   2.0674   2.2281
     2.2961   2.5486   2.5635   2.6422   2.6551   2.8590   2.8778   2.9313
     3.1050   3.1890   3.2293   3.3306   3.3675

          k = 0.0624 0.0275 0.0000 ( 30618 PWs)   bands (ev):

   -71.1407 -71.1312 -70.6529 -70.6433 -70.6288 -70.6194 -55.8003 -55.7934
   -55.7817 -55.7749 -55.5872 -55.5675 -41.2110 -41.1235 -41.1158 -41.1126
   -41.1030 -41.0762 -40.7337 -40.6819 -40.6729 -40.6642 -40.6611 -40.6531
   -40.5998 -40.5987 -40.5879 -40.5668 -40.5556 -40.5497 -32.1340 -32.1104
   -32.1098 -32.0984 -32.0388 -32.0167 -31.9670 -31.9557 -31.9505 -31.9388
   -31.8849 -31.8554 -31.8357 -31.8167 -31.7978 -31.7510 -31.7459 -31.7026
    -3.7143  -2.3587  -2.3303  -2.2347  -2.1325  -2.0967  -2.0529  -2.0404
    -1.8850  -1.7265  -1.4223  -1.3278  -1.3271  -1.0303  -0.8424  -0.6588
    -0.5828  -0.4990  -0.4945  -0.4157  -0.4044  -0.2208   0.0457   0.2208
     0.2311   0.2930   0.5319   0.6371   0.6569   0.7619   1.0085   1.1213
     1.2935   1.3284   1.3889   1.6620   1.8231   1.8851   1.8907   2.0735
     2.0744   2.3901   2.4669   2.5608   2.5732   2.7469   2.8257   2.8896
     3.0017   3.1046   3.1593   3.2536   3.3424

          k = 0.0624 0.0441 0.0000 ( 30636 PWs)   bands (ev):

   -71.1409 -71.1311 -70.6531 -70.6431 -70.6290 -70.6193 -55.8008 -55.7939
   -55.7815 -55.7747 -55.5879 -55.5671 -41.2123 -41.1220 -41.1163 -41.1111
   -41.1022 -41.0736 -40.7349 -40.6830 -40.6718 -40.6623 -40.6602 -40.6519
   -40.5998 -40.5964 -40.5883 -40.5667 -40.5554 -40.5472 -32.1371 -32.1110
   -32.1094 -32.0962 -32.0446 -32.0222 -31.9741 -31.9569 -31.9562 -31.9388
   -31.8903 -31.8530 -31.8332 -31.8210 -31.7985 -31.7492 -31.7469 -31.7003
    -3.5369  -2.3326  -2.2598  -2.0692  -2.0634  -2.0317  -2.0166  -1.9389
    -1.7311  -1.5937  -1.3686  -1.3401  -1.2449  -0.9983  -0.8434  -0.5558
    -0.5531  -0.4349  -0.4158  -0.4043  -0.2134  -0.1953  -0.0329   0.2492
     0.2858   0.2932   0.5827   0.6092   0.6862   0.7391   1.0107   1.0475
     1.2905   1.3075   1.3356   1.5404   1.6025   1.7066   1.7190   1.8733
     1.9175   2.2393   2.4115   2.5008   2.5293   2.6584   2.7968   2.8117
     2.8821   3.0348   3.0688   3.1233   3.2933

          k = 0.0624 0.0606 0.0000 ( 30628 PWs)   bands (ev):

   -71.1407 -71.1313 -70.6529 -70.6433 -70.6288 -70.6194 -55.8006 -55.7937
   -55.7820 -55.7751 -55.5878 -55.5674 -41.2091 -41.1205 -41.1163 -41.1104
   -41.1018 -41.0758 -40.7317 -40.6798 -40.6707 -40.6603 -40.6602 -40.6512
   -40.5999 -40.5986 -40.5890 -40.5662 -40.5557 -40.5495 -32.1387 -32.1121
   -32.1084 -32.0952 -32.0435 -32.0210 -31.9792 -31.9611 -31.9572 -31.9389
   -31.8890 -31.8567 -31.8369 -31.8240 -31.7992 -31.7481 -31.7475 -31.7040
    -3.2978  -2.3016  -2.1364  -2.1094  -1.9463  -1.9371  -1.8629  -1.7786
    -1.5613  -1.4807  -1.3587  -1.3276  -1.1307  -0.9689  -0.8578  -0.5206
    -0.4672  -0.4176  -0.3893  -0.3876  -0.1560  -0.1375  -0.0972   0.1680
     0.2335   0.3527   0.4067   0.5721   0.7245   0.8120   0.9211   0.9913
     1.0267   1.2531   1.2891   1.3033   1.4355   1.5664   1.5766   1.7779
     1.7988   2.0801   2.4115   2.4568   2.5579   2.5882   2.6915   2.7669
     2.7882   2.9941   3.0081   3.0270   3.1926

          k = 0.0624-0.1213 0.0000 ( 30646 PWs)   bands (ev):

   -71.1402 -71.1318 -70.6524 -70.6438 -70.6283 -70.6199 -55.7997 -55.7928
   -55.7830 -55.7761 -55.5870 -55.5683 -41.2016 -41.1194 -41.1160 -41.1108
   -41.1021 -41.0830 -40.7243 -40.6725 -40.6698 -40.6612 -40.6586 -40.6515
   -40.6061 -40.5990 -40.5899 -40.5655 -40.5565 -40.5564 -32.1385 -32.1131
   -32.1074 -32.0954 -32.0352 -32.0130 -31.9813 -31.9643 -31.9560 -31.9387
   -31.8807 -31.8659 -31.8462 -31.8250 -31.7996 -31.7495 -31.7461 -31.7133
    -3.0151  -2.2597  -2.2399  -2.0099  -1.8418  -1.8055  -1.7129  -1.5882
    -1.4478  -1.4194  -1.3575  -1.3450  -1.0360  -0.9520  -0.8868  -0.5308
    -0.4846  -0.4121  -0.3971  -0.3229  -0.2730  -0.1622   0.0223   0.0560
     0.0985   0.1254   0.4425   0.5689   0.6075   0.6560   0.7396   0.7664
     0.8482   0.9885   1.0766   1.3206   1.4701   1.4785   1.5348   1.6893
     1.8423   2.0291   2.4756   2.4994   2.5839   2.6358   2.6569   2.7616
     2.8055   2.9530   3.0407   3.0649   3.1801

          k = 0.0624-0.1048 0.0000 ( 30641 PWs)   bands (ev):

   -71.1394 -71.1326 -70.6516 -70.6446 -70.6275 -70.6207 -55.7981 -55.7912
   -55.7844 -55.7776 -55.5854 -55.5698 -41.1906 -41.1187 -41.1153 -41.1122
   -41.1029 -41.0946 -40.7132 -40.6692 -40.6630 -40.6617 -40.6574 -40.6527
   -40.6177 -40.5980 -40.5909 -40.5680 -40.5644 -40.5575 -32.1366 -32.1138
   -32.1065 -32.0969 -32.0202 -31.9985 -31.9801 -31.9653 -31.9531 -31.9379
   -31.8799 -31.8660 -31.8603 -31.8238 -31.7995 -31.7511 -31.7450 -31.7276
    -2.7167  -2.4641  -2.2347  -1.9165  -1.7479  -1.6514  -1.6186  -1.5284
    -1.4160  -1.4095  -1.3714  -1.3642  -0.9362  -0.9356  -0.9002  -0.6288
    -0.4666  -0.4632  -0.4572  -0.4356  -0.3570  -0.1181  -0.0413  -0.0092
    -0.0068   0.1284   0.2346   0.2796   0.4405   0.4557   0.4693   0.5618
     0.6773   0.8110   1.0536   1.4037   1.4640   1.5105   1.5788   1.7642
     2.0110   2.0970   2.5415   2.5954   2.6602   2.7231   2.8027   2.8048
     2.9875   2.9993   3.1084   3.1364   3.1902

          k = 0.0624-0.0882 0.0000 ( 30616 PWs)   bands (ev):

   -71.1383 -71.1336 -70.6506 -70.6456 -70.6265 -70.6217 -55.7960 -55.7892
   -55.7863 -55.7795 -55.5833 -55.5718 -41.1765 -41.1185 -41.1145 -41.1142
   -41.1098 -41.1042 -40.6991 -40.6688 -40.6654 -40.6567 -40.6550 -40.6479
   -40.6329 -40.5967 -40.5919 -40.5826 -40.5633 -40.5589 -32.1331 -32.1142
   -32.1058 -32.0995 -31.9996 -31.9785 -31.9758 -31.9644 -31.9490 -31.9367
   -31.8981 -31.8785 -31.8458 -31.8208 -31.7991 -31.7527 -31.7467 -31.7433
    -2.7582  -2.4790  -2.2109  -1.8869  -1.6966  -1.6718  -1.6667  -1.5550
    -1.4858  -1.4592  -1.4048  -1.1373  -1.0441  -0.9759  -0.6832  -0.6401
    -0.5901  -0.5439  -0.4944  -0.4636  -0.4543  -0.2801  -0.2150  -0.1024
    -0.0994   0.0193   0.0281   0.0615   0.2366   0.3804   0.4671   0.5151
     0.5458   0.6650   1.1464   1.3785   1.5273   1.6516   1.6545   2.0311
     2.2293   2.2425   2.6196   2.6719   2.7523   2.7758   2.9347   2.9374
     3.0767   3.0835   3.1272   3.2770   3.4920

          k = 0.0624-0.0717 0.0000 ( 30640 PWs)   bands (ev):

   -71.1371 -71.1348 -70.6494 -70.6468 -70.6254 -70.6229 -55.7935 -55.7885
   -55.7867 -55.7816 -55.5807 -55.5741 -41.1604 -41.1275 -41.1185 -41.1174
   -41.1129 -41.1059 -40.6830 -40.6685 -40.6680 -40.6578 -40.6566 -40.6504
   -40.6322 -40.6013 -40.5935 -40.5929 -40.5620 -40.5605 -32.1284 -32.1144
   -32.1054 -32.1032 -31.9754 -31.9695 -31.9620 -31.9547 -31.9445 -31.9356
   -31.9190 -31.8995 -31.8219 -31.8164 -31.7984 -31.7672 -31.7543 -31.7433
    -3.0755  -2.4562  -2.0845  -1.9137  -1.8313  -1.8239  -1.7468  -1.7463
    -1.6172  -1.3426  -1.3376  -1.1596  -1.0747  -0.8635  -0.8338  -0.6893
    -0.5749  -0.5400  -0.5122  -0.4718  -0.4361  -0.4314  -0.3458  -0.2991
    -0.2095  -0.1488  -0.1375   0.0540   0.1373   0.2957   0.4560   0.5767
     0.6748   0.8100   1.1752   1.3117   1.6557   1.8142   1.8584   2.2568
     2.4328   2.4592   2.7055   2.7426   2.8053   2.8803   2.9462   2.9983
     3.0643   3.1953   3.1986   3.3599   3.4769

          k = 0.0624-0.0552 0.0000 ( 30618 PWs)   bands (ev):

   -71.1361 -71.1359 -70.6481 -70.6481 -70.6242 -70.6241 -55.7909 -55.7908
   -55.7841 -55.7840 -55.5779 -55.5766 -41.1463 -41.1432 -41.1202 -41.1185
   -41.1113 -41.1079 -40.6712 -40.6704 -40.6668 -40.6651 -40.6608 -40.6565
   -40.6188 -40.6154 -40.5938 -40.5923 -40.5622 -40.5608 -32.1230 -32.1145
   -32.1076 -32.1053 -31.9626 -31.9602 -31.9485 -31.9443 -31.9381 -31.9372
   -31.9269 -31.9216 -31.8121 -31.8016 -31.7928 -31.7894 -31.7553 -31.7432
    -3.3695  -2.5271  -2.0053  -2.0009  -1.9690  -1.9666  -1.9207  -1.9155
    -1.8002  -1.3109  -1.2779  -1.1678  -1.1238  -1.0373  -0.8589  -0.7201
    -0.6600  -0.6211  -0.6049  -0.4751  -0.4423  -0.4025  -0.3403  -0.3263
    -0.2104  -0.1188  -0.0625   0.0701   0.1566   0.1894   0.5317   0.7045
     0.7847   1.1191   1.1634   1.2775   1.8379   1.9490   2.0420   2.3777
     2.6352   2.6673   2.7712   2.8096   2.8617   2.8687   2.9220   3.0990
     3.1656   3.2404   3.2726   3.3363   3.4395

          k = 0.0624-0.0386 0.0000 ( 30621 PWs)   bands (ev):

   -71.1374 -71.1346 -70.6494 -70.6468 -70.6254 -70.6229 -55.7932 -55.7883
   -55.7864 -55.7815 -55.5792 -55.5751 -41.1646 -41.1270 -41.1213 -41.1182
[...]
    -3.4279  -2.3014  -2.2017  -2.1884  -2.0086  -1.9577  -1.9022  -1.8405
    -1.7128  -1.6401  -1.4083  -1.2960  -1.1575  -1.0254  -0.8703  -0.5982
    -0.5046  -0.4967  -0.4687  -0.4216  -0.4001  -0.0943  -0.0531   0.1025
     0.2114   0.2709   0.3752   0.4788   0.6366   0.8111   0.9063   0.9309
     1.0005   1.1819   1.3082   1.3513   1.5723   1.7307   1.7370   1.8906
     2.0148   2.2550   2.4831   2.5526   2.6205   2.6875   2.7618   2.8193
     2.8337   3.0515   3.0909   3.2211   3.2440

          k = 0.0780 0.0386 0.0000 ( 30628 PWs)   bands (ev):

   -71.1407 -71.1313 -70.6529 -70.6433 -70.6288 -70.6194 -55.8006 -55.7937
   -55.7820 -55.7751 -55.5878 -55.5674 -41.2091 -41.1205 -41.1163 -41.1104
   -41.1018 -41.0758 -40.7317 -40.6798 -40.6707 -40.6603 -40.6602 -40.6512
   -40.5999 -40.5986 -40.5890 -40.5662 -40.5557 -40.5495 -32.1387 -32.1121
   -32.1084 -32.0952 -32.0435 -32.0210 -31.9792 -31.9611 -31.9572 -31.9389
   -31.8890 -31.8567 -31.8369 -31.8240 -31.7992 -31.7481 -31.7475 -31.7040
    -3.2978  -2.3016  -2.1364  -2.1094  -1.9463  -1.9371  -1.8629  -1.7786
    -1.5613  -1.4807  -1.3587  -1.3276  -1.1307  -0.9689  -0.8578  -0.5206
    -0.4672  -0.4176  -0.3893  -0.3876  -0.1560  -0.1375  -0.0972   0.1681
     0.2335   0.3527   0.4067   0.5721   0.7245   0.8120   0.9211   0.9913
     1.0267   1.2531   1.2891   1.3033   1.4355   1.5664   1.5766   1.7779
     1.7988   2.0801   2.4115   2.4568   2.5579   2.5882   2.6915   2.7669
     2.7882   2.9941   3.0081   3.0271   3.1926

          k = 0.0780 0.0551 0.0000 ( 30662 PWs)   bands (ev):

   -71.1408 -71.1311 -70.6531 -70.6431 -70.6290 -70.6193 -55.8010 -55.7941
   -55.7817 -55.7749 -55.5884 -55.5671 -41.2107 -41.1195 -41.1167 -41.1093
   -41.1012 -41.0733 -40.7332 -40.6812 -40.6701 -40.6597 -40.6589 -40.6500
   -40.6001 -40.5962 -40.5894 -40.5662 -40.5554 -40.5469 -32.1409 -32.1128
   -32.1077 -32.0935 -32.0485 -32.0258 -31.9843 -31.9651 -31.9584 -31.9391
   -31.8937 -31.8541 -31.8343 -31.8271 -31.7998 -31.7486 -31.7466 -31.7015
    -3.1217  -2.3764  -2.0633  -2.0104  -1.8853  -1.8826  -1.7747  -1.6935
    -1.4061  -1.3893  -1.3365  -1.3087  -1.0786  -0.9101  -0.8538  -0.5338
    -0.4569  -0.3490  -0.3160  -0.3006  -0.2417  -0.0972   0.0854   0.1514
     0.2610   0.3164   0.4153   0.5141   0.7821   0.7840   0.9766   0.9770
     1.0083   1.2272   1.2399   1.2582   1.4032   1.4218   1.4305   1.6209
     1.7290   1.9409   2.3596   2.4052   2.5068   2.5425   2.6227   2.7174
     2.7442   2.8429   2.9419   2.9531   3.0485

          k = 0.0780-0.1268 0.0000 ( 30700 PWs)   bands (ev):

   -71.1406 -71.1313 -70.6529 -70.6433 -70.6288 -70.6194 -55.8007 -55.7938
   -55.7821 -55.7752 -55.5882 -55.5674 -41.2079 -41.1188 -41.1167 -41.1092
   -41.1011 -41.0757 -40.7305 -40.6786 -40.6696 -40.6601 -40.6579 -40.6499
   -40.6001 -40.5985 -40.5898 -40.5658 -40.5557 -40.5493 -32.1413 -32.1134
   -32.1071 -32.0932 -32.0462 -32.0235 -31.9863 -31.9673 -31.9582 -31.9391
   -31.8913 -31.8574 -31.8376 -31.8282 -31.8001 -31.7493 -31.7458 -31.7048
    -2.9222  -2.4172  -2.0587  -1.9878  -1.8249  -1.8104  -1.6355  -1.5955
    -1.4426  -1.3129  -1.2689  -1.2673  -1.0733  -0.8629  -0.8628  -0.6165
    -0.4252  -0.3522  -0.3460  -0.2078  -0.1690  -0.0527  -0.0381   0.1244
     0.1712   0.2419   0.4591   0.4996   0.5968   0.7836   0.8287   0.9752
     0.9779   1.0455   1.1966   1.2476   1.3368   1.3488   1.4049   1.6357
     1.6810   1.8771   2.3845   2.4318   2.4880   2.5838   2.5896   2.6929
     2.7436   2.8497   2.9195   2.9361   2.9883

          k = 0.0780-0.1103 0.0000 ( 30674 PWs)   bands (ev):

   -71.1401 -71.1318 -70.6524 -70.6438 -70.6283 -70.6199 -55.7997 -55.7929
   -55.7830 -55.7762 -55.5871 -55.5683 -41.2011 -41.1186 -41.1162 -41.1102
   -41.1017 -41.0830 -40.7237 -40.6719 -40.6693 -40.6612 -40.6574 -40.6508
   -40.6061 -40.5991 -40.5904 -40.5653 -40.5565 -40.5564 -32.1398 -32.1137
   -32.1067 -32.0943 -32.0364 -32.0142 -31.9847 -31.9674 -31.9563 -31.9386
   -31.8818 -31.8662 -31.8465 -31.8270 -31.8000 -31.7502 -31.7452 -31.7137
    -2.7562  -2.3931  -2.2198  -1.9313  -1.7748  -1.7288  -1.5251  -1.5119
    -1.4836  -1.3420  -1.3338  -1.2576  -1.0424  -0.8912  -0.7661  -0.7434
    -0.4175  -0.4157  -0.3984  -0.2516  -0.1792  -0.0769   0.0014   0.0299
     0.0321   0.2314   0.3062   0.4406   0.4626   0.5697   0.7477   0.7565
     0.7852   1.0182   1.0212   1.3059   1.3644   1.3705   1.5402   1.6219
     1.7911   1.9410   2.4690   2.5347   2.5538   2.6533   2.6645   2.7154
     2.9188   2.9342   2.9507   3.0733   3.1223

          k = 0.0780-0.0937 0.0000 ( 30641 PWs)   bands (ev):

   -71.1394 -71.1326 -70.6516 -70.6446 -70.6275 -70.6207 -55.7981 -55.7912
   -55.7844 -55.7776 -55.5854 -55.5698 -41.1906 -41.1187 -41.1153 -41.1122
   -41.1029 -41.0946 -40.7132 -40.6692 -40.6630 -40.6617 -40.6574 -40.6527
   -40.6177 -40.5980 -40.5909 -40.5680 -40.5644 -40.5575 -32.1366 -32.1138
   -32.1065 -32.0969 -32.0202 -31.9985 -31.9801 -31.9653 -31.9531 -31.9379
   -31.8799 -31.8660 -31.8603 -31.8238 -31.7995 -31.7511 -31.7450 -31.7276
    -2.7167  -2.4641  -2.2347  -1.9165  -1.7479  -1.6514  -1.6186  -1.5284
    -1.4160  -1.4095  -1.3714  -1.3642  -0.9362  -0.9356  -0.9002  -0.6288
    -0.4666  -0.4632  -0.4572  -0.4356  -0.3570  -0.1181  -0.0412  -0.0092
    -0.0068   0.1284   0.2346   0.2796   0.4405   0.4557   0.4693   0.5618
     0.6773   0.8110   1.0536   1.4037   1.4640   1.5105   1.5788   1.7642
     2.0110   2.0970   2.5415   2.5955   2.6603   2.7231   2.8027   2.8048
     2.9875   2.9994   3.1084   3.1364   3.1902

          k = 0.0780-0.0772 0.0000 ( 30624 PWs)   bands (ev):

   -71.1383 -71.1336 -70.6506 -70.6456 -70.6265 -70.6217 -55.7960 -55.7891
   -55.7863 -55.7794 -55.5831 -55.5718 -41.1770 -41.1193 -41.1148 -41.1140
   -41.1095 -41.1045 -40.6996 -40.6691 -40.6651 -40.6578 -40.6558 -40.6480
   -40.6327 -40.5966 -40.5916 -40.5825 -40.5635 -40.5589 -32.1319 -32.1136
   -32.1065 -32.1007 -31.9990 -31.9780 -31.9732 -31.9617 -31.9496 -31.9373
   -31.8979 -31.8784 -31.8452 -31.8193 -31.7990 -31.7519 -31.7467 -31.7439
    -2.7564  -2.7476  -2.0157  -1.9413  -1.7831  -1.7225  -1.6860  -1.6141
    -1.5653  -1.4820  -1.3355  -1.3146  -1.0877  -0.9196  -0.7264  -0.6592
    -0.5963  -0.5355  -0.5108  -0.4978  -0.4330  -0.2532  -0.2201  -0.1395
    -0.0880   0.0413   0.1643   0.2013   0.3460   0.3776   0.4705   0.5028
     0.6470   0.7853   1.0517   1.4489   1.5695   1.6759   1.6906   1.9588
     2.2571   2.3049   2.6384   2.6487   2.7713   2.7961   2.8686   2.8828
     3.0411   3.0741   3.1337   3.1904   3.2007

          k = 0.0780-0.0607 0.0000 ( 30625 PWs)   bands (ev):

   -71.1372 -71.1348 -70.6494 -70.6468 -70.6254 -70.6229 -55.7935 -55.7884
   -55.7867 -55.7816 -55.5805 -55.5742 -41.1611 -41.1279 -41.1185 -41.1174
   -41.1124 -41.1065 -40.6840 -40.6690 -40.6670 -40.6585 -40.6583 -40.6497
   -40.6326 -40.6008 -40.5934 -40.5923 -40.5624 -40.5604 -32.1263 -32.1133
   -32.1068 -32.1054 -31.9754 -31.9655 -31.9590 -31.9531 -31.9470 -31.9365
   -31.9187 -31.8994 -31.8219 -31.8145 -31.7982 -31.7669 -31.7525 -31.7450
    -3.0220  -2.8000  -1.9816  -1.8716  -1.8700  -1.8626  -1.8182  -1.7907
    -1.6005  -1.4789  -1.3126  -1.2821  -1.1219  -0.8659  -0.8513  -0.8043
    -0.6554  -0.5587  -0.5136  -0.5050  -0.4044  -0.3557  -0.3091  -0.2030
    -0.1428  -0.1315   0.0954   0.1709   0.2868   0.3051   0.4408   0.5799
     0.8354   0.8859   1.0464   1.4284   1.6949   1.8289   1.8566   2.0699
     2.4943   2.5284   2.7101   2.7613   2.7933   2.8666   2.9110   2.9831
     3.0289   3.0780   3.1262   3.2586   3.2597

          k = 0.0780-0.0441 0.0000 ( 30616 PWs)   bands (ev):

   -71.1361 -71.1359 -70.6481 -70.6481 -70.6242 -70.6241 -55.7909 -55.7908
   -55.7841 -55.7840 -55.5776 -55.5769 -41.1458 -41.1441 -41.1195 -41.1186
   -41.1106 -41.1086 -40.6714 -40.6713 -40.6651 -40.6643 -40.6610 -40.6583
   -40.6179 -40.6159 -40.5933 -40.5924 -40.5620 -40.5612 -32.1202 -32.1138
   -32.1100 -32.1072 -31.9597 -31.9589 -31.9486 -31.9483 -31.9400 -31.9381
   -31.9242 -31.9215 -31.8113 -31.8059 -31.7899 -31.7885 -31.7525 -31.7455
    -3.2504  -2.8101  -2.0255  -2.0130  -1.9373  -1.9228  -1.9140  -1.8546
    -1.7283  -1.4932  -1.2278  -1.1398  -1.1376  -1.0494  -1.0081  -0.7923
    -0.6652  -0.6623  -0.6335  -0.4709  -0.3821  -0.3513  -0.3003  -0.1925
    -0.1095  -0.0930   0.0926   0.1775   0.2189   0.2889   0.4963   0.6531
     0.9882   1.0480   1.0531   1.4329   1.7604   1.9636   1.9659   2.1037
     2.6848   2.7127   2.7638   2.7872   2.8163   2.8293   2.9358   2.9891
     3.1362   3.1408   3.2238   3.2659   3.3207

          k =-0.0935 0.0331 0.0000 ( 30552 PWs)   bands (ev):

   -71.1360 -71.1360 -70.6481 -70.6481 -70.6241 -70.6241 -55.7908 -55.7908
   -55.7840 -55.7840 -55.5773 -55.5772 -41.1451 -41.1451 -41.1189 -41.1189
   -41.1096 -41.1096 -40.6716 -40.6715 -40.6640 -40.6640 -40.6603 -40.6603
   -40.6168 -40.6168 -40.5927 -40.5927 -40.5616 -40.5616 -32.1164 -32.1164
   -32.1093 -32.1093 -31.9576 -31.9576 -31.9504 -31.9504 -31.9392 -31.9392
   -31.9224 -31.9224 -31.8092 -31.8092 -31.7885 -31.7885 -31.7489 -31.7489
    -3.0593  -3.0593  -2.0338  -2.0338  -1.9261  -1.9261  -1.8615  -1.8615
    -1.6256  -1.6256  -1.1746  -1.1746  -1.1156  -1.1156  -0.9366  -0.9366
    -0.6796  -0.6796  -0.5046  -0.5046  -0.4268  -0.4268  -0.1996  -0.1996
     0.0122   0.0122   0.1361   0.1361   0.3025   0.3025   0.5652   0.5652
     1.0049   1.0049   1.3167   1.3167   1.7658   1.7658   2.0177   2.0177
     2.7200   2.7200   2.7556   2.7556   2.7952   2.7953   2.8919   2.8919
     3.1688   3.1688   3.2205   3.2206   3.2591

          k =-0.0935 0.0496 0.0000 ( 30598 PWs)   bands (ev):

   -71.1372 -71.1347 -70.6494 -70.6468 -70.6254 -70.6229 -55.7934 -55.7884
   -55.7866 -55.7816 -55.5801 -55.5745 -41.1624 -41.1281 -41.1189 -41.1175
   -41.1116 -41.1075 -40.6855 -40.6698 -40.6659 -40.6608 -40.6591 -40.6489
   -40.6336 -40.6002 -40.5934 -40.5916 -40.5629 -40.5602 -32.1225 -32.1121
   -32.1089 -32.1082 -31.9740 -31.9587 -31.9568 -31.9502 -31.9486 -31.9379
   -31.9188 -31.8997 -31.8215 -31.8108 -31.7984 -31.7669 -31.7495 -31.7481
    -3.1340  -2.9169  -2.0718  -1.9722  -1.9072  -1.8678  -1.8561  -1.8469
    -1.6772  -1.5693  -1.4265  -1.2003  -1.0393  -1.0021  -0.8948  -0.8128
    -0.7799  -0.6609  -0.5743  -0.4887  -0.3732  -0.3673  -0.2249  -0.1699
     0.0387   0.0929   0.1630   0.2152   0.2897   0.3002   0.5399   0.5941
     0.9597   1.0106   1.2122   1.3914   1.7229   1.7871   1.9648   1.9770
     2.5674   2.6681   2.7119   2.7774   2.7857   2.8149   2.8448   2.9641
     3.0599   3.0890   3.0892   3.1546   3.2598

          k =-0.0935 0.0662 0.0000 ( 30583 PWs)   bands (ev):

   -71.1384 -71.1336 -70.6506 -70.6456 -70.6266 -70.6217 -55.7958 -55.7890
   -55.7862 -55.7794 -55.5828 -55.5720 -41.1782 -41.1211 -41.1154 -41.1134
   -41.1090 -41.1054 -40.7010 -40.6700 -40.6645 -40.6604 -40.6574 -40.6485
   -40.6323 -40.5965 -40.5907 -40.5822 -40.5639 -40.5588 -32.1286 -32.1119
   -32.1083 -32.1036 -31.9969 -31.9764 -31.9660 -31.9546 -31.9511 -31.9388
   -31.8976 -31.8782 -31.8435 -31.8153 -31.7989 -31.7497 -31.7480 -31.7447
    -3.1431  -2.7153  -2.0705  -1.9288  -1.8819  -1.8241  -1.7837  -1.7727
    -1.7333  -1.5708  -1.4980  -1.2549  -1.0763  -0.9131  -0.8458  -0.7467
    -0.6770  -0.6610  -0.5459  -0.4544  -0.3790  -0.2660  -0.1520  -0.1353
     0.0620   0.1950   0.2653   0.3208   0.3662   0.3686   0.5114   0.6414
     0.8721   0.9986   1.1002   1.4205   1.6735   1.7549   1.8505   1.8570
     2.3477   2.4710   2.6337   2.6927   2.7593   2.7811   2.8280   2.9011
     2.9807   2.9988   3.0951   3.1383   3.2099

          k =-0.0935 0.0827 0.0000 ( 30635 PWs)   bands (ev):

   -71.1394 -71.1326 -70.6516 -70.6446 -70.6275 -70.6207 -55.7980 -55.7911
   -55.7843 -55.7775 -55.5851 -55.5699 -41.1915 -41.1201 -41.1149 -41.1130
   -41.1035 -41.0945 -40.7142 -40.6700 -40.6632 -40.6626 -40.6596 -40.6534
   -40.6176 -40.5978 -40.5902 -40.5680 -40.5647 -40.5575 -32.1341 -32.1125
   -32.1078 -32.0990 -32.0182 -31.9967 -31.9741 -31.9598 -31.9533 -31.9385
   -31.8795 -31.8642 -31.8600 -31.8204 -31.7991 -31.7497 -31.7467 -31.7271
    -3.0976  -2.4768  -2.0652  -2.0409  -1.8802  -1.7915  -1.7739  -1.6187
    -1.5900  -1.5884  -1.4206  -1.2988  -1.0460  -0.9759  -0.8980  -0.5556
    -0.5377  -0.5189  -0.4895  -0.4299  -0.4169  -0.1680  -0.0656   0.0025
     0.0348   0.1266   0.4345   0.4632   0.4767   0.5206   0.6112   0.6981
     0.7743   0.9898   1.0212   1.3950   1.6041   1.6345   1.7061   1.7353
     2.0925   2.2373   2.5476   2.5972   2.6865   2.7022   2.7588   2.8062
     2.8902   2.9741   3.1216   3.1248   3.2125

          k =-0.0935 0.0993 0.0000 ( 30646 PWs)   bands (ev):

   -71.1402 -71.1318 -70.6524 -70.6438 -70.6283 -70.6199 -55.7997 -55.7928
   -55.7830 -55.7761 -55.5870 -55.5683 -41.2016 -41.1194 -41.1160 -41.1108
   -41.1021 -41.0830 -40.7243 -40.6725 -40.6698 -40.6612 -40.6586 -40.6515
   -40.6061 -40.5990 -40.5899 -40.5655 -40.5565 -40.5564 -32.1385 -32.1131
   -32.1074 -32.0954 -32.0352 -32.0130 -31.9813 -31.9643 -31.9560 -31.9387
   -31.8807 -31.8659 -31.8462 -31.8250 -31.7996 -31.7495 -31.7461 -31.7133
    -3.0151  -2.2597  -2.2399  -2.0099  -1.8418  -1.8055  -1.7129  -1.5882
    -1.4478  -1.4194  -1.3575  -1.3450  -1.0360  -0.9520  -0.8868  -0.5308
    -0.4846  -0.4121  -0.3971  -0.3229  -0.2730  -0.1622   0.0223   0.0560
     0.0985   0.1254   0.4425   0.5689   0.6075   0.6560   0.7396   0.7664
     0.8482   0.9885   1.0767   1.3206   1.4701   1.4785   1.5348   1.6893
     1.8423   2.0291   2.4756   2.4994   2.5839   2.6359   2.6568   2.7616
     2.8054   2.9530   3.0408   3.0649   3.1289

          k =-0.0935 0.1158 0.0000 ( 30700 PWs)   bands (ev):

   -71.1406 -71.1313 -70.6529 -70.6433 -70.6288 -70.6194 -55.8007 -55.7938
   -55.7821 -55.7752 -55.5882 -55.5674 -41.2079 -41.1188 -41.1167 -41.1092
   -41.1011 -41.0757 -40.7305 -40.6786 -40.6696 -40.6601 -40.6579 -40.6499
   -40.6001 -40.5985 -40.5898 -40.5658 -40.5557 -40.5493 -32.1413 -32.1134
   -32.1071 -32.0932 -32.0462 -32.0235 -31.9863 -31.9673 -31.9582 -31.9391
   -31.8913 -31.8574 -31.8376 -31.8282 -31.8001 -31.7493 -31.7458 -31.7048
    -2.9222  -2.4172  -2.0588  -1.9878  -1.8249  -1.8104  -1.6355  -1.5955
    -1.4426  -1.3129  -1.2689  -1.2673  -1.0733  -0.8629  -0.8628  -0.6165
    -0.4252  -0.3522  -0.3460  -0.2078  -0.1690  -0.0527  -0.0381   0.1244
     0.1712   0.2419   0.4591   0.4996   0.5968   0.7836   0.8287   0.9752
     0.9779   1.0455   1.1966   1.2476   1.3368   1.3488   1.4049   1.6357
     1.6810   1.8771   2.3845   2.4318   2.4880   2.5838   2.5896   2.6928
     2.7436   2.8497   2.9195   2.9359   2.9881

          k =-0.0935-0.0661 0.0000 ( 30686 PWs)   bands (ev):

   -71.1408 -71.1311 -70.6531 -70.6431 -70.6290 -70.6193 -55.8011 -55.7942
   -55.7818 -55.7749 -55.5886 -55.5670 -41.2101 -41.1186 -41.1169 -41.1086
   -41.1008 -41.0731 -40.7327 -40.6806 -40.6695 -40.6596 -40.6577 -40.6493
   -40.6002 -40.5962 -40.5898 -40.5659 -40.5554 -40.5469 -32.1423 -32.1135
   -32.1070 -32.0923 -32.0500 -32.0272 -31.9880 -31.9685 -31.9590 -31.9393
   -31.8949 -31.8545 -31.8347 -31.8293 -31.8003 -31.7492 -31.7457 -31.7019
    -2.8731  -2.4868  -1.9904  -1.9808  -1.8212  -1.8105  -1.6010  -1.5455
    -1.5327  -1.2981  -1.1854  -1.1616  -1.1361  -0.8542  -0.8494  -0.6405
    -0.4027  -0.3333  -0.2844  -0.2676  -0.1076  -0.0054   0.0406   0.1161
     0.1563   0.3040   0.4784   0.4897   0.5821   0.8047   0.8974   0.9573
     1.1146   1.1345   1.1886   1.2345   1.2779   1.2925   1.4108   1.5367
     1.6797   1.8148   2.3095   2.4092   2.4546   2.5405   2.5847   2.6408
     2.7185   2.7328   2.8528   2.9084   2.9829

     the Fermi energy is     1.6241 ev

!    total energy              =   -1911.13905051 Ry
     estimated scf accuracy    <       0.00000982 Ry
     smearing contrib. (-TS)   =      -0.04857302 Ry
     internal energy E=F+TS    =   -1911.09047749 Ry

     The total energy is F=E-TS. E is the sum of the following terms:
     one-electron contribution =  -16157.86452083 Ry
     hartree contribution      =    8071.96588956 Ry
     xc contribution           =    -295.76448706 Ry
     ewald contribution        =    6470.57263562 Ry
     electric field correction =       0.00000522 Ry

     convergence has been achieved in  16 iterations

     negative rho (up, down):  1.365E-03 0.000E+00

     Forces acting on atoms (cartesian axes, Ry/au):

     atom    1 type  1   force =    -0.00013530   -0.00009551   -0.00773957
     atom    2 type  1   force =    -0.00013238   -0.00009426   -0.00775702
     atom    3 type  2   force =    -0.00005761   -0.00003721    0.02698223
     atom    4 type  2   force =    -0.00005381   -0.00004097    0.02698281
     atom    5 type  1   force =     0.00006548    0.00004778   -0.01211347
     atom    6 type  1   force =     0.00005463    0.00003740   -0.01210342
     atom    7 type  2   force =     0.00003445    0.00001453   -0.00980477
     atom    8 type  2   force =     0.00002243    0.00002459   -0.00980404
     atom    9 type  1   force =     0.00004705    0.00003168    0.00100439
     atom   10 type  1   force =     0.00004687    0.00003421    0.00099902
     atom   11 type  2   force =     0.00005342    0.00003699    0.00167643
     atom   12 type  2   force =     0.00005479    0.00004076    0.00167740

     Total force =     0.045491     Total SCF correction =     0.010956
     SCF correction compared to forces is large: reduce conv_thr to get better values

     Writing output data file ./Ti2Ru2/Ti2Ru2_beef.save/

     init_run     :     89.60s CPU     90.06s WALL (       1 calls)
     electrons    :   3508.46s CPU   3532.57s WALL (       1 calls)
     forces       :     62.17s CPU     62.52s WALL (       1 calls)

     Called by init_run:
     wfcinit      :     77.77s CPU     78.05s WALL (       1 calls)
     potinit      :      7.91s CPU      7.98s WALL (       1 calls)
     hinit0       :      2.06s CPU      2.07s WALL (       1 calls)

     Called by electrons:
     c_bands      :   3143.53s CPU   3161.22s WALL (      16 calls)
     sum_band     :    330.98s CPU    334.53s WALL (      16 calls)
     v_of_rho     :     25.08s CPU     26.28s WALL (      17 calls)
     newd         :     15.53s CPU     17.11s WALL (      17 calls)
     mix_rho      :      0.58s CPU      0.59s WALL (      16 calls)
     vdW_kernel   :      5.76s CPU      5.77s WALL (       1 calls)

     Called by c_bands:
     init_us_2    :      7.98s CPU      8.05s WALL (    2516 calls)
     cegterg      :   3098.33s CPU   3114.08s WALL (    1184 calls)

     Called by *egterg:
     cdiaghg      :    229.61s CPU    230.05s WALL (    7097 calls)
     h_psi        :   1275.83s CPU   1286.38s WALL (    7171 calls)
     s_psi        :    250.30s CPU    250.86s WALL (    7171 calls)
     g_psi        :      1.62s CPU      1.64s WALL (    5913 calls)

     Called by h_psi:
     h_psi:calbec :    536.52s CPU    538.75s WALL (    7171 calls)
     vloc_psi     :    477.18s CPU    484.90s WALL (    7171 calls)
     add_vuspsi   :    257.99s CPU    258.53s WALL (    7171 calls)

     General routines
     calbec       :    801.05s CPU    804.35s WALL (    8651 calls)
     fft          :     16.56s CPU     17.31s WALL (    1130 calls)
     ffts         :      0.07s CPU      0.08s WALL (      33 calls)
     fftw         :    537.49s CPU    546.09s WALL (  710016 calls)
     interpolate  :      0.22s CPU      0.24s WALL (      17 calls)

     Parallel routines
     fft_scatt_xy :     36.98s CPU     37.45s WALL (  711179 calls)
     fft_scatt_yz :    184.48s CPU    188.25s WALL (  711179 calls)

     PWSCF        :      1h 1m CPU      1h 2m WALL


   This run was terminated on:  15:56:20  25Jun2022            

=------------------------------------------------------------------------------=
   JOB DONE.
=------------------------------------------------------------------------------=
