
     Program PWSCF v.6.6 starts on 25Jun2022 at 12:42: 8 

     This program is part of the open-source Quantum ESPRESSO suite
     for quantum simulation of materials; please cite
         "P. Giannozzi et al., J. Phys.:Condens. Matter 21 395502 (2009);
         "P. Giannozzi et al., J. Phys.:Condens. Matter 29 465901 (2017);
          URL http://www.quantum-espresso.org", 
     in publications or presentations arising from this work. More details at
     http://www.quantum-espresso.org/quote

     Parallel version (MPI), running on    37 processors

     MPI processes distributed on     1 nodes
     R & G space division:  proc/nbgrp/npool/nimage =      37
     Fft bands division:     nmany     =       1
     Reading input from Ti2Re2.in
Warning: card &CELL ignored
Warning: card / ignored

     Current dimensions of program PWSCF are:
     Max number of different atomic species (ntypx) = 10
     Max number of k-points (npk) =  40000
     Max angular momentum in pseudopotentials (lmaxx) =  3
     Presently stress not available with electric field and gates

     Message from routine cell_base_init:
     DEPRECATED: use true lattice parameter, not A to a.u. conversion factor
     file Ti.pbe-spn-rrkjus_psl.1.0.0.UPF: wavefunction(s)  3S 3D renormalized

     **************************************************************************
     Initializing libbeef V0.1.2 with the BEEF-vdW functional.
     Citation: Wellendorff et al., PRB 85, 235149 (2012).
     **************************************************************************


     IMPORTANT: XC functional enforced from input :
     Exchange-correlation= BEEF-VDW
                           (   1   4  43  14   2   0   0)
     Any further DFT definition will be discarded
     Please, verify this is what you really want


     Subspace diagonalization in iterative solution of the eigenvalue problem:
     a serial algorithm will be used


     Parallelization info
     --------------------
     sticks:   dense  smooth     PW     G-vecs:    dense   smooth      PW
     Min         116      46     13                26718     6760    1015
     Max         117      48     14                26727     6767    1029
     Sum        4301    1729    483               988761   250207   37855



     bravais-lattice index     =            0
     lattice parameter (alat)  =       1.8897  a.u.
     unit-cell volume          =    4525.6950 (a.u.)^3
     number of atoms/cell      =           12
     number of atomic types    =            2
     number of electrons       =       162.00
     number of Kohn-Sham states=           97
     kinetic-energy cutoff     =      55.1240  Ry
     charge density cutoff     =     551.2396  Ry
     convergence threshold     =      1.0E-05
     mixing beta               =       0.1000
     number of iterations used =           10  plain     mixing
     Exchange-correlation= BEEF-VDW
                           (   1   4  43  14   2   0   0)

     celldm(1)=   1.889726  celldm(2)=   0.000000  celldm(3)=   0.000000
     celldm(4)=   0.000000  celldm(5)=   0.000000  celldm(6)=   0.000000

     crystal axes: (cart. coord. in units of alat)
               a(1) = (   5.399388   0.000000   0.000000 )  
               a(2) = (   1.806504   5.088215   0.000000 )  
               a(3) = (   0.000000   0.000000  24.410618 )  

     reciprocal axes: (cart. coord. in units 2 pi/alat)
               b(1) = (  0.185206 -0.065755  0.000000 )  
               b(2) = (  0.000000  0.196533  0.000000 )  
               b(3) = (  0.000000  0.000000  0.040966 )  


     PseudoPot. # 1 for Ti read from file:
     ../pseudo/Ti.pbe-spn-rrkjus_psl.1.0.0.UPF
     MD5 check sum: e281089c08e14b8efcf92e44a67ada65
     Pseudo is Ultrasoft + core correction, Zval = 12.0
     Generated using "atomic" code by A. Dal Corso v.6.2.2
     Using radial grid of 1177 points,  6 beta functions with: 
                l(1) =   0
                l(2) =   0
                l(3) =   1
                l(4) =   1
                l(5) =   2
                l(6) =   2
     Q(r) pseudized with 0 coefficients 


     PseudoPot. # 2 for Re read from file:
     ../pseudo/Re.pbe-spn-rrkjus_psl.1.0.0.UPF
     MD5 check sum: 1282f1ec51ad523723a04c61ae80a9e6
     Pseudo is Ultrasoft + core correction, Zval = 15.0
     Generated using "atomic" code by A. Dal Corso v.6.2.2
     Using radial grid of 1275 points,  6 beta functions with: 
                l(1) =   0
                l(2) =   0
                l(3) =   1
                l(4) =   1
                l(5) =   2
                l(6) =   2
     Q(r) pseudized with 0 coefficients 


     atomic species   valence    mass     pseudopotential
        Ti            12.00    47.86700     Ti( 1.00)
        Re            15.00   186.20700     Re( 1.00)

     No symmetry found



   Cartesian axes

     site n.     atom                  positions (alat units)
         1           Ti  tau(   1) = (   0.0000000   0.0000000  10.0000000  )
         2           Ti  tau(   2) = (   3.6029458   2.5441076  10.0000000  )
         3           Re  tau(   3) = (   2.6996940   0.0000000  10.0000000  )
         4           Re  tau(   4) = (   0.9032518   2.5441076  10.0000000  )
         5           Ti  tau(   5) = (   5.3993879   3.8126091  12.2053090  )
         6           Ti  tau(   6) = (   1.7964421   1.2685015  12.2053090  )
         7           Re  tau(   7) = (   2.6996940   3.8126091  12.2053090  )
         8           Re  tau(   8) = (   4.4961361   1.2685015  12.2053090  )
         9           Ti  tau(   9) = (   3.5950735   2.5385181  14.3829144  )
        10           Ti  tau(  10) = (   7.1979966   5.0826701  14.3829056  )
        11           Re  tau(  11) = (   6.2940607   2.5380466  14.3528693  )
        12           Re  tau(  12) = (   4.4975599   5.0820952  14.3528456  )

     number of k points=    74  Fermi-Dirac smearing, width (Ry)=  0.0100
                       cart. coord. in units 2pi/alat
        k(    1) = (   0.0000000   0.0000000   0.0000000), wk =   0.0138889
        k(    2) = (   0.0000000   0.0163777   0.0000000), wk =   0.0277778
        k(    3) = (   0.0000000   0.0327554   0.0000000), wk =   0.0277778
        k(    4) = (   0.0000000   0.0491331   0.0000000), wk =   0.0277778
        k(    5) = (   0.0000000   0.0655109   0.0000000), wk =   0.0277778
        k(    6) = (   0.0000000   0.0818886   0.0000000), wk =   0.0277778
        k(    7) = (   0.0000000  -0.0982663   0.0000000), wk =   0.0138889
        k(    8) = (   0.0154338  -0.0054796   0.0000000), wk =   0.0277778
        k(    9) = (   0.0154338   0.0108981   0.0000000), wk =   0.0277778
        k(   10) = (   0.0154338   0.0272758   0.0000000), wk =   0.0277778
        k(   11) = (   0.0154338   0.0436536   0.0000000), wk =   0.0277778
        k(   12) = (   0.0154338   0.0600313   0.0000000), wk =   0.0277778
        k(   13) = (   0.0154338   0.0764090   0.0000000), wk =   0.0277778
        k(   14) = (   0.0154338  -0.1037459   0.0000000), wk =   0.0277778
        k(   15) = (   0.0154338  -0.0873682   0.0000000), wk =   0.0277778
        k(   16) = (   0.0154338  -0.0709904   0.0000000), wk =   0.0277778
        k(   17) = (   0.0154338  -0.0546127   0.0000000), wk =   0.0277778
        k(   18) = (   0.0154338  -0.0382350   0.0000000), wk =   0.0277778
        k(   19) = (   0.0154338  -0.0218573   0.0000000), wk =   0.0277778
        k(   20) = (   0.0308677  -0.0109592   0.0000000), wk =   0.0277778
        k(   21) = (   0.0308677   0.0054185   0.0000000), wk =   0.0277778
        k(   22) = (   0.0308677   0.0217963   0.0000000), wk =   0.0277778
        k(   23) = (   0.0308677   0.0381740   0.0000000), wk =   0.0277778
        k(   24) = (   0.0308677   0.0545517   0.0000000), wk =   0.0277778
        k(   25) = (   0.0308677   0.0709294   0.0000000), wk =   0.0277778
        k(   26) = (   0.0308677  -0.1092255   0.0000000), wk =   0.0277778
        k(   27) = (   0.0308677  -0.0928477   0.0000000), wk =   0.0277778
        k(   28) = (   0.0308677  -0.0764700   0.0000000), wk =   0.0277778
        k(   29) = (   0.0308677  -0.0600923   0.0000000), wk =   0.0277778
        k(   30) = (   0.0308677  -0.0437146   0.0000000), wk =   0.0277778
        k(   31) = (   0.0308677  -0.0273369   0.0000000), wk =   0.0277778
        k(   32) = (   0.0463015  -0.0164388   0.0000000), wk =   0.0277778
        k(   33) = (   0.0463015  -0.0000610   0.0000000), wk =   0.0277778
        k(   34) = (   0.0463015   0.0163167   0.0000000), wk =   0.0277778
        k(   35) = (   0.0463015   0.0326944   0.0000000), wk =   0.0277778
        k(   36) = (   0.0463015   0.0490721   0.0000000), wk =   0.0277778
        k(   37) = (   0.0463015   0.0654498   0.0000000), wk =   0.0277778
        k(   38) = (   0.0463015  -0.1147050   0.0000000), wk =   0.0277778
        k(   39) = (   0.0463015  -0.0983273   0.0000000), wk =   0.0277778
        k(   40) = (   0.0463015  -0.0819496   0.0000000), wk =   0.0277778
        k(   41) = (   0.0463015  -0.0655719   0.0000000), wk =   0.0277778
        k(   42) = (   0.0463015  -0.0491942   0.0000000), wk =   0.0277778
        k(   43) = (   0.0463015  -0.0328165   0.0000000), wk =   0.0277778
        k(   44) = (   0.0617354  -0.0219183   0.0000000), wk =   0.0277778
        k(   45) = (   0.0617354  -0.0055406   0.0000000), wk =   0.0277778
        k(   46) = (   0.0617354   0.0108371   0.0000000), wk =   0.0277778
        k(   47) = (   0.0617354   0.0272148   0.0000000), wk =   0.0277778
        k(   48) = (   0.0617354   0.0435925   0.0000000), wk =   0.0277778
        k(   49) = (   0.0617354   0.0599702   0.0000000), wk =   0.0277778
        k(   50) = (   0.0617354  -0.1201846   0.0000000), wk =   0.0277778
        k(   51) = (   0.0617354  -0.1038069   0.0000000), wk =   0.0277778
        k(   52) = (   0.0617354  -0.0874292   0.0000000), wk =   0.0277778
        k(   53) = (   0.0617354  -0.0710515   0.0000000), wk =   0.0277778
        k(   54) = (   0.0617354  -0.0546738   0.0000000), wk =   0.0277778
        k(   55) = (   0.0617354  -0.0382961   0.0000000), wk =   0.0277778
        k(   56) = (   0.0771692  -0.0273979   0.0000000), wk =   0.0277778
        k(   57) = (   0.0771692  -0.0110202   0.0000000), wk =   0.0277778
        k(   58) = (   0.0771692   0.0053575   0.0000000), wk =   0.0277778
        k(   59) = (   0.0771692   0.0217352   0.0000000), wk =   0.0277778
        k(   60) = (   0.0771692   0.0381129   0.0000000), wk =   0.0277778
        k(   61) = (   0.0771692   0.0544906   0.0000000), wk =   0.0277778
        k(   62) = (   0.0771692  -0.1256642   0.0000000), wk =   0.0277778
        k(   63) = (   0.0771692  -0.1092865   0.0000000), wk =   0.0277778
        k(   64) = (   0.0771692  -0.0929088   0.0000000), wk =   0.0277778
        k(   65) = (   0.0771692  -0.0765311   0.0000000), wk =   0.0277778
        k(   66) = (   0.0771692  -0.0601534   0.0000000), wk =   0.0277778
        k(   67) = (   0.0771692  -0.0437756   0.0000000), wk =   0.0277778
        k(   68) = (  -0.0926031   0.0328775   0.0000000), wk =   0.0138889
        k(   69) = (  -0.0926031   0.0492552   0.0000000), wk =   0.0277778
        k(   70) = (  -0.0926031   0.0656329   0.0000000), wk =   0.0277778
        k(   71) = (  -0.0926031   0.0820107   0.0000000), wk =   0.0277778
        k(   72) = (  -0.0926031   0.0983884   0.0000000), wk =   0.0277778
        k(   73) = (  -0.0926031   0.1147661   0.0000000), wk =   0.0277778
        k(   74) = (  -0.0926031  -0.0653888   0.0000000), wk =   0.0138889

     Dense  grid:   988761 G-vectors     FFT dimensions: (  80,  80, 360)

     Smooth grid:   250207 G-vectors     FFT dimensions: (  50,  50, 225)

     Estimated max dynamical RAM per process >     200.75 MB

     Estimated total dynamical RAM >       7.25 GB

     Initial potential from superposition of free atoms

     starting charge  161.98933, renormalised to  162.00000

     negative rho (up, down):  8.965E-04 0.000E+00


     %%%%%%%%%%%%%%%%%%%%%%%%%%%%%%%%%%%%%%%%%%%%%%%%%%%%%%%%%%%%%%%%%%%%%%%%
     %                                                                      %
     % You are using vdW-DF, which was implemented by the Thonhauser group. %
     % Please cite the following two papers that made this development      %
     % possible and the two reviews that describe the various versions:     %
     %                                                                      %
     %   T. Thonhauser et al., PRL 115, 136402 (2015).                      %
     %   T. Thonhauser et al., PRB 76, 125112 (2007).                       %
     %   K. Berland et al., Rep. Prog. Phys. 78, 066501 (2015).             %
     %   D.C. Langreth et al., J. Phys.: Condens. Matter 21, 084203 (2009). %
     %                                                                      %
     %                                                                      %
     % If you are calculating the stress with vdW-DF, please also cite:     %
     %                                                                      %
     %   R. Sabatini et al., J. Phys.: Condens. Matter 24, 424209 (2012).   %
     %                                                                      %
     %%%%%%%%%%%%%%%%%%%%%%%%%%%%%%%%%%%%%%%%%%%%%%%%%%%%%%%%%%%%%%%%%%%%%%%%



     Adding external electric field

     Computed dipole along edir(3) : 
        Dipole                0.0001 Ry au,          0.0002 Debye
        Dipole field          0.0000 Ry au, 

        Potential amp.       -0.0000 Ry
        Total length         44.9761 bohr

     Starting wfcs are  120 randomized atomic wfcs

     total cpu time spent up to now is       99.2 secs

     Self-consistent Calculation

     iteration #  1     ecut=    55.12 Ry     beta= 0.10
     Davidson diagonalization with overlap
     ethr =  1.00E-02,  avg # of iterations =  2.6

     negative rho (up, down):  8.252E-04 0.000E+00

     Adding external electric field

     Computed dipole along edir(3) : 
        Dipole               -0.1362 Ry au,         -0.3461 Debye
        Dipole field         -0.0004 Ry au, 

        Potential amp.        0.0340 Ry
        Total length         44.9761 bohr


     total cpu time spent up to now is      325.1 secs

     total energy              =   -1797.95725727 Ry
     estimated scf accuracy    <       4.73980675 Ry

     iteration #  2     ecut=    55.12 Ry     beta= 0.10
     Davidson diagonalization with overlap
     ethr =  2.93E-03,  avg # of iterations =  3.0

     negative rho (up, down):  8.018E-04 0.000E+00

     Adding external electric field

     Computed dipole along edir(3) : 
        Dipole                0.5498 Ry au,          1.3974 Debye
        Dipole field          0.0015 Ry au, 

        Potential amp.       -0.1373 Ry
        Total length         44.9761 bohr


     total cpu time spent up to now is      520.8 secs

     total energy              =   -1798.18701203 Ry
     estimated scf accuracy    <       1.83831885 Ry

     iteration #  3     ecut=    55.12 Ry     beta= 0.10
     Davidson diagonalization with overlap
     ethr =  1.13E-03,  avg # of iterations =  5.2

     negative rho (up, down):  9.256E-04 0.000E+00

     Adding external electric field

     Computed dipole along edir(3) : 
        Dipole               -0.0249 Ry au,         -0.0634 Debye
        Dipole field         -0.0001 Ry au, 

        Potential amp.        0.0062 Ry
        Total length         44.9761 bohr


     total cpu time spent up to now is      727.2 secs

     total energy              =   -1798.08854309 Ry
     estimated scf accuracy    <      18.32757691 Ry

     iteration #  4     ecut=    55.12 Ry     beta= 0.10
     Davidson diagonalization with overlap
     ethr =  1.13E-03,  avg # of iterations =  1.3

     negative rho (up, down):  8.494E-04 0.000E+00

     Adding external electric field

     Computed dipole along edir(3) : 
        Dipole               -0.0266 Ry au,         -0.0675 Debye
        Dipole field         -0.0001 Ry au, 

        Potential amp.        0.0066 Ry
        Total length         44.9761 bohr


     total cpu time spent up to now is      896.3 secs

     total energy              =   -1798.22656580 Ry
     estimated scf accuracy    <       0.39488370 Ry

     iteration #  5     ecut=    55.12 Ry     beta= 0.10
     Davidson diagonalization with overlap
     ethr =  2.44E-04,  avg # of iterations =  5.0

     negative rho (up, down):  9.893E-04 0.000E+00

     Adding external electric field

     Computed dipole along edir(3) : 
        Dipole                0.0395 Ry au,          0.1004 Debye
        Dipole field          0.0001 Ry au, 

        Potential amp.       -0.0099 Ry
        Total length         44.9761 bohr


     total cpu time spent up to now is     1114.7 secs

     total energy              =   -1798.25640737 Ry
     estimated scf accuracy    <       0.27219675 Ry

     iteration #  6     ecut=    55.12 Ry     beta= 0.10
     Davidson diagonalization with overlap
     ethr =  1.68E-04,  avg # of iterations =  2.8

     negative rho (up, down):  9.654E-04 0.000E+00

     Adding external electric field

     Computed dipole along edir(3) : 
        Dipole                0.0009 Ry au,          0.0024 Debye
        Dipole field          0.0000 Ry au, 

        Potential amp.       -0.0002 Ry
        Total length         44.9761 bohr


     total cpu time spent up to now is     1309.1 secs

     total energy              =   -1798.27068596 Ry
     estimated scf accuracy    <       0.09257965 Ry

     iteration #  7     ecut=    55.12 Ry     beta= 0.10
     Davidson diagonalization with overlap
     c_bands:  1 eigenvalues not converged
     c_bands:  2 eigenvalues not converged
     ethr =  5.71E-05,  avg # of iterations =  7.9

     negative rho (up, down):  1.915E-03 0.000E+00

     Adding external electric field

     Computed dipole along edir(3) : 
        Dipole                0.0198 Ry au,          0.0504 Debye
        Dipole field          0.0001 Ry au, 

        Potential amp.       -0.0049 Ry
        Total length         44.9761 bohr


     total cpu time spent up to now is     1525.4 secs

     total energy              =   -1798.27432121 Ry
     estimated scf accuracy    <       0.03186919 Ry

     iteration #  8     ecut=    55.12 Ry     beta= 0.10
     Davidson diagonalization with overlap
     c_bands:  1 eigenvalues not converged
     c_bands:  1 eigenvalues not converged
     ethr =  1.97E-05,  avg # of iterations = 10.6

     negative rho (up, down):  2.054E-03 0.000E+00

     Adding external electric field

     Computed dipole along edir(3) : 
        Dipole                0.0102 Ry au,          0.0259 Debye
        Dipole field          0.0000 Ry au, 

        Potential amp.       -0.0025 Ry
        Total length         44.9761 bohr


     total cpu time spent up to now is     1784.2 secs

     total energy              =   -1798.27733854 Ry
     estimated scf accuracy    <       0.02198138 Ry

     iteration #  9     ecut=    55.12 Ry     beta= 0.10
     Davidson diagonalization with overlap
     c_bands:  1 eigenvalues not converged
     ethr =  1.36E-05,  avg # of iterations =  3.9

     negative rho (up, down):  2.704E-03 0.000E+00

     Adding external electric field

     Computed dipole along edir(3) : 
        Dipole                0.0131 Ry au,          0.0334 Debye
        Dipole field          0.0000 Ry au, 

        Potential amp.       -0.0033 Ry
        Total length         44.9761 bohr


     total cpu time spent up to now is     1981.5 secs

     total energy              =   -1798.27836252 Ry
     estimated scf accuracy    <       0.00390332 Ry

     iteration # 10     ecut=    55.12 Ry     beta= 0.10
     Davidson diagonalization with overlap
     c_bands:  1 eigenvalues not converged
     c_bands:  2 eigenvalues not converged
     c_bands:  1 eigenvalues not converged
     c_bands:  1 eigenvalues not converged
     c_bands:  3 eigenvalues not converged
     c_bands:  1 eigenvalues not converged
     c_bands:  1 eigenvalues not converged
     c_bands:  1 eigenvalues not converged
     c_bands:  1 eigenvalues not converged
     c_bands:  1 eigenvalues not converged
     c_bands:  1 eigenvalues not converged
     c_bands:  1 eigenvalues not converged
     c_bands:  3 eigenvalues not converged
     c_bands:  2 eigenvalues not converged
     c_bands:  1 eigenvalues not converged
     c_bands:  1 eigenvalues not converged
     c_bands:  1 eigenvalues not converged
     c_bands:  1 eigenvalues not converged
     ethr =  2.41E-06,  avg # of iterations = 12.2

     negative rho (up, down):  2.726E-03 0.000E+00

     Adding external electric field

     Computed dipole along edir(3) : 
        Dipole                0.0192 Ry au,          0.0488 Debye
        Dipole field          0.0001 Ry au, 

        Potential amp.       -0.0048 Ry
        Total length         44.9761 bohr


     total cpu time spent up to now is     2295.1 secs

     total energy              =   -1798.27936931 Ry
     estimated scf accuracy    <       0.00392659 Ry

     iteration # 11     ecut=    55.12 Ry     beta= 0.10
     Davidson diagonalization with overlap
     c_bands:  1 eigenvalues not converged
     c_bands:  1 eigenvalues not converged
     c_bands:  1 eigenvalues not converged
     ethr =  2.41E-06,  avg # of iterations =  3.7

     negative rho (up, down):  2.686E-03 0.000E+00

     Adding external electric field

     Computed dipole along edir(3) : 
        Dipole                0.0131 Ry au,          0.0332 Debye
        Dipole field          0.0000 Ry au, 

        Potential amp.       -0.0033 Ry
        Total length         44.9761 bohr


     total cpu time spent up to now is     2487.8 secs

     total energy              =   -1798.27944046 Ry
     estimated scf accuracy    <       0.00267596 Ry

     iteration # 12     ecut=    55.12 Ry     beta= 0.10
     Davidson diagonalization with overlap
     c_bands:  1 eigenvalues not converged
     ethr =  1.65E-06,  avg # of iterations =  4.4

     negative rho (up, down):  2.465E-03 0.000E+00

     Adding external electric field

     Computed dipole along edir(3) : 
        Dipole                0.0130 Ry au,          0.0329 Debye
        Dipole field          0.0000 Ry au, 

        Potential amp.       -0.0032 Ry
        Total length         44.9761 bohr


     total cpu time spent up to now is     2684.9 secs

     total energy              =   -1798.27965947 Ry
     estimated scf accuracy    <       0.00020065 Ry

     iteration # 13     ecut=    55.12 Ry     beta= 0.10
     Davidson diagonalization with overlap
     c_bands:  1 eigenvalues not converged
     c_bands:  1 eigenvalues not converged
     ethr =  1.24E-07,  avg # of iterations =  8.4

     negative rho (up, down):  2.291E-03 0.000E+00

     Adding external electric field

     Computed dipole along edir(3) : 
        Dipole                0.0138 Ry au,          0.0351 Debye
        Dipole field          0.0000 Ry au, 

        Potential amp.       -0.0035 Ry
        Total length         44.9761 bohr


     total cpu time spent up to now is     2964.9 secs

     total energy              =   -1798.27960014 Ry
     estimated scf accuracy    <       0.00090601 Ry

     iteration # 14     ecut=    55.12 Ry     beta= 0.10
     Davidson diagonalization with overlap
     ethr =  1.24E-07,  avg # of iterations =  6.0

     negative rho (up, down):  2.179E-03 0.000E+00

     Adding external electric field

     Computed dipole along edir(3) : 
        Dipole                0.0137 Ry au,          0.0348 Debye
        Dipole field          0.0000 Ry au, 

        Potential amp.       -0.0034 Ry
        Total length         44.9761 bohr


     total cpu time spent up to now is     3237.4 secs

     total energy              =   -1798.27965478 Ry
     estimated scf accuracy    <       0.00034756 Ry

     iteration # 15     ecut=    55.12 Ry     beta= 0.10
     Davidson diagonalization with overlap
     ethr =  1.24E-07,  avg # of iterations =  4.1

     negative rho (up, down):  6.942E-04 0.000E+00

     Adding external electric field

     Computed dipole along edir(3) : 
        Dipole                0.0107 Ry au,          0.0272 Debye
        Dipole field          0.0000 Ry au, 

        Potential amp.       -0.0027 Ry
        Total length         44.9761 bohr


     total cpu time spent up to now is     3448.0 secs

     End of self-consistent calculation

          k = 0.0000 0.0000 0.0000 ( 31175 PWs)   bands (ev):

   -78.2599 -78.2529 -78.0893 -78.0826 -78.0631 -78.0564 -55.1594 -55.1416
   -55.1352 -55.1173 -54.8519 -54.8341 -40.0754 -40.0569 -40.0566 -40.0521
   -40.0335 -39.9060 -39.8937 -39.8888 -39.8862 -39.8775 -39.8626 -39.8359
   -39.7922 -39.7720 -39.7702 -39.7424 -39.7194 -39.7019 -31.4786 -31.4622
   -31.4542 -31.4419 -31.4280 -31.4008 -31.3119 -31.3067 -31.2901 -31.2833
   -31.2607 -31.2369 -31.1648 -31.0790 -31.0676 -31.0636 -31.0581 -30.9955
    -5.3586  -3.6376  -2.8813  -2.5176  -2.3483  -2.3241  -2.2973  -2.2145
    -2.1733  -2.1151  -1.5058  -1.3956  -1.2431  -0.4622  -0.4274  -0.3926
    -0.3794  -0.3371  -0.2711  -0.2010  -0.0617   0.1183   0.4587   0.4648
     0.6516   1.1528   1.1764   1.3904   1.6522   1.8438   1.9156   2.0129
     2.2984   2.4375   2.6627   3.0610   3.1983   3.4282   3.4794   3.5506
     3.8663   3.8785   3.8859   3.9251   4.0198   4.0884   4.1888   4.2127
     4.3071

          k = 0.0000 0.0164 0.0000 ( 31192 PWs)   bands (ev):

   -78.2598 -78.2530 -78.0892 -78.0828 -78.0630 -78.0565 -55.1591 -55.1419
   -55.1349 -55.1176 -54.8516 -54.8344 -40.0720 -40.0563 -40.0561 -40.0516
   -40.0336 -39.9027 -39.8933 -39.8892 -39.8855 -39.8775 -39.8626 -39.8367
   -39.7911 -39.7716 -39.7696 -39.7427 -39.7224 -39.7049 -31.4784 -31.4625
   -31.4542 -31.4424 -31.4256 -31.3987 -31.3129 -31.3078 -31.2915 -31.2847
   -31.2641 -31.2404 -31.1625 -31.0784 -31.0685 -31.0646 -31.0583 -30.9990
    -5.3040  -3.5842  -2.8257  -2.5236  -2.3204  -2.2849  -2.2795  -2.1802
    -2.1373  -2.0890  -1.4617  -1.3637  -1.2124  -0.4547  -0.4381  -0.3936
    -0.3308  -0.3066  -0.2612  -0.1695  -0.0543   0.0931   0.4484   0.4627
     0.6365   1.1419   1.2051   1.3523   1.5351   1.8082   1.9115   1.9624
     2.2370   2.2810   2.6270   2.9334   3.1510   3.1966   3.3249   3.5705
     3.8388   3.8756   3.8785   3.8956   4.0113   4.0334   4.1591   4.1811
     4.2100

          k = 0.0000 0.0328 0.0000 ( 31244 PWs)   bands (ev):

   -78.2595 -78.2534 -78.0889 -78.0831 -78.0627 -78.0569 -55.1583 -55.1429
   -55.1341 -55.1186 -54.8508 -54.8354 -40.0622 -40.0547 -40.0546 -40.0502
   -40.0341 -39.8982 -39.8931 -39.8920 -39.8785 -39.8752 -39.8627 -39.8391
   -39.7879 -39.7704 -39.7679 -39.7437 -39.7312 -39.7138 -31.4778 -31.4635
   -31.4540 -31.4438 -31.4187 -31.3924 -31.3156 -31.3109 -31.2952 -31.2886
   -31.2738 -31.2503 -31.1559 -31.0767 -31.0710 -31.0672 -31.0590 -31.0091
    -5.1431  -3.4290  -2.6621  -2.5774  -2.2399  -2.2167  -2.1700  -2.0747
    -2.0320  -2.0126  -1.3308  -1.3139  -1.0815  -0.4457  -0.4261  -0.3985
    -0.2439  -0.2401  -0.2241  -0.0822  -0.0103   0.0190   0.4226   0.4714
     0.5903   1.0851   1.2141   1.2326   1.3393   1.6973   1.8257   1.8869
     1.8970   2.1103   2.5043   2.5430   2.6320   3.0919   3.1877   3.5519
     3.7419   3.7765   3.8097   3.8354   3.8955   3.9624   4.0235   4.1056
     4.1500

          k = 0.0000 0.0491 0.0000 ( 31276 PWs)   bands (ev):

   -78.2590 -78.2539 -78.0884 -78.0836 -78.0622 -78.0574 -55.1570 -55.1445
   -55.1328 -55.1202 -54.8495 -54.8370 -40.0534 -40.0526 -40.0481 -40.0457
   -40.0348 -39.9125 -39.8902 -39.8806 -39.8760 -39.8624 -39.8602 -39.8428
   -39.7833 -39.7690 -39.7655 -39.7454 -39.7452 -39.7280 -31.4767 -31.4650
   -31.4537 -31.4456 -31.4077 -31.3820 -31.3200 -31.3148 -31.3008 -31.2938
   -31.2882 -31.2651 -31.1450 -31.0750 -31.0741 -31.0706 -31.0601 -31.0243
    -4.8851  -3.1883  -2.7203  -2.4014  -2.1980  -2.0388  -1.9888  -1.9118
    -1.8935  -1.8647  -1.2746  -1.1183  -0.8532  -0.4670  -0.4159  -0.4049
    -0.2273  -0.1529  -0.1029  -0.0976  -0.0050   0.1533   0.4491   0.4727
     0.5195   0.8473   0.9769   1.0510   1.3544   1.5124   1.6140   1.6803
     1.7269   1.8290   2.0681   2.2028   2.4557   2.8483   3.1451   3.1757
     3.4292   3.7168   3.7215   3.7653   3.8800   3.8924   3.9984   4.0236
     4.0783

          k = 0.0000 0.0655 0.0000 ( 31266 PWs)   bands (ev):

   -78.2582 -78.2547 -78.0877 -78.0843 -78.0615 -78.0581 -55.1553 -55.1465
   -55.1311 -55.1222 -54.8478 -54.8389 -40.0512 -40.0505 -40.0456 -40.0361
   -40.0257 -39.9314 -39.8879 -39.8805 -39.8615 -39.8576 -39.8469 -39.8403
   -39.7785 -39.7679 -39.7638 -39.7624 -39.7479 -39.7462 -31.4752 -31.4669
   -31.4531 -31.4475 -31.3932 -31.3683 -31.3265 -31.3184 -31.3079 -31.3041
   -31.2988 -31.2820 -31.1306 -31.0792 -31.0736 -31.0716 -31.0617 -31.0427
    -4.5457  -2.9700  -2.8934  -2.1792  -2.0654  -1.8190  -1.7636  -1.7455
    -1.7263  -1.6491  -1.2416  -0.8325  -0.6396  -0.5361  -0.4567  -0.4162
    -0.2469  -0.2324  -0.0560  -0.0023   0.1122   0.3731   0.3982   0.4377
     0.4978   0.6893   0.8055   0.8705   0.8840   1.1805   1.3808   1.5169
     1.6495   1.7859   1.8050   2.0258   2.3933   2.6028   2.6519   3.0667
     3.1526   3.6609   3.6925   3.7048   3.8091   3.8837   3.9183   3.9255
     3.9673

          k = 0.0000 0.0819 0.0000 ( 31291 PWs)   bands (ev):

   -78.2574 -78.2555 -78.0869 -78.0852 -78.0607 -78.0589 -55.1533 -55.1487
   -55.1291 -55.1244 -54.8458 -54.8412 -40.0495 -40.0491 -40.0429 -40.0379
   -40.0024 -39.9536 -39.8855 -39.8817 -39.8595 -39.8524 -39.8341 -39.8176
   -39.7870 -39.7720 -39.7703 -39.7678 -39.7573 -39.7510 -31.4734 -31.4691
   -31.4523 -31.4494 -31.3758 -31.3519 -31.3387 -31.3206 -31.3179 -31.3160
   -31.3021 -31.2959 -31.1137 -31.0852 -31.0749 -31.0688 -31.0637 -31.0607
    -4.1482  -3.3170  -2.5953  -2.2201  -1.7041  -1.6105  -1.6003  -1.5717
    -1.5494  -1.3925  -1.2555  -0.7549  -0.5309  -0.5120  -0.4889  -0.4574
    -0.3750  -0.2535  -0.0476   0.0539   0.2316   0.2868   0.3837   0.4674
     0.5038   0.5495   0.6265   0.7222   0.7755   0.9919   1.0835   1.5206
     1.5693   1.6236   1.8564   1.9379   2.1819   2.3913   2.5182   2.7188
     3.2050   3.4247   3.4862   3.5466   3.7095   3.7585   3.7650   3.8842
     3.9465

          k = 0.0000-0.0983 0.0000 ( 31310 PWs)   bands (ev):

   -78.2565 -78.2564 -78.0860 -78.0860 -78.0598 -78.0598 -55.1510 -55.1510
   -55.1268 -55.1268 -54.8436 -54.8435 -40.0488 -40.0487 -40.0403 -40.0402
   -39.9778 -39.9778 -39.8834 -39.8834 -39.8564 -39.8564 -39.8102 -39.8102
   -39.7935 -39.7935 -39.7692 -39.7692 -39.7545 -39.7545 -31.4713 -31.4713
   -31.4511 -31.4510 -31.3568 -31.3568 -31.3342 -31.3341 -31.3202 -31.3202
   -31.3020 -31.3019 -31.0967 -31.0967 -31.0722 -31.0722 -31.0660 -31.0660
    -3.7250  -3.7249  -2.3568  -2.3568  -1.5239  -1.5239  -1.5035  -1.5035
    -1.3827  -1.3827  -1.0730  -1.0730  -0.5415  -0.5414  -0.4667  -0.4667
    -0.1933  -0.1933  -0.0783  -0.0783   0.1773   0.1774   0.4738   0.4739
     0.4945   0.4945   0.5728   0.5728   0.8523   0.8523   1.4010   1.4011
     1.6264   1.6264   1.6452   1.6452   2.4026   2.4026   2.4403   2.4403
     3.2956   3.2956   3.3476   3.3477   3.7300   3.7301   3.8142   3.8146
     3.9584

          k = 0.0154-0.0055 0.0000 ( 31192 PWs)   bands (ev):

   -78.2598 -78.2530 -78.0892 -78.0828 -78.0630 -78.0565 -55.1591 -55.1419
   -55.1349 -55.1176 -54.8516 -54.8344 -40.0720 -40.0563 -40.0561 -40.0516
   -40.0336 -39.9027 -39.8933 -39.8892 -39.8855 -39.8775 -39.8626 -39.8367
   -39.7911 -39.7716 -39.7696 -39.7427 -39.7224 -39.7049 -31.4784 -31.4625
   -31.4542 -31.4424 -31.4256 -31.3987 -31.3129 -31.3078 -31.2915 -31.2847
   -31.2641 -31.2404 -31.1625 -31.0784 -31.0685 -31.0646 -31.0583 -30.9990
    -5.3040  -3.5842  -2.8257  -2.5236  -2.3204  -2.2849  -2.2795  -2.1802
    -2.1373  -2.0890  -1.4617  -1.3637  -1.2124  -0.4547  -0.4381  -0.3936
    -0.3308  -0.3066  -0.2612  -0.1695  -0.0543   0.0931   0.4484   0.4627
     0.6365   1.1419   1.2051   1.3523   1.5351   1.8082   1.9115   1.9624
     2.2370   2.2810   2.6270   2.9334   3.1510   3.1966   3.3250   3.5705
     3.8389   3.8757   3.8785   3.8956   4.0112   4.0334   4.1608   4.1811
     4.2102

          k = 0.0154 0.0109 0.0000 ( 31201 PWs)   bands (ev):

   -78.2599 -78.2529 -78.0893 -78.0827 -78.0631 -78.0564 -55.1595 -55.1416
   -55.1353 -55.1173 -54.8520 -54.8341 -40.0747 -40.0566 -40.0548 -40.0516
   -40.0333 -39.9053 -39.8929 -39.8880 -39.8860 -39.8767 -39.8637 -39.8381
   -39.7897 -39.7701 -39.7696 -39.7430 -39.7193 -39.7019 -31.4794 -31.4625
   -31.4542 -31.4418 -31.4298 -31.4027 -31.3143 -31.3078 -31.2940 -31.2858
   -31.2612 -31.2375 -31.1665 -31.0777 -31.0701 -31.0648 -31.0585 -30.9960
    -5.2867  -3.5769  -2.8345  -2.5159  -2.3022  -2.2842  -2.2502  -2.1678
    -2.1426  -2.0743  -1.4624  -1.3555  -1.2006  -0.4919  -0.4713  -0.4023
    -0.3201  -0.2606  -0.2070  -0.1785  -0.0413   0.1379   0.5060   0.5224
     0.6656   1.1833   1.2072   1.3873   1.6068   1.8604   1.8877   2.0303
     2.1010   2.3796   2.6423   2.7466   3.2014   3.2578   3.3793   3.4960
     3.7151   3.8474   3.8575   3.8615   3.8658   4.0017   4.0683   4.1222
     4.1957

          k = 0.0154 0.0273 0.0000 ( 31204 PWs)   bands (ev):

   -78.2598 -78.2531 -78.0892 -78.0828 -78.0630 -78.0565 -55.1593 -55.1420
   -55.1351 -55.1177 -54.8519 -54.8344 -40.0707 -40.0558 -40.0526 -40.0507
   -40.0333 -39.9013 -39.8919 -39.8888 -39.8841 -39.8761 -39.8645 -39.8407
   -39.7865 -39.7685 -39.7682 -39.7439 -39.7223 -39.7048 -31.4799 -31.4631
   -31.4541 -31.4423 -31.4291 -31.4022 -31.3175 -31.3099 -31.2985 -31.2892
   -31.2649 -31.2412 -31.1658 -31.0761 -31.0732 -31.0667 -31.0592 -30.9999
    -5.1623  -3.4667  -2.7382  -2.5437  -2.2139  -2.2065  -2.1968  -2.0820
    -2.0762  -2.0086  -1.3762  -1.3122  -1.1045  -0.5019  -0.4776  -0.4106
    -0.2669  -0.1958  -0.1421  -0.1070  -0.0072   0.1297   0.5389   0.5834
     0.6611   1.1428   1.3071   1.3574   1.4548   1.8264   1.8363   1.9471
     2.0066   2.1768   2.4628   2.5553   2.8568   3.1913   3.2003   3.4108
     3.5856   3.6939   3.6958   3.7088   3.8399   3.9334   4.0493   4.0587
     4.1336

          k = 0.0154 0.0437 0.0000 ( 31214 PWs)   bands (ev):

   -78.2594 -78.2534 -78.0889 -78.0831 -78.0627 -78.0568 -55.1585 -55.1431
   -55.1343 -55.1188 -54.8512 -54.8354 -40.0606 -40.0544 -40.0496 -40.0490
   -40.0337 -39.8978 -39.8911 -39.8906 -39.8767 -39.8731 -39.8644 -39.8442
   -39.7823 -39.7664 -39.7662 -39.7454 -39.7311 -39.7137 -31.4799 -31.4642
   -31.4538 -31.4436 -31.4233 -31.3970 -31.3221 -31.3132 -31.3042 -31.2940
   -31.2744 -31.2509 -31.1603 -31.0775 -31.0737 -31.0696 -31.0602 -31.0098
    -4.9376  -3.2664  -2.6541  -2.5458  -2.1434  -2.0597  -2.0419  -1.9416
    -1.9298  -1.8978  -1.2757  -1.2072  -0.9066  -0.4971  -0.4853  -0.4229
    -0.1663  -0.1422  -0.0958  -0.0153   0.0627   0.1198   0.5862   0.5900
     0.6580   1.0511   1.1452   1.2119   1.5154   1.6000   1.7000   1.8116
     1.9236   1.9633   2.1304   2.2406   2.4401   2.9005   3.0780   3.1689
     3.3957   3.4851   3.5728   3.5894   3.7475   3.8265   4.0217   4.0671
     4.1050

          k = 0.0154 0.0600 0.0000 ( 31270 PWs)   bands (ev):

   -78.2589 -78.2540 -78.0884 -78.0836 -78.0622 -78.0574 -55.1573 -55.1446
   -55.1331 -55.1203 -54.8500 -54.8369 -40.0529 -40.0492 -40.0468 -40.0425
   -40.0346 -39.9122 -39.8892 -39.8785 -39.8742 -39.8630 -39.8580 -39.8481
   -39.7780 -39.7650 -39.7635 -39.7476 -39.7452 -39.7280 -31.4791 -31.4655
   -31.4534 -31.4452 -31.4129 -31.3873 -31.3274 -31.3168 -31.3096 -31.2986
   -31.2882 -31.2651 -31.1500 -31.0817 -31.0725 -31.0711 -31.0617 -31.0245
    -4.6255  -3.0008  -2.8635  -2.2748  -2.1027  -1.8657  -1.8229  -1.7549
    -1.7469  -1.7419  -1.2353  -0.9637  -0.6904  -0.5357  -0.4906  -0.4462
    -0.1039  -0.0834  -0.0552  -0.0454   0.0734   0.3339   0.4990   0.6396
     0.6890   0.8578   0.9165   1.0401   1.2324   1.3130   1.5684   1.6825
     1.7504   1.8130   1.9025   1.9782   2.3348   2.5479   2.6398   3.0402
     3.0970   3.4483   3.5047   3.5527   3.6928   3.8002   3.8509   3.8920
     3.9633

          k = 0.0154 0.0764 0.0000 ( 31301 PWs)   bands (ev):

   -78.2582 -78.2547 -78.0877 -78.0843 -78.0615 -78.0581 -55.1555 -55.1465
   -55.1313 -55.1223 -54.8483 -54.8388 -40.0518 -40.0460 -40.0443 -40.0362
   -40.0236 -39.9314 -39.8878 -39.8790 -39.8603 -39.8569 -39.8504 -39.8382
   -39.7752 -39.7653 -39.7633 -39.7606 -39.7503 -39.7463 -31.4776 -31.4671
   -31.4528 -31.4471 -31.3981 -31.3732 -31.3329 -31.3196 -31.3143 -31.3042
   -31.3018 -31.2817 -31.1352 -31.0853 -31.0744 -31.0685 -31.0636 -31.0422
    -4.2454  -3.1717  -2.7107  -2.1081  -1.9632  -1.6603  -1.6059  -1.6043
    -1.5775  -1.4842  -1.2078  -0.6581  -0.6538  -0.5523  -0.5299  -0.4688
    -0.1967  -0.1807  -0.0148   0.0201   0.1775   0.3821   0.4549   0.5433
     0.6933   0.7574   0.7750   0.8535   0.9632   1.0300   1.0369   1.6030
     1.6409   1.8178   1.8738   1.8934   2.1497   2.2989   2.4700   2.7084
     3.0822   3.3514   3.4813   3.5003   3.5691   3.5901   3.7364   3.7546
     3.8580

          k = 0.0154-0.1037 0.0000 ( 31300 PWs)   bands (ev):

   -78.2573 -78.2556 -78.0869 -78.0852 -78.0607 -78.0589 -55.1534 -55.1487
   -55.1292 -55.1245 -54.8462 -54.8410 -40.0515 -40.0449 -40.0417 -40.0383
   -40.0009 -39.9542 -39.8866 -39.8813 -39.8562 -39.8556 -39.8323 -39.8157
   -39.7878 -39.7723 -39.7693 -39.7675 -39.7544 -39.7531 -31.4754 -31.4687
   -31.4519 -31.4490 -31.3794 -31.3553 -31.3402 -31.3217 -31.3209 -31.3160
   -31.3027 -31.2971 -31.1168 -31.0883 -31.0747 -31.0661 -31.0659 -31.0606
    -3.8249  -3.5537  -2.4527  -2.2016  -1.7336  -1.5029  -1.4936  -1.4802
    -1.4350  -1.2265  -1.1937  -0.8299  -0.6064  -0.5841  -0.4551  -0.3221
    -0.2869  -0.2634  -0.0699   0.0602   0.1659   0.2667   0.3575   0.4476
     0.5616   0.6192   0.6362   0.6746   0.8377   0.8393   1.3142   1.3991
     1.6078   1.6179   1.6564   1.7238   2.3712   2.3879   2.4027   2.4212
     3.1650   3.2551   3.3594   3.4697   3.5897   3.6302   3.6533   3.8633
     3.9414

          k = 0.0154-0.0874 0.0000 ( 31290 PWs)   bands (ev):

   -78.2565 -78.2564 -78.0860 -78.0860 -78.0598 -78.0598 -55.1511 -55.1510
   -55.1268 -55.1268 -54.8438 -54.8432 -40.0520 -40.0452 -40.0409 -40.0394
   -39.9789 -39.9769 -39.8854 -39.8842 -39.8575 -39.8515 -39.8114 -39.8088
   -39.7948 -39.7920 -39.7716 -39.7702 -39.7561 -39.7511 -31.4727 -31.4704
   -31.4507 -31.4507 -31.3580 -31.3539 -31.3347 -31.3323 -31.3226 -31.3202
   -31.3035 -31.3010 -31.0965 -31.0945 -31.0743 -31.0724 -31.0684 -31.0637
    -3.9685  -3.4015  -2.4076  -2.2790  -1.7338  -1.5850  -1.5402  -1.5176
    -1.3101  -1.2138  -1.1789  -0.8966  -0.5949  -0.5625  -0.4530  -0.3362
    -0.2366  -0.1928  -0.1675   0.1099   0.1550   0.2105   0.3509   0.3654
     0.4079   0.4320   0.4863   0.7226   0.7607   0.9624   1.0789   1.4184
     1.4330   1.4608   1.8054   1.9829   2.2031   2.3770   2.4929   2.7254
     3.3198   3.3304   3.4528   3.4949   3.6221   3.7451   3.7562   3.9049
     3.9456

          k = 0.0154-0.0710 0.0000 ( 31287 PWs)   bands (ev):

   -78.2574 -78.2555 -78.0869 -78.0852 -78.0607 -78.0589 -55.1532 -55.1487
   -55.1290 -55.1244 -54.8455 -54.8414 -40.0532 -40.0469 -40.0436 -40.0375
   -40.0039 -39.9532 -39.8873 -39.8840 -39.8587 -39.8468 -39.8355 -39.8191
   -39.7860 -39.7764 -39.7705 -39.7690 -39.7587 -39.7480 -31.4721 -31.4698
   -31.4520 -31.4492 -31.3716 -31.3477 -31.3359 -31.3229 -31.3176 -31.3133
   -31.3014 -31.2963 -31.1095 -31.0802 -31.0765 -31.0714 -31.0631 -31.0618
    -4.3735  -3.0229  -2.7003  -2.2038  -1.8811  -1.8577  -1.6800  -1.6542
    -1.5489  -1.4905  -1.1416  -0.6905  -0.6454  -0.5317  -0.4348  -0.4040
    -0.3082  -0.2301  -0.0086   0.0393   0.1587   0.2754   0.3107   0.3320
     0.4062   0.4479   0.6031   0.6825   0.7617   0.8497   1.3498   1.3742
     1.4229   1.6583   1.7985   2.0030   2.3835   2.5856   2.6305   3.0788
     3.2151   3.4941   3.7245   3.7461   3.8047   3.8330   3.8540   3.9887
     4.0475

          k = 0.0154-0.0546 0.0000 ( 31301 PWs)   bands (ev):

   -78.2583 -78.2547 -78.0877 -78.0844 -78.0615 -78.0581 -55.1552 -55.1464
   -55.1310 -55.1221 -54.8475 -54.8390 -40.0546 -40.0495 -40.0464 -40.0361
   -40.0273 -39.9314 -39.8899 -39.8826 -39.8596 -39.8588 -39.8424 -39.8416
   -39.7829 -39.7713 -39.7640 -39.7627 -39.7462 -39.7456 -31.4738 -31.4671
   -31.4530 -31.4474 -31.3891 -31.3642 -31.3207 -31.3192 -31.3073 -31.2993
   -31.2963 -31.2839 -31.1266 -31.0742 -31.0737 -31.0735 -31.0603 -31.0441
    -4.7327  -3.0145  -2.7381  -2.2011  -2.1911  -2.0677  -1.8404  -1.8362
    -1.8334  -1.7192  -1.1665  -0.9526  -0.8063  -0.4711  -0.3969  -0.2924
    -0.2632  -0.2382  -0.0839  -0.0076   0.0165   0.2127   0.2997   0.3442
     0.4118   0.4864   0.8188   0.9546   0.9722   1.3132   1.4046   1.4368
     1.5820   1.6808   2.0644   2.1248   2.4003   2.7836   3.0896   3.1700
     3.4385   3.6397   3.8040   3.8542   3.9028   3.9272   4.0489   4.0626
     4.0779

          k = 0.0154-0.0382 0.0000 ( 31252 PWs)   bands (ev):

   -78.2590 -78.2539 -78.0884 -78.0837 -78.0621 -78.0574 -55.1569 -55.1444
   -55.1327 -55.1201 -54.8493 -54.8370 -40.0559 -40.0524 -40.0488 -40.0475
   -40.0350 -39.9127 -39.8918 -39.8820 -39.8773 -39.8615 -39.8605 -39.8388
   -39.7873 -39.7720 -39.7660 -39.7453 -39.7440 -39.7280 -31.4755 -31.4649
   -31.4536 -31.4455 -31.4046 -31.3789 -31.3158 -31.3144 -31.2942 -31.2908
   -31.2888 -31.2656 -31.1419 -31.0763 -31.0703 -31.0697 -31.0592 -31.0245
    -5.0188  -3.2893  -2.5758  -2.4913  -2.2336  -2.2215  -2.0558  -2.0117
    -1.9636  -1.9171  -1.2098  -1.2016  -1.0468  -0.4272  -0.3841  -0.3187
    -0.2603  -0.2105  -0.1332  -0.1168  -0.0485   0.0185   0.2827   0.3731
     0.5042   0.8743   1.0309   1.0709   1.3450   1.4406   1.5437   1.6214
     1.8967   1.9690   2.2069   2.4311   2.5393   2.9270   3.1746   3.5667
     3.7261   3.7473   3.7606   3.9449   3.9895   3.9974   4.0251   4.0985
     4.1980

          k = 0.0154-0.0219 0.0000 ( 31238 PWs)   bands (ev):

   -78.2595 -78.2534 -78.0889 -78.0831 -78.0627 -78.0569 -55.1582 -55.1429
   -55.1340 -55.1186 -54.8507 -54.8354 -40.0628 -40.0564 -40.0548 -40.0506
   -40.0342 -39.8984 -39.8938 -39.8929 -39.8793 -39.8760 -39.8615 -39.8370
   -39.7902 -39.7722 -39.7683 -39.7430 -39.7312 -39.7139 -31.4770 -31.4634
   -31.4540 -31.4438 -31.4169 -31.3906 -31.3134 -31.3102 -31.2915 -31.2866
   -31.2737 -31.2501 -31.1542 -31.0779 -31.0685 -31.0664 -31.0585 -31.0088
    -5.2130  -3.4859  -2.7093  -2.5263  -2.3019  -2.2678  -2.2076  -2.1293
    -2.0606  -2.0510  -1.3736  -1.2895  -1.1833  -0.4190  -0.3986  -0.3459
    -0.3360  -0.2789  -0.2472  -0.1087  -0.0569   0.0052   0.3602   0.4127
     0.5809   1.1179   1.1897   1.2635   1.2785   1.6876   1.7894   1.9299
     1.9488   2.2812   2.5139   2.6214   2.9931   2.9993   3.1903   3.6629
     3.7910   3.8741   3.9214   3.9289   3.9778   4.1026   4.1444   4.1650
     4.2007

          k = 0.0309-0.0110 0.0000 ( 31244 PWs)   bands (ev):

   -78.2595 -78.2534 -78.0889 -78.0831 -78.0627 -78.0569 -55.1583 -55.1429
   -55.1341 -55.1186 -54.8508 -54.8354 -40.0622 -40.0547 -40.0546 -40.0502
   -40.0341 -39.8982 -39.8931 -39.8920 -39.8785 -39.8752 -39.8627 -39.8391
   -39.7879 -39.7704 -39.7679 -39.7437 -39.7312 -39.7138 -31.4778 -31.4635
   -31.4540 -31.4438 -31.4187 -31.3924 -31.3156 -31.3109 -31.2952 -31.2886
   -31.2738 -31.2503 -31.1559 -31.0767 -31.0710 -31.0672 -31.0590 -31.0091
    -5.1431  -3.4290  -2.6621  -2.5774  -2.2399  -2.2167  -2.1700  -2.0747
    -2.0320  -2.0126  -1.3308  -1.3139  -1.0815  -0.4457  -0.4261  -0.3985
    -0.2439  -0.2401  -0.2241  -0.0822  -0.0103   0.0190   0.4226   0.4714
     0.5903   1.0851   1.2141   1.2326   1.3393   1.6973   1.8257   1.8869
     1.8970   2.1103   2.5043   2.5430   2.6320   3.0919   3.1877   3.5518
     3.7419   3.7765   3.8097   3.8353   3.8955   3.9624   4.0235   4.1056
     4.1510

          k = 0.0309 0.0054 0.0000 ( 31204 PWs)   bands (ev):

   -78.2598 -78.2531 -78.0892 -78.0828 -78.0630 -78.0565 -55.1593 -55.1420
   -55.1351 -55.1177 -54.8519 -54.8344 -40.0707 -40.0558 -40.0526 -40.0507
   -40.0333 -39.9013 -39.8919 -39.8888 -39.8841 -39.8761 -39.8645 -39.8407
   -39.7865 -39.7685 -39.7682 -39.7439 -39.7223 -39.7048 -31.4799 -31.4631
   -31.4541 -31.4423 -31.4291 -31.4022 -31.3175 -31.3099 -31.2985 -31.2892
   -31.2649 -31.2412 -31.1658 -31.0761 -31.0732 -31.0667 -31.0592 -30.9999
    -5.1623  -3.4667  -2.7382  -2.5437  -2.2139  -2.2065  -2.1968  -2.0820
    -2.0762  -2.0086  -1.3762  -1.3122  -1.1045  -0.5019  -0.4776  -0.4106
    -0.2669  -0.1958  -0.1421  -0.1070  -0.0072   0.1297   0.5389   0.5834
     0.6611   1.1428   1.3071   1.3574   1.4548   1.8264   1.8363   1.9471
     2.0066   2.1768   2.4628   2.5553   2.8568   3.1913   3.2003   3.4108
     3.5856   3.6939   3.6957   3.7088   3.8399   3.9334   4.0493   4.0583
     4.1308

          k = 0.0309 0.0218 0.0000 ( 31242 PWs)   bands (ev):

   -78.2599 -78.2530 -78.0894 -78.0827 -78.0631 -78.0564 -55.1597 -55.1418
   -55.1355 -55.1175 -54.8524 -54.8341 -40.0728 -40.0559 -40.0503 -40.0497
   -40.0328 -39.9032 -39.8916 -39.8859 -39.8854 -39.8749 -39.8654 -39.8432
   -39.7838 -39.7679 -39.7656 -39.7445 -39.7191 -39.7017 -31.4818 -31.4634
   -31.4540 -31.4415 -31.4348 -31.4076 -31.3214 -31.3112 -31.3036 -31.2921
   -31.2626 -31.2389 -31.1712 -31.0773 -31.0744 -31.0681 -31.0597 -30.9975
    -5.0757  -3.4037  -2.7211  -2.5121  -2.1681  -2.1637  -2.1110  -2.0484
    -2.0332  -1.9520  -1.3363  -1.2439  -1.0786  -0.5309  -0.4903  -0.4238
    -0.2498  -0.1114  -0.0819  -0.0173   0.0052   0.1994   0.6258   0.6972
     0.7030   1.1924   1.3626   1.3747   1.4784   1.7158   1.8082   1.8940
     2.0893   2.2098   2.2278   2.4588   2.7777   3.1147   3.1807   3.2354
     3.4036   3.5130   3.5243   3.5754   3.7969   3.8020   3.8871   4.0525
     4.1123

          k = 0.0309 0.0382 0.0000 ( 31251 PWs)   bands (ev):

   -78.2598 -78.2531 -78.0893 -78.0828 -78.0630 -78.0565 -55.1596 -55.1422
   -55.1353 -55.1179 -54.8524 -54.8344 -40.0684 -40.0551 -40.0491 -40.0463
   -40.0328 -39.8987 -39.8913 -39.8882 -39.8815 -39.8744 -39.8650 -39.8461
   -39.7804 -39.7659 -39.7634 -39.7456 -39.7220 -39.7046 -31.4829 -31.4642
   -31.4537 -31.4418 -31.4349 -31.4080 -31.3267 -31.3143 -31.3091 -31.2962
   -31.2665 -31.2428 -31.1714 -31.0817 -31.0725 -31.0705 -31.0606 -31.0015
    -4.8884  -3.2498  -2.6205  -2.5610  -2.0458  -2.0378  -2.0249  -1.9494
    -1.9029  -1.8482  -1.2144  -1.1935  -0.9400  -0.5261  -0.4972  -0.4341
    -0.1770  -0.0787   0.0006   0.0917   0.0982   0.2057   0.6765   0.7027
     0.8150   1.1383   1.3060   1.3197   1.4762   1.5255   1.8050   1.8685
     1.9591   1.9705   2.1037   2.3276   2.3857   2.8840   2.8921   3.1136
     3.2829   3.3065   3.3304   3.4013   3.6629   3.7041   3.8605   3.9673
     4.1097

          k = 0.0309 0.0546 0.0000 ( 31262 PWs)   bands (ev):

   -78.2594 -78.2535 -78.0889 -78.0831 -78.0627 -78.0568 -55.1588 -55.1432
   -55.1346 -55.1190 -54.8517 -54.8353 -40.0582 -40.0541 -40.0473 -40.0427
   -40.0333 -39.8972 -39.8911 -39.8885 -39.8756 -39.8706 -39.8631 -39.8488
   -39.7772 -39.7629 -39.7623 -39.7470 -39.7310 -39.7137 -31.4832 -31.4653
   -31.4532 -31.4429 -31.4295 -31.4032 -31.3324 -31.3180 -31.3140 -31.3002
   -31.2757 -31.2522 -31.1662 -31.0860 -31.0732 -31.0702 -31.0618 -31.0111
    -4.6105  -3.0247  -2.7173  -2.4548  -1.9692  -1.8658  -1.8253  -1.7800
    -1.7244  -1.7080  -1.1533  -1.0197  -0.7641  -0.5232  -0.4944  -0.4478
    -0.0713  -0.0467   0.0516   0.1232   0.1378   0.3000   0.5927   0.7827
     0.8949   1.0150   1.0361   1.1964   1.2235   1.5323   1.7009   1.7453
     1.8048   1.8380   1.8549   2.1034   2.2096   2.4218   2.6099   2.9818
     2.9921   3.2054   3.2170   3.3508   3.5237   3.6656   3.7506   3.8500
     4.0373

          k = 0.0309 0.0709 0.0000 ( 31315 PWs)   bands (ev):

   -78.2589 -78.2541 -78.0884 -78.0836 -78.0622 -78.0574 -55.1575 -55.1448
   -55.1333 -55.1205 -54.8505 -54.8368 -40.0534 -40.0451 -40.0445 -40.0383
   -40.0344 -39.9120 -39.8909 -39.8779 -39.8727 -39.8597 -39.8556 -39.8507
   -39.7750 -39.7631 -39.7592 -39.7487 -39.7454 -39.7282 -31.4823 -31.4665
   -31.4527 -31.4443 -31.4186 -31.3929 -31.3371 -31.3213 -31.3171 -31.3030
   -31.2891 -31.2659 -31.1553 -31.0891 -31.0753 -31.0679 -31.0635 -31.0253
    -4.2576  -2.9771  -2.7599  -2.2576  -1.9399  -1.6452  -1.6052  -1.5528
    -1.5464  -1.5404  -1.1139  -0.7698  -0.7008  -0.5752  -0.4594  -0.4411
    -0.0194   0.0126   0.0284   0.0308   0.1208   0.4761   0.5218   0.6286
     0.8367   0.8988   0.9763   1.0066   1.0696   1.0882   1.2062   1.5766
     1.7472   1.8044   1.8385   2.0007   2.1179   2.1488   2.3978   2.7000
     2.9061   3.1637   3.2474   3.2764   3.3934   3.5290   3.5774   3.6719
     3.9293

          k = 0.0309-0.1092 0.0000 ( 31312 PWs)   bands (ev):

   -78.2581 -78.2548 -78.0877 -78.0843 -78.0615 -78.0581 -55.1557 -55.1466
   -55.1315 -55.1224 -54.8487 -54.8386 -40.0531 -40.0428 -40.0403 -40.0362
   -40.0217 -39.9316 -39.8904 -39.8806 -39.8563 -39.8554 -39.8499 -39.8359
   -39.7743 -39.7659 -39.7641 -39.7559 -39.7506 -39.7468 -31.4804 -31.4677
   -31.4520 -31.4460 -31.4023 -31.3774 -31.3396 -31.3232 -31.3182 -31.3054
   -31.3038 -31.2827 -31.1391 -31.0902 -31.0761 -31.0657 -31.0655 -31.0428
    -3.8523  -3.3221  -2.5019  -2.0906  -1.9872  -1.4432  -1.4312  -1.4208
    -1.3854  -1.2515  -1.1124  -0.7276  -0.6729  -0.4928  -0.4665  -0.4336
    -0.1569  -0.1058   0.0136   0.0530   0.1454   0.3670   0.3761   0.6170
     0.6223   0.6725   0.7532   0.7873   0.8905   0.9260   1.2031   1.3385
     1.5663   1.5862   1.7616   1.8054   2.2090   2.2901   2.3761   2.4374
     2.9593   3.1941   3.1989   3.4139   3.4219   3.4604   3.6487   3.7306
     3.7375

          k = 0.0309-0.0928 0.0000 ( 31315 PWs)   bands (ev):

   -78.2573 -78.2556 -78.0869 -78.0852 -78.0607 -78.0589 -55.1535 -55.1487
   -55.1293 -55.1245 -54.8465 -54.8408 -40.0535 -40.0407 -40.0406 -40.0384
   -39.9998 -39.9547 -39.8894 -39.8839 -39.8546 -39.8507 -39.8307 -39.8139
   -39.7882 -39.7734 -39.7703 -39.7700 -39.7531 -39.7508 -31.4775 -31.4689
   -31.4511 -31.4480 -31.3816 -31.3574 -31.3404 -31.3247 -31.3235 -31.3155
   -31.3029 -31.2999 -31.1184 -31.0894 -31.0756 -31.0678 -31.0640 -31.0618
    -3.7168  -3.4270  -2.3044  -2.1523  -2.0273  -1.4510  -1.4292  -1.4102
    -1.1836  -1.1029  -0.9640  -0.8197  -0.7048  -0.6346  -0.3501  -0.3168
    -0.2242  -0.1066  -0.0815  -0.0076   0.1300   0.2790   0.2947   0.2988
     0.3773   0.4286   0.5758   0.7601   0.8526   0.9986   1.0072   1.2272
     1.3052   1.4164   1.7498   2.0246   2.2073   2.2723   2.3599   2.7044
     3.1140   3.2987   3.3419   3.5231   3.5604   3.5916   3.6598   3.7469
     3.9101

          k = 0.0309-0.0765 0.0000 ( 31306 PWs)   bands (ev):

   -78.2566 -78.2564 -78.0860 -78.0860 -78.0598 -78.0598 -55.1511 -55.1510
   -55.1269 -55.1267 -54.8440 -54.8430 -40.0543 -40.0428 -40.0409 -40.0388
   -39.9797 -39.9763 -39.8878 -39.8870 -39.8555 -39.8463 -39.8122 -39.8077
   -39.7955 -39.7907 -39.7755 -39.7725 -39.7562 -39.7481 -31.4740 -31.4701
   -31.4501 -31.4499 -31.3578 -31.3499 -31.3342 -31.3316 -31.3245 -31.3221
   -31.3059 -31.3004 -31.0949 -31.0902 -31.0787 -31.0739 -31.0703 -31.0621
    -4.1187  -3.0288  -2.4295  -2.1999  -2.0786  -1.6464  -1.5618  -1.5266
    -1.3629  -1.1617  -0.9289  -0.7371  -0.6290  -0.6209  -0.3788  -0.3311
    -0.1797  -0.1477  -0.1021   0.1186   0.1344   0.1831   0.2070   0.2525
     0.2769   0.3183   0.4052   0.6033   0.7457   0.8529   1.2030   1.2336
     1.2840   1.4091   1.8481   1.9572   2.2861   2.5001   2.5283   3.0566
     3.3074   3.3263   3.4808   3.5368   3.7192   3.7886   3.8679   3.8758
     4.0012

          k = 0.0309-0.0601 0.0000 ( 31309 PWs)   bands (ev):

   -78.2574 -78.2555 -78.0869 -78.0852 -78.0606 -78.0589 -55.1531 -55.1487
   -55.1289 -55.1244 -54.8453 -54.8415 -40.0552 -40.0458 -40.0438 -40.0373
   -40.0048 -39.9530 -39.8893 -39.8858 -39.8567 -39.8429 -39.8364 -39.8199
   -39.7849 -39.7805 -39.7729 -39.7677 -39.7596 -39.7461 -31.4715 -31.4704
   -31.4516 -31.4488 -31.3687 -31.3444 -31.3330 -31.3257 -31.3199 -31.3096
   -31.3011 -31.2974 -31.1061 -31.0785 -31.0746 -31.0729 -31.0672 -31.0607
    -4.4888  -2.7546  -2.7232  -2.1837  -2.1711  -1.9334  -1.7239  -1.7107
    -1.6202  -1.4915  -0.9532  -0.7611  -0.7290  -0.5608  -0.4136  -0.2934
    -0.1752  -0.1635  -0.0171   0.0526   0.1062   0.1336   0.1682   0.2262
     0.3100   0.3245   0.6011   0.6681   0.7818   0.9558   1.2318   1.2360
     1.5575   1.6323   1.7588   2.1240   2.3076   2.6929   2.9077   3.2144
     3.4132   3.4880   3.6710   3.6757   3.8547   3.8629   3.8892   4.0247
     4.0936

          k = 0.0309-0.0437 0.0000 ( 31278 PWs)   bands (ev):

   -78.2583 -78.2546 -78.0877 -78.0844 -78.0615 -78.0581 -55.1552 -55.1464
   -55.1310 -55.1221 -54.8474 -54.8391 -40.0559 -40.0492 -40.0466 -40.0360
   -40.0280 -39.9314 -39.8909 -39.8834 -39.8593 -39.8584 -39.8426 -39.8398
   -39.7848 -39.7728 -39.7635 -39.7631 -39.7463 -39.7447 -31.4733 -31.4672
   -31.4528 -31.4473 -31.3876 -31.3625 -31.3198 -31.3176 -31.3091 -31.2953
   -31.2952 -31.2858 -31.1250 -31.0750 -31.0739 -31.0712 -31.0597 -31.0450
    -4.7961  -3.0566  -2.5818  -2.2368  -2.2317  -2.1997  -1.8865  -1.8690
    -1.8639  -1.7370  -1.0102  -0.9998  -0.9947  -0.4924  -0.3089  -0.2674
    -0.2246  -0.2187  -0.0907  -0.0238  -0.0052   0.1231   0.1660   0.2904
     0.4134   0.4617   0.8262   0.9980   1.0295   1.3306   1.3487   1.3624
     1.5056   1.7940   2.1799   2.2175   2.3347   2.8282   3.1700   3.2872
     3.6190   3.7193   3.7677   3.8273   3.8803   3.9481   4.0135   4.1035
     4.1176

          k = 0.0309-0.0273 0.0000 ( 31252 PWs)   bands (ev):

   -78.2590 -78.2539 -78.0884 -78.0837 -78.0621 -78.0574 -55.1569 -55.1444
   -55.1327 -55.1201 -54.8493 -54.8370 -40.0559 -40.0524 -40.0488 -40.0475
   -40.0350 -39.9127 -39.8918 -39.8820 -39.8773 -39.8615 -39.8605 -39.8388
   -39.7873 -39.7720 -39.7660 -39.7453 -39.7440 -39.7280 -31.4755 -31.4649
   -31.4536 -31.4455 -31.4046 -31.3789 -31.3158 -31.3144 -31.2942 -31.2908
   -31.2888 -31.2656 -31.1419 -31.0763 -31.0703 -31.0697 -31.0592 -31.0245
    -5.0188  -3.2893  -2.5758  -2.4913  -2.2336  -2.2215  -2.0558  -2.0117
    -1.9636  -1.9171  -1.2098  -1.2016  -1.0468  -0.4272  -0.3841  -0.3187
    -0.2603  -0.2105  -0.1332  -0.1168  -0.0485   0.0185   0.2827   0.3731
     0.5042   0.8743   1.0309   1.0709   1.3450   1.4406   1.5437   1.6214
     1.8967   1.9690   2.2069   2.4311   2.5393   2.9270   3.1746   3.5667
     3.7261   3.7472   3.7606   3.9449   3.9897   3.9974   4.0251   4.0989
     4.2112

          k = 0.0463-0.0164 0.0000 ( 31276 PWs)   bands (ev):

   -78.2590 -78.2539 -78.0884 -78.0836 -78.0622 -78.0574 -55.1570 -55.1445
   -55.1328 -55.1202 -54.8495 -54.8370 -40.0534 -40.0526 -40.0481 -40.0457
   -40.0348 -39.9125 -39.8902 -39.8806 -39.8760 -39.8624 -39.8602 -39.8428
   -39.7833 -39.7690 -39.7655 -39.7454 -39.7452 -39.7280 -31.4767 -31.4650
   -31.4537 -31.4456 -31.4077 -31.3820 -31.3199 -31.3148 -31.3008 -31.2938
   -31.2882 -31.2651 -31.1450 -31.0750 -31.0741 -31.0706 -31.0601 -31.0243
    -4.8851  -3.1883  -2.7203  -2.4014  -2.1980  -2.0388  -1.9888  -1.9118
    -1.8935  -1.8647  -1.2746  -1.1183  -0.8532  -0.4670  -0.4159  -0.4049
    -0.2273  -0.1529  -0.1029  -0.0976  -0.0050   0.1533   0.4491   0.4727
     0.5195   0.8473   0.9769   1.0510   1.3544   1.5124   1.6140   1.6803
     1.7269   1.8290   2.0681   2.2028   2.4557   2.8483   3.1451   3.1757
     3.4292   3.7168   3.7216   3.7652   3.8800   3.8924   3.9984   4.0236
     4.0779

          k = 0.0463-0.0001 0.0000 ( 31214 PWs)   bands (ev):

   -78.2594 -78.2534 -78.0889 -78.0831 -78.0627 -78.0568 -55.1585 -55.1431
   -55.1343 -55.1188 -54.8512 -54.8354 -40.0606 -40.0544 -40.0496 -40.0490
   -40.0337 -39.8978 -39.8911 -39.8906 -39.8767 -39.8731 -39.8644 -39.8442
   -39.7823 -39.7664 -39.7662 -39.7454 -39.7311 -39.7137 -31.4799 -31.4642
   -31.4538 -31.4436 -31.4233 -31.3970 -31.3221 -31.3132 -31.3042 -31.2940
   -31.2744 -31.2509 -31.1603 -31.0775 -31.0737 -31.0696 -31.0602 -31.0098
    -4.9376  -3.2664  -2.6541  -2.5458  -2.1434  -2.0597  -2.0419  -1.9416
    -1.9298  -1.8978  -1.2757  -1.2072  -0.9066  -0.4971  -0.4853  -0.4229
    -0.1663  -0.1422  -0.0958  -0.0153   0.0627   0.1198   0.5862   0.5900
     0.6580   1.0511   1.1452   1.2119   1.5154   1.5999   1.7000   1.8116
     1.9236   1.9633   2.1304   2.2406   2.4401   2.9005   3.0780   3.1689
     3.3957   3.4851   3.5728   3.5894   3.7475   3.8265   4.0217   4.0671
     4.1050

          k = 0.0463 0.0163 0.0000 ( 31251 PWs)   bands (ev):

   -78.2598 -78.2531 -78.0893 -78.0828 -78.0630 -78.0565 -55.1596 -55.1422
   -55.1353 -55.1179 -54.8524 -54.8344 -40.0684 -40.0551 -40.0491 -40.0463
   -40.0328 -39.8987 -39.8913 -39.8882 -39.8815 -39.8744 -39.8650 -39.8461
   -39.7804 -39.7659 -39.7634 -39.7456 -39.7220 -39.7046 -31.4829 -31.4642
   -31.4537 -31.4418 -31.4349 -31.4080 -31.3267 -31.3143 -31.3091 -31.2962
   -31.2665 -31.2428 -31.1714 -31.0817 -31.0725 -31.0705 -31.0606 -31.0015
    -4.8884  -3.2498  -2.6205  -2.5610  -2.0458  -2.0378  -2.0249  -1.9494
    -1.9029  -1.8482  -1.2144  -1.1935  -0.9400  -0.5261  -0.4972  -0.4341
    -0.1770  -0.0787   0.0006   0.0917   0.0982   0.2057   0.6765   0.7027
     0.8150   1.1383   1.3060   1.3197   1.4762   1.5255   1.8050   1.8685
     1.9591   1.9705   2.1037   2.3276   2.3857   2.8840   2.8921   3.1136
     3.2829   3.3065   3.3304   3.4013   3.6629   3.7042   3.8604   3.9673
     4.1107

          k = 0.0463 0.0327 0.0000 ( 31280 PWs)   bands (ev):

   -78.2599 -78.2530 -78.0894 -78.0827 -78.0632 -78.0564 -55.1600 -55.1420
   -55.1358 -55.1177 -54.8530 -54.8340 -40.0701 -40.0550 -40.0484 -40.0423
   -40.0322 -39.9003 -39.8923 -39.8846 -39.8829 -39.8741 -39.8641 -39.8478
   -39.7783 -39.7640 -39.7612 -39.7458 -39.7188 -39.7014 -31.4853 -31.4648
   -31.4533 -31.4417 -31.4405 -31.4142 -31.3330 -31.3174 -31.3144 -31.2995
   -31.2645 -31.2408 -31.1776 -31.0865 -31.0726 -31.0708 -31.0612 -30.9994
    -4.7409  -3.1472  -2.6305  -2.5091  -1.9590  -1.9522  -1.8883  -1.8854
    -1.8301  -1.7490  -1.1418  -1.0913  -0.9070  -0.5248  -0.4818  -0.4369
    -0.1343  -0.0082   0.0262   0.1333   0.2852   0.3073   0.6916   0.8001
     0.9649   1.1689   1.2887   1.3326   1.3560   1.5867   1.7112   1.7533
     1.9015   1.9453   2.1689   2.2058   2.2333   2.6069   2.7550   2.9208
     3.1157   3.1297   3.1944   3.2487   3.5542   3.6118   3.6991   3.8432
     4.0582

          k = 0.0463 0.0491 0.0000 ( 31307 PWs)   bands (ev):

   -78.2598 -78.2532 -78.0893 -78.0828 -78.0631 -78.0565 -55.1599 -55.1425
   -55.1357 -55.1182 -54.8530 -54.8344 -40.0657 -40.0545 -40.0471 -40.0384
   -40.0322 -39.8958 -39.8934 -39.8875 -39.8785 -39.8751 -39.8617 -39.8489
   -39.7765 -39.7610 -39.7605 -39.7461 -39.7218 -39.7044 -31.4867 -31.4657
   -31.4528 -31.4429 -31.4396 -31.4148 -31.3394 -31.3214 -31.3190 -31.3028
   -31.2683 -31.2446 -31.1779 -31.0910 -31.0751 -31.0690 -31.0621 -31.0034
    -4.5033  -2.9743  -2.5875  -2.5735  -1.8018  -1.7922  -1.7826  -1.7582
    -1.6691  -1.6103  -1.0378  -0.9995  -0.8003  -0.5110  -0.4389  -0.4366
    -0.0427  -0.0148   0.0550   0.2906   0.3146   0.4097   0.6123   0.8838
     1.0567   1.1006   1.1220   1.1877   1.2972   1.5735   1.6796   1.7272
     1.7495   1.8601   1.8797   2.0291   2.2251   2.2734   2.5324   2.7356
     2.9043   2.9335   3.1037   3.1678   3.3867   3.5433   3.6522   3.7478
     3.8434

          k = 0.0463 0.0654 0.0000 ( 31326 PWs)   bands (ev):

   -78.2594 -78.2535 -78.0890 -78.0831 -78.0628 -78.0568 -55.1591 -55.1434
   -55.1349 -55.1192 -54.8522 -54.8353 -40.0556 -40.0540 -40.0454 -40.0356
   -40.0328 -39.8967 -39.8941 -39.8857 -39.8779 -39.8681 -39.8582 -39.8494
   -39.7752 -39.7616 -39.7574 -39.7465 -39.7309 -39.7137 -31.4867 -31.4667
   -31.4523 -31.4422 -31.4350 -31.4092 -31.3442 -31.3249 -31.3217 -31.3050
   -31.2772 -31.2537 -31.1719 -31.0940 -31.0770 -31.0672 -31.0633 -31.0127
    -4.1880  -2.7627  -2.7548  -2.5123  -1.7304  -1.5960  -1.5827  -1.5469
    -1.4872  -1.4505  -1.0005  -0.8096  -0.7495  -0.5522  -0.4359  -0.3461
    -0.0480   0.0638   0.1084   0.2287   0.3323   0.4836   0.4954   0.7965
     0.8928   0.9690   1.0478   1.1798   1.2472   1.2569   1.3603   1.5314
     1.7166   1.7685   1.8066   1.9203   1.9835   2.2820   2.3091   2.6476
     2.6901   2.8397   3.0610   3.1616   3.2531   3.3487   3.5144   3.5816
     3.8970

          k = 0.0463-0.1147 0.0000 ( 31296 PWs)   bands (ev):

   -78.2588 -78.2541 -78.0884 -78.0836 -78.0622 -78.0574 -55.1578 -55.1449
   -55.1335 -55.1206 -54.8509 -54.8367 -40.0538 -40.0435 -40.0409 -40.0350
   -40.0329 -39.9118 -39.8941 -39.8811 -39.8708 -39.8542 -39.8536 -39.8492
   -39.7745 -39.7645 -39.7540 -39.7475 -39.7456 -39.7286 -31.4853 -31.4676
   -31.4517 -31.4431 -31.4230 -31.3974 -31.3461 -31.3270 -31.3219 -31.3058
   -31.2904 -31.2671 -31.1595 -31.0949 -31.0780 -31.0654 -31.0649 -31.0264
    -3.8131  -3.0541  -2.5240  -2.4367  -1.7319  -1.3909  -1.3662  -1.3341
    -1.3082  -1.2704  -0.9931  -0.7673  -0.6898  -0.6090  -0.4257  -0.2644
    -0.0288   0.0884   0.0906   0.1112   0.1332   0.4215   0.5142   0.6521
     0.6781   0.7526   0.8756   0.9012   1.0959   1.1002   1.1475   1.3183
     1.5293   1.5501   1.8471   1.8996   1.9832   2.1636   2.3171   2.4757
     2.6927   2.8581   3.1408   3.2306   3.2648   3.4619   3.4677   3.5452
     3.9007

          k = 0.0463-0.0983 0.0000 ( 31303 PWs)   bands (ev):

   -78.2581 -78.2548 -78.0877 -78.0843 -78.0615 -78.0581 -55.1559 -55.1467
   -55.1316 -55.1225 -54.8490 -54.8385 -40.0540 -40.0417 -40.0371 -40.0346
   -40.0208 -39.9317 -39.8932 -39.8841 -39.8544 -39.8502 -39.8481 -39.8342
   -39.7744 -39.7685 -39.7651 -39.7516 -39.7495 -39.7475 -31.4825 -31.4684
   -31.4511 -31.4449 -31.4050 -31.3800 -31.3446 -31.3273 -31.3193 -31.3070
   -31.3050 -31.2840 -31.1415 -31.0932 -31.0778 -31.0668 -31.0639 -31.0437
    -3.4138  -3.4060  -2.3966  -2.3251  -1.8510  -1.3109  -1.2811  -1.2590
    -1.0953  -1.0598  -0.9584  -0.8162  -0.7681  -0.4215  -0.3804  -0.3504
    -0.1637   0.0052   0.0121   0.0218   0.1007   0.2369   0.3985   0.4586
     0.4621   0.5102   0.6448   0.8073   0.8872   1.0442   1.0722   1.1379
     1.1769   1.4892   1.7104   2.0371   2.1099   2.1470   2.2356   2.6175
     2.8582   2.9760   3.2326   3.4193   3.5355   3.5493   3.5968   3.7206
     3.9006

          k = 0.0463-0.0819 0.0000 ( 31310 PWs)   bands (ev):

   -78.2572 -78.2557 -78.0869 -78.0852 -78.0607 -78.0589 -55.1536 -55.1488
   -55.1293 -55.1245 -54.8467 -54.8407 -40.0546 -40.0400 -40.0395 -40.0368
   -39.9992 -39.9551 -39.8914 -39.8866 -39.8526 -39.8468 -39.8297 -39.8129
   -39.7882 -39.7740 -39.7731 -39.7712 -39.7525 -39.7485 -31.4788 -31.4691
   -31.4505 -31.4472 -31.3825 -31.3581 -31.3400 -31.3267 -31.3259 -31.3140
   -31.3030 -31.3029 -31.1190 -31.0894 -31.0766 -31.0690 -31.0639 -31.0622
    -3.7996  -3.0168  -2.3908  -2.2034  -2.1056  -1.4286  -1.3998  -1.3548
    -1.1922  -0.8099  -0.7674  -0.7622  -0.6865  -0.6686  -0.3982  -0.3279
    -0.1233  -0.0620  -0.0552  -0.0221   0.0605   0.1784   0.1926   0.2224
     0.2697   0.2941   0.4993   0.7314   0.8600   0.9539   1.0356   1.1215
     1.1369   1.2088   1.9220   1.9525   2.1162   2.3447   2.3549   2.9497
     3.0798   3.1712   3.3563   3.5105   3.5812   3.6501   3.7535   3.9140
     3.9404

          k = 0.0463-0.0656 0.0000 ( 31300 PWs)   bands (ev):

   -78.2566 -78.2563 -78.0860 -78.0860 -78.0598 -78.0598 -55.1511 -55.1509
   -55.1269 -55.1267 -54.8441 -54.8430 -40.0551 -40.0424 -40.0403 -40.0386
   -39.9801 -39.9762 -39.8888 -39.8883 -39.8542 -39.8441 -39.8125 -39.8072
   -39.7957 -39.7902 -39.7774 -39.7737 -39.7561 -39.7470 -31.4745 -31.4700
   -31.4497 -31.4495 -31.3576 -31.3476 -31.3338 -31.3330 -31.3238 -31.3233
   -31.3073 -31.3003 -31.0939 -31.0847 -31.0841 -31.0749 -31.0710 -31.0615
    -4.1694  -2.7623  -2.4342  -2.3377  -2.1636  -1.6639  -1.5720  -1.5340
    -1.3924  -1.1528  -0.7013  -0.6942  -0.6495  -0.6423  -0.3611  -0.3431
    -0.1428  -0.1050  -0.0384  -0.0087   0.0001   0.1292   0.1369   0.2558
     0.2883   0.3612   0.3990   0.4516   0.7133   0.9261   1.0816   1.1522
     1.3591   1.4071   1.7528   2.0877   2.1741   2.5386   2.6489   3.2559
     3.3027   3.3316   3.4153   3.4736   3.7138   3.8098   3.8282   3.9528
     4.0268

          k = 0.0463-0.0492 0.0000 ( 31309 PWs)   bands (ev):

   -78.2574 -78.2555 -78.0869 -78.0852 -78.0606 -78.0589 -55.1531 -55.1487
   -55.1289 -55.1244 -54.8453 -54.8415 -40.0552 -40.0458 -40.0438 -40.0373
   -40.0048 -39.9530 -39.8893 -39.8858 -39.8567 -39.8429 -39.8364 -39.8199
   -39.7849 -39.7805 -39.7729 -39.7677 -39.7596 -39.7461 -31.4715 -31.4704
   -31.4516 -31.4488 -31.3687 -31.3444 -31.3330 -31.3257 -31.3199 -31.3096
   -31.3011 -31.2974 -31.1061 -31.0785 -31.0746 -31.0729 -31.0672 -31.0607
    -4.4888  -2.7546  -2.7232  -2.1837  -2.1711  -1.9334  -1.7239  -1.7107
    -1.6202  -1.4915  -0.9532  -0.7611  -0.7290  -0.5608  -0.4136  -0.2934
    -0.1752  -0.1635  -0.0171   0.0526   0.1062   0.1336   0.1682   0.2262
     0.3100   0.3245   0.6011   0.6681   0.7818   0.9558   1.2318   1.2360
     1.5575   1.6323   1.7588   2.1240   2.3076   2.6929   2.9077   3.2144
     3.4132   3.4880   3.6710   3.6757   3.8546   3.8630   3.8890   4.0246
     4.0936

          k = 0.0463-0.0328 0.0000 ( 31301 PWs)   bands (ev):

   -78.2583 -78.2547 -78.0877 -78.0844 -78.0615 -78.0581 -55.1552 -55.1464
   -55.1310 -55.1221 -54.8475 -54.8390 -40.0546 -40.0495 -40.0464 -40.0361
   -40.0273 -39.9314 -39.8899 -39.8826 -39.8596 -39.8588 -39.8424 -39.8416
   -39.7829 -39.7713 -39.7640 -39.7627 -39.7462 -39.7456 -31.4738 -31.4671
   -31.4530 -31.4474 -31.3891 -31.3642 -31.3207 -31.3192 -31.3073 -31.2993
   -31.2963 -31.2839 -31.1266 -31.0742 -31.0737 -31.0735 -31.0603 -31.0441
    -4.7327  -3.0145  -2.7381  -2.2011  -2.1911  -2.0677  -1.8404  -1.8362
    -1.8334  -1.7192  -1.1665  -0.9526  -0.8063  -0.4711  -0.3969  -0.2924
    -0.2632  -0.2382  -0.0839  -0.0076   0.0165   0.2127   0.2997   0.3442
     0.4118   0.4864   0.8188   0.9546   0.9722   1.3132   1.4046   1.4368
     1.5820   1.6808   2.0644   2.1248   2.4003   2.7836   3.0896   3.1700
     3.4385   3.6397   3.8040   3.8542   3.9027   3.9272   4.0489   4.0614
     4.0778

          k = 0.0617-0.0219 0.0000 ( 31266 PWs)   bands (ev):

   -78.2582 -78.2547 -78.0877 -78.0843 -78.0615 -78.0581 -55.1553 -55.1465
   -55.1311 -55.1222 -54.8478 -54.8389 -40.0512 -40.0505 -40.0456 -40.0361
   -40.0257 -39.9314 -39.8879 -39.8805 -39.8615 -39.8576 -39.8469 -39.8403
   -39.7785 -39.7679 -39.7638 -39.7624 -39.7479 -39.7462 -31.4752 -31.4669
   -31.4531 -31.4475 -31.3932 -31.3683 -31.3265 -31.3184 -31.3079 -31.3041
   -31.2988 -31.2820 -31.1306 -31.0792 -31.0736 -31.0716 -31.0617 -31.0427
    -4.5457  -2.9700  -2.8934  -2.1792  -2.0654  -1.8190  -1.7636  -1.7455
    -1.7263  -1.6491  -1.2416  -0.8325  -0.6396  -0.5361  -0.4567  -0.4162
    -0.2469  -0.2324  -0.0560  -0.0023   0.1122   0.3731   0.3982   0.4377
     0.4978   0.6893   0.8055   0.8705   0.8840   1.1805   1.3808   1.5169
     1.6495   1.7859   1.8050   2.0258   2.3933   2.6028   2.6519   3.0667
     3.1526   3.6609   3.6925   3.7048   3.8091   3.8838   3.9182   3.9255
     3.9672

          k = 0.0617-0.0055 0.0000 ( 31270 PWs)   bands (ev):

   -78.2589 -78.2540 -78.0884 -78.0836 -78.0622 -78.0574 -55.1573 -55.1446
   -55.1331 -55.1203 -54.8500 -54.8369 -40.0529 -40.0492 -40.0468 -40.0425
   -40.0346 -39.9122 -39.8892 -39.8785 -39.8742 -39.8630 -39.8580 -39.8481
   -39.7780 -39.7650 -39.7635 -39.7476 -39.7452 -39.7281 -31.4791 -31.4655
   -31.4534 -31.4452 -31.4129 -31.3873 -31.3274 -31.3168 -31.3096 -31.2986
   -31.2882 -31.2651 -31.1500 -31.0817 -31.0725 -31.0711 -31.0617 -31.0245
    -4.6255  -3.0008  -2.8635  -2.2748  -2.1027  -1.8657  -1.8229  -1.7549
    -1.7469  -1.7419  -1.2353  -0.9637  -0.6904  -0.5357  -0.4906  -0.4462
    -0.1039  -0.0834  -0.0552  -0.0454   0.0734   0.3339   0.4990   0.6396
     0.6890   0.8578   0.9166   1.0401   1.2324   1.3130   1.5684   1.6825
     1.7504   1.8130   1.9025   1.9782   2.3348   2.5479   2.6398   3.0402
     3.0970   3.4483   3.5047   3.5527   3.6928   3.8003   3.8509   3.8920
     3.9632

          k = 0.0617 0.0108 0.0000 ( 31262 PWs)   bands (ev):

   -78.2594 -78.2535 -78.0889 -78.0831 -78.0627 -78.0568 -55.1588 -55.1432
   -55.1346 -55.1190 -54.8517 -54.8353 -40.0582 -40.0541 -40.0473 -40.0427
   -40.0333 -39.8972 -39.8911 -39.8885 -39.8756 -39.8706 -39.8631 -39.8488
   -39.7772 -39.7629 -39.7623 -39.7470 -39.7310 -39.7137 -31.4832 -31.4653
   -31.4532 -31.4429 -31.4295 -31.4032 -31.3324 -31.3180 -31.3140 -31.3002
   -31.2757 -31.2522 -31.1662 -31.0860 -31.0732 -31.0702 -31.0618 -31.0111
    -4.6105  -3.0247  -2.7173  -2.4548  -1.9692  -1.8658  -1.8253  -1.7800
    -1.7244  -1.7080  -1.1533  -1.0197  -0.7641  -0.5232  -0.4944  -0.4478
    -0.0713  -0.0467   0.0516   0.1232   0.1378   0.3000   0.5927   0.7827
     0.8949   1.0150   1.0361   1.1964   1.2235   1.5323   1.7009   1.7453
     1.8048   1.8380   1.8549   2.1034   2.2096   2.4218   2.6099   2.9818
     2.9921   3.2054   3.2170   3.3508   3.5237   3.6656   3.7506   3.8500
     4.0371

          k = 0.0617 0.0272 0.0000 ( 31307 PWs)   bands (ev):

   -78.2598 -78.2532 -78.0893 -78.0828 -78.0631 -78.0565 -55.1599 -55.1425
   -55.1357 -55.1182 -54.8530 -54.8344 -40.0657 -40.0545 -40.0471 -40.0384
   -40.0322 -39.8958 -39.8934 -39.8875 -39.8785 -39.8751 -39.8617 -39.8489
   -39.7765 -39.7610 -39.7605 -39.7461 -39.7218 -39.7044 -31.4867 -31.4657
   -31.4528 -31.4429 -31.4396 -31.4148 -31.3394 -31.3214 -31.3190 -31.3028
   -31.2683 -31.2446 -31.1779 -31.0910 -31.0751 -31.0690 -31.0621 -31.0034
    -4.5033  -2.9743  -2.5875  -2.5735  -1.8019  -1.7922  -1.7826  -1.7582
    -1.6691  -1.6103  -1.0378  -0.9995  -0.8003  -0.5110  -0.4389  -0.4366
    -0.0427  -0.0148   0.0550   0.2906   0.3146   0.4097   0.6123   0.8838
     1.0567   1.1006   1.1220   1.1877   1.2972   1.5735   1.6796   1.7272
     1.7495   1.8601   1.8797   2.0291   2.2251   2.2734   2.5324   2.7356
     2.9043   2.9335   3.1037   3.1678   3.3867   3.5433   3.6522   3.7478
     3.8434

          k = 0.0617 0.0436 0.0000 ( 31316 PWs)   bands (ev):

   -78.2598 -78.2531 -78.0894 -78.0827 -78.0632 -78.0564 -55.1604 -55.1423
   -55.1361 -55.1180 -54.8535 -54.8340 -40.0674 -40.0543 -40.0463 -40.0344
   -40.0315 -39.8974 -39.8955 -39.8839 -39.8799 -39.8768 -39.8592 -39.8483
   -39.7758 -39.7600 -39.7582 -39.7451 -39.7185 -39.7011 -31.4891 -31.4664
   -31.4523 -31.4485 -31.4391 -31.4209 -31.3462 -31.3255 -31.3234 -31.3055
   -31.2664 -31.2426 -31.1839 -31.0956 -31.0773 -31.0677 -31.0625 -31.0014
    -4.3109  -2.8631  -2.6733  -2.5083  -1.7008  -1.6852  -1.6550  -1.5995
    -1.5837  -1.4716  -0.9579  -0.9133  -0.7826  -0.4679  -0.4160  -0.3499
    -0.0812   0.0342   0.1123   0.3471   0.4409   0.5022   0.6924   0.9511
     1.0741   1.0750   1.1657   1.1873   1.2947   1.4723   1.6233   1.7343
     1.7396   1.8009   1.8373   1.8505   1.9648   2.3700   2.4226   2.4750
     2.7149   2.7929   3.0118   3.0593   3.2555   3.4517   3.5340   3.6807
     3.7306

          k = 0.0617 0.0600 0.0000 ( 31306 PWs)   bands (ev):

   -78.2597 -78.2532 -78.0893 -78.0828 -78.0631 -78.0565 -55.1602 -55.1427
   -55.1359 -55.1184 -54.8534 -54.8343 -40.0633 -40.0540 -40.0451 -40.0326
   -40.0303 -39.8969 -39.8932 -39.8868 -39.8794 -39.8757 -39.8562 -39.8476
   -39.7754 -39.7611 -39.7553 -39.7444 -39.7216 -39.7042 -31.4901 -31.4672
   -31.4518 -31.4483 -31.4386 -31.4206 -31.3513 -31.3290 -31.3262 -31.3074
   -31.2699 -31.2462 -31.1834 -31.0987 -31.0791 -31.0664 -31.0632 -31.0050
    -4.0440  -2.7262  -2.7047  -2.5825  -1.5532  -1.5398  -1.5172  -1.4804
    -1.3952  -1.3095  -0.9242  -0.7876  -0.7646  -0.4739  -0.3937  -0.2277
    -0.1654   0.1414   0.1583   0.3365   0.4604   0.4753   0.7005   0.8932
     1.0007   1.0020   1.0393   1.2829   1.3288   1.3629   1.4156   1.4917
     1.6243   1.7142   1.8007   1.8117   1.9056   2.1756   2.3507   2.5039
     2.5664   2.6846   2.9326   3.0408   3.1574   3.2545   3.3902   3.5932
     3.6594

          k = 0.0617-0.1202 0.0000 ( 31331 PWs)   bands (ev):

   -78.2594 -78.2536 -78.0890 -78.0831 -78.0628 -78.0568 -55.1593 -55.1436
   -55.1351 -55.1193 -54.8526 -54.8352 -40.0539 -40.0536 -40.0438 -40.0332
   -40.0292 -39.8972 -39.8963 -39.8838 -39.8819 -39.8662 -39.8531 -39.8472
   -39.7751 -39.7634 -39.7527 -39.7447 -39.7309 -39.7137 -31.4894 -31.4679
   -31.4513 -31.4429 -31.4373 -31.4135 -31.3532 -31.3309 -31.3266 -31.3080
   -31.2784 -31.2549 -31.1760 -31.0996 -31.0800 -31.0652 -31.0643 -31.0139
    -3.7184  -2.7901  -2.7493  -2.5334  -1.4888  -1.3813  -1.3457  -1.2668
    -1.2326  -1.1586  -0.9047  -0.8012  -0.6676  -0.6490  -0.3754  -0.1538
    -0.1018   0.1658   0.2003   0.2029   0.4345   0.4453   0.5799   0.6823
     0.7718   0.8651   0.9105   1.0871   1.1164   1.2210   1.3198   1.4306
     1.5321   1.5827   1.7651   1.8358   1.9563   2.0155   2.3211   2.4109
     2.5443   2.5490   3.0665   3.1002   3.1187   3.3316   3.3823   3.4981
     3.7582

          k = 0.0617-0.1038 0.0000 ( 31311 PWs)   bands (ev):

   -78.2588 -78.2541 -78.0884 -78.0836 -78.0622 -78.0574 -55.1579 -55.1450
   -55.1336 -55.1207 -54.8511 -54.8366 -40.0540 -40.0425 -40.0391 -40.0347
   -40.0300 -39.9117 -39.8963 -39.8842 -39.8695 -39.8523 -39.8503 -39.8472
   -39.7748 -39.7665 -39.7506 -39.7462 -39.7459 -39.7288 -31.4871 -31.4683
   -31.4510 -31.4423 -31.4254 -31.3999 -31.3515 -31.3309 -31.3241 -31.3073
   -31.2913 -31.2680 -31.1619 -31.0980 -31.0798 -31.0657 -31.0641 -31.0272
    -3.3638  -3.0927  -2.7567  -2.3708  -1.5585  -1.2161  -1.1825  -1.1194
    -1.0932  -1.0194  -0.9396  -0.8864  -0.8304  -0.5618  -0.3695  -0.1009
    -0.0327   0.1003   0.1177   0.1263   0.1475   0.3362   0.4646   0.5703
     0.6239   0.6502   0.8002   0.8174   0.8371   0.9979   1.1097   1.3317
     1.3787   1.6500   1.6954   1.8970   1.9256   1.9805   2.3374   2.4473
     2.5809   2.6682   3.1457   3.2642   3.3863   3.4337   3.5992   3.7474
     3.7753

          k = 0.0617-0.0874 0.0000 ( 31328 PWs)   bands (ev):

   -78.2581 -78.2548 -78.0877 -78.0843 -78.0615 -78.0581 -55.1559 -55.1467
   -55.1317 -55.1225 -54.8491 -54.8385 -40.0543 -40.0412 -40.0369 -40.0328
   -40.0206 -39.9318 -39.8944 -39.8857 -39.8535 -39.8481 -39.8473 -39.8336
   -39.7745 -39.7699 -39.7655 -39.7492 -39.7490 -39.7486 -31.4833 -31.4687
   -31.4507 -31.4444 -31.4059 -31.3809 -31.3465 -31.3291 -31.3194 -31.3079
   -31.3054 -31.2846 -31.1423 -31.0942 -31.0785 -31.0673 -31.0632 -31.0442
    -3.4446  -3.0814  -2.6761  -2.2550  -1.7838  -1.2494  -1.2112  -1.1810
    -1.0497  -0.9754  -0.8959  -0.7929  -0.7543  -0.3939  -0.3874  -0.2745
    -0.1826  -0.0352   0.0063   0.0412   0.0938   0.1959   0.3018   0.4009
     0.4019   0.4418   0.6736   0.8406   0.8426   0.9341   0.9670   1.0845
     1.2649   1.2725   1.9006   1.9150   2.1201   2.1203   2.1692   2.7263
     2.8233   2.8903   3.2361   3.4404   3.4677   3.7148   3.7149   3.8049
     3.8231

          k = 0.0617-0.0711 0.0000 ( 31310 PWs)   bands (ev):

   -78.2572 -78.2557 -78.0869 -78.0852 -78.0607 -78.0589 -55.1536 -55.1488
   -55.1293 -55.1245 -54.8467 -54.8407 -40.0546 -40.0400 -40.0395 -40.0368
   -39.9992 -39.9551 -39.8914 -39.8866 -39.8526 -39.8468 -39.8297 -39.8129
   -39.7882 -39.7740 -39.7731 -39.7712 -39.7525 -39.7485 -31.4788 -31.4691
   -31.4505 -31.4472 -31.3825 -31.3581 -31.3400 -31.3267 -31.3259 -31.3140
   -31.3030 -31.3029 -31.1190 -31.0894 -31.0766 -31.0690 -31.0639 -31.0622
    -3.7996  -3.0168  -2.3908  -2.2034  -2.1056  -1.4286  -1.3998  -1.3548
    -1.1922  -0.8099  -0.7674  -0.7622  -0.6865  -0.6686  -0.3982  -0.3279
    -0.1233  -0.0620  -0.0552  -0.0221   0.0605   0.1784   0.1926   0.2224
     0.2697   0.2941   0.4993   0.7314   0.8600   0.9539   1.0356   1.1215
     1.1369   1.2088   1.9220   1.9525   2.1162   2.3447   2.3549   2.9497
     3.0798   3.1712   3.3563   3.5105   3.5812   3.6501   3.7535   3.9140
     3.9404

          k = 0.0617-0.0547 0.0000 ( 31306 PWs)   bands (ev):

   -78.2566 -78.2564 -78.0860 -78.0860 -78.0598 -78.0598 -55.1511 -55.1510
   -55.1269 -55.1267 -54.8440 -54.8430 -40.0543 -40.0428 -40.0409 -40.0388
   -39.9797 -39.9763 -39.8878 -39.8870 -39.8555 -39.8463 -39.8122 -39.8077
   -39.7955 -39.7907 -39.7755 -39.7725 -39.7562 -39.7481 -31.4740 -31.4701
   -31.4501 -31.4499 -31.3578 -31.3499 -31.3342 -31.3316 -31.3245 -31.3221
   -31.3059 -31.3004 -31.0949 -31.0902 -31.0787 -31.0739 -31.0703 -31.0621
    -4.1187  -3.0288  -2.4295  -2.1999  -2.0787  -1.6464  -1.5618  -1.5266
    -1.3629  -1.1617  -0.9289  -0.7371  -0.6290  -0.6209  -0.3788  -0.3311
    -0.1797  -0.1477  -0.1021   0.1186   0.1344   0.1831   0.2070   0.2525
     0.2769   0.3183   0.4052   0.6033   0.7457   0.8529   1.2030   1.2336
     1.2840   1.4091   1.8481   1.9572   2.2861   2.5001   2.5283   3.0566
     3.3074   3.3263   3.4808   3.5368   3.7192   3.7885   3.8679   3.8759
     4.0012

          k = 0.0617-0.0383 0.0000 ( 31287 PWs)   bands (ev):

   -78.2574 -78.2555 -78.0869 -78.0852 -78.0607 -78.0589 -55.1532 -55.1487
   -55.1290 -55.1244 -54.8455 -54.8414 -40.0532 -40.0469 -40.0436 -40.0375
   -40.0039 -39.9532 -39.8873 -39.8840 -39.8587 -39.8468 -39.8355 -39.8191
   -39.7860 -39.7764 -39.7706 -39.7690 -39.7587 -39.7480 -31.4721 -31.4698
   -31.4520 -31.4492 -31.3716 -31.3477 -31.3359 -31.3229 -31.3176 -31.3133
   -31.3014 -31.2963 -31.1095 -31.0802 -31.0765 -31.0714 -31.0631 -31.0618
    -4.3735  -3.0229  -2.7003  -2.2038  -1.8811  -1.8577  -1.6800  -1.6542
    -1.5489  -1.4905  -1.1416  -0.6905  -0.6454  -0.5317  -0.4348  -0.4040
    -0.3082  -0.2301  -0.0086   0.0393   0.1587   0.2754   0.3107   0.3320
     0.4062   0.4479   0.6031   0.6825   0.7617   0.8497   1.3498   1.3742
     1.4229   1.6583   1.7985   2.0030   2.3835   2.5856   2.6305   3.0788
     3.2151   3.4941   3.7246   3.7461   3.8046   3.8331   3.8540   3.9882
     4.0475

          k = 0.0772-0.0274 0.0000 ( 31291 PWs)   bands (ev):

   -78.2574 -78.2555 -78.0869 -78.0852 -78.0607 -78.0589 -55.1533 -55.1487
   -55.1291 -55.1244 -54.8458 -54.8412 -40.0495 -40.0491 -40.0429 -40.0379
   -40.0024 -39.9536 -39.8855 -39.8817 -39.8595 -39.8524 -39.8341 -39.8176
   -39.7870 -39.7720 -39.7703 -39.7678 -39.7573 -39.7510 -31.4734 -31.4691
   -31.4523 -31.4494 -31.3758 -31.3519 -31.3387 -31.3206 -31.3179 -31.3160
   -31.3021 -31.2959 -31.1137 -31.0852 -31.0749 -31.0688 -31.0637 -31.0607
    -4.1482  -3.3170  -2.5953  -2.2201  -1.7041  -1.6105  -1.6003  -1.5717
    -1.5494  -1.3925  -1.2555  -0.7549  -0.5309  -0.5120  -0.4889  -0.4574
    -0.3750  -0.2535  -0.0476   0.0539   0.2316   0.2868   0.3837   0.4674
     0.5038   0.5495   0.6265   0.7222   0.7755   0.9919   1.0835   1.5206
     1.5693   1.6236   1.8564   1.9379   2.1819   2.3913   2.5182   2.7188
     3.2050   3.4247   3.4862   3.5466   3.7096   3.7585   3.7650   3.8843
     3.9466

          k = 0.0772-0.0110 0.0000 ( 31301 PWs)   bands (ev):

   -78.2582 -78.2547 -78.0877 -78.0843 -78.0615 -78.0581 -55.1555 -55.1465
   -55.1313 -55.1223 -54.8483 -54.8388 -40.0518 -40.0460 -40.0443 -40.0362
   -40.0236 -39.9314 -39.8878 -39.8790 -39.8603 -39.8569 -39.8504 -39.8382
   -39.7752 -39.7653 -39.7633 -39.7606 -39.7503 -39.7463 -31.4776 -31.4671
   -31.4528 -31.4471 -31.3981 -31.3732 -31.3329 -31.3196 -31.3143 -31.3042
   -31.3018 -31.2817 -31.1352 -31.0853 -31.0744 -31.0685 -31.0636 -31.0422
    -4.2454  -3.1717  -2.7107  -2.1081  -1.9632  -1.6603  -1.6059  -1.6043
    -1.5775  -1.4842  -1.2078  -0.6581  -0.6538  -0.5523  -0.5299  -0.4688
    -0.1967  -0.1807  -0.0148   0.0201   0.1775   0.3821   0.4549   0.5433
     0.6933   0.7574   0.7750   0.8535   0.9632   1.0300   1.0369   1.6030
[...]
     2.9061   3.1637   3.2474   3.2764   3.3934   3.5290   3.5773   3.6719
     3.9293

          k = 0.0772 0.0217 0.0000 ( 31326 PWs)   bands (ev):

   -78.2594 -78.2535 -78.0890 -78.0831 -78.0628 -78.0568 -55.1591 -55.1434
   -55.1349 -55.1192 -54.8522 -54.8353 -40.0556 -40.0540 -40.0454 -40.0356
   -40.0328 -39.8967 -39.8941 -39.8857 -39.8779 -39.8681 -39.8582 -39.8494
   -39.7752 -39.7616 -39.7574 -39.7465 -39.7309 -39.7137 -31.4867 -31.4667
   -31.4523 -31.4422 -31.4350 -31.4092 -31.3442 -31.3249 -31.3217 -31.3050
   -31.2772 -31.2537 -31.1719 -31.0940 -31.0770 -31.0672 -31.0633 -31.0127
    -4.1880  -2.7627  -2.7548  -2.5123  -1.7304  -1.5960  -1.5827  -1.5469
    -1.4872  -1.4505  -1.0005  -0.8096  -0.7495  -0.5522  -0.4359  -0.3461
    -0.0480   0.0638   0.1084   0.2287   0.3323   0.4836   0.4954   0.7965
     0.8928   0.9690   1.0478   1.1798   1.2472   1.2569   1.3603   1.5314
     1.7166   1.7685   1.8066   1.9203   1.9835   2.2820   2.3091   2.6476
     2.6901   2.8397   3.0610   3.1616   3.2531   3.3487   3.5144   3.5816
     3.8970

          k = 0.0772 0.0381 0.0000 ( 31306 PWs)   bands (ev):

   -78.2597 -78.2532 -78.0893 -78.0828 -78.0631 -78.0565 -55.1602 -55.1427
   -55.1359 -55.1184 -54.8534 -54.8343 -40.0633 -40.0540 -40.0451 -40.0326
   -40.0303 -39.8969 -39.8932 -39.8868 -39.8794 -39.8757 -39.8562 -39.8476
   -39.7754 -39.7611 -39.7553 -39.7444 -39.7216 -39.7042 -31.4901 -31.4672
   -31.4518 -31.4483 -31.4386 -31.4206 -31.3513 -31.3290 -31.3262 -31.3074
   -31.2699 -31.2462 -31.1834 -31.0987 -31.0791 -31.0664 -31.0632 -31.0050
    -4.0440  -2.7262  -2.7047  -2.5825  -1.5532  -1.5398  -1.5172  -1.4804
    -1.3952  -1.3095  -0.9242  -0.7876  -0.7646  -0.4739  -0.3937  -0.2277
    -0.1654   0.1414   0.1583   0.3365   0.4604   0.4753   0.7005   0.8932
     1.0007   1.0020   1.0393   1.2829   1.3288   1.3629   1.4156   1.4917
     1.6243   1.7142   1.8007   1.8117   1.9056   2.1756   2.3507   2.5039
     2.5664   2.6846   2.9326   3.0408   3.1574   3.2545   3.3902   3.5934
     3.6594

          k = 0.0772 0.0545 0.0000 ( 31324 PWs)   bands (ev):

   -78.2598 -78.2531 -78.0894 -78.0826 -78.0632 -78.0564 -55.1606 -55.1424
   -55.1364 -55.1182 -54.8540 -54.8340 -40.0654 -40.0539 -40.0446 -40.0318
   -40.0273 -39.8987 -39.8953 -39.8833 -39.8812 -39.8777 -39.8542 -39.8461
   -39.7754 -39.7615 -39.7533 -39.7429 -39.7183 -39.7010 -31.4920 -31.4676
   -31.4535 -31.4514 -31.4377 -31.4258 -31.3565 -31.3322 -31.3294 -31.3091
   -31.2678 -31.2440 -31.1885 -31.1020 -31.0808 -31.0657 -31.0633 -31.0028
    -3.8372  -2.8894  -2.6325  -2.5090  -1.4874  -1.4441  -1.4107  -1.3841
    -1.2252  -1.1501  -0.9138  -0.7516  -0.7360  -0.3723  -0.3599  -0.3461
    -0.0761   0.2085   0.2117   0.2530   0.4639   0.5917   0.8827   0.9233
     0.9233   1.0920   1.1650   1.1949   1.2367   1.3166   1.4093   1.4639
     1.4980   1.5702   1.7746   1.9054   2.0045   2.0655   2.0900   2.3766
     2.6863   2.7156   2.8251   2.9888   3.0615   3.2165   3.2985   3.3626
     3.6091

          k = 0.0772-0.1257 0.0000 ( 31304 PWs)   bands (ev):

   -78.2597 -78.2532 -78.0893 -78.0827 -78.0631 -78.0565 -55.1604 -55.1428
   -55.1361 -55.1185 -54.8537 -54.8343 -40.0619 -40.0538 -40.0439 -40.0320
   -40.0261 -39.8992 -39.8917 -39.8864 -39.8828 -39.8742 -39.8524 -39.8455
   -39.7754 -39.7626 -39.7518 -39.7426 -39.7215 -39.7041 -31.4921 -31.4681
   -31.4517 -31.4511 -31.4376 -31.4239 -31.3584 -31.3338 -31.3302 -31.3098
   -31.2709 -31.2472 -31.1866 -31.1031 -31.0816 -31.0651 -31.0638 -31.0060
    -3.5890  -3.0062  -2.5875  -2.5402  -1.3946  -1.3645  -1.3177  -1.2726
    -1.0612  -1.0111  -0.9172  -0.7693  -0.7009  -0.6177  -0.3147  -0.2601
     0.0414   0.1258   0.2198   0.3275   0.4918   0.6048   0.7309   0.7777
     0.8332   0.9203   0.9936   1.1518   1.2731   1.2994   1.3336   1.4783
     1.5397   1.5561   1.7896   1.8587   1.8608   1.9030   2.2263   2.3190
     2.5425   2.6405   2.9097   3.0190   3.0644   3.2412   3.2653   3.4525
     3.4839

          k = 0.0772-0.1093 0.0000 ( 31322 PWs)   bands (ev):

   -78.2593 -78.2536 -78.0890 -78.0831 -78.0628 -78.0568 -55.1594 -55.1436
   -55.1352 -55.1194 -54.8528 -54.8352 -40.0539 -40.0529 -40.0432 -40.0330
   -40.0270 -39.8984 -39.8962 -39.8840 -39.8829 -39.8654 -39.8510 -39.8460
   -39.7752 -39.7644 -39.7508 -39.7438 -39.7309 -39.7137 -31.4904 -31.4683
   -31.4510 -31.4439 -31.4374 -31.4150 -31.3565 -31.3333 -31.3283 -31.3091
   -31.2789 -31.2553 -31.1774 -31.1016 -31.0812 -31.0646 -31.0645 -31.0143
    -3.3834  -3.0055  -2.7992  -2.4466  -1.3851  -1.2885  -1.2186  -1.1452
    -0.9928  -0.9796  -0.9061  -0.8436  -0.8326  -0.6631  -0.3214  -0.1869
     0.0792   0.1122   0.1858   0.2649   0.4457   0.5619   0.5681   0.5765
     0.6888   0.7761   0.7935   1.0292   1.0507   1.0630   1.2315   1.6066
     1.6433   1.6497   1.6841   1.7772   1.7939   1.8845   2.3192   2.3405
     2.4305   2.4987   3.0766   3.1491   3.2711   3.2764   3.4693   3.5364
     3.6104

          k = 0.0772-0.0929 0.0000 ( 31311 PWs)   bands (ev):

   -78.2588 -78.2541 -78.0884 -78.0836 -78.0622 -78.0574 -55.1579 -55.1450
   -55.1336 -55.1207 -54.8511 -54.8366 -40.0540 -40.0425 -40.0391 -40.0347
   -40.0300 -39.9117 -39.8963 -39.8842 -39.8695 -39.8523 -39.8503 -39.8472
   -39.7748 -39.7665 -39.7506 -39.7462 -39.7459 -39.7288 -31.4871 -31.4683
   -31.4510 -31.4423 -31.4254 -31.3999 -31.3515 -31.3309 -31.3241 -31.3073
   -31.2913 -31.2680 -31.1619 -31.0980 -31.0798 -31.0657 -31.0641 -31.0272
    -3.3638  -3.0927  -2.7567  -2.3708  -1.5585  -1.2161  -1.1825  -1.1194
    -1.0932  -1.0194  -0.9396  -0.8864  -0.8304  -0.5618  -0.3695  -0.1009
    -0.0327   0.1003   0.1177   0.1263   0.1475   0.3362   0.4646   0.5703
     0.6239   0.6502   0.8002   0.8174   0.8371   0.9979   1.1097   1.3317
     1.3787   1.6500   1.6954   1.8970   1.9256   1.9805   2.3374   2.4473
     2.5809   2.6682   3.1457   3.2642   3.3863   3.4337   3.5992   3.7473
     3.7753

          k = 0.0772-0.0765 0.0000 ( 31303 PWs)   bands (ev):

   -78.2581 -78.2548 -78.0877 -78.0843 -78.0615 -78.0581 -55.1559 -55.1467
   -55.1316 -55.1225 -54.8490 -54.8385 -40.0540 -40.0417 -40.0371 -40.0346
   -40.0208 -39.9317 -39.8932 -39.8841 -39.8544 -39.8502 -39.8481 -39.8342
   -39.7744 -39.7685 -39.7651 -39.7516 -39.7495 -39.7475 -31.4825 -31.4684
   -31.4511 -31.4449 -31.4050 -31.3800 -31.3446 -31.3273 -31.3193 -31.3070
   -31.3050 -31.2840 -31.1415 -31.0932 -31.0778 -31.0668 -31.0639 -31.0437
    -3.4138  -3.4060  -2.3966  -2.3251  -1.8510  -1.3109  -1.2811  -1.2590
    -1.0953  -1.0598  -0.9584  -0.8162  -0.7681  -0.4215  -0.3804  -0.3504
    -0.1637   0.0052   0.0121   0.0218   0.1007   0.2369   0.3985   0.4586
     0.4621   0.5102   0.6448   0.8073   0.8872   1.0442   1.0722   1.1379
     1.1769   1.4892   1.7104   2.0371   2.1099   2.1470   2.2356   2.6175
     2.8582   2.9760   3.2326   3.4194   3.5356   3.5494   3.5968   3.7206
     3.9017

          k = 0.0772-0.0602 0.0000 ( 31315 PWs)   bands (ev):

   -78.2573 -78.2556 -78.0869 -78.0852 -78.0607 -78.0589 -55.1535 -55.1487
   -55.1293 -55.1245 -54.8465 -54.8408 -40.0535 -40.0407 -40.0406 -40.0384
   -39.9998 -39.9547 -39.8894 -39.8839 -39.8546 -39.8507 -39.8307 -39.8139
   -39.7882 -39.7734 -39.7703 -39.7700 -39.7531 -39.7508 -31.4775 -31.4689
   -31.4511 -31.4480 -31.3816 -31.3574 -31.3404 -31.3247 -31.3235 -31.3156
   -31.3029 -31.2999 -31.1184 -31.0894 -31.0756 -31.0678 -31.0640 -31.0618
    -3.7168  -3.4270  -2.3044  -2.1523  -2.0273  -1.4510  -1.4292  -1.4102
    -1.1836  -1.1029  -0.9640  -0.8197  -0.7048  -0.6346  -0.3501  -0.3168
    -0.2242  -0.1066  -0.0815  -0.0076   0.1300   0.2790   0.2947   0.2988
     0.3773   0.4286   0.5758   0.7601   0.8526   0.9986   1.0072   1.2272
     1.3052   1.4164   1.7498   2.0246   2.2073   2.2723   2.3599   2.7044
     3.1140   3.2987   3.3419   3.5233   3.5604   3.5916   3.6598   3.7468
     3.9101

          k = 0.0772-0.0438 0.0000 ( 31290 PWs)   bands (ev):

   -78.2565 -78.2564 -78.0860 -78.0860 -78.0598 -78.0598 -55.1511 -55.1510
   -55.1268 -55.1268 -54.8438 -54.8432 -40.0520 -40.0452 -40.0409 -40.0394
   -39.9789 -39.9769 -39.8854 -39.8842 -39.8575 -39.8515 -39.8114 -39.8088
   -39.7948 -39.7920 -39.7716 -39.7702 -39.7561 -39.7511 -31.4727 -31.4704
   -31.4507 -31.4507 -31.3580 -31.3539 -31.3347 -31.3323 -31.3226 -31.3202
   -31.3035 -31.3010 -31.0965 -31.0945 -31.0743 -31.0724 -31.0684 -31.0637
    -3.9685  -3.4015  -2.4076  -2.2790  -1.7338  -1.5850  -1.5402  -1.5176
    -1.3101  -1.2137  -1.1789  -0.8966  -0.5949  -0.5625  -0.4531  -0.3362
    -0.2366  -0.1928  -0.1676   0.1099   0.1550   0.2105   0.3509   0.3654
     0.4079   0.4320   0.4863   0.7226   0.7607   0.9624   1.0789   1.4184
     1.4330   1.4608   1.8054   1.9829   2.2031   2.3770   2.4929   2.7254
     3.3198   3.3304   3.4528   3.4949   3.6221   3.7452   3.7562   3.9047
     3.9438

          k =-0.0926 0.0329 0.0000 ( 31310 PWs)   bands (ev):

   -78.2565 -78.2564 -78.0860 -78.0860 -78.0598 -78.0598 -55.1510 -55.1510
   -55.1268 -55.1268 -54.8436 -54.8435 -40.0488 -40.0487 -40.0403 -40.0402
   -39.9778 -39.9778 -39.8834 -39.8834 -39.8564 -39.8564 -39.8102 -39.8102
   -39.7935 -39.7935 -39.7692 -39.7692 -39.7545 -39.7545 -31.4713 -31.4713
   -31.4511 -31.4510 -31.3568 -31.3568 -31.3342 -31.3341 -31.3202 -31.3202
   -31.3020 -31.3019 -31.0967 -31.0967 -31.0722 -31.0722 -31.0660 -31.0660
    -3.7250  -3.7249  -2.3568  -2.3568  -1.5239  -1.5239  -1.5035  -1.5035
    -1.3827  -1.3827  -1.0730  -1.0730  -0.5415  -0.5414  -0.4667  -0.4667
    -0.1933  -0.1933  -0.0783  -0.0783   0.1773   0.1774   0.4738   0.4739
     0.4945   0.4945   0.5728   0.5728   0.8523   0.8523   1.4010   1.4011
     1.6264   1.6264   1.6452   1.6452   2.4026   2.4026   2.4403   2.4403
     3.2956   3.2956   3.3476   3.3476   3.7300   3.7301   3.8142   3.8142
     3.9581

          k =-0.0926 0.0493 0.0000 ( 31300 PWs)   bands (ev):

   -78.2573 -78.2556 -78.0869 -78.0852 -78.0607 -78.0589 -55.1534 -55.1487
   -55.1292 -55.1245 -54.8462 -54.8410 -40.0515 -40.0449 -40.0417 -40.0383
   -40.0009 -39.9542 -39.8866 -39.8813 -39.8562 -39.8556 -39.8323 -39.8157
   -39.7878 -39.7723 -39.7693 -39.7675 -39.7544 -39.7531 -31.4754 -31.4687
   -31.4519 -31.4490 -31.3794 -31.3553 -31.3402 -31.3217 -31.3209 -31.3160
   -31.3027 -31.2971 -31.1168 -31.0883 -31.0747 -31.0661 -31.0659 -31.0606
    -3.8249  -3.5537  -2.4527  -2.2016  -1.7336  -1.5029  -1.4936  -1.4802
    -1.4350  -1.2265  -1.1937  -0.8299  -0.6064  -0.5841  -0.4551  -0.3221
    -0.2869  -0.2634  -0.0699   0.0602   0.1659   0.2667   0.3575   0.4476
     0.5616   0.6192   0.6362   0.6746   0.8377   0.8393   1.3142   1.3991
     1.6078   1.6179   1.6564   1.7238   2.3712   2.3879   2.4027   2.4212
     3.1650   3.2551   3.3594   3.4697   3.5896   3.6301   3.6531   3.8631
     3.9236

          k =-0.0926 0.0656 0.0000 ( 31312 PWs)   bands (ev):

   -78.2581 -78.2548 -78.0877 -78.0843 -78.0615 -78.0581 -55.1557 -55.1466
   -55.1315 -55.1224 -54.8487 -54.8386 -40.0531 -40.0428 -40.0403 -40.0362
   -40.0217 -39.9316 -39.8904 -39.8806 -39.8563 -39.8554 -39.8499 -39.8359
   -39.7743 -39.7659 -39.7641 -39.7559 -39.7506 -39.7468 -31.4804 -31.4677
   -31.4520 -31.4460 -31.4023 -31.3774 -31.3396 -31.3233 -31.3182 -31.3054
   -31.3038 -31.2827 -31.1391 -31.0902 -31.0761 -31.0657 -31.0655 -31.0428
    -3.8523  -3.3221  -2.5019  -2.0906  -1.9872  -1.4432  -1.4312  -1.4208
    -1.3854  -1.2515  -1.1124  -0.7276  -0.6729  -0.4928  -0.4665  -0.4336
    -0.1569  -0.1058   0.0136   0.0530   0.1454   0.3670   0.3761   0.6170
     0.6223   0.6725   0.7532   0.7873   0.8905   0.9260   1.2031   1.3385
     1.5663   1.5862   1.7616   1.8054   2.2090   2.2901   2.3761   2.4374
     2.9593   3.1941   3.1989   3.4139   3.4219   3.4604   3.6488   3.7306
     3.7375

          k =-0.0926 0.0820 0.0000 ( 31296 PWs)   bands (ev):

   -78.2588 -78.2541 -78.0884 -78.0836 -78.0622 -78.0574 -55.1578 -55.1449
   -55.1335 -55.1206 -54.8509 -54.8367 -40.0538 -40.0435 -40.0409 -40.0350
   -40.0329 -39.9118 -39.8941 -39.8811 -39.8708 -39.8542 -39.8536 -39.8492
   -39.7745 -39.7645 -39.7540 -39.7475 -39.7456 -39.7286 -31.4853 -31.4676
   -31.4517 -31.4431 -31.4230 -31.3974 -31.3461 -31.3270 -31.3219 -31.3058
   -31.2904 -31.2671 -31.1595 -31.0949 -31.0780 -31.0654 -31.0649 -31.0264
    -3.8131  -3.0541  -2.5240  -2.4367  -1.7319  -1.3909  -1.3662  -1.3341
    -1.3082  -1.2704  -0.9931  -0.7673  -0.6898  -0.6090  -0.4257  -0.2644
    -0.0288   0.0884   0.0906   0.1112   0.1332   0.4215   0.5142   0.6521
     0.6781   0.7526   0.8756   0.9012   1.0959   1.1002   1.1475   1.3183
     1.5293   1.5501   1.8471   1.8996   1.9832   2.1636   2.3171   2.4757
     2.6927   2.8581   3.1408   3.2305   3.2648   3.4619   3.4677   3.5452
     3.9004

          k =-0.0926 0.0984 0.0000 ( 31331 PWs)   bands (ev):

   -78.2594 -78.2536 -78.0890 -78.0831 -78.0628 -78.0568 -55.1593 -55.1436
   -55.1351 -55.1193 -54.8526 -54.8352 -40.0539 -40.0536 -40.0438 -40.0332
   -40.0292 -39.8972 -39.8963 -39.8838 -39.8819 -39.8662 -39.8531 -39.8472
   -39.7751 -39.7634 -39.7527 -39.7447 -39.7309 -39.7137 -31.4894 -31.4679
   -31.4513 -31.4429 -31.4373 -31.4135 -31.3532 -31.3309 -31.3266 -31.3080
   -31.2784 -31.2549 -31.1760 -31.0996 -31.0800 -31.0652 -31.0643 -31.0139
    -3.7184  -2.7901  -2.7493  -2.5334  -1.4888  -1.3813  -1.3457  -1.2668
    -1.2326  -1.1586  -0.9047  -0.8012  -0.6676  -0.6490  -0.3754  -0.1538
    -0.1018   0.1658   0.2003   0.2029   0.4345   0.4453   0.5799   0.6823
     0.7718   0.8651   0.9105   1.0871   1.1164   1.2210   1.3198   1.4306
     1.5321   1.5827   1.7651   1.8358   1.9563   2.0155   2.3211   2.4109
     2.5443   2.5490   3.0665   3.1002   3.1187   3.3316   3.3823   3.4981
     3.7575

          k =-0.0926 0.1148 0.0000 ( 31304 PWs)   bands (ev):

   -78.2597 -78.2532 -78.0893 -78.0827 -78.0631 -78.0565 -55.1604 -55.1428
   -55.1361 -55.1185 -54.8537 -54.8343 -40.0619 -40.0538 -40.0439 -40.0320
   -40.0261 -39.8992 -39.8917 -39.8864 -39.8828 -39.8742 -39.8524 -39.8455
   -39.7754 -39.7626 -39.7518 -39.7426 -39.7215 -39.7041 -31.4921 -31.4681
   -31.4517 -31.4511 -31.4376 -31.4239 -31.3584 -31.3338 -31.3302 -31.3098
   -31.2709 -31.2472 -31.1866 -31.1031 -31.0816 -31.0651 -31.0638 -31.0060
    -3.5890  -3.0062  -2.5875  -2.5402  -1.3946  -1.3645  -1.3177  -1.2726
    -1.0612  -1.0111  -0.9172  -0.7693  -0.7009  -0.6177  -0.3147  -0.2601
     0.0414   0.1258   0.2198   0.3275   0.4918   0.6048   0.7309   0.7777
     0.8332   0.9203   0.9936   1.1518   1.2731   1.2994   1.3336   1.4783
     1.5397   1.5561   1.7896   1.8587   1.8608   1.9030   2.2263   2.3190
     2.5425   2.6405   2.9097   3.0190   3.0644   3.2412   3.2653   3.4525
     3.4839

          k =-0.0926-0.0654 0.0000 ( 31330 PWs)   bands (ev):

   -78.2598 -78.2531 -78.0894 -78.0826 -78.0632 -78.0564 -55.1607 -55.1425
   -55.1364 -55.1182 -54.8541 -54.8340 -40.0647 -40.0537 -40.0439 -40.0317
   -40.0249 -39.8999 -39.8945 -39.8832 -39.8831 -39.8769 -39.8521 -39.8449
   -39.7755 -39.7624 -39.7514 -39.7418 -39.7182 -39.7009 -31.4931 -31.4681
   -31.4553 -31.4510 -31.4372 -31.4276 -31.3602 -31.3349 -31.3315 -31.3105
   -31.2683 -31.2445 -31.1902 -31.1043 -31.0822 -31.0650 -31.0636 -31.0033
    -3.5030  -3.1342  -2.5429  -2.5096  -1.3980  -1.3397  -1.3090  -1.2783
    -0.9363  -0.9350  -0.9313  -0.7474  -0.7250  -0.6586  -0.2880  -0.2837
     0.0849   0.1034   0.2439   0.4005   0.4550   0.6779   0.7774   0.8069
     0.8121   1.0415   1.1712   1.1875   1.2300   1.3341   1.3364   1.4069
     1.4540   1.6050   1.7268   1.8022   1.8991   1.9318   2.2278   2.3300
     2.6962   2.7307   2.7452   2.9661   3.0288   3.2003   3.2290   3.2325
     3.2909

     the Fermi energy is     1.7371 ev

!    total energy              =   -1798.27958845 Ry
     estimated scf accuracy    <       0.00000830 Ry
     smearing contrib. (-TS)   =      -0.06586488 Ry
     internal energy E=F+TS    =   -1798.21372357 Ry

     The total energy is F=E-TS. E is the sum of the following terms:
     one-electron contribution =  -14523.54642437 Ry
     hartree contribution      =    7247.09635007 Ry
     xc contribution           =    -361.33452707 Ry
     ewald contribution        =    5839.57087749 Ry
     electric field correction =       0.00000032 Ry

     convergence has been achieved in  15 iterations

     negative rho (up, down):  6.942E-04 0.000E+00

     Forces acting on atoms (cartesian axes, Ry/au):

     atom    1 type  1   force =    -0.00048655   -0.00034598    0.00386911
     atom    2 type  1   force =    -0.00048624   -0.00034088    0.00386820
     atom    3 type  2   force =    -0.00015909   -0.00011617    0.01201969
     atom    4 type  2   force =    -0.00015622   -0.00010479    0.01202358
     atom    5 type  1   force =     0.00013836    0.00009754   -0.01022261
     atom    6 type  1   force =     0.00013924    0.00009844   -0.01022403
     atom    7 type  2   force =     0.00012714    0.00008713   -0.00803908
     atom    8 type  2   force =     0.00012346    0.00008695   -0.00804766
     atom    9 type  1   force =     0.00019233    0.00014270    0.00015093
     atom   10 type  1   force =     0.00020034    0.00013022    0.00015406
     atom   11 type  2   force =     0.00017873    0.00012892    0.00222284
     atom   12 type  2   force =     0.00018849    0.00013594    0.00222498

     Total force =     0.025854     Total SCF correction =     0.012669
     SCF correction compared to forces is large: reduce conv_thr to get better values

     Writing output data file ./Ti2Re2/Ti2Re2_beef.save/

     init_run     :     95.33s CPU     96.91s WALL (       1 calls)
     electrons    :   3321.01s CPU   3348.99s WALL (       1 calls)
     forces       :     60.43s CPU     60.99s WALL (       1 calls)

     Called by init_run:
     wfcinit      :     82.75s CPU     84.02s WALL (       1 calls)
     potinit      :      8.42s CPU      8.55s WALL (       1 calls)
     hinit0       :      2.02s CPU      2.05s WALL (       1 calls)

     Called by electrons:
     c_bands      :   2955.49s CPU   2976.74s WALL (      15 calls)
     sum_band     :    333.51s CPU    337.48s WALL (      15 calls)
     v_of_rho     :     24.63s CPU     25.82s WALL (      16 calls)
     newd         :     14.61s CPU     16.24s WALL (      16 calls)
     mix_rho      :      0.54s CPU      0.56s WALL (      15 calls)
     vdW_kernel   :      6.09s CPU      6.14s WALL (       1 calls)

     Called by c_bands:
     init_us_2    :      8.79s CPU      8.89s WALL (    2368 calls)
     cegterg      :   2916.52s CPU   2935.96s WALL (    1110 calls)

     Called by *egterg:
     cdiaghg      :    195.60s CPU    196.11s WALL (    7106 calls)
     h_psi        :   1308.09s CPU   1321.12s WALL (    7180 calls)
     s_psi        :    271.15s CPU    272.72s WALL (    7180 calls)
     g_psi        :      1.38s CPU      1.40s WALL (    5996 calls)

     Called by h_psi:
     h_psi:calbec :    505.87s CPU    508.89s WALL (    7180 calls)
     vloc_psi     :    503.25s CPU    511.61s WALL (    7180 calls)
     add_vuspsi   :    295.07s CPU    296.72s WALL (    7180 calls)

     General routines
     calbec       :    760.80s CPU    765.28s WALL (    8586 calls)
     fft          :     16.11s CPU     16.75s WALL (    1067 calls)
     ffts         :      0.09s CPU      0.10s WALL (      31 calls)
     fftw         :    575.83s CPU    585.13s WALL (  642970 calls)
     interpolate  :      0.28s CPU      0.30s WALL (      16 calls)

     Parallel routines
     fft_scatt_xy :     45.55s CPU     46.18s WALL (  644068 calls)
     fft_scatt_yz :    186.25s CPU    190.52s WALL (  644068 calls)

     PWSCF        :  58m 8.40s CPU  58m58.03s WALL


   This run was terminated on:  13:41: 6  25Jun2022            

=------------------------------------------------------------------------------=
   JOB DONE.
=------------------------------------------------------------------------------=
