
     Program PWSCF v.6.6 starts on 25Jun2022 at 13:41: 8 

     This program is part of the open-source Quantum ESPRESSO suite
     for quantum simulation of materials; please cite
         "P. Giannozzi et al., J. Phys.:Condens. Matter 21 395502 (2009);
         "P. Giannozzi et al., J. Phys.:Condens. Matter 29 465901 (2017);
          URL http://www.quantum-espresso.org", 
     in publications or presentations arising from this work. More details at
     http://www.quantum-espresso.org/quote

     Parallel version (MPI), running on    37 processors

     MPI processes distributed on     1 nodes
     R & G space division:  proc/nbgrp/npool/nimage =      37
     Fft bands division:     nmany     =       1
     Reading input from Ti2Rh2.in
Warning: card &CELL ignored
Warning: card / ignored

     Current dimensions of program PWSCF are:
     Max number of different atomic species (ntypx) = 10
     Max number of k-points (npk) =  40000
     Max angular momentum in pseudopotentials (lmaxx) =  3
     Presently stress not available with electric field and gates

     Message from routine cell_base_init:
     DEPRECATED: use true lattice parameter, not A to a.u. conversion factor
     file Ti.pbe-spn-rrkjus_psl.1.0.0.UPF: wavefunction(s)  3S 3D renormalized
     file Rh.pbe-spn-rrkjus_psl.1.0.0.UPF: wavefunction(s)  4S 5S renormalized

     **************************************************************************
     Initializing libbeef V0.1.2 with the BEEF-vdW functional.
     Citation: Wellendorff et al., PRB 85, 235149 (2012).
     **************************************************************************


     IMPORTANT: XC functional enforced from input :
     Exchange-correlation= BEEF-VDW
                           (   1   4  43  14   2   0   0)
     Any further DFT definition will be discarded
     Please, verify this is what you really want


     Subspace diagonalization in iterative solution of the eigenvalue problem:
     a serial algorithm will be used

     Found symmetry operation: I + (  0.5000 -0.5000  0.0000)
     This is a supercell, fractional translations are disabled

     Parallelization info
     --------------------
     sticks:   dense  smooth     PW     G-vecs:    dense   smooth      PW
     Min         114      45     12                26314     6647     998
     Max         115      46     13                26329     6668    1027
     Sum        4225    1691    479               973729   246373   37567



     bravais-lattice index     =            0
     lattice parameter (alat)  =       1.8897  a.u.
     unit-cell volume          =    4456.4331 (a.u.)^3
     number of atoms/cell      =           12
     number of atomic types    =            2
     number of electrons       =       174.00
     number of Kohn-Sham states=          104
     kinetic-energy cutoff     =      55.1240  Ry
     charge density cutoff     =     551.2396  Ry
     convergence threshold     =      1.0E-05
     mixing beta               =       0.1000
     number of iterations used =           10  plain     mixing
     Exchange-correlation= BEEF-VDW
                           (   1   4  43  14   2   0   0)

     celldm(1)=   1.889726  celldm(2)=   0.000000  celldm(3)=   0.000000
     celldm(4)=   0.000000  celldm(5)=   0.000000  celldm(6)=   0.000000

     crystal axes: (cart. coord. in units of alat)
               a(1) = (   5.414367   0.000000   0.000000 )  
               a(2) = (   2.119659   4.982209   0.000000 )  
               a(3) = (   0.000000   0.000000  24.480554 )  

     reciprocal axes: (cart. coord. in units 2 pi/alat)
               b(1) = (  0.184694 -0.078577  0.000000 )  
               b(2) = (  0.000000  0.200714  0.000000 )  
               b(3) = (  0.000000  0.000000  0.040849 )  


     PseudoPot. # 1 for Ti read from file:
     ../pseudo/Ti.pbe-spn-rrkjus_psl.1.0.0.UPF
     MD5 check sum: e281089c08e14b8efcf92e44a67ada65
     Pseudo is Ultrasoft + core correction, Zval = 12.0
     Generated using "atomic" code by A. Dal Corso v.6.2.2
     Using radial grid of 1177 points,  6 beta functions with: 
                l(1) =   0
                l(2) =   0
                l(3) =   1
                l(4) =   1
                l(5) =   2
                l(6) =   2
     Q(r) pseudized with 0 coefficients 


     PseudoPot. # 2 for Rh read from file:
     ../pseudo/Rh.pbe-spn-rrkjus_psl.1.0.0.UPF
     MD5 check sum: 912a852783f0c9b7bd5e9eb06cc0cc10
     Pseudo is Ultrasoft + core correction, Zval = 17.0
     Generated using "atomic" code by A. Dal Corso v.6.3
     Using radial grid of 1233 points,  6 beta functions with: 
                l(1) =   0
                l(2) =   0
                l(3) =   1
                l(4) =   1
                l(5) =   2
                l(6) =   2
     Q(r) pseudized with 0 coefficients 


     atomic species   valence    mass     pseudopotential
        Ti            12.00    47.86700     Ti( 1.00)
        Rh            17.00   102.90550     Rh( 1.00)

     No symmetry found



   Cartesian axes

     site n.     atom                  positions (alat units)
         1           Ti  tau(   1) = (   0.0000000   0.0000000  10.0000000  )
         2           Ti  tau(   2) = (   3.7670130   2.4911047  10.0000000  )
         3           Rh  tau(   3) = (   2.7071833   0.0000000  10.0000000  )
         4           Rh  tau(   4) = (   1.0598297   2.4911047  10.0000000  )
         5           Ti  tau(   5) = (   5.4143666   3.5804904  12.2402770  )
         6           Ti  tau(   6) = (   1.6473536   1.0893857  12.2402770  )
         7           Rh  tau(   7) = (   2.7071833   3.5804904  12.2402770  )
         8           Rh  tau(   8) = (   4.3545369   1.0893857  12.2402770  )
         9           Ti  tau(   9) = (   3.5430600   2.3429995  14.4948262  )
        10           Ti  tau(  10) = (   7.3100875   4.8341251  14.4948321  )
        11           Rh  tau(  11) = (   6.2608089   2.3499726  14.2941865  )
        12           Rh  tau(  12) = (   4.6134313   4.8411027  14.2941826  )

     number of k points=    74  Fermi-Dirac smearing, width (Ry)=  0.0100
                       cart. coord. in units 2pi/alat
        k(    1) = (   0.0000000   0.0000000   0.0000000), wk =   0.0138889
        k(    2) = (   0.0000000   0.0167262   0.0000000), wk =   0.0277778
        k(    3) = (   0.0000000   0.0334524   0.0000000), wk =   0.0277778
        k(    4) = (   0.0000000   0.0501785   0.0000000), wk =   0.0277778
        k(    5) = (   0.0000000   0.0669047   0.0000000), wk =   0.0277778
        k(    6) = (   0.0000000   0.0836309   0.0000000), wk =   0.0277778
        k(    7) = (   0.0000000  -0.1003571   0.0000000), wk =   0.0138889
        k(    8) = (   0.0153911  -0.0065481   0.0000000), wk =   0.0277778
        k(    9) = (   0.0153911   0.0101781   0.0000000), wk =   0.0277778
        k(   10) = (   0.0153911   0.0269043   0.0000000), wk =   0.0277778
        k(   11) = (   0.0153911   0.0436304   0.0000000), wk =   0.0277778
        k(   12) = (   0.0153911   0.0603566   0.0000000), wk =   0.0277778
        k(   13) = (   0.0153911   0.0770828   0.0000000), wk =   0.0277778
        k(   14) = (   0.0153911  -0.1069052   0.0000000), wk =   0.0277778
        k(   15) = (   0.0153911  -0.0901790   0.0000000), wk =   0.0277778
        k(   16) = (   0.0153911  -0.0734528   0.0000000), wk =   0.0277778
        k(   17) = (   0.0153911  -0.0567266   0.0000000), wk =   0.0277778
        k(   18) = (   0.0153911  -0.0400005   0.0000000), wk =   0.0277778
        k(   19) = (   0.0153911  -0.0232743   0.0000000), wk =   0.0277778
        k(   20) = (   0.0307823  -0.0130962   0.0000000), wk =   0.0277778
        k(   21) = (   0.0307823   0.0036300   0.0000000), wk =   0.0277778
        k(   22) = (   0.0307823   0.0203562   0.0000000), wk =   0.0277778
        k(   23) = (   0.0307823   0.0370824   0.0000000), wk =   0.0277778
        k(   24) = (   0.0307823   0.0538085   0.0000000), wk =   0.0277778
        k(   25) = (   0.0307823   0.0705347   0.0000000), wk =   0.0277778
        k(   26) = (   0.0307823  -0.1134533   0.0000000), wk =   0.0277778
        k(   27) = (   0.0307823  -0.0967271   0.0000000), wk =   0.0277778
        k(   28) = (   0.0307823  -0.0800009   0.0000000), wk =   0.0277778
        k(   29) = (   0.0307823  -0.0632747   0.0000000), wk =   0.0277778
        k(   30) = (   0.0307823  -0.0465486   0.0000000), wk =   0.0277778
        k(   31) = (   0.0307823  -0.0298224   0.0000000), wk =   0.0277778
        k(   32) = (   0.0461734  -0.0196443   0.0000000), wk =   0.0277778
        k(   33) = (   0.0461734  -0.0029181   0.0000000), wk =   0.0277778
        k(   34) = (   0.0461734   0.0138081   0.0000000), wk =   0.0277778
        k(   35) = (   0.0461734   0.0305343   0.0000000), wk =   0.0277778
        k(   36) = (   0.0461734   0.0472604   0.0000000), wk =   0.0277778
        k(   37) = (   0.0461734   0.0639866   0.0000000), wk =   0.0277778
        k(   38) = (   0.0461734  -0.1200014   0.0000000), wk =   0.0277778
        k(   39) = (   0.0461734  -0.1032752   0.0000000), wk =   0.0277778
        k(   40) = (   0.0461734  -0.0865490   0.0000000), wk =   0.0277778
        k(   41) = (   0.0461734  -0.0698228   0.0000000), wk =   0.0277778
        k(   42) = (   0.0461734  -0.0530967   0.0000000), wk =   0.0277778
        k(   43) = (   0.0461734  -0.0363705   0.0000000), wk =   0.0277778
        k(   44) = (   0.0615646  -0.0261924   0.0000000), wk =   0.0277778
        k(   45) = (   0.0615646  -0.0094662   0.0000000), wk =   0.0277778
        k(   46) = (   0.0615646   0.0072600   0.0000000), wk =   0.0277778
        k(   47) = (   0.0615646   0.0239862   0.0000000), wk =   0.0277778
        k(   48) = (   0.0615646   0.0407123   0.0000000), wk =   0.0277778
        k(   49) = (   0.0615646   0.0574385   0.0000000), wk =   0.0277778
        k(   50) = (   0.0615646  -0.1265495   0.0000000), wk =   0.0277778
        k(   51) = (   0.0615646  -0.1098233   0.0000000), wk =   0.0277778
        k(   52) = (   0.0615646  -0.0930971   0.0000000), wk =   0.0277778
        k(   53) = (   0.0615646  -0.0763709   0.0000000), wk =   0.0277778
        k(   54) = (   0.0615646  -0.0596448   0.0000000), wk =   0.0277778
        k(   55) = (   0.0615646  -0.0429186   0.0000000), wk =   0.0277778
        k(   56) = (   0.0769557  -0.0327405   0.0000000), wk =   0.0277778
        k(   57) = (   0.0769557  -0.0160143   0.0000000), wk =   0.0277778
        k(   58) = (   0.0769557   0.0007119   0.0000000), wk =   0.0277778
        k(   59) = (   0.0769557   0.0174381   0.0000000), wk =   0.0277778
        k(   60) = (   0.0769557   0.0341642   0.0000000), wk =   0.0277778
        k(   61) = (   0.0769557   0.0508904   0.0000000), wk =   0.0277778
        k(   62) = (   0.0769557  -0.1330976   0.0000000), wk =   0.0277778
        k(   63) = (   0.0769557  -0.1163714   0.0000000), wk =   0.0277778
        k(   64) = (   0.0769557  -0.0996452   0.0000000), wk =   0.0277778
        k(   65) = (   0.0769557  -0.0829190   0.0000000), wk =   0.0277778
        k(   66) = (   0.0769557  -0.0661928   0.0000000), wk =   0.0277778
        k(   67) = (   0.0769557  -0.0494667   0.0000000), wk =   0.0277778
        k(   68) = (  -0.0923469   0.0392886   0.0000000), wk =   0.0138889
        k(   69) = (  -0.0923469   0.0560148   0.0000000), wk =   0.0277778
        k(   70) = (  -0.0923469   0.0727409   0.0000000), wk =   0.0277778
        k(   71) = (  -0.0923469   0.0894671   0.0000000), wk =   0.0277778
        k(   72) = (  -0.0923469   0.1061933   0.0000000), wk =   0.0277778
        k(   73) = (  -0.0923469   0.1229195   0.0000000), wk =   0.0277778
        k(   74) = (  -0.0923469  -0.0610685   0.0000000), wk =   0.0138889

     Dense  grid:   973729 G-vectors     FFT dimensions: (  80,  80, 360)

     Smooth grid:   246373 G-vectors     FFT dimensions: (  50,  50, 225)

     Estimated max dynamical RAM per process >     204.47 MB

     Estimated total dynamical RAM >       7.39 GB

     Check: negative core charge=   -0.000001

     Initial potential from superposition of free atoms

     starting charge  173.98819, renormalised to  174.00000

     negative rho (up, down):  1.340E-03 0.000E+00


     %%%%%%%%%%%%%%%%%%%%%%%%%%%%%%%%%%%%%%%%%%%%%%%%%%%%%%%%%%%%%%%%%%%%%%%%
     %                                                                      %
     % You are using vdW-DF, which was implemented by the Thonhauser group. %
     % Please cite the following two papers that made this development      %
     % possible and the two reviews that describe the various versions:     %
     %                                                                      %
     %   T. Thonhauser et al., PRL 115, 136402 (2015).                      %
     %   T. Thonhauser et al., PRB 76, 125112 (2007).                       %
     %   K. Berland et al., Rep. Prog. Phys. 78, 066501 (2015).             %
     %   D.C. Langreth et al., J. Phys.: Condens. Matter 21, 084203 (2009). %
     %                                                                      %
     %                                                                      %
     % If you are calculating the stress with vdW-DF, please also cite:     %
     %                                                                      %
     %   R. Sabatini et al., J. Phys.: Condens. Matter 24, 424209 (2012).   %
     %                                                                      %
     %%%%%%%%%%%%%%%%%%%%%%%%%%%%%%%%%%%%%%%%%%%%%%%%%%%%%%%%%%%%%%%%%%%%%%%%



     Adding external electric field

     Computed dipole along edir(3) : 
        Dipole                0.0005 Ry au,          0.0013 Debye
        Dipole field          0.0000 Ry au, 

        Potential amp.       -0.0001 Ry
        Total length         45.1050 bohr

     Starting wfcs are  120 randomized atomic wfcs

     total cpu time spent up to now is       92.6 secs

     Self-consistent Calculation

     iteration #  1     ecut=    55.12 Ry     beta= 0.10
     Davidson diagonalization with overlap
     ethr =  1.00E-02,  avg # of iterations =  2.7

     negative rho (up, down):  1.308E-03 0.000E+00

     Adding external electric field

     Computed dipole along edir(3) : 
        Dipole                0.1242 Ry au,          0.3157 Debye
        Dipole field          0.0004 Ry au, 

        Potential amp.       -0.0316 Ry
        Total length         45.1050 bohr


     total cpu time spent up to now is      335.0 secs

     total energy              =   -2087.07807312 Ry
     estimated scf accuracy    <       9.96525346 Ry

     iteration #  2     ecut=    55.12 Ry     beta= 0.10
     Davidson diagonalization with overlap
     ethr =  5.73E-03,  avg # of iterations =  1.7

     negative rho (up, down):  1.268E-03 0.000E+00

     Adding external electric field

     Computed dipole along edir(3) : 
        Dipole               -0.3482 Ry au,         -0.8849 Debye
        Dipole field         -0.0010 Ry au, 

        Potential amp.        0.0886 Ry
        Total length         45.1050 bohr


     total cpu time spent up to now is      525.2 secs

     total energy              =   -2087.57451764 Ry
     estimated scf accuracy    <       2.21213994 Ry

     iteration #  3     ecut=    55.12 Ry     beta= 0.10
     Davidson diagonalization with overlap
     ethr =  1.27E-03,  avg # of iterations =  5.5

     negative rho (up, down):  1.334E-03 0.000E+00

     Adding external electric field

     Computed dipole along edir(3) : 
        Dipole                0.2155 Ry au,          0.5477 Debye
        Dipole field          0.0006 Ry au, 

        Potential amp.       -0.0548 Ry
        Total length         45.1050 bohr


     total cpu time spent up to now is      734.5 secs

     total energy              =   -2087.46140337 Ry
     estimated scf accuracy    <      13.51847754 Ry

     iteration #  4     ecut=    55.12 Ry     beta= 0.10
     Davidson diagonalization with overlap
     ethr =  1.27E-03,  avg # of iterations =  1.3

     negative rho (up, down):  1.296E-03 0.000E+00

     Adding external electric field

     Computed dipole along edir(3) : 
        Dipole                0.0574 Ry au,          0.1460 Debye
        Dipole field          0.0002 Ry au, 

        Potential amp.       -0.0146 Ry
        Total length         45.1050 bohr


     total cpu time spent up to now is      906.6 secs

     total energy              =   -2087.67160447 Ry
     estimated scf accuracy    <       1.95656671 Ry

     iteration #  5     ecut=    55.12 Ry     beta= 0.10
     Davidson diagonalization with overlap
     ethr =  1.12E-03,  avg # of iterations =  1.0

     negative rho (up, down):  1.276E-03 0.000E+00

     Adding external electric field

     Computed dipole along edir(3) : 
        Dipole                0.0701 Ry au,          0.1782 Debye
        Dipole field          0.0002 Ry au, 

        Potential amp.       -0.0178 Ry
        Total length         45.1050 bohr


     total cpu time spent up to now is     1075.8 secs

     total energy              =   -2087.69326531 Ry
     estimated scf accuracy    <       0.15464070 Ry

     iteration #  6     ecut=    55.12 Ry     beta= 0.10
     Davidson diagonalization with overlap
     ethr =  8.89E-05,  avg # of iterations =  8.6

     negative rho (up, down):  1.437E-03 0.000E+00

     Adding external electric field

     Computed dipole along edir(3) : 
        Dipole                0.0586 Ry au,          0.1489 Debye
        Dipole field          0.0002 Ry au, 

        Potential amp.       -0.0149 Ry
        Total length         45.1050 bohr


     total cpu time spent up to now is     1374.4 secs

     total energy              =   -2087.69976622 Ry
     estimated scf accuracy    <       0.08551633 Ry

     iteration #  7     ecut=    55.12 Ry     beta= 0.10
     Davidson diagonalization with overlap
     ethr =  4.91E-05,  avg # of iterations =  5.0

     negative rho (up, down):  1.326E-03 0.000E+00

     Adding external electric field

     Computed dipole along edir(3) : 
        Dipole                0.0597 Ry au,          0.1517 Debye
        Dipole field          0.0002 Ry au, 

        Potential amp.       -0.0152 Ry
        Total length         45.1050 bohr


     total cpu time spent up to now is     1620.6 secs

     total energy              =   -2087.72173524 Ry
     estimated scf accuracy    <       0.13312312 Ry

     iteration #  8     ecut=    55.12 Ry     beta= 0.10
     Davidson diagonalization with overlap
     ethr =  4.91E-05,  avg # of iterations =  1.0

     negative rho (up, down):  1.515E-03 0.000E+00

     Adding external electric field

     Computed dipole along edir(3) : 
        Dipole                0.0655 Ry au,          0.1665 Debye
        Dipole field          0.0002 Ry au, 

        Potential amp.       -0.0167 Ry
        Total length         45.1050 bohr


     total cpu time spent up to now is     1787.5 secs

     total energy              =   -2087.68561472 Ry
     estimated scf accuracy    <       0.12400834 Ry

     iteration #  9     ecut=    55.12 Ry     beta= 0.10
     Davidson diagonalization with overlap
     ethr =  4.91E-05,  avg # of iterations =  4.6

     negative rho (up, down):  3.037E-03 0.000E+00

     Adding external electric field

     Computed dipole along edir(3) : 
        Dipole                0.0761 Ry au,          0.1935 Debye
        Dipole field          0.0002 Ry au, 

        Potential amp.       -0.0194 Ry
        Total length         45.1050 bohr


     total cpu time spent up to now is     2023.7 secs

     total energy              =   -2087.71124481 Ry
     estimated scf accuracy    <       0.08919731 Ry

     iteration # 10     ecut=    55.12 Ry     beta= 0.10
     Davidson diagonalization with overlap
     ethr =  4.91E-05,  avg # of iterations =  1.6

     negative rho (up, down):  2.756E-03 0.000E+00

     Adding external electric field

     Computed dipole along edir(3) : 
        Dipole                0.0747 Ry au,          0.1898 Debye
        Dipole field          0.0002 Ry au, 

        Potential amp.       -0.0190 Ry
        Total length         45.1050 bohr


     total cpu time spent up to now is     2210.9 secs

     total energy              =   -2087.70876201 Ry
     estimated scf accuracy    <       0.04371440 Ry

     iteration # 11     ecut=    55.12 Ry     beta= 0.10
     Davidson diagonalization with overlap
     ethr =  2.51E-05,  avg # of iterations =  1.7

     negative rho (up, down):  2.787E-03 0.000E+00

     Adding external electric field

     Computed dipole along edir(3) : 
        Dipole                0.0723 Ry au,          0.1837 Debye
        Dipole field          0.0002 Ry au, 

        Potential amp.       -0.0184 Ry
        Total length         45.1050 bohr


     total cpu time spent up to now is     2399.2 secs

     total energy              =   -2087.70869818 Ry
     estimated scf accuracy    <       0.00816883 Ry

     iteration # 12     ecut=    55.12 Ry     beta= 0.10
     Davidson diagonalization with overlap
     c_bands:  1 eigenvalues not converged
     c_bands:  1 eigenvalues not converged
     c_bands:  1 eigenvalues not converged
     c_bands:  1 eigenvalues not converged
     ethr =  4.69E-06,  avg # of iterations =  8.9

     negative rho (up, down):  2.726E-03 0.000E+00

     Adding external electric field

     Computed dipole along edir(3) : 
        Dipole                0.0695 Ry au,          0.1766 Debye
        Dipole field          0.0002 Ry au, 

        Potential amp.       -0.0177 Ry
        Total length         45.1050 bohr


     total cpu time spent up to now is     2658.4 secs

     total energy              =   -2087.71044301 Ry
     estimated scf accuracy    <       0.00190696 Ry

     iteration # 13     ecut=    55.12 Ry     beta= 0.10
     Davidson diagonalization with overlap
     c_bands:  1 eigenvalues not converged
     c_bands:  2 eigenvalues not converged
     c_bands:  1 eigenvalues not converged
     ethr =  1.10E-06,  avg # of iterations =  7.2

     negative rho (up, down):  2.722E-03 0.000E+00

     Adding external electric field

     Computed dipole along edir(3) : 
        Dipole                0.0672 Ry au,          0.1708 Debye
        Dipole field          0.0002 Ry au, 

        Potential amp.       -0.0171 Ry
        Total length         45.1050 bohr


     total cpu time spent up to now is     2885.3 secs

     total energy              =   -2087.71055121 Ry
     estimated scf accuracy    <       0.00249507 Ry

     iteration # 14     ecut=    55.12 Ry     beta= 0.10
     Davidson diagonalization with overlap
     ethr =  1.10E-06,  avg # of iterations =  1.2

     negative rho (up, down):  2.752E-03 0.000E+00

     Adding external electric field

     Computed dipole along edir(3) : 
        Dipole                0.0668 Ry au,          0.1698 Debye
        Dipole field          0.0002 Ry au, 

        Potential amp.       -0.0170 Ry
        Total length         45.1050 bohr


     total cpu time spent up to now is     3053.3 secs

     total energy              =   -2087.71019514 Ry
     estimated scf accuracy    <       0.00218519 Ry

     iteration # 15     ecut=    55.12 Ry     beta= 0.10
     Davidson diagonalization with overlap
     ethr =  1.10E-06,  avg # of iterations =  2.1

     negative rho (up, down):  2.527E-03 0.000E+00

     Adding external electric field

     Computed dipole along edir(3) : 
        Dipole                0.0668 Ry au,          0.1699 Debye
        Dipole field          0.0002 Ry au, 

        Potential amp.       -0.0170 Ry
        Total length         45.1050 bohr


     total cpu time spent up to now is     3254.5 secs

     total energy              =   -2087.71032076 Ry
     estimated scf accuracy    <       0.00014638 Ry

     iteration # 16     ecut=    55.12 Ry     beta= 0.10
     Davidson diagonalization with overlap
     ethr =  8.41E-08,  avg # of iterations =  6.7

     negative rho (up, down):  2.326E-03 0.000E+00

     Adding external electric field

     Computed dipole along edir(3) : 
        Dipole                0.0672 Ry au,          0.1708 Debye
        Dipole field          0.0002 Ry au, 

        Potential amp.       -0.0171 Ry
        Total length         45.1050 bohr


     total cpu time spent up to now is     3546.1 secs

     total energy              =   -2087.71034637 Ry
     estimated scf accuracy    <       0.00003967 Ry

     iteration # 17     ecut=    55.12 Ry     beta= 0.10
     Davidson diagonalization with overlap
     ethr =  2.28E-08,  avg # of iterations =  1.9

     negative rho (up, down):  2.201E-03 0.000E+00

     Adding external electric field

     Computed dipole along edir(3) : 
        Dipole                0.0685 Ry au,          0.1741 Debye
        Dipole field          0.0002 Ry au, 

        Potential amp.       -0.0174 Ry
        Total length         45.1050 bohr


     total cpu time spent up to now is     3735.4 secs

     total energy              =   -2087.71033568 Ry
     estimated scf accuracy    <       0.00001622 Ry

     iteration # 18     ecut=    55.12 Ry     beta= 0.10
     Davidson diagonalization with overlap
     ethr =  9.32E-09,  avg # of iterations =  6.4

     negative rho (up, down):  2.091E-03 0.000E+00

     Adding external electric field

     Computed dipole along edir(3) : 
        Dipole                0.0678 Ry au,          0.1723 Debye
        Dipole field          0.0002 Ry au, 

        Potential amp.       -0.0172 Ry
        Total length         45.1050 bohr


     total cpu time spent up to now is     4026.8 secs

     total energy              =   -2087.71032739 Ry
     estimated scf accuracy    <       0.00005170 Ry

     iteration # 19     ecut=    55.12 Ry     beta= 0.10
     Davidson diagonalization with overlap
     ethr =  9.32E-09,  avg # of iterations =  6.0

     negative rho (up, down):  1.313E-03 0.000E+00

     Adding external electric field

     Computed dipole along edir(3) : 
        Dipole                0.0691 Ry au,          0.1756 Debye
        Dipole field          0.0002 Ry au, 

        Potential amp.       -0.0176 Ry
        Total length         45.1050 bohr


     total cpu time spent up to now is     4291.1 secs

     End of self-consistent calculation

          k = 0.0000 0.0000 0.0000 ( 30725 PWs)   bands (ev):

   -77.2783 -77.2689 -76.9046 -76.8953 -76.6904 -76.6812 -56.0217 -55.9933
   -55.9767 -55.9475 -55.9391 -55.9114 -45.2288 -45.1512 -45.1408 -45.1198
   -45.1065 -45.0979 -44.8496 -44.8120 -44.7984 -44.7327 -44.7215 -44.7184
   -44.6539 -44.6402 -44.6209 -44.4912 -44.4680 -44.4562 -32.3421 -32.3191
   -32.2986 -32.2925 -32.2740 -32.2437 -32.2125 -32.2029 -32.1775 -32.1585
   -32.1338 -32.1181 -32.1073 -32.0829 -32.0506 -32.0352 -31.9889 -31.9578
    -4.7133  -3.1685  -2.9663  -2.9596  -2.9372  -2.9102  -2.7591  -2.6345
    -2.5783  -2.4472  -2.1803  -2.0662  -1.8454  -1.7253  -1.5180  -1.4584
    -1.2749  -1.2195  -1.1389  -1.1372  -0.8877  -0.8657  -0.4832  -0.4601
    -0.3587  -0.3039  -0.2209   0.0566   0.3228   0.4955   0.5350   0.8021
     0.8969   1.2594   1.9371   2.0346   2.0806   2.0911   2.1658   2.2030
     2.2379   2.3143   2.3582   2.5710   2.5829   2.6323   2.7452   2.8002
     2.8493   2.8538   3.1097   3.2980   3.3854   3.3874   3.4286   3.5076

          k = 0.0000 0.0167 0.0000 ( 30750 PWs)   bands (ev):

   -77.2781 -77.2691 -76.9045 -76.8955 -76.6903 -76.6814 -56.0212 -55.9938
   -55.9762 -55.9480 -55.9386 -55.9119 -45.2266 -45.1510 -45.1410 -45.1194
   -45.1065 -45.1001 -44.8473 -44.8116 -44.7985 -44.7326 -44.7217 -44.7206
   -44.6535 -44.6403 -44.6187 -44.4934 -44.4678 -44.4564 -32.3418 -32.3196
   -32.2983 -32.2885 -32.2746 -32.2396 -32.2085 -32.2027 -32.1781 -32.1590
   -32.1352 -32.1179 -32.1075 -32.0824 -32.0511 -32.0399 -31.9935 -31.9625
    -4.6618  -3.1223  -2.9412  -2.9182  -2.9017  -2.8824  -2.7351  -2.6209
    -2.5443  -2.4311  -2.1505  -2.0298  -1.8393  -1.7043  -1.4952  -1.4355
    -1.2814  -1.2045  -1.1363  -1.1112  -0.9126  -0.8628  -0.4949  -0.4602
    -0.3880  -0.3506  -0.2125   0.0657   0.3124   0.4616   0.4855   0.8090
     0.8484   1.1261   1.8083   1.9427   2.0303   2.0383   2.1317   2.1815
     2.2430   2.2974   2.3168   2.5277   2.5917   2.6651   2.7314   2.8322
     2.8433   2.8828   3.1343   3.1607   3.3181   3.3839   3.3899   3.4527

          k = 0.0000 0.0335 0.0000 ( 30733 PWs)   bands (ev):

   -77.2776 -77.2695 -76.9040 -76.8959 -76.6898 -76.6818 -56.0199 -55.9953
   -55.9748 -55.9496 -55.9373 -55.9134 -45.2199 -45.1504 -45.1415 -45.1184
   -45.1068 -45.1065 -44.8407 -44.8106 -44.7988 -44.7321 -44.7270 -44.7223
   -44.6524 -44.6406 -44.6121 -44.4997 -44.4672 -44.4570 -32.3408 -32.3210
   -32.2974 -32.2769 -32.2758 -32.2276 -32.2021 -32.1965 -32.1800 -32.1603
   -32.1389 -32.1173 -32.1080 -32.0809 -32.0536 -32.0528 -32.0069 -31.9760
    -4.5105  -2.9912  -2.8745  -2.8065  -2.8020  -2.7946  -2.6634  -2.5783
    -2.4428  -2.3872  -2.0736  -1.9221  -1.8146  -1.6435  -1.4411  -1.3575
    -1.3031  -1.1612  -1.1343  -1.0453  -0.9816  -0.8447  -0.5494  -0.4843
    -0.4685  -0.4111  -0.2112   0.0596   0.2835   0.3164   0.3790   0.6720
     0.8220   0.9107   1.2987   1.7471   1.9325   2.0519   2.0968   2.1101
     2.1841   2.2822   2.3074   2.4963   2.5009   2.5739   2.6427   2.7496
     2.7874   2.8713   3.0626   3.1567   3.2347   3.2622   3.3275   3.3653

          k = 0.0000 0.0502 0.0000 ( 30771 PWs)   bands (ev):

   -77.2769 -77.2703 -76.9033 -76.8967 -76.6891 -76.6826 -56.0178 -55.9977
   -55.9727 -55.9521 -55.9352 -55.9156 -45.2094 -45.1495 -45.1422 -45.1174
   -45.1161 -45.1073 -44.8301 -44.8091 -44.7994 -44.7374 -44.7311 -44.7232
   -44.6508 -44.6412 -44.6016 -44.5099 -44.4663 -44.4580 -32.3393 -32.3231
   -32.2960 -32.2787 -32.2572 -32.2084 -32.2010 -32.1829 -32.1773 -32.1617
   -32.1440 -32.1166 -32.1090 -32.0787 -32.0749 -32.0554 -32.0281 -31.9972
    -4.2692  -2.8121  -2.8014  -2.6939  -2.6389  -2.6155  -2.5422  -2.4947
    -2.3290  -2.2742  -1.9886  -1.7553  -1.7488  -1.5514  -1.3706  -1.3463
    -1.2319  -1.1512  -1.0966  -1.0724  -0.9802  -0.7769  -0.6677  -0.5704
    -0.5345  -0.4536  -0.2147  -0.0276  -0.0127   0.2076   0.3159   0.4546
     0.6904   0.8041   0.8507   1.3905   1.7900   1.9174   1.9455   2.1043
     2.1565   2.2123   2.3446   2.3517   2.4168   2.4490   2.5578   2.5616
     2.6877   2.7910   3.0494   3.0632   3.1263   3.1942   3.2616   3.2880

          k = 0.0000 0.0669 0.0000 ( 30779 PWs)   bands (ev):

   -77.2759 -77.2712 -76.9023 -76.8976 -76.6881 -76.6835 -56.0149 -56.0007
   -55.9698 -55.9552 -55.9324 -55.9186 -45.1956 -45.1484 -45.1432 -45.1303
   -45.1148 -45.1081 -44.8164 -44.8073 -44.8004 -44.7508 -44.7301 -44.7245
   -44.6489 -44.6421 -44.5880 -44.5232 -44.4651 -44.4592 -32.3372 -32.3258
   -32.2940 -32.2817 -32.2318 -32.1993 -32.1883 -32.1809 -32.1624 -32.1537
   -32.1480 -32.1165 -32.1103 -32.1024 -32.0751 -32.0588 -32.0554 -32.0246
    -3.9568  -2.8377  -2.6017  -2.5480  -2.4550  -2.4060  -2.3631  -2.3621
    -2.2793  -2.0414  -1.9364  -1.6634  -1.5260  -1.4520  -1.4113  -1.2896
    -1.2166  -1.1288  -1.1130  -1.0549  -0.9197  -0.8036  -0.6860  -0.6039
    -0.5981  -0.5120  -0.4117  -0.2530  -0.1235   0.0926   0.0948   0.3041
     0.3233   0.5952   0.9217   1.0368   1.4750   1.6726   1.8276   1.9480
     2.1363   2.2090   2.2180   2.3383   2.3468   2.4375   2.5118   2.5801
     2.6168   2.7166   2.9280   2.9281   3.0006   3.0143   3.0795   3.1314

          k = 0.0000 0.0836 0.0000 ( 30792 PWs)   bands (ev):

   -77.2748 -77.2724 -76.9012 -76.8988 -76.6870 -76.6846 -56.0116 -56.0042
   -55.9664 -55.9588 -55.9291 -55.9220 -45.1798 -45.1472 -45.1458 -45.1444
   -45.1128 -45.1093 -44.8053 -44.8025 -44.7997 -44.7665 -44.7288 -44.7259
   -44.6469 -44.6434 -44.5722 -44.5387 -44.4636 -44.4606 -32.3347 -32.3288
   -32.2914 -32.2850 -32.2018 -32.1969 -32.1906 -32.1617 -32.1554 -32.1522
   -32.1358 -32.1221 -32.1141 -32.1115 -32.0867 -32.0712 -32.0627 -32.0558
    -3.6049  -2.9905  -2.4373  -2.3952  -2.3011  -2.2713  -2.2447  -2.2202
    -2.1410  -1.9271  -1.7711  -1.5873  -1.5060  -1.4020  -1.3228  -1.2171
    -1.2029  -1.1610  -1.1327  -1.0323  -0.9298  -0.8544  -0.7498  -0.6893
    -0.5764  -0.5598  -0.3758  -0.3498  -0.2910  -0.2252  -0.0699  -0.0261
     0.3053   0.5258   0.7528   1.0011   1.1872   1.5621   1.6623   1.7387
     2.1286   2.1333   2.2187   2.3003   2.3549   2.4713   2.5052   2.5959
     2.6288   2.6649   2.7746   2.7995   2.8480   2.9328   2.9940   3.0364

          k = 0.0000-0.1004 0.0000 ( 30784 PWs)   bands (ev):

   -77.2736 -77.2736 -76.9000 -76.9000 -76.6858 -76.6858 -56.0079 -56.0079
   -55.9626 -55.9626 -55.9256 -55.9256 -45.1628 -45.1628 -45.1457 -45.1457
   -45.1109 -45.1109 -44.8035 -44.8035 -44.7834 -44.7834 -44.7273 -44.7273
   -44.6450 -44.6450 -44.5554 -44.5554 -44.4621 -44.4621 -32.3319 -32.3319
   -32.2883 -32.2883 -32.1940 -32.1940 -32.1690 -32.1690 -32.1592 -32.1592
   -32.1199 -32.1199 -32.1133 -32.1133 -32.0891 -32.0891 -32.0668 -32.0667
    -3.2622  -3.2622  -2.3254  -2.3254  -2.2815  -2.2814  -2.1685  -2.1685
    -1.9736  -1.9736  -1.5876  -1.5876  -1.4939  -1.4939  -1.2777  -1.2777
    -1.1647  -1.1647  -1.0208  -1.0208  -0.9313  -0.9313  -0.7487  -0.7486
    -0.5489  -0.5489  -0.4323  -0.4322  -0.2982  -0.2982  -0.1638  -0.1638
     0.3724   0.3725   0.8085   0.8085   1.3347   1.3347   1.6522   1.6522
     2.0958   2.0958   2.2493   2.2493   2.4213   2.4213   2.5548   2.5548
     2.6695   2.6695   2.7393   2.7393   2.8609   2.8609   2.9617   2.9617

          k = 0.0154-0.0065 0.0000 ( 30750 PWs)   bands (ev):

   -77.2781 -77.2691 -76.9045 -76.8955 -76.6903 -76.6814 -56.0212 -55.9938
   -55.9762 -55.9480 -55.9386 -55.9119 -45.2266 -45.1510 -45.1410 -45.1194
   -45.1065 -45.1001 -44.8473 -44.8116 -44.7985 -44.7326 -44.7217 -44.7206
   -44.6535 -44.6403 -44.6187 -44.4934 -44.4678 -44.4564 -32.3418 -32.3196
   -32.2983 -32.2885 -32.2746 -32.2396 -32.2085 -32.2027 -32.1781 -32.1590
   -32.1352 -32.1179 -32.1075 -32.0824 -32.0511 -32.0399 -31.9935 -31.9625
    -4.6618  -3.1223  -2.9412  -2.9182  -2.9017  -2.8824  -2.7351  -2.6209
    -2.5443  -2.4311  -2.1505  -2.0298  -1.8393  -1.7043  -1.4952  -1.4355
    -1.2814  -1.2045  -1.1363  -1.1112  -0.9126  -0.8628  -0.4949  -0.4602
    -0.3880  -0.3506  -0.2125   0.0657   0.3124   0.4616   0.4855   0.8090
     0.8484   1.1261   1.8083   1.9427   2.0303   2.0383   2.1317   2.1815
     2.2430   2.2974   2.3168   2.5277   2.5917   2.6651   2.7314   2.8322
     2.8433   2.8828   3.1343   3.1607   3.3181   3.3839   3.3900   3.4527

          k = 0.0154 0.0102 0.0000 ( 30727 PWs)   bands (ev):

   -77.2783 -77.2689 -76.9047 -76.8953 -76.6904 -76.6812 -56.0217 -55.9933
   -55.9767 -55.9476 -55.9392 -55.9113 -45.2286 -45.1512 -45.1407 -45.1194
   -45.1063 -45.0979 -44.8494 -44.8116 -44.7982 -44.7327 -44.7216 -44.7184
   -44.6535 -44.6400 -44.6207 -44.4912 -44.4680 -44.4562 -32.3425 -32.3190
   -32.2991 -32.2933 -32.2742 -32.2443 -32.2131 -32.2030 -32.1773 -32.1614
   -32.1365 -32.1185 -32.1058 -32.0822 -32.0514 -32.0354 -31.9891 -31.9580
    -4.6510  -3.1234  -2.9335  -2.9216  -2.9010  -2.8719  -2.7184  -2.6079
    -2.5629  -2.4101  -2.1469  -2.0385  -1.8610  -1.7199  -1.4603  -1.4503
    -1.2809  -1.1966  -1.1061  -1.0989  -0.8795  -0.8503  -0.4664  -0.4451
    -0.3761  -0.3119  -0.1961   0.0525   0.2751   0.5030   0.5402   0.7981
     0.8687   1.1954   1.8916   1.9743   2.0156   2.0655   2.0801   2.1019
     2.1872   2.2677   2.2853   2.4315   2.4917   2.5108   2.7790   2.8452
     2.8770   2.8813   3.0979   3.1408   3.3008   3.3739   3.4172   3.4732

          k = 0.0154 0.0269 0.0000 ( 30784 PWs)   bands (ev):

   -77.2781 -77.2691 -76.9045 -76.8955 -76.6903 -76.6814 -56.0213 -55.9939
   -55.9762 -55.9483 -55.9390 -55.9117 -45.2261 -45.1511 -45.1408 -45.1186
   -45.1062 -45.1001 -44.8469 -44.8110 -44.7982 -44.7325 -44.7219 -44.7206
   -44.6527 -44.6400 -44.6182 -44.4933 -44.4678 -44.4565 -32.3426 -32.3194
   -32.2992 -32.2900 -32.2749 -32.2406 -32.2097 -32.2030 -32.1780 -32.1641
   -32.1398 -32.1189 -32.1049 -32.0810 -32.0527 -32.0402 -31.9939 -31.9628
    -4.5393  -3.0376  -2.8790  -2.8572  -2.8178  -2.8124  -2.6535  -2.5686
    -2.5150  -2.3601  -2.0914  -1.9755  -1.8585  -1.6937  -1.4362  -1.3751
    -1.2903  -1.1600  -1.0663  -1.0555  -0.8957  -0.8303  -0.4846  -0.4379
    -0.4165  -0.3430  -0.1663   0.0479   0.2295   0.4749   0.4906   0.7857
     0.8125   1.0215   1.6698   1.8205   1.9281   1.9297   2.0264   2.0624
     2.0996   2.1813   2.2519   2.3625   2.4329   2.4417   2.7345   2.7565
     2.8523   2.9304   2.9855   3.1109   3.1153   3.2967   3.4133   3.5011

          k = 0.0154 0.0436 0.0000 ( 30777 PWs)   bands (ev):

   -77.2776 -77.2695 -76.9040 -76.8959 -76.6898 -76.6818 -56.0200 -55.9955
   -55.9749 -55.9499 -55.9378 -55.9131 -45.2194 -45.1505 -45.1411 -45.1174
   -45.1065 -45.1065 -44.8401 -44.8097 -44.7986 -44.7320 -44.7270 -44.7226
   -44.6514 -44.6403 -44.6115 -44.4997 -44.4672 -44.4571 -32.3420 -32.3206
   -32.2986 -32.2788 -32.2762 -32.2289 -32.2026 -32.1981 -32.1800 -32.1662
   -32.1440 -32.1195 -32.1050 -32.0788 -32.0550 -32.0538 -32.0073 -31.9763
    -4.3338  -2.8828  -2.8025  -2.7254  -2.7220  -2.6651  -2.5408  -2.4994
    -2.4048  -2.2933  -2.0146  -1.8452  -1.8183  -1.6314  -1.3915  -1.3086
    -1.2582  -1.0986  -1.0652  -0.9873  -0.9556  -0.7800  -0.5693  -0.4906
    -0.4861  -0.3518  -0.1448  -0.0093   0.2141   0.3072   0.3717   0.5734
     0.8249   0.8595   1.1585   1.6181   1.6538   1.8725   1.9268   1.9358
     2.0531   2.1323   2.2498   2.2567   2.3715   2.4159   2.5074   2.5607
     2.7492   2.8275   2.9790   3.0605   3.0894   3.2337   3.3749   3.3868

          k = 0.0154 0.0604 0.0000 ( 30809 PWs)   bands (ev):

   -77.2769 -77.2703 -76.9033 -76.8967 -76.6891 -76.6826 -56.0179 -55.9978
   -55.9727 -55.9524 -55.9358 -55.9153 -45.2087 -45.1497 -45.1418 -45.1173
   -45.1151 -45.1070 -44.8295 -44.8081 -44.7993 -44.7375 -44.7310 -44.7236
   -44.6497 -44.6410 -44.6009 -44.5099 -44.4662 -44.4580 -32.3408 -32.3226
   -32.2971 -32.2790 -32.2594 -32.2100 -32.2019 -32.1831 -32.1791 -32.1669
   -32.1483 -32.1201 -32.1059 -32.0764 -32.0743 -32.0582 -32.0283 -31.9974
    -4.0489  -2.7832  -2.6933  -2.5986  -2.5369  -2.4696  -2.3921  -2.3846
    -2.2367  -2.2302  -1.9527  -1.7399  -1.6572  -1.5505  -1.3438  -1.3256
    -1.1409  -1.1147  -1.0365  -1.0350  -0.9255  -0.7057  -0.6856  -0.5638
    -0.5191  -0.3731  -0.1691  -0.1129  -0.0885   0.1763   0.2833   0.3605
     0.5681   0.7790   0.9462   1.1579   1.3571   1.6682   1.8203   1.8899
     1.9760   2.0922   2.1977   2.2669   2.2818   2.3890   2.3980   2.4571
     2.6217   2.7537   2.9026   2.9143   3.0205   3.0682   3.1930   3.2107

          k = 0.0154 0.0771 0.0000 ( 30778 PWs)   bands (ev):

   -77.2759 -77.2713 -76.9023 -76.8976 -76.6881 -76.6835 -56.0150 -56.0009
   -55.9697 -55.9555 -55.9330 -55.9181 -45.1951 -45.1486 -45.1428 -45.1304
   -45.1137 -45.1081 -44.8159 -44.8064 -44.8003 -44.7510 -44.7299 -44.7248
   -44.6479 -44.6421 -44.5874 -44.5233 -44.4650 -44.4592 -32.3388 -32.3251
   -32.2948 -32.2817 -32.2339 -32.2005 -32.1896 -32.1816 -32.1657 -32.1562
   -32.1497 -32.1207 -32.1071 -32.1020 -32.0719 -32.0618 -32.0554 -32.0245
    -3.7094  -2.8843  -2.5141  -2.4516  -2.3255  -2.2676  -2.2654  -2.2218
    -2.1977  -2.0173  -1.9210  -1.6603  -1.4853  -1.4468  -1.3758  -1.2451
    -1.1923  -1.1017  -1.0568  -1.0445  -0.8598  -0.8443  -0.6604  -0.5830
    -0.5309  -0.4367  -0.3662  -0.2869  -0.1841  -0.0291   0.0536   0.2059
     0.2772   0.5964   0.8265   0.9563   1.1425   1.5326   1.6299   1.7041
     2.0585   2.1007   2.1618   2.2367   2.2528   2.3989   2.4074   2.4926
     2.5566   2.6438   2.7549   2.8179   2.8981   3.0052   3.0779   3.0933

          k = 0.0154-0.1069 0.0000 ( 30770 PWs)   bands (ev):

   -77.2748 -77.2724 -76.9012 -76.8988 -76.6870 -76.6846 -56.0116 -56.0043
   -55.9662 -55.9591 -55.9297 -55.9215 -45.1793 -45.1474 -45.1461 -45.1440
   -45.1119 -45.1095 -44.8046 -44.8025 -44.7994 -44.7668 -44.7285 -44.7261
   -44.6461 -44.6436 -44.5717 -44.5389 -44.4636 -44.4607 -32.3362 -32.3279
   -32.2919 -32.2846 -32.2035 -32.1984 -32.1914 -32.1625 -32.1562 -32.1528
   -32.1354 -32.1232 -32.1181 -32.1085 -32.0864 -32.0681 -32.0658 -32.0554
    -3.3552  -3.1104  -2.3797  -2.3220  -2.2357  -2.2147  -2.1674  -2.1569
    -2.0351  -1.9278  -1.7795  -1.6266  -1.4709  -1.4397  -1.2755  -1.1934
    -1.1636  -1.1440  -1.0646  -1.0026  -0.9686  -0.8525  -0.7596  -0.7227
    -0.5617  -0.4540  -0.4004  -0.3772  -0.2856  -0.2388  -0.1646  -0.1019
     0.3254   0.3831   0.6827   0.8741   1.3027   1.3480   1.5887   1.6014
     2.0622   2.1209   2.2054   2.2289   2.3225   2.4155   2.4400   2.5433
     2.5883   2.6613   2.7650   2.7840   2.8047   2.9719   2.9781   3.0223

          k = 0.0154-0.0902 0.0000 ( 30799 PWs)   bands (ev):

   -77.2736 -77.2736 -76.9000 -76.9000 -76.6858 -76.6858 -56.0080 -56.0079
   -55.9628 -55.9624 -55.9261 -55.9251 -45.1632 -45.1624 -45.1460 -45.1454
   -45.1114 -45.1104 -44.8039 -44.8030 -44.7838 -44.7830 -44.7276 -44.7271
   -44.6455 -44.6445 -44.5558 -44.5550 -44.4622 -44.4621 -32.3331 -32.3308
   -32.2884 -32.2876 -32.1955 -32.1948 -32.1701 -32.1677 -32.1576 -32.1571
   -32.1206 -32.1195 -32.1175 -32.1105 -32.0900 -32.0884 -32.0698 -32.0638
    -3.4287  -3.0450  -2.3298  -2.3128  -2.2868  -2.2788  -2.1929  -2.1769
    -2.0147  -1.9064  -1.6227  -1.5588  -1.5304  -1.4224  -1.3480  -1.2136
    -1.1600  -1.1121  -1.0571  -1.0129  -0.9693  -0.8939  -0.8015  -0.6957
    -0.6613  -0.6409  -0.4352  -0.4045  -0.3843  -0.2505  -0.2325  -0.0825
     0.3100   0.4234   0.6367   0.9665   1.2223   1.4950   1.6482   1.6541
     2.1077   2.1785   2.2169   2.2859   2.4273   2.4357   2.5094   2.6391
     2.6471   2.6858   2.7496   2.8253   2.8449   2.9274   2.9536   2.9942

          k = 0.0154-0.0735 0.0000 ( 30778 PWs)   bands (ev):

   -77.2748 -77.2724 -76.9012 -76.8988 -76.6870 -76.6846 -56.0116 -56.0042
   -55.9664 -55.9586 -55.9286 -55.9224 -45.1802 -45.1469 -45.1456 -45.1447
   -45.1135 -45.1091 -44.8059 -44.8022 -44.8003 -44.7663 -44.7290 -44.7256
   -44.6476 -44.6431 -44.5727 -44.5384 -44.4637 -44.4605 -32.3336 -32.3298
   -32.2904 -32.2848 -32.2004 -32.1977 -32.1916 -32.1577 -32.1524 -32.1509
   -32.1360 -32.1212 -32.1156 -32.1120 -32.0872 -32.0738 -32.0600 -32.0563
    -3.7808  -2.8401  -2.4681  -2.4486  -2.3862  -2.3219  -2.3169  -2.2902
    -2.2231  -1.8741  -1.7810  -1.5683  -1.5471  -1.4002  -1.3328  -1.2451
    -1.2377  -1.1375  -1.1069  -1.0488  -0.8985  -0.8979  -0.7956  -0.7135
    -0.6962  -0.5992  -0.5368  -0.3564  -0.2183  -0.1656  -0.0054   0.0402
     0.3152   0.4355   0.8754   0.9448   1.4970   1.5314   1.7261   1.9492
     2.1508   2.2554   2.2734   2.3649   2.4313   2.5089   2.5426   2.6000
     2.6415   2.7671   2.7761   2.8932   2.9552   2.9681   3.0527   3.1183

          k = 0.0154-0.0567 0.0000 ( 30745 PWs)   bands (ev):

   -77.2759 -77.2712 -76.9023 -76.8976 -76.6881 -76.6835 -56.0149 -56.0006
   -55.9698 -55.9550 -55.9320 -55.9189 -45.1961 -45.1482 -45.1435 -45.1301
   -45.1156 -45.1082 -44.8168 -44.8079 -44.8004 -44.7507 -44.7302 -44.7242
   -44.6497 -44.6421 -44.5885 -44.5230 -44.4651 -44.4591 -32.3363 -32.3265
   -32.2930 -32.2813 -32.2303 -32.1998 -32.1880 -32.1812 -32.1574 -32.1512
   -32.1449 -32.1143 -32.1140 -32.1030 -32.0773 -32.0566 -32.0553 -32.0247
    -4.1118  -2.7697  -2.6526  -2.6102  -2.5421  -2.5097  -2.4708  -2.4522
    -2.3305  -2.0680  -1.9063  -1.6719  -1.5949  -1.4395  -1.4328  -1.3225
    -1.2414  -1.1819  -1.1092  -1.0596  -0.9487  -0.7810  -0.7789  -0.6876
    -0.6367  -0.5014  -0.4114  -0.3001  -0.0875   0.1552   0.1801   0.3355
     0.4076   0.5252   0.8180   1.2388   1.7719   1.7904   1.8792   2.1571
     2.2238   2.2758   2.3330   2.4208   2.4326   2.4491   2.5840   2.6358
     2.6678   2.7190   2.9412   2.9929   3.0841   3.0944   3.2418   3.2671

          k = 0.0154-0.0400 0.0000 ( 30744 PWs)   bands (ev):

   -77.2769 -77.2703 -76.9033 -76.8967 -76.6891 -76.6826 -56.0177 -55.9976
   -55.9727 -55.9519 -55.9349 -55.9159 -45.2097 -45.1494 -45.1424 -45.1175
   -45.1167 -45.1074 -44.8305 -44.8097 -44.7996 -44.7374 -44.7312 -44.7231
   -44.6515 -44.6413 -44.6020 -44.5099 -44.4663 -44.4579 -32.3386 -32.3235
   -32.2952 -32.2783 -32.2560 -32.2074 -32.2012 -32.1835 -32.1764 -32.1572
   -32.1398 -32.1156 -32.1119 -32.0800 -32.0751 -32.0539 -32.0279 -31.9971
    -4.3830  -2.8611  -2.8180  -2.7423  -2.7157  -2.6724  -2.6232  -2.5662
    -2.3809  -2.2980  -1.9953  -1.7996  -1.7539  -1.5521  -1.4135  -1.3645
    -1.3014  -1.1602  -1.1220  -1.0840  -0.9920  -0.8645  -0.6594  -0.5690
    -0.5551  -0.4410  -0.2776  -0.0107   0.0193   0.2451   0.3507   0.5088
     0.7297   0.8075   0.8539   1.4813   1.9824   2.0182   2.1033   2.1865
     2.2465   2.3413   2.3594   2.4298   2.4686   2.5872   2.6465   2.6767
     2.7213   2.7532   3.0462   3.0878   3.1899   3.2031   3.3623   3.3667

          k = 0.0154-0.0233 0.0000 ( 30753 PWs)   bands (ev):

   -77.2776 -77.2695 -76.9040 -76.8959 -76.6898 -76.6818 -56.0199 -55.9952
   -55.9748 -55.9495 -55.9371 -55.9135 -45.2201 -45.1504 -45.1416 -45.1188
   -45.1069 -45.1066 -44.8409 -44.8110 -44.7989 -44.7321 -44.7270 -44.7222
   -44.6528 -44.6407 -44.6123 -44.4997 -44.4672 -44.4570 -32.3404 -32.3211
   -32.2970 -32.2762 -32.2755 -32.2271 -32.2022 -32.1960 -32.1803 -32.1576
   -32.1363 -32.1170 -32.1096 -32.0816 -32.0535 -32.0520 -32.0068 -31.9758
    -4.5707  -3.0307  -2.8981  -2.8486  -2.8365  -2.8201  -2.7039  -2.6079
    -2.4567  -2.4195  -2.0941  -1.9490  -1.8035  -1.6469  -1.4783  -1.3869
    -1.3075  -1.1783  -1.1529  -1.0671  -0.9893  -0.8728  -0.5639  -0.4693
    -0.4559  -0.4247  -0.2416   0.0742   0.3122   0.3164   0.3860   0.7093
     0.8126   0.9427   1.3491   1.7850   1.9936   2.1048   2.1818   2.1845
     2.2692   2.2948   2.3282   2.5588   2.5809   2.6342   2.7446   2.7946
     2.8017   2.9227   2.9804   3.2068   3.2371   3.2781   3.3038   3.4135

          k = 0.0308-0.0131 0.0000 ( 30733 PWs)   bands (ev):

   -77.2776 -77.2695 -76.9040 -76.8959 -76.6898 -76.6818 -56.0199 -55.9953
   -55.9748 -55.9496 -55.9373 -55.9134 -45.2199 -45.1504 -45.1415 -45.1184
   -45.1068 -45.1065 -44.8407 -44.8106 -44.7988 -44.7321 -44.7270 -44.7223
   -44.6524 -44.6406 -44.6121 -44.4997 -44.4672 -44.4570 -32.3408 -32.3210
   -32.2974 -32.2769 -32.2758 -32.2276 -32.2021 -32.1965 -32.1800 -32.1603
   -32.1389 -32.1173 -32.1080 -32.0809 -32.0536 -32.0528 -32.0069 -31.9760
    -4.5105  -2.9912  -2.8745  -2.8065  -2.8020  -2.7946  -2.6634  -2.5783
    -2.4428  -2.3872  -2.0736  -1.9221  -1.8146  -1.6435  -1.4411  -1.3575
    -1.3031  -1.1612  -1.1343  -1.0453  -0.9816  -0.8447  -0.5494  -0.4843
    -0.4685  -0.4111  -0.2112   0.0596   0.2835   0.3164   0.3790   0.6720
     0.8220   0.9107   1.2987   1.7471   1.9325   2.0519   2.0968   2.1101
     2.1841   2.2822   2.3074   2.4963   2.5009   2.5739   2.6427   2.7496
     2.7874   2.8713   3.0626   3.1567   3.2347   3.2622   3.3275   3.3654

          k = 0.0308 0.0036 0.0000 ( 30784 PWs)   bands (ev):

   -77.2781 -77.2691 -76.9045 -76.8955 -76.6903 -76.6814 -56.0213 -55.9939
   -55.9762 -55.9483 -55.9390 -55.9117 -45.2261 -45.1511 -45.1408 -45.1186
   -45.1062 -45.1001 -44.8469 -44.8110 -44.7982 -44.7325 -44.7219 -44.7206
   -44.6527 -44.6400 -44.6182 -44.4933 -44.4678 -44.4565 -32.3426 -32.3194
   -32.2992 -32.2900 -32.2749 -32.2406 -32.2097 -32.2030 -32.1780 -32.1641
   -32.1398 -32.1189 -32.1049 -32.0810 -32.0527 -32.0402 -31.9939 -31.9628
    -4.5393  -3.0376  -2.8790  -2.8572  -2.8178  -2.8124  -2.6535  -2.5686
    -2.5150  -2.3601  -2.0914  -1.9755  -1.8585  -1.6937  -1.4362  -1.3751
    -1.2903  -1.1600  -1.0663  -1.0555  -0.8957  -0.8303  -0.4846  -0.4379
    -0.4165  -0.3430  -0.1663   0.0479   0.2295   0.4749   0.4906   0.7857
     0.8125   1.0215   1.6698   1.8205   1.9281   1.9297   2.0264   2.0624
     2.0996   2.1813   2.2519   2.3625   2.4329   2.4417   2.7345   2.7565
     2.8523   2.9304   2.9855   3.1109   3.1153   3.2967   3.4133   3.5011

          k = 0.0308 0.0204 0.0000 ( 30824 PWs)   bands (ev):

   -77.2783 -77.2689 -76.9047 -76.8953 -76.6904 -76.6812 -56.0219 -55.9935
   -55.9768 -55.9479 -55.9397 -55.9110 -45.2280 -45.1513 -45.1404 -45.1182
   -45.1059 -45.0978 -44.8488 -44.8106 -44.7979 -44.7326 -44.7219 -44.7184
   -44.6523 -44.6397 -44.6201 -44.4911 -44.4679 -44.4563 -32.3438 -32.3187
   -32.3002 -32.2956 -32.2747 -32.2457 -32.2148 -32.2039 -32.1778 -32.1676
   -32.1420 -32.1208 -32.1031 -32.0801 -32.0537 -32.0358 -31.9896 -31.9586
    -4.4686  -3.0001  -2.8505  -2.8367  -2.7648  -2.7610  -2.5961  -2.5337
    -2.5177  -2.3020  -2.0553  -1.9578  -1.8765  -1.7006  -1.4210  -1.3317
    -1.2978  -1.1246  -1.0237  -0.9836  -0.8519  -0.8171  -0.4930  -0.4132
    -0.3470  -0.3447  -0.1323   0.0504   0.1503   0.5115   0.5573   0.7928
     0.8008   1.0107   1.6684   1.8011   1.8197   1.8296   1.9291   1.9788
     1.9979   2.0930   2.1799   2.2364   2.2759   2.4009   2.6692   2.7429
     2.8501   2.8691   2.9350   2.9689   3.0592   3.2781   3.4394   3.5613

          k = 0.0308 0.0371 0.0000 ( 30820 PWs)   bands (ev):

   -77.2781 -77.2691 -76.9045 -76.8955 -76.6903 -76.6814 -56.0215 -55.9941
   -55.9763 -55.9486 -55.9396 -55.9114 -45.2254 -45.1512 -45.1404 -45.1173
   -45.1057 -45.1000 -44.8462 -44.8098 -44.7979 -44.7324 -44.7222 -44.7205
   -44.6514 -44.6396 -44.6175 -44.4933 -44.4677 -44.4565 -32.3443 -32.3190
   -32.3003 -32.2927 -32.2753 -32.2424 -32.2117 -32.2048 -32.1793 -32.1699
   -32.1447 -32.1228 -32.1024 -32.0782 -32.0555 -32.0406 -31.9944 -31.9634
    -4.3032  -2.8901  -2.7735  -2.7572  -2.6873  -2.6363  -2.4975  -2.4766
    -2.4520  -2.2245  -1.9900  -1.8725  -1.8569  -1.6667  -1.3874  -1.3117
    -1.2451  -1.0654  -0.9646  -0.9335  -0.8567  -0.7899  -0.5352  -0.4419
    -0.4317  -0.2765  -0.1037   0.0076   0.1341   0.4776   0.5029   0.6697
     0.8292   0.8440   1.4233   1.4594   1.6884   1.7562   1.8216   1.8567
     1.9428   1.9499   2.1214   2.1376   2.2361   2.3573   2.4479   2.6060
     2.7711   2.7944   2.8810   2.9655   3.0228   3.2076   3.4331   3.4614

          k = 0.0308 0.0538 0.0000 ( 30813 PWs)   bands (ev):

   -77.2776 -77.2696 -76.9040 -76.8959 -76.6898 -76.6818 -56.0202 -55.9957
   -55.9749 -55.9503 -55.9384 -55.9127 -45.2186 -45.1507 -45.1407 -45.1159
   -45.1064 -45.1060 -44.8394 -44.8085 -44.7982 -44.7318 -44.7270 -44.7229
   -44.6500 -44.6400 -44.6107 -44.4997 -44.4671 -44.4571 -32.3439 -32.3202
   -32.2995 -32.2815 -32.2764 -32.2308 -32.2054 -32.2002 -32.1822 -32.1705
   -32.1475 -32.1245 -32.1028 -32.0756 -32.0581 -32.0541 -32.0078 -31.9768
    -4.0540  -2.7300  -2.6872  -2.6303  -2.5972  -2.4616  -2.3949  -2.3709
    -2.3176  -2.1473  -1.9277  -1.7957  -1.7303  -1.6049  -1.3352  -1.3311
    -1.1467  -1.0051  -0.9569  -0.9086  -0.9028  -0.7200  -0.6348  -0.5250
    -0.4570  -0.2719  -0.1440  -0.0446   0.1687   0.2211   0.3706   0.4628
     0.7008   0.9209   0.9793   1.1793   1.3368   1.5785   1.6861   1.7629
     1.7830   1.9710   2.1109   2.1325   2.1873   2.2754   2.3173   2.4364
     2.6815   2.7156   2.8424   2.8901   2.9160   3.0664   3.3262   3.3684

          k = 0.0308 0.0705 0.0000 ( 30819 PWs)   bands (ev):

   -77.2769 -77.2703 -76.9033 -76.8967 -76.6891 -76.6826 -56.0180 -55.9980
   -55.9727 -55.9527 -55.9364 -55.9149 -45.2080 -45.1498 -45.1414 -45.1172
   -45.1140 -45.1067 -44.8289 -44.8070 -44.7991 -44.7375 -44.7308 -44.7239
   -44.6485 -44.6408 -44.6002 -44.5100 -44.4662 -44.4581 -32.3427 -32.3221
   -32.2977 -32.2788 -32.2619 -32.2117 -32.2053 -32.1857 -32.1811 -32.1689
   -32.1497 -32.1256 -32.1039 -32.0754 -32.0722 -32.0613 -32.0286 -31.9977
    -3.7393  -2.7330  -2.5539  -2.4675  -2.4333  -2.2851  -2.2814  -2.1992
    -2.1537  -2.0967  -1.8873  -1.7206  -1.5532  -1.5412  -1.3667  -1.2579
    -1.0631  -1.0541  -0.9866  -0.9652  -0.8616  -0.7651  -0.6177  -0.6133
    -0.4034  -0.3803  -0.2042  -0.2034  -0.0941   0.1607   0.2358   0.2489
     0.3988   0.7277   0.8067   0.8682   1.1134   1.4451   1.5356   1.5608
     1.8644   2.0465   2.0519   2.1383   2.1810   2.2457   2.3136   2.4009
     2.5637   2.6108   2.7297   2.8033   2.8691   2.9976   3.1953   3.2592

          k = 0.0308-0.1135 0.0000 ( 30797 PWs)   bands (ev):

   -77.2759 -77.2713 -76.9023 -76.8976 -76.6881 -76.6835 -56.0151 -56.0010
   -55.9697 -55.9558 -55.9336 -55.9177 -45.1945 -45.1488 -45.1425 -45.1305
   -45.1127 -45.1080 -44.8153 -44.8055 -44.8003 -44.7511 -44.7297 -44.7251
   -44.6469 -44.6421 -44.5868 -44.5235 -44.4650 -44.4593 -32.3406 -32.3245
   -32.2951 -32.2812 -32.2360 -32.2041 -32.1916 -32.1839 -32.1653 -32.1567
   -32.1500 -32.1261 -32.1054 -32.1019 -32.0689 -32.0648 -32.0554 -32.0245
    -3.3896  -2.9095  -2.4037  -2.3304  -2.2386  -2.1811  -2.1243  -2.1002
    -2.0670  -1.9588  -1.8847  -1.6737  -1.5007  -1.4381  -1.2952  -1.1741
    -1.1700  -1.0355  -1.0011  -0.9986  -0.8970  -0.8447  -0.7196  -0.5913
    -0.5413  -0.4673  -0.2789  -0.2679  -0.2195  -0.1701   0.0116   0.0664
     0.2286   0.3833   0.5217   0.8803   1.2519   1.3247   1.4443   1.4777
     1.9970   2.0199   2.1401   2.1681   2.1853   2.3023   2.3744   2.4180
     2.5551   2.5886   2.7262   2.7767   2.8543   2.9866   3.1303   3.1305

          k = 0.0308-0.0967 0.0000 ( 30817 PWs)   bands (ev):

   -77.2748 -77.2724 -76.9012 -76.8988 -76.6870 -76.6846 -56.0116 -56.0044
   -55.9661 -55.9593 -55.9302 -55.9211 -45.1788 -45.1476 -45.1463 -45.1437
   -45.1113 -45.1097 -44.8040 -44.8024 -44.7993 -44.7670 -44.7283 -44.7264
   -44.6454 -44.6439 -44.5713 -44.5392 -44.4635 -44.4607 -32.3377 -32.3272
   -32.2918 -32.2838 -32.2049 -32.2015 -32.1939 -32.1602 -32.1556 -32.1520
   -32.1347 -32.1243 -32.1233 -32.1072 -32.0861 -32.0685 -32.0654 -32.0551
    -3.1925  -3.0536  -2.3116  -2.2487  -2.2192  -2.1934  -2.1189  -2.1159
    -1.9100  -1.9011  -1.7332  -1.6902  -1.5066  -1.3653  -1.2904  -1.1647
    -1.0805  -1.0496  -1.0294  -0.9985  -0.9546  -0.8897  -0.8133  -0.7101
    -0.7039  -0.5846  -0.4435  -0.3740  -0.3605  -0.2717  -0.1793  -0.1483
     0.2852   0.3127   0.4668   0.9158   1.1959   1.3557   1.5110   1.6093
     2.0638   2.1360   2.1676   2.2215   2.3076   2.3816   2.4265   2.4791
     2.6354   2.7649   2.7725   2.8139   2.8974   2.9745   3.0002   3.0157

          k = 0.0308-0.0800 0.0000 ( 30786 PWs)   bands (ev):

   -77.2736 -77.2736 -76.9000 -76.9000 -76.6858 -76.6858 -56.0080 -56.0079
   -55.9629 -55.9623 -55.9265 -55.9247 -45.1634 -45.1621 -45.1462 -45.1452
   -45.1118 -45.1100 -44.8042 -44.8026 -44.7841 -44.7828 -44.7278 -44.7269
   -44.6459 -44.6441 -44.5561 -44.5548 -44.4622 -44.4620 -32.3342 -32.3302
   -32.2882 -32.2867 -32.1978 -32.1966 -32.1708 -32.1668 -32.1539 -32.1535
   -32.1224 -32.1213 -32.1188 -32.1094 -32.0908 -32.0879 -32.0720 -32.0617
    -3.5323  -2.7978  -2.3498  -2.3296  -2.2908  -2.2876  -2.2441  -2.1805
    -2.0462  -1.7896  -1.6625  -1.5509  -1.5282  -1.3914  -1.3169  -1.2259
    -1.1319  -1.0598  -1.0364  -1.0274  -0.9592  -0.9243  -0.8469  -0.8164
    -0.7497  -0.6434  -0.5780  -0.4420  -0.4318  -0.2543  -0.2051  -0.0379
     0.2792   0.3234   0.7789   0.8330   1.3438   1.4054   1.5907   1.9027
     2.1301   2.2078   2.2624   2.3094   2.4238   2.4681   2.4723   2.6139
     2.6860   2.7462   2.8157   2.8823   2.8852   2.9492   3.0954   3.1271

          k = 0.0308-0.0633 0.0000 ( 30765 PWs)   bands (ev):

   -77.2748 -77.2724 -76.9012 -76.8988 -76.6870 -76.6846 -56.0116 -56.0041
   -55.9665 -55.9585 -55.9284 -55.9227 -45.1804 -45.1467 -45.1455 -45.1448
   -45.1139 -45.1090 -44.8062 -44.8016 -44.8009 -44.7662 -44.7291 -44.7255
   -44.6480 -44.6430 -44.5730 -44.5383 -44.4637 -44.4605 -32.3331 -32.3304
   -32.2896 -32.2845 -32.1996 -32.1988 -32.1928 -32.1541 -32.1514 -32.1477
   -32.1361 -32.1209 -32.1189 -32.1117 -32.0875 -32.0752 -32.0585 -32.0567
    -3.8714  -2.6744  -2.5172  -2.4722  -2.4369  -2.4190  -2.3592  -2.3050
    -2.2679  -1.7956  -1.7944  -1.5710  -1.5681  -1.4436  -1.3018  -1.2769
    -1.2496  -1.1344  -1.0713  -1.0307  -0.9095  -0.8834  -0.8637  -0.7860
    -0.7629  -0.6630  -0.5539  -0.3791  -0.1817  -0.1764   0.0277   0.0904
     0.3463   0.3529   0.7860   1.1338   1.4531   1.6184   1.7891   2.1305
     2.1859   2.2950   2.3576   2.3864   2.4775   2.4983   2.5524   2.5529
     2.6757   2.7564   2.8504   2.9158   2.9569   3.0226   3.1880   3.3123

          k = 0.0308-0.0465 0.0000 ( 30697 PWs)   bands (ev):

   -77.2759 -77.2712 -76.9023 -76.8976 -76.6881 -76.6835 -56.0149 -56.0006
   -55.9698 -55.9549 -55.9318 -55.9190 -45.1962 -45.1482 -45.1435 -45.1301
   -45.1159 -45.1082 -44.8170 -44.8081 -44.8004 -44.7507 -44.7302 -44.7241
   -44.6499 -44.6421 -44.5886 -44.5230 -44.4651 -44.4591 -32.3360 -32.3267
   -32.2925 -32.2811 -32.2297 -32.2002 -32.1881 -32.1814 -32.1551 -32.1504
   -32.1429 -32.1159 -32.1137 -32.1034 -32.0781 -32.0558 -32.0553 -32.0247
    -4.1645  -2.7166  -2.6679  -2.6395  -2.5655  -2.5561  -2.5319  -2.4816
    -2.3482  -2.0792  -1.8791  -1.6773  -1.6199  -1.4526  -1.4285  -1.3430
    -1.2502  -1.2190  -1.0972  -1.0599  -0.8989  -0.8841  -0.7734  -0.7014
    -0.6626  -0.4656  -0.4140  -0.3368  -0.0909   0.1824   0.2114   0.3565
     0.4383   0.4984   0.7867   1.3018   1.7969   1.8142   2.0326   2.1307
     2.2980   2.3384   2.3793   2.4325   2.4580   2.4902   2.5894   2.6210
     2.6610   2.7654   2.9131   3.0260   3.0586   3.1008   3.4003   3.4210

          k = 0.0308-0.0298 0.0000 ( 30744 PWs)   bands (ev):

   -77.2769 -77.2703 -76.9033 -76.8967 -76.6891 -76.6826 -56.0177 -55.9976
   -55.9727 -55.9519 -55.9349 -55.9159 -45.2097 -45.1494 -45.1424 -45.1175
   -45.1167 -45.1074 -44.8305 -44.8097 -44.7996 -44.7374 -44.7312 -44.7231
   -44.6515 -44.6413 -44.6020 -44.5099 -44.4663 -44.4579 -32.3386 -32.3235
   -32.2952 -32.2783 -32.2560 -32.2074 -32.2012 -32.1835 -32.1764 -32.1572
   -32.1398 -32.1156 -32.1119 -32.0800 -32.0751 -32.0539 -32.0279 -31.9971
    -4.3830  -2.8611  -2.8180  -2.7423  -2.7157  -2.6724  -2.6232  -2.5662
    -2.3809  -2.2980  -1.9953  -1.7996  -1.7539  -1.5521  -1.4135  -1.3645
    -1.3014  -1.1602  -1.1220  -1.0840  -0.9920  -0.8645  -0.6594  -0.5690
    -0.5551  -0.4410  -0.2776  -0.0107   0.0193   0.2451   0.3507   0.5088
     0.7297   0.8075   0.8539   1.4813   1.9824   2.0182   2.1033   2.1865
     2.2465   2.3413   2.3594   2.4298   2.4686   2.5872   2.6465   2.6767
     2.7213   2.7532   3.0462   3.0878   3.1899   3.2031   3.3623   3.3667

          k = 0.0462-0.0196 0.0000 ( 30771 PWs)   bands (ev):

   -77.2769 -77.2703 -76.9033 -76.8967 -76.6891 -76.6826 -56.0178 -55.9977
   -55.9727 -55.9521 -55.9352 -55.9156 -45.2094 -45.1495 -45.1422 -45.1174
   -45.1161 -45.1073 -44.8301 -44.8091 -44.7994 -44.7374 -44.7311 -44.7232
   -44.6508 -44.6412 -44.6016 -44.5099 -44.4663 -44.4580 -32.3393 -32.3231
   -32.2960 -32.2787 -32.2572 -32.2084 -32.2010 -32.1829 -32.1773 -32.1617
   -32.1440 -32.1166 -32.1090 -32.0787 -32.0749 -32.0554 -32.0281 -31.9972
    -4.2692  -2.8121  -2.8014  -2.6939  -2.6389  -2.6155  -2.5422  -2.4947
    -2.3290  -2.2742  -1.9886  -1.7553  -1.7488  -1.5514  -1.3706  -1.3463
    -1.2319  -1.1512  -1.0966  -1.0724  -0.9802  -0.7769  -0.6677  -0.5704
    -0.5345  -0.4537  -0.2147  -0.0276  -0.0127   0.2076   0.3159   0.4546
     0.6904   0.8041   0.8507   1.3905   1.7900   1.9174   1.9455   2.1043
     2.1565   2.2123   2.3446   2.3517   2.4168   2.4490   2.5578   2.5616
     2.6877   2.7910   3.0494   3.0632   3.1263   3.1942   3.2616   3.2881

          k = 0.0462-0.0029 0.0000 ( 30777 PWs)   bands (ev):

   -77.2776 -77.2695 -76.9040 -76.8959 -76.6898 -76.6818 -56.0200 -55.9955
   -55.9749 -55.9499 -55.9378 -55.9131 -45.2194 -45.1505 -45.1411 -45.1174
   -45.1065 -45.1065 -44.8401 -44.8097 -44.7986 -44.7320 -44.7270 -44.7226
   -44.6514 -44.6403 -44.6115 -44.4997 -44.4672 -44.4571 -32.3420 -32.3206
   -32.2986 -32.2788 -32.2762 -32.2289 -32.2026 -32.1981 -32.1800 -32.1662
   -32.1440 -32.1195 -32.1050 -32.0788 -32.0550 -32.0538 -32.0073 -31.9763
    -4.3338  -2.8828  -2.8025  -2.7254  -2.7220  -2.6651  -2.5408  -2.4994
    -2.4048  -2.2933  -2.0146  -1.8452  -1.8183  -1.6314  -1.3915  -1.3086
    -1.2582  -1.0986  -1.0652  -0.9873  -0.9556  -0.7800  -0.5693  -0.4906
    -0.4861  -0.3518  -0.1448  -0.0093   0.2141   0.3072   0.3717   0.5734
     0.8249   0.8595   1.1585   1.6181   1.6538   1.8725   1.9268   1.9358
     2.0531   2.1323   2.2498   2.2567   2.3715   2.4159   2.5074   2.5607
     2.7492   2.8275   2.9790   3.0605   3.0894   3.2337   3.3749   3.3868

          k = 0.0462 0.0138 0.0000 ( 30820 PWs)   bands (ev):

   -77.2781 -77.2691 -76.9045 -76.8955 -76.6903 -76.6814 -56.0215 -55.9941
   -55.9763 -55.9486 -55.9396 -55.9114 -45.2254 -45.1512 -45.1404 -45.1173
   -45.1057 -45.1000 -44.8462 -44.8098 -44.7979 -44.7324 -44.7222 -44.7205
   -44.6514 -44.6396 -44.6175 -44.4933 -44.4677 -44.4565 -32.3443 -32.3190
   -32.3003 -32.2927 -32.2753 -32.2424 -32.2117 -32.2048 -32.1793 -32.1699
   -32.1447 -32.1228 -32.1024 -32.0782 -32.0555 -32.0406 -31.9944 -31.9634
    -4.3032  -2.8901  -2.7735  -2.7572  -2.6873  -2.6363  -2.4975  -2.4766
    -2.4520  -2.2245  -1.9900  -1.8725  -1.8569  -1.6667  -1.3874  -1.3117
    -1.2451  -1.0654  -0.9646  -0.9335  -0.8567  -0.7899  -0.5352  -0.4419
    -0.4317  -0.2765  -0.1037   0.0076   0.1341   0.4776   0.5029   0.6697
     0.8292   0.8440   1.4233   1.4594   1.6884   1.7562   1.8216   1.8567
     1.9428   1.9499   2.1214   2.1376   2.2361   2.3573   2.4479   2.6060
     2.7711   2.7944   2.8810   2.9655   3.0228   3.2076   3.4331   3.4614

          k = 0.0462 0.0305 0.0000 ( 30822 PWs)   bands (ev):

   -77.2783 -77.2689 -76.9047 -76.8953 -76.6904 -76.6812 -56.0221 -55.9938
   -55.9768 -55.9484 -55.9404 -55.9107 -45.2272 -45.1514 -45.1400 -45.1166
   -45.1052 -45.0977 -44.8480 -44.8093 -44.7974 -44.7325 -44.7222 -44.7183
   -44.6508 -44.6392 -44.6192 -44.4910 -44.4679 -44.4564 -32.3459 -32.3185
   -32.3012 -32.2986 -32.2748 -32.2476 -32.2171 -32.2072 -32.1805 -32.1722
   -32.1457 -32.1261 -32.1011 -32.0769 -32.0568 -32.0363 -31.9903 -31.9592
    -4.1806  -2.8294  -2.7619  -2.6853  -2.6094  -2.5464  -2.4666  -2.4296
    -2.3728  -2.1331  -1.9377  -1.8613  -1.8312  -1.6577  -1.3555  -1.3242
    -1.1948  -1.0110  -0.9157  -0.8275  -0.7987  -0.7836  -0.5550  -0.4422
    -0.4279  -0.2409  -0.0488   0.0133   0.0910   0.4938   0.5881   0.7285
     0.7350   0.7846   1.2276   1.4603   1.5316   1.6169   1.6767   1.6858
     1.8651   1.8837   1.9897   2.0416   2.1930   2.3011   2.3049   2.5438
     2.6426   2.7893   2.8365   2.8676   2.9802   3.1187   3.4547   3.5037

          k = 0.0462 0.0473 0.0000 ( 30826 PWs)   bands (ev):

   -77.2781 -77.2691 -76.9045 -76.8955 -76.6903 -76.6814 -56.0217 -55.9944
   -55.9764 -55.9491 -55.9403 -55.9110 -45.2246 -45.1513 -45.1399 -45.1156
   -45.1051 -45.0999 -44.8454 -44.8084 -44.7974 -44.7322 -44.7226 -44.7205
   -44.6498 -44.6391 -44.6166 -44.4932 -44.4677 -44.4566 -32.3465 -32.3188
   -32.3010 -32.2957 -32.2751 -32.2443 -32.2140 -32.2093 -32.1832 -32.1725
   -32.1468 -32.1290 -32.1010 -32.0750 -32.0587 -32.0411 -31.9951 -31.9640
    -3.9743  -2.7164  -2.6865  -2.5892  -2.5339  -2.4113  -2.3968  -2.3690
    -2.2311  -2.0395  -1.8833  -1.8260  -1.7320  -1.6129  -1.3448  -1.2973
    -1.1225  -0.9672  -0.8692  -0.8157  -0.7676  -0.7483  -0.6179  -0.5206
    -0.4119  -0.2545  -0.0412  -0.0015   0.1321   0.4157   0.4739   0.5189
     0.7141   0.8023   1.0065   1.1380   1.3692   1.4989   1.5179   1.5905
     1.6111   1.8720   1.9937   2.0036   2.0746   2.1874   2.2363   2.4105
     2.6038   2.7246   2.7672   2.8127   2.8710   2.9991   3.3508   3.4044

          k = 0.0462 0.0640 0.0000 ( 30822 PWs)   bands (ev):

   -77.2776 -77.2696 -76.9041 -76.8959 -76.6898 -76.6818 -56.0203 -55.9959
   -55.9750 -55.9507 -55.9391 -55.9123 -45.2179 -45.1508 -45.1403 -45.1144
   -45.1064 -45.1055 -44.8387 -44.8073 -44.7979 -44.7316 -44.7270 -44.7233
   -44.6486 -44.6396 -44.6099 -44.4997 -44.4671 -44.4572 -32.3462 -32.3200
   -32.2998 -32.2842 -32.2761 -32.2325 -32.2105 -32.2023 -32.1866 -32.1709
   -32.1478 -32.1310 -32.1018 -32.0726 -32.0611 -32.0544 -32.0083 -31.9773
    -3.6980  -2.5804  -2.5565  -2.5479  -2.4521  -2.3005  -2.2838  -2.2272
    -2.0656  -1.9731  -1.8374  -1.7727  -1.6045  -1.5508  -1.3763  -1.2239
    -1.0500  -0.9638  -0.8684  -0.8433  -0.8195  -0.7073  -0.6798  -0.5841
    -0.3714  -0.3537  -0.0542  -0.0067   0.0184   0.1194   0.3559   0.3882
     0.5424   0.6175   0.8544   0.9733   1.0566   1.3227   1.3701   1.4135
     1.6531   1.9195   1.9621   1.9908   2.0635   2.1357   2.2136   2.3487
     2.5498   2.6150   2.7130   2.7345   2.7877   2.9398   3.2385   3.3590

          k = 0.0462-0.1200 0.0000 ( 30836 PWs)   bands (ev):

   -77.2769 -77.2703 -76.9033 -76.8967 -76.6891 -76.6826 -56.0181 -55.9982
   -55.9727 -55.9530 -55.9370 -55.9145 -45.2074 -45.1500 -45.1411 -45.1170
   -45.1130 -45.1065 -44.8283 -44.8060 -44.7989 -44.7376 -44.7307 -44.7242
   -44.6474 -44.6406 -44.5996 -44.5100 -44.4661 -44.4581 -32.3447 -32.3218
   -32.2977 -32.2781 -32.2641 -32.2130 -32.2101 -32.1901 -32.1827 -32.1675
   -32.1486 -32.1317 -32.1032 -32.0754 -32.0698 -32.0640 -32.0289 -31.9980
    -3.3733  -2.6814  -2.4404  -2.3949  -2.3246  -2.1754  -2.1695  -2.0228
    -1.9701  -1.9364  -1.8374  -1.7190  -1.4967  -1.4839  -1.3876  -1.1485
    -1.0173  -1.0080  -0.9486  -0.8808  -0.8658  -0.7910  -0.6455  -0.5743
    -0.5187  -0.3810  -0.2453  -0.1653  -0.0946   0.0865   0.1050   0.1647
     0.3072   0.3727   0.4461   0.8492   1.1745   1.2360   1.2835   1.3408
     1.7886   1.9387   1.9957   2.0508   2.0744   2.1816   2.2789   2.3958
     2.5059   2.5553   2.6846   2.7370   2.8123   2.9424   3.2024   3.2573

          k = 0.0462-0.1033 0.0000 ( 30822 PWs)   bands (ev):

   -77.2759 -77.2713 -76.9023 -76.8976 -76.6881 -76.6835 -56.0151 -56.0011
   -55.9696 -55.9560 -55.9341 -55.9174 -45.1940 -45.1489 -45.1422 -45.1306
   -45.1119 -45.1080 -44.8148 -44.8048 -44.8004 -44.7512 -44.7295 -44.7253
   -44.6461 -44.6421 -44.5863 -44.5236 -44.4649 -44.4593 -32.3421 -32.3242
   -32.2949 -32.2804 -32.2375 -32.2079 -32.1938 -32.1861 -32.1628 -32.1566
   -32.1490 -32.1310 -32.1050 -32.1020 -32.0670 -32.0669 -32.0554 -32.0245
    -3.0353  -2.9201  -2.3615  -2.2927  -2.2092  -2.0993  -2.0358  -1.9980
    -1.9498  -1.8634  -1.7899  -1.7161  -1.4878  -1.4409  -1.2184  -1.1415
    -1.0866  -1.0318  -0.9857  -0.9483  -0.9072  -0.8708  -0.7301  -0.6308
    -0.6242  -0.4624  -0.4107  -0.2865  -0.2745  -0.1903  -0.0953  -0.0353
     0.1505   0.2633   0.3182   0.8715   1.1162   1.2056   1.3627   1.5165
     1.9653   1.9838   2.0817   2.0930   2.1920   2.2724   2.3481   2.4308
     2.5739   2.6920   2.7557   2.8312   2.8345   3.0480   3.1111   3.1666

          k = 0.0462-0.0865 0.0000 ( 30823 PWs)   bands (ev):

   -77.2748 -77.2724 -76.9012 -76.8988 -76.6870 -76.6846 -56.0116 -56.0045
   -55.9661 -55.9594 -55.9305 -55.9208 -45.1786 -45.1476 -45.1465 -45.1436
   -45.1109 -45.1099 -44.8036 -44.8023 -44.7993 -44.7672 -44.7282 -44.7265
   -44.6450 -44.6440 -44.5710 -44.5393 -44.4635 -44.4607 -32.3386 -32.3270
   -32.2915 -32.2831 -32.2057 -32.2039 -32.1958 -32.1575 -32.1556 -32.1502
   -32.1334 -32.1279 -32.1250 -32.1070 -32.0860 -32.0701 -32.0639 -32.0551
    -3.2338  -2.7426  -2.4085  -2.2585  -2.2101  -2.1539  -2.0855  -2.0791
    -1.8790  -1.7920  -1.7608  -1.6212  -1.4994  -1.4116  -1.2019  -1.1440
    -1.0575  -1.0434  -1.0122  -0.9596  -0.9376  -0.9211  -0.8424  -0.7584
    -0.7332  -0.6638  -0.5815  -0.4834  -0.4580  -0.2147  -0.2125  -0.1503
     0.1483   0.3301   0.5041   0.8145   1.2137   1.2510   1.4496   1.7820
     2.0795   2.1229   2.1259   2.2109   2.3346   2.3870   2.4267   2.4336
     2.7220   2.7872   2.8303   2.8722   2.9577   3.0315   3.0391   3.1632

          k = 0.0462-0.0698 0.0000 ( 30795 PWs)   bands (ev):

   -77.2736 -77.2736 -76.9000 -76.9000 -76.6858 -76.6858 -56.0080 -56.0079
   -55.9630 -55.9623 -55.9266 -55.9246 -45.1635 -45.1620 -45.1463 -45.1451
   -45.1119 -45.1099 -44.8043 -44.8025 -44.7842 -44.7827 -44.7278 -44.7268
   -44.6460 -44.6440 -44.5562 -44.5547 -44.4622 -44.4620 -32.3346 -32.3300
   -32.2880 -32.2863 -32.1988 -32.1976 -32.1710 -32.1665 -32.1518 -32.1517
   -32.1245 -32.1216 -32.1187 -32.1092 -32.0911 -32.0878 -32.0728 -32.0610
    -3.5674  -2.5773  -2.5206  -2.3290  -2.2932  -2.2835  -2.2540  -2.1665
    -2.0573  -1.7206  -1.6796  -1.5595  -1.5143  -1.4081  -1.2547  -1.2428
    -1.1000  -1.0513  -1.0496  -1.0299  -0.9634  -0.9329  -0.8756  -0.8698
    -0.7908  -0.6611  -0.6209  -0.4597  -0.4489  -0.2598  -0.2090  -0.0222
     0.2203   0.3457   0.7791   0.8691   1.2624   1.4333   1.6093   2.0312
     2.1274   2.2036   2.2591   2.3285   2.4072   2.4597   2.4939   2.5988
     2.6957   2.7650   2.8395   2.8691   2.9306   3.0041   3.1405   3.1983

          k = 0.0462-0.0531 0.0000 ( 30765 PWs)   bands (ev):

   -77.2748 -77.2724 -76.9012 -76.8988 -76.6870 -76.6846 -56.0116 -56.0041
   -55.9665 -55.9585 -55.9284 -55.9227 -45.1804 -45.1467 -45.1455 -45.1448
   -45.1139 -45.1090 -44.8062 -44.8016 -44.8009 -44.7662 -44.7291 -44.7255
   -44.6480 -44.6430 -44.5730 -44.5383 -44.4637 -44.4605 -32.3331 -32.3304
   -32.2896 -32.2845 -32.1996 -32.1988 -32.1928 -32.1541 -32.1514 -32.1477
   -32.1361 -32.1209 -32.1189 -32.1117 -32.0875 -32.0752 -32.0585 -32.0567
    -3.8714  -2.6744  -2.5172  -2.4722  -2.4369  -2.4190  -2.3592  -2.3050
    -2.2679  -1.7956  -1.7944  -1.5710  -1.5681  -1.4436  -1.3018  -1.2769
    -1.2496  -1.1344  -1.0713  -1.0307  -0.9095  -0.8834  -0.8637  -0.7860
    -0.7629  -0.6630  -0.5539  -0.3791  -0.1817  -0.1764   0.0277   0.0904
     0.3463   0.3529   0.7860   1.1338   1.4531   1.6184   1.7891   2.1305
     2.1859   2.2950   2.3576   2.3864   2.4775   2.4983   2.5524   2.5529
     2.6757   2.7564   2.8504   2.9158   2.9569   3.0226   3.1880   3.3123

          k = 0.0462-0.0364 0.0000 ( 30745 PWs)   bands (ev):

   -77.2759 -77.2712 -76.9023 -76.8976 -76.6881 -76.6835 -56.0149 -56.0006
   -55.9698 -55.9550 -55.9320 -55.9189 -45.1961 -45.1482 -45.1435 -45.1301
   -45.1156 -45.1082 -44.8168 -44.8079 -44.8004 -44.7507 -44.7302 -44.7242
   -44.6497 -44.6421 -44.5885 -44.5230 -44.4651 -44.4591 -32.3363 -32.3265
   -32.2930 -32.2813 -32.2303 -32.1998 -32.1880 -32.1812 -32.1574 -32.1512
   -32.1449 -32.1143 -32.1140 -32.1030 -32.0773 -32.0566 -32.0553 -32.0247
    -4.1118  -2.7697  -2.6526  -2.6102  -2.5421  -2.5097  -2.4708  -2.4522
    -2.3305  -2.0680  -1.9063  -1.6719  -1.5949  -1.4395  -1.4328  -1.3225
    -1.2414  -1.1819  -1.1092  -1.0596  -0.9487  -0.7810  -0.7789  -0.6876
    -0.6367  -0.5014  -0.4114  -0.3001  -0.0875   0.1552   0.1801   0.3355
     0.4076   0.5252   0.8180   1.2388   1.7719   1.7904   1.8792   2.1571
     2.2238   2.2758   2.3330   2.4208   2.4326   2.4491   2.5840   2.6358
     2.6678   2.7190   2.9412   2.9929   3.0841   3.0944   3.2418   3.2671

          k = 0.0616-0.0262 0.0000 ( 30779 PWs)   bands (ev):

   -77.2759 -77.2712 -76.9023 -76.8976 -76.6881 -76.6835 -56.0149 -56.0007
   -55.9698 -55.9552 -55.9324 -55.9186 -45.1956 -45.1484 -45.1432 -45.1303
   -45.1148 -45.1081 -44.8164 -44.8073 -44.8004 -44.7508 -44.7301 -44.7245
   -44.6489 -44.6421 -44.5880 -44.5232 -44.4651 -44.4592 -32.3372 -32.3258
   -32.2940 -32.2817 -32.2318 -32.1993 -32.1884 -32.1809 -32.1624 -32.1537
   -32.1480 -32.1165 -32.1103 -32.1024 -32.0751 -32.0588 -32.0554 -32.0246
    -3.9568  -2.8377  -2.6017  -2.5480  -2.4550  -2.4060  -2.3631  -2.3621
    -2.2793  -2.0414  -1.9364  -1.6634  -1.5260  -1.4520  -1.4113  -1.2896
    -1.2166  -1.1288  -1.1130  -1.0549  -0.9197  -0.8036  -0.6860  -0.6039
    -0.5981  -0.5120  -0.4117  -0.2530  -0.1235   0.0926   0.0948   0.3041
     0.3233   0.5952   0.9217   1.0368   1.4750   1.6726   1.8276   1.9480
     2.1363   2.2090   2.2180   2.3383   2.3468   2.4375   2.5118   2.5801
     2.6168   2.7166   2.9280   2.9281   3.0006   3.0143   3.0795   3.1314

          k = 0.0616-0.0095 0.0000 ( 30809 PWs)   bands (ev):

   -77.2769 -77.2703 -76.9033 -76.8967 -76.6891 -76.6826 -56.0179 -55.9978
   -55.9727 -55.9524 -55.9358 -55.9153 -45.2087 -45.1497 -45.1418 -45.1173
   -45.1151 -45.1070 -44.8295 -44.8081 -44.7993 -44.7375 -44.7310 -44.7236
   -44.6497 -44.6410 -44.6009 -44.5099 -44.4662 -44.4580 -32.3408 -32.3226
   -32.2971 -32.2790 -32.2594 -32.2100 -32.2019 -32.1831 -32.1791 -32.1669
   -32.1483 -32.1201 -32.1059 -32.0765 -32.0743 -32.0582 -32.0283 -31.9974
    -4.0489  -2.7832  -2.6933  -2.5986  -2.5369  -2.4696  -2.3921  -2.3846
    -2.2367  -2.2302  -1.9527  -1.7399  -1.6572  -1.5505  -1.3438  -1.3256
    -1.1409  -1.1147  -1.0365  -1.0350  -0.9255  -0.7057  -0.6856  -0.5638
    -0.5191  -0.3731  -0.1691  -0.1129  -0.0885   0.1763   0.2833   0.3605
     0.5681   0.7790   0.9462   1.1579   1.3571   1.6682   1.8203   1.8899
     1.9760   2.0922   2.1977   2.2669   2.2818   2.3890   2.3980   2.4571
     2.6217   2.7537   2.9026   2.9143   3.0205   3.0682   3.1930   3.2107

          k = 0.0616 0.0073 0.0000 ( 30813 PWs)   bands (ev):

   -77.2776 -77.2696 -76.9040 -76.8959 -76.6898 -76.6818 -56.0202 -55.9957
   -55.9749 -55.9503 -55.9384 -55.9127 -45.2186 -45.1507 -45.1407 -45.1159
   -45.1064 -45.1060 -44.8394 -44.8085 -44.7982 -44.7318 -44.7270 -44.7229
   -44.6500 -44.6400 -44.6107 -44.4997 -44.4671 -44.4571 -32.3439 -32.3202
   -32.2995 -32.2815 -32.2764 -32.2308 -32.2054 -32.2002 -32.1822 -32.1705
   -32.1475 -32.1245 -32.1028 -32.0756 -32.0581 -32.0541 -32.0078 -31.9768
    -4.0540  -2.7300  -2.6872  -2.6303  -2.5972  -2.4616  -2.3949  -2.3709
    -2.3176  -2.1473  -1.9277  -1.7957  -1.7303  -1.6049  -1.3352  -1.3311
    -1.1467  -1.0051  -0.9569  -0.9086  -0.9028  -0.7200  -0.6348  -0.5250
    -0.4570  -0.2719  -0.1440  -0.0446   0.1687   0.2211   0.3706   0.4628
     0.7008   0.9209   0.9793   1.1793   1.3368   1.5785   1.6861   1.7629
     1.7830   1.9710   2.1109   2.1325   2.1873   2.2754   2.3173   2.4364
     2.6815   2.7156   2.8424   2.8901   2.9160   3.0664   3.3262   3.3684

          k = 0.0616 0.0240 0.0000 ( 30826 PWs)   bands (ev):

   -77.2781 -77.2691 -76.9045 -76.8955 -76.6903 -76.6814 -56.0217 -55.9944
   -55.9764 -55.9491 -55.9403 -55.9110 -45.2246 -45.1513 -45.1399 -45.1156
   -45.1051 -45.0999 -44.8454 -44.8084 -44.7974 -44.7322 -44.7226 -44.7205
   -44.6498 -44.6391 -44.6166 -44.4932 -44.4677 -44.4566 -32.3465 -32.3188
   -32.3010 -32.2957 -32.2751 -32.2443 -32.2140 -32.2093 -32.1832 -32.1725
   -32.1468 -32.1290 -32.1010 -32.0750 -32.0587 -32.0411 -31.9951 -31.9640
    -3.9743  -2.7164  -2.6865  -2.5892  -2.5339  -2.4113  -2.3968  -2.3690
    -2.2311  -2.0395  -1.8833  -1.8260  -1.7320  -1.6129  -1.3448  -1.2973
    -1.1225  -0.9672  -0.8692  -0.8157  -0.7676  -0.7483  -0.6179  -0.5206
    -0.4119  -0.2545  -0.0412  -0.0015   0.1321   0.4157   0.4739   0.5189
     0.7141   0.8023   1.0065   1.1380   1.3692   1.4989   1.5179   1.5905
     1.6111   1.8720   1.9937   2.0036   2.0746   2.1874   2.2363   2.4105
     2.6038   2.7246   2.7672   2.8127   2.8710   2.9991   3.3508   3.4044

          k = 0.0616 0.0407 0.0000 ( 30848 PWs)   bands (ev):

   -77.2782 -77.2690 -76.9047 -76.8953 -76.6904 -76.6812 -56.0222 -55.9941
   -55.9769 -55.9488 -55.9411 -55.9103 -45.2264 -45.1516 -45.1395 -45.1150
   -45.1046 -45.0976 -44.8473 -44.8080 -44.7970 -44.7323 -44.7226 -44.7182
   -44.6493 -44.6387 -44.6184 -44.4910 -44.4679 -44.4564 -32.3482 -32.3184
   -32.3016 -32.3016 -32.2744 -32.2496 -32.2195 -32.2128 -32.1855 -32.1730
   -32.1464 -32.1329 -32.1005 -32.0739 -32.0598 -32.0369 -31.9910 -31.9599
    -3.8171  -2.7133  -2.6385  -2.5095  -2.4315  -2.3811  -2.3254  -2.3087
    -2.1053  -1.9245  -1.8586  -1.8094  -1.6696  -1.5816  -1.3627  -1.2265
    -1.0764  -0.9487  -0.8172  -0.7988  -0.7522  -0.6580  -0.5916  -0.5800
    -0.3663  -0.2217  -0.0952   0.0646   0.1985   0.3886   0.4357   0.5701
     0.6274   0.7028   0.9206   1.1417   1.2287   1.3248   1.3591   1.4788
     1.4880   1.8198   1.8992   1.9273   1.9940   2.0988   2.1466   2.3305
     2.4896   2.6847   2.7195   2.7404   2.8505   2.8540   3.2363   3.3386

          k = 0.0616 0.0574 0.0000 ( 30838 PWs)   bands (ev):

   -77.2781 -77.2691 -76.9045 -76.8954 -76.6903 -76.6814 -56.0218 -55.9946
   -55.9764 -55.9494 -55.9409 -55.9107 -45.2239 -45.1514 -45.1395 -45.1142
   -45.1046 -45.0999 -44.8448 -44.8072 -44.7970 -44.7321 -44.7229 -44.7205
   -44.6485 -44.6387 -44.6159 -44.4932 -44.4676 -44.4566 -32.3488 -32.3187
   -32.3011 -32.2984 -32.2745 -32.2461 -32.2160 -32.2150 -32.1883 -32.1718
   -32.1463 -32.1357 -32.1008 -32.0724 -32.0614 -32.0415 -31.9956 -31.9646
    -3.5937  -2.6861  -2.5312  -2.4203  -2.3836  -2.3091  -2.2651  -2.1880
    -1.9612  -1.8563  -1.8124  -1.7791  -1.5803  -1.5245  -1.3911  -1.1430
    -1.0195  -0.9723  -0.8146  -0.7529  -0.7427  -0.7223  -0.6611  -0.5317
    -0.2990  -0.2975  -0.0961   0.0739   0.1237   0.2166   0.3300   0.3830
     0.5834   0.6732   0.9002   0.9751   1.0868   1.1830   1.2128   1.2835
     1.4668   1.8281   1.8610   1.8662   1.9414   2.0586   2.0985   2.2687
     2.4583   2.6189   2.6446   2.7076   2.7119   2.8244   3.1314   3.2789

          k = 0.0616-0.1265 0.0000 ( 30856 PWs)   bands (ev):

   -77.2776 -77.2696 -76.9041 -76.8959 -76.6898 -76.6818 -56.0204 -55.9961
   -55.9750 -55.9509 -55.9396 -55.9120 -45.2173 -45.1509 -45.1400 -45.1133
   -45.1064 -45.1052 -44.8382 -44.8064 -44.7977 -44.7315 -44.7270 -44.7235
   -44.6476 -44.6393 -44.6094 -44.4997 -44.4671 -44.4572 -32.3480 -32.3199
   -32.2997 -32.2862 -32.2754 -32.2338 -32.2153 -32.2038 -32.1911 -32.1692
   -32.1466 -32.1368 -32.1018 -32.0706 -32.0633 -32.0547 -32.0087 -31.9777
    -3.3203  -2.6321  -2.4616  -2.4040  -2.3216  -2.2045  -2.1656  -2.0475
    -1.8637  -1.8228  -1.7864  -1.7489  -1.5223  -1.4376  -1.4271  -1.0927
    -1.0046  -0.9375  -0.8530  -0.8500  -0.8202  -0.6615  -0.6470  -0.5626
    -0.4287  -0.2668  -0.1762  -0.1240  -0.0345   0.0853   0.1816   0.3245
     0.4119   0.4234   0.7089   0.8051   1.0822   1.0834   1.1509   1.2227
     1.5713   1.8295   1.8755   1.8990   1.9700   2.0844   2.1703   2.3134
     2.4375   2.5801   2.6494   2.6573   2.7184   2.8320   3.1225   3.2375

          k = 0.0616-0.1098 0.0000 ( 30829 PWs)   bands (ev):

   -77.2769 -77.2703 -76.9033 -76.8967 -76.6891 -76.6826 -56.0182 -55.9983
   -55.9727 -55.9532 -55.9373 -55.9143 -45.2071 -45.1501 -45.1409 -45.1169
   -45.1124 -45.1064 -44.8279 -44.8055 -44.7988 -44.7376 -44.7306 -44.7244
   -44.6467 -44.6405 -44.5992 -44.5101 -44.4661 -44.4582 -32.3459 -32.3217
   -32.2975 -32.2775 -32.2653 -32.2136 -32.2133 -32.1933 -32.1836 -32.1655
   -32.1472 -32.1360 -32.1032 -32.0754 -32.0684 -32.0655 -32.0291 -31.9981
    -3.0244  -2.6499  -2.5818  -2.2985  -2.2203  -2.0794  -2.0686  -1.9304
    -1.8812  -1.8400  -1.7833  -1.7233  -1.5029  -1.4035  -1.3220  -1.1118
    -1.0285  -1.0112  -0.9221  -0.8985  -0.8771  -0.6759  -0.6304  -0.5873
    -0.4957  -0.4497  -0.3644  -0.2024  -0.1711   0.0070   0.0089   0.1141
     0.2146   0.2402   0.3199   0.8307   1.0343   1.0707   1.2375   1.3665
     1.7573   1.8764   1.9399   2.0045   2.0190   2.1709   2.3056   2.4262
     2.4889   2.6022   2.7083   2.7193   2.7699   2.9679   3.1689   3.2049

          k = 0.0616-0.0931 0.0000 ( 30858 PWs)   bands (ev):

   -77.2759 -77.2713 -76.9023 -76.8976 -76.6881 -76.6835 -56.0152 -56.0012
   -55.9696 -55.9561 -55.9342 -55.9173 -45.1939 -45.1490 -45.1421 -45.1306
   -45.1116 -45.1080 -44.8147 -44.8045 -44.8004 -44.7513 -44.7295 -44.7254
   -44.6458 -44.6421 -44.5862 -44.5236 -44.4649 -44.4594 -32.3426 -32.3241
   -32.2947 -32.2800 -32.2380 -32.2094 -32.1949 -32.1868 -32.1614 -32.1567
   -32.1484 -32.1331 -32.1050 -32.1021 -32.0678 -32.0661 -32.0555 -32.0245
    -2.9228  -2.7808  -2.5356  -2.2521  -2.1431  -2.0658  -2.0220  -1.9390
[...]
     1.6531   1.9195   1.9621   1.9908   2.0635   2.1357   2.2136   2.3487
     2.5498   2.6150   2.7130   2.7345   2.7877   2.9398   3.2385   3.3571

          k = 0.0770 0.0342 0.0000 ( 30838 PWs)   bands (ev):

   -77.2781 -77.2691 -76.9045 -76.8954 -76.6903 -76.6814 -56.0218 -55.9946
   -55.9764 -55.9494 -55.9409 -55.9107 -45.2239 -45.1514 -45.1395 -45.1142
   -45.1046 -45.0999 -44.8448 -44.8072 -44.7970 -44.7321 -44.7229 -44.7205
   -44.6485 -44.6387 -44.6159 -44.4932 -44.4676 -44.4566 -32.3488 -32.3187
   -32.3011 -32.2984 -32.2745 -32.2461 -32.2160 -32.2150 -32.1883 -32.1718
   -32.1463 -32.1357 -32.1008 -32.0724 -32.0614 -32.0415 -31.9956 -31.9646
    -3.5937  -2.6861  -2.5312  -2.4203  -2.3836  -2.3091  -2.2651  -2.1880
    -1.9612  -1.8563  -1.8124  -1.7791  -1.5803  -1.5245  -1.3911  -1.1430
    -1.0195  -0.9723  -0.8146  -0.7529  -0.7427  -0.7223  -0.6611  -0.5317
    -0.2990  -0.2975  -0.0961   0.0739   0.1237   0.2166   0.3300   0.3830
     0.5834   0.6732   0.9002   0.9751   1.0868   1.1830   1.2128   1.2835
     1.4668   1.8281   1.8610   1.8662   1.9414   2.0586   2.0985   2.2687
     2.4583   2.6189   2.6446   2.7076   2.7119   2.8244   3.1314   3.2790

          k = 0.0770 0.0509 0.0000 ( 30880 PWs)   bands (ev):

   -77.2782 -77.2690 -76.9047 -76.8953 -76.6904 -76.6812 -56.0224 -55.9942
   -55.9769 -55.9491 -55.9416 -55.9101 -45.2258 -45.1517 -45.1392 -45.1138
   -45.1042 -45.0976 -44.8467 -44.8070 -44.7967 -44.7322 -44.7229 -44.7182
   -44.6481 -44.6383 -44.6178 -44.4909 -44.4678 -44.4565 -32.3502 -32.3183
   -32.3038 -32.3015 -32.2738 -32.2511 -32.2211 -32.2180 -32.1903 -32.1715
   -32.1455 -32.1390 -32.1006 -32.0719 -32.0619 -32.0373 -31.9914 -31.9604
    -3.4385  -2.7589  -2.4800  -2.3778  -2.2771  -2.2526  -2.2441  -2.1358
    -1.8704  -1.8556  -1.7502  -1.7080  -1.5344  -1.4845  -1.4015  -1.0388
    -1.0285  -0.9738  -0.7973  -0.7630  -0.7351  -0.6913  -0.6485  -0.4362
    -0.2354  -0.2246  -0.2206   0.0610   0.1329   0.1384   0.3322   0.3397
     0.6554   0.7075   0.9229   0.9301   1.0041   1.0413   1.1424   1.1941
     1.3586   1.7765   1.7768   1.7958   1.8833   1.9930   2.0027   2.1873
     2.3855   2.5200   2.5849   2.6718   2.7116   2.7339   2.9852   3.1306

          k = 0.0770-0.1331 0.0000 ( 30858 PWs)   bands (ev):

   -77.2781 -77.2691 -76.9045 -76.8954 -76.6903 -76.6814 -56.0219 -55.9948
   -55.9765 -55.9496 -55.9413 -55.9105 -45.2235 -45.1515 -45.1393 -45.1134
   -45.1043 -45.0998 -44.8444 -44.8066 -44.7968 -44.7320 -44.7231 -44.7204
   -44.6477 -44.6385 -44.6155 -44.4931 -44.4676 -44.4567 -32.3501 -32.3187
   -32.3010 -32.2998 -32.2740 -32.2470 -32.2188 -32.2171 -32.1918 -32.1702
   -32.1454 -32.1403 -32.1010 -32.0710 -32.0629 -32.0418 -31.9960 -31.9650
    -3.2523  -2.7875  -2.4086  -2.3322  -2.2885  -2.2188  -2.1450  -2.0728
    -1.8891  -1.7484  -1.7309  -1.6734  -1.5450  -1.4171  -1.4026  -1.0814
    -0.9626  -0.9266  -0.8277  -0.7687  -0.7288  -0.7214  -0.6124  -0.4464
    -0.3171  -0.2195  -0.1880  -0.1051  -0.0519   0.1296   0.2931   0.3068
     0.5846   0.6593   0.7748   0.9355   0.9530   1.0152   1.0294   1.1344
     1.3898   1.7351   1.7759   1.8119   1.8891   1.9945   2.0243   2.1913
     2.3676   2.5321   2.5523   2.6585   2.6635   2.7299   2.9595   3.0877

          k = 0.0770-0.1164 0.0000 ( 30864 PWs)   bands (ev):

   -77.2776 -77.2696 -76.9041 -76.8959 -76.6898 -76.6818 -56.0205 -55.9961
   -55.9750 -55.9510 -55.9398 -55.9120 -45.2171 -45.1510 -45.1399 -45.1129
   -45.1064 -45.1051 -44.8380 -44.8061 -44.7976 -44.7315 -44.7270 -44.7236
   -44.6472 -44.6392 -44.6092 -44.4997 -44.4670 -44.4573 -32.3486 -32.3199
   -32.2996 -32.2869 -32.2751 -32.2343 -32.2172 -32.2043 -32.1929 -32.1681
   -32.1459 -32.1393 -32.1019 -32.0699 -32.0641 -32.0548 -32.0088 -31.9778
    -3.0859  -2.7472  -2.4295  -2.3383  -2.2701  -2.1506  -2.0806  -1.9880
    -1.8974  -1.7551  -1.7224  -1.6952  -1.5379  -1.4421  -1.3174  -1.1245
    -0.9776  -0.8890  -0.8662  -0.8480  -0.8403  -0.6800  -0.5304  -0.4723
    -0.4045  -0.3706  -0.2806  -0.2253  -0.1268   0.0759   0.1649   0.2860
     0.3631   0.4110   0.6208   0.7875   0.9774   0.9970   1.1578   1.1862
     1.5470   1.7791   1.8384   1.8856   1.9282   2.0745   2.1766   2.3136
     2.4046   2.5853   2.6236   2.6296   2.6904   2.8132   3.0420   3.1396

          k = 0.0770-0.0996 0.0000 ( 30829 PWs)   bands (ev):

   -77.2769 -77.2703 -76.9033 -76.8967 -76.6891 -76.6826 -56.0182 -55.9983
   -55.9727 -55.9532 -55.9373 -55.9143 -45.2071 -45.1501 -45.1409 -45.1169
   -45.1124 -45.1064 -44.8279 -44.8055 -44.7988 -44.7376 -44.7306 -44.7244
   -44.6467 -44.6405 -44.5992 -44.5101 -44.4661 -44.4582 -32.3459 -32.3217
   -32.2975 -32.2775 -32.2653 -32.2136 -32.2133 -32.1933 -32.1836 -32.1655
   -32.1472 -32.1360 -32.1032 -32.0754 -32.0684 -32.0655 -32.0291 -31.9981
    -3.0244  -2.6499  -2.5818  -2.2985  -2.2203  -2.0794  -2.0686  -1.9304
    -1.8812  -1.8400  -1.7833  -1.7233  -1.5029  -1.4035  -1.3220  -1.1118
    -1.0285  -1.0112  -0.9221  -0.8985  -0.8771  -0.6759  -0.6304  -0.5873
    -0.4957  -0.4497  -0.3644  -0.2024  -0.1711   0.0070   0.0089   0.1141
     0.2146   0.2402   0.3199   0.8307   1.0343   1.0707   1.2375   1.3665
     1.7573   1.8764   1.9399   2.0045   2.0190   2.1709   2.3056   2.4262
     2.4889   2.6022   2.7083   2.7193   2.7699   2.9679   3.1689   3.2049

          k = 0.0770-0.0829 0.0000 ( 30822 PWs)   bands (ev):

   -77.2759 -77.2713 -76.9023 -76.8976 -76.6881 -76.6835 -56.0151 -56.0011
   -55.9696 -55.9560 -55.9341 -55.9174 -45.1940 -45.1489 -45.1422 -45.1306
   -45.1119 -45.1080 -44.8148 -44.8048 -44.8004 -44.7512 -44.7295 -44.7253
   -44.6461 -44.6421 -44.5863 -44.5236 -44.4649 -44.4593 -32.3421 -32.3242
   -32.2949 -32.2804 -32.2375 -32.2079 -32.1938 -32.1861 -32.1628 -32.1566
   -32.1490 -32.1310 -32.1050 -32.1020 -32.0670 -32.0669 -32.0554 -32.0245
    -3.0353  -2.9201  -2.3615  -2.2927  -2.2092  -2.0993  -2.0358  -1.9980
    -1.9498  -1.8634  -1.7899  -1.7161  -1.4878  -1.4409  -1.2184  -1.1415
    -1.0866  -1.0318  -0.9857  -0.9483  -0.9072  -0.8708  -0.7301  -0.6308
    -0.6242  -0.4624  -0.4107  -0.2865  -0.2745  -0.1903  -0.0953  -0.0353
     0.1505   0.2633   0.3182   0.8715   1.1162   1.2056   1.3627   1.5165
     1.9653   1.9838   2.0817   2.0930   2.1920   2.2724   2.3481   2.4308
     2.5739   2.6920   2.7557   2.8312   2.8345   3.0480   3.1112   3.1666

          k = 0.0770-0.0662 0.0000 ( 30817 PWs)   bands (ev):

   -77.2748 -77.2724 -76.9012 -76.8988 -76.6870 -76.6846 -56.0116 -56.0044
   -55.9661 -55.9593 -55.9302 -55.9211 -45.1788 -45.1476 -45.1463 -45.1437
   -45.1113 -45.1097 -44.8040 -44.8024 -44.7993 -44.7670 -44.7283 -44.7264
   -44.6454 -44.6439 -44.5713 -44.5392 -44.4635 -44.4607 -32.3377 -32.3272
   -32.2918 -32.2838 -32.2049 -32.2015 -32.1939 -32.1602 -32.1556 -32.1520
   -32.1347 -32.1243 -32.1233 -32.1072 -32.0861 -32.0685 -32.0654 -32.0551
    -3.1925  -3.0536  -2.3116  -2.2487  -2.2192  -2.1934  -2.1189  -2.1159
    -1.9100  -1.9011  -1.7332  -1.6902  -1.5066  -1.3653  -1.2904  -1.1647
    -1.0805  -1.0496  -1.0294  -0.9985  -0.9546  -0.8897  -0.8133  -0.7101
    -0.7039  -0.5846  -0.4435  -0.3740  -0.3605  -0.2717  -0.1793  -0.1483
     0.2852   0.3127   0.4668   0.9158   1.1959   1.3557   1.5110   1.6093
     2.0638   2.1360   2.1676   2.2215   2.3076   2.3816   2.4265   2.4791
     2.6354   2.7649   2.7725   2.8139   2.8974   2.9745   3.0003   3.0158

          k = 0.0770-0.0495 0.0000 ( 30799 PWs)   bands (ev):

   -77.2736 -77.2736 -76.9000 -76.9000 -76.6858 -76.6858 -56.0080 -56.0079
   -55.9628 -55.9624 -55.9261 -55.9251 -45.1632 -45.1624 -45.1460 -45.1454
   -45.1114 -45.1104 -44.8039 -44.8030 -44.7838 -44.7830 -44.7276 -44.7271
   -44.6455 -44.6445 -44.5558 -44.5550 -44.4622 -44.4621 -32.3331 -32.3308
   -32.2884 -32.2876 -32.1955 -32.1948 -32.1701 -32.1677 -32.1576 -32.1571
   -32.1206 -32.1195 -32.1175 -32.1105 -32.0900 -32.0884 -32.0698 -32.0638
    -3.4287  -3.0450  -2.3298  -2.3128  -2.2868  -2.2788  -2.1929  -2.1769
    -2.0147  -1.9064  -1.6227  -1.5588  -1.5304  -1.4224  -1.3480  -1.2136
    -1.1600  -1.1121  -1.0571  -1.0129  -0.9693  -0.8939  -0.8015  -0.6957
    -0.6613  -0.6409  -0.4352  -0.4045  -0.3843  -0.2505  -0.2325  -0.0825
     0.3100   0.4234   0.6367   0.9665   1.2223   1.4950   1.6482   1.6541
     2.1077   2.1785   2.2169   2.2859   2.4273   2.4357   2.5094   2.6391
     2.6471   2.6858   2.7496   2.8253   2.8449   2.9274   2.9536   2.9942

          k =-0.0923 0.0393 0.0000 ( 30784 PWs)   bands (ev):

   -77.2736 -77.2736 -76.9000 -76.9000 -76.6858 -76.6858 -56.0079 -56.0079
   -55.9626 -55.9626 -55.9256 -55.9256 -45.1628 -45.1628 -45.1457 -45.1457
   -45.1109 -45.1109 -44.8035 -44.8035 -44.7834 -44.7834 -44.7273 -44.7273
   -44.6450 -44.6450 -44.5554 -44.5554 -44.4621 -44.4621 -32.3319 -32.3319
   -32.2883 -32.2883 -32.1940 -32.1940 -32.1690 -32.1690 -32.1592 -32.1592
   -32.1199 -32.1199 -32.1133 -32.1133 -32.0891 -32.0891 -32.0668 -32.0667
    -3.2622  -3.2622  -2.3254  -2.3254  -2.2815  -2.2814  -2.1685  -2.1685
    -1.9736  -1.9736  -1.5876  -1.5876  -1.4939  -1.4939  -1.2777  -1.2777
    -1.1647  -1.1647  -1.0208  -1.0208  -0.9313  -0.9313  -0.7487  -0.7486
    -0.5489  -0.5489  -0.4323  -0.4322  -0.2982  -0.2982  -0.1638  -0.1638
     0.3724   0.3725   0.8085   0.8085   1.3347   1.3347   1.6522   1.6522
     2.0958   2.0958   2.2493   2.2493   2.4213   2.4213   2.5548   2.5548
     2.6695   2.6695   2.7393   2.7393   2.8609   2.8609   2.9616   2.9617

          k =-0.0923 0.0560 0.0000 ( 30770 PWs)   bands (ev):

   -77.2748 -77.2724 -76.9012 -76.8988 -76.6870 -76.6846 -56.0116 -56.0043
   -55.9662 -55.9591 -55.9297 -55.9215 -45.1793 -45.1474 -45.1461 -45.1440
   -45.1119 -45.1095 -44.8046 -44.8025 -44.7994 -44.7668 -44.7285 -44.7261
   -44.6461 -44.6436 -44.5717 -44.5389 -44.4636 -44.4607 -32.3362 -32.3279
   -32.2919 -32.2846 -32.2035 -32.1984 -32.1914 -32.1625 -32.1562 -32.1528
   -32.1354 -32.1232 -32.1181 -32.1085 -32.0864 -32.0681 -32.0658 -32.0554
    -3.3552  -3.1104  -2.3797  -2.3220  -2.2357  -2.2147  -2.1674  -2.1569
    -2.0351  -1.9278  -1.7795  -1.6266  -1.4709  -1.4397  -1.2755  -1.1934
    -1.1636  -1.1440  -1.0646  -1.0026  -0.9686  -0.8525  -0.7596  -0.7227
    -0.5617  -0.4540  -0.4004  -0.3772  -0.2856  -0.2388  -0.1646  -0.1019
     0.3254   0.3831   0.6827   0.8741   1.3027   1.3480   1.5887   1.6014
     2.0622   2.1209   2.2054   2.2289   2.3225   2.4155   2.4400   2.5433
     2.5883   2.6613   2.7650   2.7840   2.8047   2.9719   2.9781   3.0223

          k =-0.0923 0.0727 0.0000 ( 30797 PWs)   bands (ev):

   -77.2759 -77.2713 -76.9023 -76.8976 -76.6881 -76.6835 -56.0151 -56.0010
   -55.9697 -55.9558 -55.9336 -55.9177 -45.1945 -45.1488 -45.1425 -45.1305
   -45.1127 -45.1080 -44.8153 -44.8055 -44.8003 -44.7511 -44.7297 -44.7251
   -44.6469 -44.6421 -44.5868 -44.5235 -44.4650 -44.4593 -32.3406 -32.3245
   -32.2951 -32.2812 -32.2360 -32.2041 -32.1916 -32.1839 -32.1653 -32.1567
   -32.1500 -32.1261 -32.1054 -32.1019 -32.0689 -32.0648 -32.0554 -32.0245
    -3.3896  -2.9095  -2.4037  -2.3304  -2.2386  -2.1811  -2.1243  -2.1002
    -2.0670  -1.9588  -1.8847  -1.6737  -1.5007  -1.4381  -1.2952  -1.1741
    -1.1700  -1.0355  -1.0011  -0.9986  -0.8970  -0.8447  -0.7196  -0.5913
    -0.5413  -0.4673  -0.2789  -0.2679  -0.2195  -0.1701   0.0116   0.0664
     0.2286   0.3833   0.5217   0.8803   1.2519   1.3247   1.4443   1.4777
     1.9970   2.0199   2.1401   2.1681   2.1853   2.3023   2.3744   2.4180
     2.5551   2.5886   2.7262   2.7767   2.8543   2.9866   3.1303   3.1305

          k =-0.0923 0.0895 0.0000 ( 30836 PWs)   bands (ev):

   -77.2769 -77.2703 -76.9033 -76.8967 -76.6891 -76.6826 -56.0181 -55.9982
   -55.9727 -55.9530 -55.9370 -55.9145 -45.2074 -45.1500 -45.1411 -45.1170
   -45.1130 -45.1065 -44.8283 -44.8060 -44.7989 -44.7376 -44.7307 -44.7242
   -44.6474 -44.6406 -44.5996 -44.5100 -44.4661 -44.4581 -32.3447 -32.3218
   -32.2977 -32.2781 -32.2641 -32.2130 -32.2101 -32.1901 -32.1827 -32.1675
   -32.1486 -32.1317 -32.1032 -32.0754 -32.0698 -32.0640 -32.0289 -31.9980
    -3.3733  -2.6814  -2.4404  -2.3949  -2.3246  -2.1754  -2.1695  -2.0228
    -1.9701  -1.9364  -1.8374  -1.7190  -1.4967  -1.4839  -1.3876  -1.1485
    -1.0173  -1.0080  -0.9486  -0.8808  -0.8658  -0.7910  -0.6455  -0.5743
    -0.5187  -0.3810  -0.2453  -0.1653  -0.0946   0.0865   0.1050   0.1647
     0.3072   0.3727   0.4461   0.8492   1.1745   1.2360   1.2835   1.3408
     1.7886   1.9387   1.9957   2.0508   2.0744   2.1816   2.2789   2.3958
     2.5059   2.5553   2.6846   2.7370   2.8123   2.9424   3.2024   3.2568

          k =-0.0923 0.1062 0.0000 ( 30856 PWs)   bands (ev):

   -77.2776 -77.2696 -76.9041 -76.8959 -76.6898 -76.6818 -56.0204 -55.9961
   -55.9750 -55.9509 -55.9396 -55.9120 -45.2173 -45.1509 -45.1400 -45.1133
   -45.1064 -45.1052 -44.8382 -44.8064 -44.7977 -44.7315 -44.7270 -44.7235
   -44.6476 -44.6393 -44.6094 -44.4997 -44.4671 -44.4572 -32.3480 -32.3199
   -32.2997 -32.2862 -32.2754 -32.2338 -32.2153 -32.2038 -32.1911 -32.1692
   -32.1466 -32.1368 -32.1018 -32.0706 -32.0633 -32.0547 -32.0087 -31.9777
    -3.3203  -2.6321  -2.4616  -2.4040  -2.3216  -2.2045  -2.1656  -2.0475
    -1.8637  -1.8228  -1.7864  -1.7489  -1.5223  -1.4376  -1.4271  -1.0927
    -1.0046  -0.9375  -0.8530  -0.8500  -0.8202  -0.6615  -0.6470  -0.5626
    -0.4287  -0.2668  -0.1762  -0.1240  -0.0345   0.0853   0.1816   0.3245
     0.4119   0.4234   0.7089   0.8051   1.0822   1.0834   1.1509   1.2227
     1.5713   1.8295   1.8755   1.8990   1.9700   2.0844   2.1703   2.3134
     2.4375   2.5801   2.6494   2.6573   2.7184   2.8320   3.1225   3.2375

          k =-0.0923 0.1229 0.0000 ( 30858 PWs)   bands (ev):

   -77.2781 -77.2691 -76.9045 -76.8954 -76.6903 -76.6814 -56.0219 -55.9948
   -55.9765 -55.9496 -55.9413 -55.9105 -45.2235 -45.1515 -45.1393 -45.1134
   -45.1043 -45.0998 -44.8444 -44.8066 -44.7968 -44.7320 -44.7231 -44.7204
   -44.6477 -44.6385 -44.6155 -44.4931 -44.4676 -44.4567 -32.3501 -32.3187
   -32.3010 -32.2998 -32.2740 -32.2470 -32.2188 -32.2171 -32.1918 -32.1702
   -32.1454 -32.1403 -32.1010 -32.0710 -32.0629 -32.0418 -31.9960 -31.9650
    -3.2523  -2.7875  -2.4086  -2.3322  -2.2885  -2.2188  -2.1450  -2.0728
    -1.8891  -1.7484  -1.7309  -1.6734  -1.5450  -1.4171  -1.4026  -1.0814
    -0.9626  -0.9266  -0.8277  -0.7687  -0.7288  -0.7214  -0.6124  -0.4464
    -0.3171  -0.2195  -0.1880  -0.1051  -0.0519   0.1296   0.2931   0.3068
     0.5846   0.6593   0.7748   0.9355   0.9530   1.0152   1.0294   1.1344
     1.3898   1.7351   1.7759   1.8119   1.8891   1.9945   2.0243   2.1913
     2.3676   2.5321   2.5523   2.6585   2.6635   2.7299   2.9595   3.0878

          k =-0.0923-0.0611 0.0000 ( 30854 PWs)   bands (ev):

   -77.2782 -77.2690 -76.9047 -76.8953 -76.6904 -76.6812 -56.0224 -55.9943
   -55.9770 -55.9492 -55.9418 -55.9100 -45.2256 -45.1517 -45.1391 -45.1134
   -45.1040 -45.0975 -44.8465 -44.8066 -44.7965 -44.7321 -44.7230 -44.7182
   -44.6477 -44.6382 -44.6176 -44.4909 -44.4678 -44.4565 -32.3509 -32.3183
   -32.3046 -32.3013 -32.2734 -32.2516 -32.2217 -32.2200 -32.1921 -32.1705
   -32.1450 -32.1416 -32.1008 -32.0712 -32.0627 -32.0374 -31.9916 -31.9606
    -3.2148  -2.8537  -2.4111  -2.3329  -2.2274  -2.2212  -2.1275  -2.0852
    -1.9233  -1.7132  -1.7130  -1.6060  -1.5703  -1.4325  -1.3787  -1.0858
    -0.9397  -0.9243  -0.8085  -0.7525  -0.6948  -0.6631  -0.6587  -0.4023
    -0.3405  -0.1906  -0.1289  -0.1009  -0.0769   0.1571   0.2692   0.3942
     0.6620   0.7183   0.8445   0.8958   0.9193   0.9777   1.0704   1.0922
     1.3117   1.6953   1.7307   1.7844   1.8588   1.9490   1.9490   2.1312
     2.3389   2.4688   2.4997   2.6467   2.6914   2.7022   2.8799   3.0231

     the Fermi energy is     1.7346 ev

!    total energy              =   -2087.71025353 Ry
     estimated scf accuracy    <       0.00000751 Ry
     smearing contrib. (-TS)   =      -0.06168229 Ry
     internal energy E=F+TS    =   -2087.64857124 Ry

     The total energy is F=E-TS. E is the sum of the following terms:
     one-electron contribution =  -17343.09794783 Ry
     hartree contribution      =    8664.94339135 Ry
     xc contribution           =    -299.89701711 Ry
     ewald contribution        =    6890.40298889 Ry
     electric field correction =       0.00001346 Ry

     convergence has been achieved in  19 iterations

     negative rho (up, down):  1.313E-03 0.000E+00

     Forces acting on atoms (cartesian axes, Ry/au):

     atom    1 type  1   force =    -0.01079154   -0.00713580   -0.01188361
     atom    2 type  1   force =    -0.01079039   -0.00713582   -0.01188359
     atom    3 type  2   force =    -0.00357707   -0.00236679    0.03148675
     atom    4 type  2   force =    -0.00357964   -0.00236498    0.03148673
     atom    5 type  1   force =     0.00935034    0.00618379   -0.02314657
     atom    6 type  1   force =     0.00934960    0.00618330   -0.02315094
     atom    7 type  2   force =     0.00536503    0.00354975    0.00077172
     atom    8 type  2   force =     0.00536790    0.00354663    0.00077147
     atom    9 type  1   force =     0.00057304    0.00038063    0.00199200
     atom   10 type  1   force =     0.00056828    0.00037442    0.00199068
     atom   11 type  2   force =    -0.00092326   -0.00059900    0.00078233
     atom   12 type  2   force =    -0.00091229   -0.00061613    0.00078304

     Total force =     0.063689     Total SCF correction =     0.012529
     SCF correction compared to forces is large: reduce conv_thr to get better values

     Writing output data file ./Ti2Rh2/Ti2Rh2_beef.save/

     init_run     :     89.31s CPU     90.02s WALL (       1 calls)
     electrons    :   4168.13s CPU   4198.73s WALL (       1 calls)
     forces       :     62.17s CPU     62.41s WALL (       1 calls)

     Called by init_run:
     wfcinit      :     77.69s CPU     78.17s WALL (       1 calls)
     potinit      :      8.03s CPU      8.13s WALL (       1 calls)
     hinit0       :      1.93s CPU      1.94s WALL (       1 calls)

     Called by electrons:
     c_bands      :   3702.42s CPU   3724.97s WALL (      19 calls)
     sum_band     :    425.56s CPU    430.44s WALL (      19 calls)
     v_of_rho     :     29.16s CPU     30.53s WALL (      20 calls)
     newd         :     17.69s CPU     19.51s WALL (      20 calls)
     mix_rho      :      0.70s CPU      0.72s WALL (      19 calls)
     vdW_kernel   :      5.89s CPU      5.90s WALL (       1 calls)

     Called by c_bands:
     init_us_2    :     11.06s CPU     11.15s WALL (    2960 calls)
     cegterg      :   3641.85s CPU   3662.47s WALL (    1406 calls)

     Called by *egterg:
     cdiaghg      :    249.39s CPU    249.74s WALL (    6966 calls)
     h_psi        :   1637.70s CPU   1652.08s WALL (    7040 calls)
     s_psi        :    342.08s CPU    342.93s WALL (    7040 calls)
     g_psi        :      1.65s CPU      1.67s WALL (    5560 calls)

     Called by h_psi:
     h_psi:calbec :    621.64s CPU    624.56s WALL (    7040 calls)
     vloc_psi     :    632.62s CPU    642.92s WALL (    7040 calls)
     add_vuspsi   :    377.48s CPU    378.57s WALL (    7040 calls)

     General routines
     calbec       :    935.37s CPU    939.68s WALL (    8742 calls)
     fft          :     20.16s CPU     20.88s WALL (    1319 calls)
     ffts         :      0.10s CPU      0.11s WALL (      39 calls)
     fftw         :    726.33s CPU    737.89s WALL (  842146 calls)
     interpolate  :      0.28s CPU      0.29s WALL (      20 calls)

     Parallel routines
     fft_scatt_xy :     54.90s CPU     55.73s WALL (  843504 calls)
     fft_scatt_yz :    224.09s CPU    228.76s WALL (  843504 calls)

     PWSCF        :      1h12m CPU      1h13m WALL


   This run was terminated on:  14:54:14  25Jun2022            

=------------------------------------------------------------------------------=
   JOB DONE.
=------------------------------------------------------------------------------=
