
     Program PWSCF v.6.6 starts on 25Jun2022 at 11: 3:11 

     This program is part of the open-source Quantum ESPRESSO suite
     for quantum simulation of materials; please cite
         "P. Giannozzi et al., J. Phys.:Condens. Matter 21 395502 (2009);
         "P. Giannozzi et al., J. Phys.:Condens. Matter 29 465901 (2017);
          URL http://www.quantum-espresso.org", 
     in publications or presentations arising from this work. More details at
     http://www.quantum-espresso.org/quote

     Parallel version (MPI), running on    37 processors

     MPI processes distributed on     1 nodes
     R & G space division:  proc/nbgrp/npool/nimage =      37
     Fft bands division:     nmany     =       1
     Reading input from Ti2Tc2.in
Warning: card &CELL ignored
Warning: card / ignored

     Current dimensions of program PWSCF are:
     Max number of different atomic species (ntypx) = 10
     Max number of k-points (npk) =  40000
     Max angular momentum in pseudopotentials (lmaxx) =  3
     Presently stress not available with electric field and gates

     Message from routine cell_base_init:
     DEPRECATED: use true lattice parameter, not A to a.u. conversion factor
     file Ti.pbe-spn-rrkjus_psl.1.0.0.UPF: wavefunction(s)  3S 3D renormalized
     file Tc.pbe-spn-rrkjus_psl.0.3.0.UPF: wavefunction(s)  4S 4P renormalized

     **************************************************************************
     Initializing libbeef V0.1.2 with the BEEF-vdW functional.
     Citation: Wellendorff et al., PRB 85, 235149 (2012).
     **************************************************************************


     IMPORTANT: XC functional enforced from input :
     Exchange-correlation= BEEF-VDW
                           (   1   4  43  14   2   0   0)
     Any further DFT definition will be discarded
     Please, verify this is what you really want


     Subspace diagonalization in iterative solution of the eigenvalue problem:
     a serial algorithm will be used

     Found symmetry operation: I + (  0.5000 -0.5000  0.0000)
     This is a supercell, fractional translations are disabled

     Parallelization info
     --------------------
     sticks:   dense  smooth     PW     G-vecs:    dense   smooth      PW
     Min         115      46     13                26526     6702    1009
     Max         116      47     14                26551     6722    1023
     Sum        4257    1713    483               982101   248361   37671



     bravais-lattice index     =            0
     lattice parameter (alat)  =       1.8897  a.u.
     unit-cell volume          =    4495.6421 (a.u.)^3
     number of atoms/cell      =           12
     number of atomic types    =            2
     number of electrons       =       162.00
     number of Kohn-Sham states=           97
     kinetic-energy cutoff     =      55.1240  Ry
     charge density cutoff     =     551.2396  Ry
     convergence threshold     =      1.0E-05
     mixing beta               =       0.1000
     number of iterations used =           10  plain     mixing
     Exchange-correlation= BEEF-VDW
                           (   1   4  43  14   2   0   0)

     celldm(1)=   1.889726  celldm(2)=   0.000000  celldm(3)=   0.000000
     celldm(4)=   0.000000  celldm(5)=   0.000000  celldm(6)=   0.000000

     crystal axes: (cart. coord. in units of alat)
               a(1) = (   5.381968   0.000000   0.000000 )  
               a(2) = (   1.793994   5.074166   0.000000 )  
               a(3) = (   0.000000   0.000000  24.394360 )  

     reciprocal axes: (cart. coord. in units 2 pi/alat)
               b(1) = (  0.185806 -0.065692  0.000000 )  
               b(2) = (  0.000000  0.197077  0.000000 )  
               b(3) = (  0.000000  0.000000  0.040993 )  


     PseudoPot. # 1 for Ti read from file:
     ../pseudo/Ti.pbe-spn-rrkjus_psl.1.0.0.UPF
     MD5 check sum: e281089c08e14b8efcf92e44a67ada65
     Pseudo is Ultrasoft + core correction, Zval = 12.0
     Generated using "atomic" code by A. Dal Corso v.6.2.2
     Using radial grid of 1177 points,  6 beta functions with: 
                l(1) =   0
                l(2) =   0
                l(3) =   1
                l(4) =   1
                l(5) =   2
                l(6) =   2
     Q(r) pseudized with 0 coefficients 


     PseudoPot. # 2 for Tc read from file:
     ../pseudo/Tc.pbe-spn-rrkjus_psl.0.3.0.UPF
     MD5 check sum: 5f147c0bf103030af994b79b1f5562e4
     Pseudo is Ultrasoft + core correction, Zval = 15.0
     Generated using "atomic" code by A. Dal Corso v.6.2.2
     Using radial grid of 1231 points,  6 beta functions with: 
                l(1) =   0
                l(2) =   0
                l(3) =   1
                l(4) =   1
                l(5) =   2
                l(6) =   2
     Q(r) pseudized with 0 coefficients 


     atomic species   valence    mass     pseudopotential
        Ti            12.00    47.86700     Ti( 1.00)
        Tc            15.00    97.90721     Tc( 1.00)

     No symmetry found



   Cartesian axes

     site n.     atom                  positions (alat units)
         1           Ti  tau(   1) = (   0.0000000   0.0000000  10.0000000  )
         2           Ti  tau(   2) = (   3.5879808   2.5370831  10.0000000  )
         3           Tc  tau(   3) = (   2.6909839   0.0000000  10.0000000  )
         4           Tc  tau(   4) = (   0.8969970   2.5370831  10.0000000  )
         5           Ti  tau(   5) = (   5.3819677   3.8056222  12.1971798  )
         6           Ti  tau(   6) = (   1.7939869   1.2685391  12.1971798  )
         7           Tc  tau(   7) = (   2.6909839   3.8056222  12.1971798  )
         8           Tc  tau(   8) = (   4.4849708   1.2685391  12.1971798  )
         9           Ti  tau(   9) = (   3.5879754   2.5370810  14.3207484  )
        10           Ti  tau(  10) = (   7.1759596   5.0741632  14.3207444  )
        11           Tc  tau(  11) = (   6.2789603   2.5370818  14.3558585  )
        12           Tc  tau(  12) = (   4.4849697   5.0741558  14.3558648  )

     number of k points=    74  Fermi-Dirac smearing, width (Ry)=  0.0100
                       cart. coord. in units 2pi/alat
        k(    1) = (   0.0000000   0.0000000   0.0000000), wk =   0.0138889
        k(    2) = (   0.0000000   0.0164231   0.0000000), wk =   0.0277778
        k(    3) = (   0.0000000   0.0328461   0.0000000), wk =   0.0277778
        k(    4) = (   0.0000000   0.0492692   0.0000000), wk =   0.0277778
        k(    5) = (   0.0000000   0.0656922   0.0000000), wk =   0.0277778
        k(    6) = (   0.0000000   0.0821153   0.0000000), wk =   0.0277778
        k(    7) = (   0.0000000  -0.0985384   0.0000000), wk =   0.0138889
        k(    8) = (   0.0154838  -0.0054744   0.0000000), wk =   0.0277778
        k(    9) = (   0.0154838   0.0109487   0.0000000), wk =   0.0277778
        k(   10) = (   0.0154838   0.0273718   0.0000000), wk =   0.0277778
        k(   11) = (   0.0154838   0.0437948   0.0000000), wk =   0.0277778
        k(   12) = (   0.0154838   0.0602179   0.0000000), wk =   0.0277778
        k(   13) = (   0.0154838   0.0766409   0.0000000), wk =   0.0277778
        k(   14) = (   0.0154838  -0.1040127   0.0000000), wk =   0.0277778
        k(   15) = (   0.0154838  -0.0875897   0.0000000), wk =   0.0277778
        k(   16) = (   0.0154838  -0.0711666   0.0000000), wk =   0.0277778
        k(   17) = (   0.0154838  -0.0547435   0.0000000), wk =   0.0277778
        k(   18) = (   0.0154838  -0.0383205   0.0000000), wk =   0.0277778
        k(   19) = (   0.0154838  -0.0218974   0.0000000), wk =   0.0277778
        k(   20) = (   0.0309676  -0.0109487   0.0000000), wk =   0.0277778
        k(   21) = (   0.0309676   0.0054743   0.0000000), wk =   0.0277778
        k(   22) = (   0.0309676   0.0218974   0.0000000), wk =   0.0277778
        k(   23) = (   0.0309676   0.0383204   0.0000000), wk =   0.0277778
        k(   24) = (   0.0309676   0.0547435   0.0000000), wk =   0.0277778
        k(   25) = (   0.0309676   0.0711666   0.0000000), wk =   0.0277778
        k(   26) = (   0.0309676  -0.1094871   0.0000000), wk =   0.0277778
        k(   27) = (   0.0309676  -0.0930640   0.0000000), wk =   0.0277778
        k(   28) = (   0.0309676  -0.0766410   0.0000000), wk =   0.0277778
        k(   29) = (   0.0309676  -0.0602179   0.0000000), wk =   0.0277778
        k(   30) = (   0.0309676  -0.0437949   0.0000000), wk =   0.0277778
        k(   31) = (   0.0309676  -0.0273718   0.0000000), wk =   0.0277778
        k(   32) = (   0.0464514  -0.0164231   0.0000000), wk =   0.0277778
        k(   33) = (   0.0464514  -0.0000000   0.0000000), wk =   0.0277778
        k(   34) = (   0.0464514   0.0164230   0.0000000), wk =   0.0277778
        k(   35) = (   0.0464514   0.0328461   0.0000000), wk =   0.0277778
        k(   36) = (   0.0464514   0.0492691   0.0000000), wk =   0.0277778
        k(   37) = (   0.0464514   0.0656922   0.0000000), wk =   0.0277778
        k(   38) = (   0.0464514  -0.1149615   0.0000000), wk =   0.0277778
        k(   39) = (   0.0464514  -0.0985384   0.0000000), wk =   0.0277778
        k(   40) = (   0.0464514  -0.0821153   0.0000000), wk =   0.0277778
        k(   41) = (   0.0464514  -0.0656923   0.0000000), wk =   0.0277778
        k(   42) = (   0.0464514  -0.0492692   0.0000000), wk =   0.0277778
        k(   43) = (   0.0464514  -0.0328462   0.0000000), wk =   0.0277778
        k(   44) = (   0.0619352  -0.0218975   0.0000000), wk =   0.0277778
        k(   45) = (   0.0619352  -0.0054744   0.0000000), wk =   0.0277778
        k(   46) = (   0.0619352   0.0109486   0.0000000), wk =   0.0277778
        k(   47) = (   0.0619352   0.0273717   0.0000000), wk =   0.0277778
        k(   48) = (   0.0619352   0.0437948   0.0000000), wk =   0.0277778
        k(   49) = (   0.0619352   0.0602178   0.0000000), wk =   0.0277778
        k(   50) = (   0.0619352  -0.1204358   0.0000000), wk =   0.0277778
        k(   51) = (   0.0619352  -0.1040128   0.0000000), wk =   0.0277778
        k(   52) = (   0.0619352  -0.0875897   0.0000000), wk =   0.0277778
        k(   53) = (   0.0619352  -0.0711667   0.0000000), wk =   0.0277778
        k(   54) = (   0.0619352  -0.0547436   0.0000000), wk =   0.0277778
        k(   55) = (   0.0619352  -0.0383205   0.0000000), wk =   0.0277778
        k(   56) = (   0.0774190  -0.0273718   0.0000000), wk =   0.0277778
        k(   57) = (   0.0774190  -0.0109488   0.0000000), wk =   0.0277778
        k(   58) = (   0.0774190   0.0054743   0.0000000), wk =   0.0277778
        k(   59) = (   0.0774190   0.0218973   0.0000000), wk =   0.0277778
        k(   60) = (   0.0774190   0.0383204   0.0000000), wk =   0.0277778
        k(   61) = (   0.0774190   0.0547435   0.0000000), wk =   0.0277778
        k(   62) = (   0.0774190  -0.1259102   0.0000000), wk =   0.0277778
        k(   63) = (   0.0774190  -0.1094871   0.0000000), wk =   0.0277778
        k(   64) = (   0.0774190  -0.0930641   0.0000000), wk =   0.0277778
        k(   65) = (   0.0774190  -0.0766410   0.0000000), wk =   0.0277778
        k(   66) = (   0.0774190  -0.0602180   0.0000000), wk =   0.0277778
        k(   67) = (   0.0774190  -0.0437949   0.0000000), wk =   0.0277778
        k(   68) = (  -0.0929028   0.0328462   0.0000000), wk =   0.0138889
        k(   69) = (  -0.0929028   0.0492693   0.0000000), wk =   0.0277778
        k(   70) = (  -0.0929028   0.0656923   0.0000000), wk =   0.0277778
        k(   71) = (  -0.0929028   0.0821154   0.0000000), wk =   0.0277778
        k(   72) = (  -0.0929028   0.0985384   0.0000000), wk =   0.0277778
        k(   73) = (  -0.0929028   0.1149615   0.0000000), wk =   0.0277778
        k(   74) = (  -0.0929028  -0.0656922   0.0000000), wk =   0.0138889

     Dense  grid:   982101 G-vectors     FFT dimensions: (  80,  80, 360)

     Smooth grid:   248361 G-vectors     FFT dimensions: (  50,  50, 225)

     Estimated max dynamical RAM per process >     199.42 MB

     Estimated total dynamical RAM >       7.21 GB

     Check: negative core charge=   -0.000002

     Initial potential from superposition of free atoms

     starting charge  161.98734, renormalised to  162.00000

     negative rho (up, down):  5.791E-03 0.000E+00


     %%%%%%%%%%%%%%%%%%%%%%%%%%%%%%%%%%%%%%%%%%%%%%%%%%%%%%%%%%%%%%%%%%%%%%%%
     %                                                                      %
     % You are using vdW-DF, which was implemented by the Thonhauser group. %
     % Please cite the following two papers that made this development      %
     % possible and the two reviews that describe the various versions:     %
     %                                                                      %
     %   T. Thonhauser et al., PRL 115, 136402 (2015).                      %
     %   T. Thonhauser et al., PRB 76, 125112 (2007).                       %
     %   K. Berland et al., Rep. Prog. Phys. 78, 066501 (2015).             %
     %   D.C. Langreth et al., J. Phys.: Condens. Matter 21, 084203 (2009). %
     %                                                                      %
     %                                                                      %
     % If you are calculating the stress with vdW-DF, please also cite:     %
     %                                                                      %
     %   R. Sabatini et al., J. Phys.: Condens. Matter 24, 424209 (2012).   %
     %                                                                      %
     %%%%%%%%%%%%%%%%%%%%%%%%%%%%%%%%%%%%%%%%%%%%%%%%%%%%%%%%%%%%%%%%%%%%%%%%



     Adding external electric field

     Computed dipole along edir(3) : 
        Dipole               -0.0001 Ry au,         -0.0002 Debye
        Dipole field         -0.0000 Ry au, 

        Potential amp.        0.0000 Ry
        Total length         44.9462 bohr

     Starting wfcs are  138 randomized atomic wfcs

     total cpu time spent up to now is      121.5 secs

     Self-consistent Calculation

     iteration #  1     ecut=    55.12 Ry     beta= 0.10
     Davidson diagonalization with overlap
     ethr =  1.00E-02,  avg # of iterations =  2.0

     negative rho (up, down):  5.780E-03 0.000E+00

     Adding external electric field

     Computed dipole along edir(3) : 
        Dipole               -0.1206 Ry au,         -0.3066 Debye
        Dipole field         -0.0003 Ry au, 

        Potential amp.        0.0303 Ry
        Total length         44.9462 bohr


     total cpu time spent up to now is      349.7 secs

     total energy              =   -1809.94721456 Ry
     estimated scf accuracy    <       8.01584783 Ry

     iteration #  2     ecut=    55.12 Ry     beta= 0.10
     Davidson diagonalization with overlap
     ethr =  4.95E-03,  avg # of iterations =  2.0

     negative rho (up, down):  5.747E-03 0.000E+00

     Adding external electric field

     Computed dipole along edir(3) : 
        Dipole                0.5409 Ry au,          1.3747 Debye
        Dipole field          0.0015 Ry au, 

        Potential amp.       -0.1359 Ry
        Total length         44.9462 bohr


     total cpu time spent up to now is      554.2 secs

     total energy              =   -1810.18981336 Ry
     estimated scf accuracy    <       1.67592446 Ry

     iteration #  3     ecut=    55.12 Ry     beta= 0.10
     Davidson diagonalization with overlap
     ethr =  1.03E-03,  avg # of iterations =  7.9

     negative rho (up, down):  5.867E-03 0.000E+00

     Adding external electric field

     Computed dipole along edir(3) : 
        Dipole               -0.0943 Ry au,         -0.2396 Debye
        Dipole field         -0.0003 Ry au, 

        Potential amp.        0.0237 Ry
        Total length         44.9462 bohr


     total cpu time spent up to now is      848.8 secs

     total energy              =   -1810.07977879 Ry
     estimated scf accuracy    <      27.89332238 Ry

     iteration #  4     ecut=    55.12 Ry     beta= 0.10
     Davidson diagonalization with overlap
     ethr =  1.03E-03,  avg # of iterations =  2.8

     negative rho (up, down):  5.979E-03 0.000E+00

     Adding external electric field

     Computed dipole along edir(3) : 
        Dipole               -0.0093 Ry au,         -0.0237 Debye
        Dipole field         -0.0000 Ry au, 

        Potential amp.        0.0023 Ry
        Total length         44.9462 bohr


     total cpu time spent up to now is     1057.3 secs

     total energy              =   -1810.35794080 Ry
     estimated scf accuracy    <       1.14083461 Ry

     iteration #  5     ecut=    55.12 Ry     beta= 0.10
     Davidson diagonalization with overlap
     ethr =  7.04E-04,  avg # of iterations =  1.8

     negative rho (up, down):  5.958E-03 0.000E+00

     Adding external electric field

     Computed dipole along edir(3) : 
        Dipole                0.0034 Ry au,          0.0086 Debye
        Dipole field          0.0000 Ry au, 

        Potential amp.       -0.0008 Ry
        Total length         44.9462 bohr


     total cpu time spent up to now is     1292.7 secs

     total energy              =   -1810.32007103 Ry
     estimated scf accuracy    <       0.31346820 Ry

     iteration #  6     ecut=    55.12 Ry     beta= 0.10
     Davidson diagonalization with overlap
     ethr =  1.93E-04,  avg # of iterations =  8.1

     negative rho (up, down):  5.878E-03 0.000E+00

     Adding external electric field

     Computed dipole along edir(3) : 
        Dipole                0.0064 Ry au,          0.0162 Debye
        Dipole field          0.0000 Ry au, 

        Potential amp.       -0.0016 Ry
        Total length         44.9462 bohr


     total cpu time spent up to now is     1646.5 secs

     total energy              =   -1810.38790574 Ry
     estimated scf accuracy    <       0.60364367 Ry

     iteration #  7     ecut=    55.12 Ry     beta= 0.10
     Davidson diagonalization with overlap
     ethr =  1.93E-04,  avg # of iterations =  1.0

     negative rho (up, down):  5.792E-03 0.000E+00

     Adding external electric field

     Computed dipole along edir(3) : 
        Dipole               -0.0010 Ry au,         -0.0024 Debye
        Dipole field         -0.0000 Ry au, 

        Potential amp.        0.0002 Ry
        Total length         44.9462 bohr


     total cpu time spent up to now is     1819.7 secs

     total energy              =   -1810.33579182 Ry
     estimated scf accuracy    <       0.30863366 Ry

     iteration #  8     ecut=    55.12 Ry     beta= 0.10
     Davidson diagonalization with overlap
     ethr =  1.91E-04,  avg # of iterations =  5.0

     negative rho (up, down):  6.047E-03 0.000E+00

     Adding external electric field

     Computed dipole along edir(3) : 
        Dipole                0.0360 Ry au,          0.0914 Debye
        Dipole field          0.0001 Ry au, 

        Potential amp.       -0.0090 Ry
        Total length         44.9462 bohr


     total cpu time spent up to now is     2050.2 secs

     total energy              =   -1810.36825662 Ry
     estimated scf accuracy    <       0.08387641 Ry

     iteration #  9     ecut=    55.12 Ry     beta= 0.10
     Davidson diagonalization with overlap
     ethr =  5.18E-05,  avg # of iterations =  4.9

     negative rho (up, down):  6.275E-03 0.000E+00

     Adding external electric field

     Computed dipole along edir(3) : 
        Dipole               -0.0062 Ry au,         -0.0158 Debye
        Dipole field         -0.0000 Ry au, 

        Potential amp.        0.0016 Ry
        Total length         44.9462 bohr


     total cpu time spent up to now is     2275.8 secs

     total energy              =   -1810.37504278 Ry
     estimated scf accuracy    <       0.10703052 Ry

     iteration # 10     ecut=    55.12 Ry     beta= 0.10
     Davidson diagonalization with overlap
     ethr =  5.18E-05,  avg # of iterations =  1.9

     negative rho (up, down):  6.175E-03 0.000E+00

     Adding external electric field

     Computed dipole along edir(3) : 
        Dipole               -0.0033 Ry au,         -0.0085 Debye
        Dipole field         -0.0000 Ry au, 

        Potential amp.        0.0008 Ry
        Total length         44.9462 bohr


     total cpu time spent up to now is     2465.6 secs

     total energy              =   -1810.37646513 Ry
     estimated scf accuracy    <       0.03387115 Ry

     iteration # 11     ecut=    55.12 Ry     beta= 0.10
     Davidson diagonalization with overlap
     c_bands:  1 eigenvalues not converged
     c_bands:  1 eigenvalues not converged
     ethr =  2.09E-05,  avg # of iterations =  7.2

     negative rho (up, down):  6.152E-03 0.000E+00

     Adding external electric field

     Computed dipole along edir(3) : 
        Dipole                0.0112 Ry au,          0.0284 Debye
        Dipole field          0.0000 Ry au, 

        Potential amp.       -0.0028 Ry
        Total length         44.9462 bohr


     total cpu time spent up to now is     2690.2 secs

     total energy              =   -1810.37099849 Ry
     estimated scf accuracy    <       0.02857593 Ry

     iteration # 12     ecut=    55.12 Ry     beta= 0.10
     Davidson diagonalization with overlap
     ethr =  1.76E-05,  avg # of iterations =  6.4

     negative rho (up, down):  6.595E-03 0.000E+00

     Adding external electric field

     Computed dipole along edir(3) : 
        Dipole                0.0065 Ry au,          0.0165 Debye
        Dipole field          0.0000 Ry au, 

        Potential amp.       -0.0016 Ry
        Total length         44.9462 bohr


     total cpu time spent up to now is     2918.6 secs

     total energy              =   -1810.37534606 Ry
     estimated scf accuracy    <       0.00653308 Ry

     iteration # 13     ecut=    55.12 Ry     beta= 0.10
     Davidson diagonalization with overlap
     c_bands:  1 eigenvalues not converged
     c_bands:  1 eigenvalues not converged
     c_bands:  2 eigenvalues not converged
     c_bands:  1 eigenvalues not converged
     c_bands:  1 eigenvalues not converged
     c_bands:  2 eigenvalues not converged
     ethr =  4.03E-06,  avg # of iterations = 11.0

     negative rho (up, down):  6.416E-03 0.000E+00

     Adding external electric field

     Computed dipole along edir(3) : 
        Dipole                0.0077 Ry au,          0.0196 Debye
        Dipole field          0.0000 Ry au, 

        Potential amp.       -0.0019 Ry
        Total length         44.9462 bohr


     total cpu time spent up to now is     3169.4 secs

     total energy              =   -1810.37554610 Ry
     estimated scf accuracy    <       0.00219805 Ry

     iteration # 14     ecut=    55.12 Ry     beta= 0.10
     Davidson diagonalization with overlap
     c_bands:  1 eigenvalues not converged
     c_bands:  2 eigenvalues not converged
     ethr =  1.36E-06,  avg # of iterations =  5.8

     negative rho (up, down):  6.353E-03 0.000E+00

     Adding external electric field

     Computed dipole along edir(3) : 
        Dipole                0.0079 Ry au,          0.0200 Debye
        Dipole field          0.0000 Ry au, 

        Potential amp.       -0.0020 Ry
        Total length         44.9462 bohr


     total cpu time spent up to now is     3387.5 secs

     total energy              =   -1810.37562597 Ry
     estimated scf accuracy    <       0.00035409 Ry

     iteration # 15     ecut=    55.12 Ry     beta= 0.10
     Davidson diagonalization with overlap
     c_bands:  1 eigenvalues not converged
     c_bands:  1 eigenvalues not converged
     ethr =  2.19E-07,  avg # of iterations =  7.5

     negative rho (up, down):  6.229E-03 0.000E+00

     Adding external electric field

     Computed dipole along edir(3) : 
        Dipole                0.0078 Ry au,          0.0198 Debye
        Dipole field          0.0000 Ry au, 

        Potential amp.       -0.0020 Ry
        Total length         44.9462 bohr


     total cpu time spent up to now is     3671.8 secs

     total energy              =   -1810.37564988 Ry
     estimated scf accuracy    <       0.00030653 Ry

     iteration # 16     ecut=    55.12 Ry     beta= 0.10
     Davidson diagonalization with overlap
     ethr =  1.89E-07,  avg # of iterations =  6.0

     negative rho (up, down):  6.207E-03 0.000E+00

     Adding external electric field

     Computed dipole along edir(3) : 
        Dipole                0.0063 Ry au,          0.0160 Debye
        Dipole field          0.0000 Ry au, 

        Potential amp.       -0.0016 Ry
        Total length         44.9462 bohr


     total cpu time spent up to now is     3963.1 secs

     total energy              =   -1810.37564487 Ry
     estimated scf accuracy    <       0.00124090 Ry

     iteration # 17     ecut=    55.12 Ry     beta= 0.10
     Davidson diagonalization with overlap
     ethr =  1.89E-07,  avg # of iterations =  5.1

     negative rho (up, down):  6.097E-03 0.000E+00

     Adding external electric field

     Computed dipole along edir(3) : 
        Dipole                0.0062 Ry au,          0.0158 Debye
        Dipole field          0.0000 Ry au, 

        Potential amp.       -0.0016 Ry
        Total length         44.9462 bohr


     total cpu time spent up to now is     4218.9 secs

     total energy              =   -1810.37573016 Ry
     estimated scf accuracy    <       0.00015399 Ry

     iteration # 18     ecut=    55.12 Ry     beta= 0.10
     Davidson diagonalization with overlap
     ethr =  9.51E-08,  avg # of iterations =  2.1

     negative rho (up, down):  6.017E-03 0.000E+00

     Adding external electric field

     Computed dipole along edir(3) : 
        Dipole                0.0065 Ry au,          0.0166 Debye
        Dipole field          0.0000 Ry au, 

        Potential amp.       -0.0016 Ry
        Total length         44.9462 bohr


     total cpu time spent up to now is     4418.0 secs

     total energy              =   -1810.37572678 Ry
     estimated scf accuracy    <       0.00007541 Ry

     iteration # 19     ecut=    55.12 Ry     beta= 0.10
     Davidson diagonalization with overlap
     ethr =  4.65E-08,  avg # of iterations =  5.9

     negative rho (up, down):  5.940E-03 0.000E+00

     Adding external electric field

     Computed dipole along edir(3) : 
        Dipole                0.0065 Ry au,          0.0166 Debye
        Dipole field          0.0000 Ry au, 

        Potential amp.       -0.0016 Ry
        Total length         44.9462 bohr


     total cpu time spent up to now is     4681.8 secs

     total energy              =   -1810.37574672 Ry
     estimated scf accuracy    <       0.00005737 Ry

     iteration # 20     ecut=    55.12 Ry     beta= 0.10
     Davidson diagonalization with overlap
     ethr =  3.54E-08,  avg # of iterations =  2.0

     negative rho (up, down):  5.881E-03 0.000E+00

     Adding external electric field

     Computed dipole along edir(3) : 
        Dipole                0.0070 Ry au,          0.0177 Debye
        Dipole field          0.0000 Ry au, 

        Potential amp.       -0.0018 Ry
        Total length         44.9462 bohr


     total cpu time spent up to now is     4878.1 secs

     total energy              =   -1810.37575296 Ry
     estimated scf accuracy    <       0.00001121 Ry

     iteration # 21     ecut=    55.12 Ry     beta= 0.10
     Davidson diagonalization with overlap
     ethr =  6.92E-09,  avg # of iterations =  5.3

     negative rho (up, down):  5.837E-03 0.000E+00

     Adding external electric field

     Computed dipole along edir(3) : 
        Dipole                0.0068 Ry au,          0.0174 Debye
        Dipole field          0.0000 Ry au, 

        Potential amp.       -0.0017 Ry
        Total length         44.9462 bohr


     total cpu time spent up to now is     5139.6 secs

     total energy              =   -1810.37575855 Ry
     estimated scf accuracy    <       0.00001067 Ry

     iteration # 22     ecut=    55.12 Ry     beta= 0.10
     Davidson diagonalization with overlap
     ethr =  6.59E-09,  avg # of iterations =  2.5

     negative rho (up, down):  5.618E-03 0.000E+00

     Adding external electric field

     Computed dipole along edir(3) : 
        Dipole                0.0059 Ry au,          0.0151 Debye
        Dipole field          0.0000 Ry au, 

        Potential amp.       -0.0015 Ry
        Total length         44.9462 bohr


     total cpu time spent up to now is     5346.6 secs

     End of self-consistent calculation

          k = 0.0000 0.0000 0.0000 ( 30927 PWs)   bands (ev):

   -65.0123 -64.9963 -64.7849 -64.7767 -64.7703 -64.7620 -55.4909 -55.4739
   -55.4342 -55.4171 -55.1714 -55.1549 -37.0382 -36.9908 -36.9885 -36.9796
   -36.9768 -36.8249 -36.8237 -36.8119 -36.7468 -36.7394 -36.7377 -36.7293
   -36.7151 -36.7127 -36.7039 -36.6779 -36.6111 -36.6079 -31.7992 -31.7854
   -31.7327 -31.7322 -31.7222 -31.6793 -31.6243 -31.6225 -31.5844 -31.5820
   -31.5757 -31.5270 -31.4408 -31.3764 -31.3739 -31.3735 -31.3581 -31.2854
    -4.2170  -2.7334  -2.4116  -2.2561  -2.1843  -2.1175  -2.0195  -1.9564
    -1.8803  -1.7950  -1.4597  -1.3492  -0.7999  -0.5593  -0.5417  -0.4316
    -0.4076  -0.3965  -0.3918  -0.2772  -0.1132  -0.0640   0.2565   0.6029
     0.6177   0.8711   0.9597   1.4014   1.5367   1.6619   1.6810   1.7422
     1.9948   2.5176   2.7089   2.7663   3.0719   3.2626   3.4049   3.4329
     3.4437   3.5304   3.5516   3.5888   3.6058   3.7001   3.7890   3.8319
     3.8781

          k = 0.0000 0.0164 0.0000 ( 30963 PWs)   bands (ev):

   -65.0120 -64.9966 -64.7847 -64.7765 -64.7705 -64.7623 -55.4906 -55.4743
   -55.4340 -55.4174 -55.1711 -55.1552 -37.0342 -36.9903 -36.9872 -36.9794
   -36.9760 -36.8282 -36.8197 -36.8081 -36.7465 -36.7411 -36.7343 -36.7297
   -36.7140 -36.7132 -36.7035 -36.6780 -36.6143 -36.6111 -31.7990 -31.7857
   -31.7323 -31.7313 -31.7222 -31.6776 -31.6258 -31.6240 -31.5861 -31.5837
   -31.5791 -31.5305 -31.4390 -31.3775 -31.3752 -31.3729 -31.3583 -31.2888
    -4.1649  -2.6828  -2.3662  -2.2277  -2.1459  -2.0866  -1.9946  -1.9162
    -1.8699  -1.7745  -1.4171  -1.3145  -0.7865  -0.5365  -0.5287  -0.4180
    -0.4024  -0.3729  -0.3700  -0.2494  -0.1033  -0.0816   0.2611   0.5818
     0.5848   0.8698   0.9776   1.3393   1.5490   1.5600   1.6424   1.7116
     1.9546   2.3586   2.6554   2.6649   3.0343   3.2607   3.2747   3.3882
     3.4120   3.4396   3.4519   3.5069   3.6043   3.6275   3.7800   3.7981
     3.8229

          k = 0.0000 0.0328 0.0000 ( 31003 PWs)   bands (ev):

   -65.0112 -64.9974 -64.7839 -64.7757 -64.7712 -64.7630 -55.4899 -55.4752
   -55.4332 -55.4184 -55.1704 -55.1562 -37.0227 -36.9889 -36.9837 -36.9790
   -36.9739 -36.8378 -36.8083 -36.7971 -36.7457 -36.7423 -36.7308 -36.7282
   -36.7147 -36.7109 -36.7023 -36.6787 -36.6235 -36.6205 -31.7985 -31.7866
   -31.7326 -31.7286 -31.7205 -31.6723 -31.6301 -31.6278 -31.5912 -31.5883
   -31.5881 -31.5402 -31.4336 -31.3802 -31.3787 -31.3714 -31.3586 -31.2986
    -4.0117  -2.5368  -2.2353  -2.1596  -2.0323  -1.9997  -1.9217  -1.8360
    -1.7963  -1.7168  -1.2906  -1.2282  -0.7402  -0.5013  -0.4657  -0.4271
    -0.3364  -0.3302  -0.2998  -0.1635  -0.1335  -0.0668   0.2733   0.5010
     0.5213   0.8339   1.0478   1.1902   1.2546   1.5618   1.5976   1.6168
     1.8484   1.9723   2.3181   2.5438   2.8250   2.9743   3.0598   3.2928
     3.3429   3.3643   3.4173   3.4727   3.5302   3.5912   3.6251   3.7781
     3.8122

          k = 0.0000 0.0493 0.0000 ( 31037 PWs)   bands (ev):

   -65.0099 -64.9986 -64.7827 -64.7745 -64.7724 -64.7642 -55.4887 -55.4767
   -55.4321 -55.4199 -55.1693 -55.1576 -37.0048 -36.9869 -36.9790 -36.9786
   -36.9707 -36.8533 -36.7904 -36.7800 -36.7442 -36.7425 -36.7323 -36.7207
   -36.7177 -36.7068 -36.7003 -36.6802 -36.6385 -36.6354 -31.7976 -31.7879
   -31.7329 -31.7283 -31.7137 -31.6640 -31.6369 -31.6327 -31.6027 -31.5978
   -31.5937 -31.5544 -31.4251 -31.3838 -31.3832 -31.3693 -31.3592 -31.3133
    -3.7676  -2.3158  -2.1178  -2.0366  -1.8756  -1.8485  -1.8067  -1.7570
    -1.6344  -1.5999  -1.1348  -1.0844  -0.6597  -0.4660  -0.4429  -0.3752
    -0.3103  -0.2469  -0.2146  -0.1771  -0.0391   0.0310   0.2889   0.4229
     0.4306   0.7574   0.8590   0.9437   1.2148   1.4643   1.4727   1.5272
     1.5687   1.7624   1.8213   2.3178   2.4188   2.7584   2.9250   3.1005
     3.1587   3.3193   3.3738   3.3882   3.4587   3.4985   3.5526   3.5828
     3.7165

          k = 0.0000 0.0657 0.0000 ( 31052 PWs)   bands (ev):

   -65.0082 -65.0002 -64.7812 -64.7739 -64.7730 -64.7657 -55.4871 -55.4786
   -55.4304 -55.4219 -55.1677 -55.1595 -36.9846 -36.9833 -36.9785 -36.9741
   -36.9662 -36.8738 -36.7682 -36.7585 -36.7431 -36.7408 -36.7333 -36.7216
   -36.7125 -36.7026 -36.6982 -36.6827 -36.6583 -36.6548 -31.7964 -31.7896
   -31.7330 -31.7295 -31.7025 -31.6533 -31.6463 -31.6366 -31.6172 -31.6067
   -31.5985 -31.5707 -31.4149 -31.3896 -31.3842 -31.3670 -31.3601 -31.3309
    -3.4508  -2.1932  -2.0608  -1.8028  -1.7472  -1.6629  -1.6154  -1.6030
    -1.5466  -1.3366  -1.0681  -0.8062  -0.5924  -0.4822  -0.4537  -0.3231
    -0.3090  -0.2905  -0.1548  -0.0861   0.0894   0.2103   0.2844   0.3499
     0.4114   0.5712   0.6547   0.7359   1.0148   1.2297   1.2858   1.3053
     1.4198   1.6474   1.7203   1.8124   2.3487   2.5615   2.6413   2.8084
     2.8979   3.2988   3.3033   3.3427   3.3914   3.5077   3.5078   3.5389
     3.6218

          k = 0.0000 0.0821 0.0000 ( 31076 PWs)   bands (ev):

   -65.0063 -65.0022 -64.7794 -64.7756 -64.7712 -64.7674 -55.4852 -55.4808
   -55.4285 -55.4241 -55.1658 -55.1616 -36.9823 -36.9791 -36.9704 -36.9703
   -36.9509 -36.8982 -36.7478 -36.7425 -36.7373 -36.7365 -36.7292 -36.7243
   -36.7059 -36.6995 -36.6967 -36.6865 -36.6812 -36.6766 -31.7949 -31.7913
   -31.7328 -31.7310 -31.6886 -31.6587 -31.6424 -31.6366 -31.6294 -31.6163
   -31.6001 -31.5858 -31.4059 -31.3951 -31.3794 -31.3649 -31.3613 -31.3495
    -3.0890  -2.4061  -1.8353  -1.6695  -1.5826  -1.5216  -1.4750  -1.4725
    -1.3236  -1.0444  -1.0360  -0.5831  -0.5428  -0.5004  -0.4649  -0.4392
    -0.3659  -0.2924  -0.1048  -0.0403   0.1635   0.1828   0.2911   0.3917
     0.4126   0.5193   0.5890   0.6614   0.7998   0.8329   0.9472   1.2895
     1.4286   1.4734   1.5989   1.7944   2.1922   2.3436   2.4347   2.5364
     2.9265   3.1671   3.1977   3.2839   3.3243   3.3611   3.3864   3.4652
     3.5700

          k = 0.0000-0.0985 0.0000 ( 31066 PWs)   bands (ev):

   -65.0042 -65.0042 -64.7775 -64.7775 -64.7693 -64.7693 -55.4830 -55.4830
   -55.4263 -55.4263 -55.1637 -55.1637 -36.9804 -36.9804 -36.9687 -36.9687
   -36.9248 -36.9248 -36.7424 -36.7424 -36.7334 -36.7334 -36.7108 -36.7108
   -36.7085 -36.7085 -36.6954 -36.6954 -36.6896 -36.6896 -31.7932 -31.7932
   -31.7321 -31.7321 -31.6734 -31.6734 -31.6369 -31.6369 -31.6271 -31.6271
   -31.5962 -31.5962 -31.4001 -31.4001 -31.3671 -31.3671 -31.3626 -31.3626
    -2.7231  -2.7230  -1.6963  -1.6963  -1.4497  -1.4497  -1.4465  -1.4465
    -1.1063  -1.1063  -0.7429  -0.7429  -0.5750  -0.5750  -0.4697  -0.4697
    -0.2224  -0.2224  -0.0651  -0.0651   0.0728   0.0728   0.3642   0.3642
     0.5078   0.5078   0.5472   0.5472   0.6923   0.6923   1.1315   1.1315
     1.4440   1.4440   1.5891   1.5891   2.2642   2.2642   2.3842   2.3842
     3.0245   3.0245   3.0897   3.0897   3.3468   3.3468   3.4127   3.4127
     3.5721

          k = 0.0155-0.0055 0.0000 ( 30963 PWs)   bands (ev):

   -65.0120 -64.9966 -64.7847 -64.7765 -64.7705 -64.7623 -55.4906 -55.4743
   -55.4340 -55.4174 -55.1711 -55.1552 -37.0342 -36.9903 -36.9872 -36.9794
   -36.9760 -36.8282 -36.8197 -36.8081 -36.7465 -36.7411 -36.7343 -36.7297
   -36.7140 -36.7132 -36.7035 -36.6780 -36.6143 -36.6111 -31.7990 -31.7857
   -31.7323 -31.7313 -31.7222 -31.6776 -31.6258 -31.6240 -31.5861 -31.5837
   -31.5791 -31.5305 -31.4390 -31.3775 -31.3752 -31.3729 -31.3583 -31.2888
    -4.1649  -2.6828  -2.3662  -2.2277  -2.1459  -2.0866  -1.9946  -1.9162
    -1.8699  -1.7745  -1.4171  -1.3145  -0.7865  -0.5365  -0.5287  -0.4180
    -0.4024  -0.3729  -0.3700  -0.2494  -0.1033  -0.0816   0.2611   0.5818
     0.5848   0.8698   0.9776   1.3393   1.5490   1.5600   1.6424   1.7116
     1.9546   2.3586   2.6554   2.6649   3.0343   3.2607   3.2747   3.3882
     3.4120   3.4396   3.4519   3.5069   3.6043   3.6275   3.7800   3.7980
     3.8230

          k = 0.0155 0.0109 0.0000 ( 30971 PWs)   bands (ev):

   -65.0122 -64.9963 -64.7849 -64.7767 -64.7703 -64.7620 -55.4910 -55.4740
   -55.4343 -55.4172 -55.1715 -55.1549 -37.0369 -36.9906 -36.9867 -36.9785
   -36.9746 -36.8245 -36.8223 -36.8104 -36.7463 -36.7441 -36.7309 -36.7289
   -36.7146 -36.7134 -36.7017 -36.6780 -36.6109 -36.6077 -31.7998 -31.7857
   -31.7351 -31.7325 -31.7223 -31.6817 -31.6276 -31.6247 -31.5886 -31.5850
   -31.5764 -31.5277 -31.4430 -31.3779 -31.3772 -31.3721 -31.3585 -31.2861
    -4.1474  -2.6698  -2.3545  -2.2106  -2.1445  -2.0728  -1.9807  -1.9323
    -1.8549  -1.7538  -1.4181  -1.3105  -0.8177  -0.5636  -0.5078  -0.3957
    -0.3943  -0.3483  -0.3449  -0.2554  -0.0846  -0.0459   0.3141   0.6130
     0.6182   0.9202   0.9663   1.3891   1.5124   1.6293   1.6777   1.7614
     1.8524   2.4505   2.5445   2.6767   2.9864   3.2257   3.3140   3.3589
     3.3697   3.4000   3.4456   3.5124   3.5183   3.5910   3.6571   3.6774
     3.7230

          k = 0.0155 0.0274 0.0000 ( 30968 PWs)   bands (ev):

   -65.0119 -64.9967 -64.7846 -64.7765 -64.7705 -64.7623 -55.4908 -55.4743
   -55.4342 -55.4175 -55.1715 -55.1552 -37.0318 -36.9901 -36.9840 -36.9774
   -36.9718 -36.8275 -36.8170 -36.8054 -36.7466 -36.7446 -36.7288 -36.7255
   -36.7167 -36.7111 -36.6994 -36.6784 -36.6139 -36.6107 -31.8002 -31.7862
   -31.7358 -31.7329 -31.7225 -31.6821 -31.6322 -31.6280 -31.5941 -31.5891
   -31.5801 -31.5315 -31.4432 -31.3812 -31.3801 -31.3705 -31.3589 -31.2899
    -4.0280  -2.5599  -2.2554  -2.1465  -2.0678  -2.0015  -1.9179  -1.8695
    -1.8196  -1.6946  -1.3349  -1.2486  -0.8071  -0.5596  -0.4496  -0.4000
    -0.3394  -0.2899  -0.2842  -0.1945  -0.0471  -0.0443   0.3721   0.5880
     0.6067   0.9020   1.0485   1.3182   1.4669   1.4968   1.6808   1.7050
     1.7450   2.2400   2.2970   2.5698   2.9311   3.0039   3.1425   3.1899
     3.2188   3.2986   3.3357   3.3584   3.4824   3.5385   3.5827   3.6397
     3.7071

          k = 0.0155 0.0438 0.0000 ( 31037 PWs)   bands (ev):

   -65.0110 -64.9975 -64.7839 -64.7757 -64.7712 -64.7630 -55.4902 -55.4753
   -55.4335 -55.4186 -55.1709 -55.1561 -37.0196 -36.9887 -36.9799 -36.9764
   -36.9681 -36.8370 -36.8047 -36.7936 -36.7475 -36.7428 -36.7293 -36.7199
   -36.7186 -36.7075 -36.6968 -36.6797 -36.6231 -36.6201 -31.8001 -31.7872
   -31.7333 -31.7331 -31.7225 -31.6787 -31.6390 -31.6326 -31.6013 -31.5945
   -31.5892 -31.5410 -31.4395 -31.3867 -31.3830 -31.3684 -31.3595 -31.2995
    -3.8145  -2.3690  -2.0869  -2.0790  -1.9206  -1.8882  -1.8109  -1.7523
    -1.7310  -1.6084  -1.1703  -1.1689  -0.7486  -0.5349  -0.4087  -0.3780
    -0.2386  -0.2309  -0.2288  -0.0899  -0.0685   0.0364   0.4196   0.5472
     0.5500   0.8222   1.1009   1.1431   1.2631   1.3966   1.6263   1.6713
     1.6769   1.8326   1.9594   2.4248   2.4697   2.8223   2.8677   3.0574
     3.0762   3.1420   3.2020   3.2579   3.4294   3.4896   3.5062   3.5441
     3.6947

          k = 0.0155 0.0602 0.0000 ( 31077 PWs)   bands (ev):

   -65.0097 -64.9988 -64.7827 -64.7745 -64.7724 -64.7641 -55.4890 -55.4768
   -55.4323 -55.4201 -55.1698 -55.1575 -37.0016 -36.9869 -36.9758 -36.9755
   -36.9643 -36.8528 -36.7866 -36.7762 -36.7478 -36.7397 -36.7299 -36.7239
   -36.7113 -36.7036 -36.6946 -36.6821 -36.6383 -36.6354 -31.7994 -31.7885
   -31.7337 -31.7298 -31.7193 -31.6712 -31.6466 -31.6370 -31.6087 -31.6021
   -31.5994 -31.5544 -31.4319 -31.3924 -31.3852 -31.3662 -31.3604 -31.3135
    -3.5215  -2.1292  -2.1211  -1.8488  -1.7572  -1.7098  -1.6703  -1.6298
    -1.5236  -1.5165  -1.1005  -0.9300  -0.6779  -0.5190  -0.4349  -0.3057
    -0.2178  -0.1735  -0.1682  -0.1162   0.0585   0.1939   0.3894   0.5132
     0.5647   0.7073   0.7876   0.9251   1.1580   1.3492   1.4142   1.5677
     1.5882   1.6425   1.7091   1.8850   2.3137   2.5545   2.6257   2.7751
     2.8040   3.1092   3.1335   3.2226   3.3343   3.4055   3.4459   3.5205
     3.5833

          k = 0.0155 0.0766 0.0000 ( 31058 PWs)   bands (ev):

   -65.0080 -65.0004 -64.7812 -64.7739 -64.7730 -64.7656 -55.4874 -55.4787
   -55.4307 -55.4220 -55.1682 -55.1592 -36.9849 -36.9803 -36.9760 -36.9720
   -36.9604 -36.8740 -36.7648 -36.7549 -36.7474 -36.7357 -36.7302 -36.7279
   -36.7055 -36.6993 -36.6938 -36.6857 -36.6586 -36.6554 -31.7981 -31.7898
   -31.7338 -31.7296 -31.7089 -31.6599 -31.6540 -31.6398 -31.6169 -31.6147
   -31.6022 -31.5701 -31.4209 -31.3971 -31.3851 -31.3642 -31.3615 -31.3303
    -3.1724  -2.2901  -1.8933  -1.6467  -1.6153  -1.5229  -1.4887  -1.4446
    -1.4346  -1.2684  -1.0537  -0.6537  -0.6221  -0.5322  -0.4767  -0.2969
    -0.2700  -0.2468  -0.1048  -0.0613   0.1387   0.2740   0.3890   0.4376
     0.5380   0.5721   0.7508   0.7950   0.8925   0.9182   1.0816   1.4376
     1.5020   1.5566   1.5824   1.7862   2.1627   2.2758   2.3864   2.5173
     2.7850   3.1204   3.1212   3.1562   3.2612   3.3194   3.3537   3.3711
     3.4876

          k = 0.0155-0.1040 0.0000 ( 31069 PWs)   bands (ev):

   -65.0061 -65.0023 -64.7794 -64.7756 -64.7712 -64.7674 -55.4854 -55.4807
   -55.4287 -55.4241 -55.1663 -55.1613 -36.9831 -36.9771 -36.9700 -36.9668
   -36.9479 -36.8993 -36.7463 -36.7447 -36.7370 -36.7311 -36.7273 -36.7251
   -36.7036 -36.6961 -36.6957 -36.6893 -36.6817 -36.6780 -31.7962 -31.7912
   -31.7334 -31.7305 -31.6931 -31.6609 -31.6451 -31.6398 -31.6310 -31.6190
   -31.6018 -31.5858 -31.4082 -31.3998 -31.3810 -31.3630 -31.3624 -31.3484
    -2.8015  -2.5741  -1.7201  -1.6167  -1.4540  -1.4263  -1.4231  -1.4146
    -1.1359  -1.0660  -1.0025  -0.6684  -0.5590  -0.4888  -0.4598  -0.3450
    -0.2961  -0.2362  -0.1191  -0.0085   0.0787   0.1543   0.3193   0.4087
     0.5517   0.5623   0.6081   0.6215   0.6665   0.6879   1.0408   1.2151
     1.4030   1.4477   1.5210   1.6628   2.2516   2.2528   2.3326   2.3390
     2.8523   3.0239   3.1262   3.1617   3.2122   3.2678   3.3038   3.4591
     3.4847

          k = 0.0155-0.0876 0.0000 ( 31080 PWs)   bands (ev):

   -65.0044 -65.0040 -64.7775 -64.7775 -64.7693 -64.7693 -55.4832 -55.4829
   -55.4264 -55.4262 -55.1641 -55.1634 -36.9817 -36.9790 -36.9700 -36.9667
   -36.9270 -36.9233 -36.7452 -36.7392 -36.7376 -36.7269 -36.7122 -36.7098
   -36.7093 -36.7059 -36.7001 -36.6974 -36.6906 -36.6860 -31.7939 -31.7926
   -31.7325 -31.7314 -31.6740 -31.6697 -31.6402 -31.6376 -31.6271 -31.6233
   -31.5978 -31.5976 -31.4004 -31.3970 -31.3702 -31.3666 -31.3648 -31.3607
    -2.9257  -2.4582  -1.7088  -1.6442  -1.5060  -1.4661  -1.4522  -1.4397
    -1.2097  -0.9808  -0.7734  -0.6667  -0.6049  -0.5604  -0.4869  -0.3572
    -0.2315  -0.2150  -0.1832   0.0399   0.1127   0.1313   0.2612   0.2863
     0.3758   0.3866   0.5424   0.5739   0.6628   0.8043   0.9396   1.1307
     1.3049   1.3577   1.5837   1.8064   2.1840   2.3080   2.4130   2.5395
     2.9873   3.0612   3.1870   3.2200   3.2632   3.3832   3.3886   3.4758
     3.5494

          k = 0.0155-0.0712 0.0000 ( 31090 PWs)   bands (ev):

   -65.0065 -65.0020 -64.7795 -64.7756 -64.7712 -64.7674 -55.4850 -55.4809
   -55.4284 -55.4241 -55.1654 -55.1618 -36.9815 -36.9809 -36.9720 -36.9704
   -36.9548 -36.8976 -36.7493 -36.7420 -36.7372 -36.7372 -36.7326 -36.7188
   -36.7123 -36.7014 -36.7001 -36.6830 -36.6810 -36.6763 -31.7939 -31.7916
   -31.7320 -31.7311 -31.6825 -31.6538 -31.6417 -31.6325 -31.6319 -31.6100
   -31.6006 -31.5887 -31.4008 -31.3891 -31.3813 -31.3672 -31.3597 -31.3524
    -3.2911  -2.2019  -1.9104  -1.6993  -1.6766  -1.6006  -1.5907  -1.5276
    -1.4606  -1.0804  -0.9560  -0.6455  -0.5762  -0.4937  -0.4167  -0.3645
    -0.3511  -0.2619  -0.0898  -0.0504   0.1261   0.1885   0.2118   0.2188
     0.2518   0.4241   0.5410   0.6403   0.7027   0.9072   1.1467   1.2266
     1.2377   1.6312   1.6317   1.7397   2.3101   2.5373   2.5748   2.8253
     2.9659   3.1454   3.3215   3.4186   3.4285   3.4601   3.4865   3.6286
     3.6584

          k = 0.0155-0.0547 0.0000 ( 31097 PWs)   bands (ev):

   -65.0084 -65.0001 -64.7812 -64.7739 -64.7730 -64.7657 -55.4869 -55.4786
   -55.4303 -55.4218 -55.1673 -55.1597 -36.9844 -36.9842 -36.9804 -36.9757
   -36.9713 -36.8739 -36.7705 -36.7607 -36.7442 -36.7374 -36.7354 -36.7209
   -36.7155 -36.7041 -36.7036 -36.6807 -36.6582 -36.6546 -31.7953 -31.7894
   -31.7322 -31.7294 -31.6967 -31.6472 -31.6384 -31.6362 -31.6204 -31.5979
   -31.5965 -31.5731 -31.4084 -31.3857 -31.3830 -31.3693 -31.3590 -31.3324
    -3.6250  -2.1706  -2.0812  -1.9270  -1.7963  -1.7508  -1.7507  -1.7155
    -1.6192  -1.3916  -1.0143  -0.9271  -0.5425  -0.5355  -0.3588  -0.3553
    -0.3421  -0.2730  -0.1981  -0.0914  -0.0108   0.0662   0.1737   0.2637
     0.3237   0.5017   0.7276   0.7446   1.0791   1.1343   1.2986   1.4345
     1.4639   1.5002   1.8454   2.0862   2.3384   2.6798   2.9417   3.0670
     3.1190   3.2758   3.4231   3.4332   3.5067   3.5373   3.6303   3.6498
     3.6531

          k = 0.0155-0.0383 0.0000 ( 31066 PWs)   bands (ev):

   -65.0100 -64.9985 -64.7828 -64.7745 -64.7724 -64.7642 -55.4885 -55.4767
   -55.4319 -55.4199 -55.1690 -55.1577 -37.0065 -36.9869 -36.9810 -36.9802
   -36.9744 -36.8536 -36.7925 -36.7821 -36.7456 -36.7375 -36.7334 -36.7289
   -36.7129 -36.7087 -36.7051 -36.6793 -36.6386 -36.6355 -31.7966 -31.7876
   -31.7322 -31.7278 -31.7096 -31.6595 -31.6310 -31.6307 -31.6035 -31.5908
   -31.5905 -31.5552 -31.4206 -31.3828 -31.3784 -31.3713 -31.3585 -31.3135
    -3.8948  -2.4162  -2.1361  -2.1065  -1.9331  -1.9255  -1.8748  -1.8388
    -1.6983  -1.6436  -1.1662  -1.1275  -0.6394  -0.5007  -0.4541  -0.3957
    -0.3138  -0.3041  -0.2376  -0.2186  -0.1006  -0.0754   0.1887   0.3633
     0.4244   0.8002   0.9076   0.9593   1.0795   1.4297   1.4844   1.5620
     1.6037   1.9342   2.0066   2.4195   2.5858   2.8319   2.9731   3.3372
     3.3637   3.3782   3.5078   3.5573   3.5972   3.6001   3.6272   3.6478
     3.7550

          k = 0.0155-0.0219 0.0000 ( 31028 PWs)   bands (ev):

   -65.0113 -64.9973 -64.7839 -64.7757 -64.7713 -64.7630 -55.4898 -55.4752
   -55.4331 -55.4184 -55.1702 -55.1562 -37.0238 -36.9890 -36.9852 -36.9800
   -36.9760 -36.8381 -36.8095 -36.7984 -36.7463 -36.7377 -36.7347 -36.7313
   -36.7123 -36.7123 -36.7049 -36.6785 -36.6237 -36.6206 -31.7979 -31.7863
   -31.7322 -31.7275 -31.7192 -31.6700 -31.6268 -31.6263 -31.5885 -31.5868
   -31.5857 -31.5400 -31.4313 -31.3794 -31.3756 -31.3726 -31.3582 -31.2983
    -4.0790  -2.5954  -2.2900  -2.1857  -2.0717  -2.0376  -1.9585  -1.8657
    -1.8198  -1.7541  -1.3320  -1.2463  -0.7250  -0.5177  -0.4636  -0.4631
    -0.3867  -0.3415  -0.3248  -0.1969  -0.1478  -0.1045   0.2189   0.4949
     0.5130   0.8419   0.9969   1.1916   1.2936   1.5647   1.5906   1.5972
     1.9851   2.0180   2.4953   2.5553   2.9888   3.0206   3.0540   3.3358
     3.3863   3.4322   3.4873   3.5401   3.6990   3.7339   3.7486   3.7589
     3.8470

          k = 0.0310-0.0109 0.0000 ( 31003 PWs)   bands (ev):

   -65.0112 -64.9974 -64.7839 -64.7757 -64.7712 -64.7630 -55.4899 -55.4752
   -55.4332 -55.4184 -55.1704 -55.1562 -37.0227 -36.9889 -36.9837 -36.9790
   -36.9739 -36.8378 -36.8083 -36.7971 -36.7457 -36.7423 -36.7308 -36.7282
   -36.7147 -36.7109 -36.7023 -36.6787 -36.6235 -36.6205 -31.7985 -31.7866
   -31.7326 -31.7286 -31.7205 -31.6723 -31.6301 -31.6278 -31.5912 -31.5883
   -31.5881 -31.5402 -31.4336 -31.3802 -31.3787 -31.3714 -31.3586 -31.2986
    -4.0117  -2.5368  -2.2353  -2.1596  -2.0323  -1.9997  -1.9217  -1.8360
    -1.7963  -1.7168  -1.2906  -1.2282  -0.7402  -0.5013  -0.4657  -0.4271
    -0.3364  -0.3302  -0.2998  -0.1635  -0.1335  -0.0668   0.2733   0.5010
     0.5213   0.8339   1.0478   1.1902   1.2546   1.5618   1.5976   1.6168
     1.8484   1.9723   2.3181   2.5438   2.8250   2.9743   3.0598   3.2928
     3.3429   3.3643   3.4173   3.4727   3.5302   3.5912   3.6250   3.7781
     3.8121

          k = 0.0310 0.0055 0.0000 ( 30968 PWs)   bands (ev):

   -65.0119 -64.9967 -64.7846 -64.7765 -64.7705 -64.7623 -55.4908 -55.4743
   -55.4342 -55.4175 -55.1715 -55.1552 -37.0318 -36.9901 -36.9840 -36.9774
   -36.9718 -36.8275 -36.8170 -36.8054 -36.7466 -36.7446 -36.7288 -36.7255
   -36.7167 -36.7111 -36.6994 -36.6784 -36.6139 -36.6107 -31.8002 -31.7862
   -31.7358 -31.7329 -31.7225 -31.6821 -31.6322 -31.6280 -31.5941 -31.5891
   -31.5801 -31.5315 -31.4432 -31.3812 -31.3801 -31.3705 -31.3589 -31.2899
    -4.0280  -2.5599  -2.2554  -2.1465  -2.0678  -2.0015  -1.9179  -1.8695
    -1.8196  -1.6946  -1.3349  -1.2486  -0.8071  -0.5596  -0.4496  -0.4000
    -0.3394  -0.2899  -0.2842  -0.1945  -0.0471  -0.0443   0.3721   0.5880
     0.6067   0.9020   1.0485   1.3182   1.4669   1.4968   1.6808   1.7050
     1.7450   2.2400   2.2970   2.5698   2.9311   3.0040   3.1425   3.1899
     3.2188   3.2986   3.3357   3.3584   3.4824   3.5385   3.5827   3.6397
     3.7071

          k = 0.0310 0.0219 0.0000 ( 31017 PWs)   bands (ev):

   -65.0120 -64.9965 -64.7849 -64.7767 -64.7703 -64.7620 -55.4913 -55.4741
   -55.4346 -55.4173 -55.1720 -55.1548 -37.0333 -36.9903 -36.9820 -36.9756
   -36.9683 -36.8235 -36.8184 -36.8065 -36.7492 -36.7435 -36.7275 -36.7208
   -36.7192 -36.7094 -36.6963 -36.6786 -36.6103 -36.6071 -31.8017 -31.7865
   -31.7418 -31.7333 -31.7224 -31.6883 -31.6372 -31.6310 -31.5997 -31.5928
   -31.5782 -31.5295 -31.4491 -31.3857 -31.3819 -31.3689 -31.3593 -31.2878
    -3.9435  -2.4876  -2.1946  -2.0781  -2.0306  -1.9440  -1.8688  -1.8585
    -1.7863  -1.6321  -1.2970  -1.2024  -0.8314  -0.5757  -0.4039  -0.4030
    -0.3241  -0.2054  -0.1940  -0.1733  -0.0065   0.0096   0.4789   0.6253
     0.6553   0.9776   1.0602   1.3505   1.4453   1.4814   1.5199   1.7271
     1.7933   2.1103   2.2592   2.4694   2.8564   2.8589   3.0454   3.0707
     3.1136   3.1856   3.1871   3.1994   3.4597   3.4602   3.5112   3.5687
     3.7128

          k = 0.0310 0.0383 0.0000 ( 31050 PWs)   bands (ev):

   -65.0117 -64.9968 -64.7846 -64.7764 -64.7705 -64.7622 -55.4912 -55.4745
   -55.4345 -55.4178 -55.1721 -55.1551 -37.0275 -36.9896 -36.9786 -36.9740
   -36.9641 -36.8263 -36.8124 -36.8006 -36.7511 -36.7411 -36.7268 -36.7224
   -36.7149 -36.7066 -36.6931 -36.6795 -36.6132 -36.6101 -31.8026 -31.7872
   -31.7437 -31.7338 -31.7227 -31.6900 -31.6440 -31.6356 -31.6068 -31.5980
   -31.5821 -31.5335 -31.4505 -31.3914 -31.3847 -31.3670 -31.3599 -31.2919
    -3.7642  -2.3323  -2.0577  -1.9956  -1.9275  -1.8412  -1.7814  -1.7603
    -1.7306  -1.5393  -1.1785  -1.1294  -0.8024  -0.5618  -0.4089  -0.3488
    -0.2446  -0.1782  -0.0716  -0.0687   0.0221   0.0564   0.5638   0.6373
     0.6492   0.9179   1.1808   1.2861   1.2912   1.3035   1.4700   1.7567
     1.7687   1.8574   2.0154   2.3248   2.5030   2.7393   2.7864   2.9087
     2.9607   2.9997   3.0232   3.0825   3.3278   3.4447   3.4870   3.5644
     3.5687

          k = 0.0310 0.0547 0.0000 ( 31069 PWs)   bands (ev):

   -65.0108 -64.9976 -64.7839 -64.7757 -64.7712 -64.7630 -55.4906 -55.4755
   -55.4339 -55.4188 -55.1715 -55.1559 -37.0152 -36.9883 -36.9748 -36.9729
   -36.9600 -36.8360 -36.7998 -36.7886 -36.7520 -36.7377 -36.7274 -36.7253
   -36.7090 -36.7028 -36.6907 -36.6814 -36.6227 -36.6197 -31.8027 -31.7881
   -31.7408 -31.7342 -31.7231 -31.6869 -31.6514 -31.6403 -31.6136 -31.6029
   -31.5909 -31.5426 -31.4471 -31.3971 -31.3873 -31.3650 -31.3606 -31.3011
    -3.5018  -2.1193  -1.9896  -1.8529  -1.7791  -1.7126  -1.6264  -1.6222
    -1.6120  -1.4376  -1.0639  -0.9854  -0.7404  -0.5435  -0.4233  -0.2926
    -0.1444  -0.1258  -0.0211  -0.0178   0.0568   0.1777   0.5008   0.6687
     0.6917   0.7973   0.9807   1.0414   1.0914   1.4564   1.5252   1.5916
     1.6049   1.7060   1.7838   1.9708   2.2048   2.5090   2.5181   2.6223
     2.7176   2.8593   2.9612   3.0384   3.2250   3.2880   3.4769   3.4785
     3.5256

          k = 0.0310 0.0712 0.0000 ( 31057 PWs)   bands (ev):

   -65.0095 -64.9989 -64.7827 -64.7745 -64.7724 -64.7641 -55.4894 -55.4769
   -55.4327 -55.4202 -55.1704 -55.1573 -36.9974 -36.9867 -36.9726 -36.9717
   -36.9571 -36.8523 -36.7821 -36.7714 -36.7519 -36.7334 -36.7312 -36.7256
   -36.7052 -36.6977 -36.6907 -36.6839 -36.6383 -36.6355 -31.8018 -31.7892
   -31.7344 -31.7338 -31.7224 -31.6786 -31.6573 -31.6438 -31.6186 -31.6060
   -31.6034 -31.5556 -31.4385 -31.4014 -31.3887 -31.3632 -31.3616 -31.3144
    -3.1750  -2.1164  -1.8902  -1.6227  -1.5832  -1.5831  -1.4757  -1.4674
    -1.3792  -1.3572  -1.0110  -0.7286  -0.7071  -0.5530  -0.4486  -0.2373
    -0.0989  -0.0972  -0.0724  -0.0427   0.1221   0.3700   0.3717   0.5949
     0.6326   0.7338   0.8000   0.8361   0.9423   1.1357   1.3166   1.4564
     1.5140   1.5597   1.6538   1.7839   2.0907   2.1351   2.3028   2.4893
     2.5737   2.8161   2.9639   3.0251   3.1183   3.2078   3.3196   3.3250
     3.4688

          k = 0.0310-0.1095 0.0000 ( 31129 PWs)   bands (ev):

   -65.0078 -65.0006 -64.7812 -64.7739 -64.7730 -64.7656 -55.4877 -55.4787
   -55.4309 -55.4220 -55.1687 -55.1590 -36.9851 -36.9761 -36.9734 -36.9698
   -36.9557 -36.8743 -36.7608 -36.7509 -36.7508 -36.7350 -36.7285 -36.7250
   -36.7039 -36.6947 -36.6924 -36.6861 -36.6594 -36.6565 -31.8000 -31.7902
   -31.7343 -31.7297 -31.7136 -31.6650 -31.6605 -31.6452 -31.6215 -31.6176
   -31.6067 -31.5711 -31.4250 -31.4033 -31.3882 -31.3630 -31.3616 -31.3307
    -2.8114  -2.3631  -1.6990  -1.4979  -1.4967  -1.3687  -1.3470  -1.3267
    -1.2657  -1.1087  -0.9998  -0.7165  -0.5958  -0.4540  -0.4137  -0.2553
    -0.2039  -0.1771  -0.0628  -0.0153   0.0893   0.2563   0.3803   0.4480
     0.5631   0.6015   0.7350   0.7364   0.7560   0.7965   0.9491   1.2625
     1.3343   1.4230   1.5094   1.7176   2.1624   2.1859   2.2248   2.2792
     2.6360   2.8480   2.9543   3.0991   3.1469   3.1792   3.2878   3.3845
     3.3893

          k = 0.0310-0.0931 0.0000 ( 31117 PWs)   bands (ev):

   -65.0059 -65.0025 -64.7794 -64.7756 -64.7712 -64.7674 -55.4856 -55.4807
   -55.4288 -55.4241 -55.1667 -55.1610 -36.9837 -36.9753 -36.9695 -36.9622
   -36.9469 -36.9005 -36.7489 -36.7405 -36.7400 -36.7259 -36.7234 -36.7213
   -36.7044 -36.7017 -36.6908 -36.6890 -36.6829 -36.6801 -31.7974 -31.7912
   -31.7337 -31.7299 -31.6952 -31.6607 -31.6464 -31.6441 -31.6352 -31.6186
   -31.6048 -31.5880 -31.4075 -31.4024 -31.3850 -31.3646 -31.3604 -31.3488
    -2.6918  -2.4529  -1.5883  -1.5246  -1.4859  -1.3891  -1.3631  -1.3388
    -1.0871  -0.9238  -0.8595  -0.7266  -0.6344  -0.4199  -0.3617  -0.3085
    -0.2187  -0.1228  -0.0520  -0.0515   0.0547   0.1657   0.2577   0.2828
     0.2890   0.3556   0.5687   0.6069   0.6797   0.8514   0.8658   0.9764
     1.1693   1.2468   1.5598   1.8326   2.1344   2.1885   2.2924   2.5070
     2.7810   2.9425   3.0613   3.2278   3.2564   3.3054   3.3097   3.3636
     3.5586

          k = 0.0310-0.0766 0.0000 ( 31097 PWs)   bands (ev):

   -65.0046 -65.0039 -64.7776 -64.7775 -64.7693 -64.7693 -55.4833 -55.4828
   -55.4265 -55.4262 -55.1644 -55.1631 -36.9827 -36.9779 -36.9705 -36.9648
   -36.9291 -36.9227 -36.7468 -36.7424 -36.7323 -36.7195 -36.7133 -36.7110
   -36.7099 -36.7041 -36.7033 -36.7026 -36.6923 -36.6831 -31.7946 -31.7922
   -31.7326 -31.7307 -31.6724 -31.6634 -31.6461 -31.6411 -31.6242 -31.6170
   -31.6025 -31.6008 -31.3989 -31.3916 -31.3757 -31.3678 -31.3665 -31.3594
    -3.0517  -2.1572  -1.6883  -1.6029  -1.5699  -1.5447  -1.4888  -1.4477
    -1.2890  -0.7878  -0.7818  -0.6445  -0.6245  -0.5359  -0.3687  -0.3054
    -0.2302  -0.1784  -0.1170   0.0326   0.0736   0.1121   0.1506   0.1820
     0.2390   0.3007   0.3704   0.5549   0.6314   0.6416   0.9770   1.0954
     1.1345   1.3507   1.6595   1.7380   2.1885   2.4439   2.4473   2.8108
     2.9644   3.0680   3.0964   3.2243   3.3714   3.4415   3.4713   3.4718
     3.6077

          k = 0.0310-0.0602 0.0000 ( 31062 PWs)   bands (ev):

   -65.0066 -65.0019 -64.7795 -64.7757 -64.7712 -64.7675 -55.4849 -55.4809
   -55.4283 -55.4241 -55.1652 -55.1620 -36.9819 -36.9810 -36.9721 -36.9704
   -36.9577 -36.8974 -36.7499 -36.7441 -36.7374 -36.7345 -36.7318 -36.7192
   -36.7131 -36.7071 -36.6997 -36.6813 -36.6809 -36.6766 -31.7934 -31.7918
   -31.7314 -31.7311 -31.6776 -31.6479 -31.6434 -31.6369 -31.6282 -31.6022
   -31.6019 -31.5943 -31.3943 -31.3859 -31.3842 -31.3686 -31.3588 -31.3555
    -3.3948  -1.9844  -1.9441  -1.7667  -1.7591  -1.6544  -1.6463  -1.5727
    -1.5326  -1.1119  -0.8231  -0.7242  -0.6216  -0.4377  -0.4143  -0.3287
    -0.2285  -0.2043  -0.1165  -0.0141   0.0292   0.0737   0.0943   0.1473
     0.1676   0.2330   0.5398   0.7116   0.7203   0.9660   1.0085   1.1090
     1.3807   1.4891   1.7311   1.8761   2.2215   2.6009   2.8431   2.9756
     3.1097   3.1427   3.2681   3.3379   3.4722   3.4734   3.5078   3.6369
     3.6764

          k = 0.0310-0.0438 0.0000 ( 31090 PWs)   bands (ev):

   -65.0085 -65.0001 -64.7812 -64.7739 -64.7730 -64.7657 -55.4868 -55.4786
   -55.4302 -55.4218 -55.1672 -55.1597 -36.9844 -36.9841 -36.9811 -36.9762
   -36.9736 -36.8739 -36.7712 -36.7615 -36.7451 -36.7361 -36.7333 -36.7262
   -36.7113 -36.7077 -36.7047 -36.6800 -36.6582 -36.6546 -31.7949 -31.7894
   -31.7319 -31.7293 -31.6943 -31.6444 -31.6368 -31.6337 -31.6235 -31.5959
   -31.5935 -31.5751 -31.4050 -31.3872 -31.3803 -31.3703 -31.3585 -31.3332
    -3.6842  -2.2085  -2.0027  -1.9693  -1.8406  -1.8072  -1.7805  -1.7543
    -1.6468  -1.4130  -0.9687  -0.9676  -0.5667  -0.5130  -0.4121  -0.3492
    -0.2664  -0.2549  -0.2507  -0.0959  -0.0633   0.0072   0.1202   0.1994
     0.3269   0.4974   0.7508   0.7685   1.0519   1.1076   1.2403   1.4190
     1.4998   1.5581   1.9457   2.1745   2.2908   2.7292   2.9525   3.2334
     3.2577   3.3346   3.4422   3.4514   3.4556   3.5811   3.5816   3.6482
     3.7020

          k = 0.0310-0.0274 0.0000 ( 31066 PWs)   bands (ev):

   -65.0100 -64.9985 -64.7828 -64.7745 -64.7724 -64.7642 -55.4885 -55.4767
   -55.4319 -55.4199 -55.1690 -55.1577 -37.0065 -36.9869 -36.9810 -36.9802
   -36.9744 -36.8536 -36.7925 -36.7821 -36.7456 -36.7375 -36.7334 -36.7289
   -36.7129 -36.7087 -36.7051 -36.6793 -36.6386 -36.6355 -31.7966 -31.7876
   -31.7322 -31.7278 -31.7096 -31.6595 -31.6310 -31.6307 -31.6035 -31.5908
   -31.5905 -31.5551 -31.4206 -31.3828 -31.3784 -31.3713 -31.3585 -31.3135
    -3.8948  -2.4162  -2.1361  -2.1065  -1.9331  -1.9255  -1.8748  -1.8388
    -1.6983  -1.6436  -1.1662  -1.1275  -0.6394  -0.5007  -0.4541  -0.3957
    -0.3138  -0.3041  -0.2376  -0.2186  -0.1006  -0.0754   0.1887   0.3633
     0.4244   0.8002   0.9076   0.9593   1.0795   1.4297   1.4844   1.5620
     1.6037   1.9342   2.0066   2.4195   2.5858   2.8319   2.9731   3.3373
     3.3637   3.3782   3.5078   3.5573   3.5973   3.6002   3.6272   3.6478
     3.7555

          k = 0.0465-0.0164 0.0000 ( 31037 PWs)   bands (ev):

   -65.0099 -64.9986 -64.7827 -64.7745 -64.7724 -64.7642 -55.4887 -55.4767
   -55.4321 -55.4199 -55.1693 -55.1576 -37.0048 -36.9869 -36.9790 -36.9786
   -36.9707 -36.8533 -36.7904 -36.7800 -36.7442 -36.7425 -36.7323 -36.7207
   -36.7177 -36.7068 -36.7003 -36.6802 -36.6385 -36.6354 -31.7976 -31.7879
   -31.7329 -31.7283 -31.7137 -31.6640 -31.6369 -31.6327 -31.6027 -31.5978
   -31.5937 -31.5544 -31.4251 -31.3838 -31.3832 -31.3693 -31.3592 -31.3133
    -3.7676  -2.3158  -2.1178  -2.0366  -1.8756  -1.8485  -1.8067  -1.7570
    -1.6344  -1.5999  -1.1348  -1.0844  -0.6597  -0.4660  -0.4429  -0.3752
    -0.3103  -0.2469  -0.2146  -0.1771  -0.0391   0.0310   0.2889   0.4229
     0.4306   0.7574   0.8590   0.9437   1.2148   1.4643   1.4727   1.5272
     1.5687   1.7624   1.8213   2.3178   2.4188   2.7584   2.9250   3.1005
     3.1587   3.3193   3.3738   3.3882   3.4587   3.4985   3.5526   3.5828
     3.7165

          k = 0.0465-0.0000 0.0000 ( 31037 PWs)   bands (ev):

   -65.0110 -64.9975 -64.7839 -64.7757 -64.7712 -64.7630 -55.4902 -55.4753
   -55.4335 -55.4186 -55.1709 -55.1561 -37.0196 -36.9887 -36.9799 -36.9764
   -36.9681 -36.8370 -36.8047 -36.7936 -36.7475 -36.7428 -36.7293 -36.7199
   -36.7186 -36.7075 -36.6968 -36.6797 -36.6231 -36.6201 -31.8001 -31.7872
   -31.7333 -31.7331 -31.7225 -31.6787 -31.6390 -31.6326 -31.6013 -31.5945
   -31.5892 -31.5410 -31.4395 -31.3867 -31.3830 -31.3684 -31.3595 -31.2995
    -3.8145  -2.3690  -2.0869  -2.0790  -1.9206  -1.8882  -1.8109  -1.7523
    -1.7310  -1.6084  -1.1703  -1.1689  -0.7486  -0.5349  -0.4087  -0.3780
    -0.2386  -0.2309  -0.2288  -0.0899  -0.0685   0.0364   0.4196   0.5472
     0.5500   0.8222   1.1009   1.1431   1.2631   1.3966   1.6263   1.6713
     1.6769   1.8326   1.9595   2.4248   2.4697   2.8223   2.8677   3.0574
     3.0762   3.1420   3.2020   3.2579   3.4294   3.4896   3.5062   3.5441
     3.6947

          k = 0.0465 0.0164 0.0000 ( 31050 PWs)   bands (ev):

   -65.0117 -64.9968 -64.7846 -64.7764 -64.7705 -64.7622 -55.4912 -55.4745
   -55.4345 -55.4178 -55.1721 -55.1551 -37.0275 -36.9896 -36.9786 -36.9740
   -36.9641 -36.8263 -36.8124 -36.8006 -36.7511 -36.7411 -36.7268 -36.7224
   -36.7149 -36.7066 -36.6931 -36.6795 -36.6132 -36.6101 -31.8026 -31.7872
   -31.7437 -31.7338 -31.7227 -31.6900 -31.6440 -31.6356 -31.6068 -31.5980
   -31.5821 -31.5335 -31.4505 -31.3914 -31.3847 -31.3670 -31.3599 -31.2919
    -3.7642  -2.3323  -2.0577  -1.9956  -1.9275  -1.8412  -1.7814  -1.7603
    -1.7306  -1.5393  -1.1785  -1.1294  -0.8024  -0.5618  -0.4089  -0.3488
    -0.2446  -0.1782  -0.0716  -0.0687   0.0221   0.0564   0.5638   0.6373
     0.6492   0.9179   1.1808   1.2861   1.2912   1.3035   1.4700   1.7567
     1.7687   1.8574   2.0154   2.3248   2.5030   2.7393   2.7864   2.9087
     2.9607   2.9997   3.0232   3.0825   3.3278   3.4447   3.4870   3.5644
     3.5687

          k = 0.0465 0.0328 0.0000 ( 31090 PWs)   bands (ev):

   -65.0118 -64.9966 -64.7848 -64.7767 -64.7702 -64.7620 -55.4918 -55.4743
   -55.4351 -55.4176 -55.1727 -55.1547 -37.0285 -36.9896 -36.9759 -36.9717
   -36.9593 -36.8221 -36.8130 -36.8010 -36.7537 -36.7385 -36.7264 -36.7239
   -36.7104 -36.7041 -36.6896 -36.6797 -36.6096 -36.6062 -31.8046 -31.7876
   -31.7509 -31.7342 -31.7223 -31.6972 -31.6512 -31.6404 -31.6136 -31.6029
   -31.5807 -31.5320 -31.4572 -31.3972 -31.3875 -31.3653 -31.3602 -31.2902
    -3.6215  -2.2171  -1.9856  -1.8735  -1.8706  -1.7496  -1.7360  -1.6975
    -1.6639  -1.4353  -1.1085  -1.0533  -0.8098  -0.5533  -0.4062  -0.2933
    -0.2119  -0.1070  -0.0220   0.0909   0.1002   0.1077   0.6593   0.6933
     0.7215   0.9696   1.1615   1.2583   1.2612   1.2852   1.3620   1.6620
     1.7908   1.8209   1.9738   2.1694   2.3011   2.5537   2.6677   2.6746
     2.7822   2.8146   2.9223   2.9743   3.2460   3.3711   3.3767   3.4516
     3.5535

          k = 0.0465 0.0493 0.0000 ( 31059 PWs)   bands (ev):

   -65.0114 -64.9970 -64.7846 -64.7764 -64.7705 -64.7622 -55.4917 -55.4747
   -55.4350 -55.4180 -55.1727 -55.1550 -37.0226 -36.9888 -36.9727 -36.9701
   -36.9547 -36.8249 -36.8069 -36.7951 -36.7554 -36.7348 -36.7298 -36.7226
   -36.7069 -36.7000 -36.6875 -36.6804 -36.6126 -36.6093 -31.8056 -31.7883
   -31.7528 -31.7345 -31.7224 -31.6990 -31.6586 -31.6455 -31.6200 -31.6076
   -31.5845 -31.5359 -31.4588 -31.4028 -31.3903 -31.3636 -31.3607 -31.2941
    -3.3959  -2.0438  -1.8798  -1.8135  -1.7640  -1.6306  -1.6071  -1.5974
    -1.5245  -1.3167  -0.9874  -0.9668  -0.7717  -0.5294  -0.4068  -0.2434
    -0.1112  -0.0790   0.0881   0.1209   0.1603   0.2284   0.5554   0.7402
     0.8320   0.8960   0.9984   1.0609   1.1956   1.3951   1.4361   1.4747
     1.7059   1.7536   1.8769   1.9584   2.0350   2.3255   2.3808   2.4287
     2.5944   2.6351   2.8504   2.8998   3.1301   3.2014   3.3421   3.4208
     3.4723

          k = 0.0465 0.0657 0.0000 ( 31075 PWs)   bands (ev):

   -65.0105 -64.9978 -64.7838 -64.7757 -64.7712 -64.7629 -55.4910 -55.4756
   -55.4343 -55.4190 -55.1721 -55.1558 -37.0106 -36.9877 -36.9700 -36.9695
   -36.9516 -36.8351 -36.7948 -36.7834 -36.7559 -36.7337 -36.7304 -36.7214
   -36.7052 -36.6948 -36.6887 -36.6808 -36.6224 -36.6193 -31.8054 -31.7891
   -31.7487 -31.7347 -31.7228 -31.6948 -31.6643 -31.6494 -31.6245 -31.6109
   -31.5929 -31.5446 -31.4543 -31.4069 -31.3922 -31.3621 -31.3615 -31.3029
    -3.1024  -1.9042  -1.8428  -1.7646  -1.5908  -1.5020  -1.4450  -1.3856
    -1.3588  -1.2155  -0.9372  -0.7698  -0.7427  -0.5251  -0.4168  -0.1879
    -0.0644   0.0042   0.0745   0.1176   0.2017   0.3249   0.4012   0.7248
     0.7298   0.7543   0.8513   0.9557   1.1105   1.3137   1.3651   1.4316
     1.4800   1.5637   1.6979   1.8403   1.9476   1.9803   2.1981   2.3030
     2.4522   2.5125   2.8268   2.8801   3.0140   3.1012   3.1792   3.3073
     3.4744

          k = 0.0465-0.1150 0.0000 ( 31083 PWs)   bands (ev):

   -65.0092 -64.9991 -64.7827 -64.7745 -64.7723 -64.7641 -55.4897 -55.4770
   -55.4329 -55.4204 -55.1709 -55.1571 -36.9934 -36.9864 -36.9700 -36.9684
   -36.9508 -36.8520 -36.7778 -36.7671 -36.7551 -36.7372 -36.7255 -36.7207
   -36.7049 -36.6933 -36.6900 -36.6817 -36.6386 -36.6359 -31.8040 -31.7899
   -31.7388 -31.7347 -31.7227 -31.6843 -31.6666 -31.6512 -31.6258 -31.6119
   -31.6052 -31.5571 -31.4436 -31.4085 -31.3927 -31.3625 -31.3609 -31.3157
    -2.7622  -2.1112  -1.6728  -1.6561  -1.3870  -1.3563  -1.2998  -1.2166
    -1.1718  -1.1171  -0.9137  -0.7583  -0.5671  -0.5436  -0.4252  -0.1326
    -0.0414  -0.0090   0.0357   0.0384   0.0645   0.3032   0.4967   0.5221
     0.5431   0.5529   0.8510   0.8999   0.9266   0.9544   1.0006   1.2457
     1.2678   1.3939   1.5971   1.7406   1.9604   2.0511   2.1100   2.2681
     2.3695   2.5263   2.8853   2.9492   2.9808   3.1591   3.2079   3.2226
     3.4873

          k = 0.0465-0.0985 0.0000 ( 31107 PWs)   bands (ev):

   -65.0076 -65.0007 -64.7811 -64.7739 -64.7730 -64.7656 -55.4879 -55.4787
   -55.4311 -55.4221 -55.1691 -55.1588 -36.9851 -36.9725 -36.9715 -36.9682
   -36.9527 -36.8747 -36.7573 -36.7532 -36.7475 -36.7396 -36.7205 -36.7203
   -36.7058 -36.7000 -36.6863 -36.6843 -36.6605 -36.6577 -31.8015 -31.7905
   -31.7344 -31.7301 -31.7155 -31.6678 -31.6649 -31.6505 -31.6239 -31.6201
   -31.6105 -31.5727 -31.4268 -31.4072 -31.3915 -31.3639 -31.3600 -31.3316
    -2.4080  -2.4076  -1.6473  -1.5309  -1.3366  -1.2525  -1.2152  -1.1800
    -1.0758  -0.9654  -0.8200  -0.7761  -0.6412  -0.4098  -0.2773  -0.1621
    -0.1463  -0.0812  -0.0491  -0.0304   0.0207   0.2994   0.3103   0.3286
     0.3618   0.4730   0.6384   0.6481   0.7440   0.8239   0.8479   0.9781
     0.9900   1.2690   1.5461   1.8740   1.9930   2.0944   2.0998   2.3990
     2.5315   2.6338   2.9505   3.0860   3.1977   3.2304   3.3192   3.4129
     3.5355

          k = 0.0465-0.0821 0.0000 ( 31099 PWs)   bands (ev):

   -65.0058 -65.0026 -64.7794 -64.7756 -64.7712 -64.7674 -55.4857 -55.4807
   -55.4289 -55.4241 -55.1669 -55.1608 -36.9840 -36.9743 -36.9690 -36.9583
   -36.9474 -36.9014 -36.7503 -36.7427 -36.7363 -36.7240 -36.7185 -36.7157
   -36.7078 -36.7076 -36.6887 -36.6873 -36.6839 -36.6822 -31.7982 -31.7912
   -31.7337 -31.7294 -31.6955 -31.6594 -31.6476 -31.6463 -31.6387 -31.6173
   -31.6072 -31.5904 -31.4053 -31.4033 -31.3892 -31.3655 -31.3593 -31.3496
    -2.7519  -2.0894  -1.7135  -1.4913  -1.4349  -1.3610  -1.3378  -1.2876
    -1.1086  -0.7905  -0.7526  -0.6819  -0.5483  -0.4091  -0.3354  -0.2208
    -0.1187  -0.1056  -0.0696  -0.0132   0.0550   0.0949   0.1359   0.1493
     0.2178   0.2635   0.3420   0.5399   0.6369   0.7869   0.8331   0.9768
     1.0287   1.0544   1.7333   1.7487   2.0046   2.2663   2.2834   2.7109
     2.7419   2.8129   3.0437   3.2341   3.2445   3.2876   3.4187   3.5018
     3.5497

          k = 0.0465-0.0657 0.0000 ( 31082 PWs)   bands (ev):

   -65.0046 -65.0038 -64.7776 -64.7775 -64.7693 -64.7693 -55.4833 -55.4828
   -55.4265 -55.4262 -55.1645 -55.1630 -36.9830 -36.9775 -36.9705 -36.9640
   -36.9299 -36.9225 -36.7473 -36.7437 -36.7286 -36.7147 -36.7145 -36.7118
   -36.7099 -36.7097 -36.7042 -36.7001 -36.6942 -36.6820 -31.7948 -31.7921
   -31.7326 -31.7304 -31.6711 -31.6580 -31.6514 -31.6432 -31.6222 -31.6098
   -31.6092 -31.6027 -31.3979 -31.3867 -31.3806 -31.3687 -31.3671 -31.3589
    -3.0943  -1.8852  -1.8265  -1.6708  -1.5560  -1.5213  -1.5027  -1.4678
    -1.3179  -0.7726  -0.6937  -0.6723  -0.6481  -0.3827  -0.3319  -0.2749
    -0.1395  -0.1366  -0.0782  -0.0765  -0.0514  -0.0045   0.0340   0.1612
     0.1985   0.2944   0.3633   0.5005   0.6152   0.6826   0.8889   1.0073
     1.2013   1.3492   1.5788   1.8566   2.0846   2.4625   2.5617   2.9574
     3.0013   3.0357   3.0761   3.1311   3.3676   3.4395   3.4706   3.5046
     3.6167

          k = 0.0465-0.0493 0.0000 ( 31062 PWs)   bands (ev):

   -65.0066 -65.0019 -64.7795 -64.7757 -64.7712 -64.7675 -55.4849 -55.4809
   -55.4283 -55.4241 -55.1652 -55.1620 -36.9819 -36.9810 -36.9721 -36.9704
   -36.9577 -36.8974 -36.7499 -36.7441 -36.7374 -36.7345 -36.7318 -36.7192
   -36.7131 -36.7071 -36.6997 -36.6813 -36.6809 -36.6766 -31.7934 -31.7918
   -31.7314 -31.7311 -31.6776 -31.6479 -31.6434 -31.6369 -31.6282 -31.6022
   -31.6019 -31.5943 -31.3943 -31.3859 -31.3842 -31.3686 -31.3588 -31.3555
    -3.3948  -1.9844  -1.9441  -1.7667  -1.7591  -1.6544  -1.6463  -1.5727
    -1.5326  -1.1119  -0.8231  -0.7242  -0.6216  -0.4377  -0.4143  -0.3287
    -0.2285  -0.2043  -0.1165  -0.0141   0.0292   0.0737   0.0943   0.1473
     0.1676   0.2330   0.5398   0.7116   0.7203   0.9660   1.0085   1.1090
     1.3807   1.4891   1.7311   1.8761   2.2215   2.6009   2.8431   2.9756
     3.1097   3.1427   3.2681   3.3379   3.4722   3.4734   3.5078   3.6369
     3.6765

          k = 0.0465-0.0328 0.0000 ( 31097 PWs)   bands (ev):

   -65.0084 -65.0001 -64.7812 -64.7739 -64.7730 -64.7657 -55.4869 -55.4786
   -55.4303 -55.4218 -55.1673 -55.1597 -36.9844 -36.9842 -36.9804 -36.9757
   -36.9713 -36.8739 -36.7705 -36.7607 -36.7442 -36.7374 -36.7354 -36.7209
   -36.7155 -36.7041 -36.7036 -36.6807 -36.6582 -36.6546 -31.7953 -31.7894
   -31.7322 -31.7294 -31.6967 -31.6472 -31.6384 -31.6362 -31.6204 -31.5979
   -31.5965 -31.5731 -31.4084 -31.3857 -31.3830 -31.3693 -31.3590 -31.3324
    -3.6250  -2.1706  -2.0812  -1.9270  -1.7963  -1.7508  -1.7507  -1.7155
    -1.6192  -1.3916  -1.0143  -0.9271  -0.5425  -0.5355  -0.3588  -0.3553
    -0.3421  -0.2730  -0.1981  -0.0914  -0.0108   0.0662   0.1737   0.2637
     0.3237   0.5017   0.7276   0.7446   1.0791   1.1343   1.2986   1.4345
     1.4639   1.5002   1.8454   2.0862   2.3384   2.6798   2.9417   3.0670
     3.1190   3.2758   3.4231   3.4332   3.5067   3.5373   3.6302   3.6499
     3.6531

          k = 0.0619-0.0219 0.0000 ( 31052 PWs)   bands (ev):

   -65.0082 -65.0002 -64.7812 -64.7739 -64.7730 -64.7657 -55.4871 -55.4786
   -55.4304 -55.4219 -55.1677 -55.1595 -36.9846 -36.9833 -36.9785 -36.9741
   -36.9662 -36.8738 -36.7682 -36.7585 -36.7431 -36.7408 -36.7333 -36.7216
   -36.7125 -36.7026 -36.6982 -36.6827 -36.6583 -36.6548 -31.7964 -31.7896
   -31.7330 -31.7295 -31.7025 -31.6533 -31.6463 -31.6366 -31.6172 -31.6067
   -31.5985 -31.5707 -31.4149 -31.3896 -31.3842 -31.3670 -31.3601 -31.3309
    -3.4508  -2.1932  -2.0608  -1.8028  -1.7472  -1.6629  -1.6154  -1.6030
    -1.5466  -1.3366  -1.0681  -0.8062  -0.5924  -0.4822  -0.4537  -0.3231
    -0.3090  -0.2905  -0.1548  -0.0861   0.0894   0.2103   0.2844   0.3499
     0.4114   0.5712   0.6547   0.7359   1.0148   1.2297   1.2858   1.3053
     1.4198   1.6474   1.7203   1.8124   2.3487   2.5615   2.6413   2.8084
     2.8979   3.2989   3.3033   3.3427   3.3915   3.5077   3.5079   3.5389
     3.6877

          k = 0.0619-0.0055 0.0000 ( 31077 PWs)   bands (ev):

   -65.0097 -64.9988 -64.7827 -64.7745 -64.7724 -64.7641 -55.4890 -55.4768
   -55.4323 -55.4201 -55.1698 -55.1575 -37.0016 -36.9869 -36.9758 -36.9755
   -36.9643 -36.8528 -36.7866 -36.7762 -36.7478 -36.7397 -36.7299 -36.7239
   -36.7113 -36.7036 -36.6946 -36.6821 -36.6383 -36.6354 -31.7994 -31.7885
   -31.7337 -31.7298 -31.7193 -31.6712 -31.6466 -31.6370 -31.6087 -31.6021
   -31.5994 -31.5544 -31.4319 -31.3924 -31.3852 -31.3662 -31.3604 -31.3135
    -3.5215  -2.1292  -2.1211  -1.8488  -1.7572  -1.7098  -1.6703  -1.6298
    -1.5236  -1.5165  -1.1005  -0.9300  -0.6779  -0.5190  -0.4349  -0.3057
    -0.2178  -0.1735  -0.1682  -0.1162   0.0585   0.1939   0.3894   0.5132
     0.5647   0.7073   0.7876   0.9251   1.1580   1.3492   1.4142   1.5677
     1.5882   1.6425   1.7091   1.8850   2.3137   2.5545   2.6257   2.7751
     2.8040   3.1092   3.1335   3.2226   3.3343   3.4056   3.4459   3.5205
     3.5832

          k = 0.0619 0.0109 0.0000 ( 31069 PWs)   bands (ev):

   -65.0108 -64.9976 -64.7839 -64.7757 -64.7712 -64.7630 -55.4906 -55.4755
   -55.4339 -55.4188 -55.1715 -55.1559 -37.0152 -36.9883 -36.9748 -36.9729
   -36.9600 -36.8360 -36.7998 -36.7886 -36.7520 -36.7377 -36.7274 -36.7253
   -36.7090 -36.7028 -36.6907 -36.6814 -36.6227 -36.6197 -31.8027 -31.7881
   -31.7408 -31.7342 -31.7231 -31.6869 -31.6514 -31.6404 -31.6136 -31.6029
   -31.5909 -31.5426 -31.4471 -31.3971 -31.3873 -31.3650 -31.3606 -31.3011
    -3.5018  -2.1193  -1.9896  -1.8529  -1.7791  -1.7126  -1.6264  -1.6222
    -1.6120  -1.4376  -1.0639  -0.9854  -0.7404  -0.5435  -0.4233  -0.2926
    -0.1444  -0.1258  -0.0211  -0.0178   0.0568   0.1777   0.5008   0.6687
     0.6917   0.7973   0.9807   1.0414   1.0914   1.4564   1.5252   1.5916
     1.6049   1.7060   1.7838   1.9708   2.2048   2.5090   2.5181   2.6223
     2.7176   2.8593   2.9612   3.0384   3.2250   3.2880   3.4769   3.4785
     3.5256

          k = 0.0619 0.0274 0.0000 ( 31059 PWs)   bands (ev):

   -65.0114 -64.9970 -64.7846 -64.7764 -64.7705 -64.7622 -55.4917 -55.4747
   -55.4350 -55.4180 -55.1727 -55.1550 -37.0226 -36.9888 -36.9727 -36.9701
   -36.9547 -36.8249 -36.8069 -36.7951 -36.7554 -36.7348 -36.7298 -36.7226
   -36.7069 -36.7000 -36.6875 -36.6804 -36.6126 -36.6093 -31.8056 -31.7883
   -31.7528 -31.7345 -31.7224 -31.6990 -31.6586 -31.6455 -31.6200 -31.6076
   -31.5845 -31.5359 -31.4588 -31.4028 -31.3903 -31.3636 -31.3607 -31.2941
    -3.3959  -2.0438  -1.8798  -1.8135  -1.7640  -1.6306  -1.6071  -1.5974
    -1.5245  -1.3167  -0.9874  -0.9668  -0.7717  -0.5294  -0.4068  -0.2434
    -0.1112  -0.0790   0.0881   0.1209   0.1602   0.2284   0.5554   0.7402
     0.8320   0.8960   0.9984   1.0609   1.1956   1.3951   1.4361   1.4747
     1.7059   1.7536   1.8769   1.9584   2.0350   2.3255   2.3808   2.4288
     2.5944   2.6351   2.8504   2.8998   3.1301   3.2014   3.3421   3.4208
     3.4723

          k = 0.0619 0.0438 0.0000 ( 31096 PWs)   bands (ev):

   -65.0115 -64.9968 -64.7848 -64.7766 -64.7702 -64.7619 -55.4922 -55.4745
   -55.4355 -55.4178 -55.1734 -55.1546 -37.0236 -36.9887 -36.9701 -36.9681
   -36.9497 -36.8206 -36.8076 -36.7955 -36.7577 -36.7330 -36.7312 -36.7197
   -36.7057 -36.6958 -36.6865 -36.6788 -36.6088 -36.6053 -31.8077 -31.7887
   -31.7600 -31.7347 -31.7218 -31.7060 -31.6661 -31.6509 -31.6263 -31.6123
   -31.5832 -31.5345 -31.4654 -31.4083 -31.3933 -31.3623 -31.3609 -31.2926
    -3.2127  -1.9210  -1.9041  -1.6810  -1.6187  -1.6116  -1.5287  -1.4935
    -1.3827  -1.1736  -0.9218  -0.8798  -0.7621  -0.4900  -0.3880  -0.1708
    -0.0456  -0.0278   0.1332   0.1714   0.2174   0.4490   0.4704   0.7837
     0.9100   0.9220   0.9955   1.0284   1.2018   1.3565   1.3767   1.4521
     1.6428   1.7198   1.7934   1.8616   1.9871   2.0554   2.1476   2.2741
     2.3800   2.5251   2.7607   2.8146   3.0237   3.1171   3.2188   3.3873
     3.5253

          k = 0.0619 0.0602 0.0000 ( 31102 PWs)   bands (ev):

   -65.0112 -64.9971 -64.7845 -64.7764 -64.7704 -64.7622 -55.4921 -55.4748
   -55.4353 -55.4182 -55.1733 -55.1549 -37.0183 -36.9880 -36.9679 -36.9670
   -36.9462 -36.8238 -36.8021 -36.7902 -36.7588 -36.7362 -36.7270 -36.7176
   -36.7054 -36.6914 -36.6883 -36.6772 -36.6120 -36.6086 -31.8084 -31.7893
   -31.7607 -31.7348 -31.7217 -31.7067 -31.6718 -31.6551 -31.6306 -31.6156
   -31.5867 -31.5380 -31.4658 -31.4123 -31.3955 -31.3613 -31.3612 -31.2962
    -2.9645  -1.9037  -1.7690  -1.6897  -1.5541  -1.4230  -1.4111  -1.3319
    -1.2146  -1.0412  -0.8848  -0.7460  -0.7444  -0.4586  -0.3763  -0.1070
    -0.0360   0.0739   0.1129   0.2241   0.2912   0.2981   0.5328   0.7839
     0.8219   0.8287   0.8296   1.0913   1.1945   1.3151   1.3962   1.4392
     1.5072   1.5106   1.6900   1.7409   1.7560   2.0224   2.0478   2.0668
     2.2382   2.4215   2.7214   2.7724   2.9176   3.0372   3.0680   3.2872
     3.3752

          k = 0.0619-0.1204 0.0000 ( 31123 PWs)   bands (ev):

   -65.0104 -64.9979 -64.7838 -64.7757 -64.7712 -64.7629 -55.4913 -55.4757
   -55.4345 -55.4191 -55.1726 -55.1557 -37.0071 -36.9871 -36.9671 -36.9667
   -36.9451 -36.8344 -36.7911 -36.7796 -36.7586 -36.7390 -36.7226 -36.7163
   -36.7060 -36.6922 -36.6877 -36.6773 -36.6222 -36.6191 -31.8076 -31.7899
   -31.7544 -31.7348 -31.7222 -31.7004 -31.6740 -31.6570 -31.6318 -31.6167
   -31.5947 -31.5462 -31.4594 -31.4137 -31.3962 -31.3620 -31.3603 -31.3044
    -2.6686  -1.8916  -1.8539  -1.6172  -1.3883  -1.3202  -1.2379  -1.1287
    -1.0578  -0.9685  -0.8595  -0.7737  -0.6070  -0.4736  -0.3754  -0.0978
    -0.0326   0.0699   0.1005   0.1524   0.2724   0.3416   0.4344   0.6086
     0.6333   0.6900   0.7709   1.0560   1.0766   1.1389   1.1868   1.2263
     1.3165   1.3880   1.6898   1.7288   1.7359   1.8943   1.9907   2.0962
     2.2261   2.2906   2.8028   2.8334   2.8734   3.0504   3.0848   3.2125
     3.3925

          k = 0.0619-0.1040 0.0000 ( 31102 PWs)   bands (ev):

   -65.0091 -64.9992 -64.7826 -64.7745 -64.7723 -64.7641 -55.4899 -55.4770
   -55.4331 -55.4204 -55.1712 -55.1570 -36.9910 -36.9861 -36.9685 -36.9666
   -36.9471 -36.8519 -36.7752 -36.7644 -36.7569 -36.7409 -36.7184 -36.7163
   -36.7073 -36.6975 -36.6852 -36.6795 -36.6390 -36.6362 -31.8054 -31.7903
   -31.7418 -31.7347 -31.7223 -31.6873 -31.6720 -31.6561 -31.6294 -31.6154
   -31.6066 -31.5583 -31.4462 -31.4123 -31.3953 -31.3630 -31.3597 -31.3166
    -2.3524  -2.1085  -1.8917  -1.5025  -1.2474  -1.1937  -1.1368  -1.0135
    -1.0030  -0.8904  -0.8625  -0.8341  -0.5412  -0.4620  -0.3840  -0.1578
    -0.0095   0.0069   0.0295   0.0861   0.1031   0.3633   0.4370   0.4969
     0.5133   0.5948   0.6295   0.7304   0.7556   0.8091   0.8972   1.0522
     1.1695   1.3982   1.5548   1.7986   1.8662   1.8771   2.1019   2.1984
     2.2665   2.3421   2.8786   2.9389   3.0772   3.1337   3.2968   3.4128
     3.4411

          k = 0.0619-0.0876 0.0000 ( 31116 PWs)   bands (ev):

   -65.0076 -65.0008 -64.7811 -64.7739 -64.7730 -64.7656 -55.4880 -55.4787
   -55.4312 -55.4221 -55.1693 -55.1588 -36.9851 -36.9712 -36.9705 -36.9676
   -36.9517 -36.8749 -36.7558 -36.7540 -36.7463 -36.7412 -36.7177 -36.7154
   -36.7086 -36.7031 -36.6838 -36.6836 -36.6611 -36.6583 -31.8021 -31.7906
   -31.7344 -31.7303 -31.7159 -31.6686 -31.6664 -31.6528 -31.6239 -31.6218
   -31.6120 -31.5734 -31.4273 -31.4085 -31.3930 -31.3642 -31.3594 -31.3320
    -2.4231  -2.0992  -1.8750  -1.4609  -1.2617  -1.1933  -1.1617  -1.1067
    -0.9869  -0.9562  -0.8105  -0.6548  -0.6346  -0.4129  -0.2336  -0.1454
    -0.1067  -0.0822  -0.0694  -0.0081   0.0294   0.2409   0.2957   0.2992
     0.3538   0.3844   0.5357   0.6092   0.6456   0.7590   0.7979   0.8755
     1.0546   1.0838   1.7262   1.7995   1.9038   2.0660   2.0805   2.4833
     2.4955   2.5506   2.9432   3.0807   3.1714   3.4050   3.4079   3.4111
     3.4703

          k = 0.0619-0.0712 0.0000 ( 31099 PWs)   bands (ev):

   -65.0058 -65.0026 -64.7794 -64.7756 -64.7712 -64.7674 -55.4857 -55.4807
   -55.4289 -55.4241 -55.1669 -55.1608 -36.9840 -36.9743 -36.9690 -36.9583
   -36.9474 -36.9014 -36.7503 -36.7427 -36.7363 -36.7240 -36.7185 -36.7157
   -36.7078 -36.7076 -36.6887 -36.6873 -36.6839 -36.6822 -31.7982 -31.7912
   -31.7337 -31.7294 -31.6955 -31.6594 -31.6476 -31.6463 -31.6387 -31.6173
   -31.6072 -31.5904 -31.4053 -31.4033 -31.3892 -31.3655 -31.3593 -31.3496
    -2.7519  -2.0894  -1.7135  -1.4913  -1.4349  -1.3610  -1.3378  -1.2876
    -1.1086  -0.7905  -0.7526  -0.6819  -0.5483  -0.4091  -0.3354  -0.2208
    -0.1187  -0.1056  -0.0696  -0.0132   0.0550   0.0949   0.1359   0.1493
[...]
     1.5140   1.5597   1.6538   1.7839   2.0907   2.1351   2.3028   2.4893
     2.5737   2.8161   2.9639   3.0251   3.1183   3.2078   3.3196   3.3250
     3.4689

          k = 0.0774 0.0219 0.0000 ( 31075 PWs)   bands (ev):

   -65.0105 -64.9978 -64.7838 -64.7757 -64.7712 -64.7629 -55.4910 -55.4756
   -55.4343 -55.4190 -55.1721 -55.1558 -37.0106 -36.9877 -36.9700 -36.9695
   -36.9516 -36.8351 -36.7948 -36.7834 -36.7559 -36.7337 -36.7304 -36.7214
   -36.7052 -36.6948 -36.6887 -36.6808 -36.6224 -36.6193 -31.8054 -31.7891
   -31.7487 -31.7347 -31.7228 -31.6948 -31.6643 -31.6494 -31.6245 -31.6109
   -31.5929 -31.5446 -31.4543 -31.4069 -31.3922 -31.3621 -31.3615 -31.3029
    -3.1024  -1.9042  -1.8428  -1.7646  -1.5908  -1.5020  -1.4450  -1.3856
    -1.3588  -1.2155  -0.9372  -0.7698  -0.7427  -0.5251  -0.4168  -0.1879
    -0.0644   0.0042   0.0745   0.1176   0.2017   0.3249   0.4012   0.7248
     0.7298   0.7543   0.8513   0.9557   1.1105   1.3137   1.3651   1.4316
     1.4800   1.5637   1.6979   1.8403   1.9476   1.9803   2.1981   2.3030
     2.4522   2.5125   2.8268   2.8801   3.0140   3.1012   3.1792   3.3073
     3.4745

          k = 0.0774 0.0383 0.0000 ( 31102 PWs)   bands (ev):

   -65.0112 -64.9971 -64.7845 -64.7764 -64.7704 -64.7622 -55.4921 -55.4748
   -55.4353 -55.4182 -55.1733 -55.1549 -37.0183 -36.9880 -36.9679 -36.9670
   -36.9462 -36.8238 -36.8021 -36.7902 -36.7588 -36.7362 -36.7270 -36.7176
   -36.7054 -36.6914 -36.6883 -36.6772 -36.6120 -36.6086 -31.8084 -31.7893
   -31.7607 -31.7348 -31.7217 -31.7067 -31.6718 -31.6551 -31.6306 -31.6156
   -31.5867 -31.5380 -31.4658 -31.4123 -31.3955 -31.3613 -31.3612 -31.2962
    -2.9645  -1.9037  -1.7690  -1.6897  -1.5541  -1.4230  -1.4111  -1.3319
    -1.2146  -1.0412  -0.8848  -0.7460  -0.7444  -0.4586  -0.3763  -0.1070
    -0.0360   0.0739   0.1129   0.2241   0.2912   0.2981   0.5328   0.7839
     0.8219   0.8287   0.8296   1.0913   1.1945   1.3151   1.3962   1.4392
     1.5072   1.5106   1.6900   1.7409   1.7560   2.0224   2.0478   2.0668
     2.2382   2.4215   2.7214   2.7724   2.9175   3.0372   3.0678   3.2871
     3.3752

          k = 0.0774 0.0547 0.0000 ( 31128 PWs)   bands (ev):

   -65.0114 -64.9969 -64.7848 -64.7766 -64.7702 -64.7619 -55.4926 -55.4746
   -55.4358 -55.4180 -55.1738 -55.1546 -37.0200 -36.9878 -36.9661 -36.9655
   -36.9422 -36.8196 -36.8037 -36.7915 -36.7606 -36.7385 -36.7234 -36.7146
   -36.7060 -36.6893 -36.6883 -36.6747 -36.6083 -36.6047 -31.8101 -31.7896
   -31.7667 -31.7348 -31.7211 -31.7126 -31.6776 -31.6593 -31.6351 -31.6189
   -31.5850 -31.5363 -31.4714 -31.4161 -31.3977 -31.3613 -31.3605 -31.2944
    -2.7746  -2.0096  -1.6827  -1.5697  -1.4920  -1.3565  -1.3384  -1.2472
    -1.0511  -0.8827  -0.8709  -0.7210  -0.6852  -0.3887  -0.3400  -0.1092
     0.0015   0.1199   0.1378   0.1845   0.3059   0.3358   0.7353   0.7702
     0.7930   0.8398   0.9228   1.0621   1.1464   1.3307   1.3450   1.4418
     1.5276   1.5486   1.5728   1.6383   1.6728   1.8079   1.8971   2.0477
     2.1851   2.3920   2.6339   2.7293   2.8243   2.9834   2.9835   3.1761
     3.2318

          k = 0.0774-0.1259 0.0000 ( 31112 PWs)   bands (ev):

   -65.0111 -64.9972 -64.7845 -64.7764 -64.7704 -64.7621 -55.4923 -55.4749
   -55.4355 -55.4183 -55.1737 -55.1549 -37.0158 -36.9874 -36.9653 -36.9652
   -36.9409 -36.8231 -36.7994 -36.7874 -36.7608 -36.7402 -36.7202 -36.7132
   -36.7070 -36.6916 -36.6861 -36.6741 -36.6117 -36.6082 -31.8101 -31.7899
   -31.7653 -31.7348 -31.7211 -31.7112 -31.6797 -31.6610 -31.6365 -31.6201
   -31.5879 -31.5393 -31.4699 -31.4176 -31.3986 -31.3616 -31.3600 -31.2974
    -2.5528  -2.0832  -1.6431  -1.5954  -1.4055  -1.2893  -1.2020  -1.1405
    -0.9072  -0.8942  -0.7674  -0.7284  -0.6396  -0.3618  -0.3237  -0.2090
     0.0448   0.0627   0.1112   0.2904   0.3525   0.3637   0.5947   0.6124
     0.7169   0.7704   0.8971   1.0843   1.1621   1.1726   1.2774   1.3819
     1.4299   1.5169   1.5665   1.5682   1.6859   1.7431   1.8784   1.9970
     2.1068   2.3358   2.6759   2.7603   2.8111   2.9557   2.9819   3.1653
     3.2084

          k = 0.0774-0.1095 0.0000 ( 31136 PWs)   bands (ev):

   -65.0103 -64.9980 -64.7838 -64.7756 -64.7712 -64.7629 -55.4914 -55.4757
   -55.4346 -55.4192 -55.1727 -55.1557 -37.0059 -36.9869 -36.9663 -36.9655
   -36.9427 -36.8342 -36.7897 -36.7782 -36.7595 -36.7410 -36.7182 -36.7137
   -36.7078 -36.6945 -36.6851 -36.6758 -36.6222 -36.6191 -31.8085 -31.7901
   -31.7565 -31.7348 -31.7218 -31.7024 -31.6777 -31.6599 -31.6344 -31.6188
   -31.5953 -31.5468 -31.4612 -31.4162 -31.3977 -31.3622 -31.3597 -31.3050
    -2.3668  -2.0812  -1.8383  -1.5264  -1.3029  -1.2472  -1.1054  -1.0166
    -0.8910  -0.8787  -0.8287  -0.7787  -0.5865  -0.3904  -0.3395  -0.2540
     0.0137   0.0708   0.0718   0.2360   0.3578   0.3599   0.4627   0.5524
     0.5897   0.6531   0.7760   0.8743   0.9491   0.9790   1.0339   1.3225
     1.3496   1.5669   1.5835   1.6221   1.6619   1.7816   2.0050   2.0342
     2.1120   2.2192   2.8328   2.8371   2.9239   3.0168   3.2105   3.2278
     3.2449

          k = 0.0774-0.0931 0.0000 ( 31102 PWs)   bands (ev):

   -65.0091 -64.9992 -64.7826 -64.7745 -64.7723 -64.7641 -55.4899 -55.4770
   -55.4331 -55.4204 -55.1712 -55.1570 -36.9910 -36.9861 -36.9685 -36.9666
   -36.9471 -36.8519 -36.7752 -36.7644 -36.7569 -36.7409 -36.7184 -36.7163
   -36.7073 -36.6975 -36.6852 -36.6795 -36.6390 -36.6362 -31.8054 -31.7903
   -31.7418 -31.7347 -31.7223 -31.6873 -31.6720 -31.6561 -31.6294 -31.6154
   -31.6066 -31.5583 -31.4462 -31.4123 -31.3953 -31.3630 -31.3597 -31.3166
    -2.3524  -2.1085  -1.8917  -1.5025  -1.2474  -1.1937  -1.1368  -1.0135
    -1.0030  -0.8904  -0.8625  -0.8341  -0.5412  -0.4620  -0.3840  -0.1578
    -0.0095   0.0069   0.0295   0.0861   0.1031   0.3633   0.4370   0.4969
     0.5133   0.5948   0.6295   0.7304   0.7556   0.8091   0.8972   1.0522
     1.1695   1.3982   1.5548   1.7986   1.8662   1.8771   2.1019   2.1984
     2.2665   2.3421   2.8786   2.9389   3.0772   3.1337   3.2968   3.4128
     3.4411

          k = 0.0774-0.0766 0.0000 ( 31107 PWs)   bands (ev):

   -65.0076 -65.0007 -64.7811 -64.7739 -64.7730 -64.7656 -55.4879 -55.4787
   -55.4311 -55.4221 -55.1691 -55.1588 -36.9851 -36.9725 -36.9715 -36.9682
   -36.9527 -36.8747 -36.7573 -36.7532 -36.7475 -36.7396 -36.7205 -36.7203
   -36.7058 -36.7000 -36.6863 -36.6843 -36.6605 -36.6577 -31.8015 -31.7905
   -31.7344 -31.7301 -31.7155 -31.6678 -31.6649 -31.6505 -31.6239 -31.6201
   -31.6105 -31.5727 -31.4268 -31.4072 -31.3915 -31.3639 -31.3600 -31.3316
    -2.4080  -2.4076  -1.6473  -1.5309  -1.3366  -1.2525  -1.2152  -1.1800
    -1.0758  -0.9654  -0.8200  -0.7761  -0.6412  -0.4098  -0.2773  -0.1621
    -0.1463  -0.0812  -0.0491  -0.0304   0.0207   0.2994   0.3103   0.3286
     0.3618   0.4730   0.6384   0.6481   0.7440   0.8239   0.8479   0.9781
     0.9900   1.2690   1.5461   1.8740   1.9930   2.0944   2.0998   2.3990
     2.5315   2.6338   2.9505   3.0860   3.1977   3.2304   3.3192   3.4129
     3.5324

          k = 0.0774-0.0602 0.0000 ( 31117 PWs)   bands (ev):

   -65.0059 -65.0025 -64.7794 -64.7756 -64.7712 -64.7674 -55.4856 -55.4807
   -55.4288 -55.4241 -55.1667 -55.1610 -36.9837 -36.9753 -36.9695 -36.9622
   -36.9469 -36.9005 -36.7489 -36.7405 -36.7400 -36.7259 -36.7234 -36.7213
   -36.7044 -36.7017 -36.6908 -36.6890 -36.6829 -36.6801 -31.7974 -31.7912
   -31.7337 -31.7299 -31.6952 -31.6607 -31.6464 -31.6441 -31.6352 -31.6186
   -31.6048 -31.5880 -31.4075 -31.4024 -31.3850 -31.3646 -31.3604 -31.3488
    -2.6918  -2.4529  -1.5883  -1.5246  -1.4859  -1.3891  -1.3631  -1.3388
    -1.0871  -0.9238  -0.8595  -0.7266  -0.6344  -0.4199  -0.3617  -0.3085
    -0.2187  -0.1228  -0.0520  -0.0515   0.0547   0.1657   0.2577   0.2828
     0.2890   0.3556   0.5687   0.6069   0.6797   0.8514   0.8658   0.9764
     1.1693   1.2468   1.5598   1.8326   2.1344   2.1885   2.2924   2.5070
     2.7810   2.9425   3.0613   3.2278   3.2564   3.3054   3.3097   3.3636
     3.5268

          k = 0.0774-0.0438 0.0000 ( 31080 PWs)   bands (ev):

   -65.0044 -65.0040 -64.7775 -64.7775 -64.7693 -64.7693 -55.4832 -55.4829
   -55.4264 -55.4262 -55.1641 -55.1634 -36.9817 -36.9790 -36.9700 -36.9667
   -36.9270 -36.9233 -36.7452 -36.7392 -36.7376 -36.7269 -36.7122 -36.7098
   -36.7093 -36.7059 -36.7001 -36.6974 -36.6906 -36.6860 -31.7939 -31.7926
   -31.7325 -31.7314 -31.6740 -31.6697 -31.6402 -31.6376 -31.6271 -31.6233
   -31.5978 -31.5976 -31.4004 -31.3970 -31.3702 -31.3666 -31.3648 -31.3607
    -2.9257  -2.4582  -1.7088  -1.6442  -1.5060  -1.4661  -1.4522  -1.4397
    -1.2097  -0.9808  -0.7734  -0.6667  -0.6049  -0.5604  -0.4869  -0.3572
    -0.2315  -0.2150  -0.1832   0.0399   0.1127   0.1313   0.2612   0.2863
     0.3758   0.3866   0.5424   0.5739   0.6628   0.8043   0.9396   1.1307
     1.3049   1.3577   1.5837   1.8064   2.1840   2.3080   2.4130   2.5395
     2.9873   3.0612   3.1870   3.2200   3.2632   3.3832   3.3886   3.4758
     3.5488

          k =-0.0929 0.0328 0.0000 ( 31066 PWs)   bands (ev):

   -65.0042 -65.0042 -64.7775 -64.7775 -64.7693 -64.7693 -55.4830 -55.4830
   -55.4263 -55.4263 -55.1637 -55.1637 -36.9804 -36.9804 -36.9687 -36.9687
   -36.9248 -36.9248 -36.7424 -36.7424 -36.7334 -36.7334 -36.7108 -36.7108
   -36.7085 -36.7085 -36.6954 -36.6954 -36.6896 -36.6896 -31.7932 -31.7932
   -31.7321 -31.7321 -31.6734 -31.6734 -31.6369 -31.6369 -31.6271 -31.6271
   -31.5962 -31.5962 -31.4001 -31.4001 -31.3671 -31.3671 -31.3626 -31.3626
    -2.7231  -2.7230  -1.6963  -1.6963  -1.4497  -1.4497  -1.4465  -1.4465
    -1.1063  -1.1063  -0.7429  -0.7429  -0.5750  -0.5750  -0.4697  -0.4697
    -0.2224  -0.2224  -0.0651  -0.0651   0.0728   0.0728   0.3642   0.3642
     0.5078   0.5078   0.5472   0.5472   0.6923   0.6923   1.1315   1.1315
     1.4440   1.4440   1.5891   1.5891   2.2642   2.2642   2.3842   2.3842
     3.0245   3.0245   3.0897   3.0897   3.3468   3.3468   3.4127   3.4127
     3.5720

          k =-0.0929 0.0493 0.0000 ( 31069 PWs)   bands (ev):

   -65.0061 -65.0023 -64.7794 -64.7756 -64.7712 -64.7674 -55.4854 -55.4807
   -55.4287 -55.4241 -55.1663 -55.1613 -36.9831 -36.9771 -36.9700 -36.9668
   -36.9479 -36.8993 -36.7463 -36.7447 -36.7370 -36.7311 -36.7273 -36.7251
   -36.7036 -36.6961 -36.6957 -36.6893 -36.6817 -36.6780 -31.7962 -31.7912
   -31.7334 -31.7305 -31.6931 -31.6609 -31.6451 -31.6398 -31.6310 -31.6190
   -31.6018 -31.5858 -31.4082 -31.3998 -31.3810 -31.3630 -31.3624 -31.3484
    -2.8015  -2.5741  -1.7201  -1.6167  -1.4540  -1.4264  -1.4231  -1.4146
    -1.1359  -1.0660  -1.0025  -0.6684  -0.5590  -0.4888  -0.4598  -0.3450
    -0.2961  -0.2362  -0.1191  -0.0085   0.0787   0.1543   0.3193   0.4087
     0.5517   0.5623   0.6081   0.6215   0.6665   0.6879   1.0408   1.2151
     1.4030   1.4477   1.5210   1.6628   2.2516   2.2528   2.3326   2.3390
     2.8523   3.0239   3.1262   3.1617   3.2122   3.2679   3.3038   3.4593
     3.4846

          k =-0.0929 0.0657 0.0000 ( 31129 PWs)   bands (ev):

   -65.0078 -65.0006 -64.7812 -64.7739 -64.7730 -64.7656 -55.4877 -55.4787
   -55.4309 -55.4220 -55.1687 -55.1590 -36.9851 -36.9761 -36.9734 -36.9698
   -36.9557 -36.8743 -36.7608 -36.7509 -36.7508 -36.7350 -36.7285 -36.7250
   -36.7039 -36.6947 -36.6924 -36.6861 -36.6594 -36.6565 -31.8000 -31.7902
   -31.7343 -31.7297 -31.7136 -31.6650 -31.6605 -31.6452 -31.6215 -31.6176
   -31.6067 -31.5711 -31.4250 -31.4033 -31.3882 -31.3630 -31.3616 -31.3307
    -2.8114  -2.3631  -1.6990  -1.4979  -1.4967  -1.3687  -1.3470  -1.3267
    -1.2657  -1.1087  -0.9998  -0.7165  -0.5958  -0.4540  -0.4137  -0.2553
    -0.2039  -0.1771  -0.0628  -0.0153   0.0893   0.2563   0.3803   0.4480
     0.5631   0.6015   0.7350   0.7364   0.7560   0.7965   0.9491   1.2625
     1.3343   1.4230   1.5094   1.7176   2.1624   2.1859   2.2248   2.2792
     2.6360   2.8480   2.9543   3.0991   3.1469   3.1792   3.2878   3.3845
     3.3893

          k =-0.0929 0.0821 0.0000 ( 31083 PWs)   bands (ev):

   -65.0092 -64.9991 -64.7827 -64.7745 -64.7723 -64.7641 -55.4897 -55.4770
   -55.4329 -55.4204 -55.1709 -55.1571 -36.9934 -36.9864 -36.9700 -36.9684
   -36.9508 -36.8520 -36.7778 -36.7671 -36.7551 -36.7372 -36.7255 -36.7207
   -36.7049 -36.6933 -36.6900 -36.6817 -36.6386 -36.6359 -31.8040 -31.7899
   -31.7388 -31.7347 -31.7227 -31.6843 -31.6666 -31.6512 -31.6258 -31.6119
   -31.6052 -31.5571 -31.4436 -31.4085 -31.3927 -31.3625 -31.3609 -31.3157
    -2.7622  -2.1112  -1.6728  -1.6561  -1.3870  -1.3563  -1.2998  -1.2166
    -1.1718  -1.1171  -0.9137  -0.7583  -0.5671  -0.5436  -0.4252  -0.1326
    -0.0414  -0.0090   0.0357   0.0384   0.0645   0.3032   0.4967   0.5221
     0.5431   0.5529   0.8510   0.8999   0.9266   0.9544   1.0006   1.2457
     1.2678   1.3939   1.5971   1.7406   1.9604   2.0511   2.1100   2.2681
     2.3695   2.5263   2.8853   2.9492   2.9808   3.1591   3.2079   3.2226
     3.4872

          k =-0.0929 0.0985 0.0000 ( 31123 PWs)   bands (ev):

   -65.0104 -64.9979 -64.7838 -64.7757 -64.7712 -64.7629 -55.4913 -55.4757
   -55.4345 -55.4191 -55.1726 -55.1557 -37.0071 -36.9871 -36.9671 -36.9667
   -36.9451 -36.8344 -36.7911 -36.7796 -36.7586 -36.7390 -36.7226 -36.7163
   -36.7060 -36.6922 -36.6877 -36.6773 -36.6222 -36.6191 -31.8076 -31.7899
   -31.7544 -31.7348 -31.7222 -31.7004 -31.6740 -31.6570 -31.6318 -31.6167
   -31.5947 -31.5462 -31.4594 -31.4137 -31.3962 -31.3620 -31.3603 -31.3044
    -2.6686  -1.8916  -1.8539  -1.6172  -1.3883  -1.3202  -1.2379  -1.1287
    -1.0578  -0.9685  -0.8595  -0.7737  -0.6070  -0.4736  -0.3754  -0.0978
    -0.0326   0.0699   0.1005   0.1524   0.2724   0.3416   0.4344   0.6086
     0.6333   0.6900   0.7709   1.0560   1.0766   1.1389   1.1868   1.2263
     1.3165   1.3880   1.6898   1.7288   1.7359   1.8943   1.9907   2.0962
     2.2261   2.2906   2.8028   2.8334   2.8734   3.0504   3.0848   3.2125
     3.3925

          k =-0.0929 0.1150 0.0000 ( 31112 PWs)   bands (ev):

   -65.0111 -64.9972 -64.7845 -64.7764 -64.7704 -64.7621 -55.4923 -55.4749
   -55.4355 -55.4183 -55.1737 -55.1549 -37.0158 -36.9874 -36.9653 -36.9652
   -36.9409 -36.8231 -36.7994 -36.7874 -36.7608 -36.7402 -36.7202 -36.7132
   -36.7070 -36.6916 -36.6861 -36.6741 -36.6117 -36.6082 -31.8101 -31.7899
   -31.7653 -31.7348 -31.7211 -31.7112 -31.6797 -31.6610 -31.6365 -31.6201
   -31.5879 -31.5393 -31.4699 -31.4176 -31.3986 -31.3616 -31.3600 -31.2974
    -2.5528  -2.0832  -1.6431  -1.5954  -1.4055  -1.2893  -1.2020  -1.1405
    -0.9072  -0.8942  -0.7674  -0.7284  -0.6396  -0.3618  -0.3237  -0.2090
     0.0448   0.0627   0.1112   0.2904   0.3525   0.3637   0.5947   0.6124
     0.7169   0.7704   0.8971   1.0843   1.1621   1.1726   1.2774   1.3819
     1.4299   1.5169   1.5665   1.5682   1.6859   1.7431   1.8784   1.9970
     2.1068   2.3358   2.6759   2.7603   2.8111   2.9557   2.9819   3.1653
     3.2084

          k =-0.0929-0.0657 0.0000 ( 31178 PWs)   bands (ev):

   -65.0113 -64.9969 -64.7848 -64.7766 -64.7702 -64.7619 -55.4927 -55.4747
   -55.4359 -55.4181 -55.1740 -55.1546 -37.0187 -36.9875 -36.9647 -36.9646
   -36.9394 -36.8192 -36.8022 -36.7901 -36.7616 -36.7407 -36.7192 -36.7120
   -36.7075 -36.6914 -36.6855 -36.6729 -36.6081 -36.6044 -31.8111 -31.7899
   -31.7691 -31.7348 -31.7207 -31.7149 -31.6819 -31.6625 -31.6383 -31.6213
   -31.5857 -31.5370 -31.4736 -31.4190 -31.3994 -31.3614 -31.3599 -31.2950
    -2.4803  -2.1805  -1.5894  -1.5538  -1.4110  -1.2814  -1.1949  -1.1464
    -0.9182  -0.8254  -0.7068  -0.6676  -0.6590  -0.3228  -0.3023  -0.2761
     0.0074   0.1036   0.1343   0.3313   0.3950   0.4042   0.5263   0.6984
     0.7197   0.8489   1.0741   1.0823   1.1558   1.2142   1.2950   1.3349
     1.4341   1.4967   1.5562   1.5963   1.6810   1.7046   1.8247   1.9019
     2.2262   2.3643   2.5649   2.7407   2.7566   2.9120   2.9407   3.0499
     3.1220

     the Fermi energy is     1.5827 ev

!    total energy              =   -1810.37577509 Ry
     estimated scf accuracy    <       0.00000076 Ry
     smearing contrib. (-TS)   =      -0.06808297 Ry
     internal energy E=F+TS    =   -1810.30769212 Ry

     The total energy is F=E-TS. E is the sum of the following terms:
     one-electron contribution =  -14703.17331634 Ry
     hartree contribution      =    7346.82901938 Ry
     xc contribution           =    -352.82935040 Ry
     ewald contribution        =    5898.86595514 Ry
     electric field correction =       0.00000010 Ry

     convergence has been achieved in  22 iterations

     negative rho (up, down):  5.618E-03 0.000E+00

     Forces acting on atoms (cartesian axes, Ry/au):

     atom    1 type  1   force =     0.00000035   -0.00000097    0.01116062
     atom    2 type  1   force =    -0.00000047    0.00000075    0.01116013
     atom    3 type  2   force =    -0.00000156   -0.00000156    0.00628745
     atom    4 type  2   force =     0.00000042    0.00000062    0.00628665
     atom    5 type  1   force =    -0.00000039    0.00000026   -0.00792863
     atom    6 type  1   force =     0.00000047   -0.00000043   -0.00792881
     atom    7 type  2   force =     0.00000073    0.00000069   -0.01112131
     atom    8 type  2   force =    -0.00000008   -0.00000013   -0.01112045
     atom    9 type  1   force =     0.00000051   -0.00000105    0.00202664
     atom   10 type  1   force =    -0.00000042    0.00000077    0.00202711
     atom   11 type  2   force =    -0.00000078   -0.00000023   -0.00042384
     atom   12 type  2   force =     0.00000121    0.00000128   -0.00042557

     Total force =     0.026642     Total SCF correction =     0.002088

     Writing output data file ./Ti2Tc2/Ti2Tc2_beef.save/

     init_run     :    118.65s CPU    119.25s WALL (       1 calls)
     electrons    :   5196.71s CPU   5225.36s WALL (       1 calls)
     forces       :     65.63s CPU     65.99s WALL (       1 calls)

     Called by init_run:
     wfcinit      :    107.22s CPU    107.59s WALL (       1 calls)
     potinit      :      7.80s CPU      7.88s WALL (       1 calls)
     hinit0       :      1.89s CPU      1.90s WALL (       1 calls)

     Called by electrons:
     c_bands      :   4650.30s CPU   4667.96s WALL (      22 calls)
     sum_band     :    498.23s CPU    504.67s WALL (      22 calls)
     v_of_rho     :     30.96s CPU     32.43s WALL (      23 calls)
     newd         :     23.50s CPU     26.47s WALL (      23 calls)
     mix_rho      :      0.95s CPU      1.01s WALL (      22 calls)
     vdW_kernel   :      5.73s CPU      5.74s WALL (       1 calls)

     Called by c_bands:
     init_us_2    :     16.46s CPU     16.57s WALL (    3404 calls)
     cegterg      :   4607.41s CPU   4622.75s WALL (    1628 calls)

     Called by *egterg:
     cdiaghg      :    244.68s CPU    244.91s WALL (    9359 calls)
     h_psi        :   2143.73s CPU   2154.98s WALL (    9433 calls)
     s_psi        :    764.87s CPU    765.91s WALL (    9433 calls)
     g_psi        :      1.58s CPU      1.60s WALL (    7731 calls)

     Called by h_psi:
     h_psi:calbec :    765.91s CPU    767.78s WALL (    9433 calls)
     vloc_psi     :    601.97s CPU    610.21s WALL (    9433 calls)
     add_vuspsi   :    766.85s CPU    767.93s WALL (    9433 calls)

     General routines
     calbec       :   1138.09s CPU   1141.50s WALL (   11357 calls)
     fft          :     18.29s CPU     18.88s WALL (    1508 calls)
     ffts         :      0.07s CPU      0.08s WALL (      45 calls)
     fftw         :    696.18s CPU    706.11s WALL (  926182 calls)
     interpolate  :      0.36s CPU      0.37s WALL (      23 calls)

     Parallel routines
     fft_scatt_xy :     55.62s CPU     56.25s WALL (  927735 calls)
     fft_scatt_yz :    145.13s CPU    148.17s WALL (  927735 calls)

     PWSCF        :      1h29m CPU      1h30m WALL


   This run was terminated on:  12:33:49  25Jun2022            

=------------------------------------------------------------------------------=
   JOB DONE.
=------------------------------------------------------------------------------=
