
     Program PWSCF v.6.6 starts on 25Jun2022 at  3:36: 6 

     This program is part of the open-source Quantum ESPRESSO suite
     for quantum simulation of materials; please cite
         "P. Giannozzi et al., J. Phys.:Condens. Matter 21 395502 (2009);
         "P. Giannozzi et al., J. Phys.:Condens. Matter 29 465901 (2017);
          URL http://www.quantum-espresso.org", 
     in publications or presentations arising from this work. More details at
     http://www.quantum-espresso.org/quote

     Parallel version (MPI), running on    37 processors

     MPI processes distributed on     1 nodes
     R & G space division:  proc/nbgrp/npool/nimage =      37
     Fft bands division:     nmany     =       1
     Reading input from V2Au2.in
Warning: card &CELL ignored
Warning: card / ignored

     Current dimensions of program PWSCF are:
     Max number of different atomic species (ntypx) = 10
     Max number of k-points (npk) =  40000
     Max angular momentum in pseudopotentials (lmaxx) =  3
     Presently stress not available with electric field and gates

     Message from routine cell_base_init:
     DEPRECATED: use true lattice parameter, not A to a.u. conversion factor
     file V.pbe-spnl-rrkjus_psl.1.0.0.UPF: wavefunction(s)  3P 3D renormalized

     **************************************************************************
     Initializing libbeef V0.1.2 with the BEEF-vdW functional.
     Citation: Wellendorff et al., PRB 85, 235149 (2012).
     **************************************************************************


     IMPORTANT: XC functional enforced from input :
     Exchange-correlation= BEEF-VDW
                           (   1   4  43  14   2   0   0)
     Any further DFT definition will be discarded
     Please, verify this is what you really want


     Subspace diagonalization in iterative solution of the eigenvalue problem:
     a serial algorithm will be used


     Parallelization info
     --------------------
     sticks:   dense  smooth     PW     G-vecs:    dense   smooth      PW
     Min         115      46     13                26847     6792    1061
     Max         116      47     14                26864     6807    1076
     Sum        4289    1725    503               993707   251603   39537



     bravais-lattice index     =            0
     lattice parameter (alat)  =       1.8897  a.u.
     unit-cell volume          =    4548.0062 (a.u.)^3
     number of atoms/cell      =           12
     number of atomic types    =            2
     number of electrons       =       144.00
     number of Kohn-Sham states=           86
     kinetic-energy cutoff     =      55.1240  Ry
     charge density cutoff     =     551.2396  Ry
     convergence threshold     =      1.0E-05
     mixing beta               =       0.1000
     number of iterations used =           10  plain     mixing
     Exchange-correlation= BEEF-VDW
                           (   1   4  43  14   2   0   0)

     celldm(1)=   1.889726  celldm(2)=   0.000000  celldm(3)=   0.000000
     celldm(4)=   0.000000  celldm(5)=   0.000000  celldm(6)=   0.000000

     crystal axes: (cart. coord. in units of alat)
               a(1) = (   5.525924   0.000000   0.000000 )  
               a(2) = (  -2.762962   4.959938   0.000000 )  
               a(3) = (   0.000000   0.000000  24.589142 )  

     reciprocal axes: (cart. coord. in units 2 pi/alat)
               b(1) = (  0.180965  0.100808 -0.000000 )  
               b(2) = (  0.000000  0.201615  0.000000 )  
               b(3) = (  0.000000 -0.000000  0.040668 )  


     PseudoPot. # 1 for V  read from file:
     ../pseudo/V.pbe-spnl-rrkjus_psl.1.0.0.UPF
     MD5 check sum: 79b3eb63147daf0b665d9f1bcc691206
     Pseudo is Ultrasoft + core correction, Zval = 13.0
     Generated using "atomic" code by A. Dal Corso v.6.2.2
     Using radial grid of 1181 points,  6 beta functions with: 
                l(1) =   0
                l(2) =   0
                l(3) =   1
                l(4) =   1
                l(5) =   2
                l(6) =   2
     Q(r) pseudized with 0 coefficients 


     PseudoPot. # 2 for Au read from file:
     ../pseudo/Au.pbe-n-rrkjus_psl.1.0.0.UPF
     MD5 check sum: d7e77ba19504afed2c9b41c931dde4f0
     Pseudo is Ultrasoft + core correction, Zval = 11.0
     Generated using "atomic" code by A. Dal Corso v.6.3
     Using radial grid of 1279 points,  6 beta functions with: 
                l(1) =   0
                l(2) =   0
                l(3) =   1
                l(4) =   1
                l(5) =   2
                l(6) =   2
     Q(r) pseudized with 0 coefficients 


     atomic species   valence    mass     pseudopotential
        V             13.00    50.94150     V ( 1.00)
        Au            11.00   196.96657     Au( 1.00)

     No symmetry found



   Cartesian axes

     site n.     atom                  positions (alat units)
         1           V   tau(   1) = (   0.0000000   0.0000000  10.0000000  )
         2           V   tau(   2) = (   2.7629619   0.0000000  10.0000000  )
         3           Au  tau(   3) = (   1.3814810   2.4799688  10.0000000  )
         4           Au  tau(   4) = (  -1.3814810   2.4799688  10.0000000  )
         5           V   tau(   5) = (   2.7629619   1.5391239  12.2945710  )
         6           V   tau(   6) = (  -0.0000000   1.5391239  12.2945710  )
         7           Au  tau(   7) = (  -1.3814810   4.0190927  12.2945710  )
         8           Au  tau(   8) = (   1.3814810   4.0190927  12.2945710  )
         9           V   tau(   9) = (   0.0001498   2.9779384  14.3922607  )
        10           V   tau(  10) = (   2.7631054   2.9780621  14.3922828  )
        11           Au  tau(  11) = (   4.1446338   0.6134671  14.6881332  )
        12           Au  tau(  12) = (   1.3812645   0.6134716  14.6881349  )

     number of k points=    74  Fermi-Dirac smearing, width (Ry)=  0.0100
                       cart. coord. in units 2pi/alat
        k(    1) = (   0.0000000   0.0000000   0.0000000), wk =   0.0138889
        k(    2) = (   0.0000000   0.0168013   0.0000000), wk =   0.0277778
        k(    3) = (   0.0000000   0.0336026   0.0000000), wk =   0.0277778
        k(    4) = (   0.0000000   0.0504039   0.0000000), wk =   0.0277778
        k(    5) = (   0.0000000   0.0672051   0.0000000), wk =   0.0277778
        k(    6) = (   0.0000000   0.0840064   0.0000000), wk =   0.0277778
        k(    7) = (   0.0000000  -0.1008077   0.0000000), wk =   0.0138889
        k(    8) = (   0.0150804   0.0084006   0.0000000), wk =   0.0277778
        k(    9) = (   0.0150804   0.0252019   0.0000000), wk =   0.0277778
        k(   10) = (   0.0150804   0.0420032   0.0000000), wk =   0.0277778
        k(   11) = (   0.0150804   0.0588045   0.0000000), wk =   0.0277778
        k(   12) = (   0.0150804   0.0756058   0.0000000), wk =   0.0277778
        k(   13) = (   0.0150804   0.0924071   0.0000000), wk =   0.0277778
        k(   14) = (   0.0150804  -0.0924071   0.0000000), wk =   0.0277778
        k(   15) = (   0.0150804  -0.0756058   0.0000000), wk =   0.0277778
        k(   16) = (   0.0150804  -0.0588045   0.0000000), wk =   0.0277778
        k(   17) = (   0.0150804  -0.0420032   0.0000000), wk =   0.0277778
        k(   18) = (   0.0150804  -0.0252019   0.0000000), wk =   0.0277778
        k(   19) = (   0.0150804  -0.0084006   0.0000000), wk =   0.0277778
        k(   20) = (   0.0301609   0.0168013   0.0000000), wk =   0.0277778
        k(   21) = (   0.0301609   0.0336026   0.0000000), wk =   0.0277778
        k(   22) = (   0.0301609   0.0504039   0.0000000), wk =   0.0277778
        k(   23) = (   0.0301609   0.0672051   0.0000000), wk =   0.0277778
        k(   24) = (   0.0301609   0.0840064   0.0000000), wk =   0.0277778
        k(   25) = (   0.0301609   0.1008077   0.0000000), wk =   0.0277778
        k(   26) = (   0.0301609  -0.0840064   0.0000000), wk =   0.0277778
        k(   27) = (   0.0301609  -0.0672051   0.0000000), wk =   0.0277778
        k(   28) = (   0.0301609  -0.0504039   0.0000000), wk =   0.0277778
        k(   29) = (   0.0301609  -0.0336026   0.0000000), wk =   0.0277778
        k(   30) = (   0.0301609  -0.0168013   0.0000000), wk =   0.0277778
        k(   31) = (   0.0301609  -0.0000000   0.0000000), wk =   0.0277778
        k(   32) = (   0.0452413   0.0252019   0.0000000), wk =   0.0277778
        k(   33) = (   0.0452413   0.0420032   0.0000000), wk =   0.0277778
        k(   34) = (   0.0452413   0.0588045   0.0000000), wk =   0.0277778
        k(   35) = (   0.0452413   0.0756058   0.0000000), wk =   0.0277778
        k(   36) = (   0.0452413   0.0924071   0.0000000), wk =   0.0277778
        k(   37) = (   0.0452413   0.1092084   0.0000000), wk =   0.0277778
        k(   38) = (   0.0452413  -0.0756058   0.0000000), wk =   0.0277778
        k(   39) = (   0.0452413  -0.0588045   0.0000000), wk =   0.0277778
        k(   40) = (   0.0452413  -0.0420032   0.0000000), wk =   0.0277778
        k(   41) = (   0.0452413  -0.0252019   0.0000000), wk =   0.0277778
        k(   42) = (   0.0452413  -0.0084006   0.0000000), wk =   0.0277778
        k(   43) = (   0.0452413   0.0084006   0.0000000), wk =   0.0277778
        k(   44) = (   0.0603217   0.0336026   0.0000000), wk =   0.0277778
        k(   45) = (   0.0603217   0.0504039   0.0000000), wk =   0.0277778
        k(   46) = (   0.0603217   0.0672051   0.0000000), wk =   0.0277778
        k(   47) = (   0.0603217   0.0840064   0.0000000), wk =   0.0277778
        k(   48) = (   0.0603217   0.1008077   0.0000000), wk =   0.0277778
        k(   49) = (   0.0603217   0.1176090   0.0000000), wk =   0.0277778
        k(   50) = (   0.0603217  -0.0672051   0.0000000), wk =   0.0277778
        k(   51) = (   0.0603217  -0.0504039   0.0000000), wk =   0.0277778
        k(   52) = (   0.0603217  -0.0336026   0.0000000), wk =   0.0277778
        k(   53) = (   0.0603217  -0.0168013   0.0000000), wk =   0.0277778
        k(   54) = (   0.0603217   0.0000000   0.0000000), wk =   0.0277778
        k(   55) = (   0.0603217   0.0168013   0.0000000), wk =   0.0277778
        k(   56) = (   0.0754022   0.0420032   0.0000000), wk =   0.0277778
        k(   57) = (   0.0754022   0.0588045   0.0000000), wk =   0.0277778
        k(   58) = (   0.0754022   0.0756058   0.0000000), wk =   0.0277778
        k(   59) = (   0.0754022   0.0924071   0.0000000), wk =   0.0277778
        k(   60) = (   0.0754022   0.1092084   0.0000000), wk =   0.0277778
        k(   61) = (   0.0754022   0.1260096   0.0000000), wk =   0.0277778
        k(   62) = (   0.0754022  -0.0588045   0.0000000), wk =   0.0277778
        k(   63) = (   0.0754022  -0.0420032   0.0000000), wk =   0.0277778
        k(   64) = (   0.0754022  -0.0252019   0.0000000), wk =   0.0277778
        k(   65) = (   0.0754022  -0.0084006   0.0000000), wk =   0.0277778
        k(   66) = (   0.0754022   0.0084006   0.0000000), wk =   0.0277778
        k(   67) = (   0.0754022   0.0252019   0.0000000), wk =   0.0277778
        k(   68) = (  -0.0904826  -0.0504039   0.0000000), wk =   0.0138889
        k(   69) = (  -0.0904826  -0.0336026   0.0000000), wk =   0.0277778
        k(   70) = (  -0.0904826  -0.0168013   0.0000000), wk =   0.0277778
        k(   71) = (  -0.0904826   0.0000000   0.0000000), wk =   0.0277778
        k(   72) = (  -0.0904826   0.0168013   0.0000000), wk =   0.0277778
        k(   73) = (  -0.0904826   0.0336026   0.0000000), wk =   0.0277778
        k(   74) = (  -0.0904826  -0.1512116   0.0000000), wk =   0.0138889

     Dense  grid:   993707 G-vectors     FFT dimensions: (  80,  81, 360)

     Smooth grid:   251603 G-vectors     FFT dimensions: (  50,  54, 225)

     Estimated max dynamical RAM per process >     191.05 MB

     Estimated total dynamical RAM >       6.90 GB

     Initial potential from superposition of free atoms

     starting charge  143.99389, renormalised to  144.00000

     negative rho (up, down):  1.395E-03 0.000E+00


     %%%%%%%%%%%%%%%%%%%%%%%%%%%%%%%%%%%%%%%%%%%%%%%%%%%%%%%%%%%%%%%%%%%%%%%%
     %                                                                      %
     % You are using vdW-DF, which was implemented by the Thonhauser group. %
     % Please cite the following two papers that made this development      %
     % possible and the two reviews that describe the various versions:     %
     %                                                                      %
     %   T. Thonhauser et al., PRL 115, 136402 (2015).                      %
     %   T. Thonhauser et al., PRB 76, 125112 (2007).                       %
     %   K. Berland et al., Rep. Prog. Phys. 78, 066501 (2015).             %
     %   D.C. Langreth et al., J. Phys.: Condens. Matter 21, 084203 (2009). %
     %                                                                      %
     %                                                                      %
     % If you are calculating the stress with vdW-DF, please also cite:     %
     %                                                                      %
     %   R. Sabatini et al., J. Phys.: Condens. Matter 24, 424209 (2012).   %
     %                                                                      %
     %%%%%%%%%%%%%%%%%%%%%%%%%%%%%%%%%%%%%%%%%%%%%%%%%%%%%%%%%%%%%%%%%%%%%%%%



     Adding external electric field

     Computed dipole along edir(3) : 
        Dipole               -0.0004 Ry au,         -0.0010 Debye
        Dipole field         -0.0000 Ry au, 

        Potential amp.        0.0001 Ry
        Total length         45.3051 bohr

     Starting wfcs are  114 randomized atomic wfcs

     total cpu time spent up to now is       86.8 secs

     Self-consistent Calculation

     iteration #  1     ecut=    55.12 Ry     beta= 0.10
     Davidson diagonalization with overlap
     ethr =  1.00E-02,  avg # of iterations =  2.0

     negative rho (up, down):  1.255E-03 0.000E+00

     Adding external electric field

     Computed dipole along edir(3) : 
        Dipole               -0.3284 Ry au,         -0.8348 Debye
        Dipole field         -0.0009 Ry au, 

        Potential amp.        0.0822 Ry
        Total length         45.3051 bohr


     total cpu time spent up to now is      251.4 secs

     total energy              =   -1395.16835131 Ry
     estimated scf accuracy    <       9.79088308 Ry

     iteration #  2     ecut=    55.12 Ry     beta= 0.10
     Davidson diagonalization with overlap
     ethr =  6.80E-03,  avg # of iterations =  2.0

     negative rho (up, down):  2.992E-03 0.000E+00

     Adding external electric field

     Computed dipole along edir(3) : 
        Dipole                0.7900 Ry au,          2.0079 Debye
        Dipole field          0.0022 Ry au, 

        Potential amp.       -0.1978 Ry
        Total length         45.3051 bohr


     total cpu time spent up to now is      418.9 secs

     total energy              =   -1395.11674584 Ry
     estimated scf accuracy    <      19.32212967 Ry

     iteration #  3     ecut=    55.12 Ry     beta= 0.10
     Davidson diagonalization with overlap
     ethr =  6.80E-03,  avg # of iterations =  1.9

     negative rho (up, down):  3.324E-03 0.000E+00

     Adding external electric field

     Computed dipole along edir(3) : 
        Dipole               -0.0543 Ry au,         -0.1381 Debye
        Dipole field         -0.0002 Ry au, 

        Potential amp.        0.0136 Ry
        Total length         45.3051 bohr


     total cpu time spent up to now is      572.9 secs

     total energy              =   -1395.49071627 Ry
     estimated scf accuracy    <      48.85723952 Ry

     iteration #  4     ecut=    55.12 Ry     beta= 0.10
     Davidson diagonalization with overlap
     ethr =  6.80E-03,  avg # of iterations =  1.2

     negative rho (up, down):  5.161E-03 0.000E+00

     Adding external electric field

     Computed dipole along edir(3) : 
        Dipole               -0.0060 Ry au,         -0.0154 Debye
        Dipole field         -0.0000 Ry au, 

        Potential amp.        0.0015 Ry
        Total length         45.3051 bohr


     total cpu time spent up to now is      713.9 secs

     total energy              =   -1396.15263353 Ry
     estimated scf accuracy    <       3.59353232 Ry

     iteration #  5     ecut=    55.12 Ry     beta= 0.10
     Davidson diagonalization with overlap
     ethr =  2.50E-03,  avg # of iterations =  1.7

     negative rho (up, down):  9.498E-03 0.000E+00

     Adding external electric field

     Computed dipole along edir(3) : 
        Dipole               -0.0126 Ry au,         -0.0319 Debye
        Dipole field         -0.0000 Ry au, 

        Potential amp.        0.0031 Ry
        Total length         45.3051 bohr


     total cpu time spent up to now is      865.8 secs

     total energy              =   -1396.28730327 Ry
     estimated scf accuracy    <       0.55015512 Ry

     iteration #  6     ecut=    55.12 Ry     beta= 0.10
     Davidson diagonalization with overlap
     ethr =  3.82E-04,  avg # of iterations =  8.8

     negative rho (up, down):  1.502E-02 0.000E+00

     Adding external electric field

     Computed dipole along edir(3) : 
        Dipole                0.0042 Ry au,          0.0106 Debye
        Dipole field          0.0000 Ry au, 

        Potential amp.       -0.0010 Ry
        Total length         45.3051 bohr


     total cpu time spent up to now is     1061.9 secs

     total energy              =   -1396.34102596 Ry
     estimated scf accuracy    <       0.70394487 Ry

     iteration #  7     ecut=    55.12 Ry     beta= 0.10
     Davidson diagonalization with overlap
     ethr =  3.82E-04,  avg # of iterations =  1.1

     negative rho (up, down):  2.089E-02 0.000E+00

     Adding external electric field

     Computed dipole along edir(3) : 
        Dipole               -0.2249 Ry au,         -0.5717 Debye
        Dipole field         -0.0006 Ry au, 

        Potential amp.        0.0563 Ry
        Total length         45.3051 bohr


     total cpu time spent up to now is     1201.5 secs

     total energy              =   -1396.74938022 Ry
     estimated scf accuracy    <       0.72114207 Ry

     iteration #  8     ecut=    55.12 Ry     beta= 0.10
     Davidson diagonalization with overlap
     c_bands:  1 eigenvalues not converged
     ethr =  3.82E-04,  avg # of iterations = 11.1

     negative rho (up, down):  2.702E-02 0.000E+00

     Adding external electric field

     Computed dipole along edir(3) : 
        Dipole               -0.1745 Ry au,         -0.4436 Debye
        Dipole field         -0.0005 Ry au, 

        Potential amp.        0.0437 Ry
        Total length         45.3051 bohr


     total cpu time spent up to now is     1528.6 secs

     total energy              =   -1397.58917741 Ry
     estimated scf accuracy    <       9.69930748 Ry

     iteration #  9     ecut=    55.12 Ry     beta= 0.10
     Davidson diagonalization with overlap
     ethr =  3.82E-04,  avg # of iterations =  1.2

     negative rho (up, down):  1.669E-02 0.000E+00

     Adding external electric field

     Computed dipole along edir(3) : 
        Dipole               -0.1010 Ry au,         -0.2568 Debye
        Dipole field         -0.0003 Ry au, 

        Potential amp.        0.0253 Ry
        Total length         45.3051 bohr


     total cpu time spent up to now is     1669.4 secs

     total energy              =   -1396.90095116 Ry
     estimated scf accuracy    <       9.51202113 Ry

     iteration # 10     ecut=    55.12 Ry     beta= 0.10
     Davidson diagonalization with overlap
     ethr =  3.82E-04,  avg # of iterations =  3.2

     negative rho (up, down):  2.359E-02 0.000E+00

     Adding external electric field

     Computed dipole along edir(3) : 
        Dipole               -0.1124 Ry au,         -0.2857 Debye
        Dipole field         -0.0003 Ry au, 

        Potential amp.        0.0281 Ry
        Total length         45.3051 bohr


     total cpu time spent up to now is     1838.5 secs

     total energy              =   -1395.66808533 Ry
     estimated scf accuracy    <       6.15780793 Ry

     iteration # 11     ecut=    55.12 Ry     beta= 0.10
     Davidson diagonalization with overlap
     ethr =  3.82E-04,  avg # of iterations =  8.8

     negative rho (up, down):  2.153E-02 0.000E+00

     Adding external electric field

     Computed dipole along edir(3) : 
        Dipole               -0.1325 Ry au,         -0.3367 Debye
        Dipole field         -0.0004 Ry au, 

        Potential amp.        0.0332 Ry
        Total length         45.3051 bohr


     total cpu time spent up to now is     2156.6 secs

     total energy              =   -1396.23645992 Ry
     estimated scf accuracy    <       0.57795643 Ry

     iteration # 12     ecut=    55.12 Ry     beta= 0.10
     Davidson diagonalization with overlap
     ethr =  3.82E-04,  avg # of iterations =  1.5

     negative rho (up, down):  2.150E-02 0.000E+00

     Adding external electric field

     Computed dipole along edir(3) : 
        Dipole               -0.1781 Ry au,         -0.4527 Debye
        Dipole field         -0.0005 Ry au, 

        Potential amp.        0.0446 Ry
        Total length         45.3051 bohr


     total cpu time spent up to now is     2303.3 secs

     total energy              =   -1396.25005371 Ry
     estimated scf accuracy    <       0.10590465 Ry

     iteration # 13     ecut=    55.12 Ry     beta= 0.10
     Davidson diagonalization with overlap
     c_bands:  1 eigenvalues not converged
     c_bands:  1 eigenvalues not converged
     c_bands:  1 eigenvalues not converged
     c_bands:  1 eigenvalues not converged
     c_bands:  3 eigenvalues not converged
     c_bands:  2 eigenvalues not converged
     ethr =  7.35E-05,  avg # of iterations =  5.6

     negative rho (up, down):  2.244E-02 0.000E+00

     Adding external electric field

     Computed dipole along edir(3) : 
        Dipole               -0.1720 Ry au,         -0.4371 Debye
        Dipole field         -0.0005 Ry au, 

        Potential amp.        0.0431 Ry
        Total length         45.3051 bohr


     total cpu time spent up to now is     2471.5 secs

     total energy              =   -1396.24793899 Ry
     estimated scf accuracy    <       0.11110430 Ry

     iteration # 14     ecut=    55.12 Ry     beta= 0.10
     Davidson diagonalization with overlap
     ethr =  7.35E-05,  avg # of iterations =  1.6

     negative rho (up, down):  2.870E-02 0.000E+00

     Adding external electric field

     Computed dipole along edir(3) : 
        Dipole               -0.1564 Ry au,         -0.3974 Debye
        Dipole field         -0.0004 Ry au, 

        Potential amp.        0.0391 Ry
        Total length         45.3051 bohr


     total cpu time spent up to now is     2613.0 secs

     total energy              =   -1396.23617898 Ry
     estimated scf accuracy    <       0.06043147 Ry

     iteration # 15     ecut=    55.12 Ry     beta= 0.10
     Davidson diagonalization with overlap
     c_bands:  2 eigenvalues not converged
     c_bands:  1 eigenvalues not converged
     c_bands:  1 eigenvalues not converged
     c_bands:  1 eigenvalues not converged
     ethr =  4.20E-05,  avg # of iterations = 10.0

     negative rho (up, down):  3.256E-02 0.000E+00

     Adding external electric field

     Computed dipole along edir(3) : 
        Dipole               -0.1349 Ry au,         -0.3429 Debye
        Dipole field         -0.0004 Ry au, 

        Potential amp.        0.0338 Ry
        Total length         45.3051 bohr


     total cpu time spent up to now is     2835.0 secs

     total energy              =   -1396.25172441 Ry
     estimated scf accuracy    <       0.02285551 Ry

     iteration # 16     ecut=    55.12 Ry     beta= 0.10
     Davidson diagonalization with overlap
     c_bands:  1 eigenvalues not converged
     c_bands:  2 eigenvalues not converged
     c_bands:  2 eigenvalues not converged
     c_bands:  2 eigenvalues not converged
     c_bands:  2 eigenvalues not converged
     c_bands:  1 eigenvalues not converged
     c_bands:  1 eigenvalues not converged
     c_bands:  1 eigenvalues not converged
     c_bands:  1 eigenvalues not converged
     c_bands:  1 eigenvalues not converged
     c_bands:  2 eigenvalues not converged
     c_bands:  2 eigenvalues not converged
     ethr =  1.59E-05,  avg # of iterations = 11.4

     negative rho (up, down):  2.995E-02 0.000E+00

     Adding external electric field

     Computed dipole along edir(3) : 
        Dipole               -0.1315 Ry au,         -0.3343 Debye
        Dipole field         -0.0004 Ry au, 

        Potential amp.        0.0329 Ry
        Total length         45.3051 bohr


     total cpu time spent up to now is     3065.3 secs

     total energy              =   -1396.25159014 Ry
     estimated scf accuracy    <       0.11447851 Ry

     iteration # 17     ecut=    55.12 Ry     beta= 0.10
     Davidson diagonalization with overlap
     ethr =  1.59E-05,  avg # of iterations =  2.0

     negative rho (up, down):  2.756E-02 0.000E+00

     Adding external electric field

     Computed dipole along edir(3) : 
        Dipole               -0.1200 Ry au,         -0.3049 Debye
        Dipole field         -0.0003 Ry au, 

        Potential amp.        0.0300 Ry
        Total length         45.3051 bohr


     total cpu time spent up to now is     3213.7 secs

     total energy              =   -1396.25064161 Ry
     estimated scf accuracy    <       0.07205406 Ry

     iteration # 18     ecut=    55.12 Ry     beta= 0.10
     Davidson diagonalization with overlap
     ethr =  1.59E-05,  avg # of iterations =  1.0

     negative rho (up, down):  2.445E-02 0.000E+00

     Adding external electric field

     Computed dipole along edir(3) : 
        Dipole               -0.1215 Ry au,         -0.3089 Debye
        Dipole field         -0.0003 Ry au, 

        Potential amp.        0.0304 Ry
        Total length         45.3051 bohr


     total cpu time spent up to now is     3351.2 secs

     total energy              =   -1396.24821109 Ry
     estimated scf accuracy    <       0.04092437 Ry

     iteration # 19     ecut=    55.12 Ry     beta= 0.10
     Davidson diagonalization with overlap
     ethr =  1.59E-05,  avg # of iterations =  2.1

     negative rho (up, down):  1.930E-02 0.000E+00

     Adding external electric field

     Computed dipole along edir(3) : 
        Dipole               -0.0957 Ry au,         -0.2433 Debye
        Dipole field         -0.0003 Ry au, 

        Potential amp.        0.0240 Ry
        Total length         45.3051 bohr


     total cpu time spent up to now is     3510.2 secs

     total energy              =   -1396.24892902 Ry
     estimated scf accuracy    <       0.01150813 Ry

     iteration # 20     ecut=    55.12 Ry     beta= 0.10
     Davidson diagonalization with overlap
     ethr =  7.99E-06,  avg # of iterations =  5.4

     negative rho (up, down):  1.705E-02 0.000E+00

     Adding external electric field

     Computed dipole along edir(3) : 
        Dipole               -0.0816 Ry au,         -0.2074 Debye
        Dipole field         -0.0002 Ry au, 

        Potential amp.        0.0204 Ry
        Total length         45.3051 bohr


     total cpu time spent up to now is     3692.5 secs

     total energy              =   -1396.25055646 Ry
     estimated scf accuracy    <       0.00145473 Ry

     iteration # 21     ecut=    55.12 Ry     beta= 0.10
     Davidson diagonalization with overlap
     c_bands:  3 eigenvalues not converged
     c_bands:  1 eigenvalues not converged
     c_bands:  2 eigenvalues not converged
     c_bands:  1 eigenvalues not converged
     c_bands:  2 eigenvalues not converged
     c_bands:  1 eigenvalues not converged
     c_bands:  1 eigenvalues not converged
     c_bands:  2 eigenvalues not converged
     c_bands:  3 eigenvalues not converged
     c_bands:  1 eigenvalues not converged
     c_bands:  1 eigenvalues not converged
     c_bands:  2 eigenvalues not converged
     c_bands:  2 eigenvalues not converged
     c_bands:  4 eigenvalues not converged
     c_bands:  1 eigenvalues not converged
     c_bands:  2 eigenvalues not converged
     c_bands:  2 eigenvalues not converged
     c_bands:  1 eigenvalues not converged
     c_bands:  1 eigenvalues not converged
     c_bands:  1 eigenvalues not converged
     c_bands:  1 eigenvalues not converged
     c_bands:  2 eigenvalues not converged
     c_bands:  1 eigenvalues not converged
     c_bands:  1 eigenvalues not converged
     c_bands:  1 eigenvalues not converged
     c_bands:  1 eigenvalues not converged
     c_bands:  1 eigenvalues not converged
     c_bands:  1 eigenvalues not converged
     ethr =  1.01E-06,  avg # of iterations = 14.4

     negative rho (up, down):  1.615E-02 0.000E+00

     Adding external electric field

     Computed dipole along edir(3) : 
        Dipole               -0.0770 Ry au,         -0.1958 Debye
        Dipole field         -0.0002 Ry au, 

        Potential amp.        0.0193 Ry
        Total length         45.3051 bohr


     total cpu time spent up to now is     3966.6 secs

     total energy              =   -1396.25105211 Ry
     estimated scf accuracy    <       0.00079751 Ry

     iteration # 22     ecut=    55.12 Ry     beta= 0.10
     Davidson diagonalization with overlap
     c_bands:  1 eigenvalues not converged
     c_bands:  1 eigenvalues not converged
     c_bands:  1 eigenvalues not converged
     c_bands:  1 eigenvalues not converged
     c_bands:  1 eigenvalues not converged
     c_bands:  1 eigenvalues not converged
     ethr =  5.54E-07,  avg # of iterations =  4.8

     negative rho (up, down):  1.453E-02 0.000E+00

     Adding external electric field

     Computed dipole along edir(3) : 
        Dipole               -0.0703 Ry au,         -0.1788 Debye
        Dipole field         -0.0002 Ry au, 

        Potential amp.        0.0176 Ry
        Total length         45.3051 bohr


     total cpu time spent up to now is     4142.6 secs

     total energy              =   -1396.25148388 Ry
     estimated scf accuracy    <       0.00014967 Ry

     iteration # 23     ecut=    55.12 Ry     beta= 0.10
     Davidson diagonalization with overlap
     c_bands:  1 eigenvalues not converged
     c_bands:  2 eigenvalues not converged
     c_bands:  1 eigenvalues not converged
     c_bands:  1 eigenvalues not converged
     ethr =  1.04E-07,  avg # of iterations =  9.4

     negative rho (up, down):  1.227E-02 0.000E+00

     Adding external electric field

     Computed dipole along edir(3) : 
        Dipole               -0.0697 Ry au,         -0.1772 Debye
        Dipole field         -0.0002 Ry au, 

        Potential amp.        0.0175 Ry
        Total length         45.3051 bohr


     total cpu time spent up to now is     4401.7 secs

     total energy              =   -1396.25199972 Ry
     estimated scf accuracy    <       0.00029028 Ry

     iteration # 24     ecut=    55.12 Ry     beta= 0.10
     Davidson diagonalization with overlap
     c_bands:  1 eigenvalues not converged
     ethr =  1.04E-07,  avg # of iterations =  6.9

     negative rho (up, down):  1.151E-02 0.000E+00

     Adding external electric field

     Computed dipole along edir(3) : 
        Dipole               -0.0656 Ry au,         -0.1667 Debye
        Dipole field         -0.0002 Ry au, 

        Potential amp.        0.0164 Ry
        Total length         45.3051 bohr


     total cpu time spent up to now is     4624.5 secs

     total energy              =   -1396.25219955 Ry
     estimated scf accuracy    <       0.00012962 Ry

     iteration # 25     ecut=    55.12 Ry     beta= 0.10
     Davidson diagonalization with overlap
     ethr =  9.00E-08,  avg # of iterations =  2.0

     negative rho (up, down):  1.049E-02 0.000E+00

     Adding external electric field

     Computed dipole along edir(3) : 
        Dipole               -0.0635 Ry au,         -0.1614 Debye
        Dipole field         -0.0002 Ry au, 

        Potential amp.        0.0159 Ry
        Total length         45.3051 bohr


     total cpu time spent up to now is     4784.3 secs

     total energy              =   -1396.25243481 Ry
     estimated scf accuracy    <       0.00005242 Ry

     iteration # 26     ecut=    55.12 Ry     beta= 0.10
     Davidson diagonalization with overlap
     ethr =  3.64E-08,  avg # of iterations =  2.0

     negative rho (up, down):  9.376E-03 0.000E+00

     Adding external electric field

     Computed dipole along edir(3) : 
        Dipole               -0.0637 Ry au,         -0.1619 Debye
        Dipole field         -0.0002 Ry au, 

        Potential amp.        0.0159 Ry
        Total length         45.3051 bohr


     total cpu time spent up to now is     4945.2 secs

     total energy              =   -1396.25267200 Ry
     estimated scf accuracy    <       0.00003184 Ry

     iteration # 27     ecut=    55.12 Ry     beta= 0.10
     Davidson diagonalization with overlap
     ethr =  2.21E-08,  avg # of iterations =  2.3

     negative rho (up, down):  8.476E-03 0.000E+00

     Adding external electric field

     Computed dipole along edir(3) : 
        Dipole               -0.0637 Ry au,         -0.1619 Debye
        Dipole field         -0.0002 Ry au, 

        Potential amp.        0.0159 Ry
        Total length         45.3051 bohr


     total cpu time spent up to now is     5108.0 secs

     total energy              =   -1396.25284914 Ry
     estimated scf accuracy    <       0.00001287 Ry

     iteration # 28     ecut=    55.12 Ry     beta= 0.10
     Davidson diagonalization with overlap
     c_bands:  1 eigenvalues not converged
     c_bands:  2 eigenvalues not converged
     ethr =  8.93E-09,  avg # of iterations =  8.6

     negative rho (up, down):  1.982E-03 0.000E+00

     Adding external electric field

     Computed dipole along edir(3) : 
        Dipole               -0.0617 Ry au,         -0.1567 Debye
        Dipole field         -0.0002 Ry au, 

        Potential amp.        0.0154 Ry
        Total length         45.3051 bohr


     total cpu time spent up to now is     5318.2 secs

     End of self-consistent calculation

          k = 0.0000 0.0000 0.0000 ( 31483 PWs)   bands (ev):

   -63.6420 -63.6030 -63.5853 -63.5453 -63.5342 -63.4954 -37.5782 -37.5419
   -37.5283 -37.5027 -37.4947 -37.4893 -37.4670 -37.4610 -37.4322 -37.4237
   -37.3997 -37.3958 -37.3702 -37.1586 -37.1083 -37.0775 -37.0701 -37.0392
    -7.4059  -6.0220  -5.8674  -5.7242  -5.5135  -5.4429  -5.2371  -5.0864
    -5.0147  -4.9245  -4.8011  -4.6838  -4.6837  -4.3585  -4.3153  -3.8431
    -3.7712  -3.6869  -3.6596  -3.5650  -3.4274  -3.2987  -3.1412  -3.1394
    -3.0898  -2.9014  -2.8449  -2.6219  -2.5115  -2.2111  -1.9725  -1.3327
    -1.2446  -0.4575  -0.2246  -0.0970   0.1028   0.1682   0.2451   0.2560
     0.2975   0.3310   0.3588   0.6865   0.7306   0.9158   1.0969   1.1904
     1.1927   1.3952   1.5867   1.6247   1.8707   1.8852   1.9074   2.0120
     2.0738   2.1968   2.2363   2.3286   2.4301   2.5721

          k = 0.0000 0.0168 0.0000 ( 31458 PWs)   bands (ev):

   -63.6420 -63.6030 -63.5853 -63.5453 -63.5342 -63.4954 -37.5783 -37.5419
   -37.5284 -37.5029 -37.4948 -37.4893 -37.4670 -37.4610 -37.4323 -37.4239
   -37.3998 -37.3959 -37.3702 -37.1586 -37.1083 -37.0775 -37.0700 -37.0392
    -7.3663  -6.0029  -5.8558  -5.7082  -5.4945  -5.4273  -5.2205  -5.0730
    -5.0038  -4.9042  -4.7863  -4.6661  -4.6535  -4.3472  -4.3193  -3.8164
    -3.7841  -3.6762  -3.6581  -3.5645  -3.4435  -3.2700  -3.1360  -3.1336
    -3.0819  -2.9204  -2.8420  -2.6126  -2.5035  -2.2138  -1.9719  -1.3351
    -1.2699  -0.6064  -0.2202  -0.0981  -0.0211   0.0258   0.2247   0.2302
     0.2830   0.3511   0.4112   0.6139   0.6389   0.8184   0.9967   1.2189
     1.2516   1.3886   1.5083   1.5743   1.6665   1.7506   1.9560   2.0029
     2.0478   2.2454   2.2994   2.3074   2.4169   2.5100

          k = 0.0000 0.0336 0.0000 ( 31458 PWs)   bands (ev):

   -63.6420 -63.6030 -63.5853 -63.5453 -63.5342 -63.4954 -37.5786 -37.5419
   -37.5289 -37.5036 -37.4950 -37.4893 -37.4669 -37.4608 -37.4326 -37.4242
   -37.3999 -37.3960 -37.3703 -37.1587 -37.1084 -37.0775 -37.0701 -37.0393
    -7.2528  -5.9559  -5.8220  -5.6647  -5.4398  -5.3895  -5.1653  -5.0331
    -4.9736  -4.8476  -4.7438  -4.6164  -4.5609  -4.3314  -4.3153  -3.8073
    -3.7410  -3.6615  -3.6538  -3.5565  -3.4885  -3.2005  -3.1250  -3.1189
    -3.0589  -2.9645  -2.8374  -2.5871  -2.4808  -2.2215  -1.9700  -1.3856
    -1.3418  -0.8901  -0.2649  -0.2567  -0.2543  -0.1478   0.0872   0.1667
     0.2648   0.3263   0.3768   0.4550   0.5195   0.6058   0.7588   1.1764
     1.2185   1.2506   1.3517   1.4119   1.4408   1.8071   1.8947   1.9799
     1.9880   2.2315   2.2457   2.2904   2.3858   2.4168

          k = 0.0000 0.0504 0.0000 ( 31464 PWs)   bands (ev):

   -63.6419 -63.6030 -63.5852 -63.5453 -63.5342 -63.4953 -37.5790 -37.5421
   -37.5295 -37.5046 -37.4954 -37.4894 -37.4667 -37.4605 -37.4330 -37.4248
   -37.4002 -37.3963 -37.3706 -37.1587 -37.1085 -37.0775 -37.0701 -37.0393
    -7.0828  -5.9067  -5.7682  -5.6059  -5.3571  -5.3498  -5.0618  -4.9688
    -4.9318  -4.7696  -4.6782  -4.5439  -4.4077  -4.3515  -4.2694  -3.8298
    -3.6648  -3.6470  -3.6316  -3.5473  -3.5335  -3.1371  -3.1197  -3.1007
    -3.0248  -3.0083  -2.8213  -2.5517  -2.4479  -2.2329  -1.9673  -1.6957
    -1.3503  -1.0638  -0.6119  -0.5161  -0.4773  -0.2629  -0.0350   0.0719
     0.1336   0.1836   0.2428   0.3615   0.3715   0.4004   0.5855   0.8620
     0.9320   1.0151   1.3306   1.3811   1.4774   1.7534   1.8502   1.9155
     2.0054   2.0510   2.1311   2.2021   2.3585   2.3774

          k = 0.0000 0.0672 0.0000 ( 31432 PWs)   bands (ev):

   -63.6419 -63.6030 -63.5852 -63.5453 -63.5342 -63.4953 -37.5794 -37.5422
   -37.5301 -37.5055 -37.4958 -37.4895 -37.4665 -37.4602 -37.4334 -37.4253
   -37.4004 -37.3965 -37.3708 -37.1587 -37.1086 -37.0776 -37.0701 -37.0393
    -6.8902  -5.8762  -5.7065  -5.5478  -5.3208  -5.2631  -4.9149  -4.8891
    -4.8858  -4.6965  -4.5964  -4.4646  -4.3777  -4.2383  -4.2206  -3.8574
    -3.6943  -3.6389  -3.5741  -3.5221  -3.4938  -3.1352  -3.1347  -3.0837
    -3.0216  -2.9884  -2.7729  -2.5161  -2.4117  -2.2462  -2.0825  -1.9643
    -1.3566  -1.1823  -0.9321  -0.8706  -0.7577  -0.3242  -0.1613  -0.0708
    -0.0349   0.0301   0.1036   0.2416   0.2861   0.3054   0.4469   0.5254
     0.6723   0.9604   1.2963   1.3253   1.3666   1.6885   1.8460   1.8704
     1.9840   2.0873   2.1073   2.1324   2.3194   2.3366

          k = 0.0000 0.0840 0.0000 ( 31422 PWs)   bands (ev):

   -63.6419 -63.6030 -63.5851 -63.5453 -63.5342 -63.4953 -37.5796 -37.5423
   -37.5305 -37.5061 -37.4961 -37.4895 -37.4665 -37.4599 -37.4337 -37.4257
   -37.4005 -37.3968 -37.3709 -37.1588 -37.1087 -37.0776 -37.0702 -37.0393
    -6.7291  -5.8655  -5.6591  -5.5057  -5.3041  -5.1848  -4.8573  -4.8258
    -4.7135  -4.6511  -4.5151  -4.4074  -4.4010  -4.2466  -4.1826  -3.8343
    -3.6866  -3.6319  -3.5431  -3.4762  -3.4307  -3.1662  -3.1404  -3.0717
    -3.0350  -2.9607  -2.7133  -2.4900  -2.3838  -2.3819  -2.2582  -1.9619
    -1.4938  -1.3571  -1.1573  -0.9512  -0.9308  -0.4012  -0.3194  -0.2178
    -0.1077  -0.1066   0.0491   0.1776   0.2157   0.2221   0.3205   0.3670
     0.4876   0.9726   1.1524   1.2657   1.3600   1.6754   1.7949   1.8886
     1.9244   2.0743   2.1020   2.2473   2.2653   2.2989

          k = 0.0000-0.1008 0.0000 ( 31414 PWs)   bands (ev):

   -63.6419 -63.6030 -63.5851 -63.5453 -63.5342 -63.4953 -37.5797 -37.5423
   -37.5306 -37.5064 -37.4962 -37.4896 -37.4665 -37.4598 -37.4337 -37.4259
   -37.4006 -37.3968 -37.3710 -37.1588 -37.1087 -37.0776 -37.0702 -37.0393
    -6.6644  -5.8645  -5.6417  -5.4903  -5.2988  -5.1535  -4.8456  -4.7977
    -4.6372  -4.5404  -4.4654  -4.4352  -4.3980  -4.3763  -4.1681  -3.8061
    -3.6614  -3.6291  -3.4987  -3.4638  -3.4093  -3.1760  -3.1286  -3.0674
    -3.0478  -2.9503  -2.6882  -2.5151  -2.4805  -2.3698  -2.2636  -1.9610
    -1.6517  -1.3550  -1.2386  -0.9947  -0.9280  -0.4859  -0.3503  -0.2790
    -0.1597  -0.1286   0.0493   0.1582   0.1643   0.1690   0.2725   0.3429
     0.4288   1.0215   1.0465   1.2552   1.3585   1.6746   1.7761   1.8961
     1.8997   2.0522   2.1109   2.2432   2.2876   2.3200

          k = 0.0151 0.0084 0.0000 ( 31488 PWs)   bands (ev):

   -63.6414 -63.6037 -63.5846 -63.5460 -63.5336 -63.4961 -37.5777 -37.5425
   -37.5277 -37.5022 -37.4900 -37.4891 -37.4677 -37.4605 -37.4316 -37.4244
   -37.3965 -37.3942 -37.3646 -37.1645 -37.1078 -37.0780 -37.0758 -37.0450
    -7.3477  -5.9620  -5.8138  -5.6959  -5.4838  -5.4037  -5.2159  -5.0706
    -5.0373  -4.8861  -4.7706  -4.6747  -4.6544  -4.3574  -4.2893  -3.8328
    -3.7733  -3.6791  -3.6383  -3.5646  -3.4404  -3.2988  -3.1660  -3.1449
    -3.1264  -2.9205  -2.8497  -2.6643  -2.5537  -2.2629  -2.0096  -1.3908
    -1.2324  -0.4719  -0.3910  -0.1929  -0.0667   0.0051   0.1746   0.2655
     0.3115   0.3241   0.4065   0.5851   0.7286   1.0598   1.0867   1.2018
     1.2633   1.3700   1.4976   1.5323   1.6787   1.7778   1.8670   2.0498
     2.1731   2.2246   2.2888   2.3047   2.3334   2.5159

          k = 0.0151 0.0252 0.0000 ( 31481 PWs)   bands (ev):

   -63.6413 -63.6037 -63.5846 -63.5460 -63.5336 -63.4960 -37.5778 -37.5426
   -37.5280 -37.5026 -37.4900 -37.4893 -37.4676 -37.4603 -37.4318 -37.4247
   -37.3966 -37.3943 -37.3648 -37.1645 -37.1079 -37.0780 -37.0758 -37.0450
    -7.2697  -5.9262  -5.7910  -5.6653  -5.4476  -5.3745  -5.1837  -5.0437
    -5.0168  -4.8483  -4.7405  -4.6424  -4.5956  -4.3373  -4.2966  -3.7940
    -3.7819  -3.6662  -3.6351  -3.5638  -3.4685  -3.2454  -3.1588  -3.1375
    -3.1099  -2.9517  -2.8472  -2.6485  -2.5400  -2.2679  -2.0092  -1.3967
    -1.2890  -0.7197  -0.5132  -0.2053  -0.1598  -0.0760   0.0810   0.1876
     0.2382   0.3163   0.4087   0.5336   0.6026   0.8449   0.8835   1.2486
     1.2752   1.3255   1.3975   1.4342   1.4834   1.6716   1.8200   2.0772
     2.0823   2.2033   2.2584   2.2997   2.4159   2.4217

          k = 0.0151 0.0420 0.0000 ( 31477 PWs)   bands (ev):

   -63.6413 -63.6037 -63.5846 -63.5460 -63.5336 -63.4960 -37.5782 -37.5427
   -37.5285 -37.5035 -37.4901 -37.4895 -37.4675 -37.4601 -37.4322 -37.4251
   -37.3968 -37.3945 -37.3649 -37.1645 -37.1080 -37.0781 -37.0758 -37.0450
    -7.1246  -5.8741  -5.7468  -5.6126  -5.3792  -5.3347  -5.1075  -4.9908
    -4.9816  -4.7813  -4.6839  -4.5839  -4.4759  -4.3145  -4.2977  -3.8185
    -3.6906  -3.6625  -3.6281  -3.5518  -3.5188  -3.1713  -3.1457  -3.1278
    -3.0839  -2.9973  -2.8398  -2.6219  -2.5162  -2.2772  -2.0083  -1.4862
    -1.4078  -0.9687  -0.7430  -0.3965  -0.2898  -0.1857  -0.0414   0.0478
     0.1322   0.2624   0.2715   0.4697   0.4732   0.5846   0.6843   0.8900
     1.0783   1.1357   1.3779   1.4238   1.4761   1.7501   1.7814   1.9270
     2.0267   2.0811   2.1689   2.3171   2.3748   2.4117

          k = 0.0151 0.0588 0.0000 ( 31449 PWs)   bands (ev):

   -63.6413 -63.6037 -63.5845 -63.5460 -63.5336 -63.4960 -37.5785 -37.5428
   -37.5291 -37.5044 -37.4903 -37.4898 -37.4672 -37.4597 -37.4326 -37.4256
   -37.3970 -37.3947 -37.3651 -37.1646 -37.1081 -37.0781 -37.0759 -37.0451
    -6.9369  -5.8329  -5.6864  -5.5523  -5.3036  -5.2892  -4.9813  -4.9416
    -4.9167  -4.7049  -4.6074  -4.5120  -4.3335  -4.3087  -4.2549  -3.8470
    -3.6845  -3.6261  -3.5728  -3.5638  -3.5246  -3.1361  -3.1357  -3.1268
    -3.0542  -3.0262  -2.8088  -2.5945  -2.4899  -2.2900  -2.0068  -1.8426
    -1.4228  -1.0808  -1.0170  -0.6519  -0.6430  -0.2669  -0.1582  -0.0519
    -0.0164   0.0770   0.1919   0.3082   0.3396   0.4262   0.5378   0.5388
     0.8902   0.9879   1.3482   1.3824   1.4096   1.7434   1.7748   1.8909
     2.0057   2.0225   2.0859   2.2518   2.3392   2.3472

          k = 0.0151 0.0756 0.0000 ( 31413 PWs)   bands (ev):

   -63.6412 -63.6037 -63.5845 -63.5460 -63.5336 -63.4960 -37.5789 -37.5428
   -37.5296 -37.5052 -37.4905 -37.4900 -37.4671 -37.4594 -37.4329 -37.4261
   -37.3973 -37.3949 -37.3653 -37.1646 -37.1081 -37.0781 -37.0759 -37.0450
    -6.7504  -5.8133  -5.6293  -5.5004  -5.2851  -5.1978  -4.9087  -4.8507
    -4.7990  -4.6455  -4.5235  -4.4462  -4.3550  -4.2144  -4.2015  -3.8692
    -3.7009  -3.6165  -3.5630  -3.5047  -3.4638  -3.1565  -3.1482  -3.1260
    -3.0359  -3.0278  -2.7501  -2.5786  -2.4757  -2.3048  -2.1579  -2.0047
    -1.4451  -1.2960  -1.2443  -0.8922  -0.8475  -0.3222  -0.2461  -0.2153
    -0.1576  -0.0288   0.0158   0.1878   0.2380   0.2570   0.4262   0.4379
     0.6660   0.9824   1.2443   1.3086   1.3699   1.7201   1.7385   1.9086
     1.9522   2.0611   2.0768   2.2223   2.2938   2.3256

          k = 0.0151 0.0924 0.0000 ( 31415 PWs)   bands (ev):

   -63.6412 -63.6037 -63.5845 -63.5460 -63.5336 -63.4960 -37.5790 -37.5429
   -37.5299 -37.5057 -37.4906 -37.4901 -37.4670 -37.4592 -37.4331 -37.4264
   -37.3975 -37.3950 -37.3654 -37.1646 -37.1082 -37.0781 -37.0759 -37.0451
    -6.6284  -5.8093  -5.5959  -5.4706  -5.2769  -5.1366  -4.8916  -4.7969
    -4.6174  -4.5969  -4.4574  -4.4125  -4.3699  -4.3296  -4.1897  -3.8276
    -3.6707  -3.6112  -3.5133  -3.4834  -3.4153  -3.1790  -3.1435  -3.1385
    -3.0524  -3.0125  -2.7051  -2.5824  -2.4938  -2.3294  -2.3003  -2.0020
    -1.5620  -1.4841  -1.3473  -0.9639  -0.8759  -0.4243  -0.3088  -0.2903
    -0.2303  -0.1543  -0.0680   0.0980   0.1913   0.2199   0.3762   0.3926
     0.5406   1.0199   1.1074   1.2869   1.3673   1.7111   1.7192   1.9035
     1.9070   2.0436   2.0899   2.2431   2.2657   2.3129

          k = 0.0151-0.0924 0.0000 ( 31415 PWs)   bands (ev):

   -63.6412 -63.6037 -63.5845 -63.5460 -63.5336 -63.4960 -37.5790 -37.5429
   -37.5299 -37.5057 -37.4906 -37.4901 -37.4670 -37.4592 -37.4331 -37.4264
   -37.3975 -37.3950 -37.3654 -37.1646 -37.1082 -37.0781 -37.0759 -37.0451
    -6.6284  -5.8093  -5.5959  -5.4706  -5.2769  -5.1366  -4.8916  -4.7969
    -4.6174  -4.5969  -4.4574  -4.4125  -4.3699  -4.3296  -4.1897  -3.8276
    -3.6707  -3.6112  -3.5133  -3.4834  -3.4153  -3.1790  -3.1435  -3.1385
    -3.0524  -3.0125  -2.7051  -2.5824  -2.4938  -2.3294  -2.3003  -2.0020
    -1.5620  -1.4841  -1.3473  -0.9639  -0.8759  -0.4243  -0.3087  -0.2903
    -0.2303  -0.1543  -0.0680   0.0980   0.1913   0.2199   0.3761   0.3926
     0.5406   1.0199   1.1074   1.2869   1.3673   1.7111   1.7191   1.9035
     1.9070   2.0436   2.0899   2.2430   2.2660   2.3127

          k = 0.0151-0.0756 0.0000 ( 31413 PWs)   bands (ev):

   -63.6412 -63.6037 -63.5845 -63.5460 -63.5336 -63.4960 -37.5789 -37.5428
   -37.5296 -37.5052 -37.4905 -37.4900 -37.4671 -37.4594 -37.4329 -37.4261
   -37.3973 -37.3949 -37.3653 -37.1646 -37.1081 -37.0781 -37.0759 -37.0450
    -6.7504  -5.8133  -5.6293  -5.5004  -5.2851  -5.1978  -4.9087  -4.8507
    -4.7990  -4.6455  -4.5235  -4.4462  -4.3550  -4.2144  -4.2015  -3.8692
    -3.7009  -3.6165  -3.5630  -3.5047  -3.4638  -3.1565  -3.1482  -3.1260
    -3.0359  -3.0278  -2.7501  -2.5786  -2.4757  -2.3048  -2.1579  -2.0047
    -1.4450  -1.2960  -1.2444  -0.8922  -0.8475  -0.3222  -0.2461  -0.2152
    -0.1576  -0.0288   0.0158   0.1879   0.2380   0.2570   0.4262   0.4379
     0.6660   0.9824   1.2443   1.3086   1.3699   1.7202   1.7385   1.9086
     1.9522   2.0609   2.0769   2.2221   2.2851   2.3243

          k = 0.0151-0.0588 0.0000 ( 31449 PWs)   bands (ev):

   -63.6413 -63.6037 -63.5845 -63.5460 -63.5336 -63.4960 -37.5785 -37.5428
   -37.5291 -37.5044 -37.4903 -37.4898 -37.4672 -37.4597 -37.4326 -37.4256
   -37.3970 -37.3947 -37.3651 -37.1646 -37.1081 -37.0781 -37.0759 -37.0451
    -6.9369  -5.8329  -5.6864  -5.5523  -5.3036  -5.2892  -4.9813  -4.9416
    -4.9167  -4.7049  -4.6074  -4.5120  -4.3335  -4.3087  -4.2549  -3.8470
    -3.6845  -3.6261  -3.5728  -3.5638  -3.5246  -3.1361  -3.1357  -3.1268
    -3.0542  -3.0262  -2.8088  -2.5945  -2.4899  -2.2900  -2.0068  -1.8425
    -1.4227  -1.0808  -1.0170  -0.6519  -0.6430  -0.2669  -0.1582  -0.0519
    -0.0164   0.0770   0.1919   0.3082   0.3396   0.4262   0.5378   0.5388
     0.8901   0.9879   1.3482   1.3825   1.4096   1.7434   1.7748   1.8909
     2.0057   2.0225   2.0859   2.2519   2.3406   2.3472

          k = 0.0151-0.0420 0.0000 ( 31477 PWs)   bands (ev):

   -63.6413 -63.6037 -63.5846 -63.5460 -63.5336 -63.4960 -37.5782 -37.5427
   -37.5285 -37.5035 -37.4901 -37.4895 -37.4675 -37.4601 -37.4322 -37.4251
   -37.3968 -37.3945 -37.3649 -37.1645 -37.1080 -37.0781 -37.0758 -37.0450
    -7.1246  -5.8741  -5.7468  -5.6126  -5.3792  -5.3347  -5.1075  -4.9908
    -4.9816  -4.7813  -4.6839  -4.5839  -4.4760  -4.3145  -4.2977  -3.8185
    -3.6906  -3.6625  -3.6281  -3.5518  -3.5188  -3.1713  -3.1457  -3.1278
    -3.0839  -2.9973  -2.8398  -2.6219  -2.5162  -2.2772  -2.0083  -1.4862
    -1.4078  -0.9687  -0.7430  -0.3965  -0.2898  -0.1857  -0.0414   0.0478
     0.1322   0.2625   0.2714   0.4697   0.4732   0.5846   0.6843   0.8899
     1.0783   1.1356   1.3778   1.4239   1.4761   1.7502   1.7814   1.9271
     2.0267   2.0820   2.1689   2.3173   2.3748   2.4603

          k = 0.0151-0.0252 0.0000 ( 31481 PWs)   bands (ev):

   -63.6413 -63.6037 -63.5846 -63.5460 -63.5336 -63.4960 -37.5778 -37.5426
   -37.5280 -37.5026 -37.4900 -37.4893 -37.4676 -37.4603 -37.4318 -37.4247
   -37.3966 -37.3943 -37.3648 -37.1645 -37.1079 -37.0780 -37.0758 -37.0450
    -7.2697  -5.9262  -5.7910  -5.6653  -5.4476  -5.3745  -5.1837  -5.0437
    -5.0168  -4.8483  -4.7405  -4.6424  -4.5956  -4.3373  -4.2966  -3.7940
    -3.7819  -3.6662  -3.6351  -3.5638  -3.4685  -3.2454  -3.1588  -3.1374
    -3.1099  -2.9517  -2.8472  -2.6485  -2.5400  -2.2679  -2.0092  -1.3967
    -1.2890  -0.7197  -0.5132  -0.2053  -0.1598  -0.0760   0.0811   0.1876
     0.2382   0.3163   0.4087   0.5336   0.6026   0.8449   0.8835   1.2486
     1.2752   1.3255   1.3975   1.4341   1.4834   1.6717   1.8200   2.0773
     2.0824   2.2034   2.2584   2.3000   2.4166   2.4216

          k = 0.0151-0.0084 0.0000 ( 31488 PWs)   bands (ev):

   -63.6414 -63.6037 -63.5846 -63.5460 -63.5336 -63.4961 -37.5777 -37.5425
   -37.5277 -37.5022 -37.4900 -37.4891 -37.4677 -37.4605 -37.4316 -37.4244
   -37.3965 -37.3942 -37.3646 -37.1645 -37.1078 -37.0780 -37.0758 -37.0450
    -7.3477  -5.9620  -5.8138  -5.6959  -5.4838  -5.4037  -5.2159  -5.0706
    -5.0373  -4.8861  -4.7706  -4.6747  -4.6544  -4.3574  -4.2893  -3.8328
    -3.7733  -3.6791  -3.6383  -3.5646  -3.4404  -3.2988  -3.1660  -3.1448
    -3.1264  -2.9205  -2.8497  -2.6643  -2.5537  -2.2629  -2.0096  -1.3908
    -1.2324  -0.4719  -0.3910  -0.1929  -0.0667   0.0051   0.1746   0.2655
     0.3115   0.3241   0.4065   0.5851   0.7286   1.0598   1.0866   1.2018
     1.2633   1.3700   1.4976   1.5323   1.6787   1.7777   1.8671   2.0501
     2.1738   2.2250   2.2893   2.3051   2.3334   2.5167

          k = 0.0302 0.0168 0.0000 ( 31477 PWs)   bands (ev):

   -63.6394 -63.6056 -63.5826 -63.5480 -63.5316 -63.4980 -37.5759 -37.5444
   -37.5259 -37.5005 -37.4921 -37.4727 -37.4696 -37.4587 -37.4299 -37.4263
   -37.3984 -37.3781 -37.3484 -37.1815 -37.1064 -37.0925 -37.0796 -37.0618
    -7.1762  -5.7857  -5.6594  -5.6131  -5.3984  -5.2861  -5.1531  -5.0806
    -5.0229  -4.7940  -4.6960  -4.6389  -4.5703  -4.3529  -4.2183  -3.8045
    -3.7873  -3.6644  -3.5818  -3.5610  -3.4774  -3.2974  -3.2799  -3.2176
    -3.1147  -2.9710  -2.8666  -2.7867  -2.6744  -2.4026  -2.1138  -1.6056
    -1.2023  -1.1093  -0.5149  -0.5052  -0.1223  -0.1125   0.0290   0.0635
     0.3059   0.3220   0.4657   0.7190   0.7346   0.9641   1.0401   1.1965
     1.2312   1.2914   1.3741   1.4793   1.5375   1.5491   1.7577   2.0057
     2.0784   2.1672   2.2312   2.2838   2.3947   2.4697

          k = 0.0302 0.0336 0.0000 ( 31463 PWs)   bands (ev):

   -63.6394 -63.6056 -63.5826 -63.5480 -63.5316 -63.4980 -37.5762 -37.5445
   -37.5263 -37.5012 -37.4921 -37.4730 -37.4694 -37.4584 -37.4302 -37.4267
   -37.3985 -37.3782 -37.3486 -37.1816 -37.1064 -37.0925 -37.0796 -37.0618
    -7.0623  -5.7371  -5.6271  -5.5715  -5.3524  -5.2454  -5.1121  -5.0554
    -4.9820  -4.7429  -4.6506  -4.6005  -4.4918  -4.3305  -4.2285  -3.8114
    -3.7367  -3.6699  -3.5766  -3.5628  -3.5007  -3.2745  -3.2282  -3.2111
    -3.1012  -3.0037  -2.8652  -2.7728  -2.6623  -2.4086  -2.1157  -1.6293
    -1.2992  -1.2340  -0.7829  -0.5744  -0.3015  -0.1551  -0.0192   0.0144
     0.1864   0.2386   0.3987   0.6108   0.6161   0.8082   0.8114   0.9437
     1.0797   1.2075   1.3977   1.4296   1.5609   1.5650   1.7076   1.8673
     2.0374   2.1109   2.1763   2.3090   2.3464   2.4443

          k = 0.0302 0.0504 0.0000 ( 31426 PWs)   bands (ev):

   -63.6393 -63.6056 -63.5826 -63.5480 -63.5316 -63.4980 -37.5765 -37.5445
   -37.5268 -37.5020 -37.4921 -37.4733 -37.4692 -37.4581 -37.4306 -37.4271
   -37.3987 -37.3784 -37.3487 -37.1816 -37.1065 -37.0925 -37.0796 -37.0618
    -6.8903  -5.6873  -5.5746  -5.5139  -5.2800  -5.2148  -5.0229  -5.0165
    -4.9169  -4.6722  -4.5824  -4.5455  -4.3618  -4.2993  -4.2441  -3.8440
    -3.6903  -3.6448  -3.5614  -3.5558  -3.5367  -3.2722  -3.1968  -3.1662
    -3.0908  -3.0398  -2.8491  -2.7596  -2.6498  -2.4186  -2.1178  -1.6818
    -1.5591  -1.3965  -0.9553  -0.6462  -0.5346  -0.3580  -0.1635  -0.0901
     0.0971   0.1488   0.2508   0.4101   0.5083   0.5489   0.6703   0.6765
     1.0238   1.0416   1.3469   1.4331   1.4879   1.6772   1.7501   1.7528
     2.0000   2.0513   2.0979   2.3216   2.3258   2.3853

          k = 0.0302 0.0672 0.0000 ( 31420 PWs)   bands (ev):

   -63.6393 -63.6056 -63.5825 -63.5480 -63.5317 -63.4979 -37.5768 -37.5446
   -37.5274 -37.5029 -37.4921 -37.4737 -37.4690 -37.4578 -37.4309 -37.4276
   -37.3989 -37.3786 -37.3489 -37.1816 -37.1066 -37.0926 -37.0796 -37.0619
    -6.6928  -5.6575  -5.5149  -5.4560  -5.2006  -5.1906  -4.9956  -4.8816
    -4.8281  -4.6080  -4.5071  -4.4791  -4.2729  -4.2563  -4.2172  -3.8970
    -3.7120  -3.5855  -3.5590  -3.5409  -3.5069  -3.2830  -3.1797  -3.1593
    -3.0953  -3.0557  -2.8040  -2.7579  -2.6473  -2.4317  -2.1192  -1.8699
    -1.7849  -1.5180  -1.0811  -0.7562  -0.7045  -0.6936  -0.2331  -0.2133
    -0.0221   0.0034   0.1321   0.2202   0.3291   0.4310   0.5725   0.5735
     0.8358   1.0288   1.3332   1.3356   1.4337   1.6256   1.7632   1.8597
     1.9711   2.0236   2.0396   2.2728   2.3115   2.3154

          k = 0.0302 0.0840 0.0000 ( 31437 PWs)   bands (ev):

   -63.6393 -63.6056 -63.5825 -63.5480 -63.5317 -63.4979 -37.5771 -37.5447
   -37.5277 -37.5036 -37.4922 -37.4739 -37.4688 -37.4575 -37.4311 -37.4280
   -37.3991 -37.3788 -37.3491 -37.1816 -37.1067 -37.0926 -37.0796 -37.0619
    -6.5246  -5.6478  -5.4716  -5.4136  -5.1946  -5.1024  -4.9880  -4.7941
    -4.6651  -4.5742  -4.4547  -4.3999  -4.2889  -4.2370  -4.2325  -3.9018
    -3.6936  -3.5727  -3.5391  -3.5255  -3.4362  -3.3129  -3.1722  -3.1699
    -3.1157  -3.0693  -2.7656  -2.7516  -2.6616  -2.4436  -2.1339  -2.0571
    -1.8991  -1.5724  -1.3508  -0.9090  -0.7416  -0.7375  -0.3854  -0.2735
    -0.1811  -0.1427   0.0904   0.1572   0.2010   0.3889   0.5018   0.5207
     0.6871   1.0604   1.2226   1.3238   1.4091   1.5962   1.7536   1.8969
     1.9222   2.0263   2.0373   2.2004   2.2596   2.2777

          k = 0.0302 0.1008 0.0000 ( 31438 PWs)   bands (ev):

   -63.6393 -63.6056 -63.5825 -63.5480 -63.5317 -63.4979 -37.5772 -37.5447
   -37.5279 -37.5038 -37.4922 -37.4740 -37.4688 -37.4574 -37.4312 -37.4282
   -37.3992 -37.3788 -37.3492 -37.1816 -37.1067 -37.0926 -37.0797 -37.0619
    -6.4558  -5.6475  -5.4566  -5.3980  -5.1929  -5.0536  -4.9989  -4.7667
    -4.5665  -4.4920  -4.4359  -4.3890  -4.3447  -4.3171  -4.2270  -3.8758
    -3.6682  -3.5702  -3.5194  -3.5018  -3.4098  -3.3408  -3.1729  -3.1712
    -3.1259  -3.0793  -2.7677  -2.7296  -2.6764  -2.4484  -2.1744  -2.0819
    -1.9462  -1.5877  -1.4857  -0.9638  -0.7427  -0.7027  -0.4583  -0.3489
    -0.2198  -0.1930   0.0789   0.1458   0.1592   0.3760   0.4635   0.5050
     0.6407   1.0943   1.1586   1.3193   1.4035   1.5867   1.7477   1.8987
     1.8999   2.0139   2.0418   2.1922   2.2565   2.2979

          k = 0.0302-0.0840 0.0000 ( 31437 PWs)   bands (ev):

   -63.6393 -63.6056 -63.5825 -63.5480 -63.5317 -63.4979 -37.5771 -37.5447
   -37.5277 -37.5036 -37.4922 -37.4739 -37.4688 -37.4575 -37.4311 -37.4280
   -37.3991 -37.3788 -37.3491 -37.1816 -37.1067 -37.0926 -37.0796 -37.0619
    -6.5246  -5.6478  -5.4716  -5.4136  -5.1946  -5.1024  -4.9880  -4.7941
    -4.6651  -4.5742  -4.4547  -4.3999  -4.2889  -4.2370  -4.2325  -3.9018
    -3.6936  -3.5727  -3.5391  -3.5255  -3.4362  -3.3128  -3.1722  -3.1699
    -3.1157  -3.0693  -2.7656  -2.7516  -2.6616  -2.4436  -2.1339  -2.0571
    -1.8991  -1.5724  -1.3508  -0.9090  -0.7416  -0.7375  -0.3854  -0.2735
    -0.1810  -0.1427   0.0904   0.1573   0.2009   0.3889   0.5018   0.5207
     0.6871   1.0604   1.2226   1.3238   1.4091   1.5962   1.7536   1.8969
     1.9222   2.0263   2.0373   2.2088   2.2621   2.3014

          k = 0.0302-0.0672 0.0000 ( 31420 PWs)   bands (ev):

   -63.6393 -63.6056 -63.5825 -63.5480 -63.5317 -63.4979 -37.5768 -37.5446
   -37.5274 -37.5029 -37.4921 -37.4737 -37.4690 -37.4578 -37.4309 -37.4276
   -37.3989 -37.3786 -37.3489 -37.1816 -37.1066 -37.0926 -37.0796 -37.0619
    -6.6928  -5.6575  -5.5149  -5.4560  -5.2006  -5.1906  -4.9956  -4.8816
    -4.8281  -4.6080  -4.5071  -4.4791  -4.2729  -4.2563  -4.2172  -3.8970
    -3.7120  -3.5855  -3.5590  -3.5409  -3.5069  -3.2830  -3.1797  -3.1593
    -3.0953  -3.0557  -2.8040  -2.7579  -2.6473  -2.4317  -2.1192  -1.8699
    -1.7849  -1.5180  -1.0811  -0.7562  -0.7045  -0.6936  -0.2331  -0.2133
    -0.0221   0.0034   0.1321   0.2203   0.3290   0.4310   0.5725   0.5735
     0.8357   1.0288   1.3332   1.3356   1.4337   1.6256   1.7632   1.8597
     1.9711   2.0236   2.0396   2.2712   2.3113   2.3142

          k = 0.0302-0.0504 0.0000 ( 31426 PWs)   bands (ev):

   -63.6393 -63.6056 -63.5826 -63.5480 -63.5316 -63.4980 -37.5765 -37.5445
   -37.5268 -37.5020 -37.4921 -37.4733 -37.4692 -37.4581 -37.4306 -37.4271
   -37.3987 -37.3784 -37.3487 -37.1816 -37.1065 -37.0925 -37.0796 -37.0618
    -6.8903  -5.6873  -5.5746  -5.5139  -5.2801  -5.2148  -5.0229  -5.0165
    -4.9169  -4.6722  -4.5824  -4.5455  -4.3618  -4.2993  -4.2441  -3.8440
    -3.6903  -3.6449  -3.5613  -3.5558  -3.5367  -3.2722  -3.1968  -3.1662
    -3.0908  -3.0398  -2.8491  -2.7596  -2.6498  -2.4186  -2.1178  -1.6817
    -1.5591  -1.3965  -0.9553  -0.6462  -0.5345  -0.3580  -0.1635  -0.0901
     0.0971   0.1488   0.2508   0.4100   0.5083   0.5489   0.6703   0.6765
     1.0237   1.0416   1.3469   1.4331   1.4879   1.6772   1.7501   1.7527
     2.0001   2.0513   2.0979   2.3216   2.3258   2.3859

          k = 0.0302-0.0336 0.0000 ( 31463 PWs)   bands (ev):

   -63.6394 -63.6056 -63.5826 -63.5480 -63.5316 -63.4980 -37.5762 -37.5445
   -37.5263 -37.5012 -37.4921 -37.4730 -37.4694 -37.4584 -37.4302 -37.4267
   -37.3985 -37.3782 -37.3486 -37.1816 -37.1064 -37.0925 -37.0796 -37.0618
    -7.0623  -5.7371  -5.6271  -5.5714  -5.3524  -5.2454  -5.1120  -5.0554
    -4.9820  -4.7429  -4.6506  -4.6005  -4.4918  -4.3305  -4.2285  -3.8114
    -3.7367  -3.6699  -3.5766  -3.5628  -3.5007  -3.2744  -3.2282  -3.2111
    -3.1012  -3.0037  -2.8651  -2.7728  -2.6623  -2.4086  -2.1157  -1.6293
    -1.2992  -1.2340  -0.7829  -0.5743  -0.3015  -0.1551  -0.0192   0.0144
     0.1864   0.2386   0.3987   0.6107   0.6161   0.8082   0.8114   0.9437
     1.0797   1.2075   1.3976   1.4296   1.5609   1.5650   1.7076   1.8673
     2.0375   2.1109   2.1763   2.3089   2.3464   2.4426

          k = 0.0302-0.0168 0.0000 ( 31477 PWs)   bands (ev):

   -63.6394 -63.6056 -63.5826 -63.5480 -63.5316 -63.4980 -37.5759 -37.5444
   -37.5259 -37.5005 -37.4921 -37.4727 -37.4696 -37.4587 -37.4299 -37.4263
   -37.3984 -37.3781 -37.3484 -37.1815 -37.1064 -37.0925 -37.0796 -37.0618
    -7.1762  -5.7857  -5.6594  -5.6131  -5.3984  -5.2861  -5.1531  -5.0805
    -5.0229  -4.7940  -4.6960  -4.6389  -4.5703  -4.3529  -4.2183  -3.8045
    -3.7873  -3.6644  -3.5818  -3.5610  -3.4774  -3.2974  -3.2799  -3.2176
    -3.1147  -2.9710  -2.8666  -2.7867  -2.6744  -2.4026  -2.1138  -1.6056
    -1.2023  -1.1094  -0.5149  -0.5052  -0.1223  -0.1124   0.0290   0.0635
     0.3059   0.3220   0.4657   0.7190   0.7346   0.9640   1.0400   1.1965
     1.2312   1.2914   1.3740   1.4794   1.5375   1.5491   1.7577   2.0057
     2.0785   2.1673   2.2311   2.2840   2.3950   2.4696

          k = 0.0302-0.0000 0.0000 ( 31471 PWs)   bands (ev):

   -63.6394 -63.6056 -63.5826 -63.5480 -63.5316 -63.4980 -37.5759 -37.5444
   -37.5258 -37.5003 -37.4921 -37.4726 -37.4696 -37.4587 -37.4299 -37.4262
   -37.3983 -37.3780 -37.3484 -37.1816 -37.1064 -37.0925 -37.0796 -37.0618
    -7.2158  -5.8053  -5.6705  -5.6281  -5.4141  -5.3042  -5.1630  -5.0899
    -5.0368  -4.8123  -4.7119  -4.6527  -4.5959  -4.3609  -4.2148  -3.8289
    -3.7769  -3.6650  -3.5830  -3.5575  -3.4707  -3.3272  -3.2819  -3.2189
    -3.1209  -2.9584  -2.8661  -2.7923  -2.6793  -2.4005  -2.1131  -1.5986
    -1.1814  -1.0647  -0.4914  -0.3578  -0.1151  -0.0293   0.0108   0.0657
     0.3333   0.3956   0.4446   0.7577   0.8289   0.9927   1.1470   1.1979
     1.2853   1.2967   1.4089   1.5297   1.5423   1.6472   1.8129   2.0566
     2.0632   2.1922   2.2533   2.2727   2.4561   2.4669

          k = 0.0452 0.0252 0.0000 ( 31444 PWs)   bands (ev):

   -63.6363 -63.6087 -63.5794 -63.5511 -63.5286 -63.5011 -37.5732 -37.5474
   -37.5230 -37.4979 -37.4953 -37.4727 -37.4557 -37.4465 -37.4293 -37.4272
   -37.4014 -37.3523 -37.3226 -37.2087 -37.1193 -37.1040 -37.0884 -37.0820
    -6.9014  -5.5070  -5.4854  -5.4286  -5.2822  -5.1188  -5.1103  -5.0256
    -4.9414  -4.6864  -4.6222  -4.5294  -4.4441  -4.3458  -4.1139  -3.8476
    -3.7644  -3.6698  -3.5817  -3.5035  -3.4821  -3.4790  -3.2881  -3.2626
    -3.0953  -3.0424  -2.9716  -2.8942  -2.8572  -2.5950  -2.2685  -2.1159
    -1.7519  -1.2534  -1.1649  -0.5442  -0.4105  -0.1074  -0.0387   0.1748
     0.2716   0.3461   0.5003   0.7112   0.7625   0.8915   0.9060   0.9930
     1.0302   1.1996   1.3270   1.4372   1.4393   1.6163   1.6508   1.7692
     1.9518   2.1256   2.1310   2.2891   2.2995   2.4199

          k = 0.0452 0.0420 0.0000 ( 31416 PWs)   bands (ev):

   -63.6363 -63.6087 -63.5794 -63.5511 -63.5286 -63.5011 -37.5734 -37.5474
   -37.5234 -37.4986 -37.4953 -37.4724 -37.4554 -37.4468 -37.4297 -37.4275
   -37.4015 -37.3524 -37.3227 -37.2087 -37.1193 -37.1040 -37.0884 -37.0820
    -6.7559  -5.4525  -5.4399  -5.3932  -5.2589  -5.0725  -5.0310  -5.0121
    -4.8856  -4.6351  -4.5748  -4.4852  -4.3656  -4.3276  -4.1255  -3.8767
    -3.7050  -3.6915  -3.5897  -3.5135  -3.4801  -3.4699  -3.2649  -3.2204
    -3.0839  -3.0676  -2.9692  -2.8891  -2.8538  -2.6012  -2.2741  -2.2014
    -1.8253  -1.3058  -1.2961  -0.7792  -0.5485  -0.1851  -0.0883  -0.0141
     0.1406   0.2665   0.4110   0.5114   0.6459   0.6880   0.8027   0.8574
     1.0152   1.1127   1.3354   1.3835   1.5245   1.5637   1.6549   1.6702
     1.9289   2.0722   2.0872   2.2854   2.3009   2.4306

          k = 0.0452 0.0588 0.0000 ( 31424 PWs)   bands (ev):

   -63.6362 -63.6087 -63.5794 -63.5512 -63.5286 -63.5011 -37.5737 -37.5475
   -37.5239 -37.4995 -37.4953 -37.4722 -37.4551 -37.4471 -37.4302 -37.4278
   -37.4017 -37.3526 -37.3229 -37.2087 -37.1192 -37.1041 -37.0884 -37.0821
    -6.5641  -5.4136  -5.3835  -5.3438  -5.2234  -5.0187  -5.0182  -4.9014
    -4.8038  -4.5846  -4.5172  -4.4261  -4.3009  -4.2568  -4.1395  -3.9331
    -3.7284  -3.6266  -3.5734  -3.5391  -3.4866  -3.4554  -3.2611  -3.1852
    -3.0883  -3.0837  -2.9757  -2.8621  -2.8603  -2.6115  -2.3202  -2.2797
    -1.8962  -1.5650  -1.3612  -0.9003  -0.6867  -0.3968  -0.3237  -0.0870
     0.0245   0.2141   0.3031   0.3073   0.4452   0.6425   0.7228   0.7266
     0.9504   1.0681   1.3202   1.3633   1.5026   1.5389   1.6759   1.6992
     1.9292   2.0116   2.0532   2.2782   2.2886   2.3667

          k = 0.0452 0.0756 0.0000 ( 31415 PWs)   bands (ev):

   -63.6362 -63.6087 -63.5793 -63.5512 -63.5286 -63.5010 -37.5740 -37.5475
   -37.5243 -37.5002 -37.4953 -37.4719 -37.4548 -37.4474 -37.4307 -37.4281
   -37.4018 -37.3528 -37.3231 -37.2086 -37.1192 -37.1042 -37.0883 -37.0821
    -6.3670  -5.3969  -5.3321  -5.3061  -5.1846  -5.0094  -4.9675  -4.7913
    -4.6847  -4.5632  -4.4652  -4.3570  -4.2657  -4.1838  -4.1553  -4.0105
    -3.7215  -3.6226  -3.5577  -3.5117  -3.4951  -3.4321  -3.2579  -3.1971
    -3.1136  -3.0995  -2.9842  -2.8816  -2.8176  -2.6230  -2.4335  -2.2851
    -1.9510  -1.7780  -1.4349  -1.0994  -0.7763  -0.5428  -0.4944  -0.1217
    -0.0555   0.0511   0.1855   0.2897   0.3087   0.6202   0.6245   0.6796
     0.8053   1.1247   1.3280   1.3282   1.4621   1.4797   1.7041   1.7740
     1.9149   1.9773   2.0255   2.1945   2.2636   2.2889

          k = 0.0452 0.0924 0.0000 ( 31407 PWs)   bands (ev):

   -63.6362 -63.6087 -63.5793 -63.5512 -63.5286 -63.5010 -37.5742 -37.5475
   -37.5246 -37.5006 -37.4952 -37.4717 -37.4546 -37.4476 -37.4309 -37.4282
   -37.4019 -37.3529 -37.3232 -37.2087 -37.1192 -37.1042 -37.0884 -37.0821
    -6.2326  -5.3960  -5.3016  -5.2920  -5.1583  -5.0011  -4.9328  -4.7331
    -4.5661  -4.5161  -4.4366  -4.3028  -4.3018  -4.2286  -4.1778  -4.0043
    -3.6862  -3.6317  -3.5608  -3.4935  -3.4757  -3.4027  -3.2673  -3.2182
    -3.1516  -3.1102  -2.9838  -2.9070  -2.7867  -2.6299  -2.4990  -2.2923
    -1.9818  -1.8657  -1.4847  -1.3132  -0.8095  -0.6134  -0.4941  -0.1762
    -0.0980  -0.0720   0.1471   0.2416   0.2912   0.5454   0.6122   0.6609
     0.7374   1.1637   1.3096   1.3323   1.4438   1.4491   1.6996   1.8263
     1.8861   1.9774   1.9907   2.0937   2.2106   2.2760

          k = 0.0452 0.1092 0.0000 ( 31407 PWs)   bands (ev):

   -63.6362 -63.6087 -63.5793 -63.5512 -63.5286 -63.5010 -37.5742 -37.5475
   -37.5246 -37.5006 -37.4952 -37.4717 -37.4546 -37.4476 -37.4309 -37.4282
   -37.4019 -37.3529 -37.3232 -37.2087 -37.1192 -37.1042 -37.0884 -37.0821
    -6.2326  -5.3960  -5.3016  -5.2920  -5.1583  -5.0011  -4.9328  -4.7331
    -4.5661  -4.5161  -4.4366  -4.3028  -4.3018  -4.2286  -4.1778  -4.0043
    -3.6862  -3.6317  -3.5608  -3.4935  -3.4757  -3.4027  -3.2673  -3.2182
    -3.1516  -3.1102  -2.9837  -2.9070  -2.7867  -2.6299  -2.4990  -2.2923
    -1.9818  -1.8657  -1.4847  -1.3132  -0.8095  -0.6134  -0.4941  -0.1762
    -0.0980  -0.0719   0.1472   0.2415   0.2912   0.5454   0.6122   0.6609
     0.7374   1.1637   1.3095   1.3323   1.4438   1.4491   1.6996   1.8263
     1.8861   1.9774   1.9908   2.0941   2.2117   2.2872

          k = 0.0452-0.0756 0.0000 ( 31415 PWs)   bands (ev):

   -63.6362 -63.6087 -63.5793 -63.5512 -63.5286 -63.5010 -37.5740 -37.5475
   -37.5243 -37.5002 -37.4953 -37.4719 -37.4548 -37.4474 -37.4307 -37.4281
   -37.4018 -37.3528 -37.3231 -37.2086 -37.1192 -37.1042 -37.0883 -37.0821
    -6.3670  -5.3969  -5.3321  -5.3061  -5.1846  -5.0094  -4.9675  -4.7913
    -4.6847  -4.5632  -4.4652  -4.3571  -4.2657  -4.1838  -4.1553  -4.0104
    -3.7215  -3.6226  -3.5578  -3.5117  -3.4951  -3.4320  -3.2579  -3.1971
    -3.1136  -3.0995  -2.9842  -2.8816  -2.8176  -2.6230  -2.4335  -2.2851
    -1.9510  -1.7780  -1.4349  -1.0993  -0.7763  -0.5428  -0.4945  -0.1218
    -0.0555   0.0511   0.1855   0.2897   0.3087   0.6202   0.6244   0.6796
     0.8053   1.1247   1.3280   1.3281   1.4621   1.4797   1.7042   1.7740
     1.9150   1.9773   2.0259   2.1957   2.2651   2.2890

          k = 0.0452-0.0588 0.0000 ( 31424 PWs)   bands (ev):

   -63.6362 -63.6087 -63.5794 -63.5512 -63.5286 -63.5011 -37.5737 -37.5475
   -37.5239 -37.4995 -37.4953 -37.4722 -37.4551 -37.4471 -37.4302 -37.4278
   -37.4017 -37.3526 -37.3229 -37.2087 -37.1192 -37.1041 -37.0884 -37.0821
    -6.5640  -5.4136  -5.3835  -5.3438  -5.2234  -5.0187  -5.0182  -4.9014
    -4.8038  -4.5846  -4.5172  -4.4261  -4.3009  -4.2568  -4.1395  -3.9331
    -3.7284  -3.6266  -3.5734  -3.5392  -3.4865  -3.4554  -3.2611  -3.1852
    -3.0883  -3.0837  -2.9757  -2.8621  -2.8603  -2.6115  -2.3202  -2.2796
    -1.8962  -1.5650  -1.3612  -0.9003  -0.6867  -0.3968  -0.3237  -0.0870
     0.0246   0.2141   0.3031   0.3073   0.4452   0.6425   0.7227   0.7266
     0.9504   1.0680   1.3202   1.3633   1.5026   1.5389   1.6759   1.6993
     1.9293   2.0116   2.0533   2.2782   2.2895   2.3664

          k = 0.0452-0.0420 0.0000 ( 31416 PWs)   bands (ev):

   -63.6363 -63.6087 -63.5794 -63.5511 -63.5286 -63.5011 -37.5734 -37.5474
   -37.5234 -37.4986 -37.4953 -37.4724 -37.4554 -37.4468 -37.4297 -37.4275
   -37.4015 -37.3524 -37.3227 -37.2087 -37.1193 -37.1040 -37.0884 -37.0820
    -6.7559  -5.4525  -5.4399  -5.3932  -5.2589  -5.0725  -5.0310  -5.0121
    -4.8856  -4.6351  -4.5748  -4.4852  -4.3656  -4.3276  -4.1255  -3.8767
    -3.7050  -3.6915  -3.5897  -3.5136  -3.4801  -3.4699  -3.2649  -3.2204
    -3.0839  -3.0676  -2.9692  -2.8891  -2.8538  -2.6012  -2.2741  -2.2014
    -1.8253  -1.3058  -1.2961  -0.7792  -0.5485  -0.1852  -0.0883  -0.0141
     0.1406   0.2665   0.4110   0.5114   0.6459   0.6880   0.8027   0.8574
     1.0151   1.1127   1.3354   1.3835   1.5245   1.5637   1.6549   1.6702
     1.9289   2.0722   2.0874   2.2849   2.3012   2.4042

          k = 0.0452-0.0252 0.0000 ( 31444 PWs)   bands (ev):

   -63.6363 -63.6087 -63.5794 -63.5511 -63.5286 -63.5011 -37.5732 -37.5474
   -37.5230 -37.4979 -37.4953 -37.4727 -37.4557 -37.4465 -37.4293 -37.4272
   -37.4014 -37.3523 -37.3226 -37.2087 -37.1193 -37.1040 -37.0884 -37.0820
    -6.9014  -5.5070  -5.4854  -5.4286  -5.2822  -5.1188  -5.1103  -5.0256
    -4.9414  -4.6864  -4.6222  -4.5294  -4.4441  -4.3458  -4.1139  -3.8476
    -3.7644  -3.6698  -3.5817  -3.5035  -3.4821  -3.4790  -3.2881  -3.2626
    -3.0953  -3.0424  -2.9716  -2.8942  -2.8572  -2.5950  -2.2685  -2.1159
    -1.7519  -1.2534  -1.1649  -0.5442  -0.4104  -0.1074  -0.0387   0.1748
     0.2715   0.3461   0.5003   0.7112   0.7625   0.8915   0.9060   0.9929
     1.0301   1.1997   1.3270   1.4372   1.4392   1.6163   1.6508   1.7691
     1.9519   2.1256   2.1310   2.2891   2.2993   2.4197

          k = 0.0452-0.0084 0.0000 ( 31444 PWs)   bands (ev):

   -63.6363 -63.6087 -63.5795 -63.5511 -63.5286 -63.5011 -37.5730 -37.5474
   -37.5227 -37.4975 -37.4953 -37.4728 -37.4559 -37.4463 -37.4291 -37.4271
   -37.4013 -37.3522 -37.3224 -37.2087 -37.1193 -37.1040 -37.0884 -37.0820
    -6.9788  -5.5446  -5.5104  -5.4470  -5.2922  -5.1563  -5.1467  -5.0283
    -4.9694  -4.7161  -4.6488  -4.5536  -4.4832  -4.3555  -4.1074  -3.8346
    -3.8071  -3.6381  -3.5692  -3.5198  -3.4851  -3.4783  -3.3397  -3.2579
    -3.1046  -3.0272  -2.9756  -2.8920  -2.8618  -2.5923  -2.2651  -2.0752
    -1.7034  -1.2328  -1.1259  -0.3278  -0.3120  -0.0747  -0.0155   0.1458
     0.3739   0.4613   0.5449   0.8078   0.8425   0.9368   0.9893   1.0375
     1.2254   1.2464   1.3157   1.4090   1.5000   1.5887   1.7231   1.8540
     2.0418   2.1662   2.1699   2.2962   2.3159   2.4556

          k = 0.0452 0.0084 0.0000 ( 31444 PWs)   bands (ev):

   -63.6363 -63.6087 -63.5795 -63.5511 -63.5286 -63.5011 -37.5730 -37.5474
   -37.5227 -37.4975 -37.4953 -37.4728 -37.4559 -37.4463 -37.4291 -37.4271
   -37.4013 -37.3522 -37.3224 -37.2087 -37.1193 -37.1040 -37.0884 -37.0820
    -6.9788  -5.5446  -5.5104  -5.4470  -5.2922  -5.1563  -5.1467  -5.0283
    -4.9694  -4.7161  -4.6488  -4.5536  -4.4832  -4.3555  -4.1074  -3.8346
    -3.8071  -3.6381  -3.5692  -3.5198  -3.4851  -3.4783  -3.3397  -3.2579
    -3.1046  -3.0272  -2.9756  -2.8920  -2.8618  -2.5923  -2.2651  -2.0752
    -1.7034  -1.2328  -1.1259  -0.3278  -0.3120  -0.0747  -0.0155   0.1458
     0.3739   0.4613   0.5449   0.8078   0.8425   0.9368   0.9893   1.0375
     1.2254   1.2464   1.3156   1.4090   1.5000   1.5888   1.7230   1.8540
     2.0417   2.1662   2.1699   2.2962   2.3159   2.4542

          k = 0.0603 0.0336 0.0000 ( 31428 PWs)   bands (ev):

   -63.6323 -63.6128 -63.5753 -63.5553 -63.5245 -63.5051 -37.5695 -37.5513
   -37.5191 -37.4995 -37.4944 -37.4766 -37.4520 -37.4333 -37.4237 -37.4129
   -37.4045 -37.3186 -37.2888 -37.2439 -37.1537 -37.1235 -37.1005 -37.0853
    -6.5450  -5.3799  -5.2385  -5.1886  -5.1518  -5.0231  -4.9682  -4.8277
    -4.7224  -4.6565  -4.4905  -4.4082  -4.2962  -4.2870  -4.0024  -3.9779
    -3.7370  -3.7216  -3.6727  -3.6068  -3.4773  -3.3914  -3.2997  -3.2467
    -3.2007  -3.1280  -3.0748  -3.0629  -2.9334  -2.7986  -2.7831  -2.4549
    -2.3408  -1.9957  -1.1254  -0.6693  -0.5670  -0.2682   0.0408   0.1892
     0.2221   0.3718   0.5534   0.5933   0.6936   0.8097   0.9248   0.9851
     0.9951   1.1165   1.2564   1.3305   1.4276   1.5429   1.5864   1.6023
     1.8134   1.9536   2.1412   2.1618   2.2727   2.2890

          k = 0.0603 0.0504 0.0000 ( 31439 PWs)   bands (ev):

   -63.6322 -63.6128 -63.5753 -63.5553 -63.5246 -63.5051 -37.5698 -37.5513
   -37.5195 -37.4995 -37.4951 -37.4762 -37.4516 -37.4338 -37.4239 -37.4131
   -37.4047 -37.3187 -37.2889 -37.2438 -37.1537 -37.1234 -37.1005 -37.0853
    -6.3771  -5.3908  -5.2144  -5.1550  -5.1146  -4.9483  -4.8971  -4.7484
    -4.7018  -4.6248  -4.4797  -4.3638  -4.2543  -4.2451  -4.0139  -4.0119
    -3.7493  -3.7062  -3.6672  -3.6151  -3.4871  -3.3645  -3.3136  -3.2157
    -3.2007  -3.1378  -3.0801  -3.0597  -2.9350  -2.8503  -2.8064  -2.4647
    -2.3994  -2.0398  -1.2861  -0.7408  -0.7223  -0.3285  -0.1025   0.0333
     0.0397   0.3848   0.4105   0.4899   0.5373   0.8224   0.8705   0.8768
     1.0159   1.0767   1.2958   1.3087   1.4810   1.4955   1.5287   1.5656
     1.8245   1.9119   2.1037   2.1749   2.2629   2.2956

          k = 0.0603 0.0672 0.0000 ( 31424 PWs)   bands (ev):

   -63.6322 -63.6128 -63.5752 -63.5553 -63.5246 -63.5051 -37.5700 -37.5513
   -37.5199 -37.4994 -37.4959 -37.4759 -37.4512 -37.4343 -37.4241 -37.4134
   -37.4048 -37.3189 -37.2891 -37.2438 -37.1537 -37.1234 -37.1006 -37.0853
    -6.1778  -5.3979  -5.1757  -5.1303  -5.0920  -4.8729  -4.8274  -4.6768
    -4.6263  -4.6034  -4.4902  -4.2927  -4.2201  -4.1914  -4.0762  -4.0265
    -3.7582  -3.7117  -3.6826  -3.5572  -3.5114  -3.3463  -3.3387  -3.2191
    -3.2114  -3.1423  -3.0967  -3.0654  -2.9834  -2.8552  -2.8178  -2.4740
    -2.4570  -2.1010  -1.4764  -0.8626  -0.7784  -0.4749  -0.2909  -0.0165
     0.0145   0.2596   0.3364   0.4136   0.4621   0.7518   0.8305   0.8547
     0.8965   1.1656   1.3175   1.3574   1.4298   1.4577   1.5576   1.5827
     1.8298   1.8877   2.0643   2.1954   2.2110   2.2966

          k = 0.0603 0.0840 0.0000 ( 31387 PWs)   bands (ev):

   -63.6322 -63.6128 -63.5752 -63.5553 -63.5246 -63.5051 -37.5702 -37.5513
   -37.5202 -37.4993 -37.4964 -37.4755 -37.4509 -37.4346 -37.4243 -37.4135
   -37.4048 -37.3190 -37.2892 -37.2438 -37.1537 -37.1234 -37.1006 -37.0852
    -5.9987  -5.4000  -5.1410  -5.1151  -5.0984  -4.8026  -4.7827  -4.6168
    -4.6145  -4.5079  -4.5003  -4.2369  -4.2180  -4.1576  -4.1383  -4.0441
    -3.7486  -3.7224  -3.6975  -3.5167  -3.4877  -3.3868  -3.3348  -3.2503
    -3.2318  -3.1478  -3.1142  -3.0763  -3.0454  -2.8269  -2.8218  -2.5003
    -2.4821  -2.1538  -1.5708  -1.0807  -0.7796  -0.6202  -0.2740  -0.0002
     0.0008   0.1751   0.1791   0.3452   0.5105   0.6417   0.8113   0.8250
     0.8804   1.2205   1.3366   1.3767   1.4345   1.4376   1.5528   1.6601
     1.8089   1.8901   1.9993   2.1082   2.2126   2.2138

          k = 0.0603 0.1008 0.0000 ( 31398 PWs)   bands (ev):

   -63.6322 -63.6128 -63.5752 -63.5553 -63.5246 -63.5051 -37.5703 -37.5512
   -37.5204 -37.4992 -37.4966 -37.4755 -37.4509 -37.4347 -37.4244 -37.4136
   -37.4048 -37.3191 -37.2892 -37.2438 -37.1537 -37.1234 -37.1007 -37.0852
    -5.9216  -5.4001  -5.1271  -5.1127  -5.1073  -4.7679  -4.7647  -4.6361
    -4.5862  -4.5015  -4.4047  -4.3280  -4.1827  -4.1762  -4.1047  -4.0645
    -3.7441  -3.7437  -3.6794  -3.5054  -3.4517  -3.4241  -3.3301  -3.2756
    -3.2448  -3.1491  -3.1204  -3.0813  -3.0703  -2.8300  -2.8060  -2.5166
    -2.4860  -2.1742  -1.5792  -1.1970  -0.7643  -0.6882  -0.2179  -0.0025
     0.0180   0.0823   0.1491   0.3271   0.5322   0.5914   0.8034   0.8040
     0.8925   1.2296   1.3428   1.3716   1.4276   1.4839   1.5505   1.7113
     1.7973   1.8933   1.9362   2.0336   2.1690   2.2283

          k = 0.0603 0.1176 0.0000 ( 31387 PWs)   bands (ev):

   -63.6322 -63.6128 -63.5752 -63.5553 -63.5246 -63.5051 -37.5702 -37.5513
   -37.5202 -37.4993 -37.4964 -37.4755 -37.4509 -37.4346 -37.4243 -37.4135
   -37.4048 -37.3190 -37.2892 -37.2438 -37.1537 -37.1234 -37.1006 -37.0852
    -5.9987  -5.4000  -5.1410  -5.1152  -5.0984  -4.8026  -4.7827  -4.6168
    -4.6145  -4.5079  -4.5003  -4.2369  -4.2180  -4.1576  -4.1383  -4.0441
    -3.7487  -3.7224  -3.6975  -3.5167  -3.4877  -3.3869  -3.3348  -3.2503
    -3.2318  -3.1478  -3.1142  -3.0763  -3.0454  -2.8269  -2.8218  -2.5003
    -2.4821  -2.1538  -1.5708  -1.0807  -0.7796  -0.6202  -0.2739  -0.0003
     0.0008   0.1751   0.1791   0.3452   0.5104   0.6417   0.8113   0.8250
     0.8804   1.2205   1.3366   1.3767   1.4345   1.4376   1.5528   1.6601
     1.8089   1.8901   1.9995   2.1085   2.2131   2.2140

          k = 0.0603-0.0672 0.0000 ( 31424 PWs)   bands (ev):

   -63.6322 -63.6128 -63.5752 -63.5553 -63.5246 -63.5051 -37.5700 -37.5513
   -37.5199 -37.4994 -37.4959 -37.4759 -37.4512 -37.4343 -37.4241 -37.4134
   -37.4048 -37.3189 -37.2891 -37.2438 -37.1537 -37.1234 -37.1006 -37.0853
    -6.1778  -5.3979  -5.1757  -5.1303  -5.0920  -4.8729  -4.8274  -4.6768
    -4.6263  -4.6034  -4.4902  -4.2927  -4.2201  -4.1914  -4.0761  -4.0265
    -3.7582  -3.7116  -3.6826  -3.5572  -3.5114  -3.3463  -3.3387  -3.2191
    -3.2114  -3.1423  -3.0967  -3.0654  -2.9834  -2.8552  -2.8178  -2.4740
    -2.4570  -2.1010  -1.4764  -0.8625  -0.7784  -0.4749  -0.2909  -0.0164
     0.0145   0.2596   0.3364   0.4136   0.4620   0.7518   0.8305   0.8548
     0.8964   1.1656   1.3175   1.3573   1.4298   1.4577   1.5577   1.5827
     1.8298   1.8876   2.0644   2.1954   2.2111   2.2966

          k = 0.0603-0.0504 0.0000 ( 31439 PWs)   bands (ev):

   -63.6322 -63.6128 -63.5753 -63.5553 -63.5246 -63.5051 -37.5698 -37.5513
   -37.5195 -37.4995 -37.4951 -37.4762 -37.4516 -37.4338 -37.4239 -37.4131
   -37.4047 -37.3187 -37.2889 -37.2438 -37.1537 -37.1234 -37.1005 -37.0853
    -6.3771  -5.3908  -5.2144  -5.1550  -5.1146  -4.9483  -4.8971  -4.7484
    -4.7018  -4.6248  -4.4797  -4.3638  -4.2543  -4.2451  -4.0139  -4.0119
    -3.7493  -3.7061  -3.6672  -3.6151  -3.4871  -3.3645  -3.3136  -3.2157
    -3.2007  -3.1378  -3.0801  -3.0597  -2.9350  -2.8503  -2.8064  -2.4647
    -2.3994  -2.0398  -1.2861  -0.7408  -0.7223  -0.3285  -0.1025   0.0333
     0.0397   0.3848   0.4105   0.4899   0.5372   0.8224   0.8704   0.8768
     1.0158   1.0767   1.2958   1.3087   1.4810   1.4955   1.5287   1.5656
     1.8246   1.9118   2.1038   2.1749   2.2629   2.2957

          k = 0.0603-0.0336 0.0000 ( 31428 PWs)   bands (ev):

   -63.6323 -63.6128 -63.5753 -63.5553 -63.5245 -63.5051 -37.5695 -37.5513
   -37.5191 -37.4995 -37.4944 -37.4766 -37.4520 -37.4333 -37.4237 -37.4129
   -37.4045 -37.3186 -37.2888 -37.2439 -37.1537 -37.1235 -37.1005 -37.0853
    -6.5450  -5.3798  -5.2385  -5.1886  -5.1518  -5.0231  -4.9682  -4.8277
    -4.7224  -4.6565  -4.4905  -4.4082  -4.2962  -4.2870  -4.0024  -3.9779
    -3.7370  -3.7216  -3.6727  -3.6068  -3.4773  -3.3914  -3.2997  -3.2467
    -3.2007  -3.1280  -3.0748  -3.0629  -2.9334  -2.7985  -2.7831  -2.4549
    -2.3408  -1.9957  -1.1254  -0.6692  -0.5670  -0.2681   0.0409   0.1891
     0.2221   0.3718   0.5533   0.5932   0.6936   0.8097   0.9248   0.9851
     0.9951   1.1165   1.2564   1.3305   1.4276   1.5429   1.5864   1.6023
     1.8135   1.9536   2.1413   2.1617   2.2725   2.2890

          k = 0.0603-0.0168 0.0000 ( 31395 PWs)   bands (ev):

   -63.6323 -63.6128 -63.5753 -63.5553 -63.5245 -63.5051 -37.5693 -37.5513
   -37.5187 -37.4996 -37.4938 -37.4768 -37.4522 -37.4330 -37.4234 -37.4127
   -37.4044 -37.3184 -37.2886 -37.2439 -37.1537 -37.1235 -37.1004 -37.0853
    -6.6543  -5.3729  -5.2338  -5.2225  -5.1808  -5.0910  -5.0168  -4.8762
[...]
     1.0499   1.1002   1.2050   1.2615   1.4018   1.4051   1.4324   1.5421
     1.6524   1.7191   2.0980   2.1687   2.2483   2.2537

          k = 0.0754 0.0588 0.0000 ( 31441 PWs)   bands (ev):

   -63.6275 -63.6175 -63.5704 -63.5601 -63.5199 -63.5098 -37.5654 -37.5557
   -37.5149 -37.5042 -37.4909 -37.4806 -37.4471 -37.4383 -37.4196 -37.4102
   -37.3718 -37.2847 -37.2793 -37.2493 -37.1938 -37.1636 -37.0970 -37.0890
    -5.9790  -5.5851  -5.0524  -4.9869  -4.8302  -4.7980  -4.7561  -4.6513
    -4.6054  -4.4899  -4.3637  -4.1912  -4.1625  -4.1620  -4.0491  -3.9384
    -3.8728  -3.7466  -3.6985  -3.6050  -3.4865  -3.4732  -3.3536  -3.3500
    -3.3135  -3.2847  -3.2207  -3.1233  -3.0711  -2.9970  -2.9522  -2.9154
    -2.6672  -2.6594  -1.2036  -0.8620  -0.6529  -0.4224  -0.0661  -0.0091
     0.1416   0.3199   0.4851   0.5074   0.6697   0.8688   0.9539   0.9652
     1.0635   1.1759   1.2975   1.3089   1.3452   1.3831   1.4258   1.4813
     1.6429   1.7311   2.1188   2.1339   2.2149   2.2801

          k = 0.0754 0.0756 0.0000 ( 31418 PWs)   bands (ev):

   -63.6275 -63.6175 -63.5704 -63.5601 -63.5199 -63.5098 -37.5656 -37.5557
   -37.5152 -37.5041 -37.4915 -37.4801 -37.4467 -37.4387 -37.4197 -37.4102
   -37.3720 -37.2846 -37.2794 -37.2495 -37.1937 -37.1635 -37.0970 -37.0889
    -5.7996  -5.6403  -5.0111  -4.9685  -4.8260  -4.7637  -4.7146  -4.6344
    -4.5372  -4.5199  -4.3877  -4.1606  -4.1541  -4.1142  -4.0675  -3.9208
    -3.8517  -3.7576  -3.7516  -3.5424  -3.5397  -3.5052  -3.3688  -3.3680
    -3.3236  -3.2997  -3.2103  -3.1561  -3.0825  -3.0281  -2.9626  -2.8879
    -2.6914  -2.6805  -1.2824  -0.8487  -0.8241  -0.5040  -0.0483   0.0341
     0.1335   0.2639   0.4270   0.4668   0.6811   0.7463   0.9075   0.9496
     1.1149   1.2195   1.3128   1.3394   1.3595   1.4212   1.4642   1.5026
     1.6297   1.7409   2.0505   2.1461   2.1726   2.2872

          k = 0.0754 0.0924 0.0000 ( 31424 PWs)   bands (ev):

   -63.6275 -63.6175 -63.5704 -63.5602 -63.5199 -63.5098 -37.5657 -37.5556
   -37.5154 -37.5040 -37.4918 -37.4799 -37.4465 -37.4389 -37.4198 -37.4101
   -37.3721 -37.2846 -37.2795 -37.2495 -37.1937 -37.1635 -37.0970 -37.0889
    -5.6724  -5.6690  -4.9823  -4.9554  -4.8390  -4.7469  -4.6941  -4.6165
    -4.5491  -4.4841  -4.4155  -4.1592  -4.1444  -4.0853  -4.0350  -3.9321
    -3.8489  -3.8056  -3.7112  -3.6115  -3.5232  -3.4776  -3.3899  -3.3807
    -3.3435  -3.3199  -3.1995  -3.1833  -3.0976  -3.0461  -2.9682  -2.8664
    -2.7095  -2.6888  -1.2652  -1.0047  -0.8477  -0.5489   0.0217   0.1076
     0.1830   0.2130   0.3359   0.4163   0.6573   0.7634   0.8779   0.9243
     1.1567   1.1880   1.3042   1.3428   1.3672   1.4682   1.5217   1.6197
     1.6946   1.7433   1.9329   2.0399   2.1730   2.1983

          k = 0.0754 0.1092 0.0000 ( 31424 PWs)   bands (ev):

   -63.6275 -63.6175 -63.5704 -63.5602 -63.5199 -63.5098 -37.5657 -37.5556
   -37.5154 -37.5040 -37.4918 -37.4799 -37.4465 -37.4389 -37.4198 -37.4101
   -37.3721 -37.2846 -37.2795 -37.2495 -37.1937 -37.1635 -37.0970 -37.0889
    -5.6724  -5.6690  -4.9823  -4.9554  -4.8390  -4.7469  -4.6941  -4.6166
    -4.5491  -4.4841  -4.4155  -4.1592  -4.1444  -4.0853  -4.0350  -3.9321
    -3.8489  -3.8056  -3.7111  -3.6115  -3.5232  -3.4776  -3.3900  -3.3807
    -3.3435  -3.3199  -3.1995  -3.1833  -3.0976  -3.0461  -2.9682  -2.8664
    -2.7095  -2.6888  -1.2652  -1.0047  -0.8477  -0.5489   0.0218   0.1076
     0.1830   0.2129   0.3360   0.4162   0.6573   0.7634   0.8779   0.9243
     1.1567   1.1880   1.3042   1.3428   1.3672   1.4682   1.5217   1.6197
     1.6945   1.7433   1.9330   2.0398   2.1739   2.1983

          k = 0.0754 0.1260 0.0000 ( 31418 PWs)   bands (ev):

   -63.6275 -63.6175 -63.5704 -63.5601 -63.5199 -63.5098 -37.5656 -37.5557
   -37.5152 -37.5041 -37.4915 -37.4801 -37.4467 -37.4387 -37.4197 -37.4102
   -37.3720 -37.2846 -37.2794 -37.2495 -37.1937 -37.1635 -37.0970 -37.0889
    -5.7996  -5.6403  -5.0112  -4.9685  -4.8260  -4.7637  -4.7146  -4.6344
    -4.5372  -4.5199  -4.3877  -4.1606  -4.1541  -4.1142  -4.0675  -3.9208
    -3.8517  -3.7576  -3.7516  -3.5424  -3.5397  -3.5052  -3.3688  -3.3680
    -3.3236  -3.2997  -3.2103  -3.1561  -3.0825  -3.0281  -2.9626  -2.8879
    -2.6914  -2.6805  -1.2823  -0.8487  -0.8241  -0.5040  -0.0483   0.0342
     0.1335   0.2639   0.4269   0.4668   0.6811   0.7463   0.9075   0.9495
     1.1149   1.2195   1.3127   1.3394   1.3595   1.4212   1.4642   1.5026
     1.6297   1.7409   2.0502   2.1455   2.1727   2.2872

          k = 0.0754-0.0588 0.0000 ( 31441 PWs)   bands (ev):

   -63.6275 -63.6175 -63.5704 -63.5601 -63.5199 -63.5098 -37.5654 -37.5557
   -37.5149 -37.5042 -37.4909 -37.4806 -37.4471 -37.4383 -37.4196 -37.4102
   -37.3718 -37.2847 -37.2793 -37.2493 -37.1938 -37.1636 -37.0970 -37.0890
    -5.9790  -5.5851  -5.0524  -4.9869  -4.8302  -4.7980  -4.7561  -4.6513
    -4.6054  -4.4899  -4.3637  -4.1912  -4.1625  -4.1620  -4.0491  -3.9385
    -3.8728  -3.7466  -3.6985  -3.6050  -3.4865  -3.4732  -3.3536  -3.3499
    -3.3135  -3.2847  -3.2207  -3.1233  -3.0711  -2.9970  -2.9522  -2.9154
    -2.6672  -2.6594  -1.2035  -0.8620  -0.6528  -0.4224  -0.0660  -0.0090
     0.1416   0.3199   0.4850   0.5074   0.6697   0.8688   0.9539   0.9652
     1.0635   1.1759   1.2975   1.3089   1.3452   1.3831   1.4257   1.4813
     1.6429   1.7311   2.1188   2.1340   2.2149   2.2801

          k = 0.0754-0.0420 0.0000 ( 31429 PWs)   bands (ev):

   -63.6276 -63.6175 -63.5705 -63.5601 -63.5199 -63.5098 -37.5652 -37.5558
   -37.5146 -37.5044 -37.4902 -37.4810 -37.4475 -37.4378 -37.4195 -37.4101
   -37.3716 -37.2848 -37.2791 -37.2492 -37.1938 -37.1636 -37.0969 -37.0890
    -6.1488  -5.5092  -5.0924  -5.0037  -4.8478  -4.8438  -4.8141  -4.6709
    -4.6660  -4.4682  -4.3457  -4.2469  -4.1731  -4.1717  -4.0364  -3.9529
    -3.9013  -3.7003  -3.6875  -3.6335  -3.4699  -3.4359  -3.3718  -3.3431
    -3.2970  -3.2704  -3.2278  -3.1103  -3.0747  -2.9688  -2.9404  -2.9208
    -2.6522  -2.6284  -1.0777  -0.8636  -0.5470  -0.3951   0.0341   0.0748
     0.2006   0.3805   0.4563   0.5899   0.7583   0.8920   0.9847   1.0382
     1.0499   1.1002   1.2049   1.2615   1.4017   1.4051   1.4324   1.5421
     1.6524   1.7191   2.0981   2.1687   2.2483   2.2538

          k = 0.0754-0.0252 0.0000 ( 31406 PWs)   bands (ev):

   -63.6276 -63.6175 -63.5705 -63.5601 -63.5199 -63.5098 -37.5650 -37.5559
   -37.5142 -37.5045 -37.4896 -37.4814 -37.4478 -37.4374 -37.4192 -37.4101
   -37.3715 -37.2848 -37.2790 -37.2491 -37.1938 -37.1636 -37.0968 -37.0890
    -6.2755  -5.4247  -5.1276  -5.0103  -4.8917  -4.8860  -4.8567  -4.7175
    -4.6777  -4.4542  -4.3331  -4.2831  -4.1860  -4.1835  -4.0312  -3.9572
    -3.9209  -3.7358  -3.6323  -3.6071  -3.4758  -3.4223  -3.4210  -3.3463
    -3.2822  -3.2465  -3.2352  -3.1151  -3.0891  -2.9620  -2.9283  -2.8939
    -2.6393  -2.6134  -1.0077  -0.8254  -0.4531  -0.4142   0.0932   0.2638
     0.3439   0.4463   0.4535   0.7065   0.8006   0.8370   0.9708   0.9855
     1.0858   1.1450   1.1697   1.2694   1.3908   1.4581   1.5340   1.5838
     1.6916   1.7429   2.0759   2.1767   2.2180   2.2791

          k = 0.0754-0.0084 0.0000 ( 31398 PWs)   bands (ev):

   -63.6276 -63.6175 -63.5705 -63.5601 -63.5199 -63.5098 -37.5649 -37.5559
   -37.5140 -37.5046 -37.4893 -37.4817 -37.4480 -37.4372 -37.4191 -37.4101
   -37.3714 -37.2848 -37.2790 -37.2491 -37.1938 -37.1636 -37.0968 -37.0890
    -6.3423  -5.3582  -5.1565  -5.0030  -4.9353  -4.9249  -4.8670  -4.7406
    -4.6845  -4.4462  -4.3255  -4.3003  -4.1945  -4.1932  -4.0306  -3.9572
    -3.9295  -3.7693  -3.5817  -3.5599  -3.4974  -3.4696  -3.4341  -3.3484
    -3.2761  -3.2407  -3.2266  -3.1238  -3.1010  -2.9602  -2.9197  -2.8714
    -2.6319  -2.6118  -0.9925  -0.7662  -0.5248  -0.3009   0.1154   0.3805
     0.4071   0.5297   0.5915   0.7317   0.7335   0.8529   0.9091   0.9395
     1.0873   1.1701   1.2087   1.3079   1.3832   1.4428   1.6054   1.6680
     1.7683   1.8803   2.0323   2.1117   2.2409   2.2871

          k = 0.0754 0.0084 0.0000 ( 31398 PWs)   bands (ev):

   -63.6276 -63.6175 -63.5705 -63.5601 -63.5199 -63.5098 -37.5649 -37.5559
   -37.5140 -37.5046 -37.4893 -37.4817 -37.4480 -37.4372 -37.4191 -37.4101
   -37.3714 -37.2848 -37.2790 -37.2491 -37.1938 -37.1636 -37.0968 -37.0890
    -6.3423  -5.3582  -5.1565  -5.0030  -4.9353  -4.9249  -4.8670  -4.7406
    -4.6845  -4.4462  -4.3255  -4.3003  -4.1945  -4.1932  -4.0306  -3.9572
    -3.9295  -3.7693  -3.5817  -3.5599  -3.4974  -3.4696  -3.4341  -3.3484
    -3.2761  -3.2407  -3.2266  -3.1238  -3.1010  -2.9602  -2.9197  -2.8714
    -2.6319  -2.6118  -0.9925  -0.7661  -0.5248  -0.3009   0.1154   0.3805
     0.4071   0.5296   0.5915   0.7317   0.7335   0.8529   0.9091   0.9395
     1.0873   1.1700   1.2087   1.3079   1.3832   1.4428   1.6054   1.6680
     1.7683   1.8803   2.0319   2.1119   2.2408   2.3239

          k = 0.0754 0.0252 0.0000 ( 31406 PWs)   bands (ev):

   -63.6276 -63.6175 -63.5705 -63.5601 -63.5199 -63.5098 -37.5650 -37.5559
   -37.5142 -37.5045 -37.4896 -37.4814 -37.4478 -37.4374 -37.4192 -37.4101
   -37.3715 -37.2848 -37.2790 -37.2491 -37.1938 -37.1636 -37.0968 -37.0890
    -6.2755  -5.4247  -5.1276  -5.0103  -4.8917  -4.8861  -4.8567  -4.7175
    -4.6777  -4.4542  -4.3331  -4.2831  -4.1861  -4.1835  -4.0312  -3.9572
    -3.9209  -3.7358  -3.6323  -3.6071  -3.4758  -3.4223  -3.4210  -3.3463
    -3.2822  -3.2465  -3.2352  -3.1151  -3.0891  -2.9620  -2.9283  -2.8939
    -2.6393  -2.6134  -1.0076  -0.8254  -0.4531  -0.4142   0.0932   0.2638
     0.3439   0.4464   0.4535   0.7065   0.8006   0.8370   0.9708   0.9855
     1.0858   1.1449   1.1697   1.2694   1.3908   1.4581   1.5340   1.5839
     1.6915   1.7429   2.0759   2.1768   2.2180   2.2790

          k =-0.0905-0.0504 0.0000 ( 31450 PWs)   bands (ev):

   -63.6226 -63.6224 -63.5653 -63.5653 -63.5148 -63.5148 -37.5606 -37.5605
   -37.5096 -37.5095 -37.4858 -37.4856 -37.4427 -37.4427 -37.4148 -37.4148
   -37.3285 -37.3282 -37.2367 -37.2365 -37.2066 -37.2065 -37.0930 -37.0930
    -5.7812  -5.7810  -4.9683  -4.9681  -4.7377  -4.7376  -4.7261  -4.7261
    -4.4319  -4.4319  -4.3553  -4.3551  -4.1008  -4.1005  -3.8953  -3.8947
    -3.7099  -3.7096  -3.6656  -3.6650  -3.5538  -3.5537  -3.4566  -3.4557
    -3.3725  -3.3722  -3.3073  -3.3068  -3.0696  -3.0689  -2.9578  -2.9575
    -2.8173  -2.8171  -0.9984  -0.9983  -0.4845  -0.4845   0.0047   0.0047
     0.2739   0.2740   0.5179   0.5179   0.8768   0.8768   1.0254   1.0254
     1.1658   1.1659   1.2648   1.2650   1.2803   1.2804   1.4313   1.4314
     1.5827   1.5828   2.1375   2.1378   2.2427   2.2429

          k =-0.0905-0.0336 0.0000 ( 31437 PWs)   bands (ev):

   -63.6226 -63.6224 -63.5653 -63.5653 -63.5149 -63.5148 -37.5607 -37.5604
   -37.5098 -37.5093 -37.4862 -37.4851 -37.4431 -37.4423 -37.4149 -37.4147
   -37.3286 -37.3282 -37.2367 -37.2365 -37.2067 -37.2064 -37.0930 -37.0929
    -5.8971  -5.6435  -4.9841  -4.9463  -4.7712  -4.7305  -4.7260  -4.7072
    -4.4463  -4.4352  -4.3682  -4.3356  -4.1103  -4.0766  -3.9056  -3.8911
    -3.7347  -3.7268  -3.6522  -3.6271  -3.5634  -3.5535  -3.4716  -3.4619
    -3.3853  -3.3688  -3.3132  -3.2994  -3.0988  -3.0564  -2.9656  -2.9406
    -2.8377  -2.8000  -1.0411  -0.9417  -0.5789  -0.4537   0.0388   0.0914
     0.2614   0.3021   0.4617   0.5990   0.8290   0.8675   0.9800   1.0759
     1.1152   1.1811   1.1975   1.3013   1.3159   1.4043   1.4114   1.4794
     1.5453   1.6144   2.0875   2.1937   2.1967   2.2616

          k =-0.0905-0.0168 0.0000 ( 31379 PWs)   bands (ev):

   -63.6226 -63.6224 -63.5653 -63.5652 -63.5149 -63.5148 -37.5608 -37.5603
   -37.5099 -37.5090 -37.4866 -37.4847 -37.4433 -37.4419 -37.4149 -37.4146
   -37.3286 -37.3281 -37.2367 -37.2364 -37.2067 -37.2064 -37.0930 -37.0929
    -5.9728  -5.5196  -5.0005  -4.9146  -4.8139  -4.7303  -4.7213  -4.6909
    -4.4653  -4.4586  -4.3598  -4.3251  -4.1109  -4.0409  -3.9107  -3.9092
    -3.7592  -3.7516  -3.6252  -3.6051  -3.5584  -3.5408  -3.5078  -3.4713
    -3.3914  -3.3899  -3.3227  -3.2913  -3.1295  -3.0554  -2.9701  -2.9212
    -2.8554  -2.7886  -1.0128  -0.9229  -0.7296  -0.4230   0.1048   0.2260
     0.3026   0.3408   0.4547   0.6095   0.7374   0.8958   0.9569   1.0625
     1.0940   1.1393   1.1885   1.3516   1.3557   1.4108   1.4901   1.5762
     1.6190   1.6761   2.0157   2.0932   2.2460   2.2767

          k =-0.0905 0.0000 0.0000 ( 31386 PWs)   bands (ev):

   -63.6226 -63.6224 -63.5653 -63.5652 -63.5149 -63.5148 -37.5608 -37.5602
   -37.5100 -37.5089 -37.4868 -37.4845 -37.4434 -37.4419 -37.4150 -37.4146
   -37.3286 -37.3281 -37.2368 -37.2364 -37.2067 -37.2064 -37.0930 -37.0928
    -5.9989  -5.4658  -5.0104  -4.8873  -4.8454  -4.7297  -4.7200  -4.6842
    -4.4823  -4.4631  -4.3537  -4.3222  -4.1098  -4.0163  -3.9322  -3.9083
    -3.7751  -3.7547  -3.6123  -3.6097  -3.5585  -3.5300  -3.5010  -3.4716
    -3.4225  -3.3932  -3.3264  -3.2879  -3.1418  -3.0564  -2.9723  -2.9128
    -2.8624  -2.7846  -0.9449  -0.9228  -0.8428  -0.4073   0.1345   0.2372
     0.3633   0.4502   0.4670   0.5141   0.6846   0.9461   0.9678   1.0355
     1.0905   1.1289   1.1346   1.3606   1.3981   1.4175   1.5033   1.6165
     1.6869   1.8438   1.9260   2.0410   2.2600   2.2929

          k =-0.0905 0.0168 0.0000 ( 31379 PWs)   bands (ev):

   -63.6226 -63.6224 -63.5653 -63.5652 -63.5149 -63.5148 -37.5608 -37.5603
   -37.5099 -37.5090 -37.4866 -37.4847 -37.4433 -37.4419 -37.4149 -37.4146
   -37.3286 -37.3281 -37.2367 -37.2364 -37.2067 -37.2064 -37.0930 -37.0929
    -5.9728  -5.5196  -5.0005  -4.9147  -4.8139  -4.7303  -4.7213  -4.6909
    -4.4653  -4.4586  -4.3598  -4.3251  -4.1109  -4.0409  -3.9107  -3.9092
    -3.7592  -3.7516  -3.6252  -3.6051  -3.5584  -3.5408  -3.5078  -3.4713
    -3.3914  -3.3899  -3.3227  -3.2913  -3.1295  -3.0554  -2.9701  -2.9212
    -2.8554  -2.7886  -1.0128  -0.9229  -0.7296  -0.4230   0.1048   0.2260
     0.3025   0.3407   0.4547   0.6095   0.7374   0.8958   0.9569   1.0625
     1.0940   1.1393   1.1885   1.3516   1.3557   1.4108   1.4901   1.5761
     1.6190   1.6761   2.0158   2.0932   2.2460   2.2767

          k =-0.0905 0.0336 0.0000 ( 31437 PWs)   bands (ev):

   -63.6226 -63.6224 -63.5653 -63.5653 -63.5149 -63.5148 -37.5607 -37.5604
   -37.5098 -37.5093 -37.4862 -37.4851 -37.4431 -37.4423 -37.4149 -37.4147
   -37.3286 -37.3282 -37.2367 -37.2365 -37.2067 -37.2064 -37.0930 -37.0929
    -5.8971  -5.6435  -4.9841  -4.9464  -4.7712  -4.7305  -4.7260  -4.7072
    -4.4463  -4.4352  -4.3682  -4.3356  -4.1104  -4.0766  -3.9056  -3.8911
    -3.7347  -3.7268  -3.6522  -3.6271  -3.5634  -3.5535  -3.4716  -3.4619
    -3.3853  -3.3688  -3.3132  -3.2994  -3.0988  -3.0564  -2.9656  -2.9406
    -2.8377  -2.8000  -1.0411  -0.9417  -0.5789  -0.4536   0.0388   0.0914
     0.2614   0.3021   0.4617   0.5990   0.8290   0.8675   0.9801   1.0759
     1.1152   1.1811   1.1975   1.3014   1.3159   1.4043   1.4114   1.4794
     1.5452   1.6144   2.0875   2.1937   2.1965   2.2616

          k =-0.0905-0.1512 0.0000 ( 31450 PWs)   bands (ev):

   -63.6226 -63.6224 -63.5653 -63.5653 -63.5148 -63.5148 -37.5606 -37.5605
   -37.5096 -37.5095 -37.4858 -37.4856 -37.4427 -37.4427 -37.4148 -37.4148
   -37.3285 -37.3282 -37.2367 -37.2365 -37.2066 -37.2065 -37.0930 -37.0930
    -5.7812  -5.7810  -4.9684  -4.9681  -4.7377  -4.7376  -4.7261  -4.7261
    -4.4320  -4.4319  -4.3553  -4.3551  -4.1008  -4.1005  -3.8953  -3.8947
    -3.7099  -3.7097  -3.6656  -3.6650  -3.5538  -3.5537  -3.4566  -3.4557
    -3.3725  -3.3722  -3.3073  -3.3068  -3.0696  -3.0689  -2.9578  -2.9575
    -2.8173  -2.8171  -0.9984  -0.9983  -0.4845  -0.4844   0.0047   0.0047
     0.2739   0.2740   0.5179   0.5179   0.8768   0.8768   1.0254   1.0255
     1.1657   1.1658   1.2648   1.2650   1.2803   1.2804   1.4313   1.4314
     1.5826   1.5828   2.1375   2.1381   2.2427   2.2430

     the Fermi energy is     0.9893 ev

!    total energy              =   -1396.25342048 Ry
     estimated scf accuracy    <       0.00000431 Ry
     smearing contrib. (-TS)   =      -0.07859203 Ry
     internal energy E=F+TS    =   -1396.17482845 Ry

     The total energy is F=E-TS. E is the sum of the following terms:
     one-electron contribution =  -11347.66686357 Ry
     hartree contribution      =    5709.52430850 Ry
     xc contribution           =    -325.56705528 Ry
     ewald contribution        =    4567.53477139 Ry
     electric field correction =       0.00001050 Ry

     convergence has been achieved in  28 iterations

     negative rho (up, down):  1.982E-03 0.000E+00

     Forces acting on atoms (cartesian axes, Ry/au):

     atom    1 type  1   force =    -0.00000398    0.01513727    0.02708872
     atom    2 type  1   force =    -0.00000250    0.01511878    0.02710085
     atom    3 type  2   force =     0.00001841   -0.02473432   -0.03114749
     atom    4 type  2   force =    -0.00001418   -0.02473458   -0.03113532
     atom    5 type  1   force =    -0.00000980   -0.00569961    0.00121387
     atom    6 type  1   force =     0.00000503   -0.00573266    0.00114240
     atom    7 type  2   force =     0.00006873    0.01533994   -0.00396961
     atom    8 type  2   force =    -0.00005409    0.01535785   -0.00395653
     atom    9 type  1   force =    -0.00002055    0.00009844    0.00207503
     atom   10 type  1   force =    -0.00000475    0.00002837    0.00202415
     atom   11 type  2   force =    -0.00014463   -0.00009931    0.00478116
     atom   12 type  2   force =     0.00016230   -0.00008018    0.00478275

     Total force =     0.075591     Total SCF correction =     0.006517

     Writing output data file ./V2Au2/V2Au2_beef.save/

     init_run     :     83.83s CPU     84.39s WALL (       1 calls)
     electrons    :   5203.46s CPU   5232.01s WALL (       1 calls)
     forces       :     53.22s CPU     53.47s WALL (       1 calls)

     Called by init_run:
     wfcinit      :     72.41s CPU     72.73s WALL (       1 calls)
     potinit      :      7.83s CPU      7.92s WALL (       1 calls)
     hinit0       :      1.93s CPU      1.94s WALL (       1 calls)

     Called by electrons:
     c_bands      :   4618.84s CPU   4635.50s WALL (      28 calls)
     sum_band     :    527.75s CPU    533.91s WALL (      28 calls)
     v_of_rho     :     35.26s CPU     37.22s WALL (      29 calls)
     newd         :     27.47s CPU     30.90s WALL (      29 calls)
     mix_rho      :      1.16s CPU      1.20s WALL (      28 calls)
     vdW_kernel   :      5.81s CPU      5.82s WALL (       1 calls)

     Called by c_bands:
     init_us_2    :     19.61s CPU     19.74s WALL (    4292 calls)
     cegterg      :   4570.66s CPU   4584.33s WALL (    2072 calls)

     Called by *egterg:
     cdiaghg      :    236.66s CPU    236.82s WALL (   11992 calls)
     h_psi        :   2328.82s CPU   2340.66s WALL (   12066 calls)
     s_psi        :    774.61s CPU    774.98s WALL (   12066 calls)
     g_psi        :      1.83s CPU      1.85s WALL (    9920 calls)

     Called by h_psi:
     h_psi:calbec :    796.77s CPU    798.32s WALL (   12066 calls)
     vloc_psi     :    735.11s CPU    745.05s WALL (   12066 calls)
     add_vuspsi   :    788.25s CPU    788.59s WALL (   12066 calls)

     General routines
     calbec       :   1162.99s CPU   1165.16s WALL (   14434 calls)
     fft          :     20.37s CPU     21.10s WALL (    1886 calls)
     ffts         :      0.12s CPU      0.12s WALL (      57 calls)
     fftw         :    842.23s CPU    853.85s WALL ( 1055362 calls)
     interpolate  :      0.39s CPU      0.40s WALL (      29 calls)

     Parallel routines
     fft_scatt_xy :     68.44s CPU     69.32s WALL ( 1057305 calls)
     fft_scatt_yz :    165.33s CPU    167.92s WALL ( 1057305 calls)

     PWSCF        :      1h29m CPU      1h29m WALL


   This run was terminated on:   5: 5:58  25Jun2022            

=------------------------------------------------------------------------------=
   JOB DONE.
=------------------------------------------------------------------------------=
