
     Program PWSCF v.6.6 starts on 25Jun2022 at  7:49:41 

     This program is part of the open-source Quantum ESPRESSO suite
     for quantum simulation of materials; please cite
         "P. Giannozzi et al., J. Phys.:Condens. Matter 21 395502 (2009);
         "P. Giannozzi et al., J. Phys.:Condens. Matter 29 465901 (2017);
          URL http://www.quantum-espresso.org", 
     in publications or presentations arising from this work. More details at
     http://www.quantum-espresso.org/quote

     Parallel version (MPI), running on    37 processors

     MPI processes distributed on     1 nodes
     R & G space division:  proc/nbgrp/npool/nimage =      37
     Fft bands division:     nmany     =       1
     Reading input from V2Cu2.in
Warning: card &CELL ignored
Warning: card / ignored

     Current dimensions of program PWSCF are:
     Max number of different atomic species (ntypx) = 10
     Max number of k-points (npk) =  40000
     Max angular momentum in pseudopotentials (lmaxx) =  3
     Presently stress not available with electric field and gates

     Message from routine cell_base_init:
     DEPRECATED: use true lattice parameter, not A to a.u. conversion factor
     file V.pbe-spnl-rrkjus_psl.1.0.0.UPF: wavefunction(s)  3P 3D renormalized
     file Cu.pbe-dn-rrkjus_psl.1.0.0.UPF: wavefunction(s)  3D renormalized

     **************************************************************************
     Initializing libbeef V0.1.2 with the BEEF-vdW functional.
     Citation: Wellendorff et al., PRB 85, 235149 (2012).
     **************************************************************************


     IMPORTANT: XC functional enforced from input :
     Exchange-correlation= BEEF-VDW
                           (   1   4  43  14   2   0   0)
     Any further DFT definition will be discarded
     Please, verify this is what you really want


     Subspace diagonalization in iterative solution of the eigenvalue problem:
     a serial algorithm will be used


     Parallelization info
     --------------------
     sticks:   dense  smooth     PW     G-vecs:    dense   smooth      PW
     Min         101      40     11                23159     5846     915
     Max         102      41     12                23180     5871     942
     Sum        3757    1505    443               857303   216797   34355



     bravais-lattice index     =            0
     lattice parameter (alat)  =       1.8897  a.u.
     unit-cell volume          =    3921.9285 (a.u.)^3
     number of atoms/cell      =           12
     number of atomic types    =            2
     number of electrons       =       144.00
     number of Kohn-Sham states=           86
     kinetic-energy cutoff     =      55.1240  Ry
     charge density cutoff     =     551.2396  Ry
     convergence threshold     =      1.0E-05
     mixing beta               =       0.1000
     number of iterations used =           10  plain     mixing
     Exchange-correlation= BEEF-VDW
                           (   1   4  43  14   2   0   0)

     celldm(1)=   1.889726  celldm(2)=   0.000000  celldm(3)=   0.000000
     celldm(4)=   0.000000  celldm(5)=   0.000000  celldm(6)=   0.000000

     crystal axes: (cart. coord. in units of alat)
               a(1) = (   4.981395   0.000000   0.000000 )  
               a(2) = (  -2.490698   4.808842   0.000000 )  
               a(3) = (   0.000000   0.000000  24.261166 )  

     reciprocal axes: (cart. coord. in units 2 pi/alat)
               b(1) = (  0.200747  0.103975 -0.000000 )  
               b(2) = (  0.000000  0.207950  0.000000 )  
               b(3) = (  0.000000 -0.000000  0.041218 )  


     PseudoPot. # 1 for V  read from file:
     ../pseudo/V.pbe-spnl-rrkjus_psl.1.0.0.UPF
     MD5 check sum: 79b3eb63147daf0b665d9f1bcc691206
     Pseudo is Ultrasoft + core correction, Zval = 13.0
     Generated using "atomic" code by A. Dal Corso v.6.2.2
     Using radial grid of 1181 points,  6 beta functions with: 
                l(1) =   0
                l(2) =   0
                l(3) =   1
                l(4) =   1
                l(5) =   2
                l(6) =   2
     Q(r) pseudized with 0 coefficients 


     PseudoPot. # 2 for Cu read from file:
     ../pseudo/Cu.pbe-dn-rrkjus_psl.1.0.0.UPF
     MD5 check sum: 8469560995d0c2df1ffe68c099c04a63
     Pseudo is Ultrasoft + core correction, Zval = 11.0
     Generated using "atomic" code by A. Dal Corso v.6.3
     Using radial grid of 1199 points,  6 beta functions with: 
                l(1) =   0
                l(2) =   0
                l(3) =   1
                l(4) =   1
                l(5) =   2
                l(6) =   2
     Q(r) pseudized with 0 coefficients 


     atomic species   valence    mass     pseudopotential
        V             13.00    50.94150     V ( 1.00)
        Cu            11.00    63.54600     Cu( 1.00)

     No symmetry found



   Cartesian axes

     site n.     atom                  positions (alat units)
         1           V   tau(   1) = (   0.0000000   0.0000000  10.0000000  )
         2           V   tau(   2) = (   2.4906976   0.0000000  10.0000000  )
         3           Cu  tau(   3) = (   1.2453488   2.4044208  10.0000000  )
         4           Cu  tau(   4) = (  -1.2453488   2.4044208  10.0000000  )
         5           V   tau(   5) = (   2.4906976   1.2900351  12.1305830  )
         6           V   tau(   6) = (   0.0000000   1.2900351  12.1305830  )
         7           Cu  tau(   7) = (  -1.2453488   3.6944559  12.1305830  )
         8           Cu  tau(   8) = (   1.2453488   3.6944559  12.1305830  )
         9           V   tau(   9) = (   0.0000022   2.6368325  14.1613253  )
        10           V   tau(  10) = (   2.4906921   2.6368265  14.1613289  )
        11           Cu  tau(  11) = (   3.7359989   0.2551536  14.2881354  )
        12           Cu  tau(  12) = (   1.2450637   0.2551365  14.2881462  )

     number of k points=    74  Fermi-Dirac smearing, width (Ry)=  0.0100
                       cart. coord. in units 2pi/alat
        k(    1) = (   0.0000000   0.0000000   0.0000000), wk =   0.0138889
        k(    2) = (   0.0000000   0.0173292   0.0000000), wk =   0.0277778
        k(    3) = (   0.0000000   0.0346584   0.0000000), wk =   0.0277778
        k(    4) = (   0.0000000   0.0519876   0.0000000), wk =   0.0277778
        k(    5) = (   0.0000000   0.0693168   0.0000000), wk =   0.0277778
        k(    6) = (   0.0000000   0.0866459   0.0000000), wk =   0.0277778
        k(    7) = (   0.0000000  -0.1039751   0.0000000), wk =   0.0138889
        k(    8) = (   0.0167289   0.0086646   0.0000000), wk =   0.0277778
        k(    9) = (   0.0167289   0.0259938   0.0000000), wk =   0.0277778
        k(   10) = (   0.0167289   0.0433230   0.0000000), wk =   0.0277778
        k(   11) = (   0.0167289   0.0606522   0.0000000), wk =   0.0277778
        k(   12) = (   0.0167289   0.0779814   0.0000000), wk =   0.0277778
        k(   13) = (   0.0167289   0.0953105   0.0000000), wk =   0.0277778
        k(   14) = (   0.0167289  -0.0953105   0.0000000), wk =   0.0277778
        k(   15) = (   0.0167289  -0.0779814   0.0000000), wk =   0.0277778
        k(   16) = (   0.0167289  -0.0606522   0.0000000), wk =   0.0277778
        k(   17) = (   0.0167289  -0.0433230   0.0000000), wk =   0.0277778
        k(   18) = (   0.0167289  -0.0259938   0.0000000), wk =   0.0277778
        k(   19) = (   0.0167289  -0.0086646   0.0000000), wk =   0.0277778
        k(   20) = (   0.0334578   0.0173292   0.0000000), wk =   0.0277778
        k(   21) = (   0.0334578   0.0346584   0.0000000), wk =   0.0277778
        k(   22) = (   0.0334578   0.0519876   0.0000000), wk =   0.0277778
        k(   23) = (   0.0334578   0.0693168   0.0000000), wk =   0.0277778
        k(   24) = (   0.0334578   0.0866459   0.0000000), wk =   0.0277778
        k(   25) = (   0.0334578   0.1039751   0.0000000), wk =   0.0277778
        k(   26) = (   0.0334578  -0.0866459   0.0000000), wk =   0.0277778
        k(   27) = (   0.0334578  -0.0693168   0.0000000), wk =   0.0277778
        k(   28) = (   0.0334578  -0.0519876   0.0000000), wk =   0.0277778
        k(   29) = (   0.0334578  -0.0346584   0.0000000), wk =   0.0277778
        k(   30) = (   0.0334578  -0.0173292   0.0000000), wk =   0.0277778
        k(   31) = (   0.0334578   0.0000000   0.0000000), wk =   0.0277778
        k(   32) = (   0.0501867   0.0259938   0.0000000), wk =   0.0277778
        k(   33) = (   0.0501867   0.0433230   0.0000000), wk =   0.0277778
        k(   34) = (   0.0501867   0.0606522   0.0000000), wk =   0.0277778
        k(   35) = (   0.0501867   0.0779814   0.0000000), wk =   0.0277778
        k(   36) = (   0.0501867   0.0953105   0.0000000), wk =   0.0277778
        k(   37) = (   0.0501867   0.1126397   0.0000000), wk =   0.0277778
        k(   38) = (   0.0501867  -0.0779813   0.0000000), wk =   0.0277778
        k(   39) = (   0.0501867  -0.0606522   0.0000000), wk =   0.0277778
        k(   40) = (   0.0501867  -0.0433230   0.0000000), wk =   0.0277778
        k(   41) = (   0.0501867  -0.0259938   0.0000000), wk =   0.0277778
        k(   42) = (   0.0501867  -0.0086646   0.0000000), wk =   0.0277778
        k(   43) = (   0.0501867   0.0086646   0.0000000), wk =   0.0277778
        k(   44) = (   0.0669157   0.0346584   0.0000000), wk =   0.0277778
        k(   45) = (   0.0669157   0.0519876   0.0000000), wk =   0.0277778
        k(   46) = (   0.0669157   0.0693168   0.0000000), wk =   0.0277778
        k(   47) = (   0.0669157   0.0866460   0.0000000), wk =   0.0277778
        k(   48) = (   0.0669157   0.1039751   0.0000000), wk =   0.0277778
        k(   49) = (   0.0669157   0.1213043   0.0000000), wk =   0.0277778
        k(   50) = (   0.0669157  -0.0693168   0.0000000), wk =   0.0277778
        k(   51) = (   0.0669157  -0.0519876   0.0000000), wk =   0.0277778
        k(   52) = (   0.0669157  -0.0346584   0.0000000), wk =   0.0277778
        k(   53) = (   0.0669157  -0.0173292   0.0000000), wk =   0.0277778
        k(   54) = (   0.0669157   0.0000000   0.0000000), wk =   0.0277778
        k(   55) = (   0.0669157   0.0173292   0.0000000), wk =   0.0277778
        k(   56) = (   0.0836446   0.0433230   0.0000000), wk =   0.0277778
        k(   57) = (   0.0836446   0.0606522   0.0000000), wk =   0.0277778
        k(   58) = (   0.0836446   0.0779814   0.0000000), wk =   0.0277778
        k(   59) = (   0.0836446   0.0953105   0.0000000), wk =   0.0277778
        k(   60) = (   0.0836446   0.1126397   0.0000000), wk =   0.0277778
        k(   61) = (   0.0836446   0.1299689   0.0000000), wk =   0.0277778
        k(   62) = (   0.0836446  -0.0606522   0.0000000), wk =   0.0277778
        k(   63) = (   0.0836446  -0.0433230   0.0000000), wk =   0.0277778
        k(   64) = (   0.0836446  -0.0259938   0.0000000), wk =   0.0277778
        k(   65) = (   0.0836446  -0.0086646   0.0000000), wk =   0.0277778
        k(   66) = (   0.0836446   0.0086646   0.0000000), wk =   0.0277778
        k(   67) = (   0.0836446   0.0259938   0.0000000), wk =   0.0277778
        k(   68) = (  -0.1003735  -0.0519876   0.0000000), wk =   0.0138889
        k(   69) = (  -0.1003735  -0.0346584   0.0000000), wk =   0.0277778
        k(   70) = (  -0.1003735  -0.0173292   0.0000000), wk =   0.0277778
        k(   71) = (  -0.1003735  -0.0000000   0.0000000), wk =   0.0277778
        k(   72) = (  -0.1003735   0.0173292   0.0000000), wk =   0.0277778
        k(   73) = (  -0.1003735   0.0346584   0.0000000), wk =   0.0277778
        k(   74) = (  -0.1003735  -0.1559627   0.0000000), wk =   0.0138889

     Dense  grid:   857303 G-vectors     FFT dimensions: (  72,  80, 360)

     Smooth grid:   216797 G-vectors     FFT dimensions: (  45,  50, 225)

     Estimated max dynamical RAM per process >     165.38 MB

     Estimated total dynamical RAM >       5.98 GB

     Initial potential from superposition of free atoms

     starting charge  143.99316, renormalised to  144.00000

     negative rho (up, down):  1.017E-03 0.000E+00


     %%%%%%%%%%%%%%%%%%%%%%%%%%%%%%%%%%%%%%%%%%%%%%%%%%%%%%%%%%%%%%%%%%%%%%%%
     %                                                                      %
     % You are using vdW-DF, which was implemented by the Thonhauser group. %
     % Please cite the following two papers that made this development      %
     % possible and the two reviews that describe the various versions:     %
     %                                                                      %
     %   T. Thonhauser et al., PRL 115, 136402 (2015).                      %
     %   T. Thonhauser et al., PRB 76, 125112 (2007).                       %
     %   K. Berland et al., Rep. Prog. Phys. 78, 066501 (2015).             %
     %   D.C. Langreth et al., J. Phys.: Condens. Matter 21, 084203 (2009). %
     %                                                                      %
     %                                                                      %
     % If you are calculating the stress with vdW-DF, please also cite:     %
     %                                                                      %
     %   R. Sabatini et al., J. Phys.: Condens. Matter 24, 424209 (2012).   %
     %                                                                      %
     %%%%%%%%%%%%%%%%%%%%%%%%%%%%%%%%%%%%%%%%%%%%%%%%%%%%%%%%%%%%%%%%%%%%%%%%



     Adding external electric field

     Computed dipole along edir(3) : 
        Dipole               -0.0001 Ry au,         -0.0004 Debye
        Dipole field         -0.0000 Ry au, 

        Potential amp.        0.0000 Ry
        Total length         44.7008 bohr

     Starting wfcs are  114 randomized atomic wfcs

     total cpu time spent up to now is       81.9 secs

     Self-consistent Calculation

     iteration #  1     ecut=    55.12 Ry     beta= 0.10
     Davidson diagonalization with overlap
     ethr =  1.00E-02,  avg # of iterations =  2.0

     negative rho (up, down):  8.838E-04 0.000E+00

     Adding external electric field

     Computed dipole along edir(3) : 
        Dipole               -0.1970 Ry au,         -0.5008 Debye
        Dipole field         -0.0006 Ry au, 

        Potential amp.        0.0564 Ry
        Total length         44.7008 bohr


     total cpu time spent up to now is      190.6 secs

     total energy              =   -1620.62526420 Ry
     estimated scf accuracy    <       7.29605277 Ry

     iteration #  2     ecut=    55.12 Ry     beta= 0.10
     Davidson diagonalization with overlap
     ethr =  5.07E-03,  avg # of iterations =  2.1

     negative rho (up, down):  3.552E-03 0.000E+00

     Adding external electric field

     Computed dipole along edir(3) : 
        Dipole                0.6272 Ry au,          1.5941 Debye
        Dipole field          0.0020 Ry au, 

        Potential amp.       -0.1797 Ry
        Total length         44.7008 bohr


     total cpu time spent up to now is      295.0 secs

     total energy              =   -1620.83769375 Ry
     estimated scf accuracy    <       9.77696592 Ry

     iteration #  3     ecut=    55.12 Ry     beta= 0.10
     Davidson diagonalization with overlap
     ethr =  5.07E-03,  avg # of iterations =  2.1

     negative rho (up, down):  5.693E-03 0.000E+00

     Adding external electric field

     Computed dipole along edir(3) : 
        Dipole               -0.0646 Ry au,         -0.1643 Debye
        Dipole field         -0.0002 Ry au, 

        Potential amp.        0.0185 Ry
        Total length         44.7008 bohr


     total cpu time spent up to now is      395.8 secs

     total energy              =   -1620.91072200 Ry
     estimated scf accuracy    <      36.65377340 Ry

     iteration #  4     ecut=    55.12 Ry     beta= 0.10
     Davidson diagonalization with overlap
     ethr =  5.07E-03,  avg # of iterations =  1.1

     negative rho (up, down):  6.795E-03 0.000E+00

     Adding external electric field

     Computed dipole along edir(3) : 
        Dipole                0.0005 Ry au,          0.0013 Debye
        Dipole field          0.0000 Ry au, 

        Potential amp.       -0.0002 Ry
        Total length         44.7008 bohr


     total cpu time spent up to now is      488.3 secs

     total energy              =   -1621.41208262 Ry
     estimated scf accuracy    <       1.12792161 Ry

     iteration #  5     ecut=    55.12 Ry     beta= 0.10
     Davidson diagonalization with overlap
     ethr =  7.83E-04,  avg # of iterations =  1.8

     negative rho (up, down):  1.590E-03 0.000E+00

     Adding external electric field

     Computed dipole along edir(3) : 
        Dipole               -0.0396 Ry au,         -0.1006 Debye
        Dipole field         -0.0001 Ry au, 

        Potential amp.        0.0113 Ry
        Total length         44.7008 bohr


     total cpu time spent up to now is      587.4 secs

     total energy              =   -1621.39503290 Ry
     estimated scf accuracy    <       0.28509002 Ry

     iteration #  6     ecut=    55.12 Ry     beta= 0.10
     Davidson diagonalization with overlap
     ethr =  1.98E-04,  avg # of iterations =  5.6

     negative rho (up, down):  8.016E-03 0.000E+00

     Adding external electric field

     Computed dipole along edir(3) : 
        Dipole                0.0375 Ry au,          0.0954 Debye
        Dipole field          0.0001 Ry au, 

        Potential amp.       -0.0108 Ry
        Total length         44.7008 bohr


     total cpu time spent up to now is      705.3 secs

     total energy              =   -1621.39377266 Ry
     estimated scf accuracy    <       0.19853994 Ry

     iteration #  7     ecut=    55.12 Ry     beta= 0.10
     Davidson diagonalization with overlap
     ethr =  1.38E-04,  avg # of iterations =  2.8

     negative rho (up, down):  9.303E-03 0.000E+00

     Adding external electric field

     Computed dipole along edir(3) : 
        Dipole               -0.0090 Ry au,         -0.0230 Debye
        Dipole field         -0.0000 Ry au, 

        Potential amp.        0.0026 Ry
        Total length         44.7008 bohr


     total cpu time spent up to now is      811.6 secs

     total energy              =   -1621.40684980 Ry
     estimated scf accuracy    <       0.25271054 Ry

     iteration #  8     ecut=    55.12 Ry     beta= 0.10
     Davidson diagonalization with overlap
     ethr =  1.38E-04,  avg # of iterations =  1.3

     negative rho (up, down):  1.237E-02 0.000E+00

     Adding external electric field

     Computed dipole along edir(3) : 
        Dipole               -0.0127 Ry au,         -0.0323 Debye
        Dipole field         -0.0000 Ry au, 

        Potential amp.        0.0036 Ry
        Total length         44.7008 bohr


     total cpu time spent up to now is      904.1 secs

     total energy              =   -1621.40985950 Ry
     estimated scf accuracy    <       0.02325916 Ry

     iteration #  9     ecut=    55.12 Ry     beta= 0.10
     Davidson diagonalization with overlap
     c_bands:  1 eigenvalues not converged
     c_bands:  1 eigenvalues not converged
     c_bands:  1 eigenvalues not converged
     c_bands:  2 eigenvalues not converged
     c_bands:  2 eigenvalues not converged
     ethr =  1.62E-05,  avg # of iterations = 12.1

     negative rho (up, down):  1.758E-02 0.000E+00

     Adding external electric field

     Computed dipole along edir(3) : 
        Dipole               -0.0167 Ry au,         -0.0425 Debye
        Dipole field         -0.0001 Ry au, 

        Potential amp.        0.0048 Ry
        Total length         44.7008 bohr


     total cpu time spent up to now is     1087.6 secs

     total energy              =   -1621.41225541 Ry
     estimated scf accuracy    <       0.01393716 Ry

     iteration # 10     ecut=    55.12 Ry     beta= 0.10
     Davidson diagonalization with overlap
     c_bands:  1 eigenvalues not converged
     c_bands:  3 eigenvalues not converged
     c_bands:  1 eigenvalues not converged
     c_bands:  1 eigenvalues not converged
     ethr =  9.68E-06,  avg # of iterations =  4.1

     negative rho (up, down):  2.247E-02 0.000E+00

     Adding external electric field

     Computed dipole along edir(3) : 
        Dipole               -0.0290 Ry au,         -0.0736 Debye
        Dipole field         -0.0001 Ry au, 

        Potential amp.        0.0083 Ry
        Total length         44.7008 bohr


     total cpu time spent up to now is     1281.6 secs

     total energy              =   -1621.41234582 Ry
     estimated scf accuracy    <       0.01542045 Ry

     iteration # 11     ecut=    55.12 Ry     beta= 0.10
     Davidson diagonalization with overlap
     c_bands:  1 eigenvalues not converged
     ethr =  9.68E-06,  avg # of iterations =  2.3

     negative rho (up, down):  2.173E-02 0.000E+00

     Adding external electric field

     Computed dipole along edir(3) : 
        Dipole               -0.0282 Ry au,         -0.0716 Debye
        Dipole field         -0.0001 Ry au, 

        Potential amp.        0.0081 Ry
        Total length         44.7008 bohr


     total cpu time spent up to now is     1384.5 secs

     total energy              =   -1621.41354375 Ry
     estimated scf accuracy    <       0.01048882 Ry

     iteration # 12     ecut=    55.12 Ry     beta= 0.10
     Davidson diagonalization with overlap
     ethr =  7.28E-06,  avg # of iterations =  1.7

     negative rho (up, down):  2.104E-02 0.000E+00

     Adding external electric field

     Computed dipole along edir(3) : 
        Dipole               -0.0156 Ry au,         -0.0397 Debye
        Dipole field         -0.0001 Ry au, 

        Potential amp.        0.0045 Ry
        Total length         44.7008 bohr


     total cpu time spent up to now is     2033.6 secs

     total energy              =   -1621.41339980 Ry
     estimated scf accuracy    <       0.01287056 Ry

     iteration # 13     ecut=    55.12 Ry     beta= 0.10
     Davidson diagonalization with overlap
     ethr =  7.28E-06,  avg # of iterations =  2.0

     negative rho (up, down):  1.972E-02 0.000E+00

     Adding external electric field

     Computed dipole along edir(3) : 
        Dipole               -0.0154 Ry au,         -0.0391 Debye
        Dipole field         -0.0000 Ry au, 

        Potential amp.        0.0044 Ry
        Total length         44.7008 bohr


     total cpu time spent up to now is     2165.4 secs

     total energy              =   -1621.41375086 Ry
     estimated scf accuracy    <       0.00337785 Ry

     iteration # 14     ecut=    55.12 Ry     beta= 0.10
     Davidson diagonalization with overlap
     c_bands:  1 eigenvalues not converged
     c_bands:  2 eigenvalues not converged
     c_bands:  1 eigenvalues not converged
     c_bands:  1 eigenvalues not converged
     c_bands:  1 eigenvalues not converged
     ethr =  2.35E-06,  avg # of iterations =  5.1

     negative rho (up, down):  1.998E-02 0.000E+00

     Adding external electric field

     Computed dipole along edir(3) : 
        Dipole               -0.0172 Ry au,         -0.0437 Debye
        Dipole field         -0.0001 Ry au, 

        Potential amp.        0.0049 Ry
        Total length         44.7008 bohr


     total cpu time spent up to now is     2275.4 secs

     total energy              =   -1621.41386587 Ry
     estimated scf accuracy    <       0.00070066 Ry

     iteration # 15     ecut=    55.12 Ry     beta= 0.10
     Davidson diagonalization with overlap
     c_bands:  1 eigenvalues not converged
     c_bands:  1 eigenvalues not converged
     ethr =  4.87E-07,  avg # of iterations =  5.8

     negative rho (up, down):  1.992E-02 0.000E+00

     Adding external electric field

     Computed dipole along edir(3) : 
        Dipole               -0.0153 Ry au,         -0.0388 Debye
        Dipole field         -0.0000 Ry au, 

        Potential amp.        0.0044 Ry
        Total length         44.7008 bohr


     total cpu time spent up to now is     2387.6 secs

     total energy              =   -1621.41381098 Ry
     estimated scf accuracy    <       0.00048533 Ry

     iteration # 16     ecut=    55.12 Ry     beta= 0.10
     Davidson diagonalization with overlap
     ethr =  3.37E-07,  avg # of iterations =  2.1

     negative rho (up, down):  1.831E-02 0.000E+00

     Adding external electric field

     Computed dipole along edir(3) : 
        Dipole               -0.0156 Ry au,         -0.0397 Debye
        Dipole field         -0.0001 Ry au, 

        Potential amp.        0.0045 Ry
        Total length         44.7008 bohr


     total cpu time spent up to now is     2489.6 secs

     total energy              =   -1621.41429353 Ry
     estimated scf accuracy    <       0.00016212 Ry

     iteration # 17     ecut=    55.12 Ry     beta= 0.10
     Davidson diagonalization with overlap
     c_bands:  1 eigenvalues not converged
     c_bands:  1 eigenvalues not converged
     ethr =  1.13E-07,  avg # of iterations =  8.3

     negative rho (up, down):  1.632E-02 0.000E+00

     Adding external electric field

     Computed dipole along edir(3) : 
        Dipole               -0.0160 Ry au,         -0.0406 Debye
        Dipole field         -0.0001 Ry au, 

        Potential amp.        0.0046 Ry
        Total length         44.7008 bohr


     total cpu time spent up to now is     2630.2 secs

     total energy              =   -1621.41500836 Ry
     estimated scf accuracy    <       0.00006118 Ry

     iteration # 18     ecut=    55.12 Ry     beta= 0.10
     Davidson diagonalization with overlap
     ethr =  4.25E-08,  avg # of iterations =  2.6

     negative rho (up, down):  1.458E-02 0.000E+00

     Adding external electric field

     Computed dipole along edir(3) : 
        Dipole               -0.0159 Ry au,         -0.0403 Debye
        Dipole field         -0.0001 Ry au, 

        Potential amp.        0.0045 Ry
        Total length         44.7008 bohr


     total cpu time spent up to now is     2736.8 secs

     total energy              =   -1621.41556972 Ry
     estimated scf accuracy    <       0.00001821 Ry

     iteration # 19     ecut=    55.12 Ry     beta= 0.10
     Davidson diagonalization with overlap
     ethr =  1.26E-08,  avg # of iterations =  6.0

     negative rho (up, down):  1.317E-02 0.000E+00

     Adding external electric field

     Computed dipole along edir(3) : 
        Dipole               -0.0160 Ry au,         -0.0407 Debye
        Dipole field         -0.0001 Ry au, 

        Potential amp.        0.0046 Ry
        Total length         44.7008 bohr


     total cpu time spent up to now is     2863.2 secs

     total energy              =   -1621.41601521 Ry
     estimated scf accuracy    <       0.00001016 Ry

     iteration # 20     ecut=    55.12 Ry     beta= 0.10
     Davidson diagonalization with overlap
     ethr =  7.06E-09,  avg # of iterations =  4.7

     negative rho (up, down):  1.198E-02 0.000E+00

     Adding external electric field

     Computed dipole along edir(3) : 
        Dipole               -0.0164 Ry au,         -0.0417 Debye
        Dipole field         -0.0001 Ry au, 

        Potential amp.        0.0047 Ry
        Total length         44.7008 bohr


     total cpu time spent up to now is     2981.3 secs

     total energy              =   -1621.41638630 Ry
     estimated scf accuracy    <       0.00001113 Ry

     iteration # 21     ecut=    55.12 Ry     beta= 0.10
     Davidson diagonalization with overlap
     ethr =  7.06E-09,  avg # of iterations =  3.1

     negative rho (up, down):  1.635E-03 0.000E+00

     Adding external electric field

     Computed dipole along edir(3) : 
        Dipole               -0.0099 Ry au,         -0.0251 Debye
        Dipole field         -0.0000 Ry au, 

        Potential amp.        0.0028 Ry
        Total length         44.7008 bohr


     total cpu time spent up to now is     3090.1 secs

     End of self-consistent calculation

          k = 0.0000 0.0000 0.0000 ( 27063 PWs)   bands (ev):

   -63.9635 -63.9322 -63.8355 -63.8044 -63.8028 -63.6757 -38.0472 -38.0199
   -37.9778 -37.9411 -37.9030 -37.8401 -37.8153 -37.7686 -37.7393 -37.7138
   -37.6916 -37.6676 -37.5883 -37.3021 -37.2167 -37.1898 -37.1409 -37.1176
    -7.1192  -5.3810  -4.4535  -4.0650  -4.0031  -3.9993  -3.9055  -3.8311
    -3.7074  -3.6307  -3.5395  -3.5013  -3.4920  -3.4841  -3.2082  -3.1176
    -3.0271  -2.8740  -2.8690  -2.6640  -2.6207  -2.6010  -2.4079  -2.3314
    -2.3309  -2.2476  -2.2294  -2.0260  -2.0195  -1.8564  -1.7634  -1.5158
    -1.4669  -1.3231  -1.1882  -1.0122  -0.8611  -0.8085  -0.6211  -0.5900
    -0.4337  -0.2432  -0.2275  -0.1025   0.0183   0.4414   0.4873   0.5045
     0.6765   0.7357   1.0266   1.2092   1.2448   1.3239   1.6735   1.8382
     2.0195   2.0330   2.1132   2.2359   2.4005   2.4741

          k = 0.0000 0.0173 0.0000 ( 27053 PWs)   bands (ev):

   -63.9635 -63.9322 -63.8355 -63.8044 -63.8028 -63.6757 -38.0473 -38.0199
   -37.9778 -37.9410 -37.9031 -37.8401 -37.8156 -37.7687 -37.7393 -37.7137
   -37.6914 -37.6677 -37.5884 -37.3021 -37.2167 -37.1898 -37.1409 -37.1176
    -7.0717  -5.3405  -4.4317  -4.0518  -4.0012  -3.9740  -3.8917  -3.8256
    -3.6812  -3.6301  -3.5259  -3.4832  -3.4815  -3.4693  -3.1744  -3.1200
    -3.0261  -2.8752  -2.8643  -2.6792  -2.6202  -2.5877  -2.4049  -2.3295
    -2.3273  -2.2718  -2.2207  -2.0234  -2.0149  -1.8575  -1.7630  -1.5303
    -1.5178  -1.3968  -1.1656  -1.0088  -1.0085  -0.7170  -0.7123  -0.6053
    -0.3679  -0.3286  -0.2890  -0.1145  -0.0989   0.3842   0.4536   0.4778
     0.6570   0.6665   0.9840   1.1673   1.1850   1.2366   1.6314   1.9184
     2.0121   2.0216   2.0655   2.2053   2.2104   2.4599

          k = 0.0000 0.0347 0.0000 ( 27039 PWs)   bands (ev):

   -63.9635 -63.9322 -63.8355 -63.8044 -63.8028 -63.6757 -38.0475 -38.0202
   -37.9778 -37.9411 -37.9031 -37.8401 -37.8163 -37.7689 -37.7392 -37.7134
   -37.6911 -37.6677 -37.5888 -37.3020 -37.2167 -37.1897 -37.1408 -37.1176
    -6.9317  -5.2266  -4.3821  -4.0149  -3.9936  -3.9018  -3.8515  -3.8089
    -3.6246  -3.6049  -3.4877  -3.4525  -3.4324  -3.4256  -3.1275  -3.0771
    -3.0241  -2.8778  -2.8544  -2.7202  -2.6189  -2.5548  -2.4004  -2.3255
    -2.3163  -2.3137  -2.2198  -2.0158  -2.0027  -1.8607  -1.7651  -1.7619
    -1.5243  -1.4477  -1.2189  -1.1909  -1.0170  -0.8528  -0.7004  -0.6188
    -0.5888  -0.4104  -0.3723  -0.2344  -0.1402   0.1583   0.2335   0.2802
     0.5772   0.6679   0.8462   0.9010   1.2034   1.2071   1.6147   1.8088
     1.8161   1.9923   2.0667   2.1558   2.2831   2.4301

          k = 0.0000 0.0520 0.0000 ( 27071 PWs)   bands (ev):

   -63.9635 -63.9322 -63.8355 -63.8044 -63.8028 -63.6757 -38.0479 -38.0205
   -37.9779 -37.9412 -37.9032 -37.8402 -37.8171 -37.7693 -37.7392 -37.7131
   -37.6907 -37.6678 -37.5894 -37.3020 -37.2168 -37.1897 -37.1408 -37.1176
    -6.7070  -5.0716  -4.3523  -3.9663  -3.9629  -3.7950  -3.7885  -3.7818
    -3.6032  -3.4871  -3.4341  -3.4106  -3.3593  -3.3555  -3.1384  -3.0273
    -2.9426  -2.8673  -2.8542  -2.7640  -2.6168  -2.5302  -2.4083  -2.3463
    -2.3203  -2.3011  -2.2273  -2.0432  -2.0046  -1.9864  -1.8651  -1.7605
    -1.5421  -1.4887  -1.4435  -1.3299  -1.0946  -0.9182  -0.9045  -0.8026
    -0.6215  -0.5602  -0.5572  -0.3237  -0.2045  -0.0558  -0.0310   0.0237
     0.3211   0.5279   0.6783   0.8558   1.1951   1.2929   1.5894   1.6407
     1.6662   1.9658   2.0329   2.3205   2.3629   2.3893

          k = 0.0000 0.0693 0.0000 ( 27134 PWs)   bands (ev):

   -63.9634 -63.9322 -63.8355 -63.8044 -63.8029 -63.6757 -38.0483 -38.0208
   -37.9780 -37.9412 -37.9033 -37.8404 -37.8181 -37.7697 -37.7391 -37.7128
   -37.6903 -37.6679 -37.5901 -37.3020 -37.2168 -37.1897 -37.1409 -37.1177
    -6.4150  -4.9807  -4.3421  -3.9174  -3.9094  -3.7499  -3.7103  -3.6773
    -3.5501  -3.3845  -3.3604  -3.3446  -3.2837  -3.2618  -3.1440  -3.0545
    -2.9248  -2.8652  -2.7725  -2.7211  -2.6142  -2.5573  -2.4591  -2.3390
    -2.3150  -2.2855  -2.2541  -2.2276  -1.9929  -1.9700  -1.8697  -1.7591
    -1.6979  -1.6299  -1.5261  -1.5185  -1.1914  -1.1579  -0.9666  -0.9333
    -0.7876  -0.7491  -0.5910  -0.4540  -0.3681  -0.2454  -0.2378  -0.1382
     0.2054   0.2637   0.6842   0.7181   1.1888   1.4310   1.4422   1.5864
     1.7264   1.9397   1.9964   2.3233   2.3485   2.5222

          k = 0.0000 0.0866 0.0000 ( 27142 PWs)   bands (ev):

   -63.9634 -63.9322 -63.8355 -63.8044 -63.8029 -63.6757 -38.0485 -38.0211
   -37.9780 -37.9412 -37.9033 -37.8405 -37.8187 -37.7700 -37.7390 -37.7125
   -37.6900 -37.6680 -37.5905 -37.3020 -37.2168 -37.1898 -37.1409 -37.1177
    -6.0990  -5.0966  -4.2390  -3.8946  -3.8696  -3.7263  -3.6356  -3.5839
    -3.4775  -3.3645  -3.2995  -3.2309  -3.2062  -3.1549  -3.1311  -3.0961
    -2.9696  -2.8408  -2.7595  -2.6478  -2.6121  -2.5680  -2.5134  -2.3993
    -2.3358  -2.3113  -2.2740  -2.1980  -1.9841  -1.9578  -1.8801  -1.8749
    -1.8733  -1.7581  -1.5657  -1.5347  -1.3918  -1.1871  -1.1365  -1.0049
    -0.9083  -0.8785  -0.5942  -0.5224  -0.5098  -0.4275  -0.4069  -0.1715
    -0.0055   0.3115   0.5630   0.6852   1.1846   1.3442   1.5329   1.6122
     1.7706   1.9208   1.9687   2.3162   2.3194   2.4999

          k = 0.0000-0.1040 0.0000 ( 27142 PWs)   bands (ev):

   -63.9634 -63.9322 -63.8355 -63.8044 -63.8029 -63.6756 -38.0486 -38.0212
   -37.9781 -37.9412 -37.9033 -37.8406 -37.8189 -37.7701 -37.7390 -37.7124
   -37.6899 -37.6680 -37.5906 -37.3020 -37.2169 -37.1897 -37.1409 -37.1177
    -5.9168  -5.2328  -4.1535  -3.9034  -3.8549  -3.7182  -3.6010  -3.5484
    -3.4469  -3.3665  -3.2558  -3.2128  -3.1188  -3.1186  -3.1124  -3.1024
    -3.0183  -2.7979  -2.7515  -2.6831  -2.6612  -2.6113  -2.4740  -2.4108
    -2.3606  -2.3099  -2.2697  -2.1747  -1.9809  -1.9578  -1.9533  -1.9518
    -1.8746  -1.7578  -1.5872  -1.5365  -1.4643  -1.2138  -1.1931  -1.0683
    -0.9344  -0.9192  -0.5909  -0.5617  -0.5414  -0.4979  -0.4656  -0.1899
    -0.0725   0.3675   0.4714   0.6848   1.1831   1.3174   1.5461   1.6474
     1.7868   1.9140   1.9582   2.3089   2.3123   2.4908

          k = 0.0167 0.0087 0.0000 ( 27049 PWs)   bands (ev):

   -63.9614 -63.9301 -63.8377 -63.8066 -63.8007 -63.6779 -38.0332 -38.0179
   -37.9641 -37.9275 -37.9051 -37.8384 -37.8136 -37.7669 -37.7410 -37.7156
   -37.6898 -37.6694 -37.5901 -37.3006 -37.2181 -37.2049 -37.1556 -37.1321
    -7.0613  -5.3275  -4.4095  -4.0551  -4.0077  -3.9785  -3.8900  -3.8111
    -3.6897  -3.6189  -3.5263  -3.5021  -3.4647  -3.4544  -3.1901  -3.1046
    -3.0158  -2.8736  -2.8679  -2.6713  -2.6187  -2.5921  -2.4048  -2.3624
    -2.3491  -2.2625  -2.2290  -2.0544  -2.0423  -1.8905  -1.7818  -1.5436
    -1.4562  -1.3109  -1.1349  -0.9658  -0.9319  -0.8374  -0.7670  -0.6350
    -0.4195  -0.3819  -0.2267  -0.0039   0.0158   0.4755   0.4900   0.5159
     0.6799   0.7045   0.9949   1.0820   1.1973   1.2675   1.6184   1.8391
     1.9766   2.0152   2.0572   2.1726   2.2393   2.4352

          k = 0.0167 0.0260 0.0000 ( 27036 PWs)   bands (ev):

   -63.9614 -63.9301 -63.8377 -63.8066 -63.8007 -63.6779 -38.0334 -38.0180
   -37.9641 -37.9275 -37.9051 -37.8384 -37.8141 -37.7671 -37.7410 -37.7154
   -37.6896 -37.6694 -37.5903 -37.3006 -37.2181 -37.2049 -37.1556 -37.1321
    -6.9674  -5.2489  -4.3699  -4.0330  -3.9742  -3.9662  -3.8564  -3.8002
    -3.6388  -3.6166  -3.4990  -3.4684  -3.4454  -3.4242  -3.1254  -3.1086
    -3.0153  -2.8763  -2.8601  -2.6997  -2.6127  -2.5729  -2.4023  -2.3576
    -2.3444  -2.2970  -2.2233  -2.0502  -2.0365  -1.8931  -1.7821  -1.6008
    -1.5481  -1.3958  -1.1263  -1.1085  -0.9610  -0.9042  -0.7584  -0.7158
    -0.4882  -0.3199  -0.3106  -0.1467  -0.0813   0.2865   0.3870   0.3924
     0.6494   0.7025   0.8401   1.0359   1.1054   1.2070   1.5174   1.7950
     1.9133   2.0425   2.0547   2.1644   2.2105   2.4487

          k = 0.0167 0.0433 0.0000 ( 27074 PWs)   bands (ev):

   -63.9613 -63.9301 -63.8377 -63.8066 -63.8007 -63.6779 -38.0337 -38.0183
   -37.9642 -37.9275 -37.9051 -37.8385 -37.8150 -37.7674 -37.7409 -37.7150
   -37.6892 -37.6695 -37.5908 -37.3006 -37.2182 -37.2049 -37.1556 -37.1322
    -6.7844  -5.1089  -4.3233  -3.9880  -3.9585  -3.8987  -3.7901  -3.7782
    -3.6054  -3.5428  -3.4503  -3.4109  -3.4046  -3.3676  -3.1173  -3.0165
    -3.0049  -2.8783  -2.8537  -2.7452  -2.6086  -2.5423  -2.4050  -2.3531
    -2.3373  -2.3344  -2.2271  -2.0451  -2.0284  -1.9069  -1.8613  -1.7809
    -1.5578  -1.4347  -1.3279  -1.1966  -1.0486  -1.0116  -0.8583  -0.7618
    -0.5926  -0.4539  -0.4242  -0.2326  -0.1411   0.0338   0.1138   0.1650
     0.4214   0.5539   0.8138   0.8694   1.1929   1.1938   1.5340   1.6107
     1.7561   1.9960   2.0345   2.2858   2.2875   2.4665

          k = 0.0167 0.0607 0.0000 ( 27100 PWs)   bands (ev):

   -63.9613 -63.9300 -63.8377 -63.8066 -63.8007 -63.6779 -38.0340 -38.0187
   -37.9642 -37.9276 -37.9052 -37.8386 -37.8159 -37.7678 -37.7409 -37.7147
   -37.6888 -37.6696 -37.5915 -37.3006 -37.2182 -37.2049 -37.1557 -37.1322
    -6.5243  -4.9669  -4.3142  -3.9311  -3.9143  -3.8171  -3.7475  -3.7026
    -3.5711  -3.4149  -3.3923  -3.3673  -3.3160  -3.2961  -3.1249  -3.0317
    -2.9186  -2.8648  -2.8107  -2.7719  -2.6050  -2.5426  -2.4331  -2.3532
    -2.3502  -2.3227  -2.2330  -2.1367  -2.0319  -2.0130  -1.8972  -1.7828
    -1.5977  -1.5331  -1.4728  -1.4183  -1.2593  -1.0928  -0.8899  -0.8771
    -0.7277  -0.6353  -0.5513  -0.3473  -0.2412  -0.1565  -0.1100  -0.1073
     0.2681   0.2878   0.7602   0.7942   1.1857   1.3463   1.5096   1.5123
     1.6879   1.9594   2.0006   2.3104   2.3674   2.3788

          k = 0.0167 0.0780 0.0000 ( 27117 PWs)   bands (ev):

   -63.9613 -63.9300 -63.8377 -63.8066 -63.8007 -63.6779 -38.0343 -38.0190
   -37.9643 -37.9276 -37.9052 -37.8387 -37.8166 -37.7681 -37.7408 -37.7144
   -37.6884 -37.6696 -37.5920 -37.3006 -37.2183 -37.2049 -37.1556 -37.1323
    -6.2133  -4.9751  -4.2649  -3.8802  -3.8691  -3.7299  -3.7179  -3.6243
    -3.5026  -3.3515  -3.3190  -3.2730  -3.2334  -3.2082  -3.1196  -3.0725
    -2.9430  -2.8617  -2.7670  -2.6560  -2.6029  -2.5711  -2.5145  -2.3741
    -2.3392  -2.3142  -2.2770  -2.2189  -2.0395  -2.0119  -1.9030  -1.7873
    -1.7842  -1.7116  -1.5752  -1.4893  -1.4544  -1.1327  -1.0504  -0.9082
    -0.8469  -0.8229  -0.6335  -0.4528  -0.4381  -0.3329  -0.2949  -0.1702
     0.0378   0.3040   0.6494   0.7412   1.1818   1.4314   1.4618   1.5002
     1.7229   1.9682   1.9687   2.3101   2.3277   2.3773

          k = 0.0167 0.0953 0.0000 ( 27113 PWs)   bands (ev):

   -63.9612 -63.9300 -63.8377 -63.8066 -63.8007 -63.6778 -38.0344 -38.0192
   -37.9643 -37.9277 -37.9052 -37.8388 -37.8171 -37.7683 -37.7408 -37.7141
   -37.6882 -37.6697 -37.5923 -37.3006 -37.2183 -37.2049 -37.1556 -37.1323
    -5.9312  -5.1492  -4.1430  -3.8647  -3.8506  -3.7017  -3.6595  -3.5887
    -3.4424  -3.3358  -3.2680  -3.1997  -3.1527  -3.1163  -3.1040  -3.1031
    -2.9958  -2.8194  -2.7550  -2.6725  -2.6271  -2.6038  -2.4575  -2.4549
    -2.3542  -2.3191  -2.3099  -2.1872  -2.0615  -2.0124  -1.9206  -1.9153
    -1.8512  -1.7813  -1.6205  -1.5374  -1.5059  -1.1731  -1.1447  -1.0121
    -0.9189  -0.8593  -0.6984  -0.6106  -0.4762  -0.4007  -0.3890  -0.1975
    -0.0828   0.3682   0.5218   0.7326   1.1801   1.3853   1.4896   1.5313
     1.7528   1.9487   2.0085   2.3035   2.3058   2.3596

          k = 0.0167-0.0953 0.0000 ( 27113 PWs)   bands (ev):

   -63.9612 -63.9300 -63.8377 -63.8066 -63.8007 -63.6778 -38.0344 -38.0192
   -37.9643 -37.9277 -37.9052 -37.8388 -37.8171 -37.7683 -37.7408 -37.7141
   -37.6882 -37.6697 -37.5923 -37.3006 -37.2183 -37.2049 -37.1556 -37.1323
    -5.9312  -5.1492  -4.1430  -3.8647  -3.8506  -3.7017  -3.6595  -3.5887
    -3.4424  -3.3358  -3.2680  -3.1997  -3.1527  -3.1162  -3.1040  -3.1031
    -2.9958  -2.8194  -2.7550  -2.6725  -2.6271  -2.6038  -2.4575  -2.4549
    -2.3542  -2.3191  -2.3099  -2.1872  -2.0615  -2.0124  -1.9206  -1.9153
    -1.8512  -1.7813  -1.6205  -1.5374  -1.5059  -1.1731  -1.1447  -1.0121
    -0.9189  -0.8593  -0.6983  -0.6107  -0.4762  -0.4007  -0.3890  -0.1975
    -0.0828   0.3682   0.5218   0.7326   1.1801   1.3853   1.4896   1.5313
     1.7528   1.9487   2.0085   2.3034   2.3058   2.3596

          k = 0.0167-0.0780 0.0000 ( 27117 PWs)   bands (ev):

   -63.9613 -63.9300 -63.8377 -63.8066 -63.8007 -63.6779 -38.0343 -38.0190
   -37.9643 -37.9276 -37.9052 -37.8387 -37.8166 -37.7681 -37.7408 -37.7144
   -37.6884 -37.6696 -37.5920 -37.3006 -37.2183 -37.2049 -37.1556 -37.1323
    -6.2133  -4.9751  -4.2649  -3.8802  -3.8691  -3.7299  -3.7179  -3.6243
    -3.5026  -3.3515  -3.3190  -3.2730  -3.2334  -3.2082  -3.1196  -3.0725
    -2.9430  -2.8617  -2.7670  -2.6560  -2.6029  -2.5711  -2.5146  -2.3741
    -2.3392  -2.3142  -2.2770  -2.2189  -2.0395  -2.0119  -1.9030  -1.7873
    -1.7842  -1.7116  -1.5752  -1.4893  -1.4545  -1.1327  -1.0504  -0.9082
    -0.8469  -0.8229  -0.6335  -0.4528  -0.4381  -0.3329  -0.2949  -0.1702
     0.0378   0.3040   0.6494   0.7412   1.1818   1.4313   1.4618   1.5002
     1.7229   1.9683   1.9687   2.3101   2.3266   2.3771

          k = 0.0167-0.0607 0.0000 ( 27100 PWs)   bands (ev):

   -63.9613 -63.9300 -63.8377 -63.8066 -63.8007 -63.6779 -38.0340 -38.0187
   -37.9642 -37.9276 -37.9052 -37.8386 -37.8159 -37.7678 -37.7409 -37.7147
   -37.6888 -37.6696 -37.5915 -37.3006 -37.2182 -37.2049 -37.1557 -37.1322
    -6.5243  -4.9669  -4.3142  -3.9311  -3.9143  -3.8170  -3.7475  -3.7026
    -3.5711  -3.4150  -3.3923  -3.3673  -3.3160  -3.2962  -3.1249  -3.0317
    -2.9186  -2.8648  -2.8107  -2.7719  -2.6050  -2.5426  -2.4331  -2.3532
    -2.3502  -2.3227  -2.2330  -2.1367  -2.0320  -2.0130  -1.8972  -1.7828
    -1.5977  -1.5331  -1.4728  -1.4183  -1.2593  -1.0928  -0.8898  -0.8771
    -0.7277  -0.6353  -0.5513  -0.3473  -0.2413  -0.1565  -0.1100  -0.1073
     0.2681   0.2878   0.7602   0.7942   1.1857   1.3463   1.5096   1.5124
     1.6879   1.9594   2.0006   2.3104   2.3674   2.3789

          k = 0.0167-0.0433 0.0000 ( 27074 PWs)   bands (ev):

   -63.9613 -63.9301 -63.8377 -63.8066 -63.8007 -63.6779 -38.0337 -38.0183
   -37.9642 -37.9275 -37.9051 -37.8385 -37.8150 -37.7674 -37.7409 -37.7150
   -37.6892 -37.6695 -37.5908 -37.3006 -37.2182 -37.2049 -37.1556 -37.1322
    -6.7844  -5.1089  -4.3233  -3.9880  -3.9585  -3.8986  -3.7901  -3.7782
    -3.6054  -3.5428  -3.4503  -3.4109  -3.4046  -3.3676  -3.1173  -3.0165
    -3.0049  -2.8783  -2.8537  -2.7452  -2.6086  -2.5422  -2.4050  -2.3531
    -2.3373  -2.3344  -2.2271  -2.0451  -2.0284  -1.9069  -1.8613  -1.7809
    -1.5578  -1.4347  -1.3279  -1.1966  -1.0486  -1.0116  -0.8583  -0.7617
    -0.5926  -0.4539  -0.4242  -0.2326  -0.1411   0.0338   0.1138   0.1650
     0.4214   0.5539   0.8138   0.8694   1.1929   1.1938   1.5340   1.6107
     1.7561   1.9960   2.0345   2.2854   2.2875   2.4484

          k = 0.0167-0.0260 0.0000 ( 27036 PWs)   bands (ev):

   -63.9614 -63.9301 -63.8377 -63.8066 -63.8007 -63.6779 -38.0334 -38.0180
   -37.9641 -37.9275 -37.9051 -37.8384 -37.8141 -37.7671 -37.7410 -37.7154
   -37.6896 -37.6694 -37.5903 -37.3006 -37.2181 -37.2049 -37.1556 -37.1321
    -6.9674  -5.2489  -4.3699  -4.0330  -3.9742  -3.9662  -3.8564  -3.8002
    -3.6389  -3.6166  -3.4990  -3.4683  -3.4454  -3.4242  -3.1254  -3.1086
    -3.0153  -2.8763  -2.8601  -2.6997  -2.6127  -2.5729  -2.4023  -2.3576
    -2.3444  -2.2970  -2.2233  -2.0502  -2.0365  -1.8931  -1.7821  -1.6008
    -1.5481  -1.3958  -1.1263  -1.1085  -0.9610  -0.9043  -0.7584  -0.7157
    -0.4882  -0.3199  -0.3106  -0.1467  -0.0812   0.2865   0.3870   0.3924
     0.6494   0.7025   0.8401   1.0359   1.1054   1.2070   1.5174   1.7950
     1.9133   2.0425   2.0545   2.1648   2.2104   2.4496

          k = 0.0167-0.0087 0.0000 ( 27049 PWs)   bands (ev):

   -63.9614 -63.9301 -63.8377 -63.8066 -63.8007 -63.6779 -38.0332 -38.0179
   -37.9641 -37.9275 -37.9051 -37.8384 -37.8136 -37.7669 -37.7410 -37.7156
   -37.6898 -37.6694 -37.5901 -37.3006 -37.2181 -37.2049 -37.1556 -37.1321
    -7.0613  -5.3275  -4.4095  -4.0551  -4.0077  -3.9785  -3.8900  -3.8111
    -3.6897  -3.6189  -3.5263  -3.5020  -3.4647  -3.4544  -3.1901  -3.1046
    -3.0158  -2.8736  -2.8679  -2.6713  -2.6187  -2.5921  -2.4048  -2.3624
    -2.3491  -2.2625  -2.2290  -2.0544  -2.0423  -1.8905  -1.7818  -1.5436
    -1.4562  -1.3109  -1.1349  -0.9658  -0.9319  -0.8374  -0.7670  -0.6350
    -0.4195  -0.3819  -0.2268  -0.0039   0.0158   0.4755   0.4900   0.5158
     0.6799   0.7045   0.9949   1.0820   1.1973   1.2676   1.6184   1.8391
     1.9764   2.0152   2.0571   2.1727   2.2391   2.4330

          k = 0.0335 0.0173 0.0000 ( 27067 PWs)   bands (ev):

   -63.9551 -63.9238 -63.8442 -63.8131 -63.7944 -63.6843 -38.0122 -37.9919
   -37.9241 -37.9106 -37.8877 -37.8334 -37.8087 -37.7620 -37.7461 -37.7208
   -37.6848 -37.6745 -37.5953 -37.2966 -37.2493 -37.2224 -37.1987 -37.1748
    -6.8896  -5.1704  -4.2808  -4.0702  -4.0062  -3.9081  -3.8400  -3.7545
    -3.6399  -3.5829  -3.4883  -3.4839  -3.3886  -3.3875  -3.1390  -3.0673
    -2.9845  -2.8728  -2.8687  -2.6934  -2.6182  -2.5621  -2.4534  -2.3993
    -2.3881  -2.2965  -2.2359  -2.1355  -2.1089  -1.9770  -1.8331  -1.6458
    -1.4386  -1.2976  -1.2647  -1.0195  -1.0035  -0.8756  -0.8255  -0.6827
    -0.6290  -0.2757  -0.2465   0.0347   0.0481   0.4263   0.4716   0.5168
     0.5742   0.7888   0.7901   0.9753   1.0629   1.2087   1.3575   1.6611
     1.8326   1.9283   1.9430   2.0603   2.3204   2.3943

          k = 0.0335 0.0347 0.0000 ( 27063 PWs)   bands (ev):

   -63.9550 -63.9238 -63.8442 -63.8131 -63.7944 -63.6843 -38.0124 -37.9922
   -37.9241 -37.9106 -37.8878 -37.8335 -37.8094 -37.7622 -37.7460 -37.7205
   -37.6844 -37.6746 -37.5957 -37.2966 -37.2493 -37.2225 -37.1987 -37.1748
    -6.7523  -5.0604  -4.2317  -4.0594  -3.9590  -3.8994  -3.7812  -3.7387
    -3.5777  -3.5708  -3.4495  -3.4338  -3.3636  -3.3466  -3.0735  -3.0487
    -2.9894  -2.8781  -2.8627  -2.7281  -2.5967  -2.5531  -2.4637  -2.3968
    -2.3772  -2.3314  -2.2361  -2.1373  -2.1078  -1.9803  -1.8362  -1.6601
    -1.6454  -1.3886  -1.3393  -1.2045  -1.0241  -0.9319  -0.8508  -0.7232
    -0.7027  -0.2954  -0.2817  -0.1041  -0.0956   0.2005   0.2888   0.3199
     0.4609   0.5728   0.8518   0.9113   1.0135   1.1896   1.3612   1.5054
     1.7810   1.9725   1.9882   2.1871   2.3288   2.3843

          k = 0.0335 0.0520 0.0000 ( 27071 PWs)   bands (ev):

   -63.9550 -63.9237 -63.8442 -63.8131 -63.7944 -63.6843 -38.0127 -37.9925
   -37.9242 -37.9106 -37.8878 -37.8336 -37.8103 -37.7626 -37.7460 -37.7201
   -37.6839 -37.6746 -37.5962 -37.2965 -37.2493 -37.2225 -37.1987 -37.1748
    -6.5321  -4.9117  -4.2032  -4.0214  -3.9092  -3.8670  -3.7122  -3.6991
    -3.5596  -3.4661  -3.3947  -3.3543  -3.3300  -3.2838  -3.0765  -3.0021
    -2.9358  -2.8694  -2.8682  -2.7629  -2.5821  -2.5464  -2.4845  -2.3957
    -2.3711  -2.3586  -2.2407  -2.1499  -2.1121  -1.9934  -1.9006  -1.8361
    -1.6951  -1.5195  -1.4203  -1.3637  -1.1674  -1.0153  -0.9610  -0.7836
    -0.7349  -0.4343  -0.4052  -0.2283  -0.1720  -0.0620   0.0386   0.0692
     0.2982   0.3476   0.8237   0.8694   1.1768   1.1923   1.3628   1.4365
     1.7031   1.9615   1.9709   2.2580   2.3042   2.4015

          k = 0.0335 0.0693 0.0000 ( 27112 PWs)   bands (ev):

   -63.9550 -63.9237 -63.8442 -63.8131 -63.7945 -63.6843 -38.0130 -37.9928
   -37.9242 -37.9107 -37.8879 -37.8337 -37.8111 -37.7629 -37.7459 -37.7197
   -37.6835 -37.6746 -37.5969 -37.2965 -37.2493 -37.2225 -37.1987 -37.1749
    -6.2463  -4.8273  -4.1948  -3.9645  -3.8637  -3.8070  -3.6800  -3.6186
    -3.5117  -3.3519  -3.3316  -3.2963  -3.2550  -3.2140  -3.0741  -3.0371
    -2.9269  -2.8812  -2.7710  -2.7417  -2.5757  -2.5716  -2.5281  -2.4051
    -2.3766  -2.3569  -2.2376  -2.2056  -2.1325  -2.0749  -1.9744  -1.8433
    -1.7839  -1.6385  -1.6109  -1.4680  -1.3563  -1.0894  -1.0066  -0.9068
    -0.7413  -0.6262  -0.5510  -0.4654  -0.2519  -0.2510  -0.1089  -0.1025
     0.0944   0.3445   0.7354   0.8398   1.1720   1.2787   1.3589   1.4796
     1.6615   1.9447   1.9660   2.2671   2.2793   2.3534

          k = 0.0335 0.0866 0.0000 ( 27127 PWs)   bands (ev):

   -63.9549 -63.9237 -63.8442 -63.8131 -63.7945 -63.6843 -38.0133 -37.9930
   -37.9242 -37.9107 -37.8879 -37.8338 -37.8117 -37.7632 -37.7458 -37.7194
   -37.6832 -37.6747 -37.5973 -37.2965 -37.2492 -37.2225 -37.1987 -37.1749
    -5.9381  -4.9425  -4.0965  -3.9078  -3.8327  -3.7712  -3.6555  -3.5630
    -3.4353  -3.3125  -3.2728  -3.2217  -3.1751  -3.1369  -3.0797  -3.0626
    -2.9616  -2.8580  -2.7641  -2.6629  -2.5995  -2.5902  -2.5347  -2.4415
    -2.3899  -2.3598  -2.2950  -2.2157  -2.1692  -2.1080  -1.9864  -1.8866
    -1.8456  -1.8110  -1.6886  -1.6480  -1.3437  -1.1399  -1.0228  -0.9990
    -0.8452  -0.7848  -0.6981  -0.6427  -0.2985  -0.2896  -0.2319  -0.1626
    -0.0506   0.3975   0.6299   0.8205   1.1714   1.2509   1.4472   1.4713
     1.6738   1.9210   2.0178   2.2015   2.2831   2.3310

          k = 0.0335 0.1040 0.0000 ( 27157 PWs)   bands (ev):

   -63.9549 -63.9237 -63.8442 -63.8131 -63.7945 -63.6843 -38.0134 -37.9931
   -37.9243 -37.9107 -37.8879 -37.8338 -37.8120 -37.7633 -37.7458 -37.7193
   -37.6832 -37.6747 -37.5975 -37.2966 -37.2493 -37.2226 -37.1987 -37.1749
    -5.7620  -5.0742  -4.0167  -3.8819  -3.8230  -3.7708  -3.6471  -3.5441
    -3.3969  -3.3032  -3.2596  -3.1761  -3.1284  -3.0967  -3.0828  -3.0759
    -2.9861  -2.8196  -2.7656  -2.6833  -2.6526  -2.5811  -2.4775  -2.4711
    -2.4038  -2.3780  -2.3313  -2.2006  -2.1846  -2.1151  -1.9918  -1.9247
    -1.8846  -1.8433  -1.7568  -1.6580  -1.3302  -1.1640  -1.0163  -0.9788
    -0.9516  -0.9270  -0.7016  -0.6870  -0.3112  -0.2930  -0.2764  -0.1891
    -0.1009   0.4413   0.5672   0.8138   1.1717   1.2462   1.4616   1.4702
     1.6861   1.9112   2.0601   2.1673   2.2831   2.3504

          k = 0.0335-0.0866 0.0000 ( 27127 PWs)   bands (ev):

   -63.9549 -63.9237 -63.8442 -63.8131 -63.7945 -63.6843 -38.0133 -37.9930
   -37.9242 -37.9107 -37.8879 -37.8338 -37.8117 -37.7632 -37.7458 -37.7194
   -37.6832 -37.6747 -37.5973 -37.2965 -37.2492 -37.2225 -37.1987 -37.1749
    -5.9381  -4.9425  -4.0965  -3.9078  -3.8327  -3.7712  -3.6555  -3.5630
    -3.4353  -3.3125  -3.2728  -3.2217  -3.1751  -3.1369  -3.0797  -3.0626
    -2.9616  -2.8580  -2.7641  -2.6629  -2.5995  -2.5902  -2.5347  -2.4415
    -2.3899  -2.3598  -2.2950  -2.2157  -2.1692  -2.1080  -1.9864  -1.8866
    -1.8456  -1.8110  -1.6886  -1.6480  -1.3437  -1.1398  -1.0228  -0.9990
    -0.8452  -0.7848  -0.6981  -0.6427  -0.2985  -0.2896  -0.2319  -0.1626
    -0.0506   0.3975   0.6299   0.8205   1.1714   1.2509   1.4472   1.4713
     1.6738   1.9210   2.0177   2.2013   2.2831   2.3303

          k = 0.0335-0.0693 0.0000 ( 27112 PWs)   bands (ev):

   -63.9550 -63.9237 -63.8442 -63.8131 -63.7945 -63.6843 -38.0130 -37.9928
   -37.9242 -37.9107 -37.8879 -37.8337 -37.8111 -37.7629 -37.7459 -37.7197
   -37.6835 -37.6746 -37.5969 -37.2965 -37.2493 -37.2225 -37.1987 -37.1749
    -6.2463  -4.8273  -4.1947  -3.9645  -3.8637  -3.8070  -3.6800  -3.6186
    -3.5117  -3.3520  -3.3316  -3.2963  -3.2549  -3.2140  -3.0741  -3.0371
    -2.9268  -2.8812  -2.7710  -2.7417  -2.5757  -2.5716  -2.5281  -2.4051
    -2.3766  -2.3569  -2.2376  -2.2056  -2.1325  -2.0749  -1.9744  -1.8433
    -1.7839  -1.6385  -1.6109  -1.4680  -1.3564  -1.0893  -1.0067  -0.9068
    -0.7413  -0.6262  -0.5511  -0.4655  -0.2519  -0.2510  -0.1089  -0.1025
     0.0944   0.3444   0.7353   0.8399   1.1720   1.2787   1.3588   1.4796
     1.6614   1.9446   1.9659   2.2641   2.2793   2.3474

          k = 0.0335-0.0520 0.0000 ( 27071 PWs)   bands (ev):

   -63.9550 -63.9237 -63.8442 -63.8131 -63.7944 -63.6843 -38.0127 -37.9925
   -37.9242 -37.9106 -37.8878 -37.8336 -37.8103 -37.7626 -37.7460 -37.7201
   -37.6839 -37.6746 -37.5962 -37.2965 -37.2493 -37.2225 -37.1987 -37.1748
    -6.5321  -4.9117  -4.2032  -4.0214  -3.9092  -3.8671  -3.7122  -3.6991
    -3.5596  -3.4662  -3.3947  -3.3543  -3.3300  -3.2839  -3.0765  -3.0021
    -2.9358  -2.8694  -2.8682  -2.7629  -2.5821  -2.5464  -2.4845  -2.3957
    -2.3711  -2.3586  -2.2407  -2.1499  -2.1121  -1.9935  -1.9006  -1.8361
    -1.6951  -1.5195  -1.4203  -1.3637  -1.1674  -1.0153  -0.9610  -0.7836
    -0.7349  -0.4343  -0.4052  -0.2283  -0.1720  -0.0620   0.0386   0.0692
     0.2982   0.3476   0.8237   0.8695   1.1768   1.1923   1.3628   1.4365
     1.7030   1.9614   1.9709   2.2580   2.3047   2.4016

          k = 0.0335-0.0347 0.0000 ( 27063 PWs)   bands (ev):

   -63.9550 -63.9238 -63.8442 -63.8131 -63.7944 -63.6843 -38.0124 -37.9922
   -37.9241 -37.9106 -37.8878 -37.8335 -37.8094 -37.7622 -37.7460 -37.7205
   -37.6844 -37.6746 -37.5957 -37.2966 -37.2493 -37.2225 -37.1987 -37.1748
    -6.7523  -5.0604  -4.2317  -4.0594  -3.9590  -3.8994  -3.7812  -3.7387
    -3.5777  -3.5708  -3.4495  -3.4338  -3.3636  -3.3466  -3.0735  -3.0487
    -2.9894  -2.8781  -2.8627  -2.7281  -2.5967  -2.5531  -2.4637  -2.3968
    -2.3772  -2.3314  -2.2361  -2.1373  -2.1078  -1.9803  -1.8362  -1.6600
    -1.6454  -1.3887  -1.3393  -1.2045  -1.0241  -0.9318  -0.8508  -0.7232
    -0.7027  -0.2954  -0.2817  -0.1041  -0.0957   0.2005   0.2888   0.3199
     0.4609   0.5727   0.8518   0.9114   1.0134   1.1896   1.3613   1.5054
     1.7811   1.9725   1.9882   2.1871   2.3288   2.3843

          k = 0.0335-0.0173 0.0000 ( 27067 PWs)   bands (ev):

   -63.9551 -63.9238 -63.8442 -63.8131 -63.7944 -63.6843 -38.0122 -37.9919
   -37.9241 -37.9106 -37.8877 -37.8334 -37.8087 -37.7620 -37.7461 -37.7208
   -37.6848 -37.6745 -37.5953 -37.2966 -37.2493 -37.2224 -37.1987 -37.1748
    -6.8896  -5.1704  -4.2808  -4.0702  -4.0061  -3.9081  -3.8401  -3.7545
    -3.6399  -3.5828  -3.4883  -3.4839  -3.3886  -3.3875  -3.1390  -3.0673
    -2.9845  -2.8728  -2.8687  -2.6934  -2.6182  -2.5621  -2.4535  -2.3993
    -2.3880  -2.2965  -2.2359  -2.1355  -2.1089  -1.9770  -1.8331  -1.6458
    -1.4386  -1.2976  -1.2647  -1.0195  -1.0035  -0.8755  -0.8255  -0.6827
    -0.6290  -0.2757  -0.2465   0.0347   0.0481   0.4263   0.4716   0.5168
     0.5742   0.7888   0.7901   0.9753   1.0629   1.2087   1.3575   1.6611
     1.8326   1.9283   1.9430   2.0605   2.3205   2.3943

          k = 0.0335 0.0000 0.0000 ( 27041 PWs)   bands (ev):

   -63.9551 -63.9238 -63.8442 -63.8131 -63.7944 -63.6844 -38.0121 -37.9919
   -37.9241 -37.9106 -37.8877 -37.8333 -37.8085 -37.7619 -37.7461 -37.7209
   -37.6849 -37.6745 -37.5951 -37.2966 -37.2493 -37.2224 -37.1987 -37.1748
    -6.9361  -5.2096  -4.3022  -4.0622  -4.0347  -3.9102  -3.8608  -3.7597
    -3.6641  -3.5837  -3.5017  -3.5013  -3.4032  -3.3961  -3.1699  -3.0661
    -2.9829  -2.8726  -2.8704  -2.6802  -2.6286  -2.5645  -2.4496  -2.4007
    -2.3932  -2.2797  -2.2390  -2.1356  -2.1100  -1.9759  -1.8322  -1.6417
    -1.3936  -1.2669  -1.1687  -1.0202  -0.9078  -0.8898  -0.8400  -0.6876
    -0.5692  -0.3123  -0.2333   0.1199   0.1427   0.4588   0.5186   0.5889
     0.6452   0.7503   0.8316   0.9825   1.1874   1.2027   1.6124   1.6455
     1.7557   1.8589   1.8730   2.0495   2.3053   2.3054

          k = 0.0502 0.0260 0.0000 ( 27105 PWs)   bands (ev):

   -63.9450 -63.9137 -63.8544 -63.8233 -63.7844 -63.6946 -38.0031 -37.9261
   -37.9207 -37.8590 -37.8255 -37.8244 -37.8009 -37.7542 -37.7541 -37.7291
   -37.6827 -37.6766 -37.6036 -37.3196 -37.2911 -37.2660 -37.2421 -37.2292
    -6.6106  -4.9215  -4.1907  -4.0774  -3.9592  -3.8035  -3.7571  -3.6712
    -3.5702  -3.5204  -3.4562  -3.4214  -3.2967  -3.2734  -3.0635  -3.0112
    -2.9422  -2.8824  -2.8729  -2.7301  -2.6227  -2.5760  -2.5144  -2.4498
    -2.3779  -2.3405  -2.2580  -2.2513  -2.2135  -2.0886  -1.9121  -1.9080
    -1.6933  -1.4273  -1.3286  -1.2004  -1.0906  -0.8336  -0.7749  -0.6070
    -0.5590  -0.2742  -0.1779   0.0176   0.1142   0.3190   0.3244   0.4118
     0.4702   0.6472   0.8009   0.8742   0.9075   1.1029   1.2558   1.3849
     1.6152   1.8540   1.8809   1.9998   2.1908   2.3798

          k = 0.0502 0.0433 0.0000 ( 27079 PWs)   bands (ev):

   -63.9450 -63.9137 -63.8545 -63.8233 -63.7844 -63.6945 -38.0033 -37.9263
   -37.9206 -37.8590 -37.8255 -37.8244 -37.8016 -37.7544 -37.7540 -37.7286
   -37.6826 -37.6762 -37.6040 -37.3195 -37.2911 -37.2660 -37.2421 -37.2293
    -6.4355  -4.7931  -4.2197  -4.0333  -3.9112  -3.7883  -3.6792  -3.6516
    -3.5129  -3.4944  -3.4071  -3.3616  -3.2507  -3.2482  -3.0173  -2.9637
    -2.9592  -2.8886  -2.8791  -2.7573  -2.5974  -2.5948  -2.5182  -2.4489
    -2.3729  -2.3658  -2.2707  -2.2546  -2.2224  -2.0909  -1.9779  -1.9137
    -1.7451  -1.6622  -1.3773  -1.2751  -1.2538  -0.8731  -0.8079  -0.7774
    -0.5344  -0.3477  -0.2517  -0.1801   0.0341   0.0533   0.2186   0.2430
     0.3493   0.3915   0.7959   0.8908   1.0034   1.1339   1.2551   1.3039
     1.6016   1.8782   1.9077   2.1502   2.1925   2.3628

          k = 0.0502 0.0607 0.0000 ( 27096 PWs)   bands (ev):

   -63.9449 -63.9137 -63.8545 -63.8233 -63.7845 -63.6945 -38.0036 -37.9265
   -37.9206 -37.8590 -37.8256 -37.8244 -37.8025 -37.7548 -37.7539 -37.7282
   -37.6826 -37.6757 -37.6047 -37.3195 -37.2911 -37.2660 -37.2422 -37.2293
    -6.1869  -4.6663  -4.2312  -4.0329  -3.8656  -3.7321  -3.6210  -3.5939
    -3.4891  -3.3979  -3.3522  -3.2764  -3.2280  -3.1854  -3.0127  -2.9911
    -2.9171  -2.9064  -2.8190  -2.7745  -2.6270  -2.5834  -2.5296  -2.4502
    -2.3886  -2.3759  -2.2894  -2.2564  -2.2451  -2.0965  -2.0713  -1.9215
    -1.8908  -1.7949  -1.4803  -1.4263  -1.2733  -1.0991  -0.8744  -0.8431
    -0.5154  -0.5083  -0.3963  -0.3830  -0.2048  -0.0175   0.0672   0.0960
     0.2022   0.3970   0.7546   0.8857   1.1261   1.1413   1.1741   1.3658
     1.5874   1.8777   1.9206   2.1763   2.2144   2.3126

          k = 0.0502 0.0780 0.0000 ( 27116 PWs)   bands (ev):

   -63.9449 -63.9137 -63.8545 -63.8234 -63.7845 -63.6945 -38.0039 -37.9267
   -37.9206 -37.8591 -37.8257 -37.8244 -37.8032 -37.7551 -37.7539 -37.7278
   -37.6826 -37.6754 -37.6052 -37.3194 -37.2911 -37.2660 -37.2422 -37.2293
    -5.8909  -4.6827  -4.2298  -3.9944  -3.8263  -3.6676  -3.5882  -3.5224
    -3.4310  -3.3202  -3.2910  -3.2243  -3.1843  -3.1206  -3.0403  -3.0041
    -2.9347  -2.9044  -2.7775  -2.7095  -2.6598  -2.6035  -2.5297  -2.4644
    -2.4379  -2.3762  -2.3097  -2.2795  -2.2547  -2.1527  -2.1071  -2.0356
    -1.9241  -1.8356  -1.6593  -1.4659  -1.4520  -1.1546  -0.9522  -0.8587
    -0.7722  -0.5816  -0.5451  -0.4777  -0.2807  -0.0525  -0.0246  -0.0106
     0.0479   0.4615   0.7213   0.8764   1.0464   1.1466   1.2754   1.4029
     1.5914   1.8638   1.9357   2.1153   2.2390   2.2443

          k = 0.0502 0.0953 0.0000 ( 27117 PWs)   bands (ev):

   -63.9449 -63.9137 -63.8545 -63.8234 -63.7845 -63.6945 -38.0040 -37.9268
   -37.9206 -37.8590 -37.8258 -37.8245 -37.8036 -37.7553 -37.7538 -37.7275
   -37.6826 -37.6752 -37.6055 -37.3194 -37.2910 -37.2660 -37.2423 -37.2293
    -5.6255  -4.8484  -4.2250  -3.8889  -3.8027  -3.6411  -3.5701  -3.4805
    -3.3568  -3.3035  -3.2436  -3.2205  -3.1165  -3.0826  -3.0676  -3.0193
    -2.9433  -2.8705  -2.7813  -2.6867  -2.6834  -2.5720  -2.5308  -2.5102
    -2.4740  -2.3853  -2.3487  -2.2910  -2.2615  -2.1811  -2.1259  -2.0920
    -1.9240  -1.8592  -1.7695  -1.5969  -1.4847  -1.1059  -1.0174  -0.9285
    -0.8474  -0.7335  -0.6330  -0.4678  -0.2944  -0.0845  -0.0773  -0.0578
    -0.0303   0.5097   0.6976   0.8684   0.9983   1.1509   1.3269   1.4121
     1.6060   1.8511   1.9525   2.0399   2.2214   2.2471

          k = 0.0502 0.1126 0.0000 ( 27117 PWs)   bands (ev):

   -63.9449 -63.9137 -63.8545 -63.8234 -63.7845 -63.6945 -38.0040 -37.9268
   -37.9206 -37.8590 -37.8258 -37.8245 -37.8036 -37.7553 -37.7538 -37.7275
   -37.6826 -37.6752 -37.6055 -37.3194 -37.2910 -37.2660 -37.2423 -37.2293
    -5.6255  -4.8484  -4.2250  -3.8888  -3.8027  -3.6411  -3.5701  -3.4805
    -3.3568  -3.3035  -3.2436  -3.2205  -3.1166  -3.0826  -3.0675  -3.0193
    -2.9433  -2.8705  -2.7813  -2.6867  -2.6834  -2.5720  -2.5308  -2.5102
    -2.4740  -2.3853  -2.3487  -2.2910  -2.2615  -2.1811  -2.1259  -2.0920
    -1.9240  -1.8592  -1.7695  -1.5969  -1.4847  -1.1059  -1.0174  -0.9285
    -0.8474  -0.7334  -0.6330  -0.4678  -0.2944  -0.0845  -0.0773  -0.0578
    -0.0302   0.5097   0.6976   0.8684   0.9983   1.1509   1.3269   1.4121
     1.6060   1.8511   1.9525   2.0399   2.2214   2.2471

          k = 0.0502-0.0780 0.0000 ( 27116 PWs)   bands (ev):

   -63.9449 -63.9137 -63.8545 -63.8234 -63.7845 -63.6945 -38.0039 -37.9267
   -37.9206 -37.8591 -37.8257 -37.8244 -37.8032 -37.7551 -37.7539 -37.7278
   -37.6826 -37.6754 -37.6052 -37.3194 -37.2911 -37.2660 -37.2422 -37.2293
    -5.8909  -4.6827  -4.2298  -3.9944  -3.8263  -3.6677  -3.5882  -3.5224
    -3.4310  -3.3202  -3.2910  -3.2243  -3.1843  -3.1206  -3.0403  -3.0042
    -2.9347  -2.9044  -2.7775  -2.7095  -2.6598  -2.6035  -2.5297  -2.4644
    -2.4379  -2.3762  -2.3097  -2.2795  -2.2546  -2.1527  -2.1072  -2.0356
    -1.9241  -1.8356  -1.6593  -1.4659  -1.4519  -1.1547  -0.9522  -0.8587
    -0.7722  -0.5815  -0.5452  -0.4777  -0.2807  -0.0525  -0.0246  -0.0106
     0.0479   0.4615   0.7213   0.8764   1.0464   1.1466   1.2754   1.4030
     1.5914   1.8638   1.9357   2.1153   2.2390   2.2443

          k = 0.0502-0.0607 0.0000 ( 27096 PWs)   bands (ev):

   -63.9449 -63.9137 -63.8545 -63.8233 -63.7845 -63.6945 -38.0036 -37.9265
   -37.9206 -37.8590 -37.8256 -37.8244 -37.8025 -37.7548 -37.7539 -37.7282
   -37.6826 -37.6757 -37.6047 -37.3195 -37.2911 -37.2660 -37.2422 -37.2293
    -6.1869  -4.6663  -4.2312  -4.0329  -3.8656  -3.7321  -3.6210  -3.5939
    -3.4890  -3.3979  -3.3522  -3.2764  -3.2280  -3.1854  -3.0127  -2.9911
    -2.9171  -2.9064  -2.8190  -2.7746  -2.6270  -2.5834  -2.5296  -2.4502
    -2.3886  -2.3759  -2.2894  -2.2564  -2.2451  -2.0966  -2.0713  -1.9215
    -1.8908  -1.7949  -1.4803  -1.4263  -1.2733  -1.0991  -0.8744  -0.8431
    -0.5154  -0.5082  -0.3963  -0.3830  -0.2048  -0.0175   0.0672   0.0960
     0.2021   0.3970   0.7546   0.8857   1.1261   1.1413   1.1741   1.3658
     1.5874   1.8777   1.9206   2.1764   2.2144   2.3126

          k = 0.0502-0.0433 0.0000 ( 27079 PWs)   bands (ev):

   -63.9450 -63.9137 -63.8545 -63.8233 -63.7844 -63.6945 -38.0033 -37.9263
   -37.9206 -37.8590 -37.8255 -37.8244 -37.8016 -37.7544 -37.7540 -37.7286
   -37.6826 -37.6762 -37.6040 -37.3195 -37.2911 -37.2660 -37.2421 -37.2293
    -6.4355  -4.7931  -4.2197  -4.0333  -3.9112  -3.7883  -3.6792  -3.6516
    -3.5129  -3.4944  -3.4071  -3.3616  -3.2507  -3.2482  -3.0174  -2.9636
    -2.9592  -2.8886  -2.8791  -2.7573  -2.5974  -2.5948  -2.5182  -2.4489
    -2.3729  -2.3658  -2.2707  -2.2546  -2.2224  -2.0910  -1.9779  -1.9137
    -1.7451  -1.6622  -1.3773  -1.2751  -1.2538  -0.8730  -0.8078  -0.7775
    -0.5343  -0.3478  -0.2517  -0.1801   0.0341   0.0533   0.2186   0.2430
     0.3493   0.3915   0.7959   0.8908   1.0034   1.1339   1.2551   1.3039
     1.6015   1.8782   1.9077   2.1501   2.1926   2.3628

          k = 0.0502-0.0260 0.0000 ( 27105 PWs)   bands (ev):

   -63.9450 -63.9137 -63.8544 -63.8233 -63.7844 -63.6946 -38.0031 -37.9261
   -37.9207 -37.8590 -37.8255 -37.8244 -37.8009 -37.7542 -37.7541 -37.7291
   -37.6827 -37.6766 -37.6036 -37.3196 -37.2911 -37.2660 -37.2421 -37.2292
    -6.6106  -4.9215  -4.1907  -4.0774  -3.9592  -3.8035  -3.7571  -3.6712
    -3.5702  -3.5204  -3.4562  -3.4214  -3.2967  -3.2734  -3.0635  -3.0112
    -2.9422  -2.8824  -2.8729  -2.7301  -2.6227  -2.5760  -2.5144  -2.4498
    -2.3779  -2.3405  -2.2580  -2.2513  -2.2135  -2.0886  -1.9121  -1.9080
    -1.6934  -1.4273  -1.3286  -1.2004  -1.0906  -0.8337  -0.7749  -0.6069
    -0.5590  -0.2742  -0.1779   0.0176   0.1142   0.3189   0.3244   0.4118
     0.4702   0.6472   0.8009   0.8742   0.9075   1.1030   1.2558   1.3849
     1.6152   1.8540   1.8809   1.9998   2.1908   2.3799

          k = 0.0502-0.0087 0.0000 ( 27109 PWs)   bands (ev):

   -63.9450 -63.9137 -63.8544 -63.8233 -63.7844 -63.6946 -38.0029 -37.9260
   -37.9207 -37.8590 -37.8254 -37.8244 -37.8004 -37.7541 -37.7540 -37.7293
   -37.6827 -37.6769 -37.6034 -37.3196 -37.2911 -37.2660 -37.2421 -37.2292
    -6.7006  -4.9942  -4.1545  -4.1158  -4.0037  -3.8064  -3.8021  -3.6800
    -3.6119  -3.5221  -3.4834  -3.4523  -3.3224  -3.2867  -3.1170  -3.0117
    -2.9323  -2.8858  -2.8664  -2.7123  -2.6434  -2.5642  -2.5141  -2.4502
    -2.3851  -2.3205  -2.2527  -2.2503  -2.2113  -2.0877  -1.9049  -1.8826
    -1.6589  -1.3411  -1.2984  -1.0515  -0.9672  -0.8285  -0.7781  -0.6617
    -0.4647  -0.2355  -0.1776   0.1447   0.2342   0.3204   0.4492   0.4655
     0.6593   0.7389   0.8530   0.8756   1.0621   1.1153   1.2083   1.4985
     1.6060   1.7194   1.8322   1.8731   2.1826   2.2394

          k = 0.0502 0.0087 0.0000 ( 27109 PWs)   bands (ev):

   -63.9450 -63.9137 -63.8544 -63.8233 -63.7844 -63.6946 -38.0029 -37.9260
   -37.9207 -37.8590 -37.8254 -37.8244 -37.8004 -37.7541 -37.7540 -37.7293
   -37.6827 -37.6769 -37.6034 -37.3196 -37.2911 -37.2660 -37.2421 -37.2292
    -6.7006  -4.9942  -4.1545  -4.1158  -4.0037  -3.8064  -3.8021  -3.6800
    -3.6119  -3.5221  -3.4834  -3.4523  -3.3224  -3.2867  -3.1170  -3.0117
    -2.9323  -2.8858  -2.8664  -2.7123  -2.6434  -2.5641  -2.5141  -2.4502
    -2.3851  -2.3205  -2.2527  -2.2503  -2.2113  -2.0877  -1.9049  -1.8826
    -1.6589  -1.3411  -1.2984  -1.0515  -0.9672  -0.8285  -0.7781  -0.6617
    -0.4647  -0.2355  -0.1776   0.1447   0.2342   0.3204   0.4493   0.4655
     0.6593   0.7389   0.8530   0.8756   1.0621   1.1153   1.2083   1.4985
     1.6060   1.7195   1.8322   1.8731   2.1826   2.2391

          k = 0.0669 0.0347 0.0000 ( 27123 PWs)   bands (ev):

   -63.9318 -63.9006 -63.8678 -63.8367 -63.7714 -63.7078 -37.9912 -37.9329
   -37.8396 -37.8151 -37.7905 -37.7745 -37.7646 -37.7439 -37.7422 -37.7387
   -37.6929 -37.6660 -37.6144 -37.4104 -37.3566 -37.3297 -37.2800 -37.2381
    -6.2364  -4.6057  -4.4364  -3.9119  -3.8207  -3.6873  -3.6516  -3.5780
    -3.5027  -3.4286  -3.4210  -3.3415  -3.1920  -3.1494  -2.9853  -2.9455
    -2.9354  -2.8793  -2.8742  -2.7988  -2.6727  -2.6339  -2.4903  -2.4648
    -2.4057  -2.3825  -2.3662  -2.3432  -2.2936  -2.2474  -2.2022  -1.9965
    -1.9935  -1.7832  -1.4202  -1.1804  -1.1380  -0.8710  -0.6615  -0.5136
    -0.3859  -0.3546  -0.0726  -0.0190   0.1148   0.2453   0.2848   0.3529
     0.3696   0.5049   0.7043   0.8384   0.9009   1.0078   1.1728   1.2010
     1.3939   1.7039   1.8319   1.9700   2.0866   2.2207

          k = 0.0669 0.0520 0.0000 ( 27103 PWs)   bands (ev):

   -63.9318 -63.9006 -63.8678 -63.8367 -63.7714 -63.7078 -37.9914 -37.9328
   -37.8398 -37.8152 -37.7913 -37.7745 -37.7645 -37.7442 -37.7420 -37.7383
   -37.6928 -37.6655 -37.6149 -37.4103 -37.3566 -37.3297 -37.2800 -37.2381
    -6.0326  -4.5278  -4.4826  -3.8712  -3.8088  -3.6598  -3.5651  -3.5572
    -3.4361  -3.4206  -3.3717  -3.2784  -3.1484  -3.1357  -2.9671  -2.9543
    -2.9078  -2.9036  -2.8514  -2.8164  -2.6986  -2.6121  -2.4928  -2.4827
    -2.4389  -2.3910  -2.3647  -2.3539  -2.3368  -2.2588  -2.2033  -2.0374
    -2.0044  -1.8233  -1.6405  -1.3243  -1.1579  -0.8814  -0.7651  -0.6650
    -0.5688  -0.3042  -0.2173  -0.1309  -0.1147   0.2393   0.2404   0.2561
     0.3325   0.4105   0.7085   0.8526   0.9854   1.0304   1.0735   1.2003
     1.4206   1.7407   1.8403   2.0547   2.0972   2.2439

          k = 0.0669 0.0693 0.0000 ( 27098 PWs)   bands (ev):

   -63.9318 -63.9006 -63.8678 -63.8367 -63.7714 -63.7078 -37.9916 -37.9327
   -37.8400 -37.8153 -37.7921 -37.7745 -37.7644 -37.7445 -37.7419 -37.7379
   -37.6928 -37.6651 -37.6155 -37.4102 -37.3566 -37.3297 -37.2800 -37.2381
    -5.7693  -4.5976  -4.4219  -3.8377  -3.8327  -3.5881  -3.5221  -3.4841
    -3.3981  -3.3636  -3.3324  -3.1969  -3.1310  -3.1010  -2.9925  -2.9668
    -2.9311  -2.8994  -2.8249  -2.7707  -2.7219  -2.6110  -2.5141  -2.4986
    -2.4882  -2.4002  -2.3924  -2.3855  -2.3473  -2.2547  -2.2052  -2.0845
    -2.0123  -1.8683  -1.8217  -1.4597  -1.2277  -0.9408  -0.9094  -0.7281
    -0.6749  -0.3962  -0.3017  -0.2384  -0.2020   0.1399   0.1754   0.1832
     0.2388   0.5235   0.7082   0.8774   0.9804   1.0556   1.0662   1.1993
     1.4575   1.7473   1.8312   2.0114   2.1570   2.2252

          k = 0.0669 0.0866 0.0000 ( 27134 PWs)   bands (ev):

   -63.9317 -63.9005 -63.8678 -63.8367 -63.7714 -63.7078 -37.9918 -37.9327
   -37.8401 -37.8154 -37.7927 -37.7745 -37.7644 -37.7447 -37.7418 -37.7376
   -37.6927 -37.6648 -37.6159 -37.4102 -37.3566 -37.3298 -37.2800 -37.2381
    -5.4883  -4.6407  -4.5357  -3.8121  -3.7685  -3.5454  -3.4828  -3.4185
    -3.3534  -3.3277  -3.2946  -3.1434  -3.1225  -3.0588  -3.0429  -2.9901
    -2.9321  -2.8810  -2.8198  -2.7364  -2.7109  -2.6243  -2.5694  -2.5363
    -2.5106  -2.4360  -2.4105  -2.3923  -2.3441  -2.2448  -2.2060  -2.1196
    -2.0213  -1.9255  -1.9040  -1.5622  -1.3828  -1.0444  -0.8671  -0.7798
    -0.6669  -0.5194  -0.4367  -0.2912  -0.1834   0.0357   0.1006   0.1436
     0.2407   0.5972   0.7329   0.8821   0.9062   1.0813   1.1215   1.1978
     1.4898   1.7415   1.8052   1.9543   2.0729   2.1900

          k = 0.0669 0.1040 0.0000 ( 27143 PWs)   bands (ev):

   -63.9317 -63.9005 -63.8678 -63.8367 -63.7714 -63.7078 -37.9919 -37.9327
   -37.8402 -37.8154 -37.7929 -37.7746 -37.7643 -37.7448 -37.7418 -37.7375
   -37.6927 -37.6647 -37.6160 -37.4102 -37.3566 -37.3298 -37.2800 -37.2381
    -5.3312  -4.6552  -4.6543  -3.8021  -3.7115  -3.5334  -3.4696  -3.3855
    -3.3358  -3.3225  -3.2668  -3.1528  -3.0786  -3.0754  -3.0559  -3.0044
    -2.9242  -2.8693  -2.8113  -2.7406  -2.6944  -2.6238  -2.6055  -2.5606
    -2.5245  -2.4473  -2.4148  -2.3921  -2.3434  -2.2403  -2.2056  -2.1311
    -2.0300  -1.9556  -1.9174  -1.6031  -1.4491  -1.0899  -0.8231  -0.7853
    -0.6166  -0.5654  -0.5589  -0.3043  -0.1680  -0.0105   0.0813   0.1303
     0.2422   0.6121   0.7743   0.8607   0.8811   1.0919   1.1431   1.1970
     1.5030   1.7377   1.7914   1.9105   2.0299   2.2030

          k = 0.0669 0.1213 0.0000 ( 27134 PWs)   bands (ev):

   -63.9317 -63.9005 -63.8678 -63.8367 -63.7714 -63.7078 -37.9918 -37.9327
   -37.8401 -37.8154 -37.7927 -37.7745 -37.7644 -37.7447 -37.7418 -37.7376
   -37.6927 -37.6648 -37.6159 -37.4102 -37.3566 -37.3298 -37.2800 -37.2381
    -5.4883  -4.6407  -4.5357  -3.8121  -3.7685  -3.5454  -3.4827  -3.4185
    -3.3534  -3.3277  -3.2946  -3.1434  -3.1225  -3.0588  -3.0429  -2.9901
    -2.9321  -2.8810  -2.8198  -2.7364  -2.7109  -2.6243  -2.5694  -2.5363
    -2.5106  -2.4359  -2.4105  -2.3923  -2.3441  -2.2448  -2.2060  -2.1196
    -2.0213  -1.9255  -1.9040  -1.5622  -1.3828  -1.0444  -0.8671  -0.7798
    -0.6669  -0.5195  -0.4366  -0.2912  -0.1834   0.0357   0.1006   0.1436
     0.2407   0.5972   0.7329   0.8822   0.9062   1.0813   1.1215   1.1978
     1.4899   1.7416   1.8052   1.9544   2.0734   2.1899

          k = 0.0669-0.0693 0.0000 ( 27098 PWs)   bands (ev):

   -63.9318 -63.9006 -63.8678 -63.8367 -63.7714 -63.7078 -37.9916 -37.9327
   -37.8400 -37.8153 -37.7921 -37.7745 -37.7644 -37.7445 -37.7419 -37.7379
   -37.6928 -37.6651 -37.6155 -37.4102 -37.3566 -37.3297 -37.2800 -37.2381
    -5.7693  -4.5976  -4.4219  -3.8377  -3.8327  -3.5881  -3.5220  -3.4840
    -3.3981  -3.3636  -3.3324  -3.1969  -3.1310  -3.1010  -2.9925  -2.9668
    -2.9311  -2.8994  -2.8249  -2.7706  -2.7219  -2.6110  -2.5141  -2.4986
    -2.4882  -2.4001  -2.3924  -2.3856  -2.3473  -2.2547  -2.2052  -2.0845
    -2.0123  -1.8683  -1.8217  -1.4597  -1.2277  -0.9408  -0.9095  -0.7282
    -0.6749  -0.3962  -0.3017  -0.2384  -0.2020   0.1399   0.1754   0.1832
     0.2388   0.5235   0.7081   0.8774   0.9804   1.0556   1.0662   1.1993
     1.4575   1.7472   1.8311   2.0112   2.1570   2.2223

          k = 0.0669-0.0520 0.0000 ( 27103 PWs)   bands (ev):

   -63.9318 -63.9006 -63.8678 -63.8367 -63.7714 -63.7078 -37.9914 -37.9328
   -37.8398 -37.8152 -37.7913 -37.7745 -37.7645 -37.7442 -37.7420 -37.7383
   -37.6928 -37.6655 -37.6149 -37.4103 -37.3566 -37.3297 -37.2800 -37.2381
    -6.0326  -4.5278  -4.4826  -3.8712  -3.8088  -3.6598  -3.5651  -3.5572
    -3.4362  -3.4206  -3.3717  -3.2784  -3.1485  -3.1357  -2.9671  -2.9543
    -2.9078  -2.9036  -2.8514  -2.8164  -2.6986  -2.6121  -2.4929  -2.4827
    -2.4389  -2.3910  -2.3647  -2.3539  -2.3368  -2.2588  -2.2033  -2.0374
    -2.0044  -1.8233  -1.6405  -1.3243  -1.1579  -0.8813  -0.7651  -0.6650
    -0.5689  -0.3042  -0.2173  -0.1309  -0.1147   0.2393   0.2404   0.2561
     0.3325   0.4105   0.7085   0.8526   0.9854   1.0304   1.0735   1.2004
     1.4206   1.7407   1.8403   2.0548   2.0972   2.2440

          k = 0.0669-0.0347 0.0000 ( 27123 PWs)   bands (ev):

   -63.9318 -63.9006 -63.8678 -63.8367 -63.7714 -63.7078 -37.9912 -37.9329
   -37.8396 -37.8151 -37.7905 -37.7745 -37.7646 -37.7439 -37.7421 -37.7387
   -37.6929 -37.6660 -37.6144 -37.4104 -37.3566 -37.3297 -37.2800 -37.2381
    -6.2364  -4.6057  -4.4364  -3.9119  -3.8207  -3.6872  -3.6516  -3.5780
    -3.5027  -3.4286  -3.4210  -3.3415  -3.1920  -3.1494  -2.9853  -2.9455
    -2.9354  -2.8793  -2.8742  -2.7988  -2.6727  -2.6340  -2.4903  -2.4648
    -2.4057  -2.3825  -2.3662  -2.3432  -2.2936  -2.2474  -2.2022  -1.9965
    -1.9935  -1.7832  -1.4202  -1.1803  -1.1380  -0.8710  -0.6615  -0.5135
    -0.3859  -0.3546  -0.0726  -0.0191   0.1147   0.2452   0.2848   0.3529
     0.3696   0.5049   0.7043   0.8384   0.9009   1.0078   1.1728   1.2010
     1.3939   1.7039   1.8320   1.9701   2.0867   2.2208

          k = 0.0669-0.0173 0.0000 ( 27094 PWs)   bands (ev):

   -63.9318 -63.9006 -63.8678 -63.8367 -63.7714 -63.7078 -37.9909 -37.9329
   -37.8395 -37.8150 -37.7899 -37.7745 -37.7647 -37.7437 -37.7423 -37.7390
   -37.6929 -37.6663 -37.6140 -37.4105 -37.3566 -37.3296 -37.2800 -37.2381
    -6.3637  -4.6991  -4.3391  -3.9678  -3.8682  -3.7170  -3.6822  -3.5865
    -3.5502  -3.4546  -3.4301  -3.3817  -3.2210  -3.1614  -3.0387  -2.9590
    -2.9301  -2.8664  -2.8563  -2.7867  -2.6586  -2.6521  -2.4910  -2.4554
    -2.3918  -2.3741  -2.3705  -2.3351  -2.2768  -2.2238  -2.2019  -1.9909
    -1.9626  -1.7563  -1.2984  -1.0583  -1.0162  -0.8858  -0.6560  -0.4636
    -0.2787  -0.2471  -0.0529   0.1343   0.1708   0.2920   0.3118   0.4427
     0.5052   0.6596   0.6942   0.8301   0.9173   0.9817   1.1905   1.2633
     1.3774   1.6515   1.7582   1.8186   2.1039   2.1896

          k = 0.0669 0.0000 0.0000 ( 27129 PWs)   bands (ev):

   -63.9318 -63.9006 -63.8678 -63.8367 -63.7713 -63.7078 -37.9909 -37.9330
   -37.8394 -37.8150 -37.7897 -37.7745 -37.7647 -37.7437 -37.7423 -37.7391
   -37.6929 -37.6665 -37.6139 -37.4105 -37.3566 -37.3296 -37.2800 -37.2381
    -6.4069  -4.7326  -4.2864  -4.0072  -3.8880  -3.7387  -3.6810  -3.5883
    -3.5677  -3.4656  -3.4300  -3.3959  -3.2307  -3.1660  -3.0630  -2.9604
    -2.9293  -2.8623  -2.8470  -2.7836  -2.6692  -2.6441  -2.4913  -2.4529
    -2.3912  -2.3746  -2.3650  -2.3334  -2.2730  -2.2129  -2.2018  -1.9888
    -1.9514  -1.7469  -1.2788  -0.9993  -0.9109  -0.9063  -0.6549  -0.5174
    -0.1947  -0.1863  -0.0543   0.1263   0.1734   0.3108   0.3581   0.4633
     0.6206   0.6973   0.7446   0.7972   0.9634   1.0667   1.1041   1.3030
     1.3788   1.6023   1.6816   1.8114   2.0243   2.1092

          k = 0.0669 0.0173 0.0000 ( 27094 PWs)   bands (ev):

   -63.9318 -63.9006 -63.8678 -63.8367 -63.7714 -63.7078 -37.9909 -37.9329
   -37.8395 -37.8150 -37.7899 -37.7745 -37.7647 -37.7437 -37.7423 -37.7390
   -37.6929 -37.6663 -37.6140 -37.4105 -37.3566 -37.3296 -37.2800 -37.2381
    -6.3637  -4.6991  -4.3391  -3.9678  -3.8682  -3.7170  -3.6822  -3.5865
    -3.5502  -3.4546  -3.4301  -3.3817  -3.2210  -3.1614  -3.0387  -2.9590
    -2.9301  -2.8664  -2.8563  -2.7867  -2.6585  -2.6521  -2.4910  -2.4554
    -2.3918  -2.3741  -2.3705  -2.3351  -2.2768  -2.2238  -2.2019  -1.9909
    -1.9626  -1.7564  -1.2984  -1.0583  -1.0163  -0.8858  -0.6560  -0.4637
    -0.2787  -0.2470  -0.0529   0.1343   0.1708   0.2921   0.3118   0.4427
     0.5052   0.6596   0.6942   0.8301   0.9173   0.9817   1.1905   1.2633
     1.3774   1.6515   1.7582   1.8186   2.1039   2.1896

          k = 0.0836 0.0433 0.0000 ( 27102 PWs)   bands (ev):

   -63.9164 -63.8852 -63.8833 -63.8522 -63.7561 -63.7232 -37.9772 -37.9470
   -37.8030 -37.7785 -37.7773 -37.7528 -37.7373 -37.7320 -37.7051 -37.6748
   -37.6536 -37.6428 -37.6269 -37.5152 -37.4586 -37.4302 -37.2702 -37.2483
    -5.7872  -4.8218  -4.2738  -3.9073  -3.5896  -3.5531  -3.5524  -3.4973
    -3.4653  -3.3814  -3.3182  -3.2653  -3.1124  -3.1101  -3.0062  -2.9573
    -2.8730  -2.8543  -2.8241  -2.8151  -2.6994  -2.6480  -2.5485  -2.5322
    -2.4798  -2.4651  -2.4553  -2.4025  -2.3831  -2.3148  -2.2810  -2.2793
    -2.1258  -2.0887  -1.4031  -1.2710  -1.0669  -0.9397  -0.6601  -0.5857
    -0.4168  -0.1965  -0.1071  -0.0488   0.2067   0.2862   0.3738   0.4086
     0.4263   0.5707   0.6445   0.7506   0.9169   0.9331   0.9775   1.0415
     1.1684   1.5299   1.7848   1.8426   1.9678   2.0291

          k = 0.0836 0.0607 0.0000 ( 27120 PWs)   bands (ev):

   -63.9164 -63.8852 -63.8833 -63.8522 -63.7561 -63.7232 -37.9774 -37.9469
   -37.8031 -37.7792 -37.7773 -37.7522 -37.7374 -37.7322 -37.7050 -37.6749
   -37.6531 -37.6428 -37.6274 -37.5151 -37.4586 -37.4303 -37.2702 -37.2483
    -5.5696  -4.9651  -4.1943  -3.8961  -3.6418  -3.5197  -3.4854  -3.4771
    -3.4183  -3.3228  -3.3169  -3.2204  -3.1196  -3.0940  -3.0152  -2.9583
    -2.8571  -2.8491  -2.8459  -2.7685  -2.7248  -2.6314  -2.5862  -2.5617
    -2.4993  -2.4863  -2.4526  -2.4223  -2.3769  -2.3516  -2.2815  -2.2772
    -2.1372  -2.0986  -1.5568  -1.3244  -1.0841  -0.9488  -0.7333  -0.7010
    -0.4640  -0.2513  -0.1603  -0.1518   0.1610   0.2834   0.3113   0.3255
     0.5174   0.5406   0.7165   0.8022   0.8880   0.9284   0.9599   0.9915
     1.2052   1.5331   1.7373   1.9542   1.9754   2.0774

          k = 0.0836 0.0780 0.0000 ( 27138 PWs)   bands (ev):

   -63.9164 -63.8852 -63.8833 -63.8522 -63.7561 -63.7232 -37.9776 -37.9469
   -37.8032 -37.7799 -37.7773 -37.7517 -37.7375 -37.7325 -37.7049 -37.6749
   -37.6527 -37.6428 -37.6279 -37.5150 -37.4586 -37.4303 -37.2701 -37.2484
    -5.3131  -5.0679  -4.2287  -3.8941  -3.6618  -3.5052  -3.4404  -3.4293
    -3.3721  -3.3095  -3.2833  -3.1607  -3.1218  -3.0799  -3.0345  -2.9678
    -2.8772  -2.8474  -2.8114  -2.7510  -2.7272  -2.6414  -2.6319  -2.6045
    -2.5168  -2.5061  -2.4433  -2.4416  -2.3857  -2.3771  -2.2809  -2.2696
    -2.1460  -2.1076  -1.6574  -1.3659  -1.1839  -1.0605  -0.7012  -0.6272
    -0.4787  -0.3805  -0.2323  -0.1509   0.1348   0.1542   0.2501   0.3157
     0.5283   0.6703   0.7094   0.8524   0.8737   0.9546   0.9581   0.9867
     1.2473   1.5226   1.6645   1.8632   2.0799   2.1196

          k = 0.0836 0.0953 0.0000 ( 27153 PWs)   bands (ev):

   -63.9164 -63.8852 -63.8833 -63.8522 -63.7562 -63.7232 -37.9777 -37.9468
   -37.8033 -37.7803 -37.7772 -37.7515 -37.7375 -37.7326 -37.7049 -37.6749
   -37.6525 -37.6429 -37.6282 -37.5150 -37.4586 -37.4303 -37.2702 -37.2484
    -5.1212  -5.0882  -4.3725  -3.8931  -3.6104  -3.5146  -3.4166  -3.3921
    -3.3402  -3.3027  -3.2697  -3.1179  -3.1143  -3.0690  -3.0579  -2.9780
    -2.8930  -2.8295  -2.7756  -2.7723  -2.7024  -2.6966  -2.6609  -2.6314
    -2.5251  -2.5165  -2.4532  -2.4344  -2.4043  -2.3807  -2.2801  -2.2619
    -2.1510  -2.1133  -1.6994  -1.3957  -1.2732  -1.1301  -0.6139  -0.5376
    -0.4895  -0.4263  -0.2691  -0.2581   0.0758   0.1753   0.2193   0.2919
     0.5541   0.6330   0.7810   0.8629   0.8720   0.9461   0.9714   1.0630
     1.2725   1.5136   1.6029   1.8113   1.9114   2.1457

          k = 0.0836 0.1126 0.0000 ( 27153 PWs)   bands (ev):

   -63.9164 -63.8852 -63.8833 -63.8522 -63.7562 -63.7232 -37.9777 -37.9468
   -37.8033 -37.7803 -37.7772 -37.7515 -37.7375 -37.7326 -37.7049 -37.6749
   -37.6525 -37.6429 -37.6282 -37.5150 -37.4586 -37.4303 -37.2702 -37.2484
    -5.1212  -5.0882  -4.3725  -3.8931  -3.6104  -3.5146  -3.4166  -3.3921
    -3.3402  -3.3027  -3.2697  -3.1179  -3.1143  -3.0690  -3.0579  -2.9780
    -2.8930  -2.8295  -2.7756  -2.7723  -2.7024  -2.6966  -2.6609  -2.6313
    -2.5251  -2.5165  -2.4532  -2.4344  -2.4043  -2.3807  -2.2801  -2.2619
    -2.1510  -2.1133  -1.6994  -1.3957  -1.2732  -1.1301  -0.6139  -0.5376
    -0.4895  -0.4264  -0.2692  -0.2580   0.0758   0.1753   0.2193   0.2919
     0.5541   0.6329   0.7810   0.8629   0.8720   0.9461   0.9714   1.0630
     1.2725   1.5136   1.6029   1.8114   1.9114   2.1435

          k = 0.0836 0.1300 0.0000 ( 27138 PWs)   bands (ev):

   -63.9164 -63.8852 -63.8833 -63.8522 -63.7561 -63.7232 -37.9776 -37.9469
   -37.8032 -37.7799 -37.7773 -37.7517 -37.7375 -37.7325 -37.7049 -37.6749
   -37.6527 -37.6428 -37.6279 -37.5150 -37.4586 -37.4303 -37.2701 -37.2484
    -5.3131  -5.0679  -4.2287  -3.8941  -3.6618  -3.5052  -3.4404  -3.4292
    -3.3721  -3.3095  -3.2833  -3.1607  -3.1217  -3.0799  -3.0345  -2.9678
    -2.8772  -2.8474  -2.8114  -2.7511  -2.7272  -2.6414  -2.6319  -2.6045
    -2.5169  -2.5060  -2.4433  -2.4416  -2.3857  -2.3771  -2.2809  -2.2696
    -2.1460  -2.1076  -1.6574  -1.3659  -1.1839  -1.0605  -0.7012  -0.6273
    -0.4787  -0.3805  -0.2323  -0.1509   0.1348   0.1542   0.2501   0.3157
     0.5283   0.6703   0.7094   0.8524   0.8737   0.9546   0.9581   0.9867
     1.2473   1.5227   1.6645   1.8632   2.0797   2.1195

          k = 0.0836-0.0607 0.0000 ( 27120 PWs)   bands (ev):

   -63.9164 -63.8852 -63.8833 -63.8522 -63.7561 -63.7232 -37.9774 -37.9469
   -37.8031 -37.7792 -37.7773 -37.7522 -37.7374 -37.7322 -37.7050 -37.6749
   -37.6531 -37.6428 -37.6274 -37.5151 -37.4586 -37.4303 -37.2702 -37.2483
    -5.5696  -4.9651  -4.1943  -3.8961  -3.6418  -3.5197  -3.4854  -3.4771
    -3.4183  -3.3228  -3.3169  -3.2204  -3.1196  -3.0940  -3.0152  -2.9583
    -2.8571  -2.8491  -2.8458  -2.7685  -2.7248  -2.6314  -2.5862  -2.5617
    -2.4993  -2.4863  -2.4526  -2.4223  -2.3769  -2.3516  -2.2815  -2.2772
    -2.1372  -2.0986  -1.5568  -1.3243  -1.0841  -0.9488  -0.7334  -0.7010
    -0.4640  -0.2513  -0.1603  -0.1518   0.1610   0.2834   0.3113   0.3255
     0.5174   0.5406   0.7164   0.8022   0.8880   0.9284   0.9599   0.9915
     1.2052   1.5331   1.7373   1.9542   1.9753   2.0773

          k = 0.0836-0.0433 0.0000 ( 27102 PWs)   bands (ev):

   -63.9164 -63.8852 -63.8833 -63.8522 -63.7561 -63.7232 -37.9772 -37.9470
   -37.8030 -37.7785 -37.7773 -37.7528 -37.7373 -37.7320 -37.7051 -37.6748
   -37.6536 -37.6428 -37.6269 -37.5152 -37.4586 -37.4302 -37.2702 -37.2483
    -5.7872  -4.8218  -4.2738  -3.9073  -3.5895  -3.5531  -3.5525  -3.4973
    -3.4653  -3.3814  -3.3182  -3.2653  -3.1124  -3.1101  -3.0062  -2.9573
    -2.8729  -2.8543  -2.8241  -2.8151  -2.6994  -2.6480  -2.5485  -2.5322
    -2.4798  -2.4651  -2.4553  -2.4025  -2.3831  -2.3148  -2.2810  -2.2793
    -2.1258  -2.0887  -1.4031  -1.2710  -1.0669  -0.9397  -0.6601  -0.5857
    -0.4168  -0.1965  -0.1071  -0.0488   0.2067   0.2862   0.3738   0.4086
     0.4263   0.5707   0.6445   0.7506   0.9169   0.9331   0.9776   1.0415
     1.1684   1.5299   1.7848   1.8426   1.9677   2.0290

          k = 0.0836-0.0260 0.0000 ( 27110 PWs)   bands (ev):

   -63.9165 -63.8853 -63.8833 -63.8521 -63.7561 -63.7232 -37.9770 -37.9471
   -37.8029 -37.7778 -37.7774 -37.7533 -37.7373 -37.7318 -37.7052 -37.6748
   -37.6540 -37.6428 -37.6265 -37.5153 -37.4586 -37.4302 -37.2702 -37.2483
    -5.9412  -4.6561  -4.3627  -3.9542  -3.6251  -3.6242  -3.5296  -3.5062
    -3.4960  -3.4201  -3.3129  -3.2975  -3.1262  -3.1085  -3.0006  -2.9606
    -2.9207  -2.8492  -2.8488  -2.7773  -2.6796  -2.6705  -2.5305  -2.5248
    -2.4636  -2.4524  -2.4471  -2.3927  -2.3896  -2.2884  -2.2796  -2.2741
    -2.1152  -2.0803  -1.2692  -1.2051  -1.0498  -0.9896  -0.6082  -0.3599
    -0.3526  -0.1972   0.0309   0.0988   0.1590   0.2648   0.3248   0.3550
     0.5341   0.5794   0.6541   0.8026   0.9063   0.9535   0.9850   1.1022
     1.2066   1.4719   1.7028   1.8043   1.8178   2.0714

          k = 0.0836-0.0087 0.0000 ( 27124 PWs)   bands (ev):

   -63.9165 -63.8853 -63.8833 -63.8521 -63.7561 -63.7232 -37.9770 -37.9472
   -37.8029 -37.7775 -37.7774 -37.7536 -37.7373 -37.7317 -37.7052 -37.6748
   -37.6543 -37.6427 -37.6262 -37.5153 -37.4586 -37.4302 -37.2702 -37.2483
    -6.0206  -4.5156  -4.4145  -4.0374  -3.6556  -3.6511  -3.5319  -3.5293
    -3.4837  -3.4350  -3.3164  -3.3072  -3.1351  -3.1093  -2.9941  -2.9647
    -2.9627  -2.8511  -2.8454  -2.7508  -2.6870  -2.6698  -2.5306  -2.5217
    -2.4539  -2.4508  -2.4371  -2.3995  -2.3844  -2.2795  -2.2782  -2.2642
    -2.1089  -2.0757  -1.2307  -1.1420  -1.0419  -0.9824  -0.5855  -0.3239
    -0.1847  -0.1639   0.1163   0.1303   0.1941   0.2172   0.2657   0.3290
     0.5475   0.5920   0.7226   0.8680   0.8825   1.0088   1.0404   1.1362
     1.2267   1.3910   1.6278   1.7086   1.8393   1.9577

          k = 0.0836 0.0087 0.0000 ( 27124 PWs)   bands (ev):

   -63.9165 -63.8853 -63.8833 -63.8521 -63.7561 -63.7232 -37.9770 -37.9472
   -37.8029 -37.7775 -37.7774 -37.7536 -37.7373 -37.7317 -37.7052 -37.6748
   -37.6543 -37.6427 -37.6262 -37.5153 -37.4586 -37.4302 -37.2702 -37.2483
    -6.0206  -4.5156  -4.4145  -4.0374  -3.6556  -3.6511  -3.5319  -3.5293
    -3.4837  -3.4350  -3.3164  -3.3072  -3.1351  -3.1093  -2.9941  -2.9647
    -2.9627  -2.8511  -2.8454  -2.7508  -2.6870  -2.6697  -2.5306  -2.5217
    -2.4539  -2.4508  -2.4371  -2.3995  -2.3844  -2.2795  -2.2782  -2.2642
    -2.1089  -2.0757  -1.2307  -1.1420  -1.0419  -0.9824  -0.5855  -0.3239
    -0.1847  -0.1639   0.1163   0.1303   0.1941   0.2172   0.2657   0.3290
     0.5475   0.5920   0.7226   0.8680   0.8825   1.0088   1.0404   1.1362
     1.2267   1.3910   1.6278   1.7086   1.8394   1.9577

          k = 0.0836 0.0260 0.0000 ( 27110 PWs)   bands (ev):

   -63.9165 -63.8853 -63.8833 -63.8521 -63.7561 -63.7232 -37.9770 -37.9471
   -37.8029 -37.7778 -37.7774 -37.7533 -37.7373 -37.7318 -37.7052 -37.6748
   -37.6540 -37.6428 -37.6265 -37.5153 -37.4586 -37.4302 -37.2702 -37.2483
    -5.9412  -4.6561  -4.3627  -3.9542  -3.6251  -3.6242  -3.5296  -3.5062
    -3.4960  -3.4201  -3.3129  -3.2975  -3.1262  -3.1085  -3.0006  -2.9606
    -2.9207  -2.8492  -2.8488  -2.7773  -2.6795  -2.6705  -2.5305  -2.5248
    -2.4636  -2.4524  -2.4471  -2.3927  -2.3896  -2.2884  -2.2796  -2.2741
    -2.1152  -2.0803  -1.2692  -1.2051  -1.0498  -0.9896  -0.6082  -0.3599
    -0.3526  -0.1972   0.0309   0.0988   0.1590   0.2648   0.3248   0.3550
     0.5341   0.5794   0.6541   0.8026   0.9063   0.9535   0.9850   1.1022
     1.2066   1.4719   1.7028   1.8043   1.8178   2.0714

          k =-0.1004-0.0520 0.0000 ( 27106 PWs)   bands (ev):

   -63.8999 -63.8999 -63.8689 -63.8685 -63.7398 -63.7396 -37.9622 -37.9621
   -37.7901 -37.7900 -37.7656 -37.7653 -37.7194 -37.7191 -37.6404 -37.6402
   -37.6264 -37.6263 -37.5673 -37.5671 -37.5372 -37.5370 -37.2593 -37.2592
    -5.2971  -5.2969  -4.0163  -4.0161  -3.5298  -3.5297  -3.4616  -3.4616
    -3.3736  -3.3735  -3.2276  -3.2276  -3.1614  -3.1614  -3.0195  -3.0194
    -2.7998  -2.7997  -2.7411  -2.7410  -2.6539  -2.6538  -2.5997  -2.5995
    -2.5891  -2.5888  -2.4740  -2.4739  -2.4298  -2.4296  -2.2917  -2.2916
    -2.1660  -2.1659  -1.3543  -1.3542  -0.9892  -0.9892  -0.7047  -0.7047
    -0.2573  -0.2572  -0.1083  -0.1082   0.3329   0.3329   0.4270   0.4270
     0.5881   0.5882   0.7136   0.7138   0.8120   0.8121   0.9954   0.9955
     1.1637   1.1638   1.7530   1.7531   1.9993   1.9994

          k =-0.1004-0.0347 0.0000 ( 27104 PWs)   bands (ev):

   -63.8999 -63.8999 -63.8689 -63.8685 -63.7398 -63.7396 -37.9623 -37.9620
   -37.7901 -37.7899 -37.7661 -37.7648 -37.7195 -37.7191 -37.6408 -37.6398
   -37.6265 -37.6262 -37.5673 -37.5671 -37.5372 -37.5370 -37.2593 -37.2592
    -5.4599  -5.0891  -4.0620  -4.0118  -3.5808  -3.5112  -3.4880  -3.4382
    -3.4032  -3.3140  -3.2258  -3.2219  -3.1686  -3.1527  -3.0331  -3.0106
    -2.8344  -2.7745  -2.7645  -2.7174  -2.6764  -2.6377  -2.6043  -2.5988
    -2.5910  -2.5876  -2.4850  -2.4609  -2.4475  -2.4161  -2.2915  -2.2893
    -2.1763  -2.1565  -1.3990  -1.2852  -1.0434  -1.0405  -0.6999  -0.5477
    -0.2801  -0.2441  -0.1818  -0.0151   0.2417   0.3391   0.3841   0.4758
     0.5387   0.6654   0.7017   0.7055   0.8210   0.8907   0.9635   1.0524
     1.1575   1.1610   1.6302   1.8509   1.8649   2.0734

          k =-0.1004-0.0173 0.0000 ( 27133 PWs)   bands (ev):

   -63.8999 -63.8999 -63.8689 -63.8685 -63.7398 -63.7396 -37.9624 -37.9619
   -37.7902 -37.7899 -37.7667 -37.7643 -37.7197 -37.7189 -37.6412 -37.6395
   -37.6266 -37.6262 -37.5674 -37.5672 -37.5372 -37.5370 -37.2594 -37.2593
    -5.5623  -4.8719  -4.1054  -4.1015  -3.5962  -3.5174  -3.5093  -3.4222
    -3.4039  -3.2780  -3.2256  -3.1968  -3.1712  -3.1496  -3.0522  -2.9953
    -2.8783  -2.7993  -2.7330  -2.6978  -2.6969  -2.6339  -2.6077  -2.6048
    -2.5956  -2.5870  -2.4927  -2.4640  -2.4491  -2.4090  -2.2899  -2.2850
    -2.1845  -2.1502  -1.4088  -1.2228  -1.1207  -1.1183  -0.6059  -0.3357
    -0.3213  -0.2294  -0.2250   0.0320   0.1528   0.2824   0.3489   0.5096
     0.5261   0.6677   0.6820   0.7839   0.8642   0.8873   1.0826   1.1235
     1.1432   1.1565   1.4836   1.7327   1.9238   2.0285

          k =-0.1004-0.0000 0.0000 ( 27143 PWs)   bands (ev):

   -63.9000 -63.8998 -63.8689 -63.8685 -63.7398 -63.7396 -37.9625 -37.9619
   -37.7903 -37.7899 -37.7668 -37.7641 -37.7197 -37.7189 -37.6414 -37.6394
   -37.6266 -37.6261 -37.5673 -37.5672 -37.5372 -37.5370 -37.2594 -37.2593
    -5.5972  -4.7546  -4.1907  -4.1162  -3.5771  -3.5415  -3.5095  -3.4165
    -3.4016  -3.2698  -3.2266  -3.1721  -3.1712  -3.1576  -3.0623  -2.9795
    -2.9081  -2.8068  -2.7242  -2.7056  -2.6757  -2.6438  -2.6089  -2.6073
    -2.5998  -2.5868  -2.4949  -2.4713  -2.4440  -2.4072  -2.2890  -2.2828
    -2.1876  -2.1481  -1.4050  -1.1837  -1.1674  -1.1522  -0.5404  -0.3602
    -0.2555  -0.2390  -0.1377  -0.0440   0.1181   0.2742   0.3360   0.5240
     0.5255   0.6561   0.7098   0.7215   0.9144   1.0057   1.0495   1.0949
     1.1318   1.2703   1.4020   1.7556   1.7775   1.9527

          k =-0.1004 0.0173 0.0000 ( 27133 PWs)   bands (ev):

   -63.8999 -63.8999 -63.8689 -63.8685 -63.7398 -63.7396 -37.9624 -37.9619
   -37.7902 -37.7899 -37.7667 -37.7643 -37.7197 -37.7189 -37.6412 -37.6395
   -37.6266 -37.6262 -37.5674 -37.5672 -37.5372 -37.5370 -37.2594 -37.2593
    -5.5623  -4.8719  -4.1054  -4.1015  -3.5962  -3.5174  -3.5093  -3.4222
    -3.4039  -3.2780  -3.2256  -3.1968  -3.1712  -3.1496  -3.0522  -2.9953
    -2.8783  -2.7993  -2.7330  -2.6978  -2.6969  -2.6339  -2.6077  -2.6048
    -2.5956  -2.5870  -2.4927  -2.4640  -2.4491  -2.4090  -2.2899  -2.2850
    -2.1845  -2.1502  -1.4088  -1.2229  -1.1207  -1.1183  -0.6059  -0.3357
    -0.3213  -0.2294  -0.2250   0.0321   0.1528   0.2824   0.3489   0.5096
     0.5261   0.6677   0.6820   0.7839   0.8642   0.8873   1.0826   1.1235
     1.1432   1.1565   1.4836   1.7327   1.9238   2.0289

          k =-0.1004 0.0347 0.0000 ( 27104 PWs)   bands (ev):

   -63.8999 -63.8999 -63.8689 -63.8685 -63.7398 -63.7396 -37.9623 -37.9620
   -37.7901 -37.7899 -37.7661 -37.7648 -37.7195 -37.7191 -37.6408 -37.6398
   -37.6265 -37.6262 -37.5673 -37.5671 -37.5372 -37.5370 -37.2593 -37.2592
    -5.4599  -5.0891  -4.0620  -4.0118  -3.5808  -3.5112  -3.4880  -3.4382
    -3.4032  -3.3140  -3.2258  -3.2219  -3.1686  -3.1527  -3.0331  -3.0106
    -2.8344  -2.7745  -2.7645  -2.7174  -2.6764  -2.6377  -2.6043  -2.5988
    -2.5910  -2.5876  -2.4850  -2.4609  -2.4476  -2.4161  -2.2915  -2.2893
    -2.1763  -2.1565  -1.3990  -1.2852  -1.0434  -1.0405  -0.6999  -0.5477
    -0.2801  -0.2441  -0.1818  -0.0151   0.2417   0.3391   0.3841   0.4758
     0.5387   0.6654   0.7017   0.7055   0.8210   0.8907   0.9635   1.0524
     1.1575   1.1610   1.6302   1.8509   1.8647   2.0734

          k =-0.1004-0.1560 0.0000 ( 27106 PWs)   bands (ev):

   -63.8999 -63.8999 -63.8689 -63.8685 -63.7398 -63.7396 -37.9622 -37.9621
   -37.7901 -37.7900 -37.7656 -37.7653 -37.7194 -37.7191 -37.6404 -37.6402
   -37.6264 -37.6263 -37.5673 -37.5671 -37.5372 -37.5370 -37.2593 -37.2592
    -5.2971  -5.2969  -4.0163  -4.0161  -3.5298  -3.5297  -3.4616  -3.4616
    -3.3736  -3.3735  -3.2276  -3.2276  -3.1614  -3.1614  -3.0195  -3.0195
    -2.7998  -2.7997  -2.7411  -2.7410  -2.6540  -2.6538  -2.5997  -2.5995
    -2.5891  -2.5888  -2.4739  -2.4739  -2.4298  -2.4296  -2.2917  -2.2916
    -2.1660  -2.1659  -1.3543  -1.3542  -0.9892  -0.9892  -0.7047  -0.7047
    -0.2573  -0.2572  -0.1083  -0.1082   0.3329   0.3329   0.4270   0.4270
     0.5880   0.5882   0.7136   0.7138   0.8120   0.8121   0.9954   0.9955
     1.1637   1.1638   1.7530   1.7531   1.9994   1.9994

     the Fermi energy is     0.3893 ev

!    total energy              =   -1621.41820891 Ry
     estimated scf accuracy    <       0.00000957 Ry
     smearing contrib. (-TS)   =      -0.06748760 Ry
     internal energy E=F+TS    =   -1621.35072131 Ry

     The total energy is F=E-TS. E is the sum of the following terms:
     one-electron contribution =  -13512.67003894 Ry
     hartree contribution      =    6820.81567654 Ry
     xc contribution           =    -402.00368138 Ry
     ewald contribution        =    5472.50732215 Ry
     electric field correction =       0.00000031 Ry

     convergence has been achieved in  21 iterations

     negative rho (up, down):  1.635E-03 0.000E+00

     Forces acting on atoms (cartesian axes, Ry/au):

     atom    1 type  1   force =     0.00000025    0.00400057    0.02041764
     atom    2 type  1   force =    -0.00000290    0.00398251    0.02037496
     atom    3 type  2   force =     0.00002365   -0.00707005   -0.01068063
     atom    4 type  2   force =    -0.00002500   -0.00706795   -0.01069913
     atom    5 type  1   force =    -0.00000271   -0.00349204   -0.00593854
     atom    6 type  1   force =     0.00000070   -0.00355060   -0.00602606
     atom    7 type  2   force =     0.00012731    0.00807575   -0.00509807
     atom    8 type  2   force =    -0.00012793    0.00807615   -0.00509622
     atom    9 type  1   force =    -0.00001128   -0.00076549   -0.00218349
     atom   10 type  1   force =    -0.00001040   -0.00077334   -0.00218383
     atom   11 type  2   force =    -0.00007618   -0.00070245    0.00354879
     atom   12 type  2   force =     0.00010450   -0.00071305    0.00356458

     Total force =     0.038836     Total SCF correction =     0.014869
     SCF correction compared to forces is large: reduce conv_thr to get better values

     Writing output data file ./V2Cu2/V2Cu2_beef.save/

     init_run     :     61.18s CPU     61.62s WALL (       1 calls)
     electrons    :   2786.43s CPU   3008.38s WALL (       1 calls)
     forces       :     33.02s CPU     33.28s WALL (       1 calls)

     Called by init_run:
     wfcinit      :     47.32s CPU     47.63s WALL (       1 calls)
     potinit      :      8.20s CPU      8.26s WALL (       1 calls)
     hinit0       :      3.83s CPU      3.83s WALL (       1 calls)

     Called by electrons:
     c_bands      :   2424.40s CPU   2504.79s WALL (      21 calls)
     sum_band     :    316.36s CPU    447.39s WALL (      21 calls)
     v_of_rho     :     34.59s CPU     40.63s WALL (      22 calls)
     newd         :     14.78s CPU     16.87s WALL (      22 calls)
     mix_rho      :      3.13s CPU      5.32s WALL (      21 calls)
     vdW_kernel   :      5.69s CPU      5.70s WALL (       1 calls)

     Called by c_bands:
     init_us_2    :     10.32s CPU     10.44s WALL (    3256 calls)
     cegterg      :   2395.77s CPU   2472.66s WALL (    1554 calls)

     Called by *egterg:
     cdiaghg      :    139.42s CPU    139.82s WALL (    7390 calls)
     h_psi        :   1457.24s CPU   1525.72s WALL (    7464 calls)
     s_psi        :    289.29s CPU    290.13s WALL (    7464 calls)
     g_psi        :      0.98s CPU      0.99s WALL (    5836 calls)

     Called by h_psi:
     h_psi:calbec :    347.14s CPU    351.14s WALL (    7464 calls)
     vloc_psi     :    782.34s CPU    846.07s WALL (    7464 calls)
     add_vuspsi   :    324.30s CPU    325.03s WALL (    7464 calls)

     General routines
     calbec       :    517.48s CPU    533.22s WALL (    9314 calls)
     fft          :     24.96s CPU     30.87s WALL (    1445 calls)
     ffts         :      0.39s CPU      0.64s WALL (      43 calls)
     fftw         :    903.01s CPU   1082.78s WALL (  750614 calls)
     interpolate  :      0.65s CPU      0.79s WALL (      22 calls)

     Parallel routines
     fft_scatt_xy :     39.41s CPU     39.93s WALL (  752102 calls)
     fft_scatt_yz :    526.51s CPU    706.16s WALL (  752102 calls)

     PWSCF        :  54m 2.22s CPU  57m56.15s WALL


   This run was terminated on:   8:47:37  25Jun2022            

=------------------------------------------------------------------------------=
   JOB DONE.
=------------------------------------------------------------------------------=
