
     Program PWSCF v.6.6 starts on 25Jun2022 at  8:47:40 

     This program is part of the open-source Quantum ESPRESSO suite
     for quantum simulation of materials; please cite
         "P. Giannozzi et al., J. Phys.:Condens. Matter 21 395502 (2009);
         "P. Giannozzi et al., J. Phys.:Condens. Matter 29 465901 (2017);
          URL http://www.quantum-espresso.org", 
     in publications or presentations arising from this work. More details at
     http://www.quantum-espresso.org/quote

     Parallel version (MPI), running on    37 processors

     MPI processes distributed on     1 nodes
     R & G space division:  proc/nbgrp/npool/nimage =      37
     Fft bands division:     nmany     =       1
     Reading input from V2Hg2.in
Warning: card &CELL ignored
Warning: card / ignored

     Current dimensions of program PWSCF are:
     Max number of different atomic species (ntypx) = 10
     Max number of k-points (npk) =  40000
     Max angular momentum in pseudopotentials (lmaxx) =  3
     Presently stress not available with electric field and gates

     Message from routine cell_base_init:
     DEPRECATED: use true lattice parameter, not A to a.u. conversion factor
     file V.pbe-spnl-rrkjus_psl.1.0.0.UPF: wavefunction(s)  3P 3D renormalized
     file Hg.pbe-n-rrkjus_psl.1.0.0.UPF: wavefunction(s)  6S renormalized

     **************************************************************************
     Initializing libbeef V0.1.2 with the BEEF-vdW functional.
     Citation: Wellendorff et al., PRB 85, 235149 (2012).
     **************************************************************************


     IMPORTANT: XC functional enforced from input :
     Exchange-correlation= BEEF-VDW
                           (   1   4  43  14   2   0   0)
     Any further DFT definition will be discarded
     Please, verify this is what you really want


     Subspace diagonalization in iterative solution of the eigenvalue problem:
     a serial algorithm will be used


     Parallelization info
     --------------------
     sticks:   dense  smooth     PW     G-vecs:    dense   smooth      PW
     Min         124      49     14                29030     7338    1136
     Max         125      50     16                29047     7346    1146
     Sum        4619    1837    529              1074455   271649   42235



     bravais-lattice index     =            0
     lattice parameter (alat)  =       1.8897  a.u.
     unit-cell volume          =    4917.0681 (a.u.)^3
     number of atoms/cell      =           12
     number of atomic types    =            2
     number of electrons       =       150.00
     number of Kohn-Sham states=           90
     kinetic-energy cutoff     =      55.1240  Ry
     charge density cutoff     =     551.2396  Ry
     convergence threshold     =      1.0E-05
     mixing beta               =       0.1000
     number of iterations used =           10  plain     mixing
     Exchange-correlation= BEEF-VDW
                           (   1   4  43  14   2   0   0)

     celldm(1)=   1.889726  celldm(2)=   0.000000  celldm(3)=   0.000000
     celldm(4)=   0.000000  celldm(5)=   0.000000  celldm(6)=   0.000000

     crystal axes: (cart. coord. in units of alat)
               a(1) = (   5.817500   0.000000   0.000000 )  
               a(2) = (  -2.908750   5.058600   0.000000 )  
               a(3) = (   0.000000   0.000000  24.759563 )  

     reciprocal axes: (cart. coord. in units 2 pi/alat)
               b(1) = (  0.171895  0.098842 -0.000000 )  
               b(2) = (  0.000000  0.197683  0.000000 )  
               b(3) = (  0.000000 -0.000000  0.040388 )  


     PseudoPot. # 1 for V  read from file:
     ../pseudo/V.pbe-spnl-rrkjus_psl.1.0.0.UPF
     MD5 check sum: 79b3eb63147daf0b665d9f1bcc691206
     Pseudo is Ultrasoft + core correction, Zval = 13.0
     Generated using "atomic" code by A. Dal Corso v.6.2.2
     Using radial grid of 1181 points,  6 beta functions with: 
                l(1) =   0
                l(2) =   0
                l(3) =   1
                l(4) =   1
                l(5) =   2
                l(6) =   2
     Q(r) pseudized with 0 coefficients 


     PseudoPot. # 2 for Hg read from file:
     ../pseudo/Hg.pbe-n-rrkjus_psl.1.0.0.UPF
     MD5 check sum: 7519ac2e5b9cac440d3cfd4127d6ea3c
     Pseudo is Ultrasoft + core correction, Zval = 12.0
     Generated using "atomic" code by A. Dal Corso v.6.3
     Using radial grid of 1279 points,  6 beta functions with: 
                l(1) =   0
                l(2) =   0
                l(3) =   1
                l(4) =   1
                l(5) =   2
                l(6) =   2
     Q(r) pseudized with 0 coefficients 


     atomic species   valence    mass     pseudopotential
        V             13.00    50.94150     V ( 1.00)
        Hg            12.00   200.59200     Hg( 1.00)

     No symmetry found



   Cartesian axes

     site n.     atom                  positions (alat units)
         1           V   tau(   1) = (   0.0000000   0.0000000  10.0000000  )
         2           V   tau(   2) = (   2.9087499   0.0000000  10.0000000  )
         3           Hg  tau(   3) = (   1.4543749   2.5293001  10.0000000  )
         4           Hg  tau(   4) = (  -1.4543749   2.5293001  10.0000000  )
         5           V   tau(   5) = (   2.9087499   1.6725627  12.3797815  )
         6           V   tau(   6) = (  -0.0000000   1.6725627  12.3797815  )
         7           Hg  tau(   7) = (  -1.4543749   4.2018628  12.3797815  )
         8           Hg  tau(   8) = (   1.4543749   4.2018628  12.3797815  )
         9           V   tau(   9) = (   0.0000116   2.2195034  14.1284308  )
        10           V   tau(  10) = (   2.9087609   2.2195613  14.1283886  )
        11           Hg  tau(  11) = (   1.4546255   4.9516979  15.3689109  )
        12           Hg  tau(  12) = (  -1.4546217   4.9516931  15.3689172  )

     number of k points=    74  Fermi-Dirac smearing, width (Ry)=  0.0100
                       cart. coord. in units 2pi/alat
        k(    1) = (   0.0000000   0.0000000   0.0000000), wk =   0.0138889
        k(    2) = (   0.0000000   0.0164736   0.0000000), wk =   0.0277778
        k(    3) = (   0.0000000   0.0329472   0.0000000), wk =   0.0277778
        k(    4) = (   0.0000000   0.0494208   0.0000000), wk =   0.0277778
        k(    5) = (   0.0000000   0.0658944   0.0000000), wk =   0.0277778
        k(    6) = (   0.0000000   0.0823680   0.0000000), wk =   0.0277778
        k(    7) = (   0.0000000  -0.0988416   0.0000000), wk =   0.0138889
        k(    8) = (   0.0143246   0.0082368   0.0000000), wk =   0.0277778
        k(    9) = (   0.0143246   0.0247104   0.0000000), wk =   0.0277778
        k(   10) = (   0.0143246   0.0411840   0.0000000), wk =   0.0277778
        k(   11) = (   0.0143246   0.0576576   0.0000000), wk =   0.0277778
        k(   12) = (   0.0143246   0.0741312   0.0000000), wk =   0.0277778
        k(   13) = (   0.0143246   0.0906048   0.0000000), wk =   0.0277778
        k(   14) = (   0.0143246  -0.0906048   0.0000000), wk =   0.0277778
        k(   15) = (   0.0143246  -0.0741312   0.0000000), wk =   0.0277778
        k(   16) = (   0.0143246  -0.0576576   0.0000000), wk =   0.0277778
        k(   17) = (   0.0143246  -0.0411840   0.0000000), wk =   0.0277778
        k(   18) = (   0.0143246  -0.0247104   0.0000000), wk =   0.0277778
        k(   19) = (   0.0143246  -0.0082368   0.0000000), wk =   0.0277778
        k(   20) = (   0.0286492   0.0164736   0.0000000), wk =   0.0277778
        k(   21) = (   0.0286492   0.0329472   0.0000000), wk =   0.0277778
        k(   22) = (   0.0286492   0.0494208   0.0000000), wk =   0.0277778
        k(   23) = (   0.0286492   0.0658944   0.0000000), wk =   0.0277778
        k(   24) = (   0.0286492   0.0823680   0.0000000), wk =   0.0277778
        k(   25) = (   0.0286492   0.0988416   0.0000000), wk =   0.0277778
        k(   26) = (   0.0286492  -0.0823680   0.0000000), wk =   0.0277778
        k(   27) = (   0.0286492  -0.0658944   0.0000000), wk =   0.0277778
        k(   28) = (   0.0286492  -0.0494208   0.0000000), wk =   0.0277778
        k(   29) = (   0.0286492  -0.0329472   0.0000000), wk =   0.0277778
        k(   30) = (   0.0286492  -0.0164736   0.0000000), wk =   0.0277778
        k(   31) = (   0.0286492  -0.0000000   0.0000000), wk =   0.0277778
        k(   32) = (   0.0429738   0.0247104   0.0000000), wk =   0.0277778
        k(   33) = (   0.0429738   0.0411840   0.0000000), wk =   0.0277778
        k(   34) = (   0.0429738   0.0576576   0.0000000), wk =   0.0277778
        k(   35) = (   0.0429738   0.0741312   0.0000000), wk =   0.0277778
        k(   36) = (   0.0429738   0.0906048   0.0000000), wk =   0.0277778
        k(   37) = (   0.0429738   0.1070784   0.0000000), wk =   0.0277778
        k(   38) = (   0.0429738  -0.0741312   0.0000000), wk =   0.0277778
        k(   39) = (   0.0429738  -0.0576576   0.0000000), wk =   0.0277778
        k(   40) = (   0.0429738  -0.0411840   0.0000000), wk =   0.0277778
        k(   41) = (   0.0429738  -0.0247104   0.0000000), wk =   0.0277778
        k(   42) = (   0.0429738  -0.0082368   0.0000000), wk =   0.0277778
        k(   43) = (   0.0429738   0.0082368   0.0000000), wk =   0.0277778
        k(   44) = (   0.0572984   0.0329472   0.0000000), wk =   0.0277778
        k(   45) = (   0.0572984   0.0494208   0.0000000), wk =   0.0277778
        k(   46) = (   0.0572984   0.0658944   0.0000000), wk =   0.0277778
        k(   47) = (   0.0572984   0.0823680   0.0000000), wk =   0.0277778
        k(   48) = (   0.0572984   0.0988416   0.0000000), wk =   0.0277778
        k(   49) = (   0.0572984   0.1153152   0.0000000), wk =   0.0277778
        k(   50) = (   0.0572984  -0.0658944   0.0000000), wk =   0.0277778
        k(   51) = (   0.0572984  -0.0494208   0.0000000), wk =   0.0277778
        k(   52) = (   0.0572984  -0.0329472   0.0000000), wk =   0.0277778
        k(   53) = (   0.0572984  -0.0164736   0.0000000), wk =   0.0277778
        k(   54) = (   0.0572984   0.0000000   0.0000000), wk =   0.0277778
        k(   55) = (   0.0572984   0.0164736   0.0000000), wk =   0.0277778
        k(   56) = (   0.0716230   0.0411840   0.0000000), wk =   0.0277778
        k(   57) = (   0.0716230   0.0576576   0.0000000), wk =   0.0277778
        k(   58) = (   0.0716230   0.0741312   0.0000000), wk =   0.0277778
        k(   59) = (   0.0716230   0.0906048   0.0000000), wk =   0.0277778
        k(   60) = (   0.0716230   0.1070784   0.0000000), wk =   0.0277778
        k(   61) = (   0.0716230   0.1235520   0.0000000), wk =   0.0277778
        k(   62) = (   0.0716230  -0.0576576   0.0000000), wk =   0.0277778
        k(   63) = (   0.0716230  -0.0411840   0.0000000), wk =   0.0277778
        k(   64) = (   0.0716230  -0.0247104   0.0000000), wk =   0.0277778
        k(   65) = (   0.0716230  -0.0082368   0.0000000), wk =   0.0277778
        k(   66) = (   0.0716230   0.0082368   0.0000000), wk =   0.0277778
        k(   67) = (   0.0716230   0.0247104   0.0000000), wk =   0.0277778
        k(   68) = (  -0.0859476  -0.0494208   0.0000000), wk =   0.0138889
        k(   69) = (  -0.0859476  -0.0329472   0.0000000), wk =   0.0277778
        k(   70) = (  -0.0859476  -0.0164736   0.0000000), wk =   0.0277778
        k(   71) = (  -0.0859476   0.0000000   0.0000000), wk =   0.0277778
        k(   72) = (  -0.0859476   0.0164736   0.0000000), wk =   0.0277778
        k(   73) = (  -0.0859476   0.0329472   0.0000000), wk =   0.0277778
        k(   74) = (  -0.0859476  -0.1482624   0.0000000), wk =   0.0138889

     Dense  grid:  1074455 G-vectors     FFT dimensions: (  90,  90, 360)

     Smooth grid:   271649 G-vectors     FFT dimensions: (  54,  54, 225)

     Estimated max dynamical RAM per process >     211.23 MB

     Estimated total dynamical RAM >       7.63 GB

     Initial potential from superposition of free atoms

     starting charge  149.99405, renormalised to  150.00000

     negative rho (up, down):  1.627E-03 0.000E+00


     %%%%%%%%%%%%%%%%%%%%%%%%%%%%%%%%%%%%%%%%%%%%%%%%%%%%%%%%%%%%%%%%%%%%%%%%
     %                                                                      %
     % You are using vdW-DF, which was implemented by the Thonhauser group. %
     % Please cite the following two papers that made this development      %
     % possible and the two reviews that describe the various versions:     %
     %                                                                      %
     %   T. Thonhauser et al., PRL 115, 136402 (2015).                      %
     %   T. Thonhauser et al., PRB 76, 125112 (2007).                       %
     %   K. Berland et al., Rep. Prog. Phys. 78, 066501 (2015).             %
     %   D.C. Langreth et al., J. Phys.: Condens. Matter 21, 084203 (2009). %
     %                                                                      %
     %                                                                      %
     % If you are calculating the stress with vdW-DF, please also cite:     %
     %                                                                      %
     %   R. Sabatini et al., J. Phys.: Condens. Matter 24, 424209 (2012).   %
     %                                                                      %
     %%%%%%%%%%%%%%%%%%%%%%%%%%%%%%%%%%%%%%%%%%%%%%%%%%%%%%%%%%%%%%%%%%%%%%%%



     Adding external electric field

     Computed dipole along edir(3) : 
        Dipole               -0.0018 Ry au,         -0.0047 Debye
        Dipole field         -0.0000 Ry au, 

        Potential amp.        0.0004 Ry
        Total length         45.6191 bohr

     Starting wfcs are  114 randomized atomic wfcs

     total cpu time spent up to now is       81.4 secs

     Self-consistent Calculation

     iteration #  1     ecut=    55.12 Ry     beta= 0.10
     Davidson diagonalization with overlap
     ethr =  1.00E-02,  avg # of iterations =  2.0

     negative rho (up, down):  1.534E-03 0.000E+00

     Adding external electric field

     Computed dipole along edir(3) : 
        Dipole               -2.4140 Ry au,         -6.1357 Debye
        Dipole field         -0.0062 Ry au, 

        Potential amp.        0.5629 Ry
        Total length         45.6191 bohr


     total cpu time spent up to now is      318.2 secs

     total energy              =   -1480.05740373 Ry
     estimated scf accuracy    <      27.59904992 Ry

     iteration #  2     ecut=    55.12 Ry     beta= 0.10
     Davidson diagonalization with overlap
     ethr =  1.00E-02,  avg # of iterations =  6.6

     negative rho (up, down):  2.942E-03 0.000E+00

     Adding external electric field

     Computed dipole along edir(3) : 
        Dipole                0.5594 Ry au,          1.4219 Debye
        Dipole field          0.0014 Ry au, 

        Potential amp.       -0.1304 Ry
        Total length         45.6191 bohr


     total cpu time spent up to now is      515.9 secs

     total energy              =   -1480.45915284 Ry
     estimated scf accuracy    <     217.58972737 Ry

     iteration #  3     ecut=    55.12 Ry     beta= 0.10
     Davidson diagonalization with overlap
     ethr =  1.00E-02,  avg # of iterations =  2.0

     negative rho (up, down):  2.857E-03 0.000E+00

     Adding external electric field

     Computed dipole along edir(3) : 
        Dipole                0.4715 Ry au,          1.1983 Debye
        Dipole field          0.0012 Ry au, 

        Potential amp.       -0.1099 Ry
        Total length         45.6191 bohr


     total cpu time spent up to now is      965.9 secs

     total energy              =   -1483.58960956 Ry
     estimated scf accuracy    <       1.53894347 Ry

     iteration #  4     ecut=    55.12 Ry     beta= 0.10
     Davidson diagonalization with overlap
     ethr =  1.03E-03,  avg # of iterations =  9.3

     negative rho (up, down):  2.310E-03 0.000E+00

     Adding external electric field

     Computed dipole along edir(3) : 
        Dipole               -0.0535 Ry au,         -0.1360 Debye
        Dipole field         -0.0001 Ry au, 

        Potential amp.        0.0125 Ry
        Total length         45.6191 bohr


     total cpu time spent up to now is     1181.4 secs

     total energy              =   -1483.67483174 Ry
     estimated scf accuracy    <       2.39630961 Ry

     iteration #  5     ecut=    55.12 Ry     beta= 0.10
     Davidson diagonalization with overlap
     ethr =  1.03E-03,  avg # of iterations =  1.4

     negative rho (up, down):  4.582E-03 0.000E+00

     Adding external electric field

     Computed dipole along edir(3) : 
        Dipole               -0.0274 Ry au,         -0.0696 Debye
        Dipole field         -0.0001 Ry au, 

        Potential amp.        0.0064 Ry
        Total length         45.6191 bohr


     total cpu time spent up to now is     1324.0 secs

     total energy              =   -1483.83803889 Ry
     estimated scf accuracy    <       4.59807857 Ry

     iteration #  6     ecut=    55.12 Ry     beta= 0.10
     Davidson diagonalization with overlap
     ethr =  1.03E-03,  avg # of iterations =  1.0

     negative rho (up, down):  4.738E-03 0.000E+00

     Adding external electric field

     Computed dipole along edir(3) : 
        Dipole               -0.0022 Ry au,         -0.0056 Debye
        Dipole field         -0.0000 Ry au, 

        Potential amp.        0.0005 Ry
        Total length         45.6191 bohr


     total cpu time spent up to now is     1459.2 secs

     total energy              =   -1483.78476349 Ry
     estimated scf accuracy    <       3.56565885 Ry

     iteration #  7     ecut=    55.12 Ry     beta= 0.10
     Davidson diagonalization with overlap
     ethr =  1.03E-03,  avg # of iterations =  1.0

     negative rho (up, down):  9.849E-03 0.000E+00

     Adding external electric field

     Computed dipole along edir(3) : 
        Dipole               -0.0464 Ry au,         -0.1178 Debye
        Dipole field         -0.0001 Ry au, 

        Potential amp.        0.0108 Ry
        Total length         45.6191 bohr


     total cpu time spent up to now is     1806.4 secs

     total energy              =   -1483.76714364 Ry
     estimated scf accuracy    <       2.52254876 Ry

     iteration #  8     ecut=    55.12 Ry     beta= 0.10
     Davidson diagonalization with overlap
     ethr =  1.03E-03,  avg # of iterations =  1.0

     negative rho (up, down):  2.703E-02 0.000E+00

     Adding external electric field

     Computed dipole along edir(3) : 
        Dipole               -0.1268 Ry au,         -0.3223 Debye
        Dipole field         -0.0003 Ry au, 

        Potential amp.        0.0296 Ry
        Total length         45.6191 bohr


     total cpu time spent up to now is     2009.2 secs

     total energy              =   -1483.72886388 Ry
     estimated scf accuracy    <       2.59864200 Ry

     iteration #  9     ecut=    55.12 Ry     beta= 0.10
     Davidson diagonalization with overlap
     ethr =  1.03E-03,  avg # of iterations =  1.0

     negative rho (up, down):  2.937E-02 0.000E+00

     Adding external electric field

     Computed dipole along edir(3) : 
        Dipole               -0.0486 Ry au,         -0.1236 Debye
        Dipole field         -0.0001 Ry au, 

        Potential amp.        0.0113 Ry
        Total length         45.6191 bohr


     total cpu time spent up to now is     2412.8 secs

     total energy              =   -1483.72881388 Ry
     estimated scf accuracy    <       1.03100024 Ry

     iteration # 10     ecut=    55.12 Ry     beta= 0.10
     Davidson diagonalization with overlap
     ethr =  6.87E-04,  avg # of iterations =  1.0

     negative rho (up, down):  3.595E-02 0.000E+00

     Adding external electric field

     Computed dipole along edir(3) : 
        Dipole                0.0211 Ry au,          0.0535 Debye
        Dipole field          0.0001 Ry au, 

        Potential amp.       -0.0049 Ry
        Total length         45.6191 bohr


     total cpu time spent up to now is     2843.7 secs

     total energy              =   -1483.72538063 Ry
     estimated scf accuracy    <       0.23534635 Ry

     iteration # 11     ecut=    55.12 Ry     beta= 0.10
     Davidson diagonalization with overlap
     ethr =  1.57E-04,  avg # of iterations =  1.6

     negative rho (up, down):  3.677E-02 0.000E+00

     Adding external electric field

     Computed dipole along edir(3) : 
        Dipole                0.0467 Ry au,          0.1188 Debye
        Dipole field          0.0001 Ry au, 

        Potential amp.       -0.0109 Ry
        Total length         45.6191 bohr


     total cpu time spent up to now is     2984.4 secs

     total energy              =   -1483.73376516 Ry
     estimated scf accuracy    <       0.03807108 Ry

     iteration # 12     ecut=    55.12 Ry     beta= 0.10
     Davidson diagonalization with overlap
     c_bands:  2 eigenvalues not converged
     c_bands:  1 eigenvalues not converged
     c_bands:  1 eigenvalues not converged
     c_bands:  1 eigenvalues not converged
     c_bands:  1 eigenvalues not converged
     c_bands:  1 eigenvalues not converged
     c_bands:  1 eigenvalues not converged
     c_bands:  1 eigenvalues not converged
     c_bands:  1 eigenvalues not converged
     c_bands:  1 eigenvalues not converged
     c_bands:  1 eigenvalues not converged
     c_bands:  1 eigenvalues not converged
     c_bands:  1 eigenvalues not converged
     c_bands:  1 eigenvalues not converged
     c_bands:  2 eigenvalues not converged
     c_bands:  1 eigenvalues not converged
     c_bands:  1 eigenvalues not converged
     c_bands:  1 eigenvalues not converged
     c_bands:  1 eigenvalues not converged
     ethr =  2.54E-05,  avg # of iterations = 14.2

     negative rho (up, down):  2.997E-02 0.000E+00

     Adding external electric field

     Computed dipole along edir(3) : 
        Dipole                0.0213 Ry au,          0.0542 Debye
        Dipole field          0.0001 Ry au, 

        Potential amp.       -0.0050 Ry
        Total length         45.6191 bohr


     total cpu time spent up to now is     3246.8 secs

     total energy              =   -1483.73950158 Ry
     estimated scf accuracy    <       0.15467804 Ry

     iteration # 13     ecut=    55.12 Ry     beta= 0.10
     Davidson diagonalization with overlap
     ethr =  2.54E-05,  avg # of iterations =  1.5

     negative rho (up, down):  2.900E-02 0.000E+00

     Adding external electric field

     Computed dipole along edir(3) : 
        Dipole                0.0343 Ry au,          0.0871 Debye
        Dipole field          0.0001 Ry au, 

        Potential amp.       -0.0080 Ry
        Total length         45.6191 bohr


     total cpu time spent up to now is     3387.4 secs

     total energy              =   -1483.74086615 Ry
     estimated scf accuracy    <       0.03209123 Ry

     iteration # 14     ecut=    55.12 Ry     beta= 0.10
     Davidson diagonalization with overlap
     ethr =  2.14E-05,  avg # of iterations =  1.0

     negative rho (up, down):  3.069E-02 0.000E+00

     Adding external electric field

     Computed dipole along edir(3) : 
        Dipole                0.0057 Ry au,          0.0145 Debye
        Dipole field          0.0000 Ry au, 

        Potential amp.       -0.0013 Ry
        Total length         45.6191 bohr


     total cpu time spent up to now is     3522.6 secs

     total energy              =   -1483.73997613 Ry
     estimated scf accuracy    <       0.02088076 Ry

     iteration # 15     ecut=    55.12 Ry     beta= 0.10
     Davidson diagonalization with overlap
     ethr =  1.39E-05,  avg # of iterations =  1.4

     negative rho (up, down):  2.802E-02 0.000E+00

     Adding external electric field

     Computed dipole along edir(3) : 
        Dipole                0.0045 Ry au,          0.0114 Debye
        Dipole field          0.0000 Ry au, 

        Potential amp.       -0.0010 Ry
        Total length         45.6191 bohr


     total cpu time spent up to now is     3664.7 secs

     total energy              =   -1483.74131181 Ry
     estimated scf accuracy    <       0.00426043 Ry

     iteration # 16     ecut=    55.12 Ry     beta= 0.10
     Davidson diagonalization with overlap
     c_bands:  1 eigenvalues not converged
     c_bands:  1 eigenvalues not converged
     ethr =  2.84E-06,  avg # of iterations = 10.5

     negative rho (up, down):  2.575E-02 0.000E+00

     Adding external electric field

     Computed dipole along edir(3) : 
        Dipole               -0.0008 Ry au,         -0.0019 Debye
        Dipole field         -0.0000 Ry au, 

        Potential amp.        0.0002 Ry
        Total length         45.6191 bohr


     total cpu time spent up to now is     3871.2 secs

     total energy              =   -1483.74243510 Ry
     estimated scf accuracy    <       0.00142037 Ry

     iteration # 17     ecut=    55.12 Ry     beta= 0.10
     Davidson diagonalization with overlap
     c_bands:  1 eigenvalues not converged
     ethr =  9.47E-07,  avg # of iterations =  5.6

     negative rho (up, down):  2.332E-02 0.000E+00

     Adding external electric field

     Computed dipole along edir(3) : 
        Dipole                0.0030 Ry au,          0.0076 Debye
        Dipole field          0.0000 Ry au, 

        Potential amp.       -0.0007 Ry
        Total length         45.6191 bohr


     total cpu time spent up to now is     4053.9 secs

     total energy              =   -1483.74324208 Ry
     estimated scf accuracy    <       0.00499445 Ry

     iteration # 18     ecut=    55.12 Ry     beta= 0.10
     Davidson diagonalization with overlap
     ethr =  9.47E-07,  avg # of iterations =  2.0

     negative rho (up, down):  2.140E-02 0.000E+00

     Adding external electric field

     Computed dipole along edir(3) : 
        Dipole                0.0025 Ry au,          0.0063 Debye
        Dipole field          0.0000 Ry au, 

        Potential amp.       -0.0006 Ry
        Total length         45.6191 bohr


     total cpu time spent up to now is     4208.7 secs

     total energy              =   -1483.74396548 Ry
     estimated scf accuracy    <       0.00062997 Ry

     iteration # 19     ecut=    55.12 Ry     beta= 0.10
     Davidson diagonalization with overlap
     ethr =  4.20E-07,  avg # of iterations =  3.3

     negative rho (up, down):  2.100E-02 0.000E+00

     Adding external electric field

     Computed dipole along edir(3) : 
        Dipole                0.0035 Ry au,          0.0090 Debye
        Dipole field          0.0000 Ry au, 

        Potential amp.       -0.0008 Ry
        Total length         45.6191 bohr


     total cpu time spent up to now is     4371.7 secs

     total energy              =   -1483.74416742 Ry
     estimated scf accuracy    <       0.00022835 Ry

     iteration # 20     ecut=    55.12 Ry     beta= 0.10
     Davidson diagonalization with overlap
     ethr =  1.52E-07,  avg # of iterations =  6.0

     negative rho (up, down):  1.899E-02 0.000E+00

     Adding external electric field

     Computed dipole along edir(3) : 
        Dipole                0.0039 Ry au,          0.0098 Debye
        Dipole field          0.0000 Ry au, 

        Potential amp.       -0.0009 Ry
        Total length         45.6191 bohr


     total cpu time spent up to now is     4831.3 secs

     total energy              =   -1483.74484733 Ry
     estimated scf accuracy    <       0.00006456 Ry

     iteration # 21     ecut=    55.12 Ry     beta= 0.10
     Davidson diagonalization with overlap
     ethr =  4.30E-08,  avg # of iterations =  5.1

     negative rho (up, down):  1.727E-02 0.000E+00

     Adding external electric field

     Computed dipole along edir(3) : 
        Dipole                0.0041 Ry au,          0.0104 Debye
        Dipole field          0.0000 Ry au, 

        Potential amp.       -0.0010 Ry
        Total length         45.6191 bohr


     total cpu time spent up to now is     5039.9 secs

     total energy              =   -1483.74539039 Ry
     estimated scf accuracy    <       0.00007054 Ry

     iteration # 22     ecut=    55.12 Ry     beta= 0.10
     Davidson diagonalization with overlap
     ethr =  4.30E-08,  avg # of iterations =  2.3

     negative rho (up, down):  1.580E-02 0.000E+00

     Adding external electric field

     Computed dipole along edir(3) : 
        Dipole                0.0045 Ry au,          0.0115 Debye
        Dipole field          0.0000 Ry au, 

        Potential amp.       -0.0011 Ry
        Total length         45.6191 bohr


     total cpu time spent up to now is     5202.4 secs

     total energy              =   -1483.74583494 Ry
     estimated scf accuracy    <       0.00002667 Ry

     iteration # 23     ecut=    55.12 Ry     beta= 0.10
     Davidson diagonalization with overlap
     ethr =  1.78E-08,  avg # of iterations =  5.1

     negative rho (up, down):  2.442E-03 0.000E+00

     Adding external electric field

     Computed dipole along edir(3) : 
        Dipole               -0.0059 Ry au,         -0.0150 Debye
        Dipole field         -0.0000 Ry au, 

        Potential amp.        0.0014 Ry
        Total length         45.6191 bohr


     total cpu time spent up to now is     5377.8 secs

     End of self-consistent calculation

          k = 0.0000 0.0000 0.0000 ( 33945 PWs)   bands (ev):

   -63.5090 -63.4882 -63.3813 -63.3575 -62.2558 -62.2351 -38.3530 -38.3269
   -37.4661 -37.4457 -37.3056 -37.2844 -37.2431 -37.1343 -37.0624 -37.0420
   -37.0370 -36.8999 -36.4659 -36.4178 -36.3978 -36.2763 -34.6291 -34.6131
    -7.9585  -7.5225  -7.4508  -7.3223  -7.3154  -7.1691  -7.0865  -6.9266
    -6.8942  -6.8791  -6.7610  -6.5708  -6.4936  -6.3622  -6.2759  -6.2228
    -6.1385  -6.0746  -6.0689  -5.9894  -5.9210  -5.8987  -5.8313  -5.6958
    -5.6949  -5.6777  -5.5120  -5.3688  -5.3099  -5.2497  -5.2100  -4.8822
    -3.2194  -2.1052  -1.4447  -1.1877  -1.1230  -0.7536  -0.5213  -0.4161
    -0.2538  -0.2031  -0.1328  -0.0430   0.3882   0.5516   0.6477   0.8905
     0.8910   0.9824   1.3510   1.3593   1.4180   1.5627   1.5766   1.7477
     2.0215   2.0487   2.1258   2.1488   2.1744   2.2462   2.3450   2.5866
     2.7966   2.8084

          k = 0.0000 0.0165 0.0000 ( 33885 PWs)   bands (ev):

   -63.5090 -63.4882 -63.3813 -63.3575 -62.2557 -62.2351 -38.3530 -38.3269
   -37.4661 -37.4456 -37.3056 -37.2844 -37.2432 -37.1343 -37.0625 -37.0419
   -37.0370 -36.8998 -36.4660 -36.4177 -36.3979 -36.2763 -34.6291 -34.6130
    -7.9456  -7.5173  -7.4415  -7.3153  -7.3044  -7.1686  -7.0722  -6.9196
    -6.8925  -6.8619  -6.7569  -6.5720  -6.4913  -6.3579  -6.2758  -6.2230
    -6.1366  -6.0699  -6.0654  -5.9884  -5.9200  -5.8982  -5.8294  -5.6961
    -5.6926  -5.6777  -5.5121  -5.3686  -5.3119  -5.2499  -5.1807  -4.8823
    -3.2169  -2.0929  -1.4608  -1.2570  -1.1727  -0.8171  -0.6244  -0.4337
    -0.2651  -0.2621  -0.1549  -0.0482   0.3600   0.5497   0.6568   0.8523
     0.8774   0.9064   1.2423   1.3021   1.3809   1.5243   1.5421   1.7266
     1.9993   2.0258   2.0488   2.1348   2.2555   2.3279   2.4553   2.6112
     2.7805   2.9279

          k = 0.0000 0.0329 0.0000 ( 33943 PWs)   bands (ev):

   -63.5090 -63.4882 -63.3813 -63.3575 -62.2557 -62.2351 -38.3530 -38.3269
   -37.4661 -37.4456 -37.3059 -37.2846 -37.2433 -37.1344 -37.0627 -37.0420
   -37.0371 -36.8999 -36.4660 -36.4179 -36.3980 -36.2763 -34.6291 -34.6130
    -7.9130  -7.5037  -7.4168  -7.2953  -7.2760  -7.1670  -7.0319  -6.8999
    -6.8877  -6.8069  -6.7459  -6.5753  -6.4852  -6.3454  -6.2714  -6.2235
    -6.1324  -6.0580  -6.0560  -5.9855  -5.9167  -5.8965  -5.8232  -5.6996
    -5.6840  -5.6777  -5.5125  -5.3682  -5.3170  -5.2502  -5.0971  -4.8827
    -3.2207  -2.0574  -1.6456  -1.5027  -1.1333  -0.8979  -0.8826  -0.5798
    -0.3680  -0.2786  -0.1424  -0.0727   0.2685   0.5296   0.5445   0.6890
     0.7649   0.8093   1.0521   1.2185   1.3402   1.4904   1.4940   1.5858
     1.8104   1.9748   2.1477   2.2100   2.2814   2.2924   2.6990   2.7341
     2.8438   3.1240

          k = 0.0000 0.0494 0.0000 ( 33943 PWs)   bands (ev):

   -63.5090 -63.4881 -63.3813 -63.3575 -62.2557 -62.2351 -38.3530 -38.3269
   -37.4661 -37.4456 -37.3063 -37.2848 -37.2435 -37.1345 -37.0630 -37.0420
   -37.0372 -36.8999 -36.4661 -36.4179 -36.3982 -36.2763 -34.6291 -34.6130
    -7.8736  -7.4865  -7.3855  -7.2651  -7.2417  -7.1645  -6.9777  -6.8812
    -6.8711  -6.7314  -6.7093  -6.5794  -6.4774  -6.3265  -6.2547  -6.2243
    -6.1224  -6.0442  -6.0436  -5.9813  -5.9106  -5.8949  -5.8107  -5.7052
    -5.6775  -5.6722  -5.5128  -5.3677  -5.3230  -5.2506  -4.9778  -4.8832
    -3.2689  -2.1006  -2.0043  -1.5575  -1.2183  -1.0793  -0.9690  -0.7840
    -0.4805  -0.2829  -0.1486  -0.1192   0.1134   0.3096   0.4174   0.5372
     0.6112   0.7297   0.8313   1.2102   1.3193   1.4138   1.4560   1.4636
     1.7831   1.9140   2.1564   2.2195   2.2417   2.2861   2.7231   2.9176
     3.1057   3.1606

          k = 0.0000 0.0659 0.0000 ( 33958 PWs)   bands (ev):

   -63.5089 -63.4881 -63.3812 -63.3575 -62.2557 -62.2351 -38.3531 -38.3269
   -37.4662 -37.4456 -37.3067 -37.2851 -37.2436 -37.1346 -37.0634 -37.0420
   -37.0372 -36.8999 -36.4662 -36.4181 -36.3984 -36.2763 -34.6291 -34.6130
    -7.8397  -7.4708  -7.3579  -7.2303  -7.2127  -7.1613  -6.9295  -6.8746
    -6.8405  -6.7173  -6.5883  -6.5830  -6.4701  -6.3060  -6.2319  -6.2251
    -6.0829  -6.0324  -6.0316  -5.9764  -5.9031  -5.8938  -5.7837  -5.7126
    -5.6766  -5.6603  -5.5130  -5.3672  -5.3279  -5.2511  -4.8836  -4.8728
    -3.4001  -2.4401  -1.9453  -1.6111  -1.4936  -1.2091  -1.0196  -0.8495
    -0.5968  -0.2553  -0.2144  -0.1733  -0.0818   0.1440   0.1687   0.5026
     0.5295   0.5805   0.6633   1.2218   1.2859   1.2984   1.4226   1.4331
     1.8570   1.8946   2.1526   2.1676   2.2059   2.2629   2.7075   3.0884
     3.1749   3.4280

          k = 0.0000 0.0824 0.0000 ( 33964 PWs)   bands (ev):

   -63.5089 -63.4881 -63.3812 -63.3575 -62.2557 -62.2351 -38.3531 -38.3270
   -37.4662 -37.4456 -37.3070 -37.2852 -37.2437 -37.1346 -37.0637 -37.0420
   -37.0373 -36.8999 -36.4663 -36.4182 -36.3984 -36.2763 -34.6291 -34.6130
    -7.8179  -7.4602  -7.3403  -7.2015  -7.1948  -7.1579  -6.8993  -6.8698
    -6.8173  -6.7073  -6.5851  -6.4966  -6.4649  -6.2901  -6.2257  -6.2247
    -6.0243  -6.0233  -6.0101  -5.9724  -5.8968  -5.8910  -5.7200  -5.7197
    -5.6751  -5.6517  -5.5130  -5.3668  -5.3306  -5.2514  -4.8839  -4.8613
    -3.5249  -2.6414  -1.8985  -1.6759  -1.6489  -1.4196  -0.9672  -0.8259
    -0.6874  -0.3502  -0.2591  -0.2140  -0.1963  -0.0076   0.0981   0.3546
     0.4466   0.5236   0.6311   1.2107   1.2217   1.2815   1.3994   1.4185
     1.8166   1.9639   2.1128   2.1662   2.2326   2.3062   2.6925   3.0762
     3.3860   3.4777

          k = 0.0000-0.0988 0.0000 ( 33930 PWs)   bands (ev):

   -63.5089 -63.4881 -63.3812 -63.3575 -62.2557 -62.2351 -38.3531 -38.3269
   -37.4662 -37.4456 -37.3071 -37.2852 -37.2438 -37.1347 -37.0637 -37.0421
   -37.0372 -36.8999 -36.4663 -36.4183 -36.3984 -36.2763 -34.6290 -34.6130
    -7.8104  -7.4565  -7.3345  -7.1902  -7.1890  -7.1562  -6.8894  -6.8680
    -6.8087  -6.7036  -6.5856  -6.4648  -6.4631  -6.2842  -6.2259  -6.2257
    -6.0214  -6.0204  -5.9791  -5.9707  -5.8943  -5.8881  -5.7232  -5.6743
    -5.6606  -5.6486  -5.5129  -5.3667  -5.3315  -5.2516  -4.9016  -4.8840
    -3.5529  -2.7233  -1.8808  -1.7395  -1.6620  -1.4893  -0.9443  -0.7867
    -0.7217  -0.4806  -0.2839  -0.2286  -0.1644  -0.0592   0.0893   0.2470
     0.4298   0.5215   0.6217   1.1858   1.2197   1.2750   1.3930   1.4133
     1.8020   1.9699   2.0971   2.1668   2.2211   2.4076   2.6872   3.0719
     3.3489   3.4770

          k = 0.0143 0.0082 0.0000 ( 33909 PWs)   bands (ev):

   -63.5086 -63.4885 -63.3809 -63.3579 -62.2554 -62.2355 -38.3525 -38.3273
   -37.4657 -37.4460 -37.3052 -37.2847 -37.2398 -37.1304 -37.0620 -37.0454
   -37.0374 -36.9039 -36.4628 -36.4174 -36.3982 -36.2796 -34.6288 -34.6133
    -7.9094  -7.4820  -7.4315  -7.3032  -7.2998  -7.1330  -7.0757  -6.9102
    -6.8973  -6.8650  -6.7610  -6.5557  -6.4778  -6.3648  -6.2726  -6.2087
    -6.1394  -6.0888  -6.0748  -6.0170  -5.9264  -5.8943  -5.8275  -5.7178
    -5.7005  -5.6817  -5.5331  -5.3919  -5.3298  -5.2707  -5.1703  -4.9173
    -3.2025  -2.3856  -1.5341  -1.3507  -1.1331  -0.7636  -0.5120  -0.3995
    -0.3048  -0.1160  -0.1120   0.0067   0.3891   0.5215   0.6718   0.6983
     0.8956   1.0838   1.2596   1.3260   1.4165   1.5298   1.5594   1.7514
     1.9253   2.0312   2.0587   2.1528   2.2464   2.2923   2.5182   2.6595
     2.7857   2.9264

          k = 0.0143 0.0247 0.0000 ( 33939 PWs)   bands (ev):

   -63.5086 -63.4885 -63.3809 -63.3579 -62.2554 -62.2355 -38.3525 -38.3273
   -37.4658 -37.4460 -37.3054 -37.2849 -37.2399 -37.1305 -37.0621 -37.0454
   -37.0375 -36.9039 -36.4628 -36.4175 -36.3983 -36.2796 -34.6288 -34.6133
    -7.8858  -7.4718  -7.4140  -7.2896  -7.2799  -7.1320  -7.0485  -6.9002
    -6.8908  -6.8298  -6.7537  -6.5580  -6.4733  -6.3570  -6.2717  -6.2091
    -6.1370  -6.0819  -6.0664  -6.0149  -5.9241  -5.8927  -5.8237  -5.7120
    -5.7030  -5.6817  -5.5328  -5.3916  -5.3337  -5.2704  -5.1140  -4.9177
    -3.2003  -2.3931  -1.5715  -1.4032  -1.3330  -0.8399  -0.5983  -0.4725
    -0.3398  -0.2330  -0.1284  -0.0270   0.3412   0.5086   0.5819   0.6394
     0.8416   1.0019   1.1135   1.2495   1.3728   1.4986   1.5898   1.6618
     1.8235   2.0415   2.0996   2.1158   2.2951   2.4555   2.4583   2.7129
     2.8316   3.1178

          k = 0.0143 0.0412 0.0000 ( 33941 PWs)   bands (ev):

   -63.5086 -63.4885 -63.3809 -63.3579 -62.2554 -62.2355 -38.3526 -38.3273
   -37.4658 -37.4460 -37.3057 -37.2851 -37.2400 -37.1305 -37.0624 -37.0455
   -37.0375 -36.9039 -36.4629 -36.4176 -36.3984 -36.2796 -34.6288 -34.6133
    -7.8489  -7.4553  -7.3850  -7.2644  -7.2480  -7.1304  -7.0003  -6.8916
    -6.8693  -6.7539  -6.7413  -6.5619  -6.4660  -6.3425  -6.2628  -6.2098
    -6.1321  -6.0706  -6.0535  -6.0114  -5.9191  -5.8899  -5.8150  -5.7077
    -5.7021  -5.6816  -5.5325  -5.3912  -5.3398  -5.2704  -5.0108  -4.9183
    -3.2193  -2.4177  -1.8480  -1.6249  -1.3149  -0.8975  -0.7417  -0.6614
    -0.4664  -0.2789  -0.1178  -0.0821   0.2166   0.3739   0.4282   0.5210
     0.7839   0.7929   1.0061   1.2142   1.3637   1.4609   1.4746   1.5793
     1.7525   1.9714   2.1068   2.1989   2.2510   2.3885   2.6158   2.8410
     3.0653   3.1129

          k = 0.0143 0.0577 0.0000 ( 33982 PWs)   bands (ev):

   -63.5086 -63.4885 -63.3808 -63.3579 -62.2554 -62.2355 -38.3526 -38.3274
   -37.4658 -37.4460 -37.3062 -37.2853 -37.2402 -37.1307 -37.0628 -37.0455
   -37.0376 -36.9039 -36.4630 -36.4177 -36.3986 -36.2796 -34.6288 -34.6133
    -7.8122  -7.4382  -7.3547  -7.2312  -7.2156  -7.1284  -6.9482  -6.8846
    -6.8395  -6.7277  -6.6413  -6.5660  -6.4580  -6.3241  -6.2417  -6.2106
    -6.1149  -6.0570  -6.0411  -6.0069  -5.9117  -5.8869  -5.7965  -5.7144
    -5.6907  -5.6809  -5.5320  -5.3907  -5.3459  -5.2706  -4.9190  -4.8921
    -3.3061  -2.4683  -2.2552  -1.6742  -1.3042  -1.0533  -0.8710  -0.8078
    -0.5856  -0.3153  -0.1602  -0.1406   0.0525   0.1877   0.2268   0.5059
     0.5851   0.7092   0.8735   1.2298   1.2660   1.3776   1.4424   1.5324
     1.7948   1.9175   2.0876   2.1954   2.2058   2.3291   2.6777   3.0731
     3.0873   3.3656

          k = 0.0143 0.0741 0.0000 ( 33977 PWs)   bands (ev):

   -63.5086 -63.4885 -63.3808 -63.3579 -62.2554 -62.2355 -38.3527 -38.3274
   -37.4658 -37.4459 -37.3065 -37.2855 -37.2404 -37.1308 -37.0631 -37.0455
   -37.0377 -36.9039 -36.4631 -36.4178 -36.3987 -36.2796 -34.6288 -34.6133
    -7.7847  -7.4247  -7.3317  -7.1980  -7.1909  -7.1266  -6.9089  -6.8789
    -6.8120  -6.7164  -6.5689  -6.5311  -6.4514  -6.3072  -6.2257  -6.2112
    -6.0756  -6.0318  -6.0317  -5.9999  -5.9043  -5.8841  -5.7527  -5.7222
    -5.6807  -5.6793  -5.5312  -5.3904  -5.3501  -5.2708  -4.9196  -4.8271
    -3.4480  -2.5329  -2.5173  -1.7094  -1.2990  -1.2910  -0.9456  -0.8172
    -0.6891  -0.3707  -0.2382  -0.1767  -0.1525   0.0639   0.1347   0.4136
     0.4995   0.6662   0.7371   1.1372   1.2345   1.3891   1.4187   1.4914
     1.8127   1.9562   2.0598   2.1364   2.1843   2.3690   2.6803   3.0685
     3.3176   3.5831

          k = 0.0143 0.0906 0.0000 ( 33992 PWs)   bands (ev):

   -63.5086 -63.4885 -63.3808 -63.3579 -62.2554 -62.2355 -38.3527 -38.3274
   -37.4658 -37.4459 -37.3067 -37.2856 -37.2404 -37.1308 -37.0633 -37.0455
   -37.0377 -36.9040 -36.4631 -36.4179 -36.3988 -36.2796 -34.6288 -34.6133
    -7.7704  -7.4174  -7.3200  -7.1777  -7.1767  -7.1255  -6.8890  -6.8756
    -6.7958  -6.7100  -6.5701  -6.4697  -6.4478  -6.2971  -6.2245  -6.2116
    -6.0607  -6.0264  -6.0073  -5.9759  -5.8995  -5.8808  -5.7279  -5.6832
    -5.6779  -5.6677  -5.5296  -5.3906  -5.3522  -5.2708  -4.9200  -4.8596
    -3.5189  -2.6629  -2.5787  -1.7288  -1.4388  -1.2725  -0.9782  -0.7737
    -0.7550  -0.4193  -0.4085  -0.2636  -0.1194   0.0027   0.1143   0.2939
     0.4959   0.6485   0.6565   1.0761   1.2310   1.4050   1.4093   1.4595
     1.7913   1.9911   2.0578   2.1000   2.1696   2.4873   2.6765   3.0626
     3.4243   3.4724

          k = 0.0143-0.0906 0.0000 ( 33992 PWs)   bands (ev):

   -63.5086 -63.4885 -63.3808 -63.3579 -62.2554 -62.2355 -38.3527 -38.3274
   -37.4658 -37.4459 -37.3067 -37.2856 -37.2404 -37.1308 -37.0633 -37.0455
   -37.0377 -36.9040 -36.4631 -36.4179 -36.3988 -36.2796 -34.6288 -34.6133
    -7.7704  -7.4174  -7.3200  -7.1777  -7.1767  -7.1255  -6.8890  -6.8756
    -6.7958  -6.7100  -6.5701  -6.4697  -6.4478  -6.2971  -6.2245  -6.2116
    -6.0607  -6.0264  -6.0073  -5.9759  -5.8995  -5.8808  -5.7279  -5.6832
    -5.6779  -5.6677  -5.5296  -5.3906  -5.3522  -5.2708  -4.9200  -4.8596
    -3.5189  -2.6629  -2.5787  -1.7288  -1.4388  -1.2725  -0.9782  -0.7737
    -0.7550  -0.4193  -0.4085  -0.2635  -0.1194   0.0027   0.1143   0.2939
     0.4959   0.6485   0.6565   1.0761   1.2310   1.4050   1.4093   1.4595
     1.7913   1.9911   2.0578   2.1000   2.1696   2.4873   2.6765   3.0626
     3.4240   3.4717

          k = 0.0143-0.0741 0.0000 ( 33977 PWs)   bands (ev):

   -63.5086 -63.4885 -63.3808 -63.3579 -62.2554 -62.2355 -38.3527 -38.3274
   -37.4658 -37.4459 -37.3065 -37.2855 -37.2404 -37.1308 -37.0631 -37.0455
   -37.0377 -36.9039 -36.4631 -36.4178 -36.3987 -36.2796 -34.6288 -34.6133
    -7.7847  -7.4247  -7.3317  -7.1980  -7.1909  -7.1266  -6.9089  -6.8789
    -6.8120  -6.7164  -6.5689  -6.5311  -6.4514  -6.3072  -6.2257  -6.2112
    -6.0756  -6.0318  -6.0317  -5.9999  -5.9043  -5.8841  -5.7527  -5.7222
    -5.6807  -5.6793  -5.5312  -5.3904  -5.3501  -5.2708  -4.9196  -4.8271
    -3.4480  -2.5329  -2.5173  -1.7094  -1.2990  -1.2910  -0.9456  -0.8172
    -0.6891  -0.3707  -0.2382  -0.1767  -0.1525   0.0639   0.1347   0.4136
     0.4995   0.6662   0.7371   1.1372   1.2345   1.3891   1.4187   1.4914
     1.8127   1.9562   2.0598   2.1364   2.1843   2.3690   2.6803   3.0686
     3.3176   3.5874

          k = 0.0143-0.0577 0.0000 ( 33982 PWs)   bands (ev):

   -63.5086 -63.4885 -63.3808 -63.3579 -62.2554 -62.2355 -38.3526 -38.3274
   -37.4658 -37.4460 -37.3062 -37.2853 -37.2402 -37.1307 -37.0628 -37.0455
   -37.0376 -36.9039 -36.4630 -36.4177 -36.3986 -36.2796 -34.6288 -34.6133
    -7.8122  -7.4382  -7.3547  -7.2312  -7.2156  -7.1284  -6.9482  -6.8846
    -6.8395  -6.7277  -6.6413  -6.5660  -6.4580  -6.3241  -6.2417  -6.2106
    -6.1149  -6.0570  -6.0411  -6.0069  -5.9117  -5.8869  -5.7965  -5.7144
    -5.6907  -5.6809  -5.5320  -5.3907  -5.3459  -5.2706  -4.9190  -4.8921
    -3.3061  -2.4683  -2.2552  -1.6742  -1.3042  -1.0533  -0.8710  -0.8078
    -0.5856  -0.3153  -0.1602  -0.1406   0.0525   0.1877   0.2268   0.5059
     0.5851   0.7092   0.8735   1.2298   1.2660   1.3776   1.4424   1.5324
     1.7947   1.9175   2.0876   2.1954   2.2058   2.3291   2.6777   3.0732
     3.0874   3.3656

          k = 0.0143-0.0412 0.0000 ( 33941 PWs)   bands (ev):

   -63.5086 -63.4885 -63.3809 -63.3579 -62.2554 -62.2355 -38.3526 -38.3273
   -37.4658 -37.4460 -37.3057 -37.2851 -37.2400 -37.1305 -37.0624 -37.0455
   -37.0375 -36.9039 -36.4629 -36.4176 -36.3984 -36.2796 -34.6288 -34.6133
    -7.8489  -7.4553  -7.3850  -7.2644  -7.2480  -7.1304  -7.0003  -6.8916
    -6.8693  -6.7539  -6.7413  -6.5619  -6.4660  -6.3425  -6.2628  -6.2098
    -6.1321  -6.0706  -6.0535  -6.0114  -5.9191  -5.8899  -5.8150  -5.7077
    -5.7021  -5.6816  -5.5325  -5.3912  -5.3398  -5.2704  -5.0108  -4.9183
    -3.2193  -2.4177  -1.8480  -1.6249  -1.3149  -0.8975  -0.7417  -0.6614
    -0.4664  -0.2789  -0.1178  -0.0821   0.2166   0.3739   0.4282   0.5210
     0.7839   0.7929   1.0061   1.2142   1.3637   1.4609   1.4746   1.5793
     1.7525   1.9714   2.1068   2.1989   2.2510   2.3885   2.6158   2.8409
     3.0652   3.1128

          k = 0.0143-0.0247 0.0000 ( 33939 PWs)   bands (ev):

   -63.5086 -63.4885 -63.3809 -63.3579 -62.2554 -62.2355 -38.3525 -38.3273
   -37.4658 -37.4460 -37.3054 -37.2849 -37.2399 -37.1305 -37.0621 -37.0454
   -37.0375 -36.9039 -36.4628 -36.4175 -36.3983 -36.2796 -34.6288 -34.6133
    -7.8858  -7.4718  -7.4140  -7.2896  -7.2799  -7.1320  -7.0485  -6.9002
    -6.8908  -6.8298  -6.7537  -6.5580  -6.4733  -6.3570  -6.2717  -6.2091
    -6.1370  -6.0819  -6.0664  -6.0149  -5.9241  -5.8927  -5.8237  -5.7120
    -5.7030  -5.6817  -5.5328  -5.3916  -5.3337  -5.2704  -5.1140  -4.9177
    -3.2003  -2.3931  -1.5715  -1.4032  -1.3330  -0.8399  -0.5983  -0.4725
    -0.3398  -0.2330  -0.1284  -0.0270   0.3412   0.5086   0.5819   0.6394
     0.8416   1.0019   1.1135   1.2495   1.3728   1.4986   1.5898   1.6618
     1.8235   2.0415   2.0996   2.1158   2.2952   2.4556   2.4583   2.7129
     2.8319   3.1178

          k = 0.0143-0.0082 0.0000 ( 33909 PWs)   bands (ev):

   -63.5086 -63.4885 -63.3809 -63.3579 -62.2554 -62.2355 -38.3525 -38.3273
   -37.4657 -37.4460 -37.3052 -37.2847 -37.2398 -37.1304 -37.0620 -37.0454
   -37.0374 -36.9039 -36.4628 -36.4174 -36.3982 -36.2796 -34.6288 -34.6133
    -7.9094  -7.4820  -7.4315  -7.3032  -7.2998  -7.1330  -7.0757  -6.9102
    -6.8973  -6.8650  -6.7610  -6.5557  -6.4778  -6.3648  -6.2726  -6.2087
    -6.1394  -6.0888  -6.0748  -6.0170  -5.9264  -5.8943  -5.8275  -5.7178
    -5.7005  -5.6817  -5.5331  -5.3919  -5.3298  -5.2707  -5.1703  -4.9173
    -3.2025  -2.3856  -1.5341  -1.3507  -1.1331  -0.7636  -0.5120  -0.3995
    -0.3048  -0.1160  -0.1120   0.0067   0.3891   0.5216   0.6718   0.6983
     0.8956   1.0838   1.2596   1.3260   1.4165   1.5298   1.5594   1.7514
     1.9253   2.0312   2.0587   2.1528   2.2464   2.2923   2.5181   2.6595
     2.7857   2.9262

          k = 0.0286 0.0165 0.0000 ( 33935 PWs)   bands (ev):

   -63.5076 -63.4895 -63.3797 -63.3591 -62.2544 -62.2365 -38.3513 -38.3286
   -37.4647 -37.4470 -37.3043 -37.2859 -37.2300 -37.1189 -37.0608 -37.0556
   -37.0388 -36.9158 -36.4535 -36.4165 -36.3992 -36.2891 -34.6280 -34.6141
    -7.7651  -7.3751  -7.3658  -7.2560  -7.2469  -7.0492  -7.0190  -6.9142
    -6.8547  -6.8225  -6.7609  -6.5120  -6.4335  -6.3713  -6.2657  -6.1804
    -6.1675  -6.1098  -6.0872  -6.0762  -5.9426  -5.8816  -5.8178  -5.7804
    -5.7180  -5.6939  -5.5904  -5.4568  -5.3905  -5.3269  -5.0650  -5.0232
    -3.1523  -2.9909  -2.0013  -1.4568  -1.1703  -0.7822  -0.7697  -0.3726
    -0.3306  -0.0533   0.0324   0.1072   0.3720   0.4794   0.5562   0.7052
     0.9058   1.0110   1.2073   1.2593   1.3173   1.4819   1.5306   1.7400
     1.7986   1.9844   2.0490   2.1924   2.2368   2.4785   2.5590   2.7439
     2.7898   3.1555

          k = 0.0286 0.0329 0.0000 ( 33939 PWs)   bands (ev):

   -63.5076 -63.4895 -63.3797 -63.3591 -62.2544 -62.2365 -38.3513 -38.3287
   -37.4647 -37.4470 -37.3045 -37.2861 -37.2301 -37.1190 -37.0610 -37.0556
   -37.0388 -36.9158 -36.4536 -36.4165 -36.3994 -36.2891 -34.6280 -34.6141
    -7.7356  -7.3519  -7.3494  -7.2342  -7.2279  -7.0249  -7.0059  -6.9105
    -6.8366  -6.7685  -6.7523  -6.5152  -6.4264  -6.3641  -6.2645  -6.1772
    -6.1681  -6.1010  -6.0838  -6.0665  -5.9380  -5.8785  -5.8122  -5.7734
    -5.7219  -5.6937  -5.5888  -5.4570  -5.3962  -5.3267  -5.0242  -4.9849
    -3.1558  -3.0538  -2.0234  -1.5385  -1.4539  -0.8274  -0.8261  -0.4997
    -0.3849  -0.0745  -0.0536  -0.0010   0.3294   0.4272   0.4359   0.6049
     0.8310   0.8450   1.1568   1.2225   1.3135   1.4622   1.5904   1.6853
     1.7479   1.9800   2.0543   2.1401   2.3815   2.4097   2.6073   2.7104
     2.9612   3.1426

          k = 0.0286 0.0494 0.0000 ( 33983 PWs)   bands (ev):

   -63.5076 -63.4895 -63.3797 -63.3591 -62.2544 -62.2365 -38.3513 -38.3287
   -37.4648 -37.4470 -37.3049 -37.2863 -37.2302 -37.1191 -37.0613 -37.0557
   -37.0389 -36.9158 -36.4537 -36.4166 -36.3995 -36.2892 -34.6280 -34.6141
    -7.7008  -7.3299  -7.3219  -7.2065  -7.1990  -7.0192  -6.9608  -6.9053
    -6.8101  -6.7414  -6.6759  -6.5195  -6.4172  -6.3533  -6.2536  -6.1721
    -6.1688  -6.0897  -6.0760  -6.0555  -5.9304  -5.8740  -5.7998  -5.7635
    -5.7280  -5.6929  -5.5864  -5.4571  -5.4034  -5.3265  -5.0255  -4.8722
    -3.1997  -3.1482  -2.0507  -1.9698  -1.4514  -0.9010  -0.8797  -0.6767
    -0.4863  -0.1608  -0.0774  -0.0770   0.1983   0.2683   0.3439   0.4702
     0.6493   0.7839   1.0725   1.2434   1.3325   1.4452   1.4496   1.6814
     1.7380   1.9418   2.0712   2.1006   2.2785   2.5075   2.5736   2.9270
     3.0969   3.2962

          k = 0.0286 0.0659 0.0000 ( 33994 PWs)   bands (ev):

   -63.5076 -63.4895 -63.3797 -63.3591 -62.2544 -62.2365 -38.3513 -38.3287
   -37.4648 -37.4470 -37.3052 -37.2865 -37.2304 -37.1192 -37.0617 -37.0557
   -37.0389 -36.9158 -36.4537 -36.4168 -36.3997 -36.2892 -34.6280 -34.6141
    -7.6713  -7.3132  -7.2950  -7.1811  -7.1652  -7.0168  -6.9167  -6.9000
    -6.7820  -6.7310  -6.5658  -6.5234  -6.4087  -6.3416  -6.2363  -6.1696
    -6.1630  -6.0872  -6.0463  -6.0410  -5.9217  -5.8701  -5.7774  -5.7466
    -5.7357  -5.6911  -5.5825  -5.4571  -5.4099  -5.3261  -5.0268  -4.7751
    -3.3125  -3.2504  -2.2965  -2.0790  -1.4462  -1.1035  -0.9310  -0.7432
    -0.5572  -0.2767  -0.1521  -0.0969   0.0209   0.1473   0.2119   0.4441
     0.4884   0.7431   0.9885   1.2554   1.2579   1.3772   1.4452   1.6664
     1.7643   1.8990   2.0647   2.0760   2.1952   2.4965   2.6141   3.0558
     3.2240   3.6006

          k = 0.0286 0.0824 0.0000 ( 34014 PWs)   bands (ev):

   -63.5075 -63.4895 -63.3797 -63.3591 -62.2544 -62.2365 -38.3514 -38.3287
   -37.4648 -37.4470 -37.3055 -37.2866 -37.2305 -37.1192 -37.0619 -37.0557
   -37.0390 -36.9159 -36.4538 -36.4169 -36.3997 -36.2893 -34.6280 -34.6141
    -7.6525  -7.3024  -7.2776  -7.1637  -7.1366  -7.0153  -6.8960  -6.8879
    -6.7617  -6.7228  -6.5258  -6.4833  -6.4029  -6.3328  -6.2295  -6.1701
    -6.1547  -6.0859  -6.0405  -5.9862  -5.9147  -5.8678  -5.7618  -5.7426
    -5.6953  -5.6890  -5.5733  -5.4578  -5.4142  -5.3252  -5.0279  -4.7617
    -3.4171  -3.3290  -2.4925  -2.1029  -1.4375  -1.2935  -0.9738  -0.7196
    -0.5645  -0.3960  -0.2315  -0.1978  -0.0804   0.0748   0.1765   0.3708
     0.4393   0.7250   0.9281   1.1339   1.2546   1.3907   1.4506   1.6506
     1.7692   1.8924   2.0322   2.0737   2.1329   2.5937   2.6203   3.0456
     3.4341   3.6170

          k = 0.0286 0.0988 0.0000 ( 34041 PWs)   bands (ev):

   -63.5075 -63.4895 -63.3797 -63.3591 -62.2544 -62.2365 -38.3514 -38.3287
   -37.4648 -37.4470 -37.3056 -37.2866 -37.2305 -37.1193 -37.0620 -37.0557
   -37.0390 -36.9159 -36.4538 -36.4170 -36.3998 -36.2893 -34.6280 -34.6141
    -7.6461  -7.2987  -7.2717  -7.1575  -7.1253  -7.0147  -6.8946  -6.8782
    -6.7548  -6.7193  -6.5265  -6.4542  -6.4009  -6.3296  -6.2299  -6.1703
    -6.1525  -6.0849  -6.0385  -5.9615  -5.9120  -5.8670  -5.7583  -5.7454
    -5.6881  -5.6560  -5.5596  -5.4589  -5.4157  -5.3241  -5.0283  -4.7919
    -3.4416  -3.3585  -2.5694  -2.1126  -1.4327  -1.3586  -0.9913  -0.6845
    -0.5366  -0.4658  -0.3433  -0.2286  -0.0643   0.0461   0.1699   0.3255
     0.4381   0.7200   0.9061   1.0892   1.2516   1.3969   1.4524   1.6439
     1.7616   1.8984   2.0191   2.0721   2.1114   2.6210   2.6650   3.0606
     3.4937   3.5098

          k = 0.0286-0.0824 0.0000 ( 34014 PWs)   bands (ev):

   -63.5075 -63.4895 -63.3797 -63.3591 -62.2544 -62.2365 -38.3514 -38.3287
   -37.4648 -37.4470 -37.3055 -37.2866 -37.2305 -37.1192 -37.0619 -37.0557
   -37.0390 -36.9159 -36.4538 -36.4169 -36.3997 -36.2893 -34.6280 -34.6141
    -7.6525  -7.3024  -7.2776  -7.1637  -7.1366  -7.0153  -6.8960  -6.8879
    -6.7617  -6.7228  -6.5258  -6.4833  -6.4029  -6.3328  -6.2295  -6.1701
    -6.1547  -6.0859  -6.0405  -5.9862  -5.9147  -5.8678  -5.7618  -5.7426
    -5.6953  -5.6890  -5.5733  -5.4578  -5.4142  -5.3252  -5.0279  -4.7617
    -3.4171  -3.3290  -2.4925  -2.1029  -1.4375  -1.2935  -0.9738  -0.7196
    -0.5645  -0.3960  -0.2315  -0.1978  -0.0804   0.0748   0.1765   0.3708
     0.4393   0.7250   0.9281   1.1339   1.2546   1.3907   1.4506   1.6506
     1.7692   1.8924   2.0322   2.0737   2.1329   2.5937   2.6203   3.0456
     3.4341   3.6171

          k = 0.0286-0.0659 0.0000 ( 33994 PWs)   bands (ev):

   -63.5076 -63.4895 -63.3797 -63.3591 -62.2544 -62.2365 -38.3513 -38.3287
   -37.4648 -37.4470 -37.3052 -37.2865 -37.2304 -37.1192 -37.0617 -37.0557
   -37.0389 -36.9158 -36.4537 -36.4168 -36.3997 -36.2892 -34.6280 -34.6141
    -7.6713  -7.3132  -7.2950  -7.1811  -7.1652  -7.0168  -6.9167  -6.9000
    -6.7820  -6.7310  -6.5658  -6.5234  -6.4087  -6.3416  -6.2363  -6.1696
    -6.1630  -6.0872  -6.0463  -6.0410  -5.9217  -5.8701  -5.7774  -5.7466
    -5.7357  -5.6911  -5.5825  -5.4571  -5.4099  -5.3261  -5.0268  -4.7751
    -3.3125  -3.2504  -2.2965  -2.0790  -1.4462  -1.1035  -0.9310  -0.7432
    -0.5572  -0.2767  -0.1521  -0.0969   0.0209   0.1473   0.2119   0.4441
     0.4884   0.7431   0.9885   1.2554   1.2579   1.3772   1.4452   1.6664
     1.7643   1.8991   2.0647   2.0760   2.1952   2.4964   2.6141   3.0558
     3.2240   3.6005

          k = 0.0286-0.0494 0.0000 ( 33983 PWs)   bands (ev):

   -63.5076 -63.4895 -63.3797 -63.3591 -62.2544 -62.2365 -38.3513 -38.3287
   -37.4648 -37.4470 -37.3049 -37.2863 -37.2302 -37.1191 -37.0613 -37.0557
   -37.0389 -36.9158 -36.4537 -36.4166 -36.3995 -36.2892 -34.6280 -34.6141
    -7.7008  -7.3299  -7.3219  -7.2065  -7.1990  -7.0192  -6.9608  -6.9053
    -6.8101  -6.7414  -6.6759  -6.5195  -6.4172  -6.3533  -6.2536  -6.1720
    -6.1688  -6.0897  -6.0760  -6.0555  -5.9304  -5.8740  -5.7998  -5.7635
    -5.7280  -5.6929  -5.5864  -5.4571  -5.4034  -5.3265  -5.0255  -4.8722
    -3.1997  -3.1482  -2.0507  -1.9698  -1.4514  -0.9010  -0.8797  -0.6767
    -0.4863  -0.1608  -0.0774  -0.0770   0.1983   0.2683   0.3439   0.4702
     0.6493   0.7839   1.0725   1.2434   1.3325   1.4452   1.4496   1.6814
     1.7380   1.9418   2.0712   2.1006   2.2785   2.5075   2.5736   2.9271
     3.0970   3.2963

          k = 0.0286-0.0329 0.0000 ( 33939 PWs)   bands (ev):

   -63.5076 -63.4895 -63.3797 -63.3591 -62.2544 -62.2365 -38.3513 -38.3287
   -37.4647 -37.4470 -37.3045 -37.2861 -37.2301 -37.1190 -37.0610 -37.0556
   -37.0388 -36.9158 -36.4536 -36.4165 -36.3994 -36.2891 -34.6280 -34.6141
    -7.7356  -7.3519  -7.3494  -7.2342  -7.2279  -7.0249  -7.0059  -6.9105
    -6.8366  -6.7685  -6.7523  -6.5152  -6.4264  -6.3641  -6.2645  -6.1772
    -6.1681  -6.1010  -6.0838  -6.0665  -5.9380  -5.8785  -5.8122  -5.7734
    -5.7219  -5.6937  -5.5888  -5.4570  -5.3962  -5.3267  -5.0242  -4.9849
    -3.1558  -3.0538  -2.0234  -1.5385  -1.4539  -0.8275  -0.8261  -0.4997
    -0.3849  -0.0745  -0.0536  -0.0010   0.3294   0.4272   0.4359   0.6049
     0.8310   0.8450   1.1568   1.2225   1.3134   1.4622   1.5904   1.6853
     1.7479   1.9800   2.0543   2.1401   2.3815   2.4097   2.6073   2.7104
     2.9611   3.1426

          k = 0.0286-0.0165 0.0000 ( 33935 PWs)   bands (ev):

   -63.5076 -63.4895 -63.3797 -63.3591 -62.2544 -62.2365 -38.3513 -38.3286
   -37.4647 -37.4470 -37.3043 -37.2859 -37.2300 -37.1189 -37.0608 -37.0556
   -37.0388 -36.9158 -36.4535 -36.4165 -36.3992 -36.2891 -34.6280 -34.6141
    -7.7651  -7.3751  -7.3658  -7.2560  -7.2469  -7.0492  -7.0190  -6.9142
    -6.8547  -6.8225  -6.7609  -6.5120  -6.4335  -6.3713  -6.2657  -6.1804
    -6.1675  -6.1098  -6.0872  -6.0762  -5.9426  -5.8816  -5.8178  -5.7804
    -5.7180  -5.6939  -5.5904  -5.4568  -5.3905  -5.3269  -5.0650  -5.0232
    -3.1523  -2.9909  -2.0013  -1.4568  -1.1703  -0.7822  -0.7697  -0.3726
    -0.3306  -0.0533   0.0324   0.1072   0.3720   0.4794   0.5562   0.7052
     0.9058   1.0110   1.2073   1.2593   1.3173   1.4819   1.5306   1.7400
     1.7986   1.9844   2.0490   2.1924   2.2368   2.4785   2.5590   2.7439
     2.7898   3.1555

          k = 0.0286-0.0000 0.0000 ( 33933 PWs)   bands (ev):

   -63.5076 -63.4895 -63.3797 -63.3591 -62.2544 -62.2365 -38.3512 -38.3286
   -37.4647 -37.4470 -37.3042 -37.2859 -37.2299 -37.1189 -37.0607 -37.0556
   -37.0388 -36.9158 -36.4535 -36.4164 -36.3992 -36.2891 -34.6280 -34.6141
    -7.7769  -7.3838  -7.3723  -7.2641  -7.2535  -7.0611  -7.0203  -6.9155
    -6.8610  -6.8396  -6.7641  -6.5108  -6.4361  -6.3738  -6.2648  -6.1816
    -6.1673  -6.1129  -6.0890  -6.0801  -5.9441  -5.8825  -5.8195  -5.7830
    -5.7167  -5.6939  -5.5910  -5.4567  -5.3883  -5.3270  -5.0933  -5.0229
    -3.1547  -2.9694  -1.9923  -1.4585  -1.0445  -0.7630  -0.7135  -0.3495
    -0.3214  -0.0337   0.0601   0.2220   0.3730   0.4974   0.5553   0.7024
     0.9489   1.1047   1.2077   1.2952   1.3933   1.4104   1.4903   1.7835
     1.8316   1.9779   2.0340   2.1375   2.2187   2.5044   2.5811   2.6880
     2.8434   3.1422

          k = 0.0430 0.0247 0.0000 ( 33933 PWs)   bands (ev):

   -63.5059 -63.4912 -63.3778 -63.3610 -62.2527 -62.2381 -38.3492 -38.3307
   -37.4631 -37.4486 -37.3027 -37.2878 -37.2142 -37.1005 -37.0718 -37.0588
   -37.0409 -36.9346 -36.4387 -36.4149 -36.4009 -36.3044 -34.6267 -34.6154
    -7.5364  -7.2866  -7.2365  -7.1565  -7.1389  -7.0033  -6.9340  -6.8404
    -6.7917  -6.7507  -6.7422  -6.4461  -6.4046  -6.3418  -6.2962  -6.2641
    -6.1740  -6.1031  -6.0917  -6.0799  -5.9697  -5.8844  -5.8572  -5.8006
    -5.7500  -5.7146  -5.6716  -5.5560  -5.4929  -5.4116  -5.1995  -4.9034
    -3.6869  -3.0698  -2.5763  -1.6682  -1.2318  -1.0300  -0.7463  -0.4404
    -0.3530   0.0143   0.0568   0.2031   0.2899   0.4958   0.5701   0.7016
     0.7964   0.9168   1.1716   1.2127   1.2207   1.4442   1.4725   1.7241
     1.7809   1.9371   2.0041   2.2078   2.2495   2.5002   2.6288   2.7746
     2.8911   3.2402

          k = 0.0430 0.0412 0.0000 ( 33970 PWs)   bands (ev):

   -63.5059 -63.4912 -63.3778 -63.3610 -62.2527 -62.2381 -38.3492 -38.3308
   -37.4631 -37.4486 -37.3030 -37.2879 -37.2143 -37.1006 -37.0718 -37.0591
   -37.0409 -36.9347 -36.4387 -36.4150 -36.4010 -36.3044 -34.6267 -34.6154
    -7.5092  -7.2612  -7.2069  -7.1338  -7.1288  -6.9657  -6.9312  -6.8371
    -6.7798  -6.7265  -6.6835  -6.4485  -6.3994  -6.3378  -6.2981  -6.2594
    -6.1639  -6.1033  -6.0838  -6.0724  -5.9610  -5.8812  -5.8497  -5.7918
    -5.7553  -5.7139  -5.6664  -5.5567  -5.5005  -5.4110  -5.2012  -4.8061
    -3.7970  -3.0866  -2.5989  -1.6609  -1.6234  -1.0744  -0.7907  -0.4908
    -0.4794  -0.0629   0.0405   0.1095   0.2541   0.3987   0.4358   0.5874
     0.6556   0.8593   1.1603   1.2378   1.2461   1.4206   1.5240   1.7085
     1.7524   1.9423   1.9547   2.1845   2.4035   2.4784   2.6906   2.6961
     3.0453   3.1900

          k = 0.0430 0.0577 0.0000 ( 34002 PWs)   bands (ev):

   -63.5059 -63.4912 -63.3778 -63.3610 -62.2527 -62.2381 -38.3492 -38.3308
   -37.4631 -37.4486 -37.3033 -37.2881 -37.2145 -37.1007 -37.0719 -37.0594
   -37.0410 -36.9347 -36.4388 -36.4151 -36.4012 -36.3045 -34.6267 -34.6154
    -7.4834  -7.2333  -7.1749  -7.1194  -7.1031  -6.9277  -6.9231  -6.8342
    -6.7688  -6.7050  -6.5919  -6.4531  -6.3923  -6.3330  -6.2950  -6.2561
    -6.1521  -6.1038  -6.0655  -6.0601  -5.9499  -5.8800  -5.8405  -5.7719
    -5.7625  -5.7122  -5.6550  -5.5570  -5.5088  -5.4097  -5.2035  -4.6991
    -3.9215  -3.1558  -2.6369  -1.9874  -1.6495  -1.1201  -0.9002  -0.6036
    -0.5149  -0.1355  -0.0361   0.0541   0.1769   0.2927   0.2981   0.4630
     0.5429   0.8383   1.1004   1.2639   1.2922   1.4322   1.4568   1.7042
     1.7292   1.9098   1.9603   2.1215   2.3404   2.5082   2.6265   2.9939
     3.1023   3.4044

          k = 0.0430 0.0741 0.0000 ( 34025 PWs)   bands (ev):

   -63.5059 -63.4912 -63.3778 -63.3610 -62.2527 -62.2381 -38.3493 -38.3308
   -37.4631 -37.4486 -37.3036 -37.2882 -37.2146 -37.1008 -37.0719 -37.0597
   -37.0410 -36.9347 -36.4389 -36.4152 -36.4013 -36.3045 -34.6267 -34.6154
    -7.4648  -7.2112  -7.1486  -7.1132  -7.0712  -6.9243  -6.8893  -6.8313
    -6.7628  -6.6824  -6.5075  -6.4576  -6.3867  -6.3286  -6.2922  -6.2551
    -6.1500  -6.1043  -6.0609  -6.0074  -5.9398  -5.8833  -5.8348  -5.7695
    -5.7385  -5.7099  -5.6242  -5.5569  -5.5157  -5.4064  -5.2056  -4.6416
    -4.0275  -3.2593  -2.6789  -2.2308  -1.6383  -1.1578  -1.0826  -0.6132
    -0.5236  -0.2054  -0.1249   0.0235   0.0355   0.2036   0.2112   0.4394
     0.4497   0.8361   1.0417   1.2626   1.2965   1.3890   1.4734   1.7045
     1.7192   1.8508   1.9760   2.0483   2.2457   2.5258   2.6673   3.0727
     3.2931   3.7120

          k = 0.0430 0.0906 0.0000 ( 34039 PWs)   bands (ev):

   -63.5059 -63.4912 -63.3778 -63.3610 -62.2527 -62.2381 -38.3493 -38.3308
   -37.4632 -37.4486 -37.3038 -37.2882 -37.2147 -37.1008 -37.0719 -37.0598
   -37.0410 -36.9347 -36.4389 -36.4153 -36.4013 -36.3045 -34.6267 -34.6154
    -7.4551  -7.1996  -7.1330  -7.1111  -7.0499  -6.9221  -6.8720  -6.8290
    -6.7615  -6.6677  -6.4598  -6.4578  -6.3843  -6.3258  -6.2955  -6.2550
    -6.1524  -6.1046  -6.0590  -5.9597  -5.9338  -5.8913  -5.8330  -5.7739
    -5.7163  -5.7082  -5.5719  -5.5547  -5.5196  -5.3998  -5.2069  -4.6592
    -4.0882  -3.3113  -2.7064  -2.3628  -1.6320  -1.1968  -1.1799  -0.5760
    -0.5128  -0.2508  -0.1787  -0.1413   0.0362   0.1599   0.1958   0.3943
     0.4394   0.8384   1.0059   1.2577   1.2588   1.3833   1.4999   1.7041
     1.7269   1.7958   1.9843   1.9962   2.2036   2.5274   2.7210   3.1289
     3.4393   3.6967

          k = 0.0430 0.1071 0.0000 ( 34039 PWs)   bands (ev):

   -63.5059 -63.4912 -63.3778 -63.3610 -62.2527 -62.2381 -38.3493 -38.3308
   -37.4632 -37.4486 -37.3038 -37.2882 -37.2147 -37.1008 -37.0719 -37.0598
   -37.0410 -36.9347 -36.4389 -36.4153 -36.4013 -36.3045 -34.6267 -34.6154
    -7.4551  -7.1996  -7.1330  -7.1111  -7.0499  -6.9221  -6.8720  -6.8290
    -6.7615  -6.6677  -6.4598  -6.4578  -6.3843  -6.3258  -6.2955  -6.2550
    -6.1524  -6.1046  -6.0590  -5.9597  -5.9338  -5.8913  -5.8330  -5.7739
    -5.7163  -5.7082  -5.5719  -5.5547  -5.5196  -5.3998  -5.2069  -4.6592
    -4.0882  -3.3113  -2.7064  -2.3628  -1.6320  -1.1968  -1.1799  -0.5759
    -0.5128  -0.2508  -0.1787  -0.1413   0.0362   0.1599   0.1959   0.3943
     0.4394   0.8384   1.0059   1.2577   1.2588   1.3833   1.4999   1.7041
     1.7269   1.7958   1.9843   1.9962   2.2036   2.5274   2.7210   3.1289
     3.4393   3.6967

          k = 0.0430-0.0741 0.0000 ( 34025 PWs)   bands (ev):

   -63.5059 -63.4912 -63.3778 -63.3610 -62.2527 -62.2381 -38.3493 -38.3308
   -37.4631 -37.4486 -37.3036 -37.2882 -37.2146 -37.1008 -37.0719 -37.0597
   -37.0410 -36.9347 -36.4389 -36.4152 -36.4013 -36.3045 -34.6267 -34.6154
    -7.4648  -7.2112  -7.1486  -7.1132  -7.0712  -6.9243  -6.8893  -6.8313
    -6.7628  -6.6824  -6.5075  -6.4576  -6.3867  -6.3286  -6.2922  -6.2551
    -6.1500  -6.1043  -6.0609  -6.0074  -5.9398  -5.8833  -5.8348  -5.7695
    -5.7385  -5.7099  -5.6242  -5.5569  -5.5157  -5.4064  -5.2056  -4.6416
    -4.0275  -3.2593  -2.6789  -2.2308  -1.6383  -1.1578  -1.0826  -0.6132
    -0.5236  -0.2054  -0.1249   0.0235   0.0355   0.2036   0.2112   0.4394
     0.4497   0.8361   1.0417   1.2626   1.2965   1.3890   1.4734   1.7045
     1.7192   1.8508   1.9760   2.0483   2.2457   2.5258   2.6673   3.0727
     3.2932   3.7119

          k = 0.0430-0.0577 0.0000 ( 34002 PWs)   bands (ev):

   -63.5059 -63.4912 -63.3778 -63.3610 -62.2527 -62.2381 -38.3492 -38.3308
   -37.4631 -37.4486 -37.3033 -37.2881 -37.2145 -37.1007 -37.0719 -37.0594
   -37.0410 -36.9347 -36.4388 -36.4151 -36.4012 -36.3045 -34.6267 -34.6154
    -7.4834  -7.2333  -7.1749  -7.1194  -7.1031  -6.9277  -6.9231  -6.8342
    -6.7688  -6.7050  -6.5919  -6.4531  -6.3923  -6.3330  -6.2950  -6.2561
    -6.1521  -6.1038  -6.0655  -6.0601  -5.9499  -5.8800  -5.8405  -5.7719
    -5.7625  -5.7122  -5.6550  -5.5570  -5.5088  -5.4097  -5.2035  -4.6991
    -3.9215  -3.1558  -2.6369  -1.9874  -1.6495  -1.1201  -0.9002  -0.6036
    -0.5149  -0.1355  -0.0360   0.0541   0.1769   0.2927   0.2981   0.4631
     0.5429   0.8383   1.1004   1.2639   1.2922   1.4322   1.4568   1.7042
     1.7292   1.9098   1.9603   2.1215   2.3404   2.5082   2.6265   2.9939
     3.1024   3.4044

          k = 0.0430-0.0412 0.0000 ( 33970 PWs)   bands (ev):

   -63.5059 -63.4912 -63.3778 -63.3610 -62.2527 -62.2381 -38.3492 -38.3308
   -37.4631 -37.4486 -37.3030 -37.2879 -37.2143 -37.1006 -37.0718 -37.0591
   -37.0409 -36.9347 -36.4387 -36.4150 -36.4010 -36.3044 -34.6267 -34.6154
    -7.5092  -7.2612  -7.2069  -7.1338  -7.1288  -6.9657  -6.9312  -6.8371
    -6.7798  -6.7265  -6.6835  -6.4485  -6.3994  -6.3378  -6.2981  -6.2594
    -6.1639  -6.1033  -6.0838  -6.0724  -5.9610  -5.8812  -5.8497  -5.7918
    -5.7553  -5.7139  -5.6664  -5.5567  -5.5005  -5.4110  -5.2012  -4.8061
    -3.7970  -3.0866  -2.5989  -1.6609  -1.6234  -1.0745  -0.7907  -0.4908
    -0.4794  -0.0629   0.0405   0.1095   0.2540   0.3987   0.4358   0.5874
     0.6556   0.8593   1.1603   1.2378   1.2461   1.4206   1.5240   1.7085
     1.7524   1.9423   1.9547   2.1845   2.4035   2.4784   2.6907   2.6961
     3.0452   3.1899

          k = 0.0430-0.0247 0.0000 ( 33933 PWs)   bands (ev):

   -63.5059 -63.4912 -63.3778 -63.3610 -62.2527 -62.2381 -38.3492 -38.3307
   -37.4631 -37.4486 -37.3027 -37.2878 -37.2142 -37.1005 -37.0718 -37.0588
   -37.0409 -36.9346 -36.4387 -36.4149 -36.4009 -36.3044 -34.6267 -34.6154
    -7.5364  -7.2866  -7.2365  -7.1565  -7.1389  -7.0033  -6.9340  -6.8404
    -6.7917  -6.7507  -6.7422  -6.4461  -6.4046  -6.3418  -6.2962  -6.2641
    -6.1740  -6.1031  -6.0917  -6.0799  -5.9697  -5.8844  -5.8572  -5.8006
    -5.7500  -5.7146  -5.6716  -5.5560  -5.4929  -5.4116  -5.1995  -4.9034
    -3.6869  -3.0698  -2.5763  -1.6682  -1.2318  -1.0300  -0.7463  -0.4404
    -0.3530   0.0143   0.0568   0.2031   0.2899   0.4958   0.5701   0.7016
     0.7964   0.9168   1.1716   1.2127   1.2207   1.4442   1.4725   1.7241
     1.7809   1.9371   2.0041   2.2078   2.2495   2.5002   2.6287   2.7746
     2.8911   3.2393

          k = 0.0430-0.0082 0.0000 ( 33952 PWs)   bands (ev):

   -63.5059 -63.4912 -63.3778 -63.3610 -62.2527 -62.2381 -38.3492 -38.3307
   -37.4631 -37.4486 -37.3026 -37.2877 -37.2141 -37.1004 -37.0718 -37.0588
   -37.0409 -36.9347 -36.4387 -36.4149 -36.4009 -36.3044 -34.6267 -34.6153
    -7.5547  -7.3016  -7.2542  -7.1685  -7.1459  -7.0241  -6.9356  -6.8434
    -6.7989  -6.7827  -6.7505  -6.4460  -6.4066  -6.3441  -6.2925  -6.2679
    -6.1779  -6.1033  -6.0962  -6.0847  -5.9743  -5.8868  -5.8606  -5.8043
    -5.7474  -5.7146  -5.6738  -5.5553  -5.4883  -5.4119  -5.1985  -4.9582
    -3.6220  -3.0718  -2.5679  -1.6711  -1.0011  -0.9994  -0.6870  -0.4214
    -0.2788   0.0668   0.0732   0.2923   0.3513   0.5292   0.5369   0.7372
     0.9375   0.9801   1.1642   1.2250   1.2539   1.3647   1.4651   1.7407
     1.8022   1.9208   1.9794   2.1440   2.2989   2.4206   2.5885   2.7523
     3.1123   3.1313

          k = 0.0430 0.0082 0.0000 ( 33952 PWs)   bands (ev):

   -63.5059 -63.4912 -63.3778 -63.3610 -62.2527 -62.2381 -38.3492 -38.3307
   -37.4631 -37.4486 -37.3026 -37.2877 -37.2141 -37.1004 -37.0718 -37.0588
   -37.0409 -36.9347 -36.4387 -36.4149 -36.4009 -36.3044 -34.6267 -34.6153
    -7.5547  -7.3016  -7.2542  -7.1685  -7.1459  -7.0241  -6.9356  -6.8434
    -6.7989  -6.7827  -6.7505  -6.4460  -6.4066  -6.3441  -6.2925  -6.2679
    -6.1779  -6.1033  -6.0962  -6.0847  -5.9743  -5.8868  -5.8606  -5.8043
    -5.7474  -5.7146  -5.6738  -5.5553  -5.4883  -5.4119  -5.1985  -4.9582
    -3.6220  -3.0718  -2.5679  -1.6711  -1.0011  -0.9994  -0.6870  -0.4214
    -0.2788   0.0668   0.0732   0.2923   0.3513   0.5292   0.5369   0.7372
     0.9375   0.9801   1.1642   1.2250   1.2539   1.3647   1.4651   1.7407
     1.8022   1.9208   1.9794   2.1440   2.2989   2.4206   2.5886   2.7526
     3.1123   3.1310

          k = 0.0573 0.0329 0.0000 ( 33963 PWs)   bands (ev):

   -63.5038 -63.4934 -63.3753 -63.3634 -62.2506 -62.2403 -38.3465 -38.3335
   -37.4610 -37.4508 -37.3007 -37.2901 -37.1936 -37.0929 -37.0764 -37.0563
   -37.0436 -36.9592 -36.4192 -36.4129 -36.4030 -36.3243 -34.6250 -34.6170
    -7.2602  -7.1776  -7.1571  -7.0395  -6.9574  -6.9531  -6.8939  -6.7883
    -6.6667  -6.6421  -6.6005  -6.4471  -6.4149  -6.3531  -6.3519  -6.2451
    -6.1869  -6.0922  -6.0749  -6.0304  -5.9989  -5.9941  -5.8434  -5.8084
    -5.7890  -5.7505  -5.7443  -5.6756  -5.6246  -5.5135  -5.4359  -4.6854
    -4.3728  -3.1325  -2.9553  -2.0182  -1.2869  -1.1240  -0.7034  -0.5672
    -0.3308  -0.0478   0.1391   0.1968   0.2539   0.4799   0.4992   0.7072
     0.7319   0.9243   1.0934   1.1284   1.2212   1.3983   1.4199   1.6505
     1.8064   1.9335   1.9542   2.2200   2.3225   2.4611   2.7401   2.7753
     2.9352   3.3378

          k = 0.0573 0.0494 0.0000 ( 33998 PWs)   bands (ev):

   -63.5038 -63.4934 -63.3753 -63.3634 -62.2506 -62.2403 -38.3465 -38.3335
   -37.4610 -37.4507 -37.3009 -37.2902 -37.1937 -37.0929 -37.0766 -37.0566
   -37.0436 -36.9592 -36.4193 -36.4130 -36.4031 -36.3243 -34.6250 -34.6170
    -7.2490  -7.1546  -7.1271  -7.0150  -6.9514  -6.9223  -6.8856  -6.7861
    -6.6217  -6.6181  -6.5904  -6.4469  -6.4174  -6.3608  -6.3375  -6.2392
    -6.1758  -6.0878  -6.0705  -6.0242  -5.9876  -5.9862  -5.8367  -5.8138
    -5.7915  -5.7523  -5.7181  -5.6710  -5.6317  -5.5094  -5.4385  -4.5830
    -4.5120  -3.1747  -2.9903  -1.9985  -1.6286  -1.1461  -0.7562  -0.5556
    -0.4281  -0.1109   0.1185   0.1462   0.1573   0.3811   0.4413   0.6103
     0.6141   0.9215   1.1064   1.1969   1.2530   1.3793   1.4248   1.6678
     1.7773   1.8821   1.9660   2.2152   2.3713   2.6000   2.6749   2.7227
     3.0813   3.2939

          k = 0.0573 0.0659 0.0000 ( 34028 PWs)   bands (ev):

   -63.5038 -63.4934 -63.3753 -63.3634 -62.2506 -62.2403 -38.3466 -38.3335
   -37.4610 -37.4507 -37.3012 -37.2903 -37.1938 -37.0929 -37.0767 -37.0568
   -37.0436 -36.9592 -36.4194 -36.4131 -36.4032 -36.3243 -34.6250 -34.6170
    -7.2396  -7.1321  -7.1003  -6.9844  -6.9491  -6.8890  -6.8767  -6.7869
    -6.6024  -6.5985  -6.5508  -6.4502  -6.4167  -6.3682  -6.3297  -6.2329
    -6.1608  -6.0856  -6.0592  -6.0216  -5.9745  -5.9679  -5.8298  -5.8202
    -5.7963  -5.7538  -5.6936  -5.6380  -5.6379  -5.4972  -5.4419  -4.6414
    -4.4998  -3.2330  -3.0679  -1.9824  -1.8994  -1.1592  -0.8729  -0.5322
    -0.4626  -0.1651  -0.0065   0.1070   0.1323   0.3060   0.3500   0.5305
     0.5398   0.9530   1.0839   1.2495   1.2662   1.3952   1.4195   1.6504
     1.7515   1.8830   1.9186   2.1060   2.4099   2.4211   2.7010   3.0132
     3.2139   3.3763

          k = 0.0573 0.0824 0.0000 ( 34045 PWs)   bands (ev):

   -63.5038 -63.4934 -63.3753 -63.3634 -62.2506 -62.2403 -38.3466 -38.3335
   -37.4610 -37.4508 -37.3014 -37.2903 -37.1939 -37.0929 -37.0768 -37.0570
   -37.0436 -36.9592 -36.4194 -36.4132 -36.4033 -36.3243 -34.6250 -34.6170
    -7.2333  -7.1165  -7.0823  -6.9583  -6.9442  -6.8752  -6.8610  -6.7916
    -6.5984  -6.5787  -6.5167  -6.4556  -6.4147  -6.3726  -6.3319  -6.2280
    -6.1555  -6.0855  -6.0454  -6.0212  -5.9647  -5.9446  -5.8253  -5.8241
    -5.8018  -5.7547  -5.6882  -5.6418  -5.5834  -5.4592  -5.4449  -4.7316
    -4.4827  -3.2821  -3.1348  -2.0666  -1.9766  -1.1652  -0.9935  -0.5024
    -0.4389  -0.1950  -0.0940   0.0687   0.1180   0.2018   0.2681   0.4765
     0.5579   0.9820   1.0636   1.2315   1.2956   1.4087   1.4355   1.6340
     1.7383   1.8506   1.8964   1.9878   2.3398   2.4113   2.6906   3.2514
     3.2708   3.6218

          k = 0.0573 0.0988 0.0000 ( 34085 PWs)   bands (ev):

   -63.5037 -63.4934 -63.3753 -63.3634 -62.2506 -62.2403 -38.3466 -38.3335
   -37.4611 -37.4508 -37.3015 -37.2904 -37.1939 -37.0929 -37.0768 -37.0571
   -37.0436 -36.9592 -36.4194 -36.4132 -36.4033 -36.3243 -34.6250 -34.6170
    -7.2311  -7.1109  -7.0760  -6.9524  -6.9364  -6.8727  -6.8531  -6.7951
    -6.5971  -6.5705  -6.5038  -6.4584  -6.4139  -6.3740  -6.3349  -6.2261
    -6.1554  -6.0858  -6.0401  -6.0212  -5.9610  -5.9343  -5.8272  -5.8215
    -5.8047  -5.7550  -5.6873  -5.6432  -5.5659  -5.4462  -5.4233  -4.7638
    -4.4979  -3.3010  -3.1518  -2.1287  -1.9761  -1.1671  -1.0385  -0.4878
    -0.4177  -0.2029  -0.1164   0.0198   0.1125   0.1603   0.2567   0.4572
     0.5689   0.9930   1.0552   1.2255   1.2996   1.4063   1.4544   1.6292
     1.7400   1.8120   1.9023   1.9357   2.3203   2.4096   2.6829   3.3129
     3.3434   3.7392

          k = 0.0573 0.1153 0.0000 ( 34045 PWs)   bands (ev):

   -63.5038 -63.4934 -63.3753 -63.3634 -62.2506 -62.2403 -38.3466 -38.3335
   -37.4610 -37.4508 -37.3014 -37.2903 -37.1939 -37.0929 -37.0768 -37.0570
   -37.0436 -36.9592 -36.4194 -36.4132 -36.4033 -36.3243 -34.6250 -34.6170
    -7.2333  -7.1165  -7.0823  -6.9583  -6.9442  -6.8752  -6.8610  -6.7916
    -6.5984  -6.5787  -6.5167  -6.4556  -6.4147  -6.3726  -6.3319  -6.2280
    -6.1555  -6.0855  -6.0454  -6.0212  -5.9647  -5.9446  -5.8253  -5.8241
    -5.8018  -5.7547  -5.6882  -5.6418  -5.5834  -5.4592  -5.4449  -4.7316
    -4.4827  -3.2821  -3.1348  -2.0666  -1.9766  -1.1652  -0.9935  -0.5024
    -0.4389  -0.1950  -0.0940   0.0687   0.1180   0.2018   0.2681   0.4765
     0.5579   0.9820   1.0636   1.2315   1.2956   1.4087   1.4355   1.6340
     1.7383   1.8506   1.8964   1.9878   2.3398   2.4113   2.6905   3.2513
     3.2708   3.6218

          k = 0.0573-0.0659 0.0000 ( 34028 PWs)   bands (ev):

   -63.5038 -63.4934 -63.3753 -63.3634 -62.2506 -62.2403 -38.3466 -38.3335
   -37.4610 -37.4507 -37.3012 -37.2903 -37.1938 -37.0929 -37.0767 -37.0568
   -37.0436 -36.9592 -36.4194 -36.4131 -36.4032 -36.3243 -34.6250 -34.6170
    -7.2396  -7.1321  -7.1003  -6.9844  -6.9491  -6.8890  -6.8767  -6.7869
    -6.6024  -6.5985  -6.5508  -6.4502  -6.4167  -6.3682  -6.3297  -6.2329
    -6.1608  -6.0856  -6.0592  -6.0216  -5.9745  -5.9679  -5.8298  -5.8202
    -5.7963  -5.7538  -5.6936  -5.6380  -5.6379  -5.4972  -5.4419  -4.6414
    -4.4998  -3.2330  -3.0679  -1.9824  -1.8994  -1.1592  -0.8729  -0.5322
    -0.4626  -0.1651  -0.0065   0.1070   0.1323   0.3060   0.3500   0.5305
     0.5398   0.9530   1.0839   1.2495   1.2662   1.3952   1.4195   1.6504
     1.7515   1.8830   1.9186   2.1060   2.4099   2.4211   2.7010   3.0132
     3.2139   3.3763

          k = 0.0573-0.0494 0.0000 ( 33998 PWs)   bands (ev):

   -63.5038 -63.4934 -63.3753 -63.3634 -62.2506 -62.2403 -38.3465 -38.3335
   -37.4610 -37.4507 -37.3009 -37.2902 -37.1937 -37.0929 -37.0766 -37.0566
   -37.0436 -36.9592 -36.4193 -36.4130 -36.4031 -36.3243 -34.6250 -34.6170
    -7.2490  -7.1546  -7.1271  -7.0150  -6.9514  -6.9223  -6.8856  -6.7861
    -6.6217  -6.6181  -6.5904  -6.4469  -6.4174  -6.3608  -6.3375  -6.2392
    -6.1758  -6.0878  -6.0705  -6.0242  -5.9876  -5.9862  -5.8367  -5.8138
    -5.7915  -5.7523  -5.7181  -5.6710  -5.6317  -5.5094  -5.4385  -4.5830
    -4.5120  -3.1747  -2.9903  -1.9985  -1.6286  -1.1461  -0.7562  -0.5556
    -0.4281  -0.1109   0.1185   0.1462   0.1573   0.3811   0.4413   0.6103
     0.6141   0.9215   1.1064   1.1969   1.2530   1.3793   1.4248   1.6678
     1.7773   1.8821   1.9660   2.2152   2.3713   2.6000   2.6749   2.7227
     3.0813   3.2940

          k = 0.0573-0.0329 0.0000 ( 33963 PWs)   bands (ev):

   -63.5038 -63.4934 -63.3753 -63.3634 -62.2506 -62.2403 -38.3465 -38.3335
   -37.4610 -37.4508 -37.3007 -37.2901 -37.1936 -37.0929 -37.0764 -37.0563
   -37.0436 -36.9592 -36.4192 -36.4129 -36.4030 -36.3243 -34.6250 -34.6170
    -7.2602  -7.1776  -7.1571  -7.0395  -6.9574  -6.9531  -6.8939  -6.7883
    -6.6667  -6.6421  -6.6005  -6.4471  -6.4149  -6.3531  -6.3519  -6.2451
    -6.1869  -6.0922  -6.0749  -6.0304  -5.9989  -5.9941  -5.8434  -5.8084
    -5.7890  -5.7505  -5.7443  -5.6756  -5.6246  -5.5135  -5.4359  -4.6854
    -4.3728  -3.1325  -2.9553  -2.0182  -1.2869  -1.1240  -0.7034  -0.5672
    -0.3308  -0.0478   0.1391   0.1968   0.2539   0.4799   0.4992   0.7072
     0.7319   0.9243   1.0934   1.1284   1.2212   1.3983   1.4199   1.6505
     1.8064   1.9335   1.9542   2.2200   2.3225   2.4611   2.7400   2.7753
     2.9352   3.3383

          k = 0.0573-0.0165 0.0000 ( 33968 PWs)   bands (ev):

   -63.5038 -63.4934 -63.3753 -63.3634 -62.2506 -62.2403 -38.3465 -38.3335
   -37.4610 -37.4508 -37.3005 -37.2901 -37.1934 -37.0929 -37.0763 -37.0562
   -37.0437 -36.9592 -36.4192 -36.4129 -36.4030 -36.3243 -34.6250 -34.6170
    -7.2707  -7.1943  -7.1807  -7.0547  -6.9828  -6.9543  -6.9002  -6.7908
    -6.7067  -6.6560  -6.6029  -6.4489  -6.4109  -6.3668  -6.3446  -6.2491
    -6.1890  -6.0968  -6.0775  -6.0372  -6.0052  -5.9973  -5.8478  -5.8051
    -5.7893  -5.7563  -5.7490  -5.6758  -5.6187  -5.5152  -5.4342  -4.7619
    -4.2619  -3.1178  -2.9519  -2.0294  -1.1014  -1.0122  -0.6586  -0.5708
    -0.2281   0.0056   0.1571   0.2398   0.2440   0.5621   0.6045   0.7537
     0.8126   0.9828   1.0202   1.1242   1.1985   1.3364   1.4718   1.6480
     1.8317   1.9085   1.9423   2.1257   2.3121   2.4002   2.5517   2.9102
     3.0470   3.2469

          k = 0.0573 0.0000 0.0000 ( 33975 PWs)   bands (ev):

   -63.5038 -63.4934 -63.3753 -63.3634 -62.2506 -62.2403 -38.3465 -38.3335
   -37.4610 -37.4508 -37.3005 -37.2900 -37.1934 -37.0929 -37.0763 -37.0561
   -37.0437 -36.9592 -36.4192 -36.4130 -36.4030 -36.3243 -34.6251 -34.6170
    -7.2754  -7.2004  -7.1895  -7.0599  -6.9919  -6.9547  -6.9026  -6.7918
    -6.7209  -6.6609  -6.6035  -6.4498  -6.4088  -6.3723  -6.3419  -6.2506
    -6.1885  -6.0989  -6.0787  -6.0400  -6.0074  -5.9981  -5.8492  -5.8041
    -5.7900  -5.7592  -5.7483  -5.6756  -5.6165  -5.5157  -5.4337  -4.7896
    -4.2186  -3.1171  -2.9539  -2.0319  -1.0918  -0.9255  -0.6203  -0.5712
    -0.1750   0.0289   0.1675   0.2212   0.2614   0.5793   0.6247   0.7603
     0.8695   1.0115   1.0204   1.1063   1.1945   1.3023   1.4950   1.7162
     1.8029   1.8475   1.8783   2.1678   2.3090   2.3991   2.4242   2.9516
     3.0724   3.2667

          k = 0.0573 0.0165 0.0000 ( 33968 PWs)   bands (ev):

   -63.5038 -63.4934 -63.3753 -63.3634 -62.2506 -62.2403 -38.3465 -38.3335
   -37.4610 -37.4508 -37.3005 -37.2901 -37.1934 -37.0929 -37.0763 -37.0562
   -37.0437 -36.9592 -36.4192 -36.4129 -36.4030 -36.3243 -34.6250 -34.6170
    -7.2707  -7.1943  -7.1807  -7.0547  -6.9828  -6.9543  -6.9002  -6.7908
    -6.7067  -6.6560  -6.6029  -6.4489  -6.4109  -6.3668  -6.3446  -6.2491
    -6.1890  -6.0968  -6.0775  -6.0372  -6.0052  -5.9973  -5.8478  -5.8051
    -5.7893  -5.7563  -5.7490  -5.6758  -5.6187  -5.5152  -5.4342  -4.7619
    -4.2619  -3.1178  -2.9519  -2.0294  -1.1014  -1.0122  -0.6586  -0.5708
    -0.2281   0.0056   0.1571   0.2398   0.2440   0.5621   0.6045   0.7538
     0.8126   0.9828   1.0202   1.1242   1.1985   1.3364   1.4718   1.6480
     1.8317   1.9085   1.9423   2.1257   2.3121   2.4002   2.5517   2.9102
     3.0470   3.2472

          k = 0.0716 0.0412 0.0000 ( 33975 PWs)   bands (ev):

   -63.5013 -63.4959 -63.3725 -63.3663 -62.2481 -62.2428 -38.3434 -38.3366
   -37.4585 -37.4532 -37.2982 -37.2928 -37.1694 -37.1173 -37.0533 -37.0485
   -37.0466 -36.9877 -36.4106 -36.4055 -36.3965 -36.3473 -34.6231 -34.6189
    -7.1367  -7.0893  -6.9582  -6.9434  -6.9039  -6.8917  -6.7974  -6.6864
    -6.5990  -6.5427  -6.5338  -6.4864  -6.3749  -6.3140  -6.2626  -6.1923
    -6.1447  -6.1127  -6.1051  -6.0641  -6.0502  -5.9524  -5.9016  -5.8740
[...]
    -0.3163  -0.1726   0.0575   0.1620   0.1928   0.3386   0.5421   0.5951
     0.6838   1.0277   1.0380   1.1697   1.2326   1.2817   1.3412   1.5988
     1.8206   1.8499   2.0375   2.2158   2.2786   2.6377   2.6702   2.8056
     3.0740   3.4687

          k = 0.0716 0.0741 0.0000 ( 34029 PWs)   bands (ev):

   -63.5012 -63.4959 -63.3725 -63.3663 -62.2481 -62.2428 -38.3434 -38.3367
   -37.4586 -37.4532 -37.2986 -37.2928 -37.1696 -37.1172 -37.0537 -37.0486
   -37.0466 -36.9876 -36.4107 -36.4056 -36.3966 -36.3473 -34.6231 -34.6190
    -7.1226  -7.0727  -6.9299  -6.9159  -6.8637  -6.8561  -6.7973  -6.6946
    -6.5922  -6.5553  -6.5231  -6.4543  -6.3329  -6.3000  -6.2885  -6.1879
    -6.1386  -6.1282  -6.0995  -6.0325  -5.9983  -5.9587  -5.9096  -5.8664
    -5.8488  -5.8313  -5.7767  -5.7138  -5.6997  -5.6698  -5.4274  -5.2382
    -4.2663  -3.7684  -2.9159  -2.3086  -1.7196  -1.1088  -0.8183  -0.5312
    -0.2937  -0.1810  -0.0131   0.1270   0.1684   0.3231   0.4542   0.5305
     0.6844   1.0349   1.1130   1.2019   1.2119   1.3159   1.3190   1.6030
     1.8203   1.8364   1.9534   2.0772   2.2769   2.4810   2.7021   2.9568
     3.2996   3.4696

          k = 0.0716 0.0906 0.0000 ( 34049 PWs)   bands (ev):

   -63.5012 -63.4959 -63.3725 -63.3663 -62.2481 -62.2428 -38.3434 -38.3366
   -37.4586 -37.4532 -37.2987 -37.2928 -37.1697 -37.1173 -37.0539 -37.0486
   -37.0466 -36.9877 -36.4108 -36.4056 -36.3966 -36.3473 -34.6231 -34.6189
    -7.1191  -7.0687  -6.9195  -6.9079  -6.8525  -6.8418  -6.7994  -6.6996
    -6.5899  -6.5607  -6.5163  -6.4424  -6.3322  -6.2987  -6.2968  -6.1832
    -6.1389  -6.1379  -6.0989  -6.0239  -5.9806  -5.9610  -5.9124  -5.8683
    -5.8540  -5.8273  -5.7785  -5.7144  -5.7029  -5.6643  -5.3326  -5.2974
    -4.2704  -3.8110  -2.9464  -2.3081  -1.8140  -1.0882  -0.8739  -0.4924
    -0.2782  -0.1652  -0.0331   0.1112   0.1641   0.3160   0.3253   0.4987
     0.7435   1.0347   1.1217   1.1947   1.2211   1.3362   1.3611   1.5870
     1.8359   1.8363   1.8743   1.9400   2.2693   2.4556   2.6150   3.0699
     3.5376   3.5565

          k = 0.0716 0.1071 0.0000 ( 34049 PWs)   bands (ev):

   -63.5012 -63.4959 -63.3725 -63.3663 -62.2481 -62.2428 -38.3434 -38.3366
   -37.4586 -37.4532 -37.2987 -37.2928 -37.1697 -37.1173 -37.0539 -37.0486
   -37.0466 -36.9877 -36.4108 -36.4056 -36.3966 -36.3473 -34.6231 -34.6189
    -7.1191  -7.0687  -6.9195  -6.9079  -6.8525  -6.8418  -6.7994  -6.6996
    -6.5899  -6.5607  -6.5163  -6.4424  -6.3322  -6.2987  -6.2968  -6.1832
    -6.1389  -6.1379  -6.0989  -6.0239  -5.9806  -5.9610  -5.9124  -5.8683
    -5.8540  -5.8273  -5.7785  -5.7144  -5.7029  -5.6643  -5.3326  -5.2974
    -4.2704  -3.8110  -2.9464  -2.3081  -1.8140  -1.0882  -0.8739  -0.4924
    -0.2782  -0.1652  -0.0331   0.1112   0.1641   0.3160   0.3253   0.4987
     0.7435   1.0347   1.1217   1.1947   1.2211   1.3362   1.3611   1.5870
     1.8358   1.8363   1.8743   1.9400   2.2693   2.4556   2.6150   3.0699
     3.5378   3.5565

          k = 0.0716 0.1236 0.0000 ( 34029 PWs)   bands (ev):

   -63.5012 -63.4959 -63.3725 -63.3663 -62.2481 -62.2428 -38.3434 -38.3367
   -37.4586 -37.4532 -37.2986 -37.2928 -37.1696 -37.1172 -37.0537 -37.0486
   -37.0466 -36.9876 -36.4107 -36.4056 -36.3966 -36.3473 -34.6231 -34.6190
    -7.1226  -7.0727  -6.9299  -6.9159  -6.8637  -6.8561  -6.7973  -6.6946
    -6.5922  -6.5553  -6.5231  -6.4543  -6.3329  -6.3000  -6.2885  -6.1879
    -6.1386  -6.1282  -6.0995  -6.0325  -5.9983  -5.9587  -5.9096  -5.8664
    -5.8488  -5.8313  -5.7767  -5.7138  -5.6997  -5.6698  -5.4274  -5.2382
    -4.2663  -3.7684  -2.9159  -2.3086  -1.7196  -1.1088  -0.8183  -0.5312
    -0.2937  -0.1810  -0.0131   0.1270   0.1684   0.3231   0.4542   0.5305
     0.6844   1.0349   1.1130   1.2019   1.2119   1.3159   1.3190   1.6030
     1.8203   1.8364   1.9534   2.0772   2.2769   2.4810   2.7020   2.9568
     3.2996   3.4696

          k = 0.0716-0.0577 0.0000 ( 33996 PWs)   bands (ev):

   -63.5013 -63.4959 -63.3725 -63.3663 -62.2481 -62.2428 -38.3434 -38.3366
   -37.4585 -37.4532 -37.2984 -37.2928 -37.1696 -37.1173 -37.0535 -37.0486
   -37.0466 -36.9876 -36.4106 -36.4055 -36.3965 -36.3473 -34.6231 -34.6189
    -7.1289  -7.0801  -6.9451  -6.9292  -6.8791  -6.8783  -6.7965  -6.6891
    -6.5957  -6.5479  -6.5307  -6.4715  -6.3418  -6.3066  -6.2759  -6.1933
    -6.1407  -6.1157  -6.1009  -6.0474  -6.0273  -5.9555  -5.9055  -5.8666
    -5.8394  -5.8360  -5.7740  -5.7135  -5.6954  -5.6854  -5.5329  -5.1263
    -4.3147  -3.6988  -2.8537  -2.3205  -1.5452  -1.1490  -0.7331  -0.5880
    -0.3163  -0.1726   0.0575   0.1620   0.1928   0.3386   0.5421   0.5951
     0.6838   1.0277   1.0380   1.1697   1.2326   1.2817   1.3412   1.5988
     1.8206   1.8499   2.0375   2.2158   2.2786   2.6377   2.6702   2.8056
     3.0739   3.4686

          k = 0.0716-0.0412 0.0000 ( 33975 PWs)   bands (ev):

   -63.5013 -63.4959 -63.3725 -63.3663 -62.2481 -62.2428 -38.3434 -38.3366
   -37.4585 -37.4532 -37.2982 -37.2928 -37.1694 -37.1173 -37.0533 -37.0485
   -37.0466 -36.9877 -36.4106 -36.4055 -36.3965 -36.3473 -34.6231 -34.6189
    -7.1367  -7.0893  -6.9582  -6.9434  -6.9039  -6.8917  -6.7974  -6.6864
    -6.5990  -6.5427  -6.5338  -6.4864  -6.3749  -6.3140  -6.2626  -6.1923
    -6.1447  -6.1127  -6.1051  -6.0641  -6.0502  -5.9524  -5.9016  -5.8740
    -5.8362  -5.8285  -5.7714  -5.7140  -5.7131  -5.6921  -5.5911  -4.9809
    -4.4057  -3.6313  -2.8055  -2.3493  -1.3014  -1.1911  -0.6687  -0.6414
    -0.2924  -0.1319   0.1044   0.1485   0.3317   0.3713   0.4769   0.6864
     0.8098   0.9792   0.9838   1.1069   1.2202   1.2834   1.4190   1.5446
     1.8313   1.8867   2.0429   2.2319   2.3775   2.4062   2.7997   2.8282
     2.9842   3.2837

          k = 0.0716-0.0247 0.0000 ( 33981 PWs)   bands (ev):

   -63.5013 -63.4959 -63.3725 -63.3663 -62.2481 -62.2428 -38.3434 -38.3366
   -37.4585 -37.4532 -37.2981 -37.2928 -37.1694 -37.1174 -37.0532 -37.0484
   -37.0467 -36.9877 -36.4106 -36.4055 -36.3965 -36.3473 -34.6231 -34.6189
    -7.1440  -7.0974  -6.9662  -6.9546  -6.9246  -6.9017  -6.7989  -6.6863
    -6.6005  -6.5420  -6.5305  -6.4948  -6.4274  -6.3173  -6.2519  -6.1831
    -6.1471  -6.1241  -6.1140  -6.0767  -6.0558  -5.9500  -5.8987  -5.8852
    -5.8327  -5.8195  -5.7697  -5.7393  -5.7123  -5.6903  -5.6116  -4.8360
    -4.4938  -3.5958  -2.7912  -2.3789  -1.2186  -1.0660  -0.6814  -0.6216
    -0.2174  -0.0949   0.1403   0.1467   0.3546   0.4312   0.5048   0.7741
     0.8501   0.9162   0.9863   1.0689   1.2159   1.2818   1.4893   1.4914
     1.8404   1.9260   1.9996   2.0921   2.2817   2.5300   2.5490   2.9683
     2.9880   3.3431

          k = 0.0716-0.0082 0.0000 ( 34016 PWs)   bands (ev):

   -63.5013 -63.4959 -63.3725 -63.3663 -62.2481 -62.2428 -38.3434 -38.3366
   -37.4585 -37.4533 -37.2981 -37.2928 -37.1693 -37.1174 -37.0531 -37.0483
   -37.0468 -36.9877 -36.4107 -36.4055 -36.3964 -36.3474 -34.6231 -34.6189
    -7.1485  -7.1020  -6.9697  -6.9604  -6.9365  -6.9070  -6.8001  -6.6869
    -6.6001  -6.5435  -6.5218  -6.4976  -6.4705  -6.3186  -6.2459  -6.1721
    -6.1460  -6.1365  -6.1238  -6.0824  -6.0558  -5.9487  -5.8971  -5.8929
    -5.8299  -5.8146  -5.7692  -5.7507  -5.7114  -5.6895  -5.6180  -4.7407
    -4.5455  -3.5928  -2.7924  -2.3918  -1.2322  -0.9472  -0.7007  -0.5729
    -0.1277  -0.0893   0.1592   0.1795   0.2651   0.4944   0.5757   0.7730
     0.8363   0.9502   1.0138   1.0450   1.2065   1.2242   1.5352   1.5710
     1.8059   1.8419   1.9633   2.0867   2.1788   2.4227   2.5872   2.8164
     3.2177   3.5162

          k = 0.0716 0.0082 0.0000 ( 34016 PWs)   bands (ev):

   -63.5013 -63.4959 -63.3725 -63.3663 -62.2481 -62.2428 -38.3434 -38.3366
   -37.4585 -37.4533 -37.2981 -37.2928 -37.1693 -37.1174 -37.0531 -37.0483
   -37.0468 -36.9877 -36.4107 -36.4055 -36.3964 -36.3474 -34.6231 -34.6189
    -7.1485  -7.1020  -6.9697  -6.9604  -6.9365  -6.9070  -6.8001  -6.6869
    -6.6001  -6.5435  -6.5218  -6.4976  -6.4705  -6.3186  -6.2459  -6.1721
    -6.1460  -6.1365  -6.1238  -6.0824  -6.0558  -5.9487  -5.8971  -5.8929
    -5.8299  -5.8146  -5.7692  -5.7507  -5.7114  -5.6895  -5.6180  -4.7407
    -4.5455  -3.5928  -2.7924  -2.3918  -1.2322  -0.9472  -0.7007  -0.5729
    -0.1277  -0.0893   0.1592   0.1795   0.2651   0.4944   0.5757   0.7730
     0.8363   0.9502   1.0138   1.0450   1.2065   1.2242   1.5352   1.5710
     1.8059   1.8419   1.9633   2.0867   2.1788   2.4227   2.5872   2.8164
     3.2177   3.5160

          k = 0.0716 0.0247 0.0000 ( 33981 PWs)   bands (ev):

   -63.5013 -63.4959 -63.3725 -63.3663 -62.2481 -62.2428 -38.3434 -38.3366
   -37.4585 -37.4532 -37.2981 -37.2928 -37.1694 -37.1174 -37.0532 -37.0484
   -37.0467 -36.9877 -36.4106 -36.4055 -36.3965 -36.3473 -34.6231 -34.6189
    -7.1440  -7.0974  -6.9662  -6.9546  -6.9246  -6.9017  -6.7989  -6.6863
    -6.6005  -6.5420  -6.5305  -6.4948  -6.4274  -6.3173  -6.2519  -6.1831
    -6.1471  -6.1241  -6.1140  -6.0767  -6.0558  -5.9500  -5.8987  -5.8852
    -5.8327  -5.8195  -5.7697  -5.7393  -5.7123  -5.6903  -5.6116  -4.8360
    -4.4938  -3.5958  -2.7912  -2.3789  -1.2186  -1.0660  -0.6814  -0.6216
    -0.2174  -0.0949   0.1403   0.1467   0.3546   0.4312   0.5048   0.7741
     0.8501   0.9162   0.9863   1.0689   1.2159   1.2818   1.4893   1.4914
     1.8404   1.9260   1.9996   2.0921   2.2817   2.5300   2.5490   2.9683
     2.9880   3.3431

          k =-0.0859-0.0494 0.0000 ( 33960 PWs)   bands (ev):

   -63.4987 -63.4985 -63.3696 -63.3692 -62.2455 -62.2454 -38.3402 -38.3398
   -37.4560 -37.4558 -37.2956 -37.2955 -37.1435 -37.1433 -37.0502 -37.0500
   -37.0182 -37.0179 -36.4081 -36.4080 -36.3720 -36.3718 -34.6211 -34.6209
    -7.0917  -7.0917  -6.9016  -6.9015  -6.8175  -6.8174  -6.7236  -6.7236
    -6.6399  -6.6398  -6.3778  -6.3777  -6.3045  -6.3044  -6.1948  -6.1947
    -6.1112  -6.1109  -6.0809  -6.0807  -6.0336  -6.0322  -5.9682  -5.9673
    -5.8551  -5.8549  -5.7818  -5.7811  -5.7453  -5.7451  -5.4239  -5.4235
    -4.0568  -4.0560  -2.6096  -2.6090  -1.2626  -1.2625  -0.6580  -0.6580
    -0.2233  -0.2232   0.1034   0.1035   0.3331   0.3332   0.5909   0.5910
     0.8862   0.8863   1.0942   1.0943   1.1894   1.1894   1.4626   1.4627
     1.8566   1.8567   2.1591   2.1593   2.3897   2.3899   2.8301   2.8303
     3.1408   3.1411

          k =-0.0859-0.0329 0.0000 ( 34009 PWs)   bands (ev):

   -63.4987 -63.4985 -63.3696 -63.3692 -62.2455 -62.2454 -38.3402 -38.3398
   -37.4560 -37.4558 -37.2957 -37.2955 -37.1436 -37.1433 -37.0503 -37.0500
   -37.0183 -37.0179 -36.4082 -36.4080 -36.3720 -36.3719 -34.6211 -34.6209
    -7.0950  -7.0881  -6.9019  -6.8966  -6.8203  -6.8170  -6.7399  -6.7032
    -6.6473  -6.6316  -6.3854  -6.3702  -6.3181  -6.2966  -6.2122  -6.1812
    -6.1196  -6.1145  -6.0873  -6.0665  -6.0354  -6.0288  -5.9707  -5.9649
    -5.8811  -5.8346  -5.7820  -5.7805  -5.7492  -5.7412  -5.5290  -5.2838
    -4.1415  -3.9911  -2.6555  -2.5836  -1.3912  -1.1197  -0.7175  -0.5980
    -0.2126  -0.1947   0.0631   0.1441   0.2765   0.3747   0.5240   0.6684
     0.7929   0.9521   1.0746   1.1191   1.2143   1.2170   1.3627   1.5343
     1.8410   1.8732   2.0979   2.1416   2.2266   2.5904   2.6361   2.9161
     3.0223   3.4436

          k =-0.0859-0.0165 0.0000 ( 34011 PWs)   bands (ev):

   -63.4987 -63.4985 -63.3696 -63.3692 -62.2455 -62.2454 -38.3402 -38.3398
   -37.4560 -37.4558 -37.2958 -37.2954 -37.1436 -37.1433 -37.0504 -37.0498
   -37.0183 -37.0179 -36.4082 -36.4080 -36.3721 -36.3718 -34.6211 -34.6209
    -7.0974  -7.0853  -6.8991  -6.8895  -6.8241  -6.8185  -6.7506  -6.6824
    -6.6529  -6.6249  -6.3902  -6.3700  -6.3312  -6.2936  -6.2267  -6.1728
    -6.1293  -6.1269  -6.0849  -6.0576  -6.0327  -6.0255  -5.9729  -5.9628
    -5.9051  -5.8222  -5.7819  -5.7796  -5.7522  -5.7380  -5.5871  -5.1524
    -4.2086  -3.9731  -2.6905  -2.5796  -1.4755  -1.0250  -0.7624  -0.5405
    -0.1832  -0.1582   0.0647   0.1760   0.2495   0.3419   0.5194   0.6060
     0.8518   0.9710   1.0689   1.1148   1.1950   1.2667   1.3613   1.5685
     1.8255   1.8781   1.9616   2.1147   2.1184   2.4794   2.7240   2.7885
     3.2521   3.7707

          k =-0.0859 0.0000 0.0000 ( 34019 PWs)   bands (ev):

   -63.4987 -63.4985 -63.3696 -63.3692 -62.2455 -62.2454 -38.3402 -38.3398
   -37.4560 -37.4558 -37.2958 -37.2954 -37.1436 -37.1433 -37.0504 -37.0498
   -37.0183 -37.0179 -36.4082 -36.4080 -36.3721 -36.3719 -34.6211 -34.6209
    -7.0982  -7.0843  -6.8973  -6.8860  -6.8261  -6.8196  -6.7544  -6.6717
    -6.6562  -6.6223  -6.3917  -6.3747  -6.3345  -6.2930  -6.2319  -6.1696
    -6.1335  -6.1329  -6.0834  -6.0556  -6.0294  -6.0243  -5.9738  -5.9621
    -5.9152  -5.8180  -5.7818  -5.7792  -5.7533  -5.7368  -5.6047  -5.0956
    -4.2335  -3.9781  -2.6996  -2.5809  -1.5066  -0.9969  -0.7775  -0.5153
    -0.1927  -0.1193   0.0862   0.1911   0.2478   0.3078   0.5259   0.5497
     0.9435   0.9744   1.0467   1.0684   1.1737   1.2893   1.4271   1.5769
     1.8031   1.8189   1.9702   2.0301   2.1088   2.4800   2.6381   2.8188
     3.4346   3.7990

          k =-0.0859 0.0165 0.0000 ( 34011 PWs)   bands (ev):

   -63.4987 -63.4985 -63.3696 -63.3692 -62.2455 -62.2454 -38.3402 -38.3398
   -37.4560 -37.4558 -37.2958 -37.2954 -37.1436 -37.1433 -37.0504 -37.0498
   -37.0183 -37.0179 -36.4082 -36.4080 -36.3721 -36.3718 -34.6211 -34.6209
    -7.0974  -7.0853  -6.8991  -6.8895  -6.8241  -6.8185  -6.7506  -6.6824
    -6.6529  -6.6249  -6.3902  -6.3700  -6.3312  -6.2936  -6.2267  -6.1728
    -6.1293  -6.1269  -6.0849  -6.0576  -6.0327  -6.0255  -5.9729  -5.9628
    -5.9051  -5.8222  -5.7819  -5.7796  -5.7522  -5.7380  -5.5871  -5.1524
    -4.2086  -3.9731  -2.6905  -2.5796  -1.4755  -1.0250  -0.7624  -0.5405
    -0.1832  -0.1582   0.0647   0.1760   0.2495   0.3419   0.5194   0.6060
     0.8518   0.9710   1.0690   1.1148   1.1950   1.2667   1.3613   1.5685
     1.8255   1.8781   1.9616   2.1147   2.1184   2.4794   2.7240   2.7885
     3.2521   3.7713

          k =-0.0859 0.0329 0.0000 ( 34009 PWs)   bands (ev):

   -63.4987 -63.4985 -63.3696 -63.3692 -62.2455 -62.2454 -38.3402 -38.3398
   -37.4560 -37.4558 -37.2957 -37.2955 -37.1436 -37.1433 -37.0503 -37.0500
   -37.0183 -37.0179 -36.4082 -36.4080 -36.3720 -36.3719 -34.6211 -34.6209
    -7.0950  -7.0881  -6.9019  -6.8966  -6.8203  -6.8170  -6.7399  -6.7032
    -6.6473  -6.6316  -6.3854  -6.3702  -6.3181  -6.2966  -6.2122  -6.1812
    -6.1196  -6.1145  -6.0873  -6.0665  -6.0354  -6.0288  -5.9707  -5.9649
    -5.8811  -5.8346  -5.7820  -5.7805  -5.7492  -5.7412  -5.5290  -5.2838
    -4.1415  -3.9911  -2.6555  -2.5836  -1.3912  -1.1197  -0.7175  -0.5980
    -0.2126  -0.1947   0.0631   0.1441   0.2766   0.3747   0.5240   0.6684
     0.7929   0.9521   1.0746   1.1191   1.2143   1.2170   1.3627   1.5343
     1.8410   1.8733   2.0979   2.1416   2.2266   2.5904   2.6361   2.9160
     3.0223   3.4436

          k =-0.0859-0.1483 0.0000 ( 33960 PWs)   bands (ev):

   -63.4987 -63.4985 -63.3696 -63.3692 -62.2455 -62.2454 -38.3402 -38.3398
   -37.4560 -37.4558 -37.2956 -37.2955 -37.1435 -37.1433 -37.0502 -37.0500
   -37.0182 -37.0179 -36.4081 -36.4080 -36.3720 -36.3718 -34.6211 -34.6209
    -7.0917  -7.0916  -6.9016  -6.9016  -6.8175  -6.8174  -6.7236  -6.7236
    -6.6399  -6.6398  -6.3778  -6.3777  -6.3045  -6.3044  -6.1948  -6.1947
    -6.1112  -6.1109  -6.0809  -6.0807  -6.0336  -6.0322  -5.9682  -5.9673
    -5.8550  -5.8550  -5.7818  -5.7811  -5.7453  -5.7451  -5.4239  -5.4235
    -4.0568  -4.0560  -2.6096  -2.6090  -1.2626  -1.2625  -0.6580  -0.6580
    -0.2233  -0.2232   0.1034   0.1035   0.3331   0.3332   0.5909   0.5910
     0.8862   0.8863   1.0942   1.0943   1.1894   1.1894   1.4626   1.4627
     1.8566   1.8567   2.1591   2.1593   2.3897   2.3899   2.8302   2.8303
     3.1409   3.1411

     the Fermi energy is     1.0912 ev

!    total energy              =   -1483.74811682 Ry
     estimated scf accuracy    <       0.00000986 Ry
     smearing contrib. (-TS)   =      -0.06968288 Ry
     internal energy E=F+TS    =   -1483.67843394 Ry

     The total energy is F=E-TS. E is the sum of the following terms:
     one-electron contribution =  -11293.43277022 Ry
     hartree contribution      =    5684.12168483 Ry
     xc contribution           =    -327.96960846 Ry
     ewald contribution        =    4453.60225981 Ry
     electric field correction =       0.00000009 Ry

     convergence has been achieved in  23 iterations

     negative rho (up, down):  2.442E-03 0.000E+00

     Forces acting on atoms (cartesian axes, Ry/au):

     atom    1 type  1   force =    -0.00000230    0.01437060    0.03215571
     atom    2 type  1   force =    -0.00000114    0.01435763    0.03211424
     atom    3 type  2   force =     0.00000728   -0.00978521   -0.04733579
     atom    4 type  2   force =    -0.00000846   -0.00978749   -0.04733746
     atom    5 type  1   force =     0.00000417   -0.02055331   -0.01063382
     atom    6 type  1   force =    -0.00000309   -0.02065024   -0.01083166
     atom    7 type  2   force =     0.00008676    0.01255552    0.01383389
     atom    8 type  2   force =    -0.00009736    0.01255144    0.01382818
     atom    9 type  1   force =    -0.00000950    0.00455993    0.01205396
     atom   10 type  1   force =     0.00000811    0.00454906    0.01206916
     atom   11 type  2   force =    -0.00008890   -0.00108982    0.00003675
     atom   12 type  2   force =     0.00010444   -0.00107811    0.00004684

     Total force =     0.096244     Total SCF correction =     0.010138
     SCF correction compared to forces is large: reduce conv_thr to get better values

     Writing output data file ./V2Hg2/V2Hg2_beef.save/

     init_run     :     78.17s CPU     78.71s WALL (       1 calls)
     electrons    :   5278.07s CPU   5297.88s WALL (       1 calls)
     forces       :     79.30s CPU     79.42s WALL (       1 calls)

     Called by init_run:
     wfcinit      :     66.79s CPU     67.10s WALL (       1 calls)
     potinit      :      7.88s CPU      7.95s WALL (       1 calls)
     hinit0       :      2.09s CPU      2.10s WALL (       1 calls)

     Called by electrons:
     c_bands      :   4559.67s CPU   4570.97s WALL (      23 calls)
     sum_band     :    650.53s CPU    654.89s WALL (      23 calls)
     v_of_rho     :     48.75s CPU     50.30s WALL (      24 calls)
     newd         :     20.88s CPU     23.26s WALL (      24 calls)
     mix_rho      :      3.44s CPU      3.47s WALL (      23 calls)
     vdW_kernel   :      5.68s CPU      5.69s WALL (       1 calls)

     Called by c_bands:
     init_us_2    :     14.29s CPU     14.37s WALL (    3552 calls)
     cegterg      :   4516.44s CPU   4525.46s WALL (    1702 calls)

     Called by *egterg:
     cdiaghg      :    181.01s CPU    181.07s WALL (    8068 calls)
     h_psi        :   2915.02s CPU   2923.10s WALL (    8142 calls)
     s_psi        :    560.08s CPU    560.16s WALL (    8142 calls)
     g_psi        :      1.48s CPU      1.49s WALL (    6366 calls)

     Called by h_psi:
     h_psi:calbec :    606.77s CPU    607.76s WALL (    8142 calls)
     vloc_psi     :   1721.78s CPU   1728.73s WALL (    8142 calls)
     add_vuspsi   :    579.99s CPU    580.07s WALL (    8142 calls)

     General routines
     calbec       :    929.90s CPU    931.35s WALL (   10140 calls)
     fft          :     44.20s CPU     44.71s WALL (    1571 calls)
     ffts         :      0.63s CPU      0.63s WALL (      47 calls)
     fftw         :   2034.32s CPU   2042.56s WALL (  860292 calls)
     interpolate  :      0.93s CPU      0.94s WALL (      24 calls)

     Parallel routines
     fft_scatt_xy :     56.80s CPU     57.53s WALL (  861910 calls)
     fft_scatt_yz :   1495.17s CPU   1496.79s WALL (  861910 calls)

     PWSCF        :      1h35m CPU      1h36m WALL


   This run was terminated on:  10:24: 9  25Jun2022            

=------------------------------------------------------------------------------=
   JOB DONE.
=------------------------------------------------------------------------------=
