
     Program PWSCF v.6.6 starts on 27Jun2022 at 10:49:34 

     This program is part of the open-source Quantum ESPRESSO suite
     for quantum simulation of materials; please cite
         "P. Giannozzi et al., J. Phys.:Condens. Matter 21 395502 (2009);
         "P. Giannozzi et al., J. Phys.:Condens. Matter 29 465901 (2017);
          URL http://www.quantum-espresso.org", 
     in publications or presentations arising from this work. More details at
     http://www.quantum-espresso.org/quote

     Parallel version (MPI), running on    37 processors

     MPI processes distributed on     1 nodes
     R & G space division:  proc/nbgrp/npool/nimage =      37
     Fft bands division:     nmany     =       1
     Reading input from V2La2.in
Warning: card &CELL ignored
Warning: card / ignored

     Current dimensions of program PWSCF are:
     Max number of different atomic species (ntypx) = 10
     Max number of k-points (npk) =  40000
     Max angular momentum in pseudopotentials (lmaxx) =  3
     Presently stress not available with electric field and gates

     Message from routine cell_base_init:
     DEPRECATED: use true lattice parameter, not A to a.u. conversion factor
     file V.pbe-spnl-rrkjus_psl.1.0.0.UPF: wavefunction(s)  3P 3D renormalized
     file La.pbe-spfn-rrkjus_psl.1.0.0.UPF: wavefunction(s)  4F renormalized

     **************************************************************************
     Initializing libbeef V0.1.2 with the BEEF-vdW functional.
     Citation: Wellendorff et al., PRB 85, 235149 (2012).
     **************************************************************************


     IMPORTANT: XC functional enforced from input :
     Exchange-correlation= BEEF-VDW
                           (   1   4  43  14   2   0   0)
     Any further DFT definition will be discarded
     Please, verify this is what you really want


     Subspace diagonalization in iterative solution of the eigenvalue problem:
     a serial algorithm will be used


     Parallelization info
     --------------------
     sticks:   dense  smooth     PW     G-vecs:    dense   smooth      PW
     Min         157      62     17                37097     9372    1377
     Max         158      63     18                37106     9395    1388
     Sum        5819    2313    645              1372717   347033   51187



     bravais-lattice index     =            0
     lattice parameter (alat)  =       1.8897  a.u.
     unit-cell volume          =    6279.9469 (a.u.)^3
     number of atoms/cell      =           12
     number of atomic types    =            2
     number of electrons       =       144.00
     number of Kohn-Sham states=           86
     kinetic-energy cutoff     =      55.1240  Ry
     charge density cutoff     =     551.2396  Ry
     convergence threshold     =      1.0E-05
     mixing beta               =       0.1000
     number of iterations used =           10  plain     mixing
     Exchange-correlation= BEEF-VDW
                           (   1   4  43  14   2   0   0)

     celldm(1)=   1.889726  celldm(2)=   0.000000  celldm(3)=   0.000000
     celldm(4)=   0.000000  celldm(5)=   0.000000  celldm(6)=   0.000000

     crystal axes: (cart. coord. in units of alat)
               a(1) = (   6.268188   0.000000   0.000000 )  
               a(2) = (   2.086132   5.910858   0.000000 )  
               a(3) = (   0.000000   0.000000  25.116951 )  

     reciprocal axes: (cart. coord. in units 2 pi/alat)
               b(1) = (  0.159536 -0.056305  0.000000 )  
               b(2) = (  0.000000  0.169180  0.000000 )  
               b(3) = (  0.000000  0.000000  0.039814 )  


     PseudoPot. # 1 for V  read from file:
     ../pseudo/V.pbe-spnl-rrkjus_psl.1.0.0.UPF
     MD5 check sum: 79b3eb63147daf0b665d9f1bcc691206
     Pseudo is Ultrasoft + core correction, Zval = 13.0
     Generated using "atomic" code by A. Dal Corso v.6.2.2
     Using radial grid of 1181 points,  6 beta functions with: 
                l(1) =   0
                l(2) =   0
                l(3) =   1
                l(4) =   1
                l(5) =   2
                l(6) =   2
     Q(r) pseudized with 0 coefficients 


     PseudoPot. # 2 for La read from file:
     ../pseudo/La.pbe-spfn-rrkjus_psl.1.0.0.UPF
     MD5 check sum: e3bc141c2ecb461b8d0a035ce9ac970e
     Pseudo is Ultrasoft + core correction, Zval = 11.0
     Generated using "atomic" code by A. Dal Corso v.6.2.2
     Using radial grid of 1253 points,  8 beta functions with: 
                l(1) =   0
                l(2) =   0
                l(3) =   1
                l(4) =   1
                l(5) =   2
                l(6) =   2
                l(7) =   3
                l(8) =   3
     Q(r) pseudized with 0 coefficients 


     atomic species   valence    mass     pseudopotential
        V             13.00    50.94150     V ( 1.00)
        La            11.00   138.90547     La( 1.00)

     No symmetry found



   Cartesian axes

     site n.     atom                  positions (alat units)
         1           V   tau(   1) = (   0.0000000   0.0000000  10.0000000  )
         2           V   tau(   2) = (   4.1771604   2.9554288  10.0000000  )
         3           La  tau(   3) = (   3.1340942   0.0000000  10.0000000  )
         4           La  tau(   4) = (   1.0430662   2.9554288  10.0000000  )
         5           V   tau(   5) = (   6.2681884   4.4348751  12.5584757  )
         6           V   tau(   6) = (   2.0910280   1.4794463  12.5584757  )
         7           La  tau(   7) = (   3.1340942   4.4348751  12.5584757  )
         8           La  tau(   8) = (   5.2251223   1.4794463  12.5584757  )
         9           V   tau(   9) = (   4.1834841   2.9598908  14.5480284  )
        10           V   tau(  10) = (   0.0062500   0.0044410  14.5479970  )
        11           La  tau(  11) = (   1.0476269   2.9587170  15.2226249  )
        12           La  tau(  12) = (   3.1386967   0.0032011  15.2226482  )

     number of k points=    74  Fermi-Dirac smearing, width (Ry)=  0.0100
                       cart. coord. in units 2pi/alat
        k(    1) = (   0.0000000   0.0000000   0.0000000), wk =   0.0138889
        k(    2) = (   0.0000000   0.0140983   0.0000000), wk =   0.0277778
        k(    3) = (   0.0000000   0.0281967   0.0000000), wk =   0.0277778
        k(    4) = (   0.0000000   0.0422950   0.0000000), wk =   0.0277778
        k(    5) = (   0.0000000   0.0563934   0.0000000), wk =   0.0277778
        k(    6) = (   0.0000000   0.0704917   0.0000000), wk =   0.0277778
        k(    7) = (   0.0000000  -0.0845901   0.0000000), wk =   0.0138889
        k(    8) = (   0.0132946  -0.0046921   0.0000000), wk =   0.0277778
        k(    9) = (   0.0132946   0.0094062   0.0000000), wk =   0.0277778
        k(   10) = (   0.0132946   0.0235046   0.0000000), wk =   0.0277778
        k(   11) = (   0.0132946   0.0376029   0.0000000), wk =   0.0277778
        k(   12) = (   0.0132946   0.0517013   0.0000000), wk =   0.0277778
        k(   13) = (   0.0132946   0.0657996   0.0000000), wk =   0.0277778
        k(   14) = (   0.0132946  -0.0892822   0.0000000), wk =   0.0277778
        k(   15) = (   0.0132946  -0.0751838   0.0000000), wk =   0.0277778
        k(   16) = (   0.0132946  -0.0610855   0.0000000), wk =   0.0277778
        k(   17) = (   0.0132946  -0.0469872   0.0000000), wk =   0.0277778
        k(   18) = (   0.0132946  -0.0328888   0.0000000), wk =   0.0277778
        k(   19) = (   0.0132946  -0.0187905   0.0000000), wk =   0.0277778
        k(   20) = (   0.0265893  -0.0093842   0.0000000), wk =   0.0277778
        k(   21) = (   0.0265893   0.0047141   0.0000000), wk =   0.0277778
        k(   22) = (   0.0265893   0.0188125   0.0000000), wk =   0.0277778
        k(   23) = (   0.0265893   0.0329108   0.0000000), wk =   0.0277778
        k(   24) = (   0.0265893   0.0470092   0.0000000), wk =   0.0277778
        k(   25) = (   0.0265893   0.0611075   0.0000000), wk =   0.0277778
        k(   26) = (   0.0265893  -0.0939743   0.0000000), wk =   0.0277778
        k(   27) = (   0.0265893  -0.0798760   0.0000000), wk =   0.0277778
        k(   28) = (   0.0265893  -0.0657776   0.0000000), wk =   0.0277778
        k(   29) = (   0.0265893  -0.0516793   0.0000000), wk =   0.0277778
        k(   30) = (   0.0265893  -0.0375809   0.0000000), wk =   0.0277778
        k(   31) = (   0.0265893  -0.0234826   0.0000000), wk =   0.0277778
        k(   32) = (   0.0398839  -0.0140763   0.0000000), wk =   0.0277778
        k(   33) = (   0.0398839   0.0000220   0.0000000), wk =   0.0277778
        k(   34) = (   0.0398839   0.0141204   0.0000000), wk =   0.0277778
        k(   35) = (   0.0398839   0.0282187   0.0000000), wk =   0.0277778
        k(   36) = (   0.0398839   0.0423171   0.0000000), wk =   0.0277778
        k(   37) = (   0.0398839   0.0564154   0.0000000), wk =   0.0277778
        k(   38) = (   0.0398839  -0.0986664   0.0000000), wk =   0.0277778
        k(   39) = (   0.0398839  -0.0845681   0.0000000), wk =   0.0277778
        k(   40) = (   0.0398839  -0.0704697   0.0000000), wk =   0.0277778
        k(   41) = (   0.0398839  -0.0563714   0.0000000), wk =   0.0277778
        k(   42) = (   0.0398839  -0.0422730   0.0000000), wk =   0.0277778
        k(   43) = (   0.0398839  -0.0281747   0.0000000), wk =   0.0277778
        k(   44) = (   0.0531786  -0.0187684   0.0000000), wk =   0.0277778
        k(   45) = (   0.0531786  -0.0046701   0.0000000), wk =   0.0277778
        k(   46) = (   0.0531786   0.0094283   0.0000000), wk =   0.0277778
        k(   47) = (   0.0531786   0.0235266   0.0000000), wk =   0.0277778
        k(   48) = (   0.0531786   0.0376250   0.0000000), wk =   0.0277778
        k(   49) = (   0.0531786   0.0517233   0.0000000), wk =   0.0277778
        k(   50) = (   0.0531786  -0.1033585   0.0000000), wk =   0.0277778
        k(   51) = (   0.0531786  -0.0892602   0.0000000), wk =   0.0277778
        k(   52) = (   0.0531786  -0.0751618   0.0000000), wk =   0.0277778
        k(   53) = (   0.0531786  -0.0610635   0.0000000), wk =   0.0277778
        k(   54) = (   0.0531786  -0.0469651   0.0000000), wk =   0.0277778
        k(   55) = (   0.0531786  -0.0328668   0.0000000), wk =   0.0277778
        k(   56) = (   0.0664732  -0.0234605   0.0000000), wk =   0.0277778
        k(   57) = (   0.0664732  -0.0093622   0.0000000), wk =   0.0277778
        k(   58) = (   0.0664732   0.0047362   0.0000000), wk =   0.0277778
        k(   59) = (   0.0664732   0.0188345   0.0000000), wk =   0.0277778
        k(   60) = (   0.0664732   0.0329329   0.0000000), wk =   0.0277778
        k(   61) = (   0.0664732   0.0470312   0.0000000), wk =   0.0277778
        k(   62) = (   0.0664732  -0.1080506   0.0000000), wk =   0.0277778
        k(   63) = (   0.0664732  -0.0939523   0.0000000), wk =   0.0277778
        k(   64) = (   0.0664732  -0.0798539   0.0000000), wk =   0.0277778
        k(   65) = (   0.0664732  -0.0657556   0.0000000), wk =   0.0277778
        k(   66) = (   0.0664732  -0.0516572   0.0000000), wk =   0.0277778
        k(   67) = (   0.0664732  -0.0375589   0.0000000), wk =   0.0277778
        k(   68) = (  -0.0797679   0.0281526   0.0000000), wk =   0.0138889
        k(   69) = (  -0.0797679   0.0422510   0.0000000), wk =   0.0277778
        k(   70) = (  -0.0797679   0.0563493   0.0000000), wk =   0.0277778
        k(   71) = (  -0.0797679   0.0704477   0.0000000), wk =   0.0277778
        k(   72) = (  -0.0797679   0.0845460   0.0000000), wk =   0.0277778
        k(   73) = (  -0.0797679   0.0986444   0.0000000), wk =   0.0277778
        k(   74) = (  -0.0797679  -0.0564374   0.0000000), wk =   0.0138889

     Dense  grid:  1372717 G-vectors     FFT dimensions: (  90,  90, 360)

     Smooth grid:   347033 G-vectors     FFT dimensions: (  60,  60, 225)

     Estimated max dynamical RAM per process >     477.64 MB

     Estimated total dynamical RAM >      17.26 GB

     Check: negative core charge=   -0.000001

     Initial potential from superposition of free atoms

     starting charge  143.81582, renormalised to  144.00000

     negative rho (up, down):  1.282E-03 0.000E+00


     %%%%%%%%%%%%%%%%%%%%%%%%%%%%%%%%%%%%%%%%%%%%%%%%%%%%%%%%%%%%%%%%%%%%%%%%
     %                                                                      %
     % You are using vdW-DF, which was implemented by the Thonhauser group. %
     % Please cite the following two papers that made this development      %
     % possible and the two reviews that describe the various versions:     %
     %                                                                      %
     %   T. Thonhauser et al., PRL 115, 136402 (2015).                      %
     %   T. Thonhauser et al., PRB 76, 125112 (2007).                       %
     %   K. Berland et al., Rep. Prog. Phys. 78, 066501 (2015).             %
     %   D.C. Langreth et al., J. Phys.: Condens. Matter 21, 084203 (2009). %
     %                                                                      %
     %                                                                      %
     % If you are calculating the stress with vdW-DF, please also cite:     %
     %                                                                      %
     %   R. Sabatini et al., J. Phys.: Condens. Matter 24, 424209 (2012).   %
     %                                                                      %
     %%%%%%%%%%%%%%%%%%%%%%%%%%%%%%%%%%%%%%%%%%%%%%%%%%%%%%%%%%%%%%%%%%%%%%%%



     Adding external electric field

     Computed dipole along edir(3) : 
        Dipole                0.0401 Ry au,          0.1020 Debye
        Dipole field          0.0001 Ry au, 

        Potential amp.       -0.0074 Ry
        Total length         46.2776 bohr

     Starting wfcs are  180 randomized atomic wfcs

     total cpu time spent up to now is      339.2 secs

     Self-consistent Calculation

     iteration #  1     ecut=    55.12 Ry     beta= 0.10
     Davidson diagonalization with overlap
     ethr =  1.00E-02,  avg # of iterations =  2.0

     negative rho (up, down):  1.174E-03 0.000E+00

     Adding external electric field

     Computed dipole along edir(3) : 
        Dipole               -3.0545 Ry au,         -7.7639 Debye
        Dipole field         -0.0061 Ry au, 

        Potential amp.        0.5657 Ry
        Total length         46.2776 bohr


     total cpu time spent up to now is      727.9 secs

     total energy              =   -1637.11794674 Ry
     estimated scf accuracy    <      27.52655273 Ry

     iteration #  2     ecut=    55.12 Ry     beta= 0.10
     Davidson diagonalization with overlap
     ethr =  1.00E-02,  avg # of iterations =  8.1

     negative rho (up, down):  3.020E-03 0.000E+00

     Adding external electric field

     Computed dipole along edir(3) : 
        Dipole                0.7998 Ry au,          2.0328 Debye
        Dipole field          0.0016 Ry au, 

        Potential amp.       -0.1481 Ry
        Total length         46.2776 bohr


     total cpu time spent up to now is     1301.2 secs

     total energy              =   -1635.88588917 Ry
     estimated scf accuracy    <     392.39076210 Ry

     iteration #  3     ecut=    55.12 Ry     beta= 0.10
     Davidson diagonalization with overlap
     ethr =  1.00E-02,  avg # of iterations =  3.4

     negative rho (up, down):  2.128E-03 0.000E+00

     Adding external electric field

     Computed dipole along edir(3) : 
        Dipole                0.8109 Ry au,          2.0611 Debye
        Dipole field          0.0016 Ry au, 

        Potential amp.       -0.1502 Ry
        Total length         46.2776 bohr


     total cpu time spent up to now is     1696.9 secs

     total energy              =   -1639.98232491 Ry
     estimated scf accuracy    <      28.15549977 Ry

     iteration #  4     ecut=    55.12 Ry     beta= 0.10
     Davidson diagonalization with overlap
     ethr =  1.00E-02,  avg # of iterations =  1.5

     negative rho (up, down):  1.725E-03 0.000E+00

     Adding external electric field

     Computed dipole along edir(3) : 
        Dipole                0.9466 Ry au,          2.4059 Debye
        Dipole field          0.0019 Ry au, 

        Potential amp.       -0.1753 Ry
        Total length         46.2776 bohr


     total cpu time spent up to now is     2028.1 secs

     total energy              =   -1640.23007313 Ry
     estimated scf accuracy    <       3.14252211 Ry

     iteration #  5     ecut=    55.12 Ry     beta= 0.10
     Davidson diagonalization with overlap
     ethr =  2.18E-03,  avg # of iterations = 11.4

     negative rho (up, down):  4.100E-03 0.000E+00

     Adding external electric field

     Computed dipole along edir(3) : 
        Dipole                0.4841 Ry au,          1.2305 Debye
        Dipole field          0.0010 Ry au, 

        Potential amp.       -0.0897 Ry
        Total length         46.2776 bohr


     total cpu time spent up to now is     2721.4 secs

     total energy              =   -1640.75005333 Ry
     estimated scf accuracy    <      65.74969638 Ry

     iteration #  6     ecut=    55.12 Ry     beta= 0.10
     Davidson diagonalization with overlap
     ethr =  2.18E-03,  avg # of iterations =  1.4

     negative rho (up, down):  3.191E-03 0.000E+00

     Adding external electric field

     Computed dipole along edir(3) : 
        Dipole               -0.1860 Ry au,         -0.4728 Debye
        Dipole field         -0.0004 Ry au, 

        Potential amp.        0.0345 Ry
        Total length         46.2776 bohr


     total cpu time spent up to now is     3036.1 secs

     total energy              =   -1640.42887463 Ry
     estimated scf accuracy    <      11.23599559 Ry

     iteration #  7     ecut=    55.12 Ry     beta= 0.10
     Davidson diagonalization with overlap
     ethr =  2.18E-03,  avg # of iterations =  6.2

     negative rho (up, down):  3.872E-03 0.000E+00

     Adding external electric field

     Computed dipole along edir(3) : 
        Dipole                0.4918 Ry au,          1.2501 Debye
        Dipole field          0.0010 Ry au, 

        Potential amp.       -0.0911 Ry
        Total length         46.2776 bohr


     total cpu time spent up to now is     3438.0 secs

     total energy              =   -1640.02982940 Ry
     estimated scf accuracy    <      27.00899414 Ry

     iteration #  8     ecut=    55.12 Ry     beta= 0.10
     Davidson diagonalization with overlap
     ethr =  2.18E-03,  avg # of iterations =  2.0

     negative rho (up, down):  2.839E-03 0.000E+00

     Adding external electric field

     Computed dipole along edir(3) : 
        Dipole                0.1234 Ry au,          0.3137 Debye
        Dipole field          0.0002 Ry au, 

        Potential amp.       -0.0229 Ry
        Total length         46.2776 bohr


     total cpu time spent up to now is     3776.6 secs

     total energy              =   -1640.86468905 Ry
     estimated scf accuracy    <      25.24298637 Ry

     iteration #  9     ecut=    55.12 Ry     beta= 0.10
     Davidson diagonalization with overlap
     ethr =  2.18E-03,  avg # of iterations =  1.2

     negative rho (up, down):  3.855E-03 0.000E+00

     Adding external electric field

     Computed dipole along edir(3) : 
        Dipole                0.1795 Ry au,          0.4563 Debye
        Dipole field          0.0004 Ry au, 

        Potential amp.       -0.0332 Ry
        Total length         46.2776 bohr


     total cpu time spent up to now is     4081.6 secs

     total energy              =   -1640.94404349 Ry
     estimated scf accuracy    <       5.65362769 Ry

     iteration # 10     ecut=    55.12 Ry     beta= 0.10
     Davidson diagonalization with overlap
     ethr =  2.18E-03,  avg # of iterations =  1.0

     negative rho (up, down):  4.470E-03 0.000E+00

     Adding external electric field

     Computed dipole along edir(3) : 
        Dipole                0.2045 Ry au,          0.5199 Debye
        Dipole field          0.0004 Ry au, 

        Potential amp.       -0.0379 Ry
        Total length         46.2776 bohr


     total cpu time spent up to now is     4415.8 secs

     total energy              =   -1640.91552875 Ry
     estimated scf accuracy    <       6.93311991 Ry

     iteration # 11     ecut=    55.12 Ry     beta= 0.10
     Davidson diagonalization with overlap
     ethr =  2.18E-03,  avg # of iterations =  1.0

     negative rho (up, down):  4.553E-03 0.000E+00

     Adding external electric field

     Computed dipole along edir(3) : 
        Dipole                0.1662 Ry au,          0.4224 Debye
        Dipole field          0.0003 Ry au, 

        Potential amp.       -0.0308 Ry
        Total length         46.2776 bohr


     total cpu time spent up to now is     4737.5 secs

     total energy              =   -1640.87336483 Ry
     estimated scf accuracy    <       4.27738059 Ry

     iteration # 12     ecut=    55.12 Ry     beta= 0.10
     Davidson diagonalization with overlap
     ethr =  2.18E-03,  avg # of iterations =  1.0

     negative rho (up, down):  4.238E-03 0.000E+00

     Adding external electric field

     Computed dipole along edir(3) : 
        Dipole                0.1539 Ry au,          0.3911 Debye
        Dipole field          0.0003 Ry au, 

        Potential amp.       -0.0285 Ry
        Total length         46.2776 bohr


     total cpu time spent up to now is     5054.4 secs

     total energy              =   -1640.88658860 Ry
     estimated scf accuracy    <       0.40806589 Ry

     iteration # 13     ecut=    55.12 Ry     beta= 0.10
     Davidson diagonalization with overlap
     ethr =  2.83E-04,  avg # of iterations =  2.0

     negative rho (up, down):  3.921E-03 0.000E+00

     Adding external electric field

     Computed dipole along edir(3) : 
        Dipole                0.1673 Ry au,          0.4253 Debye
        Dipole field          0.0003 Ry au, 

        Potential amp.       -0.0310 Ry
        Total length         46.2776 bohr


     total cpu time spent up to now is     5387.1 secs

     total energy              =   -1640.89236765 Ry
     estimated scf accuracy    <       0.03661414 Ry

     iteration # 14     ecut=    55.12 Ry     beta= 0.10
     Davidson diagonalization with overlap
     c_bands:  2 eigenvalues not converged
     c_bands:  1 eigenvalues not converged
     c_bands:  1 eigenvalues not converged
     c_bands:  1 eigenvalues not converged
     c_bands:  1 eigenvalues not converged
     c_bands:  2 eigenvalues not converged
     c_bands:  1 eigenvalues not converged
     c_bands:  1 eigenvalues not converged
     c_bands:  1 eigenvalues not converged
     c_bands:  1 eigenvalues not converged
     c_bands:  1 eigenvalues not converged
     c_bands:  1 eigenvalues not converged
     c_bands:  1 eigenvalues not converged
     c_bands:  3 eigenvalues not converged
     c_bands:  1 eigenvalues not converged
     c_bands:  1 eigenvalues not converged
     c_bands:  1 eigenvalues not converged
     c_bands:  2 eigenvalues not converged
     c_bands:  1 eigenvalues not converged
     c_bands:  1 eigenvalues not converged
     c_bands:  1 eigenvalues not converged
     c_bands:  1 eigenvalues not converged
     c_bands:  1 eigenvalues not converged
     c_bands:  1 eigenvalues not converged
     c_bands:  3 eigenvalues not converged
     c_bands:  2 eigenvalues not converged
     c_bands:  1 eigenvalues not converged
     c_bands:  2 eigenvalues not converged
     c_bands:  1 eigenvalues not converged
     c_bands:  1 eigenvalues not converged
     c_bands:  5 eigenvalues not converged
     c_bands:  2 eigenvalues not converged
     c_bands:  2 eigenvalues not converged
     c_bands:  3 eigenvalues not converged
     c_bands:  1 eigenvalues not converged
     c_bands:  5 eigenvalues not converged
     c_bands:  2 eigenvalues not converged
     ethr =  2.54E-05,  avg # of iterations = 18.1

     negative rho (up, down):  3.315E-03 0.000E+00

     Adding external electric field

     Computed dipole along edir(3) : 
        Dipole                0.1841 Ry au,          0.4678 Debye
        Dipole field          0.0004 Ry au, 

        Potential amp.       -0.0341 Ry
        Total length         46.2776 bohr


     total cpu time spent up to now is     6193.3 secs

     total energy              =   -1640.90513328 Ry
     estimated scf accuracy    <       0.15705875 Ry

     iteration # 15     ecut=    55.12 Ry     beta= 0.10
     Davidson diagonalization with overlap
     c_bands:  1 eigenvalues not converged
     ethr =  2.54E-05,  avg # of iterations =  2.4

     negative rho (up, down):  2.958E-03 0.000E+00

     Adding external electric field

     Computed dipole along edir(3) : 
        Dipole                0.1927 Ry au,          0.4899 Debye
        Dipole field          0.0004 Ry au, 

        Potential amp.       -0.0357 Ry
        Total length         46.2776 bohr


     total cpu time spent up to now is     6513.6 secs

     total energy              =   -1640.90440741 Ry
     estimated scf accuracy    <       0.05761260 Ry

     iteration # 16     ecut=    55.12 Ry     beta= 0.10
     Davidson diagonalization with overlap
     ethr =  2.54E-05,  avg # of iterations =  1.0

     negative rho (up, down):  3.397E-03 0.000E+00

     Adding external electric field

     Computed dipole along edir(3) : 
        Dipole                0.1715 Ry au,          0.4358 Debye
        Dipole field          0.0003 Ry au, 

        Potential amp.       -0.0318 Ry
        Total length         46.2776 bohr


     total cpu time spent up to now is     6816.2 secs

     total energy              =   -1640.90120125 Ry
     estimated scf accuracy    <       0.05081241 Ry

     iteration # 17     ecut=    55.12 Ry     beta= 0.10
     Davidson diagonalization with overlap
     ethr =  2.54E-05,  avg # of iterations =  1.9

     negative rho (up, down):  3.046E-03 0.000E+00

     Adding external electric field

     Computed dipole along edir(3) : 
        Dipole                0.1623 Ry au,          0.4126 Debye
        Dipole field          0.0003 Ry au, 

        Potential amp.       -0.0301 Ry
        Total length         46.2776 bohr


     total cpu time spent up to now is     7155.2 secs

     total energy              =   -1640.90244720 Ry
     estimated scf accuracy    <       0.01291003 Ry

     iteration # 18     ecut=    55.12 Ry     beta= 0.10
     Davidson diagonalization with overlap
     c_bands:  1 eigenvalues not converged
     c_bands:  1 eigenvalues not converged
     c_bands:  1 eigenvalues not converged
     c_bands:  1 eigenvalues not converged
     ethr =  8.97E-06,  avg # of iterations =  5.5

     negative rho (up, down):  2.895E-03 0.000E+00

     Adding external electric field

     Computed dipole along edir(3) : 
        Dipole                0.1581 Ry au,          0.4019 Debye
        Dipole field          0.0003 Ry au, 

        Potential amp.       -0.0293 Ry
        Total length         46.2776 bohr


     total cpu time spent up to now is     7528.0 secs

     total energy              =   -1640.90304724 Ry
     estimated scf accuracy    <       0.00855722 Ry

     iteration # 19     ecut=    55.12 Ry     beta= 0.10
     Davidson diagonalization with overlap
     c_bands:  1 eigenvalues not converged
     c_bands:  1 eigenvalues not converged
     c_bands:  2 eigenvalues not converged
     c_bands:  1 eigenvalues not converged
     ethr =  5.94E-06,  avg # of iterations =  6.8

     negative rho (up, down):  2.465E-03 0.000E+00

     Adding external electric field

     Computed dipole along edir(3) : 
        Dipole                0.1633 Ry au,          0.4150 Debye
        Dipole field          0.0003 Ry au, 

        Potential amp.       -0.0302 Ry
        Total length         46.2776 bohr


     total cpu time spent up to now is     7929.9 secs

     total energy              =   -1640.90347286 Ry
     estimated scf accuracy    <       0.00173256 Ry

     iteration # 20     ecut=    55.12 Ry     beta= 0.10
     Davidson diagonalization with overlap
     c_bands:  1 eigenvalues not converged
     c_bands:  1 eigenvalues not converged
     c_bands:  1 eigenvalues not converged
     c_bands:  1 eigenvalues not converged
     c_bands:  1 eigenvalues not converged
     c_bands:  1 eigenvalues not converged
     c_bands:  1 eigenvalues not converged
     c_bands:  2 eigenvalues not converged
     c_bands:  2 eigenvalues not converged
     ethr =  1.20E-06,  avg # of iterations = 12.1

     negative rho (up, down):  2.034E-03 0.000E+00

     Adding external electric field

     Computed dipole along edir(3) : 
        Dipole                0.1640 Ry au,          0.4169 Debye
        Dipole field          0.0003 Ry au, 

        Potential amp.       -0.0304 Ry
        Total length         46.2776 bohr


     total cpu time spent up to now is     8592.7 secs

     total energy              =   -1640.90405262 Ry
     estimated scf accuracy    <       0.00108732 Ry

     iteration # 21     ecut=    55.12 Ry     beta= 0.10
     Davidson diagonalization with overlap
     c_bands:  1 eigenvalues not converged
     c_bands:  1 eigenvalues not converged
     c_bands:  1 eigenvalues not converged
     ethr =  7.55E-07,  avg # of iterations =  2.5

     negative rho (up, down):  2.081E-03 0.000E+00

     Adding external electric field

     Computed dipole along edir(3) : 
        Dipole                0.1750 Ry au,          0.4447 Debye
        Dipole field          0.0004 Ry au, 

        Potential amp.       -0.0324 Ry
        Total length         46.2776 bohr


     total cpu time spent up to now is     8943.9 secs

     total energy              =   -1640.90389339 Ry
     estimated scf accuracy    <       0.00096766 Ry

     iteration # 22     ecut=    55.12 Ry     beta= 0.10
     Davidson diagonalization with overlap
     ethr =  6.72E-07,  avg # of iterations =  5.9

     negative rho (up, down):  2.103E-03 0.000E+00

     Adding external electric field

     Computed dipole along edir(3) : 
        Dipole                0.1738 Ry au,          0.4418 Debye
        Dipole field          0.0003 Ry au, 

        Potential amp.       -0.0322 Ry
        Total length         46.2776 bohr


     total cpu time spent up to now is     9373.0 secs

     total energy              =   -1640.90407479 Ry
     estimated scf accuracy    <       0.00034438 Ry

     iteration # 23     ecut=    55.12 Ry     beta= 0.10
     Davidson diagonalization with overlap
     ethr =  2.39E-07,  avg # of iterations =  6.2

     negative rho (up, down):  2.180E-03 0.000E+00

     Adding external electric field

     Computed dipole along edir(3) : 
        Dipole                0.1702 Ry au,          0.4325 Debye
        Dipole field          0.0003 Ry au, 

        Potential amp.       -0.0315 Ry
        Total length         46.2776 bohr


     total cpu time spent up to now is     9816.7 secs

     total energy              =   -1640.90406536 Ry
     estimated scf accuracy    <       0.00047708 Ry

     iteration # 24     ecut=    55.12 Ry     beta= 0.10
     Davidson diagonalization with overlap
     ethr =  2.39E-07,  avg # of iterations =  2.1

     negative rho (up, down):  2.326E-03 0.000E+00

     Adding external electric field

     Computed dipole along edir(3) : 
        Dipole                0.1747 Ry au,          0.4440 Debye
        Dipole field          0.0003 Ry au, 

        Potential amp.       -0.0323 Ry
        Total length         46.2776 bohr


     total cpu time spent up to now is    10189.5 secs

     total energy              =   -1640.90407737 Ry
     estimated scf accuracy    <       0.00019455 Ry

     iteration # 25     ecut=    55.12 Ry     beta= 0.10
     Davidson diagonalization with overlap
     ethr =  1.35E-07,  avg # of iterations =  4.4

     negative rho (up, down):  2.063E-03 0.000E+00

     Adding external electric field

     Computed dipole along edir(3) : 
        Dipole                0.1715 Ry au,          0.4358 Debye
        Dipole field          0.0003 Ry au, 

        Potential amp.       -0.0318 Ry
        Total length         46.2776 bohr


     total cpu time spent up to now is    10564.0 secs

     total energy              =   -1640.90409313 Ry
     estimated scf accuracy    <       0.00008210 Ry

     iteration # 26     ecut=    55.12 Ry     beta= 0.10
     Davidson diagonalization with overlap
     ethr =  5.70E-08,  avg # of iterations =  8.8

     negative rho (up, down):  2.009E-03 0.000E+00

     Adding external electric field

     Computed dipole along edir(3) : 
        Dipole                0.1733 Ry au,          0.4406 Debye
        Dipole field          0.0003 Ry au, 

        Potential amp.       -0.0321 Ry
        Total length         46.2776 bohr


     total cpu time spent up to now is    11175.3 secs

     total energy              =   -1640.90412497 Ry
     estimated scf accuracy    <       0.00009395 Ry

     iteration # 27     ecut=    55.12 Ry     beta= 0.10
     Davidson diagonalization with overlap
     ethr =  5.70E-08,  avg # of iterations =  2.0

     negative rho (up, down):  1.878E-03 0.000E+00

     Adding external electric field

     Computed dipole along edir(3) : 
        Dipole                0.1740 Ry au,          0.4423 Debye
        Dipole field          0.0003 Ry au, 

        Potential amp.       -0.0322 Ry
        Total length         46.2776 bohr


     total cpu time spent up to now is    11540.1 secs

     total energy              =   -1640.90413757 Ry
     estimated scf accuracy    <       0.00002690 Ry

     iteration # 28     ecut=    55.12 Ry     beta= 0.10
     Davidson diagonalization with overlap
     ethr =  1.87E-08,  avg # of iterations =  5.4

     negative rho (up, down):  1.774E-03 0.000E+00

     Adding external electric field

     Computed dipole along edir(3) : 
        Dipole                0.1738 Ry au,          0.4417 Debye
        Dipole field          0.0003 Ry au, 

        Potential amp.       -0.0322 Ry
        Total length         46.2776 bohr


     total cpu time spent up to now is    11955.8 secs

     total energy              =   -1640.90414717 Ry
     estimated scf accuracy    <       0.00001581 Ry

     iteration # 29     ecut=    55.12 Ry     beta= 0.10
     Davidson diagonalization with overlap
     ethr =  1.10E-08,  avg # of iterations =  2.9

     negative rho (up, down):  8.183E-04 0.000E+00

     Adding external electric field

     Computed dipole along edir(3) : 
        Dipole                0.1645 Ry au,          0.4180 Debye
        Dipole field          0.0003 Ry au, 

        Potential amp.       -0.0305 Ry
        Total length         46.2776 bohr


     total cpu time spent up to now is    12316.1 secs

     End of self-consistent calculation

          k = 0.0000 0.0000 0.0000 ( 43279 PWs)   bands (ev):

   -62.5454 -62.5442 -62.5049 -62.5037 -62.3450 -62.3434 -36.4226 -36.4214
   -36.3693 -36.3660 -36.3456 -36.3372 -36.3249 -36.3158 -36.2906 -36.2894
   -36.2673 -36.2638 -36.2354 -36.2202 -36.2092 -36.2036 -36.1265 -36.1234
   -31.0294 -30.9334 -30.7919 -30.6928 -29.9348 -29.8414 -15.1955 -15.0125
   -14.8446 -14.7454 -14.7349 -14.6900 -14.6589 -14.5657 -14.5330 -14.4940
   -14.3970 -14.2375 -14.0376 -13.8686 -13.7079 -13.6966 -13.5586 -13.3621
    -1.9250  -1.0156  -1.0118  -0.8227  -0.7724  -0.3129  -0.0681  -0.0095
     0.1600   0.3984   0.4227   0.6308   0.7644   1.0190   1.0951   1.2219
     1.2338   1.2570   1.2769   1.3199   1.5119   1.5551   1.5647   1.7376
     1.8323   2.1309   2.1473   2.1781   2.2338   2.2978   2.4589   2.5253
     2.5571   2.5809   2.6722   2.7785   2.7868   3.0255

          k = 0.0000 0.0141 0.0000 ( 43295 PWs)   bands (ev):

   -62.5454 -62.5442 -62.5049 -62.5038 -62.3450 -62.3434 -36.4226 -36.4215
   -36.3692 -36.3660 -36.3453 -36.3369 -36.3253 -36.3161 -36.2906 -36.2894
   -36.2673 -36.2640 -36.2350 -36.2201 -36.2093 -36.2040 -36.1264 -36.1235
   -31.0276 -30.9350 -30.7901 -30.6943 -29.9331 -29.8429 -15.1811 -14.9982
   -14.8429 -14.7470 -14.7371 -14.6926 -14.6555 -14.5664 -14.5349 -14.4969
   -14.3813 -14.2561 -14.0571 -13.8647 -13.7066 -13.6990 -13.5622 -13.3827
    -1.8741  -0.9773  -0.9762  -0.7870  -0.7343  -0.2761  -0.0406   0.0068
     0.2010   0.4328   0.4376   0.6424   0.7772   1.0280   1.0880   1.2275
     1.2335   1.2666   1.2730   1.3196   1.5098   1.5521   1.5642   1.7342
     1.8408   2.0925   2.1384   2.1734   2.2181   2.2970   2.3860   2.4257
     2.4394   2.5029   2.6599   2.8088   2.8338   3.0513

          k = 0.0000 0.0282 0.0000 ( 43303 PWs)   bands (ev):

   -62.5453 -62.5443 -62.5048 -62.5038 -62.3450 -62.3434 -36.4227 -36.4216
   -36.3691 -36.3661 -36.3444 -36.3359 -36.3264 -36.3172 -36.2906 -36.2895
   -36.2672 -36.2642 -36.2336 -36.2198 -36.2096 -36.2054 -36.1264 -36.1237
   -31.0226 -30.9395 -30.7847 -30.6989 -29.9281 -29.8472 -15.1388 -14.9561
   -14.8381 -14.7504 -14.7432 -14.7001 -14.6464 -14.5679 -14.5405 -14.5047
   -14.3356 -14.3103 -14.1134 -13.8538 -13.7063 -13.7023 -13.5726 -13.4421
    -1.7262  -0.8783  -0.8627  -0.6856  -0.6254  -0.1679   0.0315   0.0546
     0.3196   0.4592   0.5507   0.6743   0.8131   1.0470   1.0623   1.2333
     1.2361   1.2556   1.2981   1.3175   1.5048   1.5443   1.5653   1.7217
     1.8622   1.9601   2.1286   2.1348   2.1354   2.1868   2.2128   2.2952
     2.3577   2.4471   2.6010   2.7639   2.8754   3.0470

          k = 0.0000 0.0423 0.0000 ( 43353 PWs)   bands (ev):

   -62.5453 -62.5444 -62.5047 -62.5039 -62.3449 -62.3435 -36.4228 -36.4219
   -36.3688 -36.3664 -36.3428 -36.3342 -36.3281 -36.3190 -36.2905 -36.2896
   -36.2670 -36.2646 -36.2314 -36.2194 -36.2102 -36.2074 -36.1263 -36.1240
   -31.0146 -30.9468 -30.7762 -30.7062 -29.9202 -29.8542 -15.0703 -14.8880
   -14.8304 -14.7535 -14.7528 -14.7109 -14.6339 -14.5691 -14.5493 -14.5161
   -14.3946 -14.2622 -14.2007 -13.8375 -13.7180 -13.6949 -13.5885 -13.5342
    -1.4957  -0.7312  -0.6880  -0.5348  -0.4621   0.0033   0.1127   0.1285
     0.4880   0.5013   0.7182   0.7212   0.8641   1.0061   1.0390   1.1941
     1.2449   1.2882   1.3043   1.3061   1.4958   1.5519   1.5640   1.6969
     1.7706   1.8992   1.9161   2.0459   2.0738   2.1318   2.1748   2.2467
     2.2914   2.3720   2.5056   2.6421   2.9729   2.9891

          k = 0.0000 0.0564 0.0000 ( 43349 PWs)   bands (ev):

   -62.5452 -62.5445 -62.5046 -62.5040 -62.3448 -62.3436 -36.4228 -36.4222
   -36.3684 -36.3667 -36.3408 -36.3321 -36.3304 -36.3213 -36.2905 -36.2898
   -36.2667 -36.2650 -36.2285 -36.2193 -36.2108 -36.2096 -36.1261 -36.1243
   -31.0043 -30.9564 -30.7654 -30.7158 -29.9101 -29.8634 -14.9793 -14.8202
   -14.7978 -14.7644 -14.7542 -14.7228 -14.6198 -14.5682 -14.5607 -14.5291
   -14.5013 -14.3107 -14.1646 -13.8175 -13.7335 -13.6863 -13.6478 -13.6080
    -1.2064  -0.5740  -0.4736  -0.3629  -0.2747   0.1418   0.2027   0.2325
     0.4935   0.7147   0.7534   0.8815   0.9160   0.9439   0.9581   1.1534
     1.2083   1.2917   1.2922   1.3243   1.4861   1.5564   1.6064   1.6611
     1.6929   1.7947   1.9426   1.9431   1.9810   2.1348   2.1386   2.2014
     2.2816   2.2865   2.4147   2.5357   2.7923   2.8159

          k = 0.0000 0.0705 0.0000 ( 43397 PWs)   bands (ev):

   -62.5451 -62.5446 -62.5045 -62.5041 -62.3448 -62.3436 -36.4229 -36.4224
   -36.3680 -36.3671 -36.3384 -36.3330 -36.3295 -36.3239 -36.2904 -36.2899
   -36.2664 -36.2655 -36.2254 -36.2201 -36.2117 -36.2112 -36.1259 -36.1246
   -30.9925 -30.9677 -30.7530 -30.7274 -29.8985 -29.8744 -14.8711 -14.8082
   -14.7784 -14.7517 -14.7360 -14.6864 -14.6247 -14.6019 -14.5737 -14.5646
   -14.5416 -14.4333 -14.0477 -13.7986 -13.7803 -13.7522 -13.6667 -13.6288
    -0.8940  -0.4975  -0.2598  -0.2109  -0.1082   0.0893   0.2921   0.4469
     0.4499   0.7106   0.7905   0.8446   0.9156   0.9892   1.0800   1.1190
     1.1305   1.2840   1.2913   1.3141   1.4831   1.5497   1.6500   1.6926
     1.7241   1.8180   1.8462   1.9010   1.9972   2.1233   2.1593   2.2182
     2.2270   2.2985   2.3112   2.4430   2.5372   2.6387

          k = 0.0000-0.0846 0.0000 ( 43338 PWs)   bands (ev):

   -62.5450 -62.5446 -62.5045 -62.5041 -62.3448 -62.3436 -36.4229 -36.4225
   -36.3677 -36.3674 -36.3358 -36.3355 -36.3269 -36.3265 -36.2904 -36.2900
   -36.2661 -36.2658 -36.2225 -36.2220 -36.2121 -36.2116 -36.1258 -36.1247
   -30.9800 -30.9800 -30.7400 -30.7400 -29.8863 -29.8863 -14.7966 -14.7965
   -14.7519 -14.7518 -14.7394 -14.7393 -14.5919 -14.5919 -14.5714 -14.5714
   -14.5426 -14.5426 -13.9182 -13.9182 -13.7729 -13.7729 -13.6490 -13.6490
    -0.6204  -0.6203  -0.1468  -0.1467   0.0061   0.0062   0.3707   0.3708
     0.5983   0.5984   0.7809   0.7811   1.0251   1.0252   1.0811   1.0813
     1.2069   1.2070   1.2897   1.2899   1.5058   1.5058   1.7154   1.7155
     1.7589   1.7590   1.9378   1.9379   2.0411   2.0412   2.1825   2.1826
     2.2185   2.2187   2.3872   2.3873   2.4890   2.4891

          k = 0.0133-0.0047 0.0000 ( 43295 PWs)   bands (ev):

   -62.5454 -62.5442 -62.5049 -62.5038 -62.3450 -62.3434 -36.4226 -36.4215
   -36.3692 -36.3660 -36.3453 -36.3369 -36.3253 -36.3161 -36.2906 -36.2894
   -36.2673 -36.2640 -36.2350 -36.2201 -36.2093 -36.2040 -36.1264 -36.1235
   -31.0276 -30.9350 -30.7901 -30.6943 -29.9331 -29.8429 -15.1811 -14.9982
   -14.8429 -14.7470 -14.7371 -14.6926 -14.6555 -14.5664 -14.5349 -14.4969
   -14.3813 -14.2561 -14.0571 -13.8647 -13.7066 -13.6990 -13.5622 -13.3827
    -1.8741  -0.9773  -0.9762  -0.7870  -0.7343  -0.2761  -0.0406   0.0068
     0.2010   0.4328   0.4376   0.6424   0.7772   1.0280   1.0880   1.2275
     1.2335   1.2666   1.2730   1.3196   1.5098   1.5521   1.5642   1.7342
     1.8408   2.0925   2.1384   2.1734   2.2181   2.2970   2.3861   2.4257
     2.4395   2.5030   2.6601   2.8088   2.8337   3.0475

          k = 0.0133 0.0094 0.0000 ( 43347 PWs)   bands (ev):

   -62.5454 -62.5442 -62.5049 -62.5037 -62.3450 -62.3434 -36.4228 -36.4213
   -36.3692 -36.3660 -36.3458 -36.3373 -36.3249 -36.3158 -36.2908 -36.2893
   -36.2673 -36.2639 -36.2355 -36.2202 -36.2092 -36.2036 -36.1265 -36.1235
   -31.0289 -30.9334 -30.7912 -30.6928 -29.9346 -29.8410 -15.1972 -15.0152
   -14.8464 -14.7577 -14.7333 -14.6877 -14.6549 -14.5748 -14.5316 -14.4929
   -14.3980 -14.2377 -14.0380 -13.8620 -13.7093 -13.6995 -13.5618 -13.3632
    -1.8589  -0.9666  -0.9591  -0.7711  -0.7192  -0.2828  -0.0257   0.0181
     0.1843   0.4283   0.4377   0.6526   0.7748   1.0123   1.1239   1.2183
     1.2304   1.2806   1.2945   1.3090   1.4752   1.5440   1.5918   1.7287
     1.8644   2.1154   2.1218   2.1991   2.2275   2.3036   2.3855   2.4444
     2.4907   2.5557   2.6363   2.8009   2.8194   3.0305

          k = 0.0133 0.0235 0.0000 ( 43340 PWs)   bands (ev):

   -62.5454 -62.5442 -62.5049 -62.5038 -62.3450 -62.3434 -36.4231 -36.4213
   -36.3691 -36.3661 -36.3456 -36.3370 -36.3252 -36.3161 -36.2910 -36.2891
   -36.2673 -36.2641 -36.2350 -36.2200 -36.2093 -36.2041 -36.1266 -36.1236
   -31.0268 -30.9349 -30.7887 -30.6943 -29.9327 -29.8421 -15.1844 -15.0034
   -14.8467 -14.7685 -14.7340 -14.6881 -14.6499 -14.5831 -14.5323 -14.4945
   -14.3833 -14.2565 -14.0577 -13.8525 -13.7089 -13.7048 -13.5682 -13.3846
    -1.7444  -0.8895  -0.8663  -0.6881  -0.6306  -0.2169   0.0378   0.0613
     0.2482   0.4612   0.4947   0.6825   0.7961   1.0126   1.1368   1.2161
     1.2478   1.2845   1.2958   1.3126   1.4499   1.5350   1.6165   1.7195
     1.8908   2.0646   2.1055   2.1749   2.2151   2.2823   2.3112   2.3397
     2.3713   2.4007   2.5981   2.8399   2.8480   3.0347

          k = 0.0133 0.0376 0.0000 ( 43372 PWs)   bands (ev):

   -62.5453 -62.5443 -62.5048 -62.5038 -62.3450 -62.3434 -36.4234 -36.4214
   -36.3688 -36.3663 -36.3447 -36.3360 -36.3263 -36.3172 -36.2911 -36.2891
   -36.2673 -36.2644 -36.2336 -36.2196 -36.2097 -36.2054 -36.1265 -36.1238
   -31.0215 -30.9395 -30.7829 -30.6989 -29.9277 -29.8462 -15.1431 -14.9631
   -14.8438 -14.7770 -14.7389 -14.6926 -14.6421 -14.5893 -14.5369 -14.5006
   -14.3383 -14.3105 -14.1137 -13.8379 -13.7148 -13.7047 -13.5806 -13.4443
    -1.5400  -0.7586  -0.7078  -0.5527  -0.4791  -0.0830   0.1211   0.1327
     0.3862   0.4925   0.6275   0.7221   0.8343   1.0072   1.1020   1.2255
     1.2499   1.2755   1.2959   1.3043   1.4462   1.5542   1.6340   1.7034
     1.9037   1.9493   2.0812   2.0860   2.1037   2.2000   2.2018   2.2233
     2.2820   2.3394   2.5199   2.7405   2.9347   2.9366

          k = 0.0133 0.0517 0.0000 ( 43404 PWs)   bands (ev):

   -62.5453 -62.5444 -62.5047 -62.5039 -62.3449 -62.3435 -36.4236 -36.4216
   -36.3685 -36.3666 -36.3432 -36.3344 -36.3281 -36.3190 -36.2912 -36.2891
   -36.2671 -36.2647 -36.2314 -36.2192 -36.2103 -36.2074 -36.1264 -36.1241
   -31.0134 -30.9469 -30.7742 -30.7064 -29.9199 -29.8532 -15.0753 -14.8958
   -14.8378 -14.7816 -14.7474 -14.6998 -14.6322 -14.5918 -14.5451 -14.5095
   -14.3942 -14.2651 -14.2001 -13.8198 -13.7289 -13.6966 -13.5971 -13.5360
    -1.2653  -0.6025  -0.5021  -0.3905  -0.2880   0.1083   0.1671   0.2205
     0.5099   0.5801   0.7555   0.8060   0.8805   0.9551   1.0018   1.2079
     1.2188   1.2558   1.2854   1.3351   1.4596   1.5929   1.6539   1.6752
     1.8015   1.9277   1.9596   1.9687   2.0690   2.1122   2.1171   2.1965
     2.2313   2.3217   2.4347   2.6004   2.7155   2.8186

          k = 0.0133 0.0658 0.0000 ( 43394 PWs)   bands (ev):

   -62.5452 -62.5445 -62.5046 -62.5040 -62.3449 -62.3435 -36.4237 -36.4217
   -36.3681 -36.3669 -36.3411 -36.3322 -36.3303 -36.3213 -36.2911 -36.2892
   -36.2668 -36.2652 -36.2285 -36.2191 -36.2110 -36.2096 -36.1263 -36.1244
   -31.0032 -30.9567 -30.7634 -30.7164 -29.9100 -29.8625 -14.9842 -14.8287
   -14.8048 -14.7813 -14.7586 -14.7079 -14.6208 -14.5893 -14.5565 -14.5195
   -14.5001 -14.3087 -14.1672 -13.8000 -13.7466 -13.6870 -13.6480 -13.6160
    -0.9518  -0.4877  -0.2789  -0.2377  -0.0994   0.1258   0.2958   0.3436
     0.4833   0.7401   0.7924   0.8565   0.8584   0.9417   0.9879   1.1660
     1.1715   1.2565   1.2772   1.3600   1.4671   1.6148   1.6207   1.7272
     1.7602   1.8538   1.8630   1.9488   2.0073   2.0915   2.1501   2.1552
     2.2146   2.3186   2.3497   2.4751   2.4929   2.6389

          k = 0.0133-0.0893 0.0000 ( 43419 PWs)   bands (ev):

   -62.5451 -62.5446 -62.5045 -62.5041 -62.3448 -62.3436 -36.4236 -36.4219
   -36.3678 -36.3673 -36.3387 -36.3328 -36.3297 -36.3238 -36.2910 -36.2894
   -36.2664 -36.2656 -36.2254 -36.2200 -36.2118 -36.2111 -36.1260 -36.1246
   -30.9915 -30.9682 -30.7513 -30.7283 -29.8987 -29.8737 -14.8753 -14.8169
   -14.7758 -14.7713 -14.7175 -14.6927 -14.6230 -14.6045 -14.5819 -14.5702
   -14.5288 -14.4301 -14.0496 -13.7892 -13.7735 -13.7670 -13.6641 -13.6352
    -0.6514  -0.5395  -0.1435  -0.1051   0.0284   0.0407   0.3712   0.4099
     0.5598   0.6333   0.7550   0.8077   0.9590   1.0074   1.1005   1.1055
     1.1547   1.2739   1.2906   1.2968   1.4760   1.5463   1.6506   1.7236
     1.7733   1.7815   1.8991   1.9631   2.0409   2.0438   2.1093   2.1537
     2.2214   2.2424   2.2975   2.4144   2.4479   2.5662

          k = 0.0133-0.0752 0.0000 ( 43428 PWs)   bands (ev):

   -62.5450 -62.5446 -62.5045 -62.5041 -62.3448 -62.3436 -36.4234 -36.4220
   -36.3679 -36.3672 -36.3360 -36.3354 -36.3270 -36.3265 -36.2909 -36.2895
   -36.2662 -36.2658 -36.2226 -36.2220 -36.2122 -36.2115 -36.1259 -36.1248
   -30.9808 -30.9793 -30.7413 -30.7388 -29.8867 -29.8860 -14.8037 -14.7912
   -14.7666 -14.7486 -14.7424 -14.7219 -14.5943 -14.5925 -14.5760 -14.5675
   -14.5483 -14.5331 -13.9189 -13.9172 -13.7889 -13.7587 -13.6533 -13.6447
    -0.7749  -0.4620  -0.1903  -0.1155  -0.0691   0.1047   0.3258   0.4522
     0.5442   0.7041   0.7662   0.8018   1.0101   1.0108   1.0739   1.1048
     1.1614   1.2437   1.2996   1.3242   1.4931   1.5122   1.6125   1.6496
     1.7432   1.7664   1.8572   1.8708   1.9754   2.1272   2.1447   2.1999
     2.2203   2.2734   2.2812   2.3538   2.5680   2.5760

          k = 0.0133-0.0611 0.0000 ( 43389 PWs)   bands (ev):

   -62.5451 -62.5446 -62.5045 -62.5041 -62.3448 -62.3436 -36.4231 -36.4221
   -36.3683 -36.3669 -36.3381 -36.3331 -36.3294 -36.3240 -36.2906 -36.2897
   -36.2664 -36.2654 -36.2253 -36.2202 -36.2116 -36.2112 -36.1259 -36.1246
   -30.9934 -30.9672 -30.7545 -30.7265 -29.8985 -29.8750 -14.8672 -14.8024
   -14.7859 -14.7507 -14.7275 -14.6803 -14.6260 -14.6038 -14.5779 -14.5517
   -14.5452 -14.4368 -14.0460 -13.8127 -13.7814 -13.7405 -13.6689 -13.6231
    -1.0766  -0.4854  -0.3819  -0.2631  -0.2150   0.1608   0.2416   0.3724
     0.5089   0.7843   0.8084   0.8817   0.9045   0.9924   1.0369   1.1136
     1.1623   1.2935   1.2942   1.3473   1.4847   1.5106   1.5887   1.5974
     1.6566   1.6647   1.8585   1.9148   1.9384   2.1084   2.1377   2.2138
     2.2650   2.2977   2.3490   2.4743   2.7229   2.8037

          k = 0.0133-0.0470 0.0000 ( 43369 PWs)   bands (ev):

   -62.5452 -62.5445 -62.5046 -62.5040 -62.3448 -62.3436 -36.4227 -36.4221
   -36.3686 -36.3665 -36.3406 -36.3320 -36.3305 -36.3214 -36.2904 -36.2898
   -36.2667 -36.2649 -36.2285 -36.2194 -36.2107 -36.2097 -36.1260 -36.1243
   -31.0052 -30.9562 -30.7668 -30.7154 -29.9102 -29.8641 -14.9757 -14.8154
   -14.7934 -14.7681 -14.7334 -14.7306 -14.6234 -14.5641 -14.5493 -14.5356
   -14.5023 -14.3124 -14.1626 -13.8321 -13.7247 -13.6840 -13.6490 -13.6020
    -1.3701  -0.6372  -0.5997  -0.4450  -0.3899   0.1426   0.1522   0.1618
     0.5111   0.6637   0.7451   0.8534   0.9129   0.9275   1.0713   1.1480
     1.2515   1.2914   1.2992   1.3265   1.4966   1.5240   1.5295   1.6263
     1.6905   1.7166   1.8513   1.9075   2.0300   2.0851   2.1893   2.2505
     2.2678   2.3937   2.4445   2.5553   2.9604   3.0293

          k = 0.0133-0.0329 0.0000 ( 43362 PWs)   bands (ev):

   -62.5453 -62.5444 -62.5047 -62.5039 -62.3449 -62.3435 -36.4224 -36.4220
   -36.3689 -36.3663 -36.3427 -36.3342 -36.3282 -36.3191 -36.2903 -36.2898
   -36.2670 -36.2645 -36.2314 -36.2196 -36.2101 -36.2074 -36.1262 -36.1239
   -31.0153 -30.9467 -30.7774 -30.7060 -29.9204 -29.8548 -15.0675 -14.8834
   -14.8271 -14.7562 -14.7337 -14.7170 -14.6389 -14.5537 -14.5517 -14.5197
   -14.3949 -14.2605 -14.2012 -13.8488 -13.7120 -13.6934 -13.5835 -13.5333
    -1.6165  -0.7988  -0.7862  -0.6116  -0.5545  -0.0513   0.0777   0.0801
     0.4579   0.4809   0.6746   0.6926   0.8531   0.9892   1.1062   1.1879
     1.2395   1.2638   1.3179   1.3326   1.5079   1.5312   1.5675   1.7179
     1.7476   1.8287   1.9046   2.0359   2.1053   2.1220   2.1584   2.2715
     2.3629   2.4759   2.5513   2.6449   2.9462   3.0449

          k = 0.0133-0.0188 0.0000 ( 43337 PWs)   bands (ev):

   -62.5454 -62.5443 -62.5048 -62.5038 -62.3450 -62.3434 -36.4224 -36.4217
   -36.3692 -36.3661 -36.3443 -36.3359 -36.3264 -36.3173 -36.2904 -36.2896
   -36.2671 -36.2642 -36.2336 -36.2199 -36.2096 -36.2054 -36.1263 -36.1237
   -31.0230 -30.9395 -30.7853 -30.6988 -29.9282 -29.8476 -15.1372 -14.9535
   -14.8364 -14.7449 -14.7387 -14.7028 -14.6502 -14.5592 -14.5417 -14.5062
   -14.3346 -14.3102 -14.1133 -13.8602 -13.7033 -13.7012 -13.5697 -13.4413
    -1.7902  -0.9190  -0.9163  -0.7317  -0.6762  -0.1971  -0.0010   0.0280
     0.2959   0.4491   0.5234   0.6560   0.8047   1.0427   1.0641   1.2293
     1.2356   1.2438   1.2980   1.3244   1.5324   1.5446   1.5484   1.7327
     1.8228   1.9664   2.1384   2.1507   2.1685   2.1811   2.1986   2.2825
     2.4271   2.5160   2.6302   2.7545   2.8581   3.0615

          k = 0.0266-0.0094 0.0000 ( 43303 PWs)   bands (ev):

   -62.5453 -62.5443 -62.5048 -62.5038 -62.3450 -62.3434 -36.4227 -36.4216
   -36.3691 -36.3661 -36.3444 -36.3359 -36.3264 -36.3172 -36.2906 -36.2895
   -36.2672 -36.2642 -36.2336 -36.2198 -36.2096 -36.2054 -36.1264 -36.1237
   -31.0226 -30.9395 -30.7847 -30.6989 -29.9281 -29.8472 -15.1388 -14.9561
   -14.8381 -14.7504 -14.7432 -14.7001 -14.6464 -14.5679 -14.5405 -14.5047
   -14.3356 -14.3103 -14.1134 -13.8538 -13.7063 -13.7023 -13.5726 -13.4421
    -1.7262  -0.8783  -0.8627  -0.6856  -0.6254  -0.1679   0.0315   0.0546
     0.3196   0.4592   0.5507   0.6743   0.8131   1.0470   1.0623   1.2333
     1.2361   1.2556   1.2981   1.3175   1.5048   1.5443   1.5653   1.7217
     1.8622   1.9601   2.1286   2.1348   2.1354   2.1868   2.2128   2.2952
     2.3576   2.4472   2.6008   2.7637   2.8751   3.0476

          k = 0.0266 0.0047 0.0000 ( 43340 PWs)   bands (ev):

   -62.5454 -62.5442 -62.5049 -62.5038 -62.3450 -62.3434 -36.4231 -36.4213
   -36.3691 -36.3661 -36.3456 -36.3370 -36.3252 -36.3161 -36.2910 -36.2891
   -36.2673 -36.2641 -36.2350 -36.2200 -36.2093 -36.2041 -36.1266 -36.1236
   -31.0268 -30.9349 -30.7887 -30.6943 -29.9327 -29.8421 -15.1844 -15.0034
   -14.8467 -14.7685 -14.7340 -14.6881 -14.6499 -14.5831 -14.5323 -14.4945
   -14.3833 -14.2565 -14.0577 -13.8525 -13.7089 -13.7048 -13.5682 -13.3846
    -1.7444  -0.8895  -0.8663  -0.6881  -0.6306  -0.2169   0.0378   0.0613
     0.2482   0.4612   0.4947   0.6825   0.7961   1.0126   1.1368   1.2161
     1.2478   1.2845   1.2958   1.3126   1.4499   1.5350   1.6165   1.7195
     1.8908   2.0646   2.1055   2.1749   2.2151   2.2823   2.3112   2.3398
     2.3713   2.4007   2.5978   2.8395   2.8479   3.0335

          k = 0.0266 0.0188 0.0000 ( 43381 PWs)   bands (ev):

   -62.5454 -62.5442 -62.5049 -62.5037 -62.3451 -62.3433 -36.4236 -36.4211
   -36.3690 -36.3662 -36.3461 -36.3375 -36.3249 -36.3158 -36.2913 -36.2889
   -36.2674 -36.2642 -36.2355 -36.2199 -36.2092 -36.2036 -36.1267 -36.1236
   -31.0277 -30.9333 -30.7893 -30.6927 -29.9341 -29.8399 -15.2018 -15.0226
   -14.8525 -14.7854 -14.7293 -14.6813 -14.6502 -14.5971 -14.5279 -14.4898
   -14.4008 -14.2383 -14.0392 -13.8454 -13.7124 -13.7079 -13.5705 -13.3661
    -1.6667  -0.8333  -0.7965  -0.6223  -0.5664  -0.1953   0.0955   0.0992
     0.2525   0.4854   0.5124   0.7107   0.8018   1.0004   1.1983   1.2076
     1.2468   1.2815   1.3150   1.3555   1.4066   1.4938   1.6661   1.7176
     1.9047   2.0471   2.0776   2.1854   2.2262   2.2651   2.2743   2.3232
     2.3566   2.4605   2.5474   2.8448   2.8451   2.9662

          k = 0.0266 0.0329 0.0000 ( 43404 PWs)   bands (ev):

   -62.5454 -62.5442 -62.5049 -62.5038 -62.3450 -62.3434 -36.4240 -36.4211
   -36.3688 -36.3663 -36.3460 -36.3372 -36.3252 -36.3161 -36.2916 -36.2887
   -36.2675 -36.2643 -36.2351 -36.2197 -36.2094 -36.2041 -36.1268 -36.1237
   -31.0254 -30.9348 -30.7864 -30.6942 -29.9321 -29.8408 -15.1900 -15.0123
   -14.8551 -14.7988 -14.7293 -14.6794 -14.6479 -14.6078 -14.5280 -14.4902
   -14.3868 -14.2571 -14.0589 -13.8338 -13.7153 -13.7120 -13.5786 -13.3880
    -1.4970  -0.7195  -0.6601  -0.5014  -0.4369  -0.1047   0.1666   0.1811
     0.3327   0.5230   0.5972   0.7465   0.8250   0.9957   1.2002   1.2120
     1.2547   1.2763   1.3216   1.3457   1.3997   1.5081   1.6907   1.7258
     1.8989   1.9782   2.0563   2.0947   2.1642   2.2098   2.2296   2.2354
     2.3227   2.3413   2.4886   2.7876   2.7980   2.9070

          k = 0.0266 0.0470 0.0000 ( 43415 PWs)   bands (ev):

   -62.5453 -62.5443 -62.5048 -62.5038 -62.3450 -62.3434 -36.4244 -36.4210
   -36.3686 -36.3665 -36.3451 -36.3362 -36.3263 -36.3172 -36.2918 -36.2886
   -36.2674 -36.2646 -36.2337 -36.2193 -36.2098 -36.2054 -36.1268 -36.1239
   -31.0200 -30.9395 -30.7804 -30.6990 -29.9271 -29.8449 -15.1491 -14.9724
   -14.8539 -14.8073 -14.7338 -14.6812 -14.6429 -14.6134 -14.5326 -14.4943
   -14.3419 -14.3107 -14.1142 -13.8189 -13.7270 -13.7070 -13.5914 -13.4475
    -1.2488  -0.5698  -0.4719  -0.3483  -0.2563   0.0487   0.2426   0.2560
     0.4779   0.5562   0.7345   0.7744   0.8580   0.9618   1.1084   1.2189
     1.2358   1.2697   1.2876   1.3486   1.4289   1.5702   1.6862   1.7513
     1.8449   1.9200   1.9805   2.0218   2.0318   2.1023   2.1683   2.1743
     2.2296   2.3383   2.4245   2.6010   2.6602   2.7945

          k = 0.0266 0.0611 0.0000 ( 43404 PWs)   bands (ev):

   -62.5452 -62.5444 -62.5047 -62.5039 -62.3449 -62.3435 -36.4245 -36.4211
   -36.3682 -36.3668 -36.3435 -36.3345 -36.3280 -36.3190 -36.2919 -36.2885
   -36.2672 -36.2649 -36.2314 -36.2190 -36.2104 -36.2074 -36.1266 -36.1241
   -31.0120 -30.9470 -30.7719 -30.7067 -29.9195 -29.8519 -15.0809 -14.9046
   -14.8485 -14.8099 -14.7422 -14.6854 -14.6350 -14.6130 -14.5417 -14.5006
   -14.3939 -14.2685 -14.1996 -13.8022 -13.7424 -13.6972 -13.6070 -13.5384
    -0.9471  -0.4320  -0.2548  -0.1959  -0.0551   0.2186   0.2525   0.3447
     0.5510   0.6611   0.7826   0.8603   0.8951   0.9076   0.9598   1.1822
     1.2153   1.2431   1.2822   1.3936   1.4578   1.5724   1.6815   1.7586
     1.7637   1.8742   1.8988   1.9503   2.0160   2.0369   2.0932   2.1329
     2.2152   2.3234   2.3607   2.4057   2.5094   2.6255

          k = 0.0266-0.0940 0.0000 ( 43411 PWs)   bands (ev):

   -62.5451 -62.5445 -62.5046 -62.5040 -62.3449 -62.3435 -36.4245 -36.4212
   -36.3679 -36.3672 -36.3414 -36.3323 -36.3301 -36.3212 -36.2918 -36.2886
   -36.2668 -36.2653 -36.2286 -36.2190 -36.2111 -36.2095 -36.1264 -36.1244
   -31.0020 -30.9570 -30.7615 -30.7170 -29.9098 -29.8616 -14.9890 -14.8388
   -14.8119 -14.8059 -14.7537 -14.6907 -14.6245 -14.6064 -14.5547 -14.5078
   -14.4991 -14.3070 -14.1698 -13.7847 -13.7609 -13.6851 -13.6500 -13.6239
    -0.6341  -0.4160  -0.0853  -0.0489   0.1033   0.1332   0.4078   0.4868
     0.4876   0.6926   0.7432   0.8013   0.8951   0.9717   1.0352   1.1349
     1.1870   1.2742   1.2914   1.3683   1.4611   1.5741   1.5962   1.6864
     1.7916   1.8056   1.8581   1.9674   2.0392   2.0478   2.0552   2.0700
     2.1360   2.2465   2.2778   2.4038   2.4207   2.5701

          k = 0.0266-0.0799 0.0000 ( 43419 PWs)   bands (ev):

   -62.5451 -62.5446 -62.5045 -62.5041 -62.3448 -62.3436 -36.4242 -36.4214
   -36.3677 -36.3674 -36.3389 -36.3326 -36.3298 -36.3238 -36.2916 -36.2888
   -36.2664 -36.2657 -36.2254 -36.2199 -36.2119 -36.2110 -36.1261 -36.1247
   -30.9906 -30.9687 -30.7499 -30.7291 -29.8988 -29.8731 -14.8788 -14.8253
   -14.7954 -14.7668 -14.7020 -14.6942 -14.6213 -14.6084 -14.5941 -14.5706
   -14.5151 -14.4278 -14.0510 -13.7863 -13.7812 -13.7635 -13.6620 -13.6406
    -0.6011  -0.3890  -0.0764   0.0279   0.0296   0.1548   0.3968   0.4851
     0.6073   0.7027   0.7140   0.7697   0.9618   1.0274   1.0860   1.1449
     1.1807   1.2324   1.3121   1.3127   1.4530   1.5281   1.5611   1.6307
     1.7441   1.7677   1.8327   1.8733   1.9773   2.0494   2.1099   2.1272
     2.1316   2.2349   2.2559   2.3324   2.4773   2.5588

          k = 0.0266-0.0658 0.0000 ( 43403 PWs)   bands (ev):

   -62.5450 -62.5446 -62.5045 -62.5041 -62.3448 -62.3436 -36.4238 -36.4215
   -36.3680 -36.3671 -36.3362 -36.3352 -36.3270 -36.3265 -36.2913 -36.2890
   -36.2662 -36.2658 -36.2226 -36.2220 -36.2123 -36.2114 -36.1258 -36.1248
   -30.9813 -30.9787 -30.7422 -30.7378 -29.8870 -29.8857 -14.8098 -14.7885
   -14.7794 -14.7490 -14.7419 -14.7031 -14.5968 -14.5957 -14.5791 -14.5670
   -14.5512 -14.5221 -13.9191 -13.9163 -13.8018 -13.7493 -13.6562 -13.6413
    -0.8844  -0.3458  -0.2291  -0.1118  -0.1007   0.1952   0.3069   0.5297
     0.5512   0.7600   0.8181   0.8546   1.0016   1.0053   1.0755   1.1149
     1.1386   1.2437   1.2772   1.3658   1.4439   1.4840   1.5348   1.5903
     1.6408   1.6444   1.7648   1.8857   1.9450   2.1051   2.1165   2.1589
     2.2263   2.2426   2.3022   2.3996   2.5226   2.7255

          k = 0.0266-0.0517 0.0000 ( 43384 PWs)   bands (ev):

   -62.5451 -62.5445 -62.5045 -62.5041 -62.3448 -62.3436 -36.4233 -36.4217
   -36.3684 -36.3668 -36.3380 -36.3332 -36.3293 -36.3241 -36.2909 -36.2893
   -36.2664 -36.2653 -36.2253 -36.2202 -36.2117 -36.2111 -36.1258 -36.1246
   -30.9939 -30.9670 -30.7553 -30.7261 -29.8984 -29.8753 -14.8649 -14.7998
   -14.7905 -14.7589 -14.7105 -14.6765 -14.6267 -14.6082 -14.5800 -14.5578
   -14.5317 -14.4393 -14.0449 -13.8224 -13.7811 -13.7342 -13.6703 -13.6198
    -1.1740  -0.4858  -0.4474  -0.2917  -0.2717   0.2103   0.2163   0.3341
     0.5557   0.8076   0.8304   0.8600   0.9685   1.0020   1.0508   1.1235
     1.2165   1.2616   1.2617   1.3033   1.4591   1.4996   1.5108   1.5756
     1.6523   1.6732   1.7366   1.7890   2.0228   2.0544   2.1557   2.2114
     2.2797   2.3214   2.3550   2.4925   2.8184   2.8799

          k = 0.0266-0.0376 0.0000 ( 43384 PWs)   bands (ev):

   -62.5452 -62.5445 -62.5046 -62.5040 -62.3448 -62.3436 -36.4228 -36.4219
   -36.3687 -36.3665 -36.3405 -36.3319 -36.3305 -36.3214 -36.2905 -36.2897
   -36.2667 -36.2649 -36.2285 -36.2195 -36.2107 -36.2097 -36.1260 -36.1243
   -31.0055 -30.9561 -30.7673 -30.7153 -29.9103 -29.8644 -14.9744 -14.8140
   -14.7922 -14.7688 -14.7374 -14.7202 -14.6265 -14.5652 -14.5415 -14.5381
   -14.5028 -14.3131 -14.1618 -13.8378 -13.7215 -13.6827 -13.6498 -13.5998
    -1.4266  -0.6597  -0.6431  -0.4736  -0.4297   0.1229   0.1364   0.1546
     0.5197   0.6469   0.7396   0.8422   0.9107   0.9168   1.1477   1.1893
     1.2016   1.2635   1.2969   1.3445   1.4750   1.4991   1.5695   1.6362
     1.6865   1.7001   1.7768   1.8560   2.0653   2.0974   2.1404   2.2676
     2.3101   2.4434   2.4494   2.5559   2.9969   3.0069

          k = 0.0266-0.0235 0.0000 ( 43362 PWs)   bands (ev):

   -62.5453 -62.5444 -62.5047 -62.5039 -62.3449 -62.3435 -36.4224 -36.4220
   -36.3689 -36.3663 -36.3427 -36.3342 -36.3282 -36.3191 -36.2903 -36.2898
   -36.2670 -36.2645 -36.2314 -36.2196 -36.2101 -36.2074 -36.1262 -36.1239
   -31.0153 -30.9467 -30.7774 -30.7060 -29.9204 -29.8548 -15.0675 -14.8834
   -14.8271 -14.7562 -14.7337 -14.7170 -14.6389 -14.5537 -14.5517 -14.5197
   -14.3949 -14.2605 -14.2012 -13.8488 -13.7120 -13.6934 -13.5835 -13.5333
    -1.6165  -0.7988  -0.7862  -0.6116  -0.5545  -0.0513   0.0777   0.0801
     0.4579   0.4809   0.6746   0.6926   0.8531   0.9892   1.1062   1.1879
     1.2395   1.2638   1.3179   1.3326   1.5079   1.5312   1.5675   1.7179
     1.7476   1.8287   1.9046   2.0359   2.1053   2.1220   2.1584   2.2715
     2.3629   2.4759   2.5512   2.6449   2.9467   3.0455

          k = 0.0399-0.0141 0.0000 ( 43353 PWs)   bands (ev):

   -62.5453 -62.5444 -62.5047 -62.5039 -62.3449 -62.3435 -36.4228 -36.4219
   -36.3688 -36.3664 -36.3428 -36.3342 -36.3281 -36.3190 -36.2905 -36.2896
   -36.2670 -36.2646 -36.2314 -36.2194 -36.2102 -36.2074 -36.1263 -36.1240
   -31.0146 -30.9468 -30.7762 -30.7062 -29.9202 -29.8542 -15.0703 -14.8880
   -14.8304 -14.7535 -14.7528 -14.7109 -14.6339 -14.5691 -14.5493 -14.5161
   -14.3946 -14.2622 -14.2007 -13.8375 -13.7180 -13.6949 -13.5885 -13.5342
    -1.4957  -0.7312  -0.6880  -0.5348  -0.4621   0.0033   0.1127   0.1285
     0.4880   0.5013   0.7182   0.7212   0.8641   1.0061   1.0390   1.1941
     1.2449   1.2882   1.3043   1.3061   1.4958   1.5519   1.5640   1.6969
     1.7706   1.8992   1.9161   2.0458   2.0738   2.1318   2.1748   2.2467
     2.2914   2.3718   2.5056   2.6420   2.9717   2.9890

          k = 0.0399 0.0000 0.0000 ( 43372 PWs)   bands (ev):

   -62.5453 -62.5443 -62.5048 -62.5038 -62.3450 -62.3434 -36.4234 -36.4214
   -36.3688 -36.3663 -36.3447 -36.3360 -36.3263 -36.3172 -36.2911 -36.2891
   -36.2673 -36.2644 -36.2336 -36.2196 -36.2097 -36.2054 -36.1265 -36.1238
   -31.0215 -30.9395 -30.7829 -30.6989 -29.9277 -29.8462 -15.1431 -14.9631
   -14.8438 -14.7770 -14.7389 -14.6926 -14.6421 -14.5893 -14.5369 -14.5006
   -14.3383 -14.3105 -14.1137 -13.8379 -13.7148 -13.7047 -13.5806 -13.4443
    -1.5400  -0.7586  -0.7078  -0.5527  -0.4791  -0.0830   0.1211   0.1327
     0.3862   0.4925   0.6275   0.7221   0.8344   1.0072   1.1020   1.2255
     1.2499   1.2755   1.2959   1.3043   1.4462   1.5542   1.6340   1.7034
     1.9037   1.9493   2.0811   2.0860   2.1037   2.2001   2.2018   2.2233
     2.2820   2.3393   2.5198   2.7404   2.9263   2.9355

          k = 0.0399 0.0141 0.0000 ( 43404 PWs)   bands (ev):

   -62.5454 -62.5442 -62.5049 -62.5038 -62.3450 -62.3434 -36.4240 -36.4211
   -36.3688 -36.3663 -36.3460 -36.3372 -36.3252 -36.3161 -36.2916 -36.2887
   -36.2675 -36.2643 -36.2351 -36.2197 -36.2094 -36.2041 -36.1268 -36.1237
   -31.0254 -30.9348 -30.7864 -30.6942 -29.9321 -29.8408 -15.1900 -15.0123
   -14.8551 -14.7988 -14.7293 -14.6794 -14.6479 -14.6078 -14.5280 -14.4902
   -14.3868 -14.2571 -14.0589 -13.8338 -13.7153 -13.7120 -13.5786 -13.3880
    -1.4970  -0.7195  -0.6601  -0.5014  -0.4369  -0.1047   0.1666   0.1811
     0.3327   0.5230   0.5972   0.7465   0.8250   0.9957   1.2002   1.2120
     1.2547   1.2763   1.3216   1.3457   1.3997   1.5081   1.6907   1.7258
     1.8989   1.9782   2.0563   2.0947   2.1642   2.2098   2.2296   2.2354
     2.3227   2.3413   2.4886   2.7876   2.7977   2.9069

          k = 0.0399 0.0282 0.0000 ( 43387 PWs)   bands (ev):

   -62.5454 -62.5442 -62.5049 -62.5037 -62.3451 -62.3433 -36.4246 -36.4208
   -36.3687 -36.3664 -36.3465 -36.3377 -36.3248 -36.3157 -36.2920 -36.2883
   -36.2676 -36.2644 -36.2356 -36.2196 -36.2093 -36.2036 -36.1269 -36.1237
   -31.0261 -30.9332 -30.7866 -30.6926 -29.9334 -29.8384 -15.2082 -15.0326
   -14.8631 -14.8168 -14.7246 -14.6713 -14.6509 -14.6222 -14.5235 -14.4848
   -14.4047 -14.2392 -14.0407 -13.8259 -13.7198 -13.7156 -13.5823 -13.3701
    -1.3666  -0.6214  -0.5508  -0.3930  -0.3361  -0.0608   0.2254   0.2736
     0.3505   0.5716   0.6310   0.7757   0.8307   1.0041   1.2091   1.2451
     1.2506   1.2872   1.3557   1.3694   1.3926   1.4767   1.7083   1.7601
     1.8563   1.9105   2.0123   2.0378   2.1490   2.1603   2.2254   2.2434
     2.3352   2.3494   2.4450   2.6279   2.7393   2.9121

          k = 0.0399 0.0423 0.0000 ( 43415 PWs)   bands (ev):

   -62.5454 -62.5443 -62.5049 -62.5038 -62.3450 -62.3434 -36.4251 -36.4207
   -36.3685 -36.3665 -36.3464 -36.3374 -36.3252 -36.3161 -36.2924 -36.2881
   -36.2676 -36.2646 -36.2351 -36.2194 -36.2095 -36.2041 -36.1270 -36.1238
   -31.0237 -30.9347 -30.7837 -30.6941 -29.9315 -29.8393 -15.1964 -15.0224
   -14.8669 -14.8294 -14.7250 -14.6676 -14.6507 -14.6311 -14.5244 -14.4838
   -14.3908 -14.2579 -14.0602 -13.8153 -13.7281 -13.7145 -13.5905 -13.3919
    -1.1556  -0.4818  -0.3920  -0.2486  -0.1820   0.0444   0.3091   0.3522
     0.4324   0.6233   0.7152   0.7919   0.8467   0.9991   1.2000   1.2186
     1.2261   1.2982   1.3285   1.3755   1.4029   1.5572   1.7036   1.7848
     1.8052   1.8410   1.8986   2.0174   2.0430   2.1192   2.1421   2.2248
     2.2483   2.3437   2.4081   2.4725   2.6111   2.8208

          k = 0.0399 0.0564 0.0000 ( 43425 PWs)   bands (ev):

   -62.5453 -62.5443 -62.5048 -62.5038 -62.3450 -62.3434 -36.4253 -36.4207
   -36.3683 -36.3668 -36.3455 -36.3364 -36.3262 -36.3172 -36.2925 -36.2880
   -36.2674 -36.2648 -36.2337 -36.2191 -36.2099 -36.2054 -36.1269 -36.1240
   -31.0184 -30.9395 -30.7780 -30.6990 -29.9266 -29.8435 -15.1550 -14.9817
   -14.8655 -14.8352 -14.7300 -14.6676 -14.6466 -14.6333 -14.5307 -14.4859
   -14.3456 -14.3111 -14.1148 -13.8027 -13.7401 -13.7082 -13.6020 -13.4507
    -0.8811  -0.3353  -0.2027  -0.0979   0.0110   0.2006   0.3520   0.4093
     0.5506   0.6431   0.7833   0.8297   0.8827   0.9286   1.0719   1.1897
     1.2304   1.2433   1.3347   1.4254   1.4422   1.5344   1.7108   1.7236
     1.7947   1.8138   1.8863   1.9272   1.9394   2.0680   2.1038   2.1093
     2.2322   2.2891   2.3565   2.3681   2.4537   2.6792

          k = 0.0399-0.0987 0.0000 ( 43435 PWs)   bands (ev):

   -62.5452 -62.5444 -62.5047 -62.5039 -62.3449 -62.3435 -36.4253 -36.4207
   -36.3680 -36.3671 -36.3439 -36.3347 -36.3279 -36.3189 -36.2925 -36.2880
   -36.2672 -36.2651 -36.2315 -36.2188 -36.2105 -36.2073 -36.1268 -36.1242
   -31.0107 -30.9471 -30.7699 -30.7069 -29.9192 -29.8509 -15.0858 -14.9121
   -14.8585 -14.8334 -14.7390 -14.6704 -14.6386 -14.6288 -14.5418 -14.4904
   -14.3937 -14.2713 -14.1992 -13.7889 -13.7551 -13.6967 -13.6154 -13.5407
    -0.5743  -0.2657  -0.0106   0.0208   0.2043   0.2749   0.3844   0.4793
     0.5906   0.6596   0.7450   0.8010   0.9329   0.9501   0.9600   1.1471
     1.1829   1.2843   1.3317   1.4141   1.4741   1.5073   1.6315   1.6636
     1.7423   1.7794   1.8766   1.9135   2.0005   2.0092   2.0308   2.0621
     2.1002   2.2406   2.2992   2.3638   2.3692   2.5436

          k = 0.0399-0.0846 0.0000 ( 43431 PWs)   bands (ev):

   -62.5451 -62.5445 -62.5046 -62.5040 -62.3449 -62.3435 -36.4251 -36.4209
   -36.3677 -36.3673 -36.3417 -36.3325 -36.3300 -36.3212 -36.2923 -36.2882
   -36.2668 -36.2654 -36.2286 -36.2188 -36.2112 -36.2095 -36.1264 -36.1244
   -31.0011 -30.9572 -30.7600 -30.7174 -29.9097 -29.8609 -14.9925 -14.8464
   -14.8237 -14.8171 -14.7511 -14.6756 -14.6272 -14.6177 -14.5566 -14.4985
   -14.4970 -14.3059 -14.1716 -13.7747 -13.7722 -13.6816 -13.6530 -13.6295
    -0.3890  -0.2943   0.0596   0.1190   0.1872   0.2765   0.4957   0.5282
     0.5402   0.6373   0.7197   0.7655   0.9414   1.0113   1.0590   1.1058
     1.1738   1.3022   1.3181   1.3246   1.4626   1.4653   1.5893   1.6135
     1.7477   1.7650   1.8127   1.8718   1.9104   1.9822   2.0122   2.0835
     2.1194   2.1458   2.2753   2.3673   2.3894   2.5302

          k = 0.0399-0.0705 0.0000 ( 43433 PWs)   bands (ev):

   -62.5451 -62.5446 -62.5045 -62.5041 -62.3448 -62.3436 -36.4246 -36.4211
   -36.3678 -36.3673 -36.3391 -36.3325 -36.3298 -36.3238 -36.2920 -36.2885
   -36.2664 -36.2657 -36.2255 -36.2199 -36.2120 -36.2110 -36.1261 -36.1247
   -30.9901 -30.9690 -30.7490 -30.7296 -29.8988 -29.8727 -14.8808 -14.8303
   -14.8067 -14.7649 -14.7023 -14.6834 -14.6201 -14.6105 -14.6009 -14.5735
   -14.5058 -14.4266 -14.0518 -13.7900 -13.7852 -13.7574 -13.6609 -13.6436
    -0.6449  -0.1783  -0.0343   0.0300   0.0875   0.2066   0.3980   0.6032
     0.6444   0.6759   0.7134   0.8648   0.9805   1.0336   1.1115   1.1303
     1.1779   1.1873   1.2810   1.2960   1.3871   1.4676   1.5764   1.5846
     1.6614   1.6887   1.7261   1.8950   1.9377   2.0424   2.0735   2.1141
     2.1427   2.1769   2.2150   2.3529   2.3844   2.6288

          k = 0.0399-0.0564 0.0000 ( 43452 PWs)   bands (ev):

   -62.5450 -62.5446 -62.5045 -62.5041 -62.3448 -62.3436 -36.4240 -36.4214
   -36.3681 -36.3670 -36.3362 -36.3352 -36.3271 -36.3265 -36.2915 -36.2889
   -36.2662 -36.2658 -36.2226 -36.2220 -36.2123 -36.2114 -36.1259 -36.1248
   -30.9815 -30.9785 -30.7425 -30.7375 -29.8871 -29.8856 -14.8121 -14.7878
   -14.7842 -14.7493 -14.7415 -14.6948 -14.5979 -14.5977 -14.5803 -14.5675
   -14.5521 -14.5172 -13.9192 -13.9159 -13.8069 -13.7460 -13.6573 -13.6401
    -0.9236  -0.3037  -0.2445  -0.1250  -0.0969   0.2317   0.3017   0.5290
     0.6015   0.7598   0.8268   0.9853   1.0046   1.0143   1.0705   1.0728
     1.1717   1.1956   1.2286   1.3331   1.4055   1.4726   1.5015   1.5988
     1.6287   1.6511   1.7144   1.7823   2.0228   2.0386   2.1204   2.1628
     2.1779   2.2576   2.3090   2.4351   2.5119   2.7525

          k = 0.0399-0.0423 0.0000 ( 43384 PWs)   bands (ev):

   -62.5451 -62.5445 -62.5045 -62.5041 -62.3448 -62.3436 -36.4233 -36.4217
   -36.3684 -36.3668 -36.3380 -36.3332 -36.3293 -36.3241 -36.2909 -36.2893
   -36.2664 -36.2653 -36.2253 -36.2202 -36.2117 -36.2111 -36.1258 -36.1246
   -30.9939 -30.9670 -30.7553 -30.7261 -29.8984 -29.8753 -14.8649 -14.7998
   -14.7905 -14.7589 -14.7105 -14.6765 -14.6267 -14.6082 -14.5800 -14.5578
   -14.5317 -14.4393 -14.0449 -13.8224 -13.7811 -13.7342 -13.6703 -13.6198
    -1.1740  -0.4858  -0.4474  -0.2917  -0.2717   0.2103   0.2163   0.3341
     0.5557   0.8076   0.8304   0.8600   0.9685   1.0020   1.0508   1.1235
     1.2165   1.2616   1.2617   1.3033   1.4591   1.4996   1.5108   1.5756
     1.6523   1.6732   1.7366   1.7890   2.0228   2.0544   2.1557   2.2114
     2.2797   2.3214   2.3549   2.4925   2.8184   2.8799

          k = 0.0399-0.0282 0.0000 ( 43369 PWs)   bands (ev):

   -62.5452 -62.5445 -62.5046 -62.5040 -62.3448 -62.3436 -36.4227 -36.4221
   -36.3686 -36.3665 -36.3406 -36.3320 -36.3305 -36.3214 -36.2904 -36.2898
   -36.2667 -36.2649 -36.2285 -36.2194 -36.2107 -36.2097 -36.1260 -36.1243
   -31.0052 -30.9562 -30.7668 -30.7154 -29.9102 -29.8641 -14.9757 -14.8154
   -14.7934 -14.7681 -14.7334 -14.7306 -14.6234 -14.5641 -14.5493 -14.5356
   -14.5023 -14.3124 -14.1626 -13.8321 -13.7247 -13.6840 -13.6490 -13.6020
    -1.3701  -0.6372  -0.5997  -0.4450  -0.3899   0.1426   0.1522   0.1618
     0.5111   0.6637   0.7451   0.8534   0.9129   0.9275   1.0713   1.1480
     1.2515   1.2914   1.2992   1.3264   1.4966   1.5240   1.5295   1.6263
     1.6905   1.7166   1.8513   1.9075   2.0300   2.0851   2.1893   2.2505
     2.2678   2.3935   2.4445   2.5553   2.9607   3.0202

          k = 0.0532-0.0188 0.0000 ( 43349 PWs)   bands (ev):

   -62.5452 -62.5445 -62.5046 -62.5040 -62.3448 -62.3436 -36.4228 -36.4222
   -36.3684 -36.3667 -36.3408 -36.3321 -36.3304 -36.3213 -36.2905 -36.2898
   -36.2667 -36.2650 -36.2285 -36.2193 -36.2108 -36.2096 -36.1261 -36.1243
   -31.0043 -30.9564 -30.7654 -30.7158 -29.9101 -29.8634 -14.9793 -14.8202
   -14.7978 -14.7644 -14.7542 -14.7228 -14.6198 -14.5682 -14.5607 -14.5291
   -14.5013 -14.3107 -14.1646 -13.8175 -13.7335 -13.6863 -13.6478 -13.6080
    -1.2064  -0.5740  -0.4736  -0.3629  -0.2747   0.1418   0.2027   0.2325
     0.4935   0.7147   0.7534   0.8815   0.9160   0.9439   0.9581   1.1534
     1.2083   1.2917   1.2922   1.3243   1.4861   1.5564   1.6064   1.6611
     1.6930   1.7947   1.9426   1.9430   1.9810   2.1348   2.1387   2.2014
     2.2816   2.2865   2.4146   2.5358   2.7926   2.8160

          k = 0.0532-0.0047 0.0000 ( 43404 PWs)   bands (ev):

   -62.5453 -62.5444 -62.5047 -62.5039 -62.3449 -62.3435 -36.4236 -36.4216
   -36.3685 -36.3666 -36.3432 -36.3344 -36.3281 -36.3190 -36.2912 -36.2891
   -36.2671 -36.2647 -36.2314 -36.2192 -36.2103 -36.2074 -36.1264 -36.1241
   -31.0134 -30.9469 -30.7742 -30.7064 -29.9199 -29.8532 -15.0753 -14.8958
   -14.8378 -14.7816 -14.7474 -14.6998 -14.6322 -14.5918 -14.5451 -14.5095
   -14.3942 -14.2651 -14.2001 -13.8198 -13.7289 -13.6966 -13.5971 -13.5360
    -1.2653  -0.6025  -0.5021  -0.3905  -0.2880   0.1083   0.1671   0.2205
     0.5099   0.5801   0.7555   0.8060   0.8805   0.9551   1.0018   1.2079
     1.2188   1.2558   1.2855   1.3351   1.4596   1.5929   1.6539   1.6752
     1.8015   1.9277   1.9596   1.9687   2.0690   2.1122   2.1171   2.1965
     2.2313   2.3217   2.4348   2.6004   2.7158   2.8184

          k = 0.0532 0.0094 0.0000 ( 43415 PWs)   bands (ev):

   -62.5453 -62.5443 -62.5048 -62.5038 -62.3450 -62.3434 -36.4244 -36.4210
   -36.3686 -36.3665 -36.3451 -36.3362 -36.3263 -36.3172 -36.2918 -36.2886
   -36.2674 -36.2646 -36.2337 -36.2193 -36.2098 -36.2054 -36.1268 -36.1239
   -31.0200 -30.9395 -30.7804 -30.6990 -29.9271 -29.8449 -15.1491 -14.9724
   -14.8539 -14.8073 -14.7338 -14.6812 -14.6429 -14.6134 -14.5326 -14.4943
   -14.3419 -14.3107 -14.1142 -13.8189 -13.7270 -13.7070 -13.5914 -13.4475
    -1.2488  -0.5698  -0.4719  -0.3483  -0.2563   0.0487   0.2426   0.2560
     0.4779   0.5562   0.7345   0.7744   0.8580   0.9618   1.1084   1.2189
     1.2358   1.2697   1.2876   1.3486   1.4289   1.5702   1.6862   1.7513
     1.8449   1.9200   1.9805   2.0218   2.0317   2.1023   2.1684   2.1743
     2.2297   2.3383   2.4245   2.6010   2.6602   2.7941

          k = 0.0532 0.0235 0.0000 ( 43415 PWs)   bands (ev):

   -62.5454 -62.5443 -62.5049 -62.5038 -62.3450 -62.3434 -36.4251 -36.4207
   -36.3685 -36.3665 -36.3464 -36.3374 -36.3252 -36.3161 -36.2924 -36.2881
   -36.2676 -36.2646 -36.2351 -36.2194 -36.2095 -36.2041 -36.1270 -36.1238
   -31.0237 -30.9347 -30.7837 -30.6941 -29.9315 -29.8393 -15.1964 -15.0224
   -14.8669 -14.8294 -14.7250 -14.6676 -14.6507 -14.6311 -14.5244 -14.4838
   -14.3908 -14.2579 -14.0602 -13.8153 -13.7281 -13.7145 -13.5905 -13.3919
    -1.1556  -0.4818  -0.3920  -0.2486  -0.1820   0.0444   0.3091   0.3522
     0.4324   0.6233   0.7152   0.7919   0.8467   0.9991   1.2000   1.2186
     1.2261   1.2982   1.3285   1.3755   1.4029   1.5572   1.7037   1.7848
     1.8052   1.8410   1.8986   2.0174   2.0430   2.1192   2.1421   2.2248
     2.2483   2.3437   2.4081   2.4725   2.6109   2.8201

          k = 0.0532 0.0376 0.0000 ( 43437 PWs)   bands (ev):

   -62.5454 -62.5442 -62.5049 -62.5037 -62.3451 -62.3433 -36.4256 -36.4205
   -36.3684 -36.3666 -36.3470 -36.3379 -36.3248 -36.3157 -36.2928 -36.2878
   -36.2677 -36.2646 -36.2357 -36.2194 -36.2094 -36.2037 -36.1271 -36.1238
   -31.0244 -30.9330 -30.7840 -30.6924 -29.9327 -29.8369 -15.2145 -15.0425
   -14.8754 -14.8459 -14.7212 -14.6590 -14.6546 -14.6432 -14.5215 -14.4778
   -14.4086 -14.2401 -14.0422 -13.8093 -13.7324 -13.7177 -13.5940 -13.3741
    -0.9885  -0.3525  -0.2758  -0.1117  -0.0655   0.0891   0.3600   0.4502
     0.4695   0.6944   0.7433   0.8068   0.8388   1.0409   1.2146   1.2261
     1.2275   1.2740   1.3757   1.3984   1.4281   1.6286   1.6398   1.6810
     1.7598   1.8198   1.8220   1.9738   2.0496   2.0576   2.1352   2.2024
     2.2502   2.3490   2.3520   2.3967   2.4913   2.6929

          k = 0.0532 0.0517 0.0000 ( 43438 PWs)   bands (ev):

   -62.5454 -62.5443 -62.5049 -62.5038 -62.3451 -62.3433 -36.4259 -36.4204
   -36.3683 -36.3668 -36.3467 -36.3376 -36.3251 -36.3161 -36.2931 -36.2876
   -36.2677 -36.2647 -36.2352 -36.2192 -36.2096 -36.2042 -36.1272 -36.1239
   -31.0223 -30.9346 -30.7814 -30.6941 -29.9309 -29.8380 -15.2021 -15.0311
   -14.8779 -14.8551 -14.7224 -14.6550 -14.6542 -14.6486 -14.5242 -14.4760
   -14.3942 -14.2585 -14.0613 -13.8015 -13.7399 -13.7157 -13.6007 -13.3953
    -0.7563  -0.2084  -0.1394   0.0347   0.0840   0.1735   0.4370   0.4750
     0.5517   0.7209   0.8002   0.8006   0.8650   1.0214   1.1403   1.1999
     1.2421   1.2440   1.4014   1.4424   1.4700   1.5324   1.6007   1.7046
     1.7292   1.7334   1.8652   1.8771   1.9723   2.0803   2.0986   2.1074
     2.2324   2.2577   2.3272   2.3457   2.3818   2.5813

          k = 0.0532-0.1034 0.0000 ( 43398 PWs)   bands (ev):

   -62.5453 -62.5443 -62.5048 -62.5038 -62.3450 -62.3434 -36.4260 -36.4204
   -36.3681 -36.3669 -36.3458 -36.3365 -36.3261 -36.3171 -36.2931 -36.2876
   -36.2675 -36.2649 -36.2337 -36.2189 -36.2100 -36.2054 -36.1271 -36.1240
   -31.0173 -30.9395 -30.7762 -30.6991 -29.9262 -29.8426 -15.1594 -14.9883
   -14.8739 -14.8559 -14.7281 -14.6554 -14.6494 -14.6466 -14.5321 -14.4779
   -14.3482 -14.3113 -14.1153 -13.7922 -13.7503 -13.7083 -13.6097 -13.4532
    -0.4788  -0.1098  -0.0042   0.1532   0.2054   0.3242   0.4281   0.5558
     0.6112   0.6714   0.7240   0.8746   0.9133   0.9552   1.0108   1.1505
     1.1818   1.2834   1.3833   1.4429   1.4928   1.4995   1.6161   1.6372
     1.6625   1.7581   1.8278   1.8550   1.9857   1.9980   2.0575   2.0677
     2.1364   2.2378   2.2484   2.3125   2.3530   2.4879

          k = 0.0532-0.0893 0.0000 ( 43430 PWs)   bands (ev):

   -62.5452 -62.5444 -62.5047 -62.5039 -62.3449 -62.3435 -36.4257 -36.4205
   -36.3679 -36.3672 -36.3441 -36.3348 -36.3278 -36.3189 -36.2929 -36.2877
   -36.2672 -36.2652 -36.2315 -36.2187 -36.2106 -36.2073 -36.1268 -36.1243
   -31.0100 -30.9472 -30.7687 -30.7071 -29.9190 -29.8503 -15.0886 -14.9163
   -14.8639 -14.8476 -14.7377 -14.6600 -14.6405 -14.6374 -14.5439 -14.4834
   -14.3936 -14.2729 -14.1990 -13.7819 -13.7628 -13.6960 -13.6202 -13.5422
    -0.1967  -0.1709   0.0669   0.1934   0.3181   0.3838   0.4697   0.5716
     0.5961   0.6007   0.7070   0.8113   0.9285   0.9530   1.0158   1.0926
     1.1304   1.2897   1.3752   1.4247   1.4776   1.5081   1.5667   1.5892
     1.6880   1.7027   1.8226   1.8488   1.9090   1.9249   2.0619   2.0632
     2.0732   2.1609   2.3084   2.3177   2.3306   2.4821

          k = 0.0532-0.0752 0.0000 ( 43452 PWs)   bands (ev):

   -62.5451 -62.5445 -62.5046 -62.5040 -62.3449 -62.3435 -36.4253 -36.4207
   -36.3677 -36.3674 -36.3418 -36.3325 -36.3300 -36.3211 -36.2925 -36.2880
   -36.2669 -36.2655 -36.2287 -36.2188 -36.2113 -36.2095 -36.1265 -36.1245
   -31.0008 -30.9573 -30.7595 -30.7175 -29.9097 -29.8606 -14.9937 -14.8490
   -14.8305 -14.8189 -14.7504 -14.6692 -14.6281 -14.6217 -14.5583 -14.4983
   -14.4926 -14.3056 -14.1722 -13.7765 -13.7713 -13.6797 -13.6547 -13.6315
    -0.3866  -0.0432   0.0695   0.1223   0.2317   0.3465   0.4897   0.4991
     0.6086   0.6187   0.7482   0.7874   0.9999   1.0104   1.0404   1.0858
[...]
     2.2270   2.2985   2.3112   2.4430   2.5372   2.6386

          k = 0.0665-0.0094 0.0000 ( 43394 PWs)   bands (ev):

   -62.5452 -62.5445 -62.5046 -62.5040 -62.3449 -62.3435 -36.4237 -36.4217
   -36.3681 -36.3669 -36.3411 -36.3322 -36.3303 -36.3213 -36.2911 -36.2892
   -36.2668 -36.2652 -36.2285 -36.2191 -36.2110 -36.2096 -36.1263 -36.1244
   -31.0032 -30.9567 -30.7634 -30.7164 -29.9100 -29.8625 -14.9842 -14.8287
   -14.8048 -14.7813 -14.7586 -14.7079 -14.6208 -14.5893 -14.5565 -14.5195
   -14.5001 -14.3087 -14.1672 -13.8000 -13.7466 -13.6870 -13.6480 -13.6160
    -0.9518  -0.4877  -0.2789  -0.2377  -0.0994   0.1258   0.2958   0.3436
     0.4833   0.7401   0.7924   0.8565   0.8584   0.9417   0.9879   1.1660
     1.1715   1.2565   1.2772   1.3600   1.4671   1.6148   1.6207   1.7272
     1.7602   1.8538   1.8630   1.9488   2.0073   2.0915   2.1501   2.1552
     2.2146   2.3186   2.3497   2.4751   2.4930   2.6388

          k = 0.0665 0.0047 0.0000 ( 43404 PWs)   bands (ev):

   -62.5452 -62.5444 -62.5047 -62.5039 -62.3449 -62.3435 -36.4245 -36.4211
   -36.3682 -36.3668 -36.3435 -36.3345 -36.3280 -36.3190 -36.2919 -36.2885
   -36.2672 -36.2649 -36.2314 -36.2190 -36.2104 -36.2074 -36.1266 -36.1241
   -31.0120 -30.9470 -30.7719 -30.7067 -29.9195 -29.8519 -15.0809 -14.9046
   -14.8485 -14.8099 -14.7422 -14.6854 -14.6350 -14.6130 -14.5417 -14.5006
   -14.3939 -14.2685 -14.1996 -13.8022 -13.7424 -13.6972 -13.6070 -13.5384
    -0.9471  -0.4320  -0.2548  -0.1959  -0.0551   0.2186   0.2525   0.3447
     0.5510   0.6611   0.7826   0.8603   0.8951   0.9076   0.9598   1.1822
     1.2153   1.2431   1.2822   1.3936   1.4577   1.5724   1.6815   1.7586
     1.7637   1.8742   1.8988   1.9503   2.0160   2.0369   2.0932   2.1329
     2.2152   2.3234   2.3607   2.4057   2.5094   2.6255

          k = 0.0665 0.0188 0.0000 ( 43425 PWs)   bands (ev):

   -62.5453 -62.5443 -62.5048 -62.5038 -62.3450 -62.3434 -36.4253 -36.4207
   -36.3683 -36.3668 -36.3455 -36.3364 -36.3262 -36.3172 -36.2925 -36.2880
   -36.2674 -36.2648 -36.2337 -36.2191 -36.2099 -36.2054 -36.1269 -36.1240
   -31.0184 -30.9395 -30.7780 -30.6990 -29.9266 -29.8435 -15.1550 -14.9817
   -14.8655 -14.8352 -14.7300 -14.6676 -14.6466 -14.6333 -14.5307 -14.4859
   -14.3456 -14.3111 -14.1148 -13.8027 -13.7401 -13.7082 -13.6020 -13.4507
    -0.8811  -0.3353  -0.2027  -0.0979   0.0110   0.2005   0.3520   0.4093
     0.5506   0.6431   0.7833   0.8297   0.8827   0.9286   1.0719   1.1897
     1.2304   1.2433   1.3347   1.4254   1.4422   1.5344   1.7108   1.7236
     1.7947   1.8138   1.8863   1.9272   1.9394   2.0680   2.1038   2.1093
     2.2322   2.2891   2.3566   2.3681   2.4537   2.6876

          k = 0.0665 0.0329 0.0000 ( 43438 PWs)   bands (ev):

   -62.5454 -62.5443 -62.5049 -62.5038 -62.3451 -62.3433 -36.4259 -36.4204
   -36.3683 -36.3668 -36.3467 -36.3376 -36.3251 -36.3161 -36.2931 -36.2876
   -36.2677 -36.2647 -36.2352 -36.2192 -36.2096 -36.2042 -36.1272 -36.1239
   -31.0223 -30.9346 -30.7814 -30.6941 -29.9309 -29.8380 -15.2021 -15.0311
   -14.8779 -14.8551 -14.7224 -14.6550 -14.6542 -14.6486 -14.5242 -14.4760
   -14.3942 -14.2585 -14.0613 -13.8015 -13.7399 -13.7157 -13.6007 -13.3953
    -0.7563  -0.2084  -0.1394   0.0347   0.0840   0.1735   0.4370   0.4750
     0.5517   0.7209   0.8002   0.8006   0.8650   1.0214   1.1403   1.1999
     1.2421   1.2440   1.4014   1.4424   1.4700   1.5325   1.6007   1.7046
     1.7292   1.7334   1.8652   1.8771   1.9723   2.0803   2.0986   2.1074
     2.2324   2.2577   2.3272   2.3457   2.3818   2.5815

          k = 0.0665 0.0470 0.0000 ( 43467 PWs)   bands (ev):

   -62.5454 -62.5443 -62.5049 -62.5037 -62.3451 -62.3433 -36.4263 -36.4202
   -36.3682 -36.3668 -36.3473 -36.3380 -36.3248 -36.3158 -36.2934 -36.2874
   -36.2678 -36.2648 -36.2357 -36.2191 -36.2095 -36.2037 -36.1273 -36.1239
   -31.0233 -30.9329 -30.7821 -30.6923 -29.9322 -29.8358 -15.2192 -15.0496
   -14.8841 -14.8675 -14.7196 -14.6579 -14.6567 -14.6479 -14.5227 -14.4708
   -14.4115 -14.2407 -14.0433 -13.7987 -13.7422 -13.7185 -13.6024 -13.3770
    -0.5767  -0.0763  -0.0728   0.0797   0.1732   0.2397   0.4625   0.5065
     0.6412   0.7553   0.8000   0.8088   0.9086   1.0690   1.0977   1.2164
     1.2368   1.2786   1.4479   1.4657   1.4906   1.4935   1.5584   1.6294
     1.6605   1.6830   1.8206   1.9402   1.9574   2.0308   2.0946   2.1298
     2.1941   2.2085   2.2403   2.3077   2.3790   2.5094

          k = 0.0665-0.1081 0.0000 ( 43470 PWs)   bands (ev):

   -62.5454 -62.5443 -62.5049 -62.5038 -62.3451 -62.3433 -36.4264 -36.4202
   -36.3681 -36.3669 -36.3470 -36.3377 -36.3251 -36.3161 -36.2934 -36.2873
   -36.2677 -36.2649 -36.2352 -36.2190 -36.2097 -36.2042 -36.1273 -36.1240
   -31.0214 -30.9346 -30.7800 -30.6940 -29.9306 -29.8372 -15.2053 -15.0360
   -14.8835 -14.8709 -14.7214 -14.6584 -14.6558 -14.6463 -14.5260 -14.4703
   -14.3963 -14.2589 -14.0619 -13.7943 -13.7470 -13.7160 -13.6065 -13.3973
    -0.3525  -0.0507   0.0238   0.0696   0.2764   0.3704   0.4795   0.5368
     0.7065   0.7099   0.7596   0.8216   0.9966   1.0066   1.0366   1.1501
     1.2340   1.2935   1.3848   1.4118   1.5201   1.5346   1.5957   1.6266
     1.6287   1.6534   1.7932   1.9030   1.9677   2.0295   2.0525   2.1202
     2.1243   2.1611   2.2134   2.2839   2.3647   2.4574

          k = 0.0665-0.0940 0.0000 ( 43412 PWs)   bands (ev):

   -62.5453 -62.5443 -62.5048 -62.5038 -62.3450 -62.3434 -36.4262 -36.4203
   -36.3680 -36.3670 -36.3458 -36.3365 -36.3261 -36.3172 -36.2933 -36.2874
   -36.2675 -36.2650 -36.2337 -36.2188 -36.2100 -36.2054 -36.1271 -36.1241
   -31.0169 -30.9394 -30.7755 -30.6991 -29.9261 -29.8422 -15.1610 -14.9908
   -14.8765 -14.8641 -14.7276 -14.6517 -14.6503 -14.6500 -14.5334 -14.4745
   -14.3492 -14.3114 -14.1154 -13.7887 -13.7541 -13.7082 -13.6125 -13.4541
    -0.1255  -0.0954  -0.0060   0.1571   0.2857   0.4875   0.4967   0.5894
     0.6342   0.6690   0.6824   0.8708   0.9245   0.9422   1.0442   1.0802
     1.1479   1.2891   1.3871   1.4683   1.5220   1.5452   1.5508   1.5541
     1.6865   1.7137   1.7181   1.8492   1.9509   1.9934   2.0332   2.1169
     2.1251   2.1594   2.1944   2.3008   2.3396   2.4361

          k = 0.0665-0.0799 0.0000 ( 43430 PWs)   bands (ev):

   -62.5452 -62.5444 -62.5047 -62.5039 -62.3449 -62.3435 -36.4257 -36.4205
   -36.3679 -36.3672 -36.3441 -36.3348 -36.3278 -36.3189 -36.2929 -36.2877
   -36.2672 -36.2652 -36.2315 -36.2187 -36.2106 -36.2073 -36.1268 -36.1243
   -31.0100 -30.9472 -30.7687 -30.7071 -29.9190 -29.8503 -15.0886 -14.9163
   -14.8639 -14.8476 -14.7377 -14.6600 -14.6405 -14.6374 -14.5439 -14.4834
   -14.3936 -14.2729 -14.1990 -13.7819 -13.7628 -13.6960 -13.6202 -13.5422
    -0.1967  -0.1709   0.0669   0.1934   0.3181   0.3838   0.4697   0.5716
     0.5961   0.6007   0.7070   0.8113   0.9285   0.9530   1.0158   1.0926
     1.1304   1.2897   1.3752   1.4247   1.4776   1.5081   1.5667   1.5892
     1.6880   1.7027   1.8226   1.8488   1.9090   1.9249   2.0619   2.0632
     2.0732   2.1609   2.3084   2.3177   2.3306   2.4822

          k = 0.0665-0.0658 0.0000 ( 43431 PWs)   bands (ev):

   -62.5451 -62.5445 -62.5046 -62.5040 -62.3449 -62.3435 -36.4251 -36.4209
   -36.3677 -36.3673 -36.3417 -36.3325 -36.3300 -36.3212 -36.2923 -36.2882
   -36.2668 -36.2654 -36.2286 -36.2188 -36.2112 -36.2095 -36.1264 -36.1244
   -31.0011 -30.9572 -30.7600 -30.7174 -29.9097 -29.8609 -14.9925 -14.8464
   -14.8237 -14.8171 -14.7511 -14.6756 -14.6272 -14.6177 -14.5566 -14.4985
   -14.4970 -14.3059 -14.1716 -13.7747 -13.7722 -13.6816 -13.6530 -13.6295
    -0.3890  -0.2943   0.0596   0.1190   0.1872   0.2765   0.4957   0.5282
     0.5402   0.6373   0.7197   0.7655   0.9414   1.0113   1.0590   1.1058
     1.1738   1.3022   1.3181   1.3246   1.4626   1.4653   1.5893   1.6135
     1.7477   1.7650   1.8127   1.8718   1.9104   1.9822   2.0122   2.0835
     2.1194   2.1458   2.2753   2.3673   2.3893   2.5302

          k = 0.0665-0.0517 0.0000 ( 43419 PWs)   bands (ev):

   -62.5451 -62.5446 -62.5045 -62.5041 -62.3448 -62.3436 -36.4242 -36.4214
   -36.3677 -36.3674 -36.3389 -36.3326 -36.3298 -36.3238 -36.2916 -36.2888
   -36.2664 -36.2657 -36.2254 -36.2199 -36.2119 -36.2110 -36.1261 -36.1247
   -30.9906 -30.9687 -30.7499 -30.7291 -29.8988 -29.8731 -14.8788 -14.8253
   -14.7954 -14.7668 -14.7020 -14.6942 -14.6213 -14.6084 -14.5941 -14.5706
   -14.5151 -14.4278 -14.0510 -13.7863 -13.7812 -13.7635 -13.6620 -13.6406
    -0.6011  -0.3890  -0.0764   0.0279   0.0296   0.1548   0.3968   0.4851
     0.6073   0.7027   0.7140   0.7697   0.9618   1.0274   1.0860   1.1449
     1.1807   1.2324   1.3121   1.3127   1.4530   1.5281   1.5610   1.6307
     1.7441   1.7677   1.8327   1.8733   1.9773   2.0494   2.1099   2.1272
     2.1317   2.2349   2.2559   2.3324   2.4774   2.5589

          k = 0.0665-0.0376 0.0000 ( 43428 PWs)   bands (ev):

   -62.5450 -62.5446 -62.5045 -62.5041 -62.3448 -62.3436 -36.4234 -36.4220
   -36.3679 -36.3672 -36.3360 -36.3354 -36.3270 -36.3265 -36.2909 -36.2895
   -36.2662 -36.2658 -36.2226 -36.2220 -36.2122 -36.2115 -36.1259 -36.1248
   -30.9808 -30.9793 -30.7413 -30.7388 -29.8867 -29.8860 -14.8037 -14.7912
   -14.7666 -14.7486 -14.7424 -14.7219 -14.5943 -14.5925 -14.5760 -14.5675
   -14.5483 -14.5331 -13.9189 -13.9172 -13.7889 -13.7587 -13.6533 -13.6447
    -0.7749  -0.4620  -0.1903  -0.1155  -0.0691   0.1047   0.3258   0.4522
     0.5442   0.7041   0.7662   0.8018   1.0100   1.0108   1.0739   1.1048
     1.1614   1.2437   1.2996   1.3242   1.4931   1.5122   1.6125   1.6496
     1.7432   1.7664   1.8572   1.8708   1.9754   2.1272   2.1447   2.1999
     2.2203   2.2734   2.2812   2.3537   2.5679   2.5767

          k =-0.0798 0.0282 0.0000 ( 43338 PWs)   bands (ev):

   -62.5450 -62.5446 -62.5045 -62.5041 -62.3448 -62.3436 -36.4229 -36.4225
   -36.3677 -36.3674 -36.3358 -36.3355 -36.3269 -36.3265 -36.2904 -36.2900
   -36.2661 -36.2658 -36.2225 -36.2220 -36.2121 -36.2116 -36.1258 -36.1247
   -30.9800 -30.9800 -30.7400 -30.7400 -29.8863 -29.8863 -14.7966 -14.7965
   -14.7519 -14.7518 -14.7394 -14.7393 -14.5919 -14.5919 -14.5714 -14.5714
   -14.5427 -14.5426 -13.9182 -13.9182 -13.7729 -13.7729 -13.6490 -13.6490
    -0.6204  -0.6203  -0.1468  -0.1467   0.0061   0.0062   0.3707   0.3708
     0.5983   0.5984   0.7809   0.7811   1.0251   1.0252   1.0811   1.0813
     1.2069   1.2070   1.2897   1.2899   1.5058   1.5058   1.7154   1.7155
     1.7589   1.7590   1.9378   1.9379   2.0411   2.0412   2.1825   2.1826
     2.2185   2.2187   2.3873   2.3873   2.4889   2.4890

          k =-0.0798 0.0423 0.0000 ( 43419 PWs)   bands (ev):

   -62.5451 -62.5446 -62.5045 -62.5041 -62.3448 -62.3436 -36.4236 -36.4219
   -36.3678 -36.3673 -36.3387 -36.3328 -36.3297 -36.3238 -36.2910 -36.2894
   -36.2664 -36.2656 -36.2254 -36.2200 -36.2118 -36.2111 -36.1260 -36.1246
   -30.9915 -30.9682 -30.7513 -30.7283 -29.8987 -29.8737 -14.8753 -14.8169
   -14.7758 -14.7713 -14.7175 -14.6927 -14.6230 -14.6045 -14.5819 -14.5702
   -14.5288 -14.4301 -14.0496 -13.7892 -13.7735 -13.7670 -13.6641 -13.6352
    -0.6514  -0.5395  -0.1435  -0.1051   0.0284   0.0407   0.3712   0.4099
     0.5599   0.6333   0.7550   0.8077   0.9590   1.0074   1.1005   1.1055
     1.1547   1.2739   1.2906   1.2968   1.4760   1.5463   1.6506   1.7236
     1.7733   1.7815   1.8991   1.9631   2.0409   2.0438   2.1094   2.1537
     2.2214   2.2424   2.2976   2.4143   2.4478   2.5661

          k =-0.0798 0.0563 0.0000 ( 43411 PWs)   bands (ev):

   -62.5451 -62.5445 -62.5046 -62.5040 -62.3449 -62.3435 -36.4245 -36.4212
   -36.3679 -36.3672 -36.3414 -36.3323 -36.3301 -36.3212 -36.2918 -36.2886
   -36.2668 -36.2653 -36.2286 -36.2190 -36.2111 -36.2095 -36.1264 -36.1244
   -31.0020 -30.9570 -30.7615 -30.7170 -29.9098 -29.8616 -14.9890 -14.8388
   -14.8119 -14.8059 -14.7537 -14.6907 -14.6245 -14.6064 -14.5547 -14.5078
   -14.4991 -14.3070 -14.1698 -13.7847 -13.7609 -13.6851 -13.6500 -13.6239
    -0.6341  -0.4160  -0.0853  -0.0489   0.1033   0.1331   0.4078   0.4868
     0.4876   0.6926   0.7432   0.8013   0.8951   0.9717   1.0352   1.1349
     1.1870   1.2742   1.2914   1.3683   1.4611   1.5741   1.5962   1.6864
     1.7916   1.8056   1.8581   1.9674   2.0393   2.0478   2.0552   2.0700
     2.1360   2.2466   2.2778   2.4038   2.4208   2.5700

          k =-0.0798 0.0704 0.0000 ( 43435 PWs)   bands (ev):

   -62.5452 -62.5444 -62.5047 -62.5039 -62.3449 -62.3435 -36.4253 -36.4207
   -36.3680 -36.3671 -36.3439 -36.3347 -36.3279 -36.3189 -36.2925 -36.2880
   -36.2672 -36.2651 -36.2315 -36.2188 -36.2105 -36.2073 -36.1268 -36.1242
   -31.0107 -30.9471 -30.7699 -30.7069 -29.9192 -29.8509 -15.0858 -14.9121
   -14.8585 -14.8334 -14.7390 -14.6704 -14.6386 -14.6288 -14.5418 -14.4904
   -14.3937 -14.2713 -14.1992 -13.7889 -13.7551 -13.6967 -13.6154 -13.5407
    -0.5743  -0.2657  -0.0106   0.0208   0.2043   0.2749   0.3844   0.4793
     0.5906   0.6596   0.7450   0.8010   0.9329   0.9501   0.9600   1.1471
     1.1829   1.2843   1.3317   1.4141   1.4741   1.5073   1.6315   1.6636
     1.7423   1.7794   1.8766   1.9135   2.0005   2.0092   2.0308   2.0621
     2.1001   2.2406   2.2992   2.3637   2.3692   2.5435

          k =-0.0798 0.0845 0.0000 ( 43398 PWs)   bands (ev):

   -62.5453 -62.5443 -62.5048 -62.5038 -62.3450 -62.3434 -36.4260 -36.4204
   -36.3681 -36.3669 -36.3458 -36.3365 -36.3261 -36.3171 -36.2931 -36.2876
   -36.2675 -36.2649 -36.2337 -36.2189 -36.2100 -36.2054 -36.1271 -36.1240
   -31.0173 -30.9395 -30.7762 -30.6991 -29.9262 -29.8426 -15.1594 -14.9883
   -14.8739 -14.8559 -14.7281 -14.6554 -14.6494 -14.6466 -14.5321 -14.4779
   -14.3482 -14.3113 -14.1153 -13.7922 -13.7503 -13.7083 -13.6097 -13.4532
    -0.4788  -0.1098  -0.0042   0.1532   0.2054   0.3242   0.4281   0.5558
     0.6112   0.6714   0.7240   0.8746   0.9133   0.9552   1.0108   1.1505
     1.1818   1.2834   1.3833   1.4429   1.4928   1.4995   1.6161   1.6372
     1.6625   1.7581   1.8278   1.8550   1.9857   1.9980   2.0575   2.0676
     2.1364   2.2378   2.2484   2.3125   2.3530   2.4877

          k =-0.0798 0.0986 0.0000 ( 43470 PWs)   bands (ev):

   -62.5454 -62.5443 -62.5049 -62.5038 -62.3451 -62.3433 -36.4264 -36.4202
   -36.3681 -36.3669 -36.3470 -36.3377 -36.3251 -36.3161 -36.2934 -36.2873
   -36.2677 -36.2649 -36.2352 -36.2190 -36.2097 -36.2042 -36.1273 -36.1240
   -31.0214 -30.9346 -30.7800 -30.6940 -29.9306 -29.8372 -15.2053 -15.0360
   -14.8835 -14.8709 -14.7214 -14.6584 -14.6558 -14.6463 -14.5260 -14.4703
   -14.3963 -14.2589 -14.0619 -13.7943 -13.7470 -13.7160 -13.6065 -13.3973
    -0.3525  -0.0507   0.0238   0.0696   0.2764   0.3704   0.4795   0.5368
     0.7065   0.7099   0.7596   0.8216   0.9966   1.0066   1.0366   1.1501
     1.2340   1.2935   1.3848   1.4118   1.5202   1.5346   1.5957   1.6266
     1.6287   1.6534   1.7932   1.9030   1.9677   2.0295   2.0524   2.1201
     2.1243   2.1611   2.2134   2.2839   2.3646   2.4574

          k =-0.0798-0.0564 0.0000 ( 43510 PWs)   bands (ev):

   -62.5454 -62.5443 -62.5049 -62.5037 -62.3451 -62.3433 -36.4266 -36.4201
   -36.3681 -36.3669 -36.3473 -36.3381 -36.3248 -36.3158 -36.2936 -36.2872
   -36.2678 -36.2648 -36.2357 -36.2191 -36.2096 -36.2038 -36.1274 -36.1239
   -31.0228 -30.9329 -30.7814 -30.6923 -29.9320 -29.8354 -15.2209 -15.0522
   -14.8866 -14.8763 -14.7192 -14.6624 -14.6581 -14.6433 -14.5239 -14.4678
   -14.4126 -14.2409 -14.0437 -13.7951 -13.7459 -13.7186 -13.6055 -13.3781
    -0.2203  -0.1759   0.0343   0.0839   0.3338   0.3887   0.4561   0.5287
     0.7506   0.7546   0.7578   0.8154   0.9734   1.0740   1.1004   1.1092
     1.2771   1.2880   1.3495   1.4199   1.5281   1.5529   1.5591   1.6158
     1.6244   1.6324   1.8476   1.9290   1.9373   1.9945   2.0735   2.0789
     2.1387   2.1479   2.2013   2.2794   2.3689   2.4503

     the Fermi energy is     1.7032 ev

!    total energy              =   -1640.90415250 Ry
     estimated scf accuracy    <       0.00000967 Ry
     smearing contrib. (-TS)   =      -0.12862951 Ry
     internal energy E=F+TS    =   -1640.77552298 Ry

     The total energy is F=E-TS. E is the sum of the following terms:
     one-electron contribution =   -8461.84368101 Ry
     hartree contribution      =    4236.12007244 Ry
     xc contribution           =    -574.68082251 Ry
     ewald contribution        =    3159.62885397 Ry
     electric field correction =       0.00005413 Ry

     convergence has been achieved in  29 iterations

     negative rho (up, down):  8.183E-04 0.000E+00

     Forces acting on atoms (cartesian axes, Ry/au):

     atom    1 type  1   force =    -0.00003362   -0.00002687    0.02697137
     atom    2 type  1   force =    -0.00008220   -0.00005675    0.02697356
     atom    3 type  2   force =     0.00004045    0.00012787   -0.02745808
     atom    4 type  2   force =     0.00013460   -0.00000741   -0.02745326
     atom    5 type  1   force =    -0.00012965   -0.00009928    0.02857521
     atom    6 type  1   force =    -0.00004980   -0.00002931    0.02856897
     atom    7 type  2   force =     0.00007413   -0.00023097   -0.02871998
     atom    8 type  2   force =    -0.00018547    0.00015267   -0.02872574
     atom    9 type  1   force =     0.00006608    0.00004815    0.00125344
     atom   10 type  1   force =     0.00013841    0.00009732    0.00134596
     atom   11 type  2   force =     0.00005447   -0.00004589   -0.00066609
     atom   12 type  2   force =    -0.00002739    0.00007046   -0.00066537

     Total force =     0.079056     Total SCF correction =     0.011403
     SCF correction compared to forces is large: reduce conv_thr to get better values

     Writing output data file ./V2La2/V2La2_beef.save/

     init_run     :    334.86s CPU    336.04s WALL (       1 calls)
     electrons    :  11891.96s CPU  11977.21s WALL (       1 calls)
     forces       :    125.35s CPU    125.86s WALL (       1 calls)

     Called by init_run:
     wfcinit      :    317.54s CPU    318.28s WALL (       1 calls)
     potinit      :      9.43s CPU      9.53s WALL (       1 calls)
     hinit0       :      3.35s CPU      3.37s WALL (       1 calls)

     Called by electrons:
     c_bands      :  10418.62s CPU  10476.87s WALL (      29 calls)
     sum_band     :   1311.11s CPU   1325.58s WALL (      29 calls)
     v_of_rho     :     68.75s CPU     71.22s WALL (      30 calls)
     newd         :    101.10s CPU    111.30s WALL (      30 calls)
     mix_rho      :      2.32s CPU      2.39s WALL (      29 calls)
     vdW_kernel   :      5.83s CPU      5.84s WALL (       1 calls)

     Called by c_bands:
     init_us_2    :     38.58s CPU     38.76s WALL (    4440 calls)
     cegterg      :  10262.31s CPU  10316.48s WALL (    2146 calls)

     Called by *egterg:
     cdiaghg      :    244.66s CPU    245.42s WALL (   11777 calls)
     h_psi        :   5599.63s CPU   5641.40s WALL (   11851 calls)
     s_psi        :   1697.62s CPU   1699.62s WALL (   11851 calls)
     g_psi        :      3.06s CPU      3.11s WALL (    9631 calls)

     Called by h_psi:
     h_psi:calbec :   2061.19s CPU   2065.75s WALL (   11851 calls)
     vloc_psi     :   1745.69s CPU   1780.67s WALL (   11851 calls)
     add_vuspsi   :   1779.99s CPU   1782.15s WALL (   11851 calls)

     General routines
     calbec       :   2989.84s CPU   2995.64s WALL (   14293 calls)
     fft          :     57.30s CPU     58.85s WALL (    1949 calls)
     ffts         :      0.22s CPU      0.23s WALL (      59 calls)
     fftw         :   1951.82s CPU   1988.61s WALL ( 1106300 calls)
     interpolate  :      0.82s CPU      0.84s WALL (      30 calls)

     Parallel routines
     fft_scatt_xy :    109.98s CPU    110.80s WALL ( 1108308 calls)
     fft_scatt_yz :   1030.98s CPU   1059.69s WALL ( 1108308 calls)

     PWSCF        :      3h26m CPU      3h27m WALL


   This run was terminated on:  14:17:31  27Jun2022            

=------------------------------------------------------------------------------=
   JOB DONE.
=------------------------------------------------------------------------------=
