
     Program PWSCF v.6.6 starts on 25Jun2022 at 12:33:34 

     This program is part of the open-source Quantum ESPRESSO suite
     for quantum simulation of materials; please cite
         "P. Giannozzi et al., J. Phys.:Condens. Matter 21 395502 (2009);
         "P. Giannozzi et al., J. Phys.:Condens. Matter 29 465901 (2017);
          URL http://www.quantum-espresso.org", 
     in publications or presentations arising from this work. More details at
     http://www.quantum-espresso.org/quote

     Parallel version (MPI), running on    37 processors

     MPI processes distributed on     1 nodes
     R & G space division:  proc/nbgrp/npool/nimage =      37
     Fft bands division:     nmany     =       1
     Reading input from V2Nb2.in
Warning: card &CELL ignored
Warning: card / ignored

     Current dimensions of program PWSCF are:
     Max number of different atomic species (ntypx) = 10
     Max number of k-points (npk) =  40000
     Max angular momentum in pseudopotentials (lmaxx) =  3
     Presently stress not available with electric field and gates

     Message from routine cell_base_init:
     DEPRECATED: use true lattice parameter, not A to a.u. conversion factor
     file V.pbe-spnl-rrkjus_psl.1.0.0.UPF: wavefunction(s)  3P 3D renormalized
     file Nb.pbe-spn-rrkjus_psl.1.0.0.UPF: wavefunction(s)  4S 4P renormalized

     **************************************************************************
     Initializing libbeef V0.1.2 with the BEEF-vdW functional.
     Citation: Wellendorff et al., PRB 85, 235149 (2012).
     **************************************************************************


     IMPORTANT: XC functional enforced from input :
     Exchange-correlation= BEEF-VDW
                           (   1   4  43  14   2   0   0)
     Any further DFT definition will be discarded
     Please, verify this is what you really want


     Subspace diagonalization in iterative solution of the eigenvalue problem:
     a serial algorithm will be used

     Found symmetry operation: I + ( -0.5000  0.0000  0.0000)
     This is a supercell, fractional translations are disabled

     Parallelization info
     --------------------
     sticks:   dense  smooth     PW     G-vecs:    dense   smooth      PW
     Min         120      47     13                27756     7005    1077
     Max         121      48     14                27764     7034    1100
     Sum        4443    1769    509              1027197   259931   40427



     bravais-lattice index     =            0
     lattice parameter (alat)  =       1.8897  a.u.
     unit-cell volume          =    4699.6507 (a.u.)^3
     number of atoms/cell      =           12
     number of atomic types    =            2
     number of electrons       =       156.00
     number of Kohn-Sham states=           94
     kinetic-energy cutoff     =      55.1240  Ry
     charge density cutoff     =     551.2396  Ry
     convergence threshold     =      1.0E-05
     mixing beta               =       0.1000
     number of iterations used =           10  plain     mixing
     Exchange-correlation= BEEF-VDW
                           (   1   4  43  14   2   0   0)

     celldm(1)=   1.889726  celldm(2)=   0.000000  celldm(3)=   0.000000
     celldm(4)=   0.000000  celldm(5)=   0.000000  celldm(6)=   0.000000

     crystal axes: (cart. coord. in units of alat)
               a(1) = (   5.289769   0.000000   0.000000 )  
               a(2) = (  -2.644885   5.352049   0.000000 )  
               a(3) = (   0.000000   0.000000  24.598707 )  

     reciprocal axes: (cart. coord. in units 2 pi/alat)
               b(1) = (  0.189044  0.093422 -0.000000 )  
               b(2) = (  0.000000  0.186844  0.000000 )  
               b(3) = (  0.000000 -0.000000  0.040653 )  


     PseudoPot. # 1 for V  read from file:
     ../pseudo/V.pbe-spnl-rrkjus_psl.1.0.0.UPF
     MD5 check sum: 79b3eb63147daf0b665d9f1bcc691206
     Pseudo is Ultrasoft + core correction, Zval = 13.0
     Generated using "atomic" code by A. Dal Corso v.6.2.2
     Using radial grid of 1181 points,  6 beta functions with: 
                l(1) =   0
                l(2) =   0
                l(3) =   1
                l(4) =   1
                l(5) =   2
                l(6) =   2
     Q(r) pseudized with 0 coefficients 


     PseudoPot. # 2 for Nb read from file:
     ../pseudo/Nb.pbe-spn-rrkjus_psl.1.0.0.UPF
     MD5 check sum: 6ee677a9f002bd3e3657f443f129faad
     Pseudo is Ultrasoft + core correction, Zval = 13.0
     Generated using "atomic" code by A. Dal Corso v.6.2.2
     Using radial grid of 1227 points,  6 beta functions with: 
                l(1) =   0
                l(2) =   0
                l(3) =   1
                l(4) =   1
                l(5) =   2
                l(6) =   2
     Q(r) pseudized with 0 coefficients 


     atomic species   valence    mass     pseudopotential
        V             13.00    50.94150     V ( 1.00)
        Nb            13.00    92.90637     Nb( 1.00)

     No symmetry found



   Cartesian axes

     site n.     atom                  positions (alat units)
         1           V   tau(   1) = (   0.0000000   0.0000000  10.0000000  )
         2           V   tau(   2) = (   2.6448847   0.0000000  10.0000000  )
         3           Nb  tau(   3) = (   1.3224423   2.6760246  10.0000000  )
         4           Nb  tau(   4) = (  -1.3224423   2.6760246  10.0000000  )
         5           V   tau(   5) = (   2.6448847   1.3070536  12.2993534  )
         6           V   tau(   6) = (  -0.0000000   1.3070536  12.2993534  )
         7           Nb  tau(   7) = (  -1.3224423   3.9830782  12.2993534  )
         8           Nb  tau(   8) = (   1.3224423   3.9830782  12.2993534  )
         9           V   tau(   9) = (  -0.0000043   2.5441186  14.4038275  )
        10           V   tau(  10) = (   2.6448667   2.5441074  14.4038222  )
        11           Nb  tau(  11) = (   1.3225125   5.3485174  14.6165758  )
        12           Nb  tau(  12) = (  -1.3223795   5.3485309  14.6165887  )

     number of k points=    74  Fermi-Dirac smearing, width (Ry)=  0.0100
                       cart. coord. in units 2pi/alat
        k(    1) = (   0.0000000   0.0000000   0.0000000), wk =   0.0138889
        k(    2) = (   0.0000000   0.0155704   0.0000000), wk =   0.0277778
        k(    3) = (   0.0000000   0.0311407   0.0000000), wk =   0.0277778
        k(    4) = (   0.0000000   0.0467111   0.0000000), wk =   0.0277778
        k(    5) = (   0.0000000   0.0622814   0.0000000), wk =   0.0277778
        k(    6) = (   0.0000000   0.0778518   0.0000000), wk =   0.0277778
        k(    7) = (   0.0000000  -0.0934222   0.0000000), wk =   0.0138889
        k(    8) = (   0.0157537   0.0077852   0.0000000), wk =   0.0277778
        k(    9) = (   0.0157537   0.0233555   0.0000000), wk =   0.0277778
        k(   10) = (   0.0157537   0.0389259   0.0000000), wk =   0.0277778
        k(   11) = (   0.0157537   0.0544963   0.0000000), wk =   0.0277778
        k(   12) = (   0.0157537   0.0700666   0.0000000), wk =   0.0277778
        k(   13) = (   0.0157537   0.0856370   0.0000000), wk =   0.0277778
        k(   14) = (   0.0157537  -0.0856370   0.0000000), wk =   0.0277778
        k(   15) = (   0.0157537  -0.0700666   0.0000000), wk =   0.0277778
        k(   16) = (   0.0157537  -0.0544963   0.0000000), wk =   0.0277778
        k(   17) = (   0.0157537  -0.0389259   0.0000000), wk =   0.0277778
        k(   18) = (   0.0157537  -0.0233555   0.0000000), wk =   0.0277778
        k(   19) = (   0.0157537  -0.0077852   0.0000000), wk =   0.0277778
        k(   20) = (   0.0315074   0.0155704   0.0000000), wk =   0.0277778
        k(   21) = (   0.0315074   0.0311407   0.0000000), wk =   0.0277778
        k(   22) = (   0.0315074   0.0467111   0.0000000), wk =   0.0277778
        k(   23) = (   0.0315074   0.0622814   0.0000000), wk =   0.0277778
        k(   24) = (   0.0315074   0.0778518   0.0000000), wk =   0.0277778
        k(   25) = (   0.0315074   0.0934222   0.0000000), wk =   0.0277778
        k(   26) = (   0.0315074  -0.0778518   0.0000000), wk =   0.0277778
        k(   27) = (   0.0315074  -0.0622814   0.0000000), wk =   0.0277778
        k(   28) = (   0.0315074  -0.0467111   0.0000000), wk =   0.0277778
        k(   29) = (   0.0315074  -0.0311407   0.0000000), wk =   0.0277778
        k(   30) = (   0.0315074  -0.0155704   0.0000000), wk =   0.0277778
        k(   31) = (   0.0315074   0.0000000   0.0000000), wk =   0.0277778
        k(   32) = (   0.0472610   0.0233555   0.0000000), wk =   0.0277778
        k(   33) = (   0.0472610   0.0389259   0.0000000), wk =   0.0277778
        k(   34) = (   0.0472610   0.0544963   0.0000000), wk =   0.0277778
        k(   35) = (   0.0472610   0.0700666   0.0000000), wk =   0.0277778
        k(   36) = (   0.0472610   0.0856370   0.0000000), wk =   0.0277778
        k(   37) = (   0.0472610   0.1012073   0.0000000), wk =   0.0277778
        k(   38) = (   0.0472610  -0.0700666   0.0000000), wk =   0.0277778
        k(   39) = (   0.0472610  -0.0544963   0.0000000), wk =   0.0277778
        k(   40) = (   0.0472610  -0.0389259   0.0000000), wk =   0.0277778
        k(   41) = (   0.0472610  -0.0233555   0.0000000), wk =   0.0277778
        k(   42) = (   0.0472610  -0.0077852   0.0000000), wk =   0.0277778
        k(   43) = (   0.0472610   0.0077852   0.0000000), wk =   0.0277778
        k(   44) = (   0.0630147   0.0311407   0.0000000), wk =   0.0277778
        k(   45) = (   0.0630147   0.0467111   0.0000000), wk =   0.0277778
        k(   46) = (   0.0630147   0.0622814   0.0000000), wk =   0.0277778
        k(   47) = (   0.0630147   0.0778518   0.0000000), wk =   0.0277778
        k(   48) = (   0.0630147   0.0934222   0.0000000), wk =   0.0277778
        k(   49) = (   0.0630147   0.1089925   0.0000000), wk =   0.0277778
        k(   50) = (   0.0630147  -0.0622814   0.0000000), wk =   0.0277778
        k(   51) = (   0.0630147  -0.0467111   0.0000000), wk =   0.0277778
        k(   52) = (   0.0630147  -0.0311407   0.0000000), wk =   0.0277778
        k(   53) = (   0.0630147  -0.0155704   0.0000000), wk =   0.0277778
        k(   54) = (   0.0630147   0.0000000   0.0000000), wk =   0.0277778
        k(   55) = (   0.0630147   0.0155704   0.0000000), wk =   0.0277778
        k(   56) = (   0.0787684   0.0389259   0.0000000), wk =   0.0277778
        k(   57) = (   0.0787684   0.0544963   0.0000000), wk =   0.0277778
        k(   58) = (   0.0787684   0.0700666   0.0000000), wk =   0.0277778
        k(   59) = (   0.0787684   0.0856370   0.0000000), wk =   0.0277778
        k(   60) = (   0.0787684   0.1012074   0.0000000), wk =   0.0277778
        k(   61) = (   0.0787684   0.1167777   0.0000000), wk =   0.0277778
        k(   62) = (   0.0787684  -0.0544963   0.0000000), wk =   0.0277778
        k(   63) = (   0.0787684  -0.0389259   0.0000000), wk =   0.0277778
        k(   64) = (   0.0787684  -0.0233555   0.0000000), wk =   0.0277778
        k(   65) = (   0.0787684  -0.0077852   0.0000000), wk =   0.0277778
        k(   66) = (   0.0787684   0.0077852   0.0000000), wk =   0.0277778
        k(   67) = (   0.0787684   0.0233555   0.0000000), wk =   0.0277778
        k(   68) = (  -0.0945221  -0.0467111   0.0000000), wk =   0.0138889
        k(   69) = (  -0.0945221  -0.0311407   0.0000000), wk =   0.0277778
        k(   70) = (  -0.0945221  -0.0155704   0.0000000), wk =   0.0277778
        k(   71) = (  -0.0945221  -0.0000000   0.0000000), wk =   0.0277778
        k(   72) = (  -0.0945221   0.0155704   0.0000000), wk =   0.0277778
        k(   73) = (  -0.0945221   0.0311407   0.0000000), wk =   0.0277778
        k(   74) = (  -0.0945221  -0.1401333   0.0000000), wk =   0.0138889

     Dense  grid:  1027197 G-vectors     FFT dimensions: (  75,  90, 360)

     Smooth grid:   259931 G-vectors     FFT dimensions: (  48,  54, 225)

     Estimated max dynamical RAM per process >     205.37 MB

     Estimated total dynamical RAM >       7.42 GB

     Initial potential from superposition of free atoms

     starting charge  155.98669, renormalised to  156.00000

     negative rho (up, down):  1.361E-03 0.000E+00


     %%%%%%%%%%%%%%%%%%%%%%%%%%%%%%%%%%%%%%%%%%%%%%%%%%%%%%%%%%%%%%%%%%%%%%%%
     %                                                                      %
     % You are using vdW-DF, which was implemented by the Thonhauser group. %
     % Please cite the following two papers that made this development      %
     % possible and the two reviews that describe the various versions:     %
     %                                                                      %
     %   T. Thonhauser et al., PRL 115, 136402 (2015).                      %
     %   T. Thonhauser et al., PRB 76, 125112 (2007).                       %
     %   K. Berland et al., Rep. Prog. Phys. 78, 066501 (2015).             %
     %   D.C. Langreth et al., J. Phys.: Condens. Matter 21, 084203 (2009). %
     %                                                                      %
     %                                                                      %
     % If you are calculating the stress with vdW-DF, please also cite:     %
     %                                                                      %
     %   R. Sabatini et al., J. Phys.: Condens. Matter 24, 424209 (2012).   %
     %                                                                      %
     %%%%%%%%%%%%%%%%%%%%%%%%%%%%%%%%%%%%%%%%%%%%%%%%%%%%%%%%%%%%%%%%%%%%%%%%



     Adding external electric field

     Computed dipole along edir(3) : 
        Dipole                0.0002 Ry au,          0.0004 Debye
        Dipole field          0.0000 Ry au, 

        Potential amp.       -0.0000 Ry
        Total length         45.3227 bohr

     Starting wfcs are  138 randomized atomic wfcs

     total cpu time spent up to now is      112.7 secs

     Self-consistent Calculation

     iteration #  1     ecut=    55.12 Ry     beta= 0.10
     Davidson diagonalization with overlap
     ethr =  1.00E-02,  avg # of iterations =  2.0

     negative rho (up, down):  1.310E-03 0.000E+00

     Adding external electric field

     Computed dipole along edir(3) : 
        Dipole               -0.6134 Ry au,         -1.5590 Debye
        Dipole field         -0.0016 Ry au, 

        Potential amp.        0.1487 Ry
        Total length         45.3227 bohr


     total cpu time spent up to now is      329.8 secs

     total energy              =   -1588.03001015 Ry
     estimated scf accuracy    <       9.80620816 Ry

     iteration #  2     ecut=    55.12 Ry     beta= 0.10
     Davidson diagonalization with overlap
     ethr =  6.29E-03,  avg # of iterations =  3.5

     negative rho (up, down):  3.111E-03 0.000E+00

     Adding external electric field

     Computed dipole along edir(3) : 
        Dipole                0.8476 Ry au,          2.1544 Debye
        Dipole field          0.0023 Ry au, 

        Potential amp.       -0.2054 Ry
        Total length         45.3227 bohr


     total cpu time spent up to now is      525.5 secs

     total energy              =   -1587.68617389 Ry
     estimated scf accuracy    <      48.82098045 Ry

     iteration #  3     ecut=    55.12 Ry     beta= 0.10
     Davidson diagonalization with overlap
     ethr =  6.29E-03,  avg # of iterations =  2.1

     negative rho (up, down):  3.517E-03 0.000E+00

     Adding external electric field

     Computed dipole along edir(3) : 
        Dipole                0.0280 Ry au,          0.0712 Debye
        Dipole field          0.0001 Ry au, 

        Potential amp.       -0.0068 Ry
        Total length         45.3227 bohr


     total cpu time spent up to now is      710.4 secs

     total energy              =   -1588.46373007 Ry
     estimated scf accuracy    <      55.01248835 Ry

     iteration #  4     ecut=    55.12 Ry     beta= 0.10
     Davidson diagonalization with overlap
     ethr =  6.29E-03,  avg # of iterations =  1.0

     negative rho (up, down):  3.350E-03 0.000E+00

     Adding external electric field

     Computed dipole along edir(3) : 
        Dipole                0.0129 Ry au,          0.0329 Debye
        Dipole field          0.0000 Ry au, 

        Potential amp.       -0.0031 Ry
        Total length         45.3227 bohr


     total cpu time spent up to now is      865.1 secs

     total energy              =   -1589.03903025 Ry
     estimated scf accuracy    <       0.79008402 Ry

     iteration #  5     ecut=    55.12 Ry     beta= 0.10
     Davidson diagonalization with overlap
     ethr =  5.06E-04,  avg # of iterations =  2.5

     negative rho (up, down):  2.210E-03 0.000E+00

     Adding external electric field

     Computed dipole along edir(3) : 
        Dipole                0.0607 Ry au,          0.1542 Debye
        Dipole field          0.0002 Ry au, 

        Potential amp.       -0.0147 Ry
        Total length         45.3227 bohr


     total cpu time spent up to now is     1084.9 secs

     total energy              =   -1588.98371042 Ry
     estimated scf accuracy    <       0.34235827 Ry

     iteration #  6     ecut=    55.12 Ry     beta= 0.10
     Davidson diagonalization with overlap
     ethr =  2.19E-04,  avg # of iterations =  8.4

     negative rho (up, down):  1.718E-03 0.000E+00

     Adding external electric field

     Computed dipole along edir(3) : 
        Dipole                0.0311 Ry au,          0.0789 Debye
        Dipole field          0.0001 Ry au, 

        Potential amp.       -0.0075 Ry
        Total length         45.3227 bohr


     total cpu time spent up to now is     1404.4 secs

     total energy              =   -1589.03562875 Ry
     estimated scf accuracy    <       0.15003345 Ry

     iteration #  7     ecut=    55.12 Ry     beta= 0.10
     Davidson diagonalization with overlap
     ethr =  9.62E-05,  avg # of iterations =  2.6

     negative rho (up, down):  1.831E-03 0.000E+00

     Adding external electric field

     Computed dipole along edir(3) : 
        Dipole                0.0388 Ry au,          0.0987 Debye
        Dipole field          0.0001 Ry au, 

        Potential amp.       -0.0094 Ry
        Total length         45.3227 bohr


     total cpu time spent up to now is     1593.7 secs

     total energy              =   -1589.04190919 Ry
     estimated scf accuracy    <       0.06992295 Ry

     iteration #  8     ecut=    55.12 Ry     beta= 0.10
     Davidson diagonalization with overlap
     c_bands:  2 eigenvalues not converged
     c_bands:  2 eigenvalues not converged
     ethr =  4.48E-05,  avg # of iterations =  3.7

     negative rho (up, down):  1.009E-02 0.000E+00

     Adding external electric field

     Computed dipole along edir(3) : 
        Dipole                0.0383 Ry au,          0.0974 Debye
        Dipole field          0.0001 Ry au, 

        Potential amp.       -0.0093 Ry
        Total length         45.3227 bohr


     total cpu time spent up to now is     1802.6 secs

     total energy              =   -1589.03676937 Ry
     estimated scf accuracy    <       0.03423877 Ry

     iteration #  9     ecut=    55.12 Ry     beta= 0.10
     Davidson diagonalization with overlap
     c_bands:  2 eigenvalues not converged
     c_bands:  1 eigenvalues not converged
     c_bands:  2 eigenvalues not converged
     ethr =  2.19E-05,  avg # of iterations =  8.9

     negative rho (up, down):  8.091E-03 0.000E+00

     Adding external electric field

     Computed dipole along edir(3) : 
        Dipole                0.0455 Ry au,          0.1156 Debye
        Dipole field          0.0001 Ry au, 

        Potential amp.       -0.0110 Ry
        Total length         45.3227 bohr


     total cpu time spent up to now is     2318.9 secs

     total energy              =   -1589.04210909 Ry
     estimated scf accuracy    <       0.06077897 Ry

     iteration # 10     ecut=    55.12 Ry     beta= 0.10
     Davidson diagonalization with overlap
     ethr =  2.19E-05,  avg # of iterations =  2.3

     negative rho (up, down):  7.016E-03 0.000E+00

     Adding external electric field

     Computed dipole along edir(3) : 
        Dipole                0.0392 Ry au,          0.0996 Debye
        Dipole field          0.0001 Ry au, 

        Potential amp.       -0.0095 Ry
        Total length         45.3227 bohr


     total cpu time spent up to now is     2513.6 secs

     total energy              =   -1589.04380467 Ry
     estimated scf accuracy    <       0.00975630 Ry

     iteration # 11     ecut=    55.12 Ry     beta= 0.10
     Davidson diagonalization with overlap
     c_bands:  1 eigenvalues not converged
     c_bands:  1 eigenvalues not converged
     c_bands:  1 eigenvalues not converged
     c_bands:  1 eigenvalues not converged
     c_bands:  2 eigenvalues not converged
     c_bands:  2 eigenvalues not converged
     c_bands:  2 eigenvalues not converged
     c_bands:  1 eigenvalues not converged
     c_bands:  1 eigenvalues not converged
     c_bands:  1 eigenvalues not converged
     c_bands:  1 eigenvalues not converged
     c_bands:  1 eigenvalues not converged
     c_bands:  1 eigenvalues not converged
     c_bands:  2 eigenvalues not converged
     c_bands:  1 eigenvalues not converged
     c_bands:  1 eigenvalues not converged
     c_bands:  1 eigenvalues not converged
     c_bands:  1 eigenvalues not converged
     c_bands:  2 eigenvalues not converged
     ethr =  6.25E-06,  avg # of iterations = 12.6

     negative rho (up, down):  8.164E-03 0.000E+00

     Adding external electric field

     Computed dipole along edir(3) : 
        Dipole                0.0159 Ry au,          0.0405 Debye
        Dipole field          0.0000 Ry au, 

        Potential amp.       -0.0039 Ry
        Total length         45.3227 bohr


     total cpu time spent up to now is     2817.9 secs

     total energy              =   -1589.04479290 Ry
     estimated scf accuracy    <       0.00994370 Ry

     iteration # 12     ecut=    55.12 Ry     beta= 0.10
     Davidson diagonalization with overlap
     c_bands:  1 eigenvalues not converged
     c_bands:  1 eigenvalues not converged
     c_bands:  1 eigenvalues not converged
     ethr =  6.25E-06,  avg # of iterations =  3.9

     negative rho (up, down):  9.433E-03 0.000E+00

     Adding external electric field

     Computed dipole along edir(3) : 
        Dipole                0.0363 Ry au,          0.0923 Debye
        Dipole field          0.0001 Ry au, 

        Potential amp.       -0.0088 Ry
        Total length         45.3227 bohr


     total cpu time spent up to now is     3062.3 secs

     total energy              =   -1589.04420734 Ry
     estimated scf accuracy    <       0.02947260 Ry

     iteration # 13     ecut=    55.12 Ry     beta= 0.10
     Davidson diagonalization with overlap
     ethr =  6.25E-06,  avg # of iterations =  2.2

     negative rho (up, down):  9.111E-03 0.000E+00

     Adding external electric field

     Computed dipole along edir(3) : 
        Dipole                0.0342 Ry au,          0.0870 Debye
        Dipole field          0.0001 Ry au, 

        Potential amp.       -0.0083 Ry
        Total length         45.3227 bohr


     total cpu time spent up to now is     3397.8 secs

     total energy              =   -1589.04560771 Ry
     estimated scf accuracy    <       0.00160940 Ry

     iteration # 14     ecut=    55.12 Ry     beta= 0.10
     Davidson diagonalization with overlap
     c_bands:  1 eigenvalues not converged
     ethr =  1.03E-06,  avg # of iterations =  5.8

     negative rho (up, down):  8.684E-03 0.000E+00

     Adding external electric field

     Computed dipole along edir(3) : 
        Dipole                0.0354 Ry au,          0.0899 Debye
        Dipole field          0.0001 Ry au, 

        Potential amp.       -0.0086 Ry
        Total length         45.3227 bohr


     total cpu time spent up to now is     3616.4 secs

     total energy              =   -1589.04582133 Ry
     estimated scf accuracy    <       0.00038110 Ry

     iteration # 15     ecut=    55.12 Ry     beta= 0.10
     Davidson diagonalization with overlap
     c_bands:  1 eigenvalues not converged
     c_bands:  1 eigenvalues not converged
     c_bands:  1 eigenvalues not converged
     c_bands:  1 eigenvalues not converged
     ethr =  2.44E-07,  avg # of iterations =  7.4

     negative rho (up, down):  7.743E-03 0.000E+00

     Adding external electric field

     Computed dipole along edir(3) : 
        Dipole                0.0362 Ry au,          0.0920 Debye
        Dipole field          0.0001 Ry au, 

        Potential amp.       -0.0088 Ry
        Total length         45.3227 bohr


     total cpu time spent up to now is     3961.9 secs

     total energy              =   -1589.04613090 Ry
     estimated scf accuracy    <       0.00107042 Ry

     iteration # 16     ecut=    55.12 Ry     beta= 0.10
     Davidson diagonalization with overlap
     ethr =  2.44E-07,  avg # of iterations =  1.4

     negative rho (up, down):  7.216E-03 0.000E+00

     Adding external electric field

     Computed dipole along edir(3) : 
        Dipole                0.0361 Ry au,          0.0916 Debye
        Dipole field          0.0001 Ry au, 

        Potential amp.       -0.0087 Ry
        Total length         45.3227 bohr


     total cpu time spent up to now is     4133.9 secs

     total energy              =   -1589.04613786 Ry
     estimated scf accuracy    <       0.00061905 Ry

     iteration # 17     ecut=    55.12 Ry     beta= 0.10
     Davidson diagonalization with overlap
     ethr =  2.44E-07,  avg # of iterations =  4.9

     negative rho (up, down):  6.787E-03 0.000E+00

     Adding external electric field

     Computed dipole along edir(3) : 
        Dipole                0.0373 Ry au,          0.0947 Debye
        Dipole field          0.0001 Ry au, 

        Potential amp.       -0.0090 Ry
        Total length         45.3227 bohr


     total cpu time spent up to now is     4348.0 secs

     total energy              =   -1589.04630512 Ry
     estimated scf accuracy    <       0.00024053 Ry

     iteration # 18     ecut=    55.12 Ry     beta= 0.10
     Davidson diagonalization with overlap
     ethr =  1.54E-07,  avg # of iterations =  2.0

     negative rho (up, down):  6.155E-03 0.000E+00

     Adding external electric field

     Computed dipole along edir(3) : 
        Dipole                0.0369 Ry au,          0.0938 Debye
        Dipole field          0.0001 Ry au, 

        Potential amp.       -0.0089 Ry
        Total length         45.3227 bohr


     total cpu time spent up to now is     4536.1 secs

     total energy              =   -1589.04640953 Ry
     estimated scf accuracy    <       0.00013502 Ry

     iteration # 19     ecut=    55.12 Ry     beta= 0.10
     Davidson diagonalization with overlap
     ethr =  8.66E-08,  avg # of iterations =  1.8

     negative rho (up, down):  5.754E-03 0.000E+00

     Adding external electric field

     Computed dipole along edir(3) : 
        Dipole                0.0363 Ry au,          0.0922 Debye
        Dipole field          0.0001 Ry au, 

        Potential amp.       -0.0088 Ry
        Total length         45.3227 bohr


     total cpu time spent up to now is     4778.5 secs

     total energy              =   -1589.04648171 Ry
     estimated scf accuracy    <       0.00002017 Ry

     iteration # 20     ecut=    55.12 Ry     beta= 0.10
     Davidson diagonalization with overlap
     ethr =  1.29E-08,  avg # of iterations =  6.7

     negative rho (up, down):  5.169E-03 0.000E+00

     Adding external electric field

     Computed dipole along edir(3) : 
        Dipole                0.0362 Ry au,          0.0920 Debye
        Dipole field          0.0001 Ry au, 

        Potential amp.       -0.0088 Ry
        Total length         45.3227 bohr


     total cpu time spent up to now is     5057.3 secs

     total energy              =   -1589.04657177 Ry
     estimated scf accuracy    <       0.00004981 Ry

     iteration # 21     ecut=    55.12 Ry     beta= 0.10
     Davidson diagonalization with overlap
     ethr =  1.29E-08,  avg # of iterations =  5.1

     negative rho (up, down):  1.354E-03 0.000E+00

     Adding external electric field

     Computed dipole along edir(3) : 
        Dipole                0.0337 Ry au,          0.0855 Debye
        Dipole field          0.0001 Ry au, 

        Potential amp.       -0.0082 Ry
        Total length         45.3227 bohr


     total cpu time spent up to now is     5256.6 secs

     End of self-consistent calculation

          k = 0.0000 0.0000 0.0000 ( 32481 PWs)   bands (ev):

   -62.8629 -62.7974 -62.7953 -62.7286 -62.7159 -62.6512 -53.5496 -53.4904
   -53.3129 -53.2536 -53.2469 -53.0095 -36.8663 -36.8063 -36.7988 -36.7747
   -36.7125 -36.7065 -36.6564 -36.6347 -36.5930 -36.5736 -36.5309 -36.5269
   -36.4666 -36.3004 -36.2819 -36.2794 -36.2351 -36.2166 -30.3212 -30.2701
   -30.0990 -30.0351 -29.7976 -29.6237 -29.5254 -29.4617 -29.4137 -29.3198
   -29.2540 -29.2515 -29.0428 -28.8735 -28.6931 -28.6447 -28.5972 -28.4412
    -4.2358  -2.8079  -2.4715  -2.2033  -2.0921  -1.8566  -1.5175  -1.3822
    -1.3722  -1.2044  -1.1686  -1.1122  -1.0201  -0.8155  -0.5903  -0.5842
     0.0787   0.0963   0.1302   0.5037   0.6922   0.7106   0.9374   0.9926
     1.0061   1.0479   1.3953   1.6607   1.8299   1.8979   1.9920   2.1137
     2.3306   2.3969   2.4168   2.4686   2.4738   2.5846   2.8523   2.8626
     2.8888   3.0327   3.1580   3.2214   3.2449   3.2710

          k = 0.0000 0.0156 0.0000 ( 32508 PWs)   bands (ev):

   -62.8629 -62.7974 -62.7953 -62.7286 -62.7159 -62.6512 -53.5497 -53.4905
   -53.3130 -53.2537 -53.2469 -53.0095 -36.8661 -36.8061 -36.7988 -36.7746
   -36.7126 -36.7065 -36.6564 -36.6342 -36.5927 -36.5734 -36.5308 -36.5268
   -36.4666 -36.3004 -36.2819 -36.2794 -36.2351 -36.2166 -30.3218 -30.2702
   -30.0991 -30.0357 -29.7978 -29.6235 -29.5267 -29.4625 -29.4136 -29.3202
   -29.2542 -29.2519 -29.0429 -28.8736 -28.6931 -28.6448 -28.5972 -28.4412
    -4.1885  -2.7632  -2.4493  -2.1622  -2.0547  -1.8525  -1.5298  -1.3479
    -1.3430  -1.1765  -1.1432  -1.0842  -1.0068  -0.7873  -0.5850  -0.5464
     0.0705   0.1209   0.1276   0.4577   0.6610   0.7344   0.9313   0.9651
     1.0053   1.0197   1.3738   1.6051   1.7937   1.8662   1.9303   2.0951
     2.2664   2.3355   2.3684   2.4239   2.4837   2.6014   2.8545   2.8648
     2.8984   2.9100   3.0037   3.2174   3.2567   3.2625

          k = 0.0000 0.0311 0.0000 ( 32498 PWs)   bands (ev):

   -62.8629 -62.7974 -62.7953 -62.7286 -62.7159 -62.6512 -53.5498 -53.4905
   -53.3129 -53.2536 -53.2470 -53.0094 -36.8655 -36.8055 -36.7986 -36.7745
   -36.7127 -36.7063 -36.6565 -36.6329 -36.5917 -36.5729 -36.5304 -36.5263
   -36.4666 -36.3003 -36.2818 -36.2794 -36.2351 -36.2166 -30.3234 -30.2707
   -30.0994 -30.0374 -29.7984 -29.6229 -29.5300 -29.4646 -29.4134 -29.3213
   -29.2549 -29.2529 -29.0433 -28.8735 -28.6930 -28.6449 -28.5973 -28.4412
    -4.0487  -2.6331  -2.3864  -2.0581  -1.9458  -1.8390  -1.5536  -1.2780
    -1.2317  -1.1027  -1.0713  -1.0035  -0.9690  -0.7022  -0.5854  -0.4208
     0.0696   0.1204   0.1527   0.3654   0.5860   0.7321   0.8899   0.9060
     0.9711   0.9905   1.2971   1.4761   1.7034   1.7110   1.8508   2.0180
     2.0806   2.1323   2.2469   2.3523   2.5107   2.5728   2.6498   2.7097
     2.7900   2.9028   2.9684   3.1049   3.1213   3.2067

          k = 0.0000 0.0467 0.0000 ( 32500 PWs)   bands (ev):

   -62.8628 -62.7974 -62.7953 -62.7286 -62.7159 -62.6512 -53.5499 -53.4906
   -53.3130 -53.2537 -53.2470 -53.0095 -36.8646 -36.8046 -36.7984 -36.7744
   -36.7129 -36.7062 -36.6565 -36.6311 -36.5905 -36.5723 -36.5299 -36.5256
   -36.4667 -36.3003 -36.2818 -36.2793 -36.2351 -36.2166 -30.3255 -30.2714
   -30.0998 -30.0397 -29.7992 -29.6221 -29.5344 -29.4675 -29.4131 -29.3228
   -29.2558 -29.2542 -29.0440 -28.8735 -28.6930 -28.6450 -28.5974 -28.4413
    -3.8239  -2.4318  -2.2945  -2.0287  -1.7756  -1.7370  -1.5574  -1.1718
    -1.0783  -0.9997  -0.9649  -0.9137  -0.8812  -0.5701  -0.5622  -0.2383
     0.0503   0.1208   0.1454   0.2793   0.5005   0.6755   0.7821   0.8430
     0.9279   0.9402   1.1718   1.3408   1.4361   1.5959   1.7356   1.8160
     1.8412   1.9157   2.0796   2.1049   2.3459   2.4753   2.5476   2.6018
     2.7196   2.7226   2.9465   2.9592   3.0539   3.1938

          k = 0.0000 0.0623 0.0000 ( 32442 PWs)   bands (ev):

   -62.8628 -62.7974 -62.7953 -62.7286 -62.7159 -62.6512 -53.5500 -53.4906
   -53.3129 -53.2536 -53.2470 -53.0093 -36.8638 -36.8037 -36.7981 -36.7742
   -36.7132 -36.7060 -36.6565 -36.6292 -36.5893 -36.5716 -36.5293 -36.5249
   -36.4668 -36.3001 -36.2817 -36.2793 -36.2350 -36.2166 -30.3277 -30.2721
   -30.1003 -30.0420 -29.7999 -29.6213 -29.5389 -29.4704 -29.4128 -29.3243
   -29.2568 -29.2556 -29.0445 -28.8734 -28.6929 -28.6452 -28.5974 -28.4413
    -3.5273  -2.2096  -2.1938  -2.1615  -1.5960  -1.5641  -1.4363  -1.0467
    -0.9891  -0.8881  -0.8493  -0.8172  -0.7405  -0.4923  -0.3807  -0.0975
    -0.0666   0.1250   0.1906   0.2176   0.4486   0.6201   0.6953   0.7322
     0.7952   0.8758   1.0419   1.1730   1.2481   1.3884   1.4152   1.5797
     1.6228   1.6514   1.9380   1.9523   2.0673   2.2290   2.5480   2.5611
     2.5853   2.7827   2.8071   3.0097   3.1133   3.1575

          k = 0.0000 0.0779 0.0000 ( 32424 PWs)   bands (ev):

   -62.8628 -62.7974 -62.7952 -62.7286 -62.7159 -62.6512 -53.5501 -53.4907
   -53.3129 -53.2536 -53.2470 -53.0093 -36.8631 -36.8030 -36.7979 -36.7741
   -36.7133 -36.7058 -36.6566 -36.6279 -36.5884 -36.5711 -36.5289 -36.5244
   -36.4668 -36.3001 -36.2817 -36.2793 -36.2350 -36.2166 -30.3292 -30.2726
   -30.1006 -30.0436 -29.8005 -29.6207 -29.5421 -29.4726 -29.4126 -29.3253
   -29.2574 -29.2567 -29.0450 -28.8733 -28.6928 -28.6453 -28.5975 -28.4413
    -3.1797  -2.4639  -2.1124  -1.9437  -1.5965  -1.3443  -1.1526  -1.0263
    -0.9338  -0.8171  -0.7560  -0.6744  -0.6262  -0.3453  -0.2733  -0.1978
    -0.0723   0.0767   0.1371   0.3911   0.4736   0.5864   0.6148   0.6313
     0.6376   0.7933   0.9323   1.0542   1.1428   1.1667   1.1954   1.3417
     1.3658   1.4561   1.6895   1.6928   2.0255   2.2395   2.5168   2.6070
     2.6139   2.6550   2.8837   2.9243   2.9707   3.0220

          k = 0.0000-0.0934 0.0000 ( 32440 PWs)   bands (ev):

   -62.8628 -62.7974 -62.7952 -62.7286 -62.7159 -62.6512 -53.5501 -53.4907
   -53.3129 -53.2536 -53.2471 -53.0093 -36.8629 -36.8028 -36.7978 -36.7741
   -36.7134 -36.7058 -36.6566 -36.6274 -36.5881 -36.5709 -36.5287 -36.5242
   -36.4669 -36.3001 -36.2817 -36.2793 -36.2350 -36.2166 -30.3298 -30.2728
   -30.1007 -30.0443 -29.8007 -29.6205 -29.5433 -29.4733 -29.4125 -29.3257
   -29.2577 -29.2571 -29.0451 -28.8733 -28.6928 -28.6453 -28.5975 -28.4413
    -2.8316  -2.7901  -2.0806  -1.8147  -1.6314  -1.1814  -1.1255  -0.9968
    -0.8843  -0.7825  -0.6532  -0.6182  -0.5858  -0.4721  -0.2610  -0.1052
    -0.0702   0.0506   0.1175   0.3829   0.5292   0.5510   0.5643   0.6223
     0.6666   0.7164   0.9438   1.0217   1.0640   1.1454   1.1467   1.1737
     1.2450   1.2730   1.5659   1.6623   1.9693   2.4389   2.4810   2.5230
     2.6050   2.6248   2.8432   2.9225   2.9686   3.0126

          k = 0.0158 0.0078 0.0000 ( 32494 PWs)   bands (ev):

   -62.8618 -62.7985 -62.7942 -62.7297 -62.7148 -62.6523 -53.5457 -53.4865
   -53.3171 -53.2578 -53.2430 -53.0137 -36.8651 -36.7999 -36.7979 -36.7665
   -36.7115 -36.6984 -36.6574 -36.6335 -36.5918 -36.5744 -36.5318 -36.5259
   -36.4675 -36.3091 -36.2880 -36.2811 -36.2358 -36.2251 -30.2950 -30.2440
   -30.0731 -30.0314 -29.8020 -29.6202 -29.5224 -29.4585 -29.4173 -29.3238
   -29.2579 -29.2481 -29.0465 -28.8706 -28.6962 -28.6761 -28.6285 -28.4722
    -4.1748  -2.7477  -2.4238  -2.1557  -2.0596  -1.7932  -1.4652  -1.3994
    -1.3071  -1.1346  -1.1254  -1.0970  -0.9868  -0.7984  -0.5701  -0.5361
     0.0962   0.1370   0.1430   0.5211   0.7148   0.7432   0.9238   0.9862
     1.0134   1.0351   1.3843   1.6613   1.8142   1.8998   1.9406   2.1053
     2.1829   2.2557   2.3864   2.3960   2.5286   2.5959   2.7577   2.8289
     2.8692   2.9172   3.0706   3.1676   3.1888   3.2708

          k = 0.0158 0.0234 0.0000 ( 32494 PWs)   bands (ev):

   -62.8618 -62.7985 -62.7942 -62.7297 -62.7148 -62.6523 -53.5457 -53.4866
   -53.3171 -53.2578 -53.2430 -53.0136 -36.8647 -36.7998 -36.7974 -36.7664
   -36.7117 -36.6983 -36.6574 -36.6326 -36.5912 -36.5741 -36.5316 -36.5256
   -36.4676 -36.3091 -36.2880 -36.2811 -36.2359 -36.2251 -30.2961 -30.2443
   -30.0733 -30.0325 -29.8023 -29.6198 -29.5247 -29.4600 -29.4171 -29.3245
   -29.2583 -29.2488 -29.0468 -28.8706 -28.6962 -28.6761 -28.6285 -28.4722
    -4.0811  -2.6595  -2.3803  -2.0780  -1.9881  -1.7860  -1.4836  -1.3408
    -1.2424  -1.0920  -1.0742  -1.0364  -0.9608  -0.7440  -0.5392  -0.4814
     0.0984   0.1322   0.1671   0.4389   0.6555   0.7630   0.8898   0.9550
     0.9993   1.0059   1.3361   1.5465   1.7459   1.7836   1.8676   2.0620
     2.1069   2.1162   2.3147   2.3519   2.5305   2.5808   2.6707   2.7875
     2.8387   2.8720   2.9079   3.1294   3.1648   3.2373

          k = 0.0158 0.0389 0.0000 ( 32482 PWs)   bands (ev):

   -62.8617 -62.7985 -62.7942 -62.7297 -62.7148 -62.6523 -53.5458 -53.4866
   -53.3171 -53.2578 -53.2430 -53.0137 -36.8639 -36.7997 -36.7966 -36.7662
   -36.7119 -36.6981 -36.6574 -36.6310 -36.5901 -36.5736 -36.5312 -36.5249
   -36.4677 -36.3091 -36.2880 -36.2810 -36.2359 -36.2251 -30.2980 -30.2449
   -30.0737 -30.0345 -29.8030 -29.6190 -29.5286 -29.4625 -29.4169 -29.3257
   -29.2591 -29.2500 -29.0473 -28.8705 -28.6961 -28.6762 -28.6286 -28.4722
    -3.8983  -2.4916  -2.3009  -1.9770  -1.8513  -1.7555  -1.4982  -1.2397
    -1.1164  -1.0165  -0.9852  -0.9219  -0.9130  -0.6384  -0.5271  -0.3278
     0.1004   0.1264   0.1743   0.3409   0.5586   0.7232   0.8354   0.8535
     0.9776   0.9898   1.2304   1.3913   1.5400   1.6412   1.7993   1.8904
     1.9348   1.9403   2.1480   2.1774   2.4597   2.4878   2.5598   2.6735
     2.7357   2.8641   2.8883   2.9795   3.0265   3.1492

          k = 0.0158 0.0545 0.0000 ( 32445 PWs)   bands (ev):

   -62.8617 -62.7985 -62.7941 -62.7297 -62.7148 -62.6523 -53.5460 -53.4867
   -53.3170 -53.2578 -53.2430 -53.0135 -36.8631 -36.7994 -36.7957 -36.7660
   -36.7121 -36.6979 -36.6575 -36.6291 -36.5888 -36.5730 -36.5306 -36.5242
   -36.4678 -36.3090 -36.2880 -36.2809 -36.2359 -36.2251 -30.3002 -30.2456
   -30.0741 -30.0368 -29.8037 -29.6182 -29.5331 -29.4655 -29.4166 -29.3272
   -29.2600 -29.2515 -29.0479 -28.8704 -28.6961 -28.6763 -28.6286 -28.4722
    -3.6365  -2.2656  -2.2009  -2.0346  -1.6629  -1.6002  -1.4689  -1.1159
    -0.9853  -0.9123  -0.8777  -0.8491  -0.7670  -0.5196  -0.4475  -0.1538
     0.0332   0.1525   0.1573   0.2507   0.4828   0.6603   0.7381   0.7519
     0.8802   0.9422   1.1013   1.2567   1.2667   1.5233   1.5251   1.6397
     1.7096   1.7596   1.9861   2.0317   2.0763   2.4331   2.4925   2.5888
     2.6295   2.7583   2.8478   2.9516   3.0713   3.1656

          k = 0.0158 0.0701 0.0000 ( 32439 PWs)   bands (ev):

   -62.8617 -62.7985 -62.7941 -62.7297 -62.7148 -62.6523 -53.5461 -53.4868
   -53.3170 -53.2578 -53.2431 -53.0134 -36.8623 -36.7992 -36.7950 -36.7659
   -36.7123 -36.6977 -36.6575 -36.6276 -36.5878 -36.5724 -36.5301 -36.5236
   -36.4678 -36.3090 -36.2880 -36.2809 -36.2359 -36.2251 -30.3021 -30.2462
   -30.0745 -30.0388 -29.8044 -29.6175 -29.5370 -29.4680 -29.4164 -29.3284
   -29.2607 -29.2527 -29.0484 -28.8704 -28.6960 -28.6765 -28.6287 -28.4723
    -3.3120  -2.2673  -2.1050  -2.0033  -1.5254  -1.4475  -1.2519  -1.0172
    -0.9473  -0.8055  -0.7635  -0.7479  -0.6170  -0.3920  -0.2718  -0.1385
    -0.0774   0.1212   0.1636   0.3353   0.4218   0.5973   0.6438   0.6777
     0.7056   0.8537   0.9659   1.0789   1.1528   1.2150   1.2864   1.4528
     1.4760   1.5354   1.7005   1.8679   2.1100   2.1207   2.5170   2.5523
     2.6354   2.7167   2.8332   2.9418   3.0044   3.1077

          k = 0.0158 0.0856 0.0000 ( 32447 PWs)   bands (ev):

   -62.8617 -62.7985 -62.7941 -62.7297 -62.7148 -62.6523 -53.5462 -53.4868
   -53.3171 -53.2578 -53.2431 -53.0134 -36.8619 -36.7991 -36.7945 -36.7658
   -36.7124 -36.6976 -36.6576 -36.6266 -36.5872 -36.5721 -36.5299 -36.5233
   -36.4679 -36.3089 -36.2880 -36.2809 -36.2359 -36.2251 -30.3031 -30.2466
   -30.0747 -30.0400 -29.8048 -29.6171 -29.5393 -29.4695 -29.4162 -29.3291
   -29.2612 -29.2534 -29.0487 -28.8703 -28.6960 -28.6765 -28.6287 -28.4723
    -2.9510  -2.5825  -2.0442  -1.8000  -1.5503  -1.2434  -1.0801  -0.9856
    -0.8760  -0.7558  -0.6718  -0.6465  -0.5372  -0.3774  -0.2499  -0.1154
    -0.0611   0.0727   0.1173   0.3800   0.5240   0.5441   0.5563   0.6184
     0.6431   0.7558   0.9329   0.9848   1.0106   1.0891   1.1189   1.2446
     1.2830   1.3487   1.6382   1.6879   1.9803   2.3029   2.4541   2.5023
     2.6489   2.6670   2.8570   2.8913   2.9551   3.0776

          k = 0.0158-0.0856 0.0000 ( 32447 PWs)   bands (ev):

   -62.8617 -62.7985 -62.7941 -62.7297 -62.7148 -62.6523 -53.5462 -53.4868
   -53.3171 -53.2578 -53.2431 -53.0134 -36.8619 -36.7991 -36.7945 -36.7658
   -36.7124 -36.6976 -36.6576 -36.6266 -36.5872 -36.5721 -36.5299 -36.5233
   -36.4679 -36.3089 -36.2880 -36.2809 -36.2359 -36.2251 -30.3031 -30.2466
   -30.0747 -30.0400 -29.8048 -29.6171 -29.5393 -29.4695 -29.4162 -29.3291
   -29.2612 -29.2534 -29.0487 -28.8703 -28.6960 -28.6765 -28.6287 -28.4723
    -2.9510  -2.5825  -2.0442  -1.8000  -1.5503  -1.2434  -1.0801  -0.9856
    -0.8759  -0.7558  -0.6719  -0.6465  -0.5372  -0.3774  -0.2499  -0.1154
    -0.0611   0.0727   0.1173   0.3800   0.5240   0.5441   0.5563   0.6184
     0.6431   0.7558   0.9329   0.9848   1.0106   1.0891   1.1189   1.2446
     1.2831   1.3487   1.6382   1.6879   1.9803   2.3029   2.4541   2.5023
     2.6489   2.6669   2.8567   2.8913   2.9544   3.0751

          k = 0.0158-0.0701 0.0000 ( 32439 PWs)   bands (ev):

   -62.8617 -62.7985 -62.7941 -62.7297 -62.7148 -62.6523 -53.5461 -53.4868
   -53.3170 -53.2578 -53.2431 -53.0134 -36.8623 -36.7992 -36.7950 -36.7659
   -36.7123 -36.6977 -36.6575 -36.6276 -36.5878 -36.5724 -36.5301 -36.5236
   -36.4678 -36.3090 -36.2880 -36.2809 -36.2359 -36.2251 -30.3021 -30.2462
   -30.0745 -30.0388 -29.8044 -29.6175 -29.5370 -29.4680 -29.4164 -29.3284
   -29.2607 -29.2527 -29.0484 -28.8704 -28.6960 -28.6765 -28.6287 -28.4723
    -3.3120  -2.2673  -2.1050  -2.0033  -1.5254  -1.4475  -1.2519  -1.0172
    -0.9472  -0.8055  -0.7636  -0.7479  -0.6169  -0.3920  -0.2717  -0.1385
    -0.0774   0.1212   0.1636   0.3353   0.4218   0.5973   0.6438   0.6777
     0.7056   0.8537   0.9659   1.0789   1.1528   1.2150   1.2865   1.4528
     1.4760   1.5354   1.7005   1.8679   2.1100   2.1207   2.5170   2.5524
     2.6355   2.7167   2.8335   2.9419   3.0044   3.1086

          k = 0.0158-0.0545 0.0000 ( 32445 PWs)   bands (ev):

   -62.8617 -62.7985 -62.7941 -62.7297 -62.7148 -62.6523 -53.5460 -53.4867
   -53.3170 -53.2578 -53.2430 -53.0135 -36.8631 -36.7994 -36.7957 -36.7660
   -36.7121 -36.6979 -36.6575 -36.6291 -36.5888 -36.5730 -36.5306 -36.5242
   -36.4678 -36.3090 -36.2880 -36.2809 -36.2359 -36.2251 -30.3002 -30.2456
   -30.0741 -30.0368 -29.8037 -29.6182 -29.5331 -29.4655 -29.4166 -29.3272
   -29.2600 -29.2515 -29.0479 -28.8704 -28.6961 -28.6763 -28.6286 -28.4722
    -3.6365  -2.2656  -2.2009  -2.0346  -1.6629  -1.6002  -1.4689  -1.1159
    -0.9853  -0.9123  -0.8777  -0.8491  -0.7670  -0.5197  -0.4475  -0.1538
     0.0332   0.1525   0.1573   0.2507   0.4828   0.6603   0.7381   0.7519
     0.8802   0.9422   1.1014   1.2567   1.2667   1.5233   1.5251   1.6397
     1.7096   1.7596   1.9861   2.0317   2.0763   2.4331   2.4926   2.5890
     2.6295   2.7583   2.8477   2.9516   3.0712   3.1653

          k = 0.0158-0.0389 0.0000 ( 32482 PWs)   bands (ev):

   -62.8617 -62.7985 -62.7942 -62.7297 -62.7148 -62.6523 -53.5458 -53.4866
   -53.3171 -53.2578 -53.2430 -53.0137 -36.8639 -36.7997 -36.7966 -36.7662
   -36.7119 -36.6981 -36.6574 -36.6310 -36.5901 -36.5736 -36.5312 -36.5249
   -36.4677 -36.3091 -36.2880 -36.2810 -36.2359 -36.2251 -30.2980 -30.2449
   -30.0737 -30.0345 -29.8030 -29.6190 -29.5286 -29.4625 -29.4169 -29.3257
   -29.2591 -29.2500 -29.0473 -28.8705 -28.6961 -28.6762 -28.6286 -28.4722
    -3.8983  -2.4916  -2.3009  -1.9770  -1.8513  -1.7555  -1.4982  -1.2397
    -1.1165  -1.0165  -0.9852  -0.9219  -0.9130  -0.6384  -0.5271  -0.3278
     0.1004   0.1264   0.1743   0.3409   0.5586   0.7232   0.8354   0.8535
     0.9776   0.9898   1.2304   1.3912   1.5400   1.6412   1.7993   1.8904
     1.9348   1.9403   2.1480   2.1775   2.4596   2.4877   2.5598   2.6735
     2.7355   2.8641   2.8883   2.9795   3.0266   3.1492

          k = 0.0158-0.0234 0.0000 ( 32494 PWs)   bands (ev):

   -62.8618 -62.7985 -62.7942 -62.7297 -62.7148 -62.6523 -53.5457 -53.4866
   -53.3171 -53.2578 -53.2430 -53.0136 -36.8647 -36.7998 -36.7974 -36.7664
   -36.7117 -36.6983 -36.6574 -36.6326 -36.5912 -36.5741 -36.5316 -36.5256
   -36.4676 -36.3091 -36.2880 -36.2811 -36.2359 -36.2251 -30.2961 -30.2443
   -30.0733 -30.0325 -29.8023 -29.6198 -29.5247 -29.4600 -29.4171 -29.3245
   -29.2583 -29.2488 -29.0468 -28.8706 -28.6962 -28.6761 -28.6285 -28.4722
    -4.0811  -2.6595  -2.3803  -2.0780  -1.9881  -1.7860  -1.4836  -1.3408
    -1.2425  -1.0919  -1.0742  -1.0365  -0.9608  -0.7440  -0.5392  -0.4815
     0.0984   0.1322   0.1671   0.4389   0.6555   0.7630   0.8898   0.9550
     0.9993   1.0059   1.3361   1.5464   1.7459   1.7836   1.8676   2.0620
     2.1069   2.1162   2.3147   2.3519   2.5305   2.5807   2.6707   2.7875
     2.8388   2.8720   2.9079   3.1295   3.1647   3.2372

          k = 0.0158-0.0078 0.0000 ( 32494 PWs)   bands (ev):

   -62.8618 -62.7985 -62.7942 -62.7297 -62.7148 -62.6523 -53.5457 -53.4865
   -53.3171 -53.2578 -53.2430 -53.0137 -36.8651 -36.7999 -36.7979 -36.7665
   -36.7115 -36.6984 -36.6574 -36.6335 -36.5918 -36.5744 -36.5318 -36.5259
   -36.4675 -36.3091 -36.2880 -36.2811 -36.2358 -36.2251 -30.2950 -30.2440
   -30.0731 -30.0314 -29.8020 -29.6202 -29.5224 -29.4585 -29.4173 -29.3238
   -29.2579 -29.2481 -29.0465 -28.8706 -28.6962 -28.6761 -28.6285 -28.4722
    -4.1748  -2.7477  -2.4238  -2.1557  -2.0596  -1.7932  -1.4652  -1.3994
    -1.3071  -1.1346  -1.1254  -1.0970  -0.9868  -0.7984  -0.5701  -0.5361
     0.0962   0.1370   0.1430   0.5211   0.7148   0.7432   0.9238   0.9863
     1.0134   1.0351   1.3843   1.6613   1.8142   1.8998   1.9406   2.1053
     2.1829   2.2557   2.3864   2.3960   2.5286   2.5959   2.7577   2.8289
     2.8692   2.9172   3.0706   3.1676   3.1889   3.2709

          k = 0.0315 0.0156 0.0000 ( 32480 PWs)   bands (ev):

   -62.8585 -62.8018 -62.7909 -62.7331 -62.7116 -62.6556 -53.5341 -53.4749
   -53.3292 -53.2699 -53.2314 -53.0259 -36.8616 -36.8031 -36.7730 -36.7423
   -36.7088 -36.6746 -36.6601 -36.6300 -36.5884 -36.5770 -36.5346 -36.5228
   -36.4705 -36.3347 -36.3132 -36.2789 -36.2500 -36.2382 -30.2180 -30.1670
   -30.0203 -29.9967 -29.8146 -29.6097 -29.5135 -29.4491 -29.4277 -29.3353
   -29.2692 -29.2383 -29.0576 -28.8620 -28.7672 -28.7194 -28.7053 -28.5625
    -3.9964  -2.5744  -2.2843  -2.0195  -1.9723  -1.6148  -1.3895  -1.3158
    -1.1922  -1.0678  -1.0143  -0.9005  -0.8807  -0.7400  -0.5111  -0.4042
     0.1217   0.1568   0.3069   0.5652   0.7494   0.8348   0.8433   0.9751
     1.0166   1.0842   1.3446   1.6175   1.7642   1.7799   1.8286   1.9482
     2.0426   2.0946   2.2086   2.3006   2.4020   2.4824   2.6334   2.7066
     2.7279   2.8137   2.9182   3.0554   3.0592   3.1955

          k = 0.0315 0.0311 0.0000 ( 32480 PWs)   bands (ev):

   -62.8585 -62.8018 -62.7909 -62.7331 -62.7116 -62.6556 -53.5342 -53.4749
   -53.3293 -53.2700 -53.2314 -53.0259 -36.8610 -36.8030 -36.7724 -36.7422
   -36.7090 -36.6744 -36.6602 -36.6288 -36.5875 -36.5767 -36.5343 -36.5223
   -36.4705 -36.3347 -36.3132 -36.2788 -36.2500 -36.2382 -30.2194 -30.1674
   -30.0219 -29.9970 -29.8150 -29.6091 -29.5164 -29.4510 -29.4275 -29.3361
   -29.2697 -29.2392 -29.0579 -28.8620 -28.7672 -28.7194 -28.7053 -28.5625
    -3.8595  -2.4465  -2.2219  -1.9176  -1.8818  -1.6074  -1.3265  -1.3101
    -1.1016  -1.0183  -0.9152  -0.8464  -0.8314  -0.6649  -0.4305  -0.3632
     0.1402   0.1518   0.3033   0.4562   0.6537   0.7813   0.8051   0.9630
     1.0223   1.0426   1.2660   1.4329   1.5544   1.6663   1.7522   1.8786
     1.8886   1.9914   2.0405   2.1957   2.4264   2.5416   2.5823   2.6104
     2.7342   2.7806   2.8664   2.9244   3.0399   3.0686

          k = 0.0315 0.0467 0.0000 ( 32483 PWs)   bands (ev):

   -62.8585 -62.8018 -62.7908 -62.7331 -62.7116 -62.6556 -53.5343 -53.4751
   -53.3293 -53.2700 -53.2314 -53.0258 -36.8602 -36.8029 -36.7716 -36.7420
   -36.7092 -36.6742 -36.6602 -36.6271 -36.5864 -36.5762 -36.5339 -36.5217
   -36.4707 -36.3348 -36.3133 -36.2788 -36.2500 -36.2382 -30.2214 -30.1681
   -30.0240 -29.9974 -29.8156 -29.6084 -29.5205 -29.4536 -29.4273 -29.3372
   -29.2703 -29.2405 -29.0584 -28.8619 -28.7672 -28.7195 -28.7053 -28.5624
    -3.6389  -2.2488  -2.1292  -1.8499  -1.7406  -1.5563  -1.3161  -1.1950
    -0.9707  -0.9462  -0.7917  -0.7614  -0.7316  -0.5487  -0.3871  -0.2223
     0.1414   0.1599   0.2440   0.3535   0.5439   0.7115   0.7441   0.8171
     0.9742   1.0484   1.1452   1.2703   1.2793   1.5402   1.5676   1.6549
     1.7472   1.8114   1.8785   2.0455   2.1896   2.4525   2.5689   2.5934
     2.6949   2.7091   2.8253   2.8817   2.9482   3.0259

          k = 0.0315 0.0623 0.0000 ( 32440 PWs)   bands (ev):

   -62.8585 -62.8018 -62.7908 -62.7331 -62.7116 -62.6556 -53.5345 -53.4751
   -53.3292 -53.2699 -53.2314 -53.0257 -36.8594 -36.8027 -36.7708 -36.7418
   -36.7094 -36.6740 -36.6602 -36.6255 -36.5853 -36.5757 -36.5335 -36.5210
   -36.4708 -36.3348 -36.3133 -36.2787 -36.2500 -36.2382 -30.2233 -30.1687
   -30.0260 -29.9978 -29.8162 -29.6077 -29.5246 -29.4563 -29.4271 -29.3383
   -29.2710 -29.2417 -29.0588 -28.8619 -28.7673 -28.7195 -28.7052 -28.5624
    -3.3470  -2.0574  -2.0253  -1.9301  -1.5669  -1.3972  -1.2385  -1.0746
    -0.9064  -0.8087  -0.7306  -0.6112  -0.5790  -0.4163  -0.2937  -0.1007
     0.0241   0.1933   0.2432   0.2448   0.4700   0.6234   0.6307   0.7347
     0.8009   0.9446   1.0168   1.0839   1.1392   1.2694   1.3573   1.4888
     1.5364   1.6026   1.7321   1.9438   1.9490   2.2737   2.4863   2.5588
     2.6293   2.7696   2.7784   2.8528   3.0286   3.0408

          k = 0.0315 0.0779 0.0000 ( 32412 PWs)   bands (ev):

   -62.8585 -62.8018 -62.7908 -62.7331 -62.7116 -62.6555 -53.5346 -53.4752
   -53.3291 -53.2699 -53.2315 -53.0255 -36.8588 -36.8026 -36.7701 -36.7417
   -36.7095 -36.6738 -36.6602 -36.6242 -36.5845 -36.5753 -36.5332 -36.5205
   -36.4709 -36.3348 -36.3133 -36.2787 -36.2501 -36.2382 -30.2248 -30.1692
   -30.0275 -29.9981 -29.8166 -29.6071 -29.5275 -29.4582 -29.4270 -29.3391
   -29.2715 -29.2427 -29.0591 -28.8618 -28.7673 -28.7195 -28.7051 -28.5624
    -3.0038  -2.2824  -1.9394  -1.7382  -1.3964  -1.3529  -1.0230  -0.9899
    -0.8521  -0.7015  -0.6749  -0.4999  -0.4686  -0.2516  -0.1906  -0.1336
    -0.0392   0.1257   0.1523   0.3943   0.4069   0.5207   0.5431   0.6407
     0.6736   0.8388   0.9078   0.9274   0.9853   1.1020   1.1378   1.2858
     1.3470   1.4534   1.6220   1.8157   2.0260   2.1024   2.4061   2.4581
     2.6779   2.7267   2.7802   2.8693   2.9619   3.0750

          k = 0.0315 0.0934 0.0000 ( 32418 PWs)   bands (ev):

   -62.8585 -62.8018 -62.7908 -62.7331 -62.7116 -62.6555 -53.5346 -53.4753
   -53.3291 -53.2699 -53.2315 -53.0255 -36.8586 -36.8026 -36.7699 -36.7417
   -36.7096 -36.6737 -36.6603 -36.6238 -36.5842 -36.5752 -36.5330 -36.5204
   -36.4709 -36.3348 -36.3132 -36.2787 -36.2501 -36.2382 -30.2253 -30.1694
   -30.0281 -29.9982 -29.8168 -29.6069 -29.5286 -29.4590 -29.4269 -29.3394
   -29.2716 -29.2430 -29.0592 -28.8618 -28.7673 -28.7195 -28.7051 -28.5624
    -2.6813  -2.5846  -1.9052  -1.6128  -1.3753  -1.3098  -1.0399  -0.8057
    -0.8015  -0.6743  -0.6094  -0.5025  -0.4440  -0.3454  -0.1553  -0.0321
    -0.0041   0.0759   0.1195   0.3647   0.4211   0.5017   0.5021   0.5987
     0.7487   0.7689   0.7864   0.8704   0.9190   0.9290   1.1911   1.2035
     1.2116   1.3946   1.6451   1.7391   1.9429   2.2886   2.3016   2.3394
     2.6911   2.7217   2.7825   2.9308   2.9565   2.9819

          k = 0.0315-0.0779 0.0000 ( 32414 PWs)   bands (ev):

   -62.8585 -62.8018 -62.7908 -62.7331 -62.7116 -62.6555 -53.5346 -53.4752
   -53.3291 -53.2699 -53.2315 -53.0255 -36.8588 -36.8026 -36.7701 -36.7417
   -36.7095 -36.6738 -36.6602 -36.6242 -36.5845 -36.5753 -36.5332 -36.5205
   -36.4709 -36.3348 -36.3133 -36.2787 -36.2501 -36.2382 -30.2248 -30.1692
   -30.0275 -29.9981 -29.8166 -29.6071 -29.5275 -29.4582 -29.4270 -29.3391
   -29.2715 -29.2427 -29.0591 -28.8618 -28.7673 -28.7195 -28.7051 -28.5624
    -3.0038  -2.2824  -1.9394  -1.7382  -1.3964  -1.3529  -1.0230  -0.9899
    -0.8520  -0.7016  -0.6749  -0.4999  -0.4686  -0.2516  -0.1906  -0.1336
    -0.0392   0.1257   0.1523   0.3943   0.4069   0.5207   0.5431   0.6407
     0.6736   0.8388   0.9078   0.9274   0.9853   1.1020   1.1378   1.2859
     1.3470   1.4534   1.6220   1.8156   2.0259   2.1024   2.4061   2.4581
     2.6779   2.7267   2.7802   2.8690   2.9619   3.0760

          k = 0.0315-0.0623 0.0000 ( 32440 PWs)   bands (ev):

   -62.8585 -62.8018 -62.7908 -62.7331 -62.7116 -62.6556 -53.5344 -53.4751
   -53.3292 -53.2699 -53.2314 -53.0257 -36.8594 -36.8027 -36.7708 -36.7418
   -36.7094 -36.6740 -36.6602 -36.6255 -36.5853 -36.5757 -36.5335 -36.5210
   -36.4708 -36.3348 -36.3133 -36.2787 -36.2500 -36.2382 -30.2233 -30.1687
   -30.0260 -29.9978 -29.8162 -29.6077 -29.5246 -29.4563 -29.4271 -29.3383
   -29.2710 -29.2417 -29.0588 -28.8619 -28.7673 -28.7195 -28.7052 -28.5624
    -3.3470  -2.0574  -2.0253  -1.9301  -1.5669  -1.3972  -1.2385  -1.0746
    -0.9064  -0.8088  -0.7306  -0.6112  -0.5790  -0.4163  -0.2936  -0.1008
     0.0241   0.1933   0.2432   0.2448   0.4700   0.6234   0.6307   0.7347
     0.8009   0.9446   1.0168   1.0839   1.1392   1.2694   1.3573   1.4888
     1.5364   1.6026   1.7321   1.9438   1.9490   2.2737   2.4863   2.5588
     2.6291   2.7695   2.7783   2.8528   3.0296   3.0410

          k = 0.0315-0.0467 0.0000 ( 32483 PWs)   bands (ev):

   -62.8585 -62.8018 -62.7908 -62.7331 -62.7116 -62.6556 -53.5343 -53.4751
   -53.3293 -53.2700 -53.2314 -53.0258 -36.8602 -36.8029 -36.7716 -36.7420
   -36.7092 -36.6742 -36.6602 -36.6271 -36.5864 -36.5762 -36.5339 -36.5217
   -36.4707 -36.3348 -36.3133 -36.2788 -36.2500 -36.2382 -30.2214 -30.1681
   -30.0240 -29.9974 -29.8156 -29.6084 -29.5205 -29.4536 -29.4273 -29.3372
   -29.2703 -29.2405 -29.0584 -28.8619 -28.7672 -28.7195 -28.7053 -28.5624
    -3.6389  -2.2488  -2.1292  -1.8499  -1.7406  -1.5563  -1.3161  -1.1949
    -0.9708  -0.9462  -0.7917  -0.7614  -0.7316  -0.5487  -0.3871  -0.2223
     0.1414   0.1599   0.2440   0.3535   0.5439   0.7115   0.7441   0.8171
     0.9742   1.0483   1.1452   1.2703   1.2793   1.5401   1.5676   1.6550
     1.7472   1.8114   1.8785   2.0456   2.1896   2.4525   2.5689   2.5933
     2.6949   2.7091   2.8253   2.8816   2.9482   3.0260

          k = 0.0315-0.0311 0.0000 ( 32480 PWs)   bands (ev):

   -62.8585 -62.8018 -62.7909 -62.7331 -62.7116 -62.6556 -53.5342 -53.4749
   -53.3293 -53.2700 -53.2314 -53.0259 -36.8610 -36.8030 -36.7724 -36.7422
   -36.7090 -36.6744 -36.6602 -36.6288 -36.5875 -36.5767 -36.5343 -36.5223
   -36.4705 -36.3347 -36.3132 -36.2788 -36.2500 -36.2382 -30.2194 -30.1674
   -30.0219 -29.9970 -29.8150 -29.6092 -29.5164 -29.4510 -29.4275 -29.3361
   -29.2697 -29.2392 -29.0579 -28.8620 -28.7672 -28.7194 -28.7053 -28.5625
    -3.8595  -2.4465  -2.2219  -1.9176  -1.8818  -1.6074  -1.3265  -1.3100
    -1.1017  -1.0183  -0.9152  -0.8464  -0.8314  -0.6649  -0.4304  -0.3632
     0.1402   0.1518   0.3033   0.4562   0.6537   0.7813   0.8051   0.9630
     1.0223   1.0426   1.2660   1.4329   1.5544   1.6663   1.7522   1.8786
     1.8886   1.9914   2.0405   2.1957   2.4264   2.5416   2.5823   2.6105
     2.7342   2.7806   2.8664   2.9244   3.0398   3.0686

          k = 0.0315-0.0156 0.0000 ( 32480 PWs)   bands (ev):

   -62.8585 -62.8018 -62.7909 -62.7331 -62.7116 -62.6556 -53.5341 -53.4749
   -53.3292 -53.2699 -53.2314 -53.0259 -36.8616 -36.8031 -36.7730 -36.7423
   -36.7088 -36.6746 -36.6601 -36.6300 -36.5884 -36.5770 -36.5346 -36.5228
   -36.4705 -36.3347 -36.3132 -36.2789 -36.2500 -36.2382 -30.2180 -30.1670
   -30.0203 -29.9967 -29.8146 -29.6097 -29.5135 -29.4491 -29.4277 -29.3353
   -29.2692 -29.2383 -29.0576 -28.8620 -28.7672 -28.7194 -28.7053 -28.5625
    -3.9964  -2.5744  -2.2843  -2.0195  -1.9723  -1.6148  -1.3895  -1.3158
    -1.1922  -1.0678  -1.0143  -0.9005  -0.8807  -0.7400  -0.5110  -0.4042
     0.1217   0.1568   0.3069   0.5652   0.7494   0.8348   0.8433   0.9751
     1.0166   1.0842   1.3446   1.6175   1.7642   1.7799   1.8286   1.9482
     2.0426   2.0946   2.2086   2.3006   2.4019   2.4824   2.6333   2.7066
     2.7279   2.8136   2.9182   3.0554   3.0590   3.1955

          k = 0.0315 0.0000 0.0000 ( 32457 PWs)   bands (ev):

   -62.8585 -62.8018 -62.7909 -62.7331 -62.7115 -62.6556 -53.5340 -53.4749
   -53.3292 -53.2699 -53.2314 -53.0258 -36.8618 -36.8032 -36.7732 -36.7423
   -36.7087 -36.6746 -36.6601 -36.6304 -36.5887 -36.5771 -36.5347 -36.5229
   -36.4704 -36.3347 -36.3133 -36.2789 -36.2500 -36.2382 -30.2174 -30.1668
   -30.0198 -29.9966 -29.8145 -29.6099 -29.5124 -29.4483 -29.4278 -29.3350
   -29.2690 -29.2379 -29.0574 -28.8621 -28.7671 -28.7194 -28.7054 -28.5625
    -4.0428  -2.6183  -2.3062  -2.0581  -2.0034  -1.6190  -1.4176  -1.3092
    -1.2233  -1.0837  -1.0502  -0.9242  -0.8935  -0.7653  -0.5491  -0.4087
     0.1141   0.1592   0.3020   0.6261   0.7680   0.8324   0.8960   0.9203
     1.0264   1.1237   1.3679   1.7168   1.7986   1.8362   1.8661   1.9817
     2.0873   2.1636   2.2457   2.3193   2.3744   2.4569   2.6383   2.7034
     2.7410   2.8015   3.0101   3.0653   3.0942   3.2529

          k = 0.0473 0.0234 0.0000 ( 32491 PWs)   bands (ev):

   -62.8533 -62.8070 -62.7856 -62.7384 -62.7064 -62.6607 -53.5158 -53.4566
   -53.3485 -53.2892 -53.2130 -53.0451 -36.8560 -36.8082 -36.7334 -36.7045
   -36.7038 -36.6645 -36.6363 -36.6246 -36.5830 -36.5812 -36.5390 -36.5179
   -36.4751 -36.3755 -36.3534 -36.2906 -36.2743 -36.2419 -30.0941 -30.0433
   -30.0026 -29.8741 -29.8345 -29.5931 -29.4989 -29.4443 -29.4338 -29.3534
   -29.2869 -29.2225 -29.0750 -28.9111 -28.8660 -28.8438 -28.7198 -28.7041
    -3.7141  -2.3088  -2.0717  -1.8684  -1.8136  -1.3691  -1.3627  -1.0975
    -1.0670  -0.9694  -0.8560  -0.6882  -0.6269  -0.5640  -0.4194  -0.2084
     0.1436   0.1884   0.5701   0.6255   0.7090   0.7149   0.9486   0.9835
     1.0589   1.1432   1.3009   1.4694   1.4845   1.5686   1.7129   1.7802
     1.8311   1.8910   2.0145   2.1112   2.3136   2.4002   2.5008   2.5485
     2.6148   2.6847   2.7238   2.9054   2.9099   2.9844

          k = 0.0473 0.0389 0.0000 ( 32484 PWs)   bands (ev):

   -62.8533 -62.8070 -62.7856 -62.7384 -62.7064 -62.6607 -53.5158 -53.4566
   -53.3485 -53.2892 -53.2130 -53.0451 -36.8553 -36.8082 -36.7327 -36.7046
   -36.7037 -36.6646 -36.6362 -36.6232 -36.5821 -36.5810 -36.5389 -36.5173
   -36.4753 -36.3756 -36.3534 -36.2906 -36.2743 -36.2419 -30.0957 -30.0439
   -30.0043 -29.8744 -29.8348 -29.5925 -29.5021 -29.4442 -29.4359 -29.3539
   -29.2872 -29.2235 -29.0752 -28.9110 -28.8658 -28.8438 -28.7198 -28.7040
    -3.5404  -2.1513  -1.9973  -1.8017  -1.7092  -1.3597  -1.2659  -1.0890
    -0.9768  -0.8855  -0.7360  -0.6411  -0.5372  -0.4944  -0.3253  -0.1668
     0.1640   0.1879   0.4611   0.5366   0.6252   0.6505   0.8774   0.8950
     1.0416   1.1616   1.1942   1.2408   1.2644   1.5004   1.5228   1.6264
     1.6848   1.7910   1.8871   1.9802   2.2831   2.3502   2.4789   2.6119
     2.6565   2.6719   2.7095   2.8160   2.8767   2.8845

          k = 0.0473 0.0545 0.0000 ( 32485 PWs)   bands (ev):

   -62.8533 -62.8070 -62.7856 -62.7384 -62.7065 -62.6607 -53.5160 -53.4567
   -53.3484 -53.2892 -53.2130 -53.0450 -36.8546 -36.8081 -36.7320 -36.7048
   -36.7035 -36.6646 -36.6360 -36.6217 -36.5811 -36.5807 -36.5386 -36.5167
   -36.4754 -36.3757 -36.3534 -36.2907 -36.2742 -36.2419 -30.0975 -30.0445
   -30.0062 -29.8748 -29.8352 -29.5918 -29.5058 -29.4440 -29.4383 -29.3546
   -29.2876 -29.2246 -29.0755 -28.9108 -28.8657 -28.8438 -28.7197 -28.7039
    -3.2907  -1.9502  -1.8975  -1.7153  -1.6843  -1.2985  -1.1343  -1.0482
    -0.8732  -0.7813  -0.5797  -0.5619  -0.4235  -0.3948  -0.2536  -0.0816
     0.1575   0.2262   0.3260   0.4041   0.5376   0.5927   0.6911   0.8155
     0.9217   0.9871   1.0405   1.1330   1.1528   1.2920   1.3832   1.4516
     1.5732   1.6935   1.7811   1.7825   1.9548   2.3516   2.3909   2.5438
     2.6067   2.7287   2.7709   2.8076   2.8908   3.0262

          k = 0.0473 0.0701 0.0000 ( 32483 PWs)   bands (ev):

   -62.8533 -62.8070 -62.7856 -62.7384 -62.7065 -62.6607 -53.5161 -53.4568
   -53.3484 -53.2892 -53.2130 -53.0450 -36.8539 -36.8081 -36.7313 -36.7050
   -36.7034 -36.6646 -36.6358 -36.6204 -36.5805 -36.5802 -36.5383 -36.5162
   -36.4756 -36.3758 -36.3534 -36.2907 -36.2742 -36.2419 -30.0990 -30.0450
   -30.0078 -29.8751 -29.8355 -29.5912 -29.5090 -29.4439 -29.4405 -29.3552
   -29.2879 -29.2257 -29.0758 -28.9107 -28.8656 -28.8439 -28.7197 -28.7039
    -2.9798  -1.9600  -1.7917  -1.6337  -1.6238  -1.1573  -1.0053  -0.9459
    -0.7932  -0.6789  -0.5141  -0.3979  -0.3266  -0.2713  -0.1244  -0.0013
     0.0256   0.2248   0.2713   0.3143   0.4430   0.5150   0.5230   0.6782
     0.7648   0.8462   0.9004   0.9385   1.0384   1.1662   1.2000   1.3152
     1.4830   1.4895   1.6350   1.8158   1.8932   2.0831   2.3874   2.4142
     2.6098   2.7201   2.7758   2.8149   2.9655   3.0139

          k = 0.0473 0.0856 0.0000 ( 32417 PWs)   bands (ev):

   -62.8533 -62.8070 -62.7855 -62.7384 -62.7065 -62.6607 -53.5161 -53.4568
   -53.3483 -53.2891 -53.2130 -53.0448 -36.8535 -36.8080 -36.7309 -36.7051
   -36.7033 -36.6646 -36.6356 -36.6196 -36.5803 -36.5797 -36.5382 -36.5158
   -36.4757 -36.3758 -36.3534 -36.2907 -36.2741 -36.2419 -30.0999 -30.0454
   -30.0088 -29.8753 -29.8356 -29.5909 -29.5109 -29.4438 -29.4417 -29.3555
   -29.2881 -29.2262 -29.0759 -28.9106 -28.8655 -28.8439 -28.7197 -28.7038
    -2.6364  -2.2508  -1.7154  -1.5878  -1.4369  -1.1215  -0.9257  -0.7429
    -0.7359  -0.6322  -0.4534  -0.3843  -0.2430  -0.1913  -0.1131   0.0616
     0.0799   0.0970   0.2116   0.3451   0.3532   0.4540   0.4704   0.5520
     0.6381   0.7852   0.7861   0.8172   0.9520   0.9558   1.1576   1.2526
     1.3767   1.4294   1.6384   1.7646   1.9057   2.0713   2.2616   2.2617
     2.6501   2.7348   2.7655   2.8520   2.9505   2.9682

          k = 0.0473 0.1012 0.0000 ( 32417 PWs)   bands (ev):

   -62.8533 -62.8070 -62.7855 -62.7384 -62.7065 -62.6607 -53.5161 -53.4568
   -53.3483 -53.2891 -53.2130 -53.0448 -36.8535 -36.8080 -36.7309 -36.7051
   -36.7033 -36.6646 -36.6356 -36.6196 -36.5803 -36.5797 -36.5382 -36.5158
   -36.4757 -36.3758 -36.3534 -36.2907 -36.2741 -36.2419 -30.0999 -30.0454
   -30.0088 -29.8753 -29.8356 -29.5909 -29.5109 -29.4438 -29.4417 -29.3555
   -29.2881 -29.2262 -29.0759 -28.9106 -28.8655 -28.8439 -28.7197 -28.7038
    -2.6364  -2.2508  -1.7154  -1.5878  -1.4369  -1.1215  -0.9257  -0.7429
    -0.7359  -0.6322  -0.4534  -0.3843  -0.2430  -0.1913  -0.1131   0.0616
     0.0799   0.0970   0.2116   0.3451   0.3532   0.4540   0.4704   0.5520
     0.6381   0.7851   0.7861   0.8172   0.9520   0.9558   1.1577   1.2526
     1.3767   1.4294   1.6384   1.7645   1.9057   2.0713   2.2616   2.2617
     2.6501   2.7347   2.7657   2.8520   2.9506   2.9683

          k = 0.0473-0.0701 0.0000 ( 32483 PWs)   bands (ev):

   -62.8533 -62.8070 -62.7856 -62.7384 -62.7065 -62.6607 -53.5161 -53.4568
   -53.3484 -53.2892 -53.2130 -53.0450 -36.8539 -36.8081 -36.7313 -36.7050
   -36.7034 -36.6646 -36.6358 -36.6204 -36.5805 -36.5802 -36.5383 -36.5162
   -36.4756 -36.3758 -36.3534 -36.2907 -36.2742 -36.2419 -30.0990 -30.0450
   -30.0078 -29.8751 -29.8355 -29.5912 -29.5090 -29.4439 -29.4405 -29.3552
   -29.2879 -29.2257 -29.0758 -28.9107 -28.8656 -28.8439 -28.7197 -28.7039
    -2.9798  -1.9600  -1.7917  -1.6337  -1.6238  -1.1573  -1.0053  -0.9459
    -0.7932  -0.6789  -0.5141  -0.3980  -0.3266  -0.2713  -0.1244  -0.0013
     0.0256   0.2248   0.2713   0.3143   0.4430   0.5150   0.5230   0.6782
     0.7648   0.8461   0.9004   0.9385   1.0384   1.1662   1.2000   1.3152
     1.4830   1.4895   1.6350   1.8158   1.8932   2.0831   2.3875   2.4141
     2.6098   2.7203   2.7752   2.8157   2.9641   3.0218

          k = 0.0473-0.0545 0.0000 ( 32485 PWs)   bands (ev):

   -62.8533 -62.8070 -62.7856 -62.7384 -62.7065 -62.6607 -53.5160 -53.4567
   -53.3484 -53.2892 -53.2130 -53.0450 -36.8546 -36.8081 -36.7320 -36.7048
   -36.7035 -36.6646 -36.6360 -36.6217 -36.5811 -36.5807 -36.5386 -36.5167
   -36.4754 -36.3757 -36.3534 -36.2907 -36.2742 -36.2419 -30.0975 -30.0445
   -30.0062 -29.8748 -29.8352 -29.5918 -29.5058 -29.4440 -29.4383 -29.3546
   -29.2876 -29.2246 -29.0755 -28.9108 -28.8657 -28.8438 -28.7197 -28.7039
    -3.2907  -1.9502  -1.8975  -1.7153  -1.6843  -1.2985  -1.1343  -1.0482
    -0.8732  -0.7814  -0.5797  -0.5620  -0.4234  -0.3948  -0.2536  -0.0816
     0.1575   0.2262   0.3260   0.4041   0.5376   0.5927   0.6910   0.8155
     0.9217   0.9870   1.0405   1.1330   1.1527   1.2920   1.3832   1.4517
     1.5732   1.6935   1.7811   1.7825   1.9548   2.3516   2.3909   2.5438
     2.6067   2.7287   2.7709   2.8075   2.8916   3.0263

          k = 0.0473-0.0389 0.0000 ( 32484 PWs)   bands (ev):

   -62.8533 -62.8070 -62.7856 -62.7384 -62.7064 -62.6607 -53.5158 -53.4566
   -53.3485 -53.2892 -53.2130 -53.0451 -36.8553 -36.8082 -36.7327 -36.7046
   -36.7037 -36.6646 -36.6362 -36.6232 -36.5821 -36.5810 -36.5389 -36.5173
   -36.4753 -36.3756 -36.3534 -36.2906 -36.2743 -36.2419 -30.0957 -30.0439
   -30.0043 -29.8744 -29.8348 -29.5925 -29.5021 -29.4442 -29.4359 -29.3539
   -29.2872 -29.2235 -29.0752 -28.9110 -28.8658 -28.8438 -28.7198 -28.7040
    -3.5404  -2.1513  -1.9973  -1.8017  -1.7092  -1.3597  -1.2659  -1.0890
    -0.9768  -0.8855  -0.7361  -0.6411  -0.5372  -0.4944  -0.3253  -0.1668
     0.1640   0.1880   0.4611   0.5366   0.6252   0.6505   0.8774   0.8950
     1.0416   1.1616   1.1942   1.2409   1.2644   1.5004   1.5228   1.6264
     1.6849   1.7910   1.8871   1.9802   2.2830   2.3502   2.4789   2.6119
     2.6565   2.6719   2.7095   2.8161   2.8766   2.8845

          k = 0.0473-0.0234 0.0000 ( 32491 PWs)   bands (ev):

   -62.8533 -62.8070 -62.7856 -62.7384 -62.7064 -62.6607 -53.5158 -53.4566
   -53.3485 -53.2892 -53.2130 -53.0451 -36.8560 -36.8082 -36.7334 -36.7045
   -36.7038 -36.6645 -36.6363 -36.6246 -36.5830 -36.5812 -36.5390 -36.5179
   -36.4751 -36.3755 -36.3534 -36.2906 -36.2743 -36.2419 -30.0941 -30.0433
   -30.0026 -29.8741 -29.8345 -29.5931 -29.4989 -29.4443 -29.4338 -29.3534
   -29.2869 -29.2225 -29.0750 -28.9111 -28.8660 -28.8438 -28.7198 -28.7041
    -3.7141  -2.3088  -2.0717  -1.8684  -1.8136  -1.3691  -1.3627  -1.0975
    -1.0670  -0.9694  -0.8560  -0.6882  -0.6268  -0.5640  -0.4194  -0.2084
     0.1436   0.1884   0.5702   0.6256   0.7090   0.7149   0.9486   0.9836
     1.0589   1.1432   1.3009   1.4694   1.4845   1.5686   1.7129   1.7802
     1.8311   1.8910   2.0145   2.1112   2.3136   2.4002   2.5008   2.5485
     2.6148   2.6848   2.7238   2.9054   2.9098   2.9843

          k = 0.0473-0.0078 0.0000 ( 32482 PWs)   bands (ev):

   -62.8533 -62.8070 -62.7856 -62.7384 -62.7064 -62.6607 -53.5156 -53.4565
   -53.3485 -53.2892 -53.2129 -53.0451 -36.8563 -36.8083 -36.7338 -36.7044
   -36.7039 -36.6645 -36.6365 -36.6253 -36.5835 -36.5813 -36.5391 -36.5181
   -36.4750 -36.3754 -36.3533 -36.2905 -36.2743 -36.2419 -30.0931 -30.0430
   -30.0017 -29.8739 -29.8343 -29.5934 -29.4970 -29.4443 -29.4326 -29.3530
   -29.2867 -29.2219 -29.0748 -28.9112 -28.8660 -28.8437 -28.7199 -28.7041
    -3.8030  -2.3917  -2.1110  -1.9037  -1.8802  -1.4254  -1.3694  -1.1169
    -1.0945  -1.0173  -0.9152  -0.7140  -0.6730  -0.5998  -0.4860  -0.2207
     0.1292   0.1934   0.5809   0.7346   0.7728   0.7803   0.8959   0.9440
     1.0872   1.2599   1.3484   1.5131   1.6566   1.6601   1.7791   1.8551
     1.9722   2.0255   2.0817   2.1928   2.2320   2.3163   2.4570   2.5058
     2.5083   2.6854   2.8844   2.9260   2.9346   2.9952

          k = 0.0473 0.0078 0.0000 ( 32482 PWs)   bands (ev):

   -62.8533 -62.8070 -62.7856 -62.7384 -62.7064 -62.6607 -53.5156 -53.4565
   -53.3485 -53.2892 -53.2129 -53.0451 -36.8563 -36.8083 -36.7338 -36.7044
   -36.7039 -36.6645 -36.6365 -36.6253 -36.5835 -36.5813 -36.5391 -36.5181
   -36.4750 -36.3754 -36.3533 -36.2905 -36.2743 -36.2419 -30.0931 -30.0430
   -30.0017 -29.8739 -29.8343 -29.5934 -29.4970 -29.4443 -29.4326 -29.3530
   -29.2867 -29.2219 -29.0748 -28.9112 -28.8660 -28.8437 -28.7199 -28.7041
    -3.8030  -2.3917  -2.1110  -1.9037  -1.8802  -1.4254  -1.3694  -1.1169
    -1.0945  -1.0173  -0.9152  -0.7140  -0.6730  -0.5998  -0.4860  -0.2207
     0.1292   0.1934   0.5809   0.7346   0.7728   0.7803   0.8959   0.9440
     1.0872   1.2599   1.3484   1.5131   1.6566   1.6601   1.7790   1.8551
     1.9722   2.0255   2.0817   2.1928   2.2320   2.3163   2.4570   2.5058
     2.5083   2.6854   2.8843   2.9260   2.9346   2.9952

          k = 0.0630 0.0311 0.0000 ( 32475 PWs)   bands (ev):

   -62.8466 -62.8138 -62.7787 -62.7454 -62.6998 -62.6674 -53.4916 -53.4324
   -53.3734 -53.3141 -53.1888 -53.0701 -36.8487 -36.8149 -36.6988 -36.6823
   -36.6704 -36.6526 -36.6176 -36.5878 -36.5854 -36.5761 -36.5450 -36.5114
   -36.4812 -36.4284 -36.4054 -36.3417 -36.2699 -36.2467 -29.9792 -29.9302
   -29.8818 -29.8580 -29.7121 -29.5714 -29.4794 -29.4657 -29.4135 -29.3763
   -29.3097 -29.2017 -29.0974 -29.0940 -29.0459 -28.8852 -28.8283 -28.7387
    -3.3500  -1.9871  -1.9531  -1.7218  -1.5701  -1.3221  -1.1057  -0.9537
    -0.8661  -0.8392  -0.6829  -0.4454  -0.3878  -0.2921  -0.2382   0.0255
     0.1383   0.2301   0.5711   0.6342   0.6601   0.8127   0.9107   0.9958
     1.0447   1.1470   1.2503   1.2974   1.2988   1.4244   1.5378   1.5757
     1.6174   1.8159   1.8260   1.9304   2.1010   2.2690   2.3932   2.4302
     2.5579   2.5906   2.6555   2.6618   2.8004   2.8716

          k = 0.0630 0.0467 0.0000 ( 32504 PWs)   bands (ev):

   -62.8466 -62.8138 -62.7787 -62.7454 -62.6998 -62.6674 -53.4918 -53.4326
   -53.3734 -53.3141 -53.1889 -53.0701 -36.8481 -36.8150 -36.6989 -36.6816
   -36.6704 -36.6525 -36.6164 -36.5877 -36.5854 -36.5753 -36.5450 -36.5109
   -36.4815 -36.4286 -36.4055 -36.3418 -36.2699 -36.2467 -29.9807 -29.9317
   -29.8822 -29.8581 -29.7124 -29.5709 -29.4824 -29.4657 -29.4155 -29.3764
   -29.3096 -29.2026 -29.0974 -29.0937 -29.0458 -28.8851 -28.8283 -28.7386
    -3.1508  -1.9624  -1.8232  -1.6590  -1.4945  -1.1843  -1.1141  -0.8551
    -0.8452  -0.7445  -0.5731  -0.3468  -0.3338  -0.2231  -0.2112   0.0742
     0.1773   0.2456   0.5008   0.5501   0.5622   0.6372   0.7474   0.9242
     1.0011   1.0557   1.1252   1.1389   1.2194   1.3289   1.3672   1.4581
     1.5634   1.6872   1.7799   1.8096   1.9628   2.1617   2.2999   2.4938
     2.6050   2.6241   2.7222   2.8114   2.8341   2.8419

          k = 0.0630 0.0623 0.0000 ( 32491 PWs)   bands (ev):

   -62.8465 -62.8138 -62.7787 -62.7454 -62.6998 -62.6674 -53.4919 -53.4326
   -53.3733 -53.3141 -53.1888 -53.0700 -36.8475 -36.8151 -36.6991 -36.6809
   -36.6704 -36.6524 -36.6152 -36.5875 -36.5854 -36.5745 -36.5449 -36.5104
   -36.4817 -36.4288 -36.4055 -36.3418 -36.2698 -36.2467 -29.9823 -29.9331
   -29.8827 -29.8582 -29.7127 -29.5703 -29.4853 -29.4657 -29.4175 -29.3764
   -29.3096 -29.2035 -29.0975 -29.0934 -29.0456 -28.8850 -28.8283 -28.7386
    -2.8862  -1.9599  -1.7050  -1.5799  -1.4668  -1.0636  -1.0383  -0.7946
    -0.7388  -0.6668  -0.4301  -0.3039  -0.2685  -0.1805  -0.1207   0.1271
     0.2249   0.3127   0.3590   0.4260   0.4590   0.5492   0.6155   0.7353
     0.8080   0.8969   0.9620   0.9950   1.1941   1.2173   1.3236   1.3671
     1.4776   1.6510   1.6825   1.7434   1.7677   2.0491   2.2426   2.4417
     2.4849   2.6939   2.8099   2.8275   2.8978   2.9185

          k = 0.0630 0.0779 0.0000 ( 32508 PWs)   bands (ev):

   -62.8465 -62.8138 -62.7787 -62.7454 -62.6998 -62.6674 -53.4920 -53.4327
   -53.3734 -53.3141 -53.1889 -53.0700 -36.8471 -36.8151 -36.6992 -36.6804
   -36.6704 -36.6524 -36.6143 -36.5874 -36.5854 -36.5739 -36.5449 -36.5100
   -36.4819 -36.4290 -36.4056 -36.3419 -36.2698 -36.2467 -29.9834 -29.9342
   -29.8831 -29.8583 -29.7130 -29.5699 -29.4875 -29.4657 -29.4189 -29.3765
   -29.3096 -29.2042 -29.0976 -29.0931 -29.0454 -28.8849 -28.8283 -28.7386
    -2.5755  -1.9517  -1.8882  -1.5105  -1.3034  -0.9665  -0.9056  -0.7237
    -0.6710  -0.5948  -0.3648  -0.2942  -0.2211  -0.1424   0.0768   0.1297
     0.1954   0.2615   0.2990   0.3544   0.4314   0.4592   0.5463   0.5500
     0.7140   0.7595   0.8377   0.8409   1.0726   1.0893   1.1987   1.3960
     1.4375   1.6164   1.6407   1.6879   1.8449   1.8944   2.2345   2.2445
     2.4712   2.6603   2.7865   2.8928   2.8990   2.9444

          k = 0.0630 0.0934 0.0000 ( 32450 PWs)   bands (ev):

   -62.8465 -62.8138 -62.7787 -62.7454 -62.6998 -62.6674 -53.4920 -53.4326
   -53.3733 -53.3140 -53.1888 -53.0699 -36.8469 -36.8151 -36.6992 -36.6802
   -36.6704 -36.6524 -36.6139 -36.5873 -36.5854 -36.5736 -36.5448 -36.5098
   -36.4819 -36.4290 -36.4056 -36.3419 -36.2698 -36.2467 -29.9838 -29.9346
   -29.8832 -29.8583 -29.7131 -29.5698 -29.4882 -29.4657 -29.4194 -29.3765
   -29.3095 -29.2044 -29.0976 -29.0930 -29.0454 -28.8848 -28.8283 -28.7385
    -2.3146  -2.1289  -1.9474  -1.4821  -1.1944  -0.9385  -0.8385  -0.6766
    -0.6699  -0.5352  -0.4121  -0.2435  -0.2347  -0.1172   0.0691   0.1969
     0.2116   0.2966   0.3061   0.3316   0.3477   0.4284   0.4940   0.5471
     0.5593   0.6631   0.8053   0.8866   0.9733   1.0666   1.1172   1.4157
     1.4637   1.5784   1.6252   1.6898   1.7662   2.0724   2.1062   2.1326
     2.5284   2.6059   2.7782   2.9088   2.9227   3.0599

          k = 0.0630 0.1090 0.0000 ( 32508 PWs)   bands (ev):

   -62.8465 -62.8138 -62.7787 -62.7454 -62.6998 -62.6674 -53.4920 -53.4327
   -53.3734 -53.3141 -53.1889 -53.0700 -36.8471 -36.8151 -36.6992 -36.6804
   -36.6704 -36.6524 -36.6143 -36.5874 -36.5854 -36.5739 -36.5449 -36.5100
   -36.4819 -36.4290 -36.4056 -36.3419 -36.2698 -36.2467 -29.9834 -29.9342
   -29.8831 -29.8583 -29.7130 -29.5699 -29.4875 -29.4657 -29.4189 -29.3765
   -29.3096 -29.2042 -29.0976 -29.0931 -29.0454 -28.8849 -28.8283 -28.7386
    -2.5755  -1.9517  -1.8882  -1.5105  -1.3034  -0.9665  -0.9056  -0.7237
    -0.6710  -0.5948  -0.3648  -0.2942  -0.2211  -0.1424   0.0768   0.1297
     0.1954   0.2615   0.2991   0.3544   0.4314   0.4591   0.5463   0.5500
     0.7140   0.7595   0.8377   0.8408   1.0726   1.0893   1.1988   1.3960
     1.4375   1.6163   1.6407   1.6879   1.8449   1.8944   2.2345   2.2445
     2.4712   2.6603   2.7865   2.8928   2.8990   2.9445

          k = 0.0630-0.0623 0.0000 ( 32491 PWs)   bands (ev):

   -62.8465 -62.8138 -62.7787 -62.7454 -62.6998 -62.6674 -53.4919 -53.4326
   -53.3733 -53.3141 -53.1888 -53.0700 -36.8475 -36.8151 -36.6991 -36.6809
   -36.6704 -36.6524 -36.6152 -36.5875 -36.5854 -36.5745 -36.5449 -36.5104
   -36.4817 -36.4288 -36.4055 -36.3418 -36.2698 -36.2467 -29.9823 -29.9331
   -29.8827 -29.8582 -29.7127 -29.5703 -29.4853 -29.4657 -29.4175 -29.3764
   -29.3096 -29.2035 -29.0975 -29.0934 -29.0456 -28.8850 -28.8283 -28.7386
    -2.8862  -1.9599  -1.7050  -1.5799  -1.4668  -1.0636  -1.0383  -0.7946
    -0.7388  -0.6668  -0.4301  -0.3039  -0.2685  -0.1805  -0.1207   0.1271
     0.2249   0.3126   0.3590   0.4260   0.4590   0.5492   0.6155   0.7353
     0.8080   0.8969   0.9620   0.9949   1.1941   1.2173   1.3236   1.3672
     1.4777   1.6510   1.6825   1.7434   1.7677   2.0491   2.2426   2.4418
     2.4849   2.6946   2.8107   2.8278   2.8982   2.9196

          k = 0.0630-0.0467 0.0000 ( 32504 PWs)   bands (ev):

   -62.8466 -62.8138 -62.7787 -62.7454 -62.6998 -62.6674 -53.4918 -53.4326
   -53.3734 -53.3141 -53.1889 -53.0701 -36.8481 -36.8150 -36.6989 -36.6816
   -36.6704 -36.6525 -36.6164 -36.5877 -36.5854 -36.5753 -36.5450 -36.5109
   -36.4815 -36.4286 -36.4055 -36.3418 -36.2699 -36.2467 -29.9807 -29.9317
   -29.8822 -29.8581 -29.7124 -29.5709 -29.4824 -29.4657 -29.4155 -29.3764
   -29.3096 -29.2026 -29.0974 -29.0937 -29.0458 -28.8851 -28.8283 -28.7386
    -3.1508  -1.9624  -1.8232  -1.6590  -1.4945  -1.1843  -1.1141  -0.8551
    -0.8452  -0.7445  -0.5731  -0.3468  -0.3338  -0.2231  -0.2112   0.0742
     0.1773   0.2456   0.5008   0.5501   0.5622   0.6372   0.7474   0.9242
     1.0011   1.0557   1.1251   1.1388   1.2194   1.3289   1.3672   1.4581
     1.5634   1.6872   1.7799   1.8096   1.9627   2.1617   2.2999   2.4937
     2.6049   2.6240   2.7220   2.8111   2.8340   2.8424

          k = 0.0630-0.0311 0.0000 ( 32475 PWs)   bands (ev):

   -62.8466 -62.8138 -62.7787 -62.7454 -62.6998 -62.6674 -53.4916 -53.4324
   -53.3734 -53.3141 -53.1888 -53.0701 -36.8487 -36.8149 -36.6988 -36.6823
   -36.6704 -36.6526 -36.6176 -36.5878 -36.5854 -36.5761 -36.5450 -36.5114
   -36.4812 -36.4284 -36.4054 -36.3417 -36.2699 -36.2467 -29.9792 -29.9302
   -29.8818 -29.8580 -29.7121 -29.5714 -29.4794 -29.4657 -29.4135 -29.3763
   -29.3097 -29.2017 -29.0974 -29.0940 -29.0459 -28.8852 -28.8283 -28.7387
    -3.3500  -1.9871  -1.9531  -1.7218  -1.5701  -1.3221  -1.1056  -0.9537
    -0.8661  -0.8393  -0.6829  -0.4454  -0.3878  -0.2921  -0.2382   0.0255
     0.1383   0.2301   0.5711   0.6342   0.6601   0.8127   0.9107   0.9958
     1.0447   1.1470   1.2503   1.2974   1.2987   1.4244   1.5378   1.5757
     1.6174   1.8159   1.8260   1.9304   2.1010   2.2690   2.3932   2.4302
     2.5579   2.5906   2.6555   2.6619   2.8005   2.8728

          k = 0.0630-0.0156 0.0000 ( 32490 PWs)   bands (ev):

   -62.8466 -62.8138 -62.7787 -62.7453 -62.6998 -62.6675 -53.4916 -53.4325
   -53.3734 -53.3141 -53.1887 -53.0701 -36.8492 -36.8149 -36.6986 -36.6828
   -36.6704 -36.6526 -36.6185 -36.5879 -36.5854 -36.5767 -36.5450 -36.5119
   -36.4811 -36.4282 -36.4054 -36.3416 -36.2699 -36.2467 -29.9781 -29.9291
   -29.8815 -29.8579 -29.7118 -29.5719 -29.4772 -29.4657 -29.4121 -29.3763
   -29.3097 -29.2010 -29.0973 -29.0942 -29.0461 -28.8853 -28.8283 -28.7387
    -3.4732  -2.0959  -1.9379  -1.7532  -1.6428  -1.4313  -1.1090  -1.0165
    -0.9129  -0.8649  -0.7485  -0.5091  -0.4231  -0.3717  -0.2618   0.0018
     0.1186   0.2391   0.6159   0.7258   0.7810   0.8745   0.9452   0.9695
     1.0870   1.1534   1.3382   1.4247   1.4874   1.5161   1.6082   1.6838
     1.7979   1.9175   1.9188   1.9882   2.0926   2.2247   2.3016   2.4143
     2.4398   2.5262   2.5967   2.8014   2.8237   2.8818

          k = 0.0630 0.0000 0.0000 ( 32494 PWs)   bands (ev):

   -62.8466 -62.8138 -62.7787 -62.7453 -62.6998 -62.6675 -53.4916 -53.4324
   -53.3734 -53.3141 -53.1888 -53.0701 -36.8494 -36.8149 -36.6986 -36.6830
   -36.6704 -36.6526 -36.6189 -36.5880 -36.5854 -36.5770 -36.5451 -36.5120
   -36.4810 -36.4282 -36.4054 -36.3416 -36.2700 -36.2467 -29.9777 -29.9286
   -29.8813 -29.8579 -29.7118 -29.5720 -29.4764 -29.4657 -29.4116 -29.3763
   -29.3097 -29.2008 -29.0973 -29.0943 -29.0461 -28.8854 -28.8283 -28.7387
    -3.5149  -2.1334  -1.9309  -1.7583  -1.6699  -1.4766  -1.1136  -1.0378
    -0.9398  -0.8623  -0.7705  -0.5292  -0.4354  -0.4069  -0.2716  -0.0046
     0.1127   0.2443   0.6541   0.7558   0.8078   0.9018   0.9213   0.9640
     1.0978   1.1613   1.4283   1.4772   1.4953   1.5979   1.6316   1.6669
     1.8895   1.9899   1.9960   2.1032   2.1118   2.1395   2.2361   2.2483
     2.3202   2.5835   2.5892   2.8021   2.8722   2.8968

          k = 0.0630 0.0156 0.0000 ( 32490 PWs)   bands (ev):

   -62.8466 -62.8138 -62.7787 -62.7453 -62.6998 -62.6675 -53.4916 -53.4325
   -53.3734 -53.3141 -53.1887 -53.0701 -36.8492 -36.8149 -36.6986 -36.6828
[...]
   -36.4904 -36.4890 -36.4658 -36.4014 -36.2643 -36.2523 -29.9537 -29.8896
   -29.7376 -29.6860 -29.5455 -29.5242 -29.4873 -29.4603 -29.4010 -29.3924
   -29.3346 -29.3016 -29.2534 -29.1784 -29.1228 -29.0908 -28.8070 -28.7604
    -2.4725  -2.3177  -1.5905  -1.4226  -1.2482  -0.9921  -0.9376  -0.7013
    -0.6905  -0.5658  -0.3962  -0.3105  -0.2526   0.0754   0.1147   0.1152
     0.2082   0.3090   0.4127   0.4278   0.5062   0.6123   0.6520   0.7674
     0.8923   0.9342   0.9574   1.0256   1.1636   1.3215   1.3280   1.4312
     1.5256   1.5841   1.6294   1.6942   1.7465   2.0891   2.1405   2.2344
     2.4619   2.6621   2.6674   2.8446   2.9047   3.0222

          k = 0.0788 0.0856 0.0000 ( 32464 PWs)   bands (ev):

   -62.8387 -62.8218 -62.7707 -62.7534 -62.6920 -62.6753 -53.4637 -53.4043
   -53.4021 -53.3429 -53.1605 -53.0989 -36.8392 -36.8233 -36.6924 -36.6776
   -36.6195 -36.6075 -36.5967 -36.5913 -36.5668 -36.5526 -36.5275 -36.5029
   -36.4905 -36.4892 -36.4658 -36.4014 -36.2643 -36.2523 -29.9543 -29.8894
   -29.7382 -29.6862 -29.5452 -29.5243 -29.4873 -29.4614 -29.4006 -29.3932
   -29.3344 -29.3013 -29.2532 -29.1788 -29.1227 -29.0907 -28.8070 -28.7604
    -2.3503  -2.1967  -1.8239  -1.4036  -1.0877  -0.9421  -0.8959  -0.7000
    -0.6905  -0.5248  -0.3560  -0.3309  -0.2818   0.0751   0.1190   0.1950
     0.2399   0.3258   0.3620   0.3900   0.4726   0.5240   0.6864   0.7408
     0.7411   0.8736   0.8992   1.0312   1.1524   1.2266   1.2661   1.4179
     1.5407   1.5896   1.6415   1.6433   1.7935   2.0560   2.1382   2.2365
     2.3870   2.5112   2.6364   2.8577   2.9202   2.9939

          k = 0.0788 0.1012 0.0000 ( 32464 PWs)   bands (ev):

   -62.8387 -62.8218 -62.7707 -62.7534 -62.6920 -62.6753 -53.4637 -53.4043
   -53.4021 -53.3429 -53.1605 -53.0989 -36.8392 -36.8233 -36.6924 -36.6776
   -36.6195 -36.6075 -36.5967 -36.5913 -36.5668 -36.5526 -36.5275 -36.5029
   -36.4905 -36.4892 -36.4658 -36.4014 -36.2643 -36.2523 -29.9543 -29.8894
   -29.7382 -29.6862 -29.5452 -29.5243 -29.4873 -29.4614 -29.4006 -29.3932
   -29.3344 -29.3013 -29.2532 -29.1788 -29.1227 -29.0907 -28.8070 -28.7604
    -2.3503  -2.1967  -1.8239  -1.4036  -1.0877  -0.9421  -0.8959  -0.7000
    -0.6906  -0.5248  -0.3560  -0.3309  -0.2818   0.0751   0.1190   0.1950
     0.2399   0.3258   0.3620   0.3900   0.4726   0.5240   0.6864   0.7408
     0.7411   0.8736   0.8992   1.0312   1.1524   1.2266   1.2662   1.4179
     1.5407   1.5896   1.6415   1.6433   1.7935   2.0560   2.1382   2.2365
     2.3870   2.5112   2.6364   2.8578   2.9209   2.9941

          k = 0.0788 0.1168 0.0000 ( 32495 PWs)   bands (ev):

   -62.8387 -62.8218 -62.7707 -62.7534 -62.6920 -62.6753 -53.4637 -53.4044
   -53.4022 -53.3429 -53.1605 -53.0989 -36.8395 -36.8232 -36.6924 -36.6776
   -36.6198 -36.6080 -36.5965 -36.5914 -36.5671 -36.5525 -36.5276 -36.5032
   -36.4904 -36.4890 -36.4658 -36.4014 -36.2643 -36.2523 -29.9537 -29.8896
   -29.7376 -29.6860 -29.5455 -29.5242 -29.4873 -29.4603 -29.4010 -29.3924
   -29.3346 -29.3016 -29.2534 -29.1784 -29.1228 -29.0908 -28.8070 -28.7604
    -2.4725  -2.3177  -1.5905  -1.4226  -1.2482  -0.9921  -0.9376  -0.7013
    -0.6905  -0.5658  -0.3962  -0.3105  -0.2526   0.0754   0.1147   0.1152
     0.2082   0.3090   0.4127   0.4278   0.5062   0.6123   0.6520   0.7673
     0.8923   0.9342   0.9574   1.0256   1.1637   1.3215   1.3280   1.4312
     1.5256   1.5841   1.6294   1.6943   1.7465   2.0891   2.1405   2.2344
     2.4619   2.6622   2.6674   2.8446   2.9047   3.0222

          k = 0.0788-0.0545 0.0000 ( 32469 PWs)   bands (ev):

   -62.8387 -62.8217 -62.7707 -62.7534 -62.6920 -62.6753 -53.4635 -53.4043
   -53.4022 -53.3429 -53.1604 -53.0989 -36.8399 -36.8231 -36.6922 -36.6777
   -36.6203 -36.6088 -36.5962 -36.5916 -36.5677 -36.5524 -36.5277 -36.5036
   -36.4901 -36.4887 -36.4657 -36.4013 -36.2643 -36.2523 -29.9527 -29.8899
   -29.7365 -29.6855 -29.5459 -29.5239 -29.4872 -29.4583 -29.4015 -29.3911
   -29.3351 -29.3021 -29.2536 -29.1778 -29.1229 -29.0910 -28.8070 -28.7605
    -2.7291  -2.2521  -1.5411  -1.4494  -1.3293  -1.1164  -0.9378  -0.7562
    -0.6981  -0.6531  -0.4727  -0.2760  -0.1981  -0.0340   0.0376   0.1140
     0.2765   0.2774   0.3654   0.5331   0.5512   0.6874   0.7275   0.8906
     0.9264   1.0395   1.0791   1.1272   1.2342   1.3105   1.4246   1.4495
     1.4840   1.5726   1.6672   1.7377   1.9388   1.9749   2.1240   2.4556
     2.5346   2.6695   2.7431   2.7879   2.8365   2.8995

          k = 0.0788-0.0389 0.0000 ( 32497 PWs)   bands (ev):

   -62.8387 -62.8217 -62.7707 -62.7534 -62.6920 -62.6753 -53.4635 -53.4043
   -53.4023 -53.3430 -53.1605 -53.0990 -36.8404 -36.8229 -36.6921 -36.6778
   -36.6208 -36.6098 -36.5958 -36.5918 -36.5683 -36.5522 -36.5278 -36.5041
   -36.4898 -36.4884 -36.4657 -36.4013 -36.2644 -36.2523 -29.9515 -29.8903
   -29.7353 -29.6850 -29.5463 -29.5236 -29.4871 -29.4560 -29.4021 -29.3895
   -29.3356 -29.3027 -29.2539 -29.1771 -29.1231 -29.0912 -28.8070 -28.7605
    -2.9352  -2.1542  -1.6669  -1.4715  -1.3431  -1.2517  -0.9013  -0.8441
    -0.7482  -0.6985  -0.5422  -0.2312  -0.2130  -0.1272  -0.0057   0.0782
     0.2441   0.3049   0.4099   0.4892   0.6471   0.8012   0.8654   0.9919
     1.0063   1.0554   1.1979   1.2634   1.3380   1.3546   1.3963   1.4149
     1.5519   1.5866   1.8055   1.8889   1.9121   2.1146   2.1328   2.4294
     2.5439   2.6134   2.6402   2.7862   2.8149   2.8929

          k = 0.0788-0.0234 0.0000 ( 32492 PWs)   bands (ev):

   -62.8387 -62.8217 -62.7707 -62.7534 -62.6920 -62.6753 -53.4634 -53.4042
   -53.4023 -53.3430 -53.1604 -53.0990 -36.8408 -36.8227 -36.6920 -36.6779
   -36.6212 -36.6107 -36.5955 -36.5919 -36.5689 -36.5520 -36.5280 -36.5045
   -36.4895 -36.4881 -36.4656 -36.4012 -36.2644 -36.2523 -29.9504 -29.8906
   -29.7342 -29.6845 -29.5467 -29.5234 -29.4871 -29.4539 -29.4027 -29.3881
   -29.3360 -29.3032 -29.2542 -29.1765 -29.1233 -29.0914 -28.8070 -28.7605
    -3.0781  -2.0305  -1.7751  -1.4845  -1.4000  -1.3826  -0.9281  -0.8844
    -0.8154  -0.6755  -0.5916  -0.2858  -0.1918  -0.1888  -0.0474   0.0510
     0.2046   0.3030   0.4785   0.5566   0.7445   0.8467   0.8493   0.9902
     1.1018   1.1696   1.2512   1.2897   1.3183   1.4550   1.4679   1.5374
     1.6853   1.7169   1.8375   1.8677   2.0694   2.1025   2.1959   2.2824
     2.3786   2.5716   2.5804   2.6482   2.8106   2.8426

          k = 0.0788-0.0078 0.0000 ( 32494 PWs)   bands (ev):

   -62.8387 -62.8217 -62.7707 -62.7534 -62.6920 -62.6753 -53.4633 -53.4041
   -53.4024 -53.3431 -53.1604 -53.0991 -36.8411 -36.8227 -36.6919 -36.6780
   -36.6215 -36.6111 -36.5953 -36.5919 -36.5691 -36.5519 -36.5281 -36.5047
   -36.4893 -36.4879 -36.4656 -36.4012 -36.2644 -36.2523 -29.9498 -29.8908
   -29.7336 -29.6843 -29.5470 -29.5233 -29.4871 -29.4527 -29.4030 -29.3873
   -29.3363 -29.3035 -29.2544 -29.1761 -29.1234 -29.0915 -28.8070 -28.7606
    -3.1511  -1.9115  -1.8325  -1.5415  -1.4827  -1.4103  -0.9730  -0.8860
    -0.8497  -0.6530  -0.6165  -0.3204  -0.2545  -0.1739  -0.0784   0.0457
     0.1931   0.3124   0.5048   0.6662   0.7311   0.8070   0.8963   1.0233
     1.0884   1.1960   1.2650   1.3006   1.3332   1.5117   1.6350   1.6560
     1.7654   1.8171   1.8249   1.9680   1.9945   2.1210   2.1448   2.2495
     2.3016   2.4044   2.5425   2.5644   2.8290   2.8471

          k = 0.0788 0.0078 0.0000 ( 32494 PWs)   bands (ev):

   -62.8387 -62.8217 -62.7707 -62.7534 -62.6920 -62.6753 -53.4633 -53.4041
   -53.4024 -53.3431 -53.1604 -53.0991 -36.8411 -36.8227 -36.6919 -36.6780
   -36.6215 -36.6111 -36.5953 -36.5919 -36.5691 -36.5519 -36.5281 -36.5047
   -36.4893 -36.4879 -36.4656 -36.4012 -36.2644 -36.2523 -29.9498 -29.8908
   -29.7336 -29.6843 -29.5470 -29.5233 -29.4871 -29.4527 -29.4030 -29.3873
   -29.3363 -29.3035 -29.2544 -29.1761 -29.1234 -29.0915 -28.8070 -28.7606
    -3.1511  -1.9115  -1.8325  -1.5414  -1.4827  -1.4103  -0.9730  -0.8860
    -0.8497  -0.6530  -0.6165  -0.3204  -0.2545  -0.1739  -0.0784   0.0457
     0.1931   0.3124   0.5048   0.6662   0.7310   0.8070   0.8963   1.0233
     1.0884   1.1960   1.2649   1.3007   1.3332   1.5117   1.6350   1.6560
     1.7654   1.8171   1.8249   1.9680   1.9945   2.1210   2.1448   2.2495
     2.3015   2.4044   2.5425   2.5644   2.8289   2.8469

          k = 0.0788 0.0234 0.0000 ( 32492 PWs)   bands (ev):

   -62.8387 -62.8217 -62.7707 -62.7534 -62.6920 -62.6753 -53.4634 -53.4042
   -53.4023 -53.3430 -53.1604 -53.0990 -36.8408 -36.8227 -36.6920 -36.6779
   -36.6212 -36.6107 -36.5955 -36.5919 -36.5689 -36.5520 -36.5280 -36.5045
   -36.4895 -36.4881 -36.4656 -36.4012 -36.2644 -36.2523 -29.9504 -29.8906
   -29.7342 -29.6845 -29.5467 -29.5234 -29.4871 -29.4539 -29.4027 -29.3881
   -29.3360 -29.3032 -29.2542 -29.1765 -29.1233 -29.0914 -28.8070 -28.7605
    -3.0781  -2.0305  -1.7751  -1.4845  -1.4000  -1.3825  -0.9281  -0.8844
    -0.8154  -0.6755  -0.5916  -0.2858  -0.1918  -0.1888  -0.0474   0.0510
     0.2046   0.3030   0.4785   0.5566   0.7445   0.8467   0.8493   0.9902
     1.1018   1.1695   1.2512   1.2897   1.3183   1.4550   1.4680   1.5374
     1.6853   1.7169   1.8375   1.8677   2.0694   2.1025   2.1959   2.2823
     2.3786   2.5716   2.5803   2.6482   2.8105   2.8427

          k =-0.0945-0.0467 0.0000 ( 32500 PWs)   bands (ev):

   -62.8305 -62.8300 -62.7621 -62.7620 -62.6837 -62.6836 -53.4330 -53.4330
   -53.3738 -53.3738 -53.1298 -53.1298 -36.8317 -36.8314 -36.6851 -36.6848
   -36.6020 -36.6016 -36.5604 -36.5603 -36.5553 -36.5550 -36.5300 -36.5297
   -36.4962 -36.4962 -36.4647 -36.4647 -36.2584 -36.2583 -29.9211 -29.9211
   -29.5244 -29.5243 -29.5172 -29.5172 -29.4717 -29.4717 -29.4298 -29.4298
   -29.3631 -29.3631 -29.3065 -29.3065 -29.1503 -29.1503 -28.7838 -28.7838
    -2.5147  -2.5146  -1.4429  -1.4428  -1.2224  -1.2223  -0.7932  -0.7931
    -0.6876  -0.6876  -0.4021  -0.4020  -0.0551  -0.0551   0.1135   0.1135
     0.2403   0.2403   0.4792   0.4793   0.6271   0.6271   0.9243   0.9243
     1.0822   1.0823   1.1929   1.1930   1.2717   1.2718   1.3966   1.3966
     1.5979   1.5979   1.7053   1.7053   1.8647   1.8648   2.4081   2.4082
     2.6381   2.6381   2.7530   2.7531   2.9150   2.9157

          k =-0.0945-0.0311 0.0000 ( 32498 PWs)   bands (ev):

   -62.8305 -62.8300 -62.7621 -62.7620 -62.6837 -62.6836 -53.4331 -53.4330
   -53.3738 -53.3737 -53.1298 -53.1298 -36.8319 -36.8312 -36.6851 -36.6847
   -36.6025 -36.6011 -36.5608 -36.5599 -36.5556 -36.5547 -36.5300 -36.5297
   -36.4966 -36.4958 -36.4648 -36.4646 -36.2584 -36.2583 -29.9219 -29.9204
   -29.5255 -29.5232 -29.5173 -29.5171 -29.4720 -29.4714 -29.4313 -29.4283
   -29.3641 -29.3620 -29.3068 -29.3061 -29.1507 -29.1499 -28.7838 -28.7838
    -2.6530  -2.3301  -1.5089  -1.4004  -1.2942  -1.1700  -0.8779  -0.7304
    -0.7274  -0.6203  -0.4460  -0.3534  -0.0935  -0.0486   0.0186   0.2164
     0.2524   0.2647   0.3872   0.5147   0.5579   0.7792   0.8136   0.9654
     1.0254   1.0537   1.1982   1.2241   1.2673   1.3401   1.3408   1.5043
     1.5160   1.6340   1.6837   1.7573   1.8159   1.9360   2.2454   2.4925
     2.4997   2.6640   2.7520   2.8194   2.8308   2.9561

          k =-0.0945-0.0156 0.0000 ( 32487 PWs)   bands (ev):

   -62.8305 -62.8300 -62.7621 -62.7620 -62.6837 -62.6836 -53.4331 -53.4329
   -53.3738 -53.3737 -53.1299 -53.1297 -36.8322 -36.8310 -36.6852 -36.6847
   -36.6029 -36.6006 -36.5610 -36.5595 -36.5560 -36.5545 -36.5301 -36.5297
   -36.4969 -36.4955 -36.4650 -36.4646 -36.2584 -36.2582 -29.9224 -29.9198
   -29.5263 -29.5223 -29.5173 -29.5171 -29.4723 -29.4713 -29.4324 -29.4273
   -29.3649 -29.3613 -29.3071 -29.3059 -29.1511 -29.1495 -28.7838 -28.7838
    -2.7383  -2.1156  -1.5592  -1.5509  -1.2317  -1.1461  -0.9414  -0.7590
    -0.6973  -0.5470  -0.4695  -0.3410  -0.1076  -0.0923  -0.0328   0.2131
     0.2734   0.3370   0.3871   0.4597   0.6309   0.6740   0.8829   0.9373
     1.0138   1.0148   1.1819   1.1975   1.2472   1.3942   1.4226   1.5159
     1.5830   1.5893   1.6649   1.7453   1.9493   2.0067   2.0529   2.4248
     2.4590   2.5702   2.7309   2.7521   2.8706   2.9086

          k =-0.0945-0.0000 0.0000 ( 32526 PWs)   bands (ev):

   -62.8305 -62.8300 -62.7621 -62.7620 -62.6837 -62.6836 -53.4332 -53.4329
   -53.3739 -53.3737 -53.1300 -53.1298 -36.8322 -36.8309 -36.6853 -36.6847
   -36.6031 -36.6005 -36.5610 -36.5594 -36.5562 -36.5544 -36.5301 -36.5297
   -36.4970 -36.4954 -36.4650 -36.4646 -36.2584 -36.2583 -29.9227 -29.9196
   -29.5265 -29.5219 -29.5173 -29.5171 -29.4724 -29.4712 -29.4328 -29.4269
   -29.3652 -29.3610 -29.3072 -29.3058 -29.1512 -29.1494 -28.7839 -28.7838
    -2.7670  -1.9608  -1.7088  -1.5650  -1.1834  -1.1389  -0.9730  -0.7701
    -0.6882  -0.5101  -0.4749  -0.3553  -0.1040  -0.1022  -0.0705   0.2077
     0.2770   0.3476   0.4445   0.4457   0.6016   0.6853   0.8295   0.9580
     1.0145   1.0267   1.1622   1.1955   1.2376   1.4118   1.4174   1.5463
     1.5662   1.6195   1.6776   1.7773   1.9400   1.9473   2.1970   2.2742
     2.4055   2.5659   2.7221   2.7279   2.8702   2.8930

          k =-0.0945 0.0156 0.0000 ( 32487 PWs)   bands (ev):

   -62.8305 -62.8300 -62.7621 -62.7620 -62.6837 -62.6836 -53.4331 -53.4329
   -53.3738 -53.3737 -53.1299 -53.1297 -36.8322 -36.8310 -36.6852 -36.6847
   -36.6029 -36.6006 -36.5610 -36.5595 -36.5560 -36.5545 -36.5301 -36.5297
   -36.4969 -36.4955 -36.4650 -36.4646 -36.2584 -36.2582 -29.9224 -29.9198
   -29.5263 -29.5223 -29.5173 -29.5171 -29.4723 -29.4713 -29.4324 -29.4273
   -29.3649 -29.3613 -29.3071 -29.3059 -29.1511 -29.1495 -28.7838 -28.7838
    -2.7383  -2.1156  -1.5592  -1.5509  -1.2317  -1.1461  -0.9414  -0.7590
    -0.6973  -0.5470  -0.4695  -0.3410  -0.1076  -0.0923  -0.0328   0.2131
     0.2734   0.3370   0.3871   0.4597   0.6308   0.6740   0.8830   0.9373
     1.0138   1.0148   1.1820   1.1975   1.2472   1.3942   1.4226   1.5159
     1.5830   1.5893   1.6650   1.7453   1.9493   2.0068   2.0529   2.4247
     2.4590   2.5702   2.7309   2.7521   2.8710   2.9086

          k =-0.0945 0.0311 0.0000 ( 32498 PWs)   bands (ev):

   -62.8305 -62.8300 -62.7621 -62.7620 -62.6837 -62.6836 -53.4331 -53.4330
   -53.3738 -53.3737 -53.1298 -53.1298 -36.8319 -36.8312 -36.6851 -36.6847
   -36.6025 -36.6011 -36.5608 -36.5599 -36.5556 -36.5547 -36.5300 -36.5297
   -36.4966 -36.4958 -36.4648 -36.4646 -36.2584 -36.2583 -29.9219 -29.9204
   -29.5255 -29.5232 -29.5173 -29.5171 -29.4720 -29.4714 -29.4313 -29.4283
   -29.3641 -29.3620 -29.3068 -29.3061 -29.1507 -29.1499 -28.7838 -28.7838
    -2.6530  -2.3301  -1.5089  -1.4004  -1.2943  -1.1700  -0.8779  -0.7304
    -0.7274  -0.6203  -0.4460  -0.3534  -0.0935  -0.0486   0.0186   0.2164
     0.2525   0.2647   0.3872   0.5147   0.5579   0.7792   0.8136   0.9653
     1.0254   1.0537   1.1982   1.2241   1.2673   1.3401   1.3408   1.5043
     1.5160   1.6340   1.6837   1.7573   1.8159   1.9360   2.2454   2.4925
     2.4997   2.6640   2.7521   2.8194   2.8309   2.9560

          k =-0.0945-0.1401 0.0000 ( 32500 PWs)   bands (ev):

   -62.8305 -62.8300 -62.7621 -62.7620 -62.6837 -62.6836 -53.4330 -53.4330
   -53.3738 -53.3738 -53.1298 -53.1298 -36.8317 -36.8314 -36.6851 -36.6848
   -36.6020 -36.6016 -36.5604 -36.5603 -36.5553 -36.5550 -36.5300 -36.5297
   -36.4962 -36.4962 -36.4647 -36.4647 -36.2584 -36.2583 -29.9211 -29.9211
   -29.5244 -29.5243 -29.5172 -29.5172 -29.4717 -29.4717 -29.4298 -29.4298
   -29.3631 -29.3631 -29.3065 -29.3065 -29.1503 -29.1503 -28.7838 -28.7838
    -2.5147  -2.5146  -1.4429  -1.4428  -1.2224  -1.2223  -0.7932  -0.7931
    -0.6877  -0.6876  -0.4021  -0.4021  -0.0552  -0.0551   0.1135   0.1135
     0.2403   0.2403   0.4792   0.4793   0.6271   0.6271   0.9243   0.9243
     1.0822   1.0823   1.1929   1.1929   1.2718   1.2718   1.3965   1.3966
     1.5979   1.5979   1.7053   1.7053   1.8647   1.8648   2.4081   2.4081
     2.6381   2.6381   2.7530   2.7531   2.9154   2.9154

     the Fermi energy is     1.4297 ev

!    total energy              =   -1589.04674384 Ry
     estimated scf accuracy    <       0.00000449 Ry
     smearing contrib. (-TS)   =      -0.09051843 Ry
     internal energy E=F+TS    =   -1588.95622540 Ry

     The total energy is F=E-TS. E is the sum of the following terms:
     one-electron contribution =  -13058.86542502 Ry
     hartree contribution      =    6519.73965646 Ry
     xc contribution           =    -241.65011316 Ry
     ewald contribution        =    5191.81965330 Ry
     electric field correction =       0.00000303 Ry

     convergence has been achieved in  21 iterations

     negative rho (up, down):  1.354E-03 0.000E+00

     Forces acting on atoms (cartesian axes, Ry/au):

     atom    1 type  1   force =     0.00000123    0.01156458    0.02603694
     atom    2 type  1   force =     0.00000057    0.01155949    0.02597821
     atom    3 type  2   force =    -0.00000499   -0.01496730   -0.01119212
     atom    4 type  2   force =     0.00000079   -0.01497138   -0.01118788
     atom    5 type  1   force =    -0.00000211   -0.00583061   -0.01350313
     atom    6 type  1   force =    -0.00000182   -0.00588668   -0.01357502
     atom    7 type  2   force =    -0.00003318    0.01248827   -0.00334488
     atom    8 type  2   force =     0.00002921    0.01248634   -0.00335293
     atom    9 type  1   force =     0.00000631   -0.00205628    0.00079145
     atom   10 type  1   force =    -0.00000191   -0.00203124    0.00082726
     atom   11 type  2   force =     0.00000661   -0.00117847    0.00126079
     atom   12 type  2   force =    -0.00000071   -0.00117673    0.00126132

     Total force =     0.055713     Total SCF correction =     0.002920

     Writing output data file ./V2Nb2/V2Nb2_beef.save/

     init_run     :    109.84s CPU    110.49s WALL (       1 calls)
     electrons    :   4988.39s CPU   5144.52s WALL (       1 calls)
     forces       :     73.55s CPU     73.77s WALL (       1 calls)

     Called by init_run:
     wfcinit      :     98.22s CPU     98.63s WALL (       1 calls)
     potinit      :      8.02s CPU      8.13s WALL (       1 calls)
     hinit0       :      1.97s CPU      1.98s WALL (       1 calls)

     Called by electrons:
     c_bands      :   4480.28s CPU   4624.56s WALL (      21 calls)
     sum_band     :    454.59s CPU    462.06s WALL (      21 calls)
     v_of_rho     :     38.05s CPU     39.54s WALL (      22 calls)
     newd         :     21.60s CPU     24.08s WALL (      22 calls)
     mix_rho      :      0.89s CPU      0.93s WALL (      21 calls)
     vdW_kernel   :      5.82s CPU      5.83s WALL (       1 calls)

     Called by c_bands:
     init_us_2    :     13.08s CPU     13.20s WALL (    3256 calls)
     cegterg      :   4431.28s CPU   4571.73s WALL (    1554 calls)

     Called by *egterg:
     cdiaghg      :    207.19s CPU    210.12s WALL (    8267 calls)
     h_psi        :   2386.60s CPU   2498.64s WALL (    8341 calls)
     s_psi        :    567.17s CPU    570.09s WALL (    8341 calls)
     g_psi        :      1.52s CPU      1.58s WALL (    6713 calls)

     Called by h_psi:
     h_psi:calbec :    670.57s CPU    680.70s WALL (    8341 calls)
     vloc_psi     :   1129.99s CPU   1227.63s WALL (    8341 calls)
     add_vuspsi   :    579.38s CPU    583.49s WALL (    8341 calls)

     General routines
     calbec       :    994.35s CPU   1005.90s WALL (   10191 calls)
     fft          :     36.94s CPU     37.61s WALL (    1445 calls)
     ffts         :      0.27s CPU      0.28s WALL (      43 calls)
     fftw         :   1240.19s CPU   1340.23s WALL (  854770 calls)
     interpolate  :      0.64s CPU      0.66s WALL (      22 calls)

     Parallel routines
     fft_scatt_xy :     45.11s CPU     45.68s WALL (  856258 calls)
     fft_scatt_yz :    793.28s CPU    885.57s WALL (  856258 calls)

     PWSCF        :      1h26m CPU      1h29m WALL


   This run was terminated on:  14: 2:50  25Jun2022            

=------------------------------------------------------------------------------=
   JOB DONE.
=------------------------------------------------------------------------------=
