
     Program PWSCF v.6.6 starts on 25Jun2022 at 14: 2:55 

     This program is part of the open-source Quantum ESPRESSO suite
     for quantum simulation of materials; please cite
         "P. Giannozzi et al., J. Phys.:Condens. Matter 21 395502 (2009);
         "P. Giannozzi et al., J. Phys.:Condens. Matter 29 465901 (2017);
          URL http://www.quantum-espresso.org", 
     in publications or presentations arising from this work. More details at
     http://www.quantum-espresso.org/quote

     Parallel version (MPI), running on    37 processors

     MPI processes distributed on     1 nodes
     R & G space division:  proc/nbgrp/npool/nimage =      37
     Fft bands division:     nmany     =       1
     Reading input from V2Os2.in
Warning: card &CELL ignored
Warning: card / ignored

     Current dimensions of program PWSCF are:
     Max number of different atomic species (ntypx) = 10
     Max number of k-points (npk) =  40000
     Max angular momentum in pseudopotentials (lmaxx) =  3
     Presently stress not available with electric field and gates

     Message from routine cell_base_init:
     DEPRECATED: use true lattice parameter, not A to a.u. conversion factor
     file V.pbe-spnl-rrkjus_psl.1.0.0.UPF: wavefunction(s)  3P 3D renormalized

     **************************************************************************
     Initializing libbeef V0.1.2 with the BEEF-vdW functional.
     Citation: Wellendorff et al., PRB 85, 235149 (2012).
     **************************************************************************


     IMPORTANT: XC functional enforced from input :
     Exchange-correlation= BEEF-VDW
                           (   1   4  43  14   2   0   0)
     Any further DFT definition will be discarded
     Please, verify this is what you really want


     Subspace diagonalization in iterative solution of the eigenvalue problem:
     a serial algorithm will be used


     Parallelization info
     --------------------
     sticks:   dense  smooth     PW     G-vecs:    dense   smooth      PW
     Min         108      43     12                24948     6303     954
     Max         109      44     13                24977     6330     975
     Sum        4031    1621    467               923853   233725   35693



     bravais-lattice index     =            0
     lattice parameter (alat)  =       1.8897  a.u.
     unit-cell volume          =    4228.7231 (a.u.)^3
     number of atoms/cell      =           12
     number of atomic types    =            2
     number of electrons       =       174.00
     number of Kohn-Sham states=          104
     kinetic-energy cutoff     =      55.1240  Ry
     charge density cutoff     =     551.2396  Ry
     convergence threshold     =      1.0E-05
     mixing beta               =       0.1000
     number of iterations used =           10  plain     mixing
     Exchange-correlation= BEEF-VDW
                           (   1   4  43  14   2   0   0)

     celldm(1)=   1.889726  celldm(2)=   0.000000  celldm(3)=   0.000000
     celldm(4)=   0.000000  celldm(5)=   0.000000  celldm(6)=   0.000000

     crystal axes: (cart. coord. in units of alat)
               a(1) = (   5.233335   0.000000   0.000000 )  
               a(2) = (   1.748007   4.932775   0.000000 )  
               a(3) = (   0.000000   0.000000  24.274086 )  

     reciprocal axes: (cart. coord. in units 2 pi/alat)
               b(1) = (  0.191083 -0.067713  0.000000 )  
               b(2) = (  0.000000  0.202726  0.000000 )  
               b(3) = (  0.000000  0.000000  0.041196 )  


     PseudoPot. # 1 for V  read from file:
     ../pseudo/V.pbe-spnl-rrkjus_psl.1.0.0.UPF
     MD5 check sum: 79b3eb63147daf0b665d9f1bcc691206
     Pseudo is Ultrasoft + core correction, Zval = 13.0
     Generated using "atomic" code by A. Dal Corso v.6.2.2
     Using radial grid of 1181 points,  6 beta functions with: 
                l(1) =   0
                l(2) =   0
                l(3) =   1
                l(4) =   1
                l(5) =   2
                l(6) =   2
     Q(r) pseudized with 0 coefficients 


     PseudoPot. # 2 for Os read from file:
     ../pseudo/Os.pbe-spn-rrkjus_psl.1.0.0.UPF
     MD5 check sum: 3e7416ed594f6513d36e5cb31ba709d9
     Pseudo is Ultrasoft + core correction, Zval = 16.0
     Generated using "atomic" code by A. Dal Corso v.6.2.2
     Using radial grid of 1275 points,  6 beta functions with: 
                l(1) =   0
                l(2) =   0
                l(3) =   1
                l(4) =   1
                l(5) =   2
                l(6) =   2
     Q(r) pseudized with 0 coefficients 


     atomic species   valence    mass     pseudopotential
        V             13.00    50.94150     V ( 1.00)
        Os            16.00   190.23000     Os( 1.00)

     No symmetry found



   Cartesian axes

     site n.     atom                  positions (alat units)
         1           V   tau(   1) = (   0.0000000   0.0000000  10.0000000  )
         2           V   tau(   2) = (   3.4906709   2.4663875  10.0000000  )
         3           Os  tau(   3) = (   2.6166676   0.0000000  10.0000000  )
         4           Os  tau(   4) = (   0.8740034   2.4663875  10.0000000  )
         5           V   tau(   5) = (   5.2333351   3.6976938  12.1370428  )
         6           V   tau(   6) = (   1.7426642   1.2313063  12.1370428  )
         7           Os  tau(   7) = (   2.6166676   3.6976938  12.1370428  )
         8           Os  tau(   8) = (   4.3593317   1.2313063  12.1370428  )
         9           V   tau(   9) = (   3.4861309   2.4631818  14.3347571  )
        10           V   tau(  10) = (   6.9767528   4.9295302  14.3347483  )
        11           Os  tau(  11) = (   6.1027173   2.4631638  14.1253445  )
        12           Os  tau(  12) = (   4.3601032   4.9295010  14.1253495  )

     number of k points=    74  Fermi-Dirac smearing, width (Ry)=  0.0100
                       cart. coord. in units 2pi/alat
        k(    1) = (   0.0000000   0.0000000   0.0000000), wk =   0.0138889
        k(    2) = (   0.0000000   0.0168938   0.0000000), wk =   0.0277778
        k(    3) = (   0.0000000   0.0337876   0.0000000), wk =   0.0277778
        k(    4) = (   0.0000000   0.0506814   0.0000000), wk =   0.0277778
        k(    5) = (   0.0000000   0.0675752   0.0000000), wk =   0.0277778
        k(    6) = (   0.0000000   0.0844690   0.0000000), wk =   0.0277778
        k(    7) = (   0.0000000  -0.1013628   0.0000000), wk =   0.0138889
        k(    8) = (   0.0159236  -0.0056428   0.0000000), wk =   0.0277778
        k(    9) = (   0.0159236   0.0112510   0.0000000), wk =   0.0277778
        k(   10) = (   0.0159236   0.0281448   0.0000000), wk =   0.0277778
        k(   11) = (   0.0159236   0.0450386   0.0000000), wk =   0.0277778
        k(   12) = (   0.0159236   0.0619324   0.0000000), wk =   0.0277778
        k(   13) = (   0.0159236   0.0788263   0.0000000), wk =   0.0277778
        k(   14) = (   0.0159236  -0.1070056   0.0000000), wk =   0.0277778
        k(   15) = (   0.0159236  -0.0901118   0.0000000), wk =   0.0277778
        k(   16) = (   0.0159236  -0.0732180   0.0000000), wk =   0.0277778
        k(   17) = (   0.0159236  -0.0563242   0.0000000), wk =   0.0277778
        k(   18) = (   0.0159236  -0.0394304   0.0000000), wk =   0.0277778
        k(   19) = (   0.0159236  -0.0225366   0.0000000), wk =   0.0277778
        k(   20) = (   0.0318471  -0.0112855   0.0000000), wk =   0.0277778
        k(   21) = (   0.0318471   0.0056083   0.0000000), wk =   0.0277778
        k(   22) = (   0.0318471   0.0225021   0.0000000), wk =   0.0277778
        k(   23) = (   0.0318471   0.0393959   0.0000000), wk =   0.0277778
        k(   24) = (   0.0318471   0.0562897   0.0000000), wk =   0.0277778
        k(   25) = (   0.0318471   0.0731835   0.0000000), wk =   0.0277778
        k(   26) = (   0.0318471  -0.1126484   0.0000000), wk =   0.0277778
        k(   27) = (   0.0318471  -0.0957546   0.0000000), wk =   0.0277778
        k(   28) = (   0.0318471  -0.0788607   0.0000000), wk =   0.0277778
        k(   29) = (   0.0318471  -0.0619669   0.0000000), wk =   0.0277778
        k(   30) = (   0.0318471  -0.0450731   0.0000000), wk =   0.0277778
        k(   31) = (   0.0318471  -0.0281793   0.0000000), wk =   0.0277778
        k(   32) = (   0.0477707  -0.0169283   0.0000000), wk =   0.0277778
        k(   33) = (   0.0477707  -0.0000345   0.0000000), wk =   0.0277778
        k(   34) = (   0.0477707   0.0168593   0.0000000), wk =   0.0277778
        k(   35) = (   0.0477707   0.0337531   0.0000000), wk =   0.0277778
        k(   36) = (   0.0477707   0.0506469   0.0000000), wk =   0.0277778
        k(   37) = (   0.0477707   0.0675407   0.0000000), wk =   0.0277778
        k(   38) = (   0.0477707  -0.1182911   0.0000000), wk =   0.0277778
        k(   39) = (   0.0477707  -0.1013973   0.0000000), wk =   0.0277778
        k(   40) = (   0.0477707  -0.0845035   0.0000000), wk =   0.0277778
        k(   41) = (   0.0477707  -0.0676097   0.0000000), wk =   0.0277778
        k(   42) = (   0.0477707  -0.0507159   0.0000000), wk =   0.0277778
        k(   43) = (   0.0477707  -0.0338221   0.0000000), wk =   0.0277778
        k(   44) = (   0.0636942  -0.0225711   0.0000000), wk =   0.0277778
        k(   45) = (   0.0636942  -0.0056773   0.0000000), wk =   0.0277778
        k(   46) = (   0.0636942   0.0112165   0.0000000), wk =   0.0277778
        k(   47) = (   0.0636942   0.0281103   0.0000000), wk =   0.0277778
        k(   48) = (   0.0636942   0.0450041   0.0000000), wk =   0.0277778
        k(   49) = (   0.0636942   0.0618980   0.0000000), wk =   0.0277778
        k(   50) = (   0.0636942  -0.1239339   0.0000000), wk =   0.0277778
        k(   51) = (   0.0636942  -0.1070401   0.0000000), wk =   0.0277778
        k(   52) = (   0.0636942  -0.0901463   0.0000000), wk =   0.0277778
        k(   53) = (   0.0636942  -0.0732525   0.0000000), wk =   0.0277778
        k(   54) = (   0.0636942  -0.0563587   0.0000000), wk =   0.0277778
        k(   55) = (   0.0636942  -0.0394649   0.0000000), wk =   0.0277778
        k(   56) = (   0.0796178  -0.0282138   0.0000000), wk =   0.0277778
        k(   57) = (   0.0796178  -0.0113200   0.0000000), wk =   0.0277778
        k(   58) = (   0.0796178   0.0055738   0.0000000), wk =   0.0277778
        k(   59) = (   0.0796178   0.0224676   0.0000000), wk =   0.0277778
        k(   60) = (   0.0796178   0.0393614   0.0000000), wk =   0.0277778
        k(   61) = (   0.0796178   0.0562552   0.0000000), wk =   0.0277778
        k(   62) = (   0.0796178  -0.1295767   0.0000000), wk =   0.0277778
        k(   63) = (   0.0796178  -0.1126829   0.0000000), wk =   0.0277778
        k(   64) = (   0.0796178  -0.0957890   0.0000000), wk =   0.0277778
        k(   65) = (   0.0796178  -0.0788952   0.0000000), wk =   0.0277778
        k(   66) = (   0.0796178  -0.0620014   0.0000000), wk =   0.0277778
        k(   67) = (   0.0796178  -0.0451076   0.0000000), wk =   0.0277778
        k(   68) = (  -0.0955414   0.0338566   0.0000000), wk =   0.0138889
        k(   69) = (  -0.0955414   0.0507504   0.0000000), wk =   0.0277778
        k(   70) = (  -0.0955414   0.0676442   0.0000000), wk =   0.0277778
        k(   71) = (  -0.0955414   0.0845380   0.0000000), wk =   0.0277778
        k(   72) = (  -0.0955414   0.1014318   0.0000000), wk =   0.0277778
        k(   73) = (  -0.0955414   0.1183256   0.0000000), wk =   0.0277778
        k(   74) = (  -0.0955414  -0.0675062   0.0000000), wk =   0.0138889

     Dense  grid:   923853 G-vectors     FFT dimensions: (  75,  75, 360)

     Smooth grid:   233725 G-vectors     FFT dimensions: (  48,  48, 225)

     Estimated max dynamical RAM per process >     193.77 MB

     Estimated total dynamical RAM >       7.00 GB

     Initial potential from superposition of free atoms

     starting charge  173.99309, renormalised to  174.00000

     negative rho (up, down):  1.116E-03 0.000E+00


     %%%%%%%%%%%%%%%%%%%%%%%%%%%%%%%%%%%%%%%%%%%%%%%%%%%%%%%%%%%%%%%%%%%%%%%%
     %                                                                      %
     % You are using vdW-DF, which was implemented by the Thonhauser group. %
     % Please cite the following two papers that made this development      %
     % possible and the two reviews that describe the various versions:     %
     %                                                                      %
     %   T. Thonhauser et al., PRL 115, 136402 (2015).                      %
     %   T. Thonhauser et al., PRB 76, 125112 (2007).                       %
     %   K. Berland et al., Rep. Prog. Phys. 78, 066501 (2015).             %
     %   D.C. Langreth et al., J. Phys.: Condens. Matter 21, 084203 (2009). %
     %                                                                      %
     %                                                                      %
     % If you are calculating the stress with vdW-DF, please also cite:     %
     %                                                                      %
     %   R. Sabatini et al., J. Phys.: Condens. Matter 24, 424209 (2012).   %
     %                                                                      %
     %%%%%%%%%%%%%%%%%%%%%%%%%%%%%%%%%%%%%%%%%%%%%%%%%%%%%%%%%%%%%%%%%%%%%%%%



     Adding external electric field

     Computed dipole along edir(3) : 
        Dipole                0.0003 Ry au,          0.0008 Debye
        Dipole field          0.0000 Ry au, 

        Potential amp.       -0.0001 Ry
        Total length         44.7246 bohr

     Starting wfcs are  120 randomized atomic wfcs

     total cpu time spent up to now is       78.5 secs

     Self-consistent Calculation

     iteration #  1     ecut=    55.12 Ry     beta= 0.10
     Davidson diagonalization with overlap
     ethr =  1.00E-02,  avg # of iterations =  2.4

     negative rho (up, down):  1.017E-03 0.000E+00

     Adding external electric field

     Computed dipole along edir(3) : 
        Dipole                0.0764 Ry au,          0.1942 Debye
        Dipole field          0.0002 Ry au, 

        Potential amp.       -0.0203 Ry
        Total length         44.7246 bohr


     total cpu time spent up to now is      385.8 secs

     total energy              =   -2081.01215369 Ry
     estimated scf accuracy    <       3.09756556 Ry

     iteration #  2     ecut=    55.12 Ry     beta= 0.10
     Davidson diagonalization with overlap
     ethr =  1.78E-03,  avg # of iterations =  3.9

     negative rho (up, down):  2.066E-03 0.000E+00

     Adding external electric field

     Computed dipole along edir(3) : 
        Dipole               -0.2182 Ry au,         -0.5545 Debye
        Dipole field         -0.0006 Ry au, 

        Potential amp.        0.0580 Ry
        Total length         44.7246 bohr


     total cpu time spent up to now is      697.3 secs

     total energy              =   -2081.29827346 Ry
     estimated scf accuracy    <       2.33076481 Ry

     iteration #  3     ecut=    55.12 Ry     beta= 0.10
     Davidson diagonalization with overlap
     ethr =  1.34E-03,  avg # of iterations =  1.3

     negative rho (up, down):  5.299E-03 0.000E+00

     Adding external electric field

     Computed dipole along edir(3) : 
        Dipole                0.0614 Ry au,          0.1560 Debye
        Dipole field          0.0002 Ry au, 

        Potential amp.       -0.0163 Ry
        Total length         44.7246 bohr


     total cpu time spent up to now is      871.4 secs

     total energy              =   -2081.31494389 Ry
     estimated scf accuracy    <       4.50270727 Ry

     iteration #  4     ecut=    55.12 Ry     beta= 0.10
     Davidson diagonalization with overlap
     ethr =  1.34E-03,  avg # of iterations =  1.1

     negative rho (up, down):  1.202E-03 0.000E+00

     Adding external electric field

     Computed dipole along edir(3) : 
        Dipole                0.0720 Ry au,          0.1830 Debye
        Dipole field          0.0002 Ry au, 

        Potential amp.       -0.0191 Ry
        Total length         44.7246 bohr


     total cpu time spent up to now is     1049.9 secs

     total energy              =   -2081.29628882 Ry
     estimated scf accuracy    <       0.53700999 Ry

     iteration #  5     ecut=    55.12 Ry     beta= 0.10
     Davidson diagonalization with overlap
     ethr =  3.09E-04,  avg # of iterations =  3.0

     negative rho (up, down):  1.162E-03 0.000E+00

     Adding external electric field

     Computed dipole along edir(3) : 
        Dipole                0.0594 Ry au,          0.1510 Debye
        Dipole field          0.0002 Ry au, 

        Potential amp.       -0.0158 Ry
        Total length         44.7246 bohr


     total cpu time spent up to now is     1242.3 secs

     total energy              =   -2081.31346106 Ry
     estimated scf accuracy    <       0.32937543 Ry

     iteration #  6     ecut=    55.12 Ry     beta= 0.10
     Davidson diagonalization with overlap
     ethr =  1.89E-04,  avg # of iterations =  4.1

     negative rho (up, down):  4.265E-03 0.000E+00

     Adding external electric field

     Computed dipole along edir(3) : 
        Dipole                0.0662 Ry au,          0.1683 Debye
        Dipole field          0.0002 Ry au, 

        Potential amp.       -0.0176 Ry
        Total length         44.7246 bohr


     total cpu time spent up to now is     1524.9 secs

     total energy              =   -2081.32789001 Ry
     estimated scf accuracy    <       0.07408970 Ry

     iteration #  7     ecut=    55.12 Ry     beta= 0.10
     Davidson diagonalization with overlap
     ethr =  4.26E-05,  avg # of iterations =  9.4

     negative rho (up, down):  5.770E-03 0.000E+00

     Adding external electric field

     Computed dipole along edir(3) : 
        Dipole                0.0708 Ry au,          0.1801 Debye
        Dipole field          0.0002 Ry au, 

        Potential amp.       -0.0188 Ry
        Total length         44.7246 bohr


     total cpu time spent up to now is     1783.6 secs

     total energy              =   -2081.33195285 Ry
     estimated scf accuracy    <       0.16514915 Ry

     iteration #  8     ecut=    55.12 Ry     beta= 0.10
     Davidson diagonalization with overlap
     ethr =  4.26E-05,  avg # of iterations =  1.3

     negative rho (up, down):  1.863E-02 0.000E+00

     Adding external electric field

     Computed dipole along edir(3) : 
        Dipole                0.0907 Ry au,          0.2305 Debye
        Dipole field          0.0003 Ry au, 

        Potential amp.       -0.0241 Ry
        Total length         44.7246 bohr


     total cpu time spent up to now is     1932.3 secs

     total energy              =   -2081.32417510 Ry
     estimated scf accuracy    <       0.06066024 Ry

     iteration #  9     ecut=    55.12 Ry     beta= 0.10
     Davidson diagonalization with overlap
     ethr =  3.49E-05,  avg # of iterations =  8.5

     negative rho (up, down):  1.594E-02 0.000E+00

     Adding external electric field

     Computed dipole along edir(3) : 
        Dipole                0.0872 Ry au,          0.2216 Debye
        Dipole field          0.0003 Ry au, 

        Potential amp.       -0.0232 Ry
        Total length         44.7246 bohr


     total cpu time spent up to now is     2180.8 secs

     total energy              =   -2081.33106267 Ry
     estimated scf accuracy    <       0.13873293 Ry

     iteration # 10     ecut=    55.12 Ry     beta= 0.10
     Davidson diagonalization with overlap
     ethr =  3.49E-05,  avg # of iterations =  1.8

     negative rho (up, down):  1.671E-02 0.000E+00

     Adding external electric field

     Computed dipole along edir(3) : 
        Dipole                0.0839 Ry au,          0.2132 Debye
        Dipole field          0.0002 Ry au, 

        Potential amp.       -0.0223 Ry
        Total length         44.7246 bohr


     total cpu time spent up to now is     2361.4 secs

     total energy              =   -2081.33430934 Ry
     estimated scf accuracy    <       0.00956896 Ry

     iteration # 11     ecut=    55.12 Ry     beta= 0.10
     Davidson diagonalization with overlap
     c_bands:  2 eigenvalues not converged
     c_bands:  2 eigenvalues not converged
     ethr =  5.50E-06,  avg # of iterations = 10.3

     negative rho (up, down):  1.777E-02 0.000E+00

     Adding external electric field

     Computed dipole along edir(3) : 
        Dipole                0.0736 Ry au,          0.1870 Debye
        Dipole field          0.0002 Ry au, 

        Potential amp.       -0.0196 Ry
        Total length         44.7246 bohr


     total cpu time spent up to now is     2645.8 secs

     total energy              =   -2081.33522810 Ry
     estimated scf accuracy    <       0.00600488 Ry

     iteration # 12     ecut=    55.12 Ry     beta= 0.10
     Davidson diagonalization with overlap
     ethr =  3.45E-06,  avg # of iterations =  3.3

     negative rho (up, down):  1.609E-02 0.000E+00

     Adding external electric field

     Computed dipole along edir(3) : 
        Dipole                0.0769 Ry au,          0.1955 Debye
        Dipole field          0.0002 Ry au, 

        Potential amp.       -0.0205 Ry
        Total length         44.7246 bohr


     total cpu time spent up to now is     3102.1 secs

     total energy              =   -2081.33563321 Ry
     estimated scf accuracy    <       0.00423910 Ry

     iteration # 13     ecut=    55.12 Ry     beta= 0.10
     Davidson diagonalization with overlap
     ethr =  2.44E-06,  avg # of iterations =  2.1

     negative rho (up, down):  1.482E-02 0.000E+00

     Adding external electric field

     Computed dipole along edir(3) : 
        Dipole                0.0800 Ry au,          0.2032 Debye
        Dipole field          0.0002 Ry au, 

        Potential amp.       -0.0213 Ry
        Total length         44.7246 bohr


     total cpu time spent up to now is     3257.7 secs

     total energy              =   -2081.33620410 Ry
     estimated scf accuracy    <       0.00036347 Ry

     iteration # 14     ecut=    55.12 Ry     beta= 0.10
     Davidson diagonalization with overlap
     c_bands:  1 eigenvalues not converged
     ethr =  2.09E-07,  avg # of iterations =  6.9

     negative rho (up, down):  1.373E-02 0.000E+00

     Adding external electric field

     Computed dipole along edir(3) : 
        Dipole                0.0802 Ry au,          0.2038 Debye
        Dipole field          0.0002 Ry au, 

        Potential amp.       -0.0213 Ry
        Total length         44.7246 bohr


     total cpu time spent up to now is     3462.7 secs

     total energy              =   -2081.33649619 Ry
     estimated scf accuracy    <       0.00031251 Ry

     iteration # 15     ecut=    55.12 Ry     beta= 0.10
     Davidson diagonalization with overlap
     ethr =  1.80E-07,  avg # of iterations =  2.2

     negative rho (up, down):  1.305E-02 0.000E+00

     Adding external electric field

     Computed dipole along edir(3) : 
        Dipole                0.0797 Ry au,          0.2025 Debye
        Dipole field          0.0002 Ry au, 

        Potential amp.       -0.0212 Ry
        Total length         44.7246 bohr


     total cpu time spent up to now is     3828.2 secs

     total energy              =   -2081.33664999 Ry
     estimated scf accuracy    <       0.00020852 Ry

     iteration # 16     ecut=    55.12 Ry     beta= 0.10
     Davidson diagonalization with overlap
     ethr =  1.20E-07,  avg # of iterations =  2.4

     negative rho (up, down):  1.170E-02 0.000E+00

     Adding external electric field

     Computed dipole along edir(3) : 
        Dipole                0.0795 Ry au,          0.2020 Debye
        Dipole field          0.0002 Ry au, 

        Potential amp.       -0.0211 Ry
        Total length         44.7246 bohr


     total cpu time spent up to now is     3978.3 secs

     total energy              =   -2081.33694017 Ry
     estimated scf accuracy    <       0.00004554 Ry

     iteration # 17     ecut=    55.12 Ry     beta= 0.10
     Davidson diagonalization with overlap
     ethr =  2.62E-08,  avg # of iterations =  7.1

     negative rho (up, down):  1.054E-02 0.000E+00

     Adding external electric field

     Computed dipole along edir(3) : 
        Dipole                0.0794 Ry au,          0.2018 Debye
        Dipole field          0.0002 Ry au, 

        Potential amp.       -0.0211 Ry
        Total length         44.7246 bohr


     total cpu time spent up to now is     4179.7 secs

     total energy              =   -2081.33719972 Ry
     estimated scf accuracy    <       0.00001434 Ry

     iteration # 18     ecut=    55.12 Ry     beta= 0.10
     Davidson diagonalization with overlap
     ethr =  8.24E-09,  avg # of iterations =  5.0

     negative rho (up, down):  1.202E-03 0.000E+00

     Adding external electric field

     Computed dipole along edir(3) : 
        Dipole                0.0773 Ry au,          0.1964 Debye
        Dipole field          0.0002 Ry au, 

        Potential amp.       -0.0205 Ry
        Total length         44.7246 bohr


     total cpu time spent up to now is     4359.7 secs

     End of self-consistent calculation

          k = 0.0000 0.0000 0.0000 ( 29303 PWs)   bands (ev):

   -84.8963 -84.8891 -84.3338 -84.3267 -84.2760 -84.2690 -63.0814 -63.0673
   -62.8266 -62.8136 -62.8066 -62.7936 -44.3377 -44.2139 -44.1977 -44.1488
   -44.1473 -44.1367 -43.7694 -43.6682 -43.6287 -43.6080 -43.6063 -43.5923
   -43.5875 -43.5777 -43.5687 -43.5308 -43.5122 -43.4807 -36.9595 -36.8492
   -36.8466 -36.8376 -36.8044 -36.7889 -36.7216 -36.7104 -36.6698 -36.6622
   -36.5655 -36.5560 -36.5304 -36.5264 -36.5103 -36.5060 -36.4379 -36.4339
    -6.2969  -4.2231  -3.7226  -3.5806  -3.4852  -3.4819  -3.3604  -3.1509
    -3.1136  -3.0136  -2.2810  -2.2415  -1.8214  -1.5998  -1.4595  -1.4127
    -1.3395  -1.1668  -1.1369  -1.1321  -1.0031  -0.7166  -0.4287  -0.4019
     0.0393   0.1202   0.3273   0.6814   0.8873   1.1415   1.2094   1.3761
     1.6230   1.9201   2.0924   2.2115   2.4702   2.6157   2.7359   2.8411
     2.8441   2.8478   2.8737   2.8989   2.9492   2.9678   3.0371   3.1269
     3.1471   3.2463   3.4038   3.4695   3.4914   3.6902   3.7221   3.7510

          k = 0.0000 0.0169 0.0000 ( 29277 PWs)   bands (ev):

   -84.8962 -84.8892 -84.3337 -84.3268 -84.2759 -84.2691 -63.0812 -63.0676
   -62.8264 -62.8139 -62.8064 -62.7938 -44.3343 -44.2131 -44.1974 -44.1504
   -44.1485 -44.1369 -43.7660 -43.6648 -43.6278 -43.6079 -43.6063 -43.5914
   -43.5879 -43.5808 -43.5686 -43.5304 -43.5125 -43.4837 -36.9579 -36.8501
   -36.8478 -36.8401 -36.8043 -36.7893 -36.7211 -36.7103 -36.6698 -36.6625
   -36.5638 -36.5544 -36.5311 -36.5273 -36.5112 -36.5069 -36.4405 -36.4366
    -6.2403  -4.1701  -3.6673  -3.5395  -3.4980  -3.4406  -3.3247  -3.1231
    -3.0956  -2.9795  -2.2497  -2.1980  -1.8179  -1.5710  -1.4618  -1.3905
    -1.3327  -1.1649  -1.1607  -1.0350  -1.0274  -0.7159  -0.4522  -0.3987
    -0.0137   0.1245   0.3224   0.7187   0.7544   1.0579   1.2005   1.3370
     1.5975   1.7499   2.0498   2.1552   2.4937   2.5534   2.5586   2.6836
     2.7864   2.8211   2.8567   2.8999   2.9071   2.9805   3.0234   3.1345
     3.1668   3.1918   3.2991   3.3834   3.4746   3.5536   3.5869   3.6864

          k = 0.0000 0.0338 0.0000 ( 29264 PWs)   bands (ev):

   -84.8958 -84.8896 -84.3334 -84.3272 -84.2755 -84.2694 -63.0806 -63.0684
   -62.8258 -62.8146 -62.8058 -62.7946 -44.3243 -44.2108 -44.1967 -44.1593
   -44.1477 -44.1373 -43.7560 -43.6550 -43.6255 -43.6075 -43.6061 -43.5899
   -43.5893 -43.5888 -43.5685 -43.5295 -43.5134 -43.4924 -36.9534 -36.8529
   -36.8524 -36.8464 -36.8040 -36.7907 -36.7196 -36.7100 -36.6697 -36.6632
   -36.5588 -36.5500 -36.5330 -36.5295 -36.5135 -36.5095 -36.4479 -36.4442
    -6.0736  -4.0173  -3.5538  -3.5047  -3.4184  -3.3160  -3.2225  -3.0444
    -3.0415  -2.8805  -2.1857  -2.0692  -1.7757  -1.5107  -1.4713  -1.3452
    -1.2834  -1.1486  -1.1357  -1.0966  -0.8985  -0.6953  -0.4899  -0.3947
    -0.1458   0.1018   0.3412   0.4086   0.7486   0.9240   1.1578   1.2187
     1.3351   1.5234   1.8912   2.0001   2.0015   2.4067   2.4627   2.5232
     2.6976   2.7497   2.8023   2.8110   2.9027   2.9263   3.0202   3.0279
     3.1113   3.1993   3.2268   3.3155   3.3413   3.4591   3.5340   3.6026

          k = 0.0000 0.0507 0.0000 ( 29237 PWs)   bands (ev):

   -84.8952 -84.8901 -84.3328 -84.3278 -84.2749 -84.2700 -63.0795 -63.0696
   -62.8248 -62.8157 -62.8048 -62.7957 -44.3085 -44.2075 -44.1958 -44.1735
   -44.1465 -44.1379 -43.7402 -43.6396 -43.6223 -43.6076 -43.6061 -43.6030
   -43.5913 -43.5853 -43.5686 -43.5280 -43.5148 -43.5064 -36.9459 -36.8628
   -36.8566 -36.8521 -36.8036 -36.7928 -36.7176 -36.7099 -36.6695 -36.6643
   -36.5510 -36.5434 -36.5358 -36.5315 -36.5170 -36.5126 -36.4591 -36.4559
    -5.8067  -3.7845  -3.6777  -3.2455  -3.2247  -3.1397  -3.0665  -2.9626
    -2.9131  -2.7280  -2.1468  -1.8613  -1.6758  -1.4968  -1.4648  -1.3061
    -1.2010  -1.1760  -1.1433  -1.0644  -0.8233  -0.5794  -0.4453  -0.4202
    -0.2851  -0.0232   0.0168   0.3130   0.7055   0.7723   0.8865   1.1004
     1.1052   1.2541   1.4231   1.7565   1.8609   1.9868   2.3944   2.5044
     2.5514   2.5729   2.6665   2.7108   2.8212   2.8246   2.9644   2.9771
     2.9936   3.0529   3.1237   3.2425   3.2882   3.3413   3.4041   3.5358

          k = 0.0000 0.0676 0.0000 ( 29213 PWs)   bands (ev):

   -84.8945 -84.8909 -84.3320 -84.3285 -84.2742 -84.2707 -63.0782 -63.0711
   -62.8236 -62.8171 -62.8036 -62.7971 -44.2881 -44.2048 -44.1953 -44.1915
   -44.1450 -44.1389 -43.7198 -43.6258 -43.6201 -43.6162 -43.6066 -43.6045
   -43.5935 -43.5813 -43.5693 -43.5273 -43.5237 -43.5167 -36.9357 -36.8772
   -36.8600 -36.8567 -36.8028 -36.7952 -36.7153 -36.7099 -36.6692 -36.6656
   -36.5433 -36.5388 -36.5378 -36.5279 -36.5207 -36.5146 -36.4731 -36.4702
    -5.4568  -3.8994  -3.5101  -3.0101  -2.9746  -2.9103  -2.8710  -2.8164
    -2.7545  -2.5451  -2.1494  -1.6371  -1.5852  -1.5468  -1.4616  -1.3140
    -1.3016  -1.1539  -1.0560  -0.9646  -0.7526  -0.5434  -0.4932  -0.3858
    -0.3317  -0.1481  -0.1195   0.1449   0.2668   0.5853   0.6589   0.8583
     0.9886   1.1039   1.3520   1.3529   1.7849   1.8011   2.0054   2.2921
     2.3600   2.4985   2.5827   2.6286   2.7158   2.7390   2.8736   2.8854
     2.8990   3.0021   3.0441   3.0535   3.1164   3.2386   3.2421   3.4459

          k = 0.0000 0.0845 0.0000 ( 29224 PWs)   bands (ev):

   -84.8936 -84.8917 -84.3312 -84.3294 -84.2734 -84.2716 -63.0765 -63.0729
   -62.8221 -62.8187 -62.8021 -62.7987 -44.2648 -44.2165 -44.1987 -44.1955
   -44.1434 -44.1402 -43.6963 -43.6472 -43.6133 -43.6081 -43.6027 -43.6014
   -43.5921 -43.5776 -43.5705 -43.5467 -43.5236 -43.5189 -36.9231 -36.8930
   -36.8621 -36.8603 -36.8016 -36.7977 -36.7133 -36.7105 -36.6687 -36.6669
   -36.5423 -36.5411 -36.5309 -36.5240 -36.5170 -36.5117 -36.4884 -36.4857
    -5.0504  -4.2246  -3.2520  -2.9887  -2.7022  -2.7005  -2.6383  -2.6056
    -2.5146  -2.3733  -2.2119  -1.7508  -1.6114  -1.5751  -1.4085  -1.3463
    -1.2361  -1.1502  -0.9875  -0.8961  -0.6865  -0.6584  -0.5839  -0.3532
    -0.3210  -0.2847  -0.0298  -0.0194   0.0700   0.2609   0.4268   0.8596
     0.9285   1.0493   1.1168   1.3137   1.5159   1.7149   1.7610   2.0041
     2.2846   2.4605   2.5013   2.5401   2.5863   2.5980   2.7056   2.8254
     2.8478   2.9005   2.9942   3.0366   3.0635   3.1531   3.1837   3.3539

          k = 0.0000-0.1014 0.0000 ( 29174 PWs)   bands (ev):

   -84.8927 -84.8927 -84.3303 -84.3303 -84.2725 -84.2724 -63.0748 -63.0747
   -62.8205 -62.8203 -62.8004 -62.8004 -44.2402 -44.2402 -44.1968 -44.1968
   -44.1417 -44.1417 -43.6716 -43.6715 -43.6103 -43.6102 -43.6006 -43.6006
   -43.5765 -43.5764 -43.5679 -43.5679 -43.5213 -43.5213 -36.9086 -36.9086
   -36.8622 -36.8622 -36.7998 -36.7998 -36.7116 -36.7115 -36.6680 -36.6678
   -36.5424 -36.5421 -36.5268 -36.5268 -36.5035 -36.5034 -36.5007 -36.5006
    -4.6241  -4.6241  -3.0687  -3.0686  -2.6034  -2.6033  -2.5084  -2.5084
    -2.3327  -2.3327  -2.0765  -2.0764  -1.6352  -1.6352  -1.4061  -1.4060
    -1.0907  -1.0906  -0.8556  -0.8556  -0.7819  -0.7818  -0.5011  -0.5010
    -0.3684  -0.3683  -0.1049  -0.1048   0.2258   0.2259   0.6161   0.6161
     0.9549   0.9550   1.0930   1.0930   1.5841   1.5842   1.8129   1.8130
     2.2769   2.2769   2.4976   2.4977   2.6198   2.6198   2.6720   2.6720
     2.8628   2.8628   3.0000   3.0000   3.1108   3.1110   3.2222   3.2223

          k = 0.0159-0.0056 0.0000 ( 29277 PWs)   bands (ev):

   -84.8962 -84.8892 -84.3337 -84.3268 -84.2759 -84.2691 -63.0812 -63.0676
   -62.8264 -62.8139 -62.8064 -62.7938 -44.3343 -44.2131 -44.1974 -44.1504
   -44.1485 -44.1369 -43.7660 -43.6648 -43.6278 -43.6079 -43.6063 -43.5914
   -43.5879 -43.5808 -43.5686 -43.5304 -43.5125 -43.4837 -36.9579 -36.8501
   -36.8478 -36.8401 -36.8043 -36.7893 -36.7211 -36.7103 -36.6698 -36.6625
   -36.5638 -36.5544 -36.5311 -36.5273 -36.5112 -36.5069 -36.4405 -36.4366
    -6.2403  -4.1701  -3.6673  -3.5395  -3.4980  -3.4406  -3.3247  -3.1231
    -3.0956  -2.9795  -2.2497  -2.1980  -1.8179  -1.5710  -1.4618  -1.3905
    -1.3327  -1.1649  -1.1607  -1.0350  -1.0274  -0.7159  -0.4522  -0.3987
    -0.0137   0.1245   0.3224   0.7187   0.7544   1.0579   1.2005   1.3370
     1.5975   1.7499   2.0498   2.1552   2.4937   2.5534   2.5586   2.6836
     2.7864   2.8212   2.8567   2.8999   2.9071   2.9805   3.0234   3.1345
     3.1668   3.1917   3.2991   3.3834   3.4745   3.5535   3.5864   3.6864

          k = 0.0159 0.0113 0.0000 ( 29273 PWs)   bands (ev):

   -84.8963 -84.8891 -84.3338 -84.3267 -84.2760 -84.2690 -63.0815 -63.0674
   -62.8266 -62.8137 -62.8066 -62.7936 -44.3370 -44.2128 -44.1966 -44.1490
   -44.1471 -44.1362 -43.7687 -43.6673 -43.6274 -43.6084 -43.6056 -43.5909
   -43.5882 -43.5776 -43.5680 -43.5306 -43.5122 -43.4806 -36.9610 -36.8504
   -36.8500 -36.8380 -36.8043 -36.7900 -36.7208 -36.7097 -36.6702 -36.6624
   -36.5670 -36.5574 -36.5321 -36.5277 -36.5124 -36.5075 -36.4384 -36.4343
    -6.2234  -4.1710  -3.6821  -3.5314  -3.4772  -3.4400  -3.3136  -3.1013
    -3.0664  -2.9846  -2.2443  -2.1973  -1.8611  -1.5289  -1.4206  -1.3963
    -1.3664  -1.1807  -1.1109  -1.0302  -0.9856  -0.7146  -0.3958  -0.3416
     0.0358   0.1736   0.3257   0.6590   0.8381   1.1012   1.2251   1.3653
     1.5320   1.8520   1.9498   2.0781   2.4520   2.4815   2.5499   2.6629
     2.7333   2.7544   2.8225   2.8545   2.9383   2.9660   3.0490   3.1025
     3.1924   3.2203   3.3822   3.4120   3.4724   3.5513   3.5616   3.6942

          k = 0.0159 0.0281 0.0000 ( 29270 PWs)   bands (ev):

   -84.8962 -84.8892 -84.3337 -84.3268 -84.2759 -84.2691 -63.0813 -63.0677
   -62.8265 -62.8139 -62.8065 -62.7939 -44.3329 -44.2110 -44.1953 -44.1500
   -44.1490 -44.1359 -43.7646 -43.6632 -43.6255 -43.6084 -43.6050 -43.5892
   -43.5888 -43.5806 -43.5675 -43.5301 -43.5126 -43.4834 -36.9609 -36.8544
   -36.8524 -36.8407 -36.8042 -36.7915 -36.7197 -36.7089 -36.6705 -36.6627
   -36.5667 -36.5573 -36.5344 -36.5296 -36.5152 -36.5099 -36.4412 -36.4373
    -6.0955  -4.0707  -3.5949  -3.5161  -3.4382  -3.3334  -3.2331  -3.0257
    -3.0034  -2.9228  -2.1964  -2.1111  -1.8615  -1.4635  -1.4308  -1.3437
    -1.3230  -1.1861  -1.0910  -0.9928  -0.9083  -0.7027  -0.3718  -0.2872
    -0.0244   0.1891   0.3560   0.6656   0.6745   0.9962   1.2155   1.3152
     1.4253   1.6244   1.7990   1.9262   2.2282   2.4047   2.4217   2.4498
     2.6161   2.6868   2.7414   2.8325   2.8364   2.9430   3.0124   3.0951
     3.1292   3.2176   3.2526   3.2935   3.3880   3.5102   3.5388   3.6473

          k = 0.0159 0.0450 0.0000 ( 29223 PWs)   bands (ev):

   -84.8958 -84.8896 -84.3334 -84.3272 -84.2755 -84.2694 -63.0807 -63.0685
   -62.8259 -62.8146 -62.8060 -62.7946 -44.3224 -44.2082 -44.1940 -44.1589
   -44.1484 -44.1359 -43.7541 -43.6530 -43.6225 -43.6078 -43.6046 -43.5909
   -43.5896 -43.5856 -43.5673 -43.5290 -43.5136 -43.4922 -36.9574 -36.8608
   -36.8554 -36.8470 -36.8038 -36.7935 -36.7181 -36.7083 -36.6707 -36.6634
   -36.5628 -36.5540 -36.5374 -36.5320 -36.5188 -36.5129 -36.4485 -36.4449
    -5.8638  -3.8841  -3.6173  -3.4145  -3.2623  -3.1683  -3.0856  -2.9153
    -2.9020  -2.8039  -2.1632  -1.9454  -1.7974  -1.4243  -1.3876  -1.3303
    -1.2276  -1.1794  -1.0477  -1.0439  -0.8303  -0.5924  -0.3223  -0.2882
    -0.1234   0.1048   0.3118   0.4399   0.6841   0.8621   1.1337   1.1423
     1.2358   1.3570   1.5631   1.7323   1.8044   2.0452   2.3470   2.4240
     2.4838   2.5554   2.5960   2.6544   2.7200   2.8750   2.8787   3.0120
     3.1139   3.1172   3.1356   3.1790   3.2688   3.2949   3.4177   3.5726

          k = 0.0159 0.0619 0.0000 ( 29235 PWs)   bands (ev):

   -84.8952 -84.8902 -84.3328 -84.3278 -84.2749 -84.2700 -63.0797 -63.0697
   -62.8250 -62.8157 -62.8050 -62.7957 -44.3064 -44.2051 -44.1931 -44.1732
   -44.1474 -44.1364 -43.7381 -43.6374 -43.6195 -43.6075 -43.6048 -43.6026
   -43.5929 -43.5820 -43.5676 -43.5275 -43.5151 -43.5064 -36.9503 -36.8691
   -36.8585 -36.8549 -36.8031 -36.7959 -36.7163 -36.7083 -36.6706 -36.6644
   -36.5558 -36.5483 -36.5406 -36.5333 -36.5224 -36.5156 -36.4593 -36.4562
    -5.5420  -3.8019  -3.6402  -3.1575  -3.0119  -3.0076  -2.8773  -2.8120
    -2.7444  -2.6488  -2.1600  -1.7373  -1.7115  -1.4167  -1.3651  -1.3455
    -1.1848  -1.1353  -1.1081  -0.9731  -0.7845  -0.4232  -0.3862  -0.2574
    -0.1437  -0.0265  -0.0026   0.3528   0.5851   0.6179   0.8829   0.9811
     1.0860   1.1212   1.3575   1.3624   1.7336   1.7595   2.0175   2.3014
     2.3061   2.3797   2.4393   2.4926   2.6072   2.8049   2.8095   2.8328
     2.9317   3.0351   3.1028   3.1203   3.1496   3.2208   3.2672   3.4045

          k = 0.0159 0.0788 0.0000 ( 29212 PWs)   bands (ev):

   -84.8945 -84.8909 -84.3321 -84.3285 -84.2742 -84.2707 -63.0783 -63.0712
   -62.8237 -62.8171 -62.8038 -62.7970 -44.2862 -44.2034 -44.1931 -44.1910
   -44.1461 -44.1373 -43.7178 -43.6261 -43.6181 -43.6136 -43.6059 -43.6040
   -43.5948 -43.5784 -43.5689 -43.5270 -43.5237 -43.5171 -36.9398 -36.8798
   -36.8616 -36.8605 -36.8019 -36.7981 -36.7145 -36.7087 -36.6702 -36.6654
   -36.5471 -36.5429 -36.5422 -36.5296 -36.5251 -36.5166 -36.4727 -36.4699
    -5.1519  -4.0854  -3.3850  -2.9077  -2.8555  -2.7111  -2.7077  -2.6429
    -2.5880  -2.4907  -2.1933  -1.7380  -1.4785  -1.4336  -1.4259  -1.3907
    -1.2187  -1.2090  -1.0048  -0.8954  -0.6934  -0.5812  -0.4919  -0.2421
    -0.1840  -0.1225   0.0994   0.1663   0.2431   0.3729   0.3793   0.9382
     1.0318   1.0807   1.0976   1.3191   1.5136   1.6450   1.6901   2.0063
     2.2033   2.3432   2.4072   2.4299   2.4905   2.5955   2.7893   2.8174
     2.8426   2.8753   2.9750   3.0017   3.1091   3.2069   3.2517   3.3713

          k = 0.0159-0.1070 0.0000 ( 29218 PWs)   bands (ev):

   -84.8936 -84.8918 -84.3312 -84.3293 -84.2734 -84.2716 -63.0766 -63.0729
   -62.8222 -62.8186 -62.8022 -62.7986 -44.2632 -44.2171 -44.1977 -44.1944
   -44.1446 -44.1386 -43.6946 -43.6480 -43.6115 -43.6082 -43.6018 -43.6014
   -43.5916 -43.5754 -43.5709 -43.5475 -43.5231 -43.5193 -36.9262 -36.8925
   -36.8654 -36.8609 -36.8001 -36.8001 -36.7131 -36.7099 -36.6694 -36.6663
   -36.5439 -36.5430 -36.5334 -36.5263 -36.5191 -36.5138 -36.4875 -36.4848
    -4.7246  -4.4535  -3.1743  -2.9223  -2.6264  -2.6115  -2.5219  -2.5099
    -2.3948  -2.2961  -2.2803  -1.7789  -1.6549  -1.5310  -1.5005  -1.2416
    -1.2250  -1.0630  -0.9718  -0.8811  -0.7086  -0.6433  -0.5494  -0.4394
    -0.3780  -0.2462  -0.0815  -0.0010   0.1990   0.2265   0.5764   0.6349
     0.9144   0.9666   1.0409   1.1458   1.5614   1.5623   1.7815   1.7857
     2.2014   2.3312   2.3893   2.4443   2.5000   2.5839   2.7381   2.7844
     2.8094   2.8521   2.9053   3.0240   3.1095   3.1803   3.2115   3.3450

          k = 0.0159-0.0901 0.0000 ( 29223 PWs)   bands (ev):

   -84.8927 -84.8927 -84.3303 -84.3303 -84.2725 -84.2724 -63.0748 -63.0747
   -62.8206 -62.8202 -62.8005 -62.8003 -44.2412 -44.2390 -44.1970 -44.1969
   -44.1431 -44.1403 -43.6727 -43.6702 -43.6115 -43.6095 -43.6013 -43.5994
   -43.5768 -43.5757 -43.5687 -43.5679 -43.5217 -43.5208 -36.9100 -36.9063
   -36.8659 -36.8595 -36.8017 -36.7980 -36.7122 -36.7117 -36.6683 -36.6671
   -36.5430 -36.5410 -36.5259 -36.5255 -36.5057 -36.5032 -36.5028 -36.4995
    -4.8667  -4.3034  -3.0608  -3.0490  -2.6765  -2.6272  -2.6018  -2.5804
    -2.3958  -2.1729  -2.0213  -1.9483  -1.7454  -1.5761  -1.5255  -1.2052
    -1.1025  -1.0647  -1.0021  -0.8182  -0.7394  -0.6740  -0.6276  -0.5144
    -0.4472  -0.3933  -0.1659  -0.1182   0.0752   0.2365   0.4153   0.7566
     0.8013   0.9441   1.0884   1.3328   1.4895   1.7234   1.7369   2.0012
     2.3614   2.4094   2.4742   2.5008   2.6152   2.6289   2.6921   2.7149
     2.8237   2.9063   2.9550   3.1227   3.1560   3.2001   3.2395   3.3065

          k = 0.0159-0.0732 0.0000 ( 29216 PWs)   bands (ev):

   -84.8936 -84.8917 -84.3312 -84.3294 -84.2734 -84.2715 -63.0765 -63.0729
   -62.8219 -62.8188 -62.8019 -62.7988 -44.2661 -44.2154 -44.2001 -44.1967
   -44.1422 -44.1415 -43.6977 -43.6462 -43.6155 -43.6082 -43.6029 -43.6011
   -43.5923 -43.5794 -43.5704 -43.5463 -43.5240 -43.5185 -36.9198 -36.8925
   -36.8638 -36.8567 -36.8028 -36.7954 -36.7140 -36.7116 -36.6677 -36.6669
   -36.5404 -36.5385 -36.5264 -36.5206 -36.5165 -36.5120 -36.4903 -36.4872
    -5.2783  -3.9401  -3.3034  -3.0133  -2.8744  -2.8659  -2.7489  -2.7254
    -2.6595  -2.3182  -2.0551  -1.7048  -1.6539  -1.5286  -1.4880  -1.3468
    -1.1724  -1.0877  -0.9883  -0.9049  -0.7736  -0.6540  -0.6409  -0.5139
    -0.4697  -0.2443  -0.1995  -0.0350   0.0127   0.1690   0.6300   0.7886
     0.8328   1.1277   1.1922   1.3201   1.7550   1.8462   1.9187   2.2714
     2.4260   2.5625   2.5794   2.6554   2.6736   2.7137   2.7709   2.8588
     2.9382   2.9611   2.9913   3.1121   3.1611   3.2428   3.3223   3.4153

          k = 0.0159-0.0563 0.0000 ( 29217 PWs)   bands (ev):

   -84.8945 -84.8909 -84.3320 -84.3285 -84.2742 -84.2707 -63.0781 -63.0711
   -62.8234 -62.8171 -62.8034 -62.7971 -44.2895 -44.2054 -44.1969 -44.1922
   -44.1442 -44.1401 -43.7212 -43.6248 -43.6213 -43.6191 -43.6074 -43.6044
   -43.5923 -43.5836 -43.5697 -43.5276 -43.5237 -43.5164 -36.9323 -36.8750
   -36.8599 -36.8532 -36.8035 -36.7930 -36.7164 -36.7113 -36.6683 -36.6654
   -36.5387 -36.5357 -36.5341 -36.5279 -36.5167 -36.5142 -36.4740 -36.4708
    -5.6474  -3.6792  -3.5942  -3.1205  -3.1093  -3.0356  -3.0068  -2.9396
    -2.8695  -2.5667  -2.0405  -1.7026  -1.6422  -1.5629  -1.5110  -1.3608
    -1.1946  -1.0883  -1.0701  -1.0047  -0.8045  -0.6466  -0.5371  -0.5233
    -0.4490  -0.3883  -0.0315   0.1146   0.3498   0.6188   0.7220   0.9335
     0.9390   1.0642   1.4526   1.6362   1.8177   1.9551   2.3923   2.4097
     2.5309   2.6187   2.6846   2.6982   2.7603   2.8484   2.9123   2.9405
     3.0302   3.0643   3.1172   3.1435   3.2088   3.3614   3.4082   3.4866

          k = 0.0159-0.0394 0.0000 ( 29248 PWs)   bands (ev):

   -84.8953 -84.8901 -84.3328 -84.3278 -84.2749 -84.2700 -63.0795 -63.0695
   -62.8247 -62.8157 -62.8047 -62.7957 -44.3097 -44.2089 -44.1974 -44.1738
   -44.1460 -44.1388 -43.7414 -43.6408 -43.6240 -43.6075 -43.6070 -43.6030
   -43.5902 -43.5874 -43.5693 -43.5283 -43.5146 -43.5065 -36.9432 -36.8594
   -36.8556 -36.8500 -36.8039 -36.7910 -36.7187 -36.7111 -36.6688 -36.6641
   -36.5479 -36.5401 -36.5332 -36.5312 -36.5135 -36.5111 -36.4592 -36.4558
    -5.9433  -3.8644  -3.5321  -3.3500  -3.3024  -3.2920  -3.1455  -3.0505
    -3.0022  -2.7651  -2.0913  -1.9438  -1.6973  -1.5831  -1.5123  -1.2552
    -1.2298  -1.1803  -1.1215  -1.1029  -0.8162  -0.7063  -0.6362  -0.4893
    -0.2989   0.0055   0.0599   0.2552   0.6394   0.8591   0.9619   1.0880
     1.1032   1.4060   1.5595   1.9522   2.0208   2.1488   2.4453   2.6010
     2.7040   2.7211   2.7778   2.8196   2.8852   2.9416   2.9667   3.0065
     3.0478   3.0905   3.1458   3.2643   3.2801   3.4665   3.4759   3.5653

          k = 0.0159-0.0225 0.0000 ( 29299 PWs)   bands (ev):

   -84.8958 -84.8896 -84.3334 -84.3272 -84.2755 -84.2694 -63.0805 -63.0683
   -62.8257 -62.8146 -62.8057 -62.7946 -44.3250 -44.2117 -44.1977 -44.1595
   -44.1474 -44.1378 -43.7567 -43.6557 -43.6266 -43.6072 -43.6067 -43.5902
   -43.5899 -43.5887 -43.5690 -43.5296 -43.5133 -43.4925 -36.9519 -36.8521
   -36.8480 -36.8474 -36.8042 -36.7897 -36.7203 -36.7108 -36.6693 -36.6631
   -36.5572 -36.5485 -36.5315 -36.5287 -36.5116 -36.5083 -36.4476 -36.4440
    -6.1451  -4.0649  -3.5497  -3.4816  -3.4625  -3.4210  -3.2657  -3.0893
    -3.0892  -2.9051  -2.1865  -2.1124  -1.7691  -1.5611  -1.5247  -1.3338
    -1.2446  -1.2004  -1.1314  -1.1122  -0.9407  -0.7206  -0.5524  -0.4476
    -0.1397   0.0960   0.3034   0.4437   0.7547   0.9511   1.1545   1.2345
     1.3717   1.6068   2.0598   2.0954   2.1080   2.5312   2.5338   2.5560
     2.7906   2.8201   2.8214   2.8740   2.9326   2.9527   3.0105   3.0270
     3.0932   3.1862   3.3475   3.3486   3.4114   3.4634   3.4791   3.5370

          k = 0.0318-0.0113 0.0000 ( 29264 PWs)   bands (ev):

   -84.8958 -84.8896 -84.3334 -84.3272 -84.2755 -84.2694 -63.0806 -63.0684
   -62.8258 -62.8146 -62.8058 -62.7946 -44.3243 -44.2108 -44.1967 -44.1593
   -44.1477 -44.1373 -43.7560 -43.6550 -43.6255 -43.6075 -43.6061 -43.5899
   -43.5893 -43.5888 -43.5685 -43.5295 -43.5134 -43.4924 -36.9534 -36.8529
   -36.8524 -36.8464 -36.8040 -36.7907 -36.7196 -36.7100 -36.6697 -36.6632
   -36.5588 -36.5500 -36.5330 -36.5295 -36.5135 -36.5095 -36.4479 -36.4442
    -6.0736  -4.0173  -3.5538  -3.5047  -3.4184  -3.3160  -3.2225  -3.0444
    -3.0415  -2.8805  -2.1857  -2.0692  -1.7757  -1.5107  -1.4713  -1.3452
    -1.2834  -1.1486  -1.1357  -1.0966  -0.8985  -0.6953  -0.4899  -0.3947
    -0.1458   0.1018   0.3412   0.4086   0.7486   0.9240   1.1578   1.2187
     1.3351   1.5234   1.8912   2.0001   2.0015   2.4067   2.4627   2.5232
     2.6976   2.7498   2.8023   2.8109   2.9027   2.9263   3.0202   3.0279
     3.1114   3.1993   3.2268   3.3155   3.3412   3.4591   3.5342   3.6025

          k = 0.0318 0.0056 0.0000 ( 29270 PWs)   bands (ev):

   -84.8962 -84.8892 -84.3337 -84.3268 -84.2759 -84.2691 -63.0813 -63.0677
   -62.8265 -62.8139 -62.8065 -62.7939 -44.3329 -44.2110 -44.1953 -44.1500
   -44.1490 -44.1359 -43.7646 -43.6632 -43.6255 -43.6084 -43.6050 -43.5892
   -43.5888 -43.5806 -43.5675 -43.5301 -43.5126 -43.4834 -36.9609 -36.8544
   -36.8524 -36.8407 -36.8042 -36.7915 -36.7197 -36.7089 -36.6705 -36.6627
   -36.5667 -36.5573 -36.5344 -36.5296 -36.5152 -36.5099 -36.4412 -36.4373
    -6.0955  -4.0707  -3.5949  -3.5161  -3.4382  -3.3334  -3.2331  -3.0257
    -3.0034  -2.9228  -2.1964  -2.1111  -1.8615  -1.4635  -1.4308  -1.3437
    -1.3230  -1.1861  -1.0910  -0.9928  -0.9083  -0.7027  -0.3718  -0.2872
    -0.0244   0.1891   0.3560   0.6656   0.6745   0.9962   1.2155   1.3152
     1.4253   1.6244   1.7990   1.9262   2.2282   2.4047   2.4217   2.4498
     2.6161   2.6868   2.7414   2.8325   2.8364   2.9430   3.0124   3.0951
     3.1292   3.2176   3.2526   3.2934   3.3880   3.5102   3.5388   3.6473

          k = 0.0318 0.0225 0.0000 ( 29261 PWs)   bands (ev):

   -84.8963 -84.8891 -84.3338 -84.3267 -84.2760 -84.2690 -63.0816 -63.0675
   -62.8268 -62.8137 -62.8068 -62.7936 -44.3349 -44.2097 -44.1935 -44.1497
   -44.1466 -44.1348 -43.7666 -43.6651 -43.6240 -43.6088 -43.6038 -43.5898
   -43.5873 -43.5773 -43.5665 -43.5301 -43.5124 -43.4802 -36.9653 -36.8591
   -36.8538 -36.8392 -36.8042 -36.7929 -36.7191 -36.7078 -36.6712 -36.6626
   -36.5711 -36.5615 -36.5370 -36.5313 -36.5182 -36.5119 -36.4396 -36.4354
    -6.0081  -4.0255  -3.5963  -3.4652  -3.3707  -3.3075  -3.1795  -2.9596
    -2.9271  -2.8905  -2.1477  -2.0686  -1.9127  -1.4789  -1.3974  -1.2998
    -1.2158  -1.2095  -1.0441  -0.9300  -0.8243  -0.7234  -0.2889  -0.1768
     0.0131   0.3076   0.3258   0.6034   0.6994   0.9731   1.2709   1.2765
     1.3188   1.6400   1.6484   1.7933   2.0934   2.2717   2.3296   2.3741
     2.5041   2.6203   2.7620   2.7645   2.7893   2.7975   2.9493   2.9982
     3.1230   3.1617   3.2660   3.2744   3.3869   3.4697   3.4881   3.5399

          k = 0.0318 0.0394 0.0000 ( 29253 PWs)   bands (ev):

   -84.8961 -84.8892 -84.3337 -84.3268 -84.2758 -84.2691 -63.0815 -63.0678
   -62.8267 -62.8139 -62.8068 -62.7939 -44.3303 -44.2074 -44.1917 -44.1498
   -44.1494 -44.1342 -43.7621 -43.6606 -43.6216 -43.6085 -43.6029 -43.5910
   -43.5847 -43.5802 -43.5658 -43.5295 -43.5129 -43.4830 -36.9660 -36.8651
   -36.8564 -36.8420 -36.8041 -36.7949 -36.7181 -36.7070 -36.6716 -36.6628
   -36.5717 -36.5621 -36.5404 -36.5338 -36.5219 -36.5149 -36.4425 -36.4385
    -5.8163  -3.8928  -3.5154  -3.5118  -3.2207  -3.1646  -3.0628  -2.8523
    -2.8244  -2.7874  -2.1092  -1.9474  -1.8921  -1.4860  -1.3279  -1.2438
    -1.2211  -1.0971  -0.9923  -0.9189  -0.7916  -0.6262  -0.2102  -0.1472
    -0.0106   0.2137   0.4799   0.5048   0.5893   0.8535   1.0987   1.2525
     1.3343   1.3566   1.4814   1.6819   1.7728   1.9939   2.2634   2.2821
     2.3690   2.5041   2.5247   2.5874   2.6437   2.7975   2.8716   2.9060
     2.9733   3.0495   3.1710   3.2813   3.3053   3.3266   3.3393   3.6062

          k = 0.0318 0.0563 0.0000 ( 29255 PWs)   bands (ev):

   -84.8958 -84.8896 -84.3334 -84.3272 -84.2755 -84.2694 -63.0809 -63.0686
   -62.8262 -62.8146 -62.8062 -62.7946 -44.3198 -44.2047 -44.1903 -44.1584
   -44.1494 -44.1341 -43.7515 -43.6502 -43.6187 -43.6076 -43.6028 -43.5926
   -43.5892 -43.5815 -43.5658 -43.5284 -43.5139 -43.4919 -36.9628 -36.8713
   -36.8591 -36.8485 -36.8036 -36.7970 -36.7168 -36.7067 -36.6716 -36.6633
   -36.5681 -36.5592 -36.5437 -36.5361 -36.5255 -36.5178 -36.4496 -36.4459
    -5.5309  -3.6937  -3.6581  -3.3531  -2.9967  -2.9856  -2.8840  -2.7136
    -2.7082  -2.6347  -2.1094  -1.8335  -1.7620  -1.4863  -1.2790  -1.2630
    -1.1038  -1.0521  -0.9595  -0.9323  -0.8117  -0.4169  -0.2965  -0.1074
     0.0078   0.1021   0.1952   0.4517   0.5683   0.8171   0.8953   1.0354
     1.1597   1.2539   1.2866   1.3891   1.6177   1.7255   1.9398   2.1963
     2.2275   2.2675   2.3378   2.3685   2.4977   2.6309   2.7934   2.8322
     2.9031   2.9832   3.0344   3.1282   3.2331   3.2399   3.2993   3.4658

          k = 0.0318 0.0732 0.0000 ( 29236 PWs)   bands (ev):

   -84.8952 -84.8902 -84.3328 -84.3277 -84.2749 -84.2700 -63.0798 -63.0698
   -62.8252 -62.8157 -62.8053 -62.7956 -44.3040 -44.2021 -44.1900 -44.1730
   -44.1485 -44.1346 -43.7356 -43.6348 -43.6164 -43.6072 -43.6036 -43.6022
   -43.5944 -43.5783 -43.5667 -43.5268 -43.5155 -43.5064 -36.9552 -36.8766
   -36.8610 -36.8577 -36.8026 -36.7991 -36.7156 -36.7070 -36.6713 -36.6638
   -36.5604 -36.5529 -36.5462 -36.5368 -36.5279 -36.5197 -36.4600 -36.4567
    -5.1688  -3.8955  -3.4624  -3.1473  -2.8317  -2.7148  -2.6730  -2.6157
    -2.5396  -2.4667  -2.1346  -1.8088  -1.5395  -1.5354  -1.3167  -1.2272
    -1.1124  -1.0230  -1.0019  -0.8850  -0.7638  -0.4563  -0.3006  -0.1744
    -0.1440   0.0328   0.2178   0.2965   0.3944   0.4119   0.6453   0.9059
     1.0558   1.0612   1.1215   1.3073   1.5003   1.5580   1.5683   2.0151
     2.1069   2.1879   2.2245   2.2982   2.3184   2.6075   2.6283   2.6804
     2.8610   2.9453   3.0670   3.0840   3.1247   3.1311   3.3136   3.3433

          k = 0.0318-0.1126 0.0000 ( 29215 PWs)   bands (ev):

   -84.8944 -84.8909 -84.3321 -84.3285 -84.2742 -84.2707 -63.0784 -63.0713
   -62.8239 -62.8170 -62.8040 -62.7970 -44.2841 -44.2013 -44.1913 -44.1910
   -44.1472 -44.1357 -43.7157 -43.6259 -43.6158 -43.6118 -43.6056 -43.6031
   -43.5960 -43.5755 -43.5687 -43.5269 -43.5237 -43.5174 -36.9436 -36.8817
   -36.8669 -36.8615 -36.8010 -36.8008 -36.7145 -36.7081 -36.6705 -36.6645
   -36.5493 -36.5471 -36.5451 -36.5334 -36.5285 -36.5199 -36.4729 -36.4700
    -4.7552  -4.2234  -3.2456  -2.9595  -2.7542  -2.5542  -2.4922  -2.4103
    -2.4069  -2.2819  -2.2083  -1.8182  -1.6395  -1.3510  -1.3211  -1.3068
    -1.2196  -1.0546  -0.9436  -0.8541  -0.7166  -0.5692  -0.5121  -0.3599
    -0.1623  -0.1447   0.0134   0.1812   0.1832   0.2599   0.5109   0.6430
     0.8697   0.9674   0.9906   1.1705   1.4737   1.4953   1.6851   1.7737
     2.1117   2.2122   2.2215   2.3832   2.3898   2.4753   2.6722   2.7512
     2.8362   2.8945   2.9445   2.9935   3.1376   3.2437   3.2987   3.3173

          k = 0.0318-0.0958 0.0000 ( 29220 PWs)   bands (ev):

   -84.8936 -84.8918 -84.3312 -84.3293 -84.2734 -84.2716 -63.0767 -63.0730
   -62.8223 -62.8186 -62.8024 -62.7986 -44.2616 -44.2171 -44.1974 -44.1935
   -44.1457 -44.1373 -43.6930 -43.6484 -43.6104 -43.6088 -43.6011 -43.6007
   -43.5908 -43.5733 -43.5717 -43.5485 -43.5226 -43.5197 -36.9283 -36.8907
   -36.8711 -36.8604 -36.8021 -36.7989 -36.7137 -36.7099 -36.6695 -36.6653
   -36.5460 -36.5424 -36.5335 -36.5271 -36.5224 -36.5176 -36.4877 -36.4845
    -4.6119  -4.3269  -3.0908  -2.9008  -2.8235  -2.5385  -2.4964  -2.4370
    -2.2949  -2.1282  -1.9962  -1.8524  -1.7253  -1.5868  -1.4200  -1.2689
    -1.0456  -0.9658  -0.9543  -0.8918  -0.7154  -0.6485  -0.5894  -0.5665
    -0.4781  -0.3926  -0.1561  -0.1064   0.1922   0.2405   0.3307   0.6360
     0.6692   0.8148   1.0456   1.3749   1.4163   1.6199   1.6541   1.9615
     2.2719   2.2858   2.3479   2.4345   2.5389   2.6343   2.7233   2.7667
     2.8175   2.8314   2.9651   3.0927   3.2151   3.2585   3.3244   3.3519

          k = 0.0318-0.0789 0.0000 ( 29185 PWs)   bands (ev):

   -84.8927 -84.8926 -84.3303 -84.3303 -84.2725 -84.2724 -63.0748 -63.0747
   -62.8206 -62.8202 -62.8006 -62.8002 -44.2417 -44.2378 -44.1973 -44.1972
   -44.1440 -44.1393 -43.6734 -43.6691 -43.6128 -43.6092 -43.6014 -43.5983
   -43.5767 -43.5745 -43.5701 -43.5683 -43.5220 -43.5204 -36.9105 -36.9035
   -36.8694 -36.8579 -36.8030 -36.7965 -36.7130 -36.7122 -36.6681 -36.6661
   -36.5430 -36.5394 -36.5239 -36.5223 -36.5094 -36.5058 -36.5034 -36.4994
    -5.0170  -3.9354  -3.0328  -3.0205  -2.9961  -2.7092  -2.6204  -2.5965
    -2.4565  -1.9692  -1.9079  -1.8306  -1.7162  -1.6871  -1.4539  -1.1306
    -1.1051  -1.0272  -1.0153  -0.8206  -0.7700  -0.6961  -0.6783  -0.6220
    -0.5477  -0.4619  -0.3450  -0.0833  -0.0339  -0.0007   0.5161   0.6822
     0.6883   0.9347   1.1654   1.2818   1.6343   1.7843   1.7963   2.2402
     2.3793   2.4545   2.5232   2.5894   2.6279   2.7674   2.7733   2.7897
     2.7965   2.8865   3.0295   3.1907   3.2667   3.3648   3.4171   3.4630

          k = 0.0318-0.0620 0.0000 ( 29176 PWs)   bands (ev):

   -84.8937 -84.8917 -84.3312 -84.3294 -84.2734 -84.2715 -63.0765 -63.0729
   -62.8219 -62.8188 -62.8018 -62.7988 -44.2667 -44.2143 -44.2014 -44.1974
   -44.1423 -44.1416 -43.6984 -43.6455 -43.6171 -43.6083 -43.6028 -43.6010
   -43.5922 -43.5805 -43.5705 -43.5462 -43.5242 -43.5183 -36.9175 -36.8918
   -36.8651 -36.8548 -36.8035 -36.7941 -36.7146 -36.7124 -36.6669 -36.6666
   -36.5389 -36.5367 -36.5214 -36.5177 -36.5175 -36.5138 -36.4922 -36.4884
    -5.3953  -3.6434  -3.3261  -3.1601  -3.0109  -2.9495  -2.8042  -2.7746
    -2.7358  -2.3101  -1.8677  -1.7648  -1.5932  -1.5925  -1.4023  -1.3870
    -1.1329  -1.0316  -0.9762  -0.8802  -0.8643  -0.7362  -0.7030  -0.6419
    -0.5900  -0.4262  -0.1456  -0.0105   0.0258   0.1745   0.5119   0.7704
     0.8784   1.0734   1.3069   1.4345   1.6927   1.9465   2.1573   2.4625
     2.4827   2.5385   2.5779   2.6783   2.7163   2.7372   2.8664   2.8995
     2.9432   3.0357   3.0970   3.2094   3.2943   3.3188   3.4542   3.6130

          k = 0.0318-0.0451 0.0000 ( 29225 PWs)   bands (ev):

   -84.8945 -84.8908 -84.3320 -84.3285 -84.2742 -84.2707 -63.0781 -63.0711
   -62.8234 -62.8171 -62.8034 -62.7971 -44.2900 -44.2056 -44.1976 -44.1925
   -44.1439 -44.1406 -43.7217 -43.6237 -43.6218 -43.6210 -43.6077 -43.6042
   -43.5918 -43.5845 -43.5699 -43.5277 -43.5237 -43.5163 -36.9310 -36.8742
   -36.8600 -36.8520 -36.8038 -36.7922 -36.7169 -36.7118 -36.6679 -36.6653
   -36.5348 -36.5347 -36.5344 -36.5278 -36.5150 -36.5144 -36.4745 -36.4711
    -5.7121  -3.6237  -3.5106  -3.2801  -3.1712  -3.0410  -3.0334  -2.9986
    -2.9097  -2.5765  -1.9479  -1.7444  -1.6796  -1.6495  -1.4393  -1.3746
    -1.1921  -1.0880  -1.0596  -0.9721  -0.7883  -0.7348  -0.6431  -0.5712
    -0.4543  -0.4406   0.0359   0.0787   0.3831   0.5336   0.7738   0.9147
     0.9793   1.0630   1.5367   1.7391   1.8097   2.0342   2.4223   2.5012
     2.6275   2.6769   2.6990   2.7356   2.7375   2.8738   2.9274   2.9902
     3.0231   3.0727   3.1144   3.1551   3.1988   3.4058   3.6015   3.6179

          k = 0.0318-0.0282 0.0000 ( 29248 PWs)   bands (ev):

   -84.8953 -84.8901 -84.3328 -84.3278 -84.2749 -84.2700 -63.0795 -63.0695
   -62.8247 -62.8157 -62.8047 -62.7957 -44.3097 -44.2089 -44.1974 -44.1738
   -44.1460 -44.1388 -43.7414 -43.6408 -43.6240 -43.6075 -43.6070 -43.6030
   -43.5902 -43.5874 -43.5693 -43.5283 -43.5146 -43.5065 -36.9432 -36.8594
   -36.8556 -36.8500 -36.8039 -36.7910 -36.7187 -36.7111 -36.6688 -36.6641
   -36.5479 -36.5401 -36.5332 -36.5312 -36.5135 -36.5111 -36.4592 -36.4558
    -5.9433  -3.8644  -3.5321  -3.3500  -3.3024  -3.2920  -3.1455  -3.0505
    -3.0022  -2.7651  -2.0913  -1.9438  -1.6973  -1.5831  -1.5123  -1.2552
    -1.2298  -1.1803  -1.1215  -1.1029  -0.8162  -0.7063  -0.6362  -0.4893
    -0.2989   0.0055   0.0599   0.2552   0.6394   0.8591   0.9619   1.0880
     1.1032   1.4060   1.5595   1.9522   2.0208   2.1488   2.4453   2.6010
     2.7040   2.7211   2.7778   2.8196   2.8852   2.9416   2.9667   3.0065
     3.0478   3.0905   3.1458   3.2642   3.2801   3.4665   3.4759   3.5653

          k = 0.0478-0.0169 0.0000 ( 29237 PWs)   bands (ev):

   -84.8952 -84.8901 -84.3328 -84.3278 -84.2749 -84.2700 -63.0795 -63.0696
   -62.8248 -62.8157 -62.8048 -62.7957 -44.3085 -44.2075 -44.1958 -44.1735
   -44.1465 -44.1379 -43.7402 -43.6396 -43.6223 -43.6076 -43.6061 -43.6030
   -43.5913 -43.5853 -43.5686 -43.5280 -43.5148 -43.5064 -36.9459 -36.8628
   -36.8566 -36.8521 -36.8036 -36.7928 -36.7176 -36.7099 -36.6695 -36.6643
   -36.5510 -36.5434 -36.5358 -36.5315 -36.5170 -36.5126 -36.4591 -36.4559
    -5.8067  -3.7845  -3.6777  -3.2455  -3.2247  -3.1397  -3.0665  -2.9626
    -2.9131  -2.7280  -2.1468  -1.8613  -1.6758  -1.4968  -1.4648  -1.3061
    -1.2010  -1.1760  -1.1433  -1.0644  -0.8233  -0.5794  -0.4453  -0.4202
    -0.2851  -0.0232   0.0168   0.3130   0.7055   0.7723   0.8865   1.1004
     1.1052   1.2541   1.4231   1.7565   1.8609   1.9868   2.3944   2.5044
     2.5514   2.5729   2.6665   2.7108   2.8212   2.8246   2.9644   2.9771
     2.9936   3.0529   3.1237   3.2425   3.2882   3.3413   3.4042   3.5360

          k = 0.0478-0.0000 0.0000 ( 29223 PWs)   bands (ev):

   -84.8958 -84.8896 -84.3334 -84.3272 -84.2755 -84.2694 -63.0807 -63.0685
   -62.8259 -62.8146 -62.8060 -62.7946 -44.3224 -44.2082 -44.1940 -44.1589
   -44.1484 -44.1359 -43.7541 -43.6530 -43.6225 -43.6078 -43.6046 -43.5909
   -43.5896 -43.5856 -43.5673 -43.5290 -43.5136 -43.4922 -36.9574 -36.8608
   -36.8554 -36.8470 -36.8038 -36.7935 -36.7181 -36.7083 -36.6707 -36.6634
   -36.5628 -36.5540 -36.5374 -36.5320 -36.5188 -36.5129 -36.4485 -36.4449
    -5.8638  -3.8841  -3.6173  -3.4145  -3.2623  -3.1683  -3.0856  -2.9153
    -2.9020  -2.8039  -2.1632  -1.9454  -1.7974  -1.4243  -1.3876  -1.3303
    -1.2276  -1.1794  -1.0477  -1.0439  -0.8303  -0.5924  -0.3223  -0.2882
    -0.1234   0.1048   0.3118   0.4399   0.6841   0.8621   1.1337   1.1423
     1.2358   1.3570   1.5631   1.7323   1.8044   2.0452   2.3470   2.4240
     2.4838   2.5554   2.5960   2.6544   2.7200   2.8750   2.8787   3.0120
     3.1139   3.1172   3.1356   3.1790   3.2688   3.2949   3.4177   3.5726

          k = 0.0478 0.0169 0.0000 ( 29253 PWs)   bands (ev):

   -84.8961 -84.8892 -84.3337 -84.3268 -84.2758 -84.2691 -63.0815 -63.0678
   -62.8267 -62.8139 -62.8068 -62.7939 -44.3303 -44.2074 -44.1917 -44.1498
   -44.1494 -44.1342 -43.7621 -43.6606 -43.6216 -43.6085 -43.6029 -43.5910
   -43.5847 -43.5802 -43.5658 -43.5295 -43.5129 -43.4830 -36.9660 -36.8651
   -36.8564 -36.8420 -36.8041 -36.7949 -36.7181 -36.7070 -36.6716 -36.6628
   -36.5717 -36.5621 -36.5404 -36.5338 -36.5219 -36.5149 -36.4425 -36.4385
    -5.8163  -3.8928  -3.5154  -3.5118  -3.2207  -3.1646  -3.0628  -2.8523
    -2.8244  -2.7874  -2.1092  -1.9474  -1.8921  -1.4860  -1.3279  -1.2438
    -1.2211  -1.0971  -0.9923  -0.9189  -0.7916  -0.6262  -0.2102  -0.1472
    -0.0106   0.2137   0.4799   0.5048   0.5893   0.8535   1.0987   1.2525
     1.3343   1.3566   1.4814   1.6819   1.7728   1.9939   2.2634   2.2821
     2.3690   2.5041   2.5247   2.5874   2.6437   2.7975   2.8716   2.9060
     2.9733   3.0495   3.1710   3.2813   3.3053   3.3266   3.3393   3.6062

          k = 0.0478 0.0338 0.0000 ( 29289 PWs)   bands (ev):

   -84.8962 -84.8891 -84.3338 -84.3267 -84.2760 -84.2690 -63.0818 -63.0677
   -62.8271 -62.8137 -62.8071 -62.7937 -44.3320 -44.2056 -44.1893 -44.1506
   -44.1459 -44.1329 -43.7638 -43.6620 -43.6197 -43.6086 -43.6016 -43.5917
   -43.5827 -43.5768 -43.5646 -43.5295 -43.5127 -43.4796 -36.9712 -36.8711
   -36.8586 -36.8408 -36.8043 -36.7967 -36.7177 -36.7059 -36.6721 -36.6624
   -36.5768 -36.5669 -36.5441 -36.5364 -36.5257 -36.5178 -36.4412 -36.4369
    -5.6677  -3.8189  -3.5336  -3.4505  -3.1055  -3.0973  -2.9797  -2.7760
    -2.7019  -2.6791  -2.0358  -1.9438  -1.8717  -1.5044  -1.2607  -1.2565
    -1.1588  -0.9325  -0.9124  -0.8291  -0.7821  -0.5860  -0.1089  -0.0723
     0.0157   0.2357   0.4971   0.5338   0.5993   0.7352   1.0231   1.1982
     1.2826   1.3604   1.3778   1.5555   1.6220   1.8370   2.0941   2.1509
     2.2200   2.4023   2.4172   2.4986   2.5261   2.6990   2.7131   2.7962
     2.8869   3.0570   3.1392   3.2532   3.2907   3.3593   3.4232   3.4651

          k = 0.0478 0.0506 0.0000 ( 29251 PWs)   bands (ev):

   -84.8961 -84.8893 -84.3337 -84.3268 -84.2758 -84.2691 -63.0817 -63.0680
   -62.8270 -62.8140 -62.8071 -62.7939 -44.3274 -44.2033 -44.1874 -44.1507
   -44.1487 -44.1323 -43.7592 -43.6575 -43.6174 -43.6081 -43.6009 -43.5928
   -43.5802 -43.5798 -43.5640 -43.5288 -43.5131 -43.4825 -36.9720 -36.8768
   -36.8612 -36.8437 -36.8041 -36.7985 -36.7170 -36.7054 -36.6723 -36.6623
   -36.5774 -36.5677 -36.5477 -36.5389 -36.5292 -36.5207 -36.4441 -36.4399
    -5.4260  -3.6788  -3.5093  -3.4878  -2.9356  -2.9240  -2.8441  -2.6529
    -2.5674  -2.5215  -2.0334  -1.9125  -1.7353  -1.5022  -1.2791  -1.1934
    -1.0434  -0.8654  -0.8565  -0.8157  -0.7708  -0.4271  -0.2099   0.0022
     0.0582   0.1458   0.3112   0.5175   0.6754   0.7095   0.9665   0.9822
     1.1151   1.2265   1.3118   1.4510   1.4737   1.6390   1.7678   1.9598
     2.1641   2.1732   2.2798   2.3006   2.4196   2.4930   2.7108   2.7598
     2.7917   2.8201   3.0702   3.1328   3.2978   3.3271   3.3494   3.3569

          k = 0.0478 0.0675 0.0000 ( 29223 PWs)   bands (ev):

   -84.8957 -84.8896 -84.3334 -84.3272 -84.2755 -84.2694 -63.0810 -63.0688
   -62.8264 -62.8146 -62.8065 -62.7946 -44.3171 -44.2011 -44.1866 -44.1580
   -44.1503 -44.1323 -43.7489 -43.6473 -43.6151 -43.6070 -43.6012 -43.5941
   -43.5890 -43.5775 -43.5644 -43.5277 -43.5142 -43.4916 -36.9680 -36.8811
   -36.8630 -36.8502 -36.8035 -36.8002 -36.7163 -36.7055 -36.6721 -36.6625
   -36.5731 -36.5640 -36.5504 -36.5407 -36.5315 -36.5228 -36.4508 -36.4470
    -5.1048  -3.6836  -3.4993  -3.3914  -2.7626  -2.6874  -2.6595  -2.4845
    -2.4501  -2.3479  -2.0608  -1.8855  -1.5754  -1.5409  -1.3092  -1.1273
    -0.9354  -0.9031  -0.8316  -0.8111  -0.7980  -0.3505  -0.2539  -0.0707
    -0.0585   0.0253   0.2590   0.4500   0.5553   0.6093   0.7693   0.8427
     1.0367   1.0374   1.1141   1.2771   1.4039   1.4850   1.5052   1.9185
     2.0009   2.0531   2.0737   2.1763   2.2323   2.4437   2.5751   2.6099
     2.7758   2.8442   2.9938   3.1035   3.1534   3.2451   3.3215   3.4039

          k = 0.0478-0.1183 0.0000 ( 29230 PWs)   bands (ev):

   -84.8951 -84.8902 -84.3328 -84.3277 -84.2749 -84.2700 -63.0799 -63.0699
   -62.8254 -62.8157 -62.8055 -62.7956 -44.3018 -44.1994 -44.1873 -44.1730
   -44.1493 -44.1331 -43.7335 -43.6324 -43.6134 -43.6068 -43.6028 -43.6023
   -43.5956 -43.5751 -43.5659 -43.5263 -43.5157 -43.5064 -36.9592 -36.8829
   -36.8636 -36.8599 -36.8022 -36.8016 -36.7156 -36.7065 -36.6715 -36.6629
   -36.5638 -36.5558 -36.5513 -36.5411 -36.5320 -36.5236 -36.4608 -36.4574
    -4.7236  -3.9579  -3.3350  -3.2620  -2.6279  -2.4712  -2.4175  -2.3829
    -2.2779  -2.2058  -2.1229  -1.8891  -1.6588  -1.4390  -1.3295  -1.0945
    -0.9896  -0.9196  -0.8741  -0.8630  -0.7730  -0.4192  -0.3623  -0.2656
    -0.1747  -0.0224   0.1064   0.3382   0.3695   0.4226   0.4411   0.6179
     0.8505   0.9619   0.9941   1.1389   1.3232   1.4034   1.5561   1.8056
     1.9635   1.9942   2.0519   2.2888   2.3607   2.4210   2.5313   2.5877
     2.7980   2.9572   2.9801   3.0072   3.0906   3.1986   3.3271   3.3649

          k = 0.0478-0.1014 0.0000 ( 29240 PWs)   bands (ev):

   -84.8944 -84.8910 -84.3321 -84.3285 -84.2742 -84.2707 -63.0785 -63.0714
   -62.8241 -62.8170 -62.8041 -62.7970 -44.2826 -44.1989 -44.1924 -44.1895
   -44.1480 -44.1345 -43.7141 -43.6255 -43.6140 -43.6108 -43.6056 -43.6025
   -43.5967 -43.5732 -43.5687 -43.5270 -43.5236 -43.5177 -36.9460 -36.8823
   -36.8714 -36.8626 -36.8026 -36.8004 -36.7149 -36.7080 -36.6705 -36.6636
   -36.5501 -36.5500 -36.5453 -36.5383 -36.5305 -36.5231 -36.4735 -36.4703
    -4.3126  -4.3078  -3.2590  -3.1200  -2.5930  -2.4024  -2.3617  -2.2346
    -2.2065  -2.1449  -1.9691  -1.9268  -1.7978  -1.4047  -1.2229  -1.2076
    -1.1715  -0.9223  -0.8772  -0.8620  -0.8535  -0.5444  -0.4863  -0.4620
    -0.2882  -0.2598  -0.0740  -0.0366   0.2035   0.3242   0.3653   0.5228
     0.5559   0.7351   1.0119   1.2898   1.3899   1.4288   1.6103   1.8501
     2.0671   2.1208   2.1625   2.4381   2.4643   2.5592   2.6186   2.8312
     2.8451   2.9095   2.9770   2.9923   3.2053   3.2780   3.2980   3.3634

          k = 0.0478-0.0845 0.0000 ( 29199 PWs)   bands (ev):

   -84.8935 -84.8918 -84.3312 -84.3293 -84.2733 -84.2716 -63.0767 -63.0730
   -62.8224 -62.8185 -62.8025 -62.7985 -44.2606 -44.2169 -44.1974 -44.1931
   -44.1463 -44.1365 -43.6921 -43.6486 -43.6098 -43.6093 -43.6008 -43.6001
   -43.5902 -43.5724 -43.5719 -43.5492 -43.5223 -43.5199 -36.9292 -36.8879
   -36.8759 -36.8603 -36.8032 -36.7981 -36.7142 -36.7101 -36.6694 -36.6645
   -36.5470 -36.5411 -36.5321 -36.5271 -36.5250 -36.5214 -36.4881 -36.4846
    -4.6926  -3.9250  -3.2610  -3.0296  -2.7386  -2.5222  -2.4709  -2.3841
    -2.2721  -1.9431  -1.8946  -1.8307  -1.6334  -1.5437  -1.4764  -1.2877
    -0.9730  -0.9502  -0.9115  -0.8374  -0.8136  -0.7240  -0.6889  -0.6146
    -0.5306  -0.4550  -0.3293  -0.0726   0.0053   0.1581   0.3909   0.5356
     0.5541   0.6887   1.1781   1.2786   1.4862   1.6218   1.6283   2.1512
     2.1920   2.2941   2.3367   2.5710   2.6499   2.6858   2.7147   2.7670
     2.8912   2.8918   2.9610   3.2368   3.3709   3.4212   3.4301   3.4980

          k = 0.0478-0.0676 0.0000 ( 29149 PWs)   bands (ev):

   -84.8927 -84.8926 -84.3303 -84.3302 -84.2725 -84.2724 -63.0748 -63.0747
   -62.8207 -62.8202 -62.8007 -62.8002 -44.2419 -44.2373 -44.1975 -44.1973
   -44.1444 -44.1390 -43.6736 -43.6687 -43.6133 -43.6090 -43.6013 -43.5979
   -43.5766 -43.5735 -43.5711 -43.5685 -43.5222 -43.5203 -36.9105 -36.9023
   -36.8710 -36.8573 -36.8035 -36.7959 -36.7134 -36.7124 -36.6680 -36.6657
   -36.5429 -36.5386 -36.5228 -36.5196 -36.5121 -36.5069 -36.5039 -36.4995
    -5.0677  -3.6723  -3.2550  -3.0159  -3.0015  -2.7376  -2.6305  -2.6002
    -2.4758  -1.9555  -1.8689  -1.7712  -1.7249  -1.5288  -1.3905  -1.2222
    -1.1393  -0.9937  -0.9723  -0.9470  -0.8111  -0.7394  -0.7267  -0.6757
    -0.5202  -0.4285  -0.3400  -0.2293  -0.0318  -0.0086   0.4380   0.6456
     0.7110   0.9435   1.1437   1.3664   1.5488   1.8239   1.8860   2.3555
     2.4047   2.4132   2.5246   2.5928   2.6414   2.7544   2.7698   2.8272
     2.8926   2.9371   3.1660   3.1722   3.3555   3.4134   3.4351   3.6327

          k = 0.0478-0.0507 0.0000 ( 29176 PWs)   bands (ev):

   -84.8937 -84.8917 -84.3312 -84.3294 -84.2734 -84.2715 -63.0765 -63.0729
   -62.8219 -62.8188 -62.8018 -62.7988 -44.2667 -44.2143 -44.2014 -44.1974
   -44.1423 -44.1416 -43.6984 -43.6455 -43.6171 -43.6083 -43.6028 -43.6010
   -43.5922 -43.5805 -43.5705 -43.5462 -43.5242 -43.5183 -36.9175 -36.8918
   -36.8651 -36.8548 -36.8035 -36.7941 -36.7146 -36.7124 -36.6669 -36.6666
   -36.5389 -36.5367 -36.5214 -36.5177 -36.5175 -36.5138 -36.4922 -36.4884
    -5.3953  -3.6434  -3.3261  -3.1601  -3.0109  -2.9495  -2.8042  -2.7746
    -2.7358  -2.3101  -1.8677  -1.7648  -1.5932  -1.5925  -1.4023  -1.3870
    -1.1329  -1.0316  -0.9762  -0.8802  -0.8643  -0.7362  -0.7030  -0.6419
    -0.5900  -0.4262  -0.1456  -0.0105   0.0258   0.1745   0.5119   0.7704
     0.8784   1.0734   1.3069   1.4345   1.6927   1.9465   2.1573   2.4625
     2.4827   2.5385   2.5779   2.6783   2.7163   2.7372   2.8664   2.8995
     2.9432   3.0357   3.0970   3.2094   3.2943   3.3188   3.4542   3.6130

          k = 0.0478-0.0338 0.0000 ( 29217 PWs)   bands (ev):

   -84.8945 -84.8909 -84.3320 -84.3285 -84.2742 -84.2707 -63.0781 -63.0711
   -62.8234 -62.8171 -62.8034 -62.7971 -44.2895 -44.2054 -44.1969 -44.1922
   -44.1442 -44.1401 -43.7212 -43.6248 -43.6213 -43.6192 -43.6074 -43.6044
   -43.5923 -43.5836 -43.5697 -43.5276 -43.5237 -43.5164 -36.9323 -36.8750
   -36.8599 -36.8532 -36.8035 -36.7930 -36.7164 -36.7113 -36.6683 -36.6654
   -36.5387 -36.5357 -36.5341 -36.5279 -36.5167 -36.5142 -36.4740 -36.4708
    -5.6474  -3.6792  -3.5942  -3.1205  -3.1093  -3.0356  -3.0068  -2.9396
    -2.8695  -2.5667  -2.0405  -1.7026  -1.6422  -1.5629  -1.5110  -1.3608
    -1.1946  -1.0883  -1.0701  -1.0047  -0.8045  -0.6466  -0.5371  -0.5233
    -0.4490  -0.3883  -0.0315   0.1146   0.3498   0.6188   0.7220   0.9335
     0.9390   1.0642   1.4526   1.6362   1.8177   1.9551   2.3923   2.4097
     2.5309   2.6187   2.6846   2.6982   2.7602   2.8483   2.9123   2.9405
     3.0301   3.0643   3.1172   3.1436   3.2087   3.3614   3.4083   3.4866

          k = 0.0637-0.0226 0.0000 ( 29213 PWs)   bands (ev):

   -84.8945 -84.8909 -84.3320 -84.3285 -84.2742 -84.2707 -63.0782 -63.0711
   -62.8236 -62.8171 -62.8036 -62.7971 -44.2881 -44.2048 -44.1953 -44.1915
   -44.1450 -44.1389 -43.7198 -43.6258 -43.6201 -43.6162 -43.6066 -43.6045
   -43.5935 -43.5813 -43.5693 -43.5273 -43.5237 -43.5167 -36.9357 -36.8772
   -36.8600 -36.8567 -36.8028 -36.7952 -36.7153 -36.7099 -36.6692 -36.6656
   -36.5433 -36.5388 -36.5378 -36.5279 -36.5207 -36.5146 -36.4731 -36.4702
    -5.4568  -3.8994  -3.5101  -3.0101  -2.9746  -2.9103  -2.8710  -2.8164
    -2.7545  -2.5451  -2.1494  -1.6371  -1.5852  -1.5468  -1.4616  -1.3140
    -1.3016  -1.1539  -1.0560  -0.9646  -0.7526  -0.5434  -0.4932  -0.3858
    -0.3317  -0.1481  -0.1195   0.1449   0.2668   0.5853   0.6589   0.8583
     0.9886   1.1039   1.3520   1.3529   1.7850   1.8011   2.0054   2.2921
     2.3600   2.4985   2.5827   2.6286   2.7158   2.7390   2.8736   2.8854
     2.8990   3.0021   3.0441   3.0535   3.1164   3.2386   3.2423   3.4449

          k = 0.0637-0.0057 0.0000 ( 29235 PWs)   bands (ev):

   -84.8952 -84.8902 -84.3328 -84.3278 -84.2749 -84.2700 -63.0797 -63.0697
   -62.8250 -62.8157 -62.8050 -62.7957 -44.3064 -44.2051 -44.1931 -44.1732
   -44.1474 -44.1364 -43.7381 -43.6374 -43.6195 -43.6075 -43.6048 -43.6026
   -43.5929 -43.5820 -43.5676 -43.5275 -43.5151 -43.5064 -36.9503 -36.8691
   -36.8585 -36.8549 -36.8031 -36.7959 -36.7163 -36.7083 -36.6706 -36.6644
   -36.5558 -36.5483 -36.5406 -36.5333 -36.5224 -36.5156 -36.4593 -36.4562
    -5.5420  -3.8019  -3.6402  -3.1575  -3.0119  -3.0076  -2.8773  -2.8120
    -2.7444  -2.6488  -2.1600  -1.7373  -1.7115  -1.4167  -1.3651  -1.3455
    -1.1848  -1.1353  -1.1081  -0.9731  -0.7845  -0.4232  -0.3862  -0.2574
    -0.1437  -0.0265  -0.0026   0.3528   0.5851   0.6179   0.8829   0.9811
     1.0860   1.1212   1.3575   1.3624   1.7336   1.7595   2.0175   2.3014
     2.3061   2.3797   2.4393   2.4926   2.6072   2.8049   2.8095   2.8328
     2.9317   3.0352   3.1029   3.1203   3.1495   3.2208   3.2670   3.4041

          k = 0.0637 0.0112 0.0000 ( 29255 PWs)   bands (ev):

   -84.8958 -84.8896 -84.3334 -84.3272 -84.2755 -84.2694 -63.0809 -63.0686
   -62.8262 -62.8146 -62.8062 -62.7946 -44.3198 -44.2047 -44.1903 -44.1584
   -44.1494 -44.1341 -43.7515 -43.6502 -43.6187 -43.6076 -43.6028 -43.5926
   -43.5892 -43.5815 -43.5658 -43.5284 -43.5139 -43.4919 -36.9628 -36.8713
   -36.8591 -36.8486 -36.8036 -36.7970 -36.7168 -36.7067 -36.6716 -36.6633
   -36.5681 -36.5592 -36.5437 -36.5361 -36.5255 -36.5178 -36.4496 -36.4459
    -5.5309  -3.6937  -3.6581  -3.3531  -2.9967  -2.9856  -2.8840  -2.7136
    -2.7082  -2.6347  -2.1094  -1.8335  -1.7620  -1.4863  -1.2790  -1.2630
    -1.1038  -1.0521  -0.9595  -0.9323  -0.8117  -0.4169  -0.2965  -0.1074
     0.0078   0.1021   0.1952   0.4517   0.5683   0.8171   0.8953   1.0354
     1.1597   1.2539   1.2866   1.3891   1.6177   1.7255   1.9398   2.1963
     2.2275   2.2676   2.3378   2.3685   2.4977   2.6309   2.7934   2.8322
     2.9031   2.9832   3.0344   3.1281   3.2331   3.2399   3.2992   3.4627

          k = 0.0637 0.0281 0.0000 ( 29251 PWs)   bands (ev):

   -84.8961 -84.8893 -84.3337 -84.3268 -84.2758 -84.2691 -63.0817 -63.0680
   -62.8270 -62.8140 -62.8071 -62.7939 -44.3274 -44.2033 -44.1874 -44.1507
   -44.1487 -44.1323 -43.7592 -43.6575 -43.6174 -43.6081 -43.6009 -43.5928
   -43.5802 -43.5798 -43.5640 -43.5288 -43.5131 -43.4825 -36.9720 -36.8768
   -36.8612 -36.8437 -36.8041 -36.7985 -36.7170 -36.7054 -36.6723 -36.6623
   -36.5774 -36.5677 -36.5477 -36.5389 -36.5292 -36.5207 -36.4441 -36.4399
    -5.4260  -3.6788  -3.5093  -3.4878  -2.9356  -2.9240  -2.8441  -2.6529
    -2.5674  -2.5215  -2.0334  -1.9125  -1.7353  -1.5022  -1.2791  -1.1934
    -1.0434  -0.8654  -0.8565  -0.8157  -0.7708  -0.4271  -0.2099   0.0022
     0.0582   0.1458   0.3112   0.5175   0.6754   0.7095   0.9665   0.9822
     1.1151   1.2265   1.3118   1.4510   1.4737   1.6390   1.7678   1.9598
     2.1641   2.1732   2.2798   2.3006   2.4196   2.4930   2.7108   2.7598
     2.7917   2.8201   3.0702   3.1328   3.2982   3.3271   3.3495   3.3569

          k = 0.0637 0.0450 0.0000 ( 29221 PWs)   bands (ev):

   -84.8962 -84.8892 -84.3338 -84.3267 -84.2759 -84.2690 -63.0820 -63.0679
   -62.8273 -62.8138 -62.8074 -62.7937 -44.3291 -44.2015 -44.1850 -44.1514
   -44.1452 -44.1311 -43.7610 -43.6590 -43.6157 -43.6081 -43.5996 -43.5933
   -43.5782 -43.5764 -43.5628 -43.5288 -43.5130 -43.4790 -36.9770 -36.8825
   -36.8635 -36.8424 -36.8044 -36.8001 -36.7170 -36.7046 -36.6726 -36.6616
   -36.5824 -36.5724 -36.5516 -36.5417 -36.5326 -36.5235 -36.4428 -36.4384
    -5.2348  -3.6242  -3.5437  -3.4379  -2.8304  -2.7988  -2.7540  -2.5508
    -2.4009  -2.3643  -1.9826  -1.9616  -1.6500  -1.4797  -1.2848  -1.1216
    -0.9532  -0.9321  -0.7979  -0.7031  -0.5110  -0.3701  -0.2590   0.0422
     0.0754   0.1104   0.2709   0.5365   0.7333   0.8298   0.8768   0.8901
     1.0449   1.1405   1.2012   1.3350   1.5005   1.5057   1.5628   1.7376
     2.0284   2.1261   2.1884   2.1977   2.3548   2.4020   2.4866   2.6682
     2.7510   2.7737   2.8965   3.0669   3.1173   3.2801   3.2992   3.3542

          k = 0.0637 0.0619 0.0000 ( 29224 PWs)   bands (ev):

   -84.8961 -84.8893 -84.3337 -84.3268 -84.2758 -84.2691 -63.0818 -63.0682
   -62.8272 -62.8140 -62.8073 -62.7940 -44.3249 -44.1998 -44.1837 -44.1514
   -44.1482 -44.1306 -43.7567 -43.6547 -43.6140 -43.6076 -43.5993 -43.5941
   -43.5795 -43.5762 -43.5624 -43.5282 -43.5134 -43.4820 -36.9771 -36.8866
   -36.8654 -36.8451 -36.8043 -36.8015 -36.7168 -36.7045 -36.6725 -36.6614
   -36.5823 -36.5724 -36.5545 -36.5437 -36.5349 -36.5256 -36.4455 -36.4412
    -4.9684  -3.6194  -3.5042  -3.4568  -2.6789  -2.6253  -2.6157  -2.4134
    -2.2460  -2.1893  -2.0078  -1.9592  -1.5522  -1.4867  -1.2984  -1.0777
    -1.0318  -0.7990  -0.7445  -0.6618  -0.4536  -0.3500  -0.2725  -0.0539
     0.0078   0.0701   0.2644   0.5042   0.6370   0.7586   0.8262   0.9200
     0.9786   1.0040   1.0425   1.1576   1.2882   1.3788   1.5826   1.6963
     1.8571   2.0380   2.0442   2.0717   2.1924   2.3017   2.4694   2.5871
     2.5996   2.6685   2.9176   2.9735   3.0319   3.1527   3.2910   3.3049

          k = 0.0637-0.1239 0.0000 ( 29215 PWs)   bands (ev):

   -84.8957 -84.8897 -84.3334 -84.3272 -84.2755 -84.2694 -63.0811 -63.0689
   -62.8266 -62.8147 -62.8067 -62.7946 -44.3151 -44.1984 -44.1839 -44.1577
   -44.1509 -44.1310 -43.7469 -43.6452 -43.6125 -43.6065 -43.6003 -43.5951
   -43.5890 -43.5744 -43.5633 -43.5273 -43.5144 -43.4914 -36.9718 -36.8880
   -36.8660 -36.8515 -36.8035 -36.8025 -36.7164 -36.7051 -36.6721 -36.6615
   -36.5767 -36.5672 -36.5555 -36.5446 -36.5355 -36.5265 -36.4518 -36.4479
    -4.6443  -3.6982  -3.6159  -3.3148  -2.5545  -2.4303  -2.4127  -2.2534
    -2.1547  -2.0451  -2.0369  -1.9769  -1.6108  -1.4970  -1.3233  -1.0854
    -0.9822  -0.7719  -0.6994  -0.6934  -0.6403  -0.3400  -0.2435  -0.2265
    -0.0800  -0.0793   0.2865   0.4177   0.4887   0.5210   0.5497   0.7207
     0.8475   0.9189   1.0761   1.1155   1.1664   1.3039   1.4332   1.7202
     1.7926   1.8754   2.0084   2.1979   2.2746   2.4082   2.4398   2.4524
     2.6876   2.7060   2.8934   2.9544   3.0439   3.1758   3.2583   3.3072

          k = 0.0637-0.1070 0.0000 ( 29203 PWs)   bands (ev):

   -84.8951 -84.8902 -84.3328 -84.3277 -84.2749 -84.2700 -63.0800 -63.0700
   -62.8255 -62.8157 -62.8056 -62.7956 -44.3005 -44.1976 -44.1857 -44.1732
   -44.1498 -44.1322 -43.7322 -43.6310 -43.6113 -43.6067 -43.6026 -43.6025
   -43.5961 -43.5731 -43.5655 -43.5260 -43.5159 -43.5065 -36.9615 -36.8864
   -36.8651 -36.8611 -36.8030 -36.8020 -36.7158 -36.7063 -36.6714 -36.6622
   -36.5656 -36.5570 -36.5543 -36.5443 -36.5341 -36.5260 -36.4614 -36.4579
    -4.2955  -3.9891  -3.5952  -3.1772  -2.4730  -2.2804  -2.1896  -2.1757
    -2.1256  -2.0625  -2.0076  -1.9967  -1.7879  -1.4272  -1.3612  -1.0590
    -0.9372  -0.9121  -0.8237  -0.8136  -0.7093  -0.4834  -0.3133  -0.2527
    -0.1883  -0.0841   0.0188   0.0802   0.1566   0.3947   0.4766   0.5381
     0.6610   0.7813   0.9464   1.1680   1.2174   1.3143   1.6517   1.6894
     1.8622   1.8865   2.0769   2.3404   2.4545   2.4595   2.5468   2.7527
     2.7626   2.8708   2.9514   2.9898   3.1006   3.1989   3.2697   3.3268

          k = 0.0637-0.0901 0.0000 ( 29200 PWs)   bands (ev):

   -84.8944 -84.8910 -84.3321 -84.3285 -84.2742 -84.2707 -63.0785 -63.0714
   -62.8241 -62.8170 -62.8042 -62.7970 -44.2820 -44.1974 -44.1934 -44.1890
   -44.1483 -44.1341 -43.7136 -43.6252 -43.6133 -43.6104 -43.6057 -43.6023
   -43.5970 -43.5723 -43.5687 -43.5271 -43.5235 -43.5178 -36.9468 -36.8822
   -36.8734 -36.8630 -36.8033 -36.8001 -36.7151 -36.7080 -36.6704 -36.6632
   -36.5512 -36.5502 -36.5429 -36.5424 -36.5310 -36.5244 -36.4737 -36.4704
    -4.3361  -4.0136  -3.5064  -3.0780  -2.5179  -2.3378  -2.2976  -2.1613
    -2.1435  -2.0302  -2.0043  -1.8854  -1.8176  -1.4322  -1.2214  -1.1385
    -1.1372  -1.0028  -0.8843  -0.8604  -0.7208  -0.7033  -0.4780  -0.4222
    -0.4177  -0.2635  -0.0885  -0.0815   0.1395   0.2431   0.4100   0.4198
     0.4632   0.6291   1.0921   1.2280   1.4107   1.4459   1.5216   1.9393
     2.0087   2.1061   2.1827   2.4538   2.5323   2.6014   2.6935   2.8526
     2.8536   2.9120   2.9751   3.2558   3.2636   3.3278   3.3605   3.4224

          k = 0.0637-0.0733 0.0000 ( 29199 PWs)   bands (ev):

   -84.8935 -84.8918 -84.3312 -84.3293 -84.2733 -84.2716 -63.0767 -63.0730
   -62.8224 -62.8185 -62.8025 -62.7985 -44.2606 -44.2169 -44.1974 -44.1931
   -44.1463 -44.1365 -43.6921 -43.6486 -43.6098 -43.6093 -43.6008 -43.6001
   -43.5902 -43.5724 -43.5720 -43.5492 -43.5223 -43.5199 -36.9292 -36.8879
   -36.8759 -36.8603 -36.8032 -36.7981 -36.7142 -36.7101 -36.6694 -36.6645
   -36.5470 -36.5411 -36.5321 -36.5271 -36.5250 -36.5214 -36.4881 -36.4846
    -4.6926  -3.9250  -3.2610  -3.0296  -2.7386  -2.5222  -2.4709  -2.3841
[...]
     2.0009   2.0531   2.0737   2.1763   2.2323   2.4437   2.5751   2.6099
     2.7758   2.8442   2.9938   3.1035   3.1534   3.2451   3.3215   3.4039

          k = 0.0796 0.0394 0.0000 ( 29224 PWs)   bands (ev):

   -84.8961 -84.8893 -84.3337 -84.3268 -84.2758 -84.2691 -63.0818 -63.0682
   -62.8272 -62.8140 -62.8073 -62.7940 -44.3249 -44.1998 -44.1837 -44.1514
   -44.1482 -44.1306 -43.7567 -43.6547 -43.6140 -43.6076 -43.5993 -43.5941
   -43.5795 -43.5762 -43.5624 -43.5282 -43.5134 -43.4820 -36.9771 -36.8866
   -36.8654 -36.8451 -36.8043 -36.8015 -36.7168 -36.7045 -36.6725 -36.6614
   -36.5823 -36.5724 -36.5545 -36.5437 -36.5349 -36.5256 -36.4455 -36.4412
    -4.9684  -3.6194  -3.5042  -3.4568  -2.6789  -2.6253  -2.6157  -2.4134
    -2.2460  -2.1893  -2.0078  -1.9592  -1.5522  -1.4867  -1.2984  -1.0777
    -1.0318  -0.7990  -0.7445  -0.6618  -0.4536  -0.3500  -0.2725  -0.0539
     0.0078   0.0701   0.2644   0.5042   0.6370   0.7586   0.8262   0.9200
     0.9786   1.0040   1.0425   1.1576   1.2882   1.3788   1.5826   1.6963
     1.8571   2.0380   2.0442   2.0717   2.1924   2.3017   2.4694   2.5871
     2.5996   2.6685   2.9176   2.9735   3.0319   3.1527   3.2910   3.3049

          k = 0.0796 0.0563 0.0000 ( 29211 PWs)   bands (ev):

   -84.8962 -84.8892 -84.3338 -84.3267 -84.2759 -84.2690 -63.0821 -63.0680
   -62.8275 -62.8138 -62.8076 -62.7937 -44.3270 -44.1985 -44.1818 -44.1520
   -44.1447 -44.1297 -43.7589 -43.6567 -43.6129 -43.6077 -43.5984 -43.5943
   -43.5761 -43.5748 -43.5613 -43.5283 -43.5132 -43.4786 -36.9813 -36.8906
   -36.8673 -36.8436 -36.8046 -36.8024 -36.7169 -36.7040 -36.6726 -36.6607
   -36.5866 -36.5764 -36.5574 -36.5457 -36.5373 -36.5277 -36.4440 -36.4395
    -4.7729  -3.7615  -3.4299  -3.4113  -2.5920  -2.5235  -2.5157  -2.3438
    -2.0503  -2.0406  -2.0159  -1.9724  -1.5270  -1.4105  -1.2835  -1.2651
    -0.9721  -0.7033  -0.6404  -0.5410  -0.4180  -0.2686  -0.1761  -0.1198
     0.0121   0.0429   0.3174   0.4660   0.6217   0.7606   0.8469   0.8733
     0.8959   0.9709   1.0212   1.1999   1.2084   1.2731   1.4219   1.7100
     1.8292   1.9740   2.0227   2.0749   2.1226   2.1978   2.2306   2.4585
     2.5573   2.5786   2.6585   2.7754   2.8770   3.0566   3.1965   3.3064

          k = 0.0796-0.1296 0.0000 ( 29189 PWs)   bands (ev):

   -84.8960 -84.8893 -84.3337 -84.3268 -84.2758 -84.2691 -63.0819 -63.0683
   -62.8273 -62.8140 -62.8075 -62.7940 -44.3234 -44.1977 -44.1815 -44.1518
   -44.1479 -44.1297 -43.7553 -43.6532 -43.6120 -43.6073 -43.5986 -43.5948
   -43.5793 -43.5738 -43.5615 -43.5279 -43.5135 -43.4818 -36.9800 -36.8920
   -36.8679 -36.8459 -36.8044 -36.8030 -36.7168 -36.7042 -36.6724 -36.6606
   -36.5852 -36.5750 -36.5585 -36.5466 -36.5380 -36.5284 -36.4463 -36.4420
    -4.5440  -3.8453  -3.5017  -3.3374  -2.5236  -2.3857  -2.3559  -2.2845
    -2.1217  -1.9952  -1.8751  -1.8576  -1.5614  -1.5504  -1.2783  -1.2780
    -0.9228  -0.7048  -0.5399  -0.5294  -0.3902  -0.3677  -0.2456  -0.1746
    -0.0773   0.0878   0.3708   0.4704   0.5054   0.5753   0.7148   0.7750
     0.8037   0.9897   1.0633   1.1133   1.1429   1.2062   1.5001   1.5741
     1.6352   1.9664   2.0013   2.0914   2.2238   2.2998   2.3341   2.3993
     2.4284   2.5546   2.5900   2.7633   2.8574   2.8831   3.2301   3.2402

          k = 0.0796-0.1127 0.0000 ( 29190 PWs)   bands (ev):

   -84.8957 -84.8897 -84.3334 -84.3272 -84.2755 -84.2694 -63.0812 -63.0689
   -62.8267 -62.8147 -62.8068 -62.7946 -44.3144 -44.1974 -44.1829 -44.1576
   -44.1511 -44.1305 -43.7462 -43.6444 -43.6115 -43.6064 -43.6000 -43.5954
   -43.5890 -43.5732 -43.5629 -43.5271 -43.5145 -43.4914 -36.9732 -36.8905
   -36.8671 -36.8520 -36.8035 -36.8032 -36.7165 -36.7050 -36.6720 -36.6611
   -36.5779 -36.5683 -36.5574 -36.5461 -36.5369 -36.5278 -36.4522 -36.4482
    -4.3530  -3.8162  -3.7030  -3.2530  -2.4713  -2.2441  -2.2128  -2.2107
    -2.1839  -2.0476  -1.8757  -1.8374  -1.7310  -1.5541  -1.3115  -1.1897
    -0.9017  -0.7573  -0.6373  -0.6305  -0.5931  -0.3444  -0.2519  -0.1974
    -0.1043  -0.0223   0.1553   0.2197   0.4516   0.4648   0.5078   0.7271
     0.8309   0.8413   1.0308   1.0705   1.1155   1.2185   1.4280   1.6669
     1.7018   1.8348   2.0259   2.2656   2.3858   2.4127   2.4232   2.5242
     2.6568   2.6604   2.7349   2.9040   2.9055   2.9318   3.2012   3.2400

          k = 0.0796-0.0958 0.0000 ( 29203 PWs)   bands (ev):

   -84.8951 -84.8902 -84.3328 -84.3277 -84.2749 -84.2700 -63.0800 -63.0700
   -62.8255 -62.8157 -62.8056 -62.7956 -44.3005 -44.1976 -44.1857 -44.1732
   -44.1498 -44.1322 -43.7322 -43.6310 -43.6113 -43.6067 -43.6026 -43.6025
   -43.5961 -43.5731 -43.5655 -43.5260 -43.5159 -43.5065 -36.9615 -36.8864
   -36.8651 -36.8611 -36.8030 -36.8020 -36.7158 -36.7063 -36.6714 -36.6622
   -36.5656 -36.5570 -36.5543 -36.5443 -36.5341 -36.5260 -36.4614 -36.4579
    -4.2955  -3.9891  -3.5952  -3.1772  -2.4730  -2.2804  -2.1896  -2.1757
    -2.1256  -2.0625  -2.0076  -1.9967  -1.7879  -1.4272  -1.3612  -1.0590
    -0.9372  -0.9121  -0.8237  -0.8136  -0.7093  -0.4834  -0.3133  -0.2527
    -0.1883  -0.0841   0.0188   0.0802   0.1566   0.3947   0.4766   0.5381
     0.6610   0.7813   0.9464   1.1680   1.2174   1.3143   1.6517   1.6894
     1.8622   1.8865   2.0769   2.3404   2.4545   2.4595   2.5468   2.7527
     2.7626   2.8708   2.9514   2.9898   3.1006   3.1989   3.2697   3.3269

          k = 0.0796-0.0789 0.0000 ( 29240 PWs)   bands (ev):

   -84.8944 -84.8910 -84.3321 -84.3285 -84.2742 -84.2707 -63.0785 -63.0714
   -62.8241 -62.8170 -62.8041 -62.7970 -44.2826 -44.1989 -44.1924 -44.1895
   -44.1480 -44.1345 -43.7141 -43.6255 -43.6140 -43.6108 -43.6056 -43.6025
   -43.5967 -43.5732 -43.5687 -43.5270 -43.5236 -43.5177 -36.9460 -36.8823
   -36.8714 -36.8626 -36.8026 -36.8004 -36.7149 -36.7080 -36.6705 -36.6636
   -36.5501 -36.5500 -36.5453 -36.5383 -36.5305 -36.5231 -36.4735 -36.4703
    -4.3126  -4.3078  -3.2590  -3.1200  -2.5930  -2.4024  -2.3617  -2.2346
    -2.2065  -2.1449  -1.9691  -1.9268  -1.7978  -1.4047  -1.2229  -1.2076
    -1.1715  -0.9223  -0.8772  -0.8620  -0.8535  -0.5444  -0.4863  -0.4620
    -0.2882  -0.2598  -0.0740  -0.0366   0.2035   0.3242   0.3653   0.5228
     0.5559   0.7351   1.0119   1.2898   1.3899   1.4288   1.6104   1.8501
     2.0671   2.1208   2.1625   2.4381   2.4643   2.5592   2.6186   2.8312
     2.8451   2.9095   2.9770   2.9923   3.2053   3.2780   3.2981   3.3635

          k = 0.0796-0.0620 0.0000 ( 29220 PWs)   bands (ev):

   -84.8936 -84.8918 -84.3312 -84.3293 -84.2734 -84.2716 -63.0767 -63.0730
   -62.8223 -62.8186 -62.8024 -62.7986 -44.2616 -44.2171 -44.1974 -44.1935
   -44.1457 -44.1373 -43.6930 -43.6484 -43.6104 -43.6088 -43.6011 -43.6007
   -43.5908 -43.5733 -43.5717 -43.5485 -43.5226 -43.5197 -36.9283 -36.8907
   -36.8711 -36.8604 -36.8021 -36.7989 -36.7137 -36.7099 -36.6695 -36.6653
   -36.5460 -36.5424 -36.5335 -36.5271 -36.5224 -36.5176 -36.4877 -36.4845
    -4.6119  -4.3269  -3.0908  -2.9009  -2.8235  -2.5385  -2.4964  -2.4370
    -2.2949  -2.1282  -1.9962  -1.8524  -1.7253  -1.5868  -1.4200  -1.2689
    -1.0456  -0.9658  -0.9543  -0.8918  -0.7154  -0.6485  -0.5894  -0.5665
    -0.4781  -0.3926  -0.1561  -0.1064   0.1922   0.2405   0.3307   0.6360
     0.6692   0.8148   1.0456   1.3749   1.4163   1.6199   1.6541   1.9615
     2.2719   2.2858   2.3479   2.4345   2.5389   2.6343   2.7233   2.7666
     2.8175   2.8314   2.9651   3.0927   3.2151   3.2584   3.3244   3.3519

          k = 0.0796-0.0451 0.0000 ( 29223 PWs)   bands (ev):

   -84.8927 -84.8927 -84.3303 -84.3303 -84.2725 -84.2724 -63.0748 -63.0747
   -62.8206 -62.8202 -62.8005 -62.8003 -44.2412 -44.2390 -44.1970 -44.1969
   -44.1431 -44.1403 -43.6727 -43.6702 -43.6115 -43.6095 -43.6013 -43.5994
   -43.5768 -43.5757 -43.5687 -43.5679 -43.5217 -43.5208 -36.9100 -36.9063
   -36.8659 -36.8595 -36.8017 -36.7980 -36.7122 -36.7117 -36.6683 -36.6671
   -36.5430 -36.5410 -36.5259 -36.5255 -36.5057 -36.5032 -36.5028 -36.4995
    -4.8667  -4.3034  -3.0608  -3.0490  -2.6765  -2.6272  -2.6018  -2.5804
    -2.3958  -2.1729  -2.0213  -1.9483  -1.7454  -1.5761  -1.5255  -1.2052
    -1.1025  -1.0647  -1.0021  -0.8182  -0.7394  -0.6740  -0.6276  -0.5144
    -0.4472  -0.3933  -0.1659  -0.1182   0.0752   0.2365   0.4153   0.7566
     0.8013   0.9441   1.0884   1.3328   1.4895   1.7234   1.7369   2.0012
     2.3614   2.4094   2.4742   2.5008   2.6152   2.6289   2.6921   2.7148
     2.8237   2.9063   2.9550   3.1226   3.1561   3.2001   3.2395   3.3066

          k =-0.0955 0.0339 0.0000 ( 29174 PWs)   bands (ev):

   -84.8927 -84.8927 -84.3303 -84.3303 -84.2725 -84.2724 -63.0748 -63.0747
   -62.8205 -62.8203 -62.8004 -62.8004 -44.2402 -44.2402 -44.1968 -44.1968
   -44.1417 -44.1417 -43.6716 -43.6715 -43.6103 -43.6103 -43.6006 -43.6006
   -43.5765 -43.5764 -43.5679 -43.5679 -43.5213 -43.5213 -36.9086 -36.9086
   -36.8622 -36.8622 -36.7998 -36.7998 -36.7116 -36.7115 -36.6680 -36.6678
   -36.5424 -36.5421 -36.5268 -36.5268 -36.5035 -36.5034 -36.5007 -36.5006
    -4.6241  -4.6241  -3.0687  -3.0686  -2.6034  -2.6033  -2.5084  -2.5084
    -2.3327  -2.3327  -2.0765  -2.0764  -1.6352  -1.6352  -1.4061  -1.4061
    -1.0907  -1.0906  -0.8556  -0.8556  -0.7819  -0.7818  -0.5011  -0.5010
    -0.3684  -0.3683  -0.1049  -0.1049   0.2258   0.2259   0.6161   0.6161
     0.9549   0.9550   1.0930   1.0930   1.5841   1.5842   1.8129   1.8130
     2.2769   2.2769   2.4976   2.4976   2.6198   2.6199   2.6720   2.6720
     2.8628   2.8628   3.0000   3.0000   3.1108   3.1109   3.2222   3.2223

          k =-0.0955 0.0508 0.0000 ( 29218 PWs)   bands (ev):

   -84.8936 -84.8918 -84.3312 -84.3293 -84.2734 -84.2716 -63.0766 -63.0729
   -62.8222 -62.8186 -62.8022 -62.7986 -44.2632 -44.2171 -44.1977 -44.1944
   -44.1446 -44.1386 -43.6946 -43.6480 -43.6115 -43.6082 -43.6018 -43.6014
   -43.5916 -43.5754 -43.5709 -43.5475 -43.5231 -43.5193 -36.9262 -36.8925
   -36.8654 -36.8609 -36.8001 -36.8001 -36.7131 -36.7099 -36.6694 -36.6663
   -36.5439 -36.5430 -36.5334 -36.5263 -36.5191 -36.5138 -36.4875 -36.4848
    -4.7246  -4.4535  -3.1743  -2.9223  -2.6264  -2.6115  -2.5219  -2.5099
    -2.3948  -2.2961  -2.2803  -1.7789  -1.6549  -1.5310  -1.5005  -1.2416
    -1.2250  -1.0630  -0.9718  -0.8811  -0.7086  -0.6433  -0.5494  -0.4394
    -0.3780  -0.2462  -0.0815  -0.0010   0.1990   0.2265   0.5764   0.6349
     0.9144   0.9666   1.0409   1.1458   1.5614   1.5623   1.7815   1.7857
     2.2014   2.3312   2.3893   2.4443   2.5000   2.5839   2.7381   2.7844
     2.8094   2.8521   2.9053   3.0240   3.1095   3.1803   3.2115   3.3450

          k =-0.0955 0.0676 0.0000 ( 29215 PWs)   bands (ev):

   -84.8944 -84.8909 -84.3321 -84.3285 -84.2742 -84.2707 -63.0784 -63.0713
   -62.8239 -62.8170 -62.8040 -62.7970 -44.2841 -44.2013 -44.1913 -44.1910
   -44.1472 -44.1357 -43.7157 -43.6259 -43.6158 -43.6118 -43.6056 -43.6031
   -43.5960 -43.5755 -43.5687 -43.5269 -43.5237 -43.5174 -36.9436 -36.8817
   -36.8669 -36.8615 -36.8010 -36.8008 -36.7145 -36.7081 -36.6705 -36.6645
   -36.5493 -36.5471 -36.5451 -36.5334 -36.5285 -36.5199 -36.4729 -36.4700
    -4.7552  -4.2234  -3.2456  -2.9595  -2.7542  -2.5542  -2.4922  -2.4103
    -2.4069  -2.2819  -2.2083  -1.8182  -1.6395  -1.3510  -1.3211  -1.3068
    -1.2196  -1.0546  -0.9436  -0.8541  -0.7166  -0.5692  -0.5121  -0.3599
    -0.1623  -0.1447   0.0134   0.1812   0.1832   0.2599   0.5109   0.6430
     0.8697   0.9674   0.9906   1.1705   1.4737   1.4953   1.6851   1.7737
     2.1117   2.2122   2.2215   2.3832   2.3898   2.4753   2.6722   2.7512
     2.8362   2.8945   2.9445   2.9935   3.1376   3.2437   3.2987   3.3173

          k =-0.0955 0.0845 0.0000 ( 29230 PWs)   bands (ev):

   -84.8951 -84.8902 -84.3328 -84.3277 -84.2749 -84.2700 -63.0799 -63.0699
   -62.8254 -62.8157 -62.8055 -62.7956 -44.3018 -44.1994 -44.1873 -44.1730
   -44.1493 -44.1331 -43.7335 -43.6324 -43.6134 -43.6068 -43.6028 -43.6023
   -43.5956 -43.5751 -43.5659 -43.5263 -43.5157 -43.5064 -36.9592 -36.8829
   -36.8636 -36.8599 -36.8022 -36.8016 -36.7156 -36.7065 -36.6715 -36.6629
   -36.5638 -36.5558 -36.5513 -36.5411 -36.5320 -36.5236 -36.4608 -36.4574
    -4.7236  -3.9579  -3.3350  -3.2620  -2.6279  -2.4712  -2.4175  -2.3829
    -2.2779  -2.2058  -2.1229  -1.8891  -1.6588  -1.4390  -1.3295  -1.0945
    -0.9896  -0.9196  -0.8741  -0.8630  -0.7730  -0.4192  -0.3623  -0.2656
    -0.1747  -0.0224   0.1064   0.3382   0.3695   0.4226   0.4411   0.6179
     0.8505   0.9619   0.9941   1.1389   1.3232   1.4034   1.5561   1.8056
     1.9635   1.9942   2.0519   2.2888   2.3607   2.4210   2.5313   2.5877
     2.7980   2.9572   2.9801   3.0072   3.0902   3.1974   3.3248   3.3591

          k =-0.0955 0.1014 0.0000 ( 29215 PWs)   bands (ev):

   -84.8957 -84.8897 -84.3334 -84.3272 -84.2755 -84.2694 -63.0811 -63.0689
   -62.8266 -62.8147 -62.8067 -62.7946 -44.3151 -44.1984 -44.1839 -44.1577
   -44.1509 -44.1310 -43.7469 -43.6452 -43.6125 -43.6065 -43.6003 -43.5951
   -43.5890 -43.5744 -43.5633 -43.5273 -43.5144 -43.4914 -36.9718 -36.8880
   -36.8660 -36.8515 -36.8035 -36.8025 -36.7164 -36.7051 -36.6721 -36.6615
   -36.5767 -36.5672 -36.5555 -36.5446 -36.5355 -36.5265 -36.4518 -36.4479
    -4.6443  -3.6982  -3.6159  -3.3148  -2.5545  -2.4303  -2.4127  -2.2534
    -2.1547  -2.0451  -2.0369  -1.9769  -1.6108  -1.4970  -1.3233  -1.0854
    -0.9822  -0.7719  -0.6994  -0.6934  -0.6403  -0.3400  -0.2435  -0.2265
    -0.0800  -0.0793   0.2865   0.4177   0.4887   0.5210   0.5497   0.7207
     0.8475   0.9189   1.0761   1.1155   1.1664   1.3040   1.4332   1.7202
     1.7926   1.8754   2.0084   2.1979   2.2746   2.4082   2.4398   2.4524
     2.6876   2.7060   2.8934   2.9544   3.0438   3.1759   3.2586   3.3077

          k =-0.0955 0.1183 0.0000 ( 29189 PWs)   bands (ev):

   -84.8960 -84.8893 -84.3337 -84.3268 -84.2758 -84.2691 -63.0819 -63.0683
   -62.8273 -62.8140 -62.8075 -62.7940 -44.3234 -44.1977 -44.1815 -44.1518
   -44.1479 -44.1297 -43.7553 -43.6532 -43.6120 -43.6073 -43.5986 -43.5948
   -43.5793 -43.5738 -43.5615 -43.5279 -43.5135 -43.4818 -36.9800 -36.8920
   -36.8679 -36.8459 -36.8044 -36.8030 -36.7168 -36.7042 -36.6724 -36.6606
   -36.5852 -36.5750 -36.5585 -36.5466 -36.5380 -36.5284 -36.4463 -36.4420
    -4.5440  -3.8453  -3.5017  -3.3374  -2.5236  -2.3857  -2.3559  -2.2845
    -2.1217  -1.9952  -1.8751  -1.8576  -1.5614  -1.5504  -1.2783  -1.2780
    -0.9228  -0.7048  -0.5399  -0.5294  -0.3902  -0.3677  -0.2456  -0.1746
    -0.0773   0.0878   0.3708   0.4704   0.5054   0.5753   0.7148   0.7750
     0.8037   0.9897   1.0633   1.1133   1.1429   1.2062   1.5001   1.5741
     1.6352   1.9664   2.0013   2.0914   2.2238   2.2998   2.3341   2.3993
     2.4284   2.5546   2.5900   2.7633   2.8574   2.8831   3.2301   3.2402

          k =-0.0955-0.0675 0.0000 ( 29222 PWs)   bands (ev):

   -84.8962 -84.8892 -84.3338 -84.3267 -84.2759 -84.2690 -63.0822 -63.0680
   -62.8276 -62.8138 -62.8077 -62.7938 -44.3263 -44.1974 -44.1807 -44.1522
   -44.1445 -44.1292 -43.7581 -43.6559 -43.6119 -43.6076 -43.5979 -43.5947
   -43.5760 -43.5736 -43.5608 -43.5281 -43.5132 -43.4785 -36.9829 -36.8936
   -36.8687 -36.8441 -36.8048 -36.8032 -36.7170 -36.7038 -36.6726 -36.6603
   -36.5881 -36.5778 -36.5597 -36.5473 -36.5390 -36.5292 -36.4444 -36.4400
    -4.4882  -3.9438  -3.4272  -3.3452  -2.5182  -2.3489  -2.3259  -2.2470
    -2.2424  -1.9774  -1.7348  -1.6471  -1.6449  -1.6408  -1.3631  -1.2513
    -0.9023  -0.6792  -0.4442  -0.4342  -0.4226  -0.2681  -0.2455  -0.2201
    -0.1096   0.2342   0.4509   0.4920   0.5245   0.5760   0.7284   0.7854
     0.7936   0.8562   1.0800   1.1097   1.1518   1.3016   1.4907   1.5655
     1.7747   1.8995   2.0199   2.0268   2.0890   2.2178   2.2929   2.3646
     2.3770   2.4030   2.5464   2.6320   2.6907   2.8025   3.2237   3.3113

     the Fermi energy is     1.9879 ev

!    total energy              =   -2081.33812203 Ry
     estimated scf accuracy    <       0.00000587 Ry
     smearing contrib. (-TS)   =      -0.05999413 Ry
     internal energy E=F+TS    =   -2081.27812790 Ry

     The total energy is F=E-TS. E is the sum of the following terms:
     one-electron contribution =  -18079.68741121 Ry
     hartree contribution      =    9022.82698173 Ry
     xc contribution           =    -362.34644118 Ry
     ewald contribution        =    7337.92872502 Ry
     electric field correction =       0.00001774 Ry

     convergence has been achieved in  18 iterations

     negative rho (up, down):  1.202E-03 0.000E+00

     Forces acting on atoms (cartesian axes, Ry/au):

     atom    1 type  1   force =    -0.00018685   -0.00013345   -0.02447180
     atom    2 type  1   force =    -0.00019338   -0.00013530   -0.02446581
     atom    3 type  2   force =    -0.00006213   -0.00003503    0.05182416
     atom    4 type  2   force =    -0.00005192   -0.00004285    0.05182655
     atom    5 type  1   force =     0.00006479    0.00004386   -0.02308649
     atom    6 type  1   force =     0.00006801    0.00004736   -0.02308814
     atom    7 type  2   force =    -0.00009634   -0.00011262   -0.00546926
     atom    8 type  2   force =    -0.00013595   -0.00005304   -0.00547108
     atom    9 type  1   force =     0.00014129    0.00009804    0.00027564
     atom   10 type  1   force =     0.00014846    0.00010613    0.00026183
     atom   11 type  2   force =     0.00016091    0.00009267    0.00093361
     atom   12 type  2   force =     0.00014313    0.00012421    0.00093077

     Total force =     0.087734     Total SCF correction =     0.011586
     SCF correction compared to forces is large: reduce conv_thr to get better values

     Writing output data file ./V2Os2/V2Os2_beef.save/

     init_run     :     74.39s CPU     74.91s WALL (       1 calls)
     electrons    :   4261.56s CPU   4281.78s WALL (       1 calls)
     forces       :     44.79s CPU     44.98s WALL (       1 calls)

     Called by init_run:
     wfcinit      :     62.25s CPU     62.57s WALL (       1 calls)
     potinit      :      7.75s CPU      7.81s WALL (       1 calls)
     hinit0       :      2.00s CPU      2.01s WALL (       1 calls)

     Called by electrons:
     c_bands      :   3899.62s CPU   3912.32s WALL (      18 calls)
     sum_band     :    331.76s CPU    336.06s WALL (      18 calls)
     v_of_rho     :     21.20s CPU     22.15s WALL (      19 calls)
     newd         :     15.78s CPU     17.67s WALL (      19 calls)
     mix_rho      :      0.55s CPU      0.57s WALL (      18 calls)
     vdW_kernel   :      5.91s CPU      5.92s WALL (       1 calls)

     Called by c_bands:
     init_us_2    :     11.07s CPU     11.17s WALL (    2812 calls)
     cegterg      :   3869.68s CPU   3880.17s WALL (    1332 calls)

     Called by *egterg:
     cdiaghg      :    228.86s CPU    228.94s WALL (    6954 calls)
     h_psi        :   2171.40s CPU   2180.08s WALL (    7028 calls)
     s_psi        :    467.41s CPU    467.64s WALL (    7028 calls)
     g_psi        :      1.20s CPU      1.21s WALL (    5622 calls)

     Called by h_psi:
     h_psi:calbec :    518.80s CPU    519.74s WALL (    7028 calls)
     vloc_psi     :   1156.09s CPU   1163.49s WALL (    7028 calls)
     add_vuspsi   :    490.80s CPU    491.10s WALL (    7028 calls)

     General routines
     calbec       :    766.38s CPU    767.78s WALL (    8656 calls)
     fft          :     10.13s CPU     10.52s WALL (    1256 calls)
     ffts         :      0.06s CPU      0.07s WALL (      37 calls)
     fftw         :   1218.44s CPU   1227.04s WALL (  797372 calls)
     interpolate  :      0.17s CPU      0.19s WALL (      19 calls)

     Parallel routines
     fft_scatt_xy :     36.86s CPU     37.31s WALL (  798665 calls)
     fft_scatt_yz :    831.95s CPU    834.12s WALL (  798665 calls)

     PWSCF        :      1h22m CPU      1h24m WALL


   This run was terminated on:  15:27:15  25Jun2022            

=------------------------------------------------------------------------------=
   JOB DONE.
=------------------------------------------------------------------------------=
