
     Program PWSCF v.6.6 starts on 25Jun2022 at 15:27:19 

     This program is part of the open-source Quantum ESPRESSO suite
     for quantum simulation of materials; please cite
         "P. Giannozzi et al., J. Phys.:Condens. Matter 21 395502 (2009);
         "P. Giannozzi et al., J. Phys.:Condens. Matter 29 465901 (2017);
          URL http://www.quantum-espresso.org", 
     in publications or presentations arising from this work. More details at
     http://www.quantum-espresso.org/quote

     Parallel version (MPI), running on    37 processors

     MPI processes distributed on     1 nodes
     R & G space division:  proc/nbgrp/npool/nimage =      37
     Fft bands division:     nmany     =       1
     Reading input from V2Pd2.in
Warning: card &CELL ignored
Warning: card / ignored

     Current dimensions of program PWSCF are:
     Max number of different atomic species (ntypx) = 10
     Max number of k-points (npk) =  40000
     Max angular momentum in pseudopotentials (lmaxx) =  3
     Presently stress not available with electric field and gates

     Message from routine cell_base_init:
     DEPRECATED: use true lattice parameter, not A to a.u. conversion factor
     file V.pbe-spnl-rrkjus_psl.1.0.0.UPF: wavefunction(s)  3P 3D renormalized
     file Pd.pbe-n-rrkjus_psl.1.0.0.UPF: wavefunction(s)  4D renormalized

     **************************************************************************
     Initializing libbeef V0.1.2 with the BEEF-vdW functional.
     Citation: Wellendorff et al., PRB 85, 235149 (2012).
     **************************************************************************


     IMPORTANT: XC functional enforced from input :
     Exchange-correlation= BEEF-VDW
                           (   1   4  43  14   2   0   0)
     Any further DFT definition will be discarded
     Please, verify this is what you really want


     Subspace diagonalization in iterative solution of the eigenvalue problem:
     a serial algorithm will be used

     Found symmetry operation: I + ( -0.5000  0.0000  0.0000)
     This is a supercell, fractional translations are disabled

     Parallelization info
     --------------------
     sticks:   dense  smooth     PW     G-vecs:    dense   smooth      PW
     Min         109      43     12                25181     6361     996
     Max         110      44     13                25194     6384    1015
     Sum        4049    1619    475               931865   235813   37277



     bravais-lattice index     =            0
     lattice parameter (alat)  =       1.8897  a.u.
     unit-cell volume          =    4264.4101 (a.u.)^3
     number of atoms/cell      =           12
     number of atomic types    =            2
     number of electrons       =       138.00
     number of Kohn-Sham states=           83
     kinetic-energy cutoff     =      55.1240  Ry
     charge density cutoff     =     551.2396  Ry
     convergence threshold     =      1.0E-05
     mixing beta               =       0.1000
     number of iterations used =           10  plain     mixing
     Exchange-correlation= BEEF-VDW
                           (   1   4  43  14   2   0   0)

     celldm(1)=   1.889726  celldm(2)=   0.000000  celldm(3)=   0.000000
     celldm(4)=   0.000000  celldm(5)=   0.000000  celldm(6)=   0.000000

     crystal axes: (cart. coord. in units of alat)
               a(1) = (   5.402779   0.000000   0.000000 )  
               a(2) = (  -2.701390   4.782127   0.000000 )  
               a(3) = (   0.000000   0.000000  24.458180 )  

     reciprocal axes: (cart. coord. in units 2 pi/alat)
               b(1) = (  0.185090  0.104556 -0.000000 )  
               b(2) = (  0.000000  0.209112  0.000000 )  
               b(3) = (  0.000000 -0.000000  0.040886 )  


     PseudoPot. # 1 for V  read from file:
     ../pseudo/V.pbe-spnl-rrkjus_psl.1.0.0.UPF
     MD5 check sum: 79b3eb63147daf0b665d9f1bcc691206
     Pseudo is Ultrasoft + core correction, Zval = 13.0
     Generated using "atomic" code by A. Dal Corso v.6.2.2
     Using radial grid of 1181 points,  6 beta functions with: 
                l(1) =   0
                l(2) =   0
                l(3) =   1
                l(4) =   1
                l(5) =   2
                l(6) =   2
     Q(r) pseudized with 0 coefficients 


     PseudoPot. # 2 for Pd read from file:
     ../pseudo/Pd.pbe-n-rrkjus_psl.1.0.0.UPF
     MD5 check sum: d9f693bf1c5b493397a6bd6f2231cfc3
     Pseudo is Ultrasoft + core correction, Zval = 10.0
     Generated using "atomic" code by A. Dal Corso v.6.3
     Using radial grid of 1235 points,  6 beta functions with: 
                l(1) =   0
                l(2) =   0
                l(3) =   1
                l(4) =   1
                l(5) =   2
                l(6) =   2
     Q(r) pseudized with 0 coefficients 


     atomic species   valence    mass     pseudopotential
        V             13.00    50.94150     V ( 1.00)
        Pd            10.00   106.42000     Pd( 1.00)

     No symmetry found



   Cartesian axes

     site n.     atom                  positions (alat units)
         1           V   tau(   1) = (   0.0000000   0.0000000  10.0000000  )
         2           V   tau(   2) = (   2.7013897   0.0000000  10.0000000  )
         3           Pd  tau(   3) = (   1.3506949   2.3910636  10.0000000  )
         4           Pd  tau(   4) = (  -1.3506949   2.3910636  10.0000000  )
         5           V   tau(   5) = (   2.7013897   1.5259959  12.2290902  )
         6           V   tau(   6) = (   0.0000000   1.5259959  12.2290902  )
         7           Pd  tau(   7) = (  -1.3506949   3.9170595  12.2290902  )
         8           Pd  tau(   8) = (   1.3506949   3.9170595  12.2290902  )
         9           V   tau(   9) = (  -0.0000002   3.0232652  14.2915299  )
        10           V   tau(  10) = (   2.7013896   3.0232718  14.2915271  )
        11           Pd  tau(  11) = (   4.0520979   0.7385394  14.4824256  )
        12           Pd  tau(  12) = (   1.3506813   0.7385397  14.4824263  )

     number of k points=    74  Fermi-Dirac smearing, width (Ry)=  0.0100
                       cart. coord. in units 2pi/alat
        k(    1) = (   0.0000000   0.0000000   0.0000000), wk =   0.0138889
        k(    2) = (   0.0000000   0.0174260   0.0000000), wk =   0.0277778
        k(    3) = (   0.0000000   0.0348520   0.0000000), wk =   0.0277778
        k(    4) = (   0.0000000   0.0522780   0.0000000), wk =   0.0277778
        k(    5) = (   0.0000000   0.0697040   0.0000000), wk =   0.0277778
        k(    6) = (   0.0000000   0.0871300   0.0000000), wk =   0.0277778
        k(    7) = (   0.0000000  -0.1045560   0.0000000), wk =   0.0138889
        k(    8) = (   0.0154242   0.0087130   0.0000000), wk =   0.0277778
        k(    9) = (   0.0154242   0.0261390   0.0000000), wk =   0.0277778
        k(   10) = (   0.0154242   0.0435650   0.0000000), wk =   0.0277778
        k(   11) = (   0.0154242   0.0609910   0.0000000), wk =   0.0277778
        k(   12) = (   0.0154242   0.0784170   0.0000000), wk =   0.0277778
        k(   13) = (   0.0154242   0.0958430   0.0000000), wk =   0.0277778
        k(   14) = (   0.0154242  -0.0958430   0.0000000), wk =   0.0277778
        k(   15) = (   0.0154242  -0.0784170   0.0000000), wk =   0.0277778
        k(   16) = (   0.0154242  -0.0609910   0.0000000), wk =   0.0277778
        k(   17) = (   0.0154242  -0.0435650   0.0000000), wk =   0.0277778
        k(   18) = (   0.0154242  -0.0261390   0.0000000), wk =   0.0277778
        k(   19) = (   0.0154242  -0.0087130   0.0000000), wk =   0.0277778
        k(   20) = (   0.0308483   0.0174260   0.0000000), wk =   0.0277778
        k(   21) = (   0.0308483   0.0348520   0.0000000), wk =   0.0277778
        k(   22) = (   0.0308483   0.0522780   0.0000000), wk =   0.0277778
        k(   23) = (   0.0308483   0.0697040   0.0000000), wk =   0.0277778
        k(   24) = (   0.0308483   0.0871300   0.0000000), wk =   0.0277778
        k(   25) = (   0.0308483   0.1045560   0.0000000), wk =   0.0277778
        k(   26) = (   0.0308483  -0.0871300   0.0000000), wk =   0.0277778
        k(   27) = (   0.0308483  -0.0697040   0.0000000), wk =   0.0277778
        k(   28) = (   0.0308483  -0.0522780   0.0000000), wk =   0.0277778
        k(   29) = (   0.0308483  -0.0348520   0.0000000), wk =   0.0277778
        k(   30) = (   0.0308483  -0.0174260   0.0000000), wk =   0.0277778
        k(   31) = (   0.0308483   0.0000000   0.0000000), wk =   0.0277778
        k(   32) = (   0.0462725   0.0261390   0.0000000), wk =   0.0277778
        k(   33) = (   0.0462725   0.0435650   0.0000000), wk =   0.0277778
        k(   34) = (   0.0462725   0.0609910   0.0000000), wk =   0.0277778
        k(   35) = (   0.0462725   0.0784170   0.0000000), wk =   0.0277778
        k(   36) = (   0.0462725   0.0958430   0.0000000), wk =   0.0277778
        k(   37) = (   0.0462725   0.1132690   0.0000000), wk =   0.0277778
        k(   38) = (   0.0462725  -0.0784170   0.0000000), wk =   0.0277778
        k(   39) = (   0.0462725  -0.0609910   0.0000000), wk =   0.0277778
        k(   40) = (   0.0462725  -0.0435650   0.0000000), wk =   0.0277778
        k(   41) = (   0.0462725  -0.0261390   0.0000000), wk =   0.0277778
        k(   42) = (   0.0462725  -0.0087130   0.0000000), wk =   0.0277778
        k(   43) = (   0.0462725   0.0087130   0.0000000), wk =   0.0277778
        k(   44) = (   0.0616966   0.0348520   0.0000000), wk =   0.0277778
        k(   45) = (   0.0616966   0.0522780   0.0000000), wk =   0.0277778
        k(   46) = (   0.0616966   0.0697040   0.0000000), wk =   0.0277778
        k(   47) = (   0.0616966   0.0871300   0.0000000), wk =   0.0277778
        k(   48) = (   0.0616966   0.1045560   0.0000000), wk =   0.0277778
        k(   49) = (   0.0616966   0.1219820   0.0000000), wk =   0.0277778
        k(   50) = (   0.0616966  -0.0697040   0.0000000), wk =   0.0277778
        k(   51) = (   0.0616966  -0.0522780   0.0000000), wk =   0.0277778
        k(   52) = (   0.0616966  -0.0348520   0.0000000), wk =   0.0277778
        k(   53) = (   0.0616966  -0.0174260   0.0000000), wk =   0.0277778
        k(   54) = (   0.0616966   0.0000000   0.0000000), wk =   0.0277778
        k(   55) = (   0.0616966   0.0174260   0.0000000), wk =   0.0277778
        k(   56) = (   0.0771208   0.0435650   0.0000000), wk =   0.0277778
        k(   57) = (   0.0771208   0.0609910   0.0000000), wk =   0.0277778
        k(   58) = (   0.0771208   0.0784170   0.0000000), wk =   0.0277778
        k(   59) = (   0.0771208   0.0958430   0.0000000), wk =   0.0277778
        k(   60) = (   0.0771208   0.1132690   0.0000000), wk =   0.0277778
        k(   61) = (   0.0771208   0.1306950   0.0000000), wk =   0.0277778
        k(   62) = (   0.0771208  -0.0609910   0.0000000), wk =   0.0277778
        k(   63) = (   0.0771208  -0.0435650   0.0000000), wk =   0.0277778
        k(   64) = (   0.0771208  -0.0261390   0.0000000), wk =   0.0277778
        k(   65) = (   0.0771208  -0.0087130   0.0000000), wk =   0.0277778
        k(   66) = (   0.0771208   0.0087130   0.0000000), wk =   0.0277778
        k(   67) = (   0.0771208   0.0261390   0.0000000), wk =   0.0277778
        k(   68) = (  -0.0925450  -0.0522780   0.0000000), wk =   0.0138889
        k(   69) = (  -0.0925450  -0.0348520   0.0000000), wk =   0.0277778
        k(   70) = (  -0.0925450  -0.0174260   0.0000000), wk =   0.0277778
        k(   71) = (  -0.0925450  -0.0000000   0.0000000), wk =   0.0277778
        k(   72) = (  -0.0925450   0.0174260   0.0000000), wk =   0.0277778
        k(   73) = (  -0.0925450   0.0348520   0.0000000), wk =   0.0277778
        k(   74) = (  -0.0925450  -0.1568340   0.0000000), wk =   0.0138889

     Dense  grid:   931865 G-vectors     FFT dimensions: (  80,  80, 360)

     Smooth grid:   235813 G-vectors     FFT dimensions: (  50,  50, 225)

     Estimated max dynamical RAM per process >     176.88 MB

     Estimated total dynamical RAM >       6.39 GB

     Initial potential from superposition of free atoms

     starting charge  137.99112, renormalised to  138.00000

     negative rho (up, down):  1.411E-03 0.000E+00


     %%%%%%%%%%%%%%%%%%%%%%%%%%%%%%%%%%%%%%%%%%%%%%%%%%%%%%%%%%%%%%%%%%%%%%%%
     %                                                                      %
     % You are using vdW-DF, which was implemented by the Thonhauser group. %
     % Please cite the following two papers that made this development      %
     % possible and the two reviews that describe the various versions:     %
     %                                                                      %
     %   T. Thonhauser et al., PRL 115, 136402 (2015).                      %
     %   T. Thonhauser et al., PRB 76, 125112 (2007).                       %
     %   K. Berland et al., Rep. Prog. Phys. 78, 066501 (2015).             %
     %   D.C. Langreth et al., J. Phys.: Condens. Matter 21, 084203 (2009). %
     %                                                                      %
     %                                                                      %
     % If you are calculating the stress with vdW-DF, please also cite:     %
     %                                                                      %
     %   R. Sabatini et al., J. Phys.: Condens. Matter 24, 424209 (2012).   %
     %                                                                      %
     %%%%%%%%%%%%%%%%%%%%%%%%%%%%%%%%%%%%%%%%%%%%%%%%%%%%%%%%%%%%%%%%%%%%%%%%



     Adding external electric field

     Computed dipole along edir(3) : 
        Dipole               -0.0001 Ry au,         -0.0001 Debye
        Dipole field         -0.0000 Ry au, 

        Potential amp.        0.0000 Ry
        Total length         45.0638 bohr

     Starting wfcs are  114 randomized atomic wfcs

     total cpu time spent up to now is      113.4 secs

     Self-consistent Calculation

     iteration #  1     ecut=    55.12 Ry     beta= 0.10
     Davidson diagonalization with overlap
     ethr =  1.00E-02,  avg # of iterations =  2.0

     negative rho (up, down):  1.313E-03 0.000E+00

     Adding external electric field

     Computed dipole along edir(3) : 
        Dipole               -0.4040 Ry au,         -1.0269 Debye
        Dipole field         -0.0012 Ry au, 

        Potential amp.        0.1073 Ry
        Total length         45.0638 bohr


     total cpu time spent up to now is      462.2 secs

     total energy              =   -1287.77249565 Ry
     estimated scf accuracy    <       7.04450884 Ry

     iteration #  2     ecut=    55.12 Ry     beta= 0.10
     Davidson diagonalization with overlap
     ethr =  5.10E-03,  avg # of iterations =  2.9

     negative rho (up, down):  2.858E-03 0.000E+00

     Adding external electric field

     Computed dipole along edir(3) : 
        Dipole                0.6272 Ry au,          1.5942 Debye
        Dipole field          0.0018 Ry au, 

        Potential amp.       -0.1666 Ry
        Total length         45.0638 bohr


     total cpu time spent up to now is      619.6 secs

     total energy              =   -1287.62366461 Ry
     estimated scf accuracy    <      27.91170397 Ry

     iteration #  3     ecut=    55.12 Ry     beta= 0.10
     Davidson diagonalization with overlap
     ethr =  5.10E-03,  avg # of iterations =  1.9

     negative rho (up, down):  3.896E-03 0.000E+00

     Adding external electric field

     Computed dipole along edir(3) : 
        Dipole               -0.0340 Ry au,         -0.0865 Debye
        Dipole field         -0.0001 Ry au, 

        Potential amp.        0.0090 Ry
        Total length         45.0638 bohr


     total cpu time spent up to now is      782.2 secs

     total energy              =   -1288.08944675 Ry
     estimated scf accuracy    <      40.46919806 Ry

     iteration #  4     ecut=    55.12 Ry     beta= 0.10
     Davidson diagonalization with overlap
     ethr =  5.10E-03,  avg # of iterations =  1.0

     negative rho (up, down):  5.119E-03 0.000E+00

     Adding external electric field

     Computed dipole along edir(3) : 
        Dipole               -0.0055 Ry au,         -0.0141 Debye
        Dipole field         -0.0000 Ry au, 

        Potential amp.        0.0015 Ry
        Total length         45.0638 bohr


     total cpu time spent up to now is      915.2 secs

     total energy              =   -1288.59440148 Ry
     estimated scf accuracy    <       0.89817850 Ry

     iteration #  5     ecut=    55.12 Ry     beta= 0.10
     Davidson diagonalization with overlap
     ethr =  6.51E-04,  avg # of iterations =  1.7

     negative rho (up, down):  1.547E-03 0.000E+00

     Adding external electric field

     Computed dipole along edir(3) : 
        Dipole               -0.0313 Ry au,         -0.0797 Debye
        Dipole field         -0.0001 Ry au, 

        Potential amp.        0.0083 Ry
        Total length         45.0638 bohr


     total cpu time spent up to now is     1200.2 secs

     total energy              =   -1288.55317128 Ry
     estimated scf accuracy    <       0.33635210 Ry

     iteration #  6     ecut=    55.12 Ry     beta= 0.10
     Davidson diagonalization with overlap
     ethr =  2.44E-04,  avg # of iterations =  3.4

     negative rho (up, down):  5.947E-03 0.000E+00

     Adding external electric field

     Computed dipole along edir(3) : 
        Dipole                0.0279 Ry au,          0.0710 Debye
        Dipole field          0.0001 Ry au, 

        Potential amp.       -0.0074 Ry
        Total length         45.0638 bohr


     total cpu time spent up to now is     1332.9 secs

     total energy              =   -1288.55537058 Ry
     estimated scf accuracy    <       0.18000281 Ry

     iteration #  7     ecut=    55.12 Ry     beta= 0.10
     Davidson diagonalization with overlap
     ethr =  1.30E-04,  avg # of iterations =  5.4

     negative rho (up, down):  6.501E-03 0.000E+00

     Adding external electric field

     Computed dipole along edir(3) : 
        Dipole               -0.0149 Ry au,         -0.0379 Debye
        Dipole field         -0.0000 Ry au, 

        Potential amp.        0.0040 Ry
        Total length         45.0638 bohr


     total cpu time spent up to now is     1471.5 secs

     total energy              =   -1288.56855300 Ry
     estimated scf accuracy    <       0.11691620 Ry

     iteration #  8     ecut=    55.12 Ry     beta= 0.10
     Davidson diagonalization with overlap
     ethr =  8.47E-05,  avg # of iterations =  1.9

     negative rho (up, down):  7.625E-03 0.000E+00

     Adding external electric field

     Computed dipole along edir(3) : 
        Dipole               -0.0087 Ry au,         -0.0222 Debye
        Dipole field         -0.0000 Ry au, 

        Potential amp.        0.0023 Ry
        Total length         45.0638 bohr


     total cpu time spent up to now is     1626.5 secs

     total energy              =   -1288.57245065 Ry
     estimated scf accuracy    <       0.02170411 Ry

     iteration #  9     ecut=    55.12 Ry     beta= 0.10
     Davidson diagonalization with overlap
     c_bands:  1 eigenvalues not converged
     c_bands:  1 eigenvalues not converged
     c_bands:  2 eigenvalues not converged
     c_bands:  1 eigenvalues not converged
     c_bands:  1 eigenvalues not converged
     c_bands:  2 eigenvalues not converged
     c_bands:  1 eigenvalues not converged
     c_bands:  1 eigenvalues not converged
     c_bands:  2 eigenvalues not converged
     c_bands:  2 eigenvalues not converged
     c_bands:  1 eigenvalues not converged
     c_bands:  1 eigenvalues not converged
     c_bands:  1 eigenvalues not converged
     c_bands:  2 eigenvalues not converged
     ethr =  1.57E-05,  avg # of iterations = 13.1

     negative rho (up, down):  9.906E-03 0.000E+00

     Adding external electric field

     Computed dipole along edir(3) : 
        Dipole               -0.0125 Ry au,         -0.0318 Debye
        Dipole field         -0.0000 Ry au, 

        Potential amp.        0.0033 Ry
        Total length         45.0638 bohr


     total cpu time spent up to now is     2344.4 secs

     total energy              =   -1288.57405924 Ry
     estimated scf accuracy    <       0.02589722 Ry

     iteration # 10     ecut=    55.12 Ry     beta= 0.10
     Davidson diagonalization with overlap
     ethr =  1.57E-05,  avg # of iterations =  2.7

     negative rho (up, down):  1.737E-02 0.000E+00

     Adding external electric field

     Computed dipole along edir(3) : 
        Dipole               -0.0247 Ry au,         -0.0629 Debye
        Dipole field         -0.0001 Ry au, 

        Potential amp.        0.0066 Ry
        Total length         45.0638 bohr


     total cpu time spent up to now is     2456.3 secs

     total energy              =   -1288.57443976 Ry
     estimated scf accuracy    <       0.00913665 Ry

     iteration # 11     ecut=    55.12 Ry     beta= 0.10
     Davidson diagonalization with overlap
     c_bands:  1 eigenvalues not converged
     c_bands:  1 eigenvalues not converged
     ethr =  6.62E-06,  avg # of iterations =  8.4

     negative rho (up, down):  2.349E-02 0.000E+00

     Adding external electric field

     Computed dipole along edir(3) : 
        Dipole               -0.0334 Ry au,         -0.0849 Debye
        Dipole field         -0.0001 Ry au, 

        Potential amp.        0.0089 Ry
        Total length         45.0638 bohr


     total cpu time spent up to now is     2618.0 secs

     total energy              =   -1288.57242850 Ry
     estimated scf accuracy    <       0.04322169 Ry

     iteration # 12     ecut=    55.12 Ry     beta= 0.10
     Davidson diagonalization with overlap
     c_bands:  2 eigenvalues not converged
     ethr =  6.62E-06,  avg # of iterations =  5.6

     negative rho (up, down):  1.645E-02 0.000E+00

     Adding external electric field

     Computed dipole along edir(3) : 
        Dipole               -0.0137 Ry au,         -0.0349 Debye
        Dipole field         -0.0000 Ry au, 

        Potential amp.        0.0036 Ry
        Total length         45.0638 bohr


     total cpu time spent up to now is     2764.3 secs

     total energy              =   -1288.57316691 Ry
     estimated scf accuracy    <       0.03590163 Ry

     iteration # 13     ecut=    55.12 Ry     beta= 0.10
     Davidson diagonalization with overlap
     ethr =  6.62E-06,  avg # of iterations =  2.8

     negative rho (up, down):  1.625E-02 0.000E+00

     Adding external electric field

     Computed dipole along edir(3) : 
        Dipole               -0.0135 Ry au,         -0.0344 Debye
        Dipole field         -0.0000 Ry au, 

        Potential amp.        0.0036 Ry
        Total length         45.0638 bohr


     total cpu time spent up to now is     2885.3 secs

     total energy              =   -1288.57482893 Ry
     estimated scf accuracy    <       0.00151514 Ry

     iteration # 14     ecut=    55.12 Ry     beta= 0.10
     Davidson diagonalization with overlap
     c_bands:  1 eigenvalues not converged
     c_bands:  1 eigenvalues not converged
     ethr =  1.10E-06,  avg # of iterations =  7.4

     negative rho (up, down):  1.562E-02 0.000E+00

     Adding external electric field

     Computed dipole along edir(3) : 
        Dipole               -0.0163 Ry au,         -0.0414 Debye
        Dipole field         -0.0000 Ry au, 

        Potential amp.        0.0043 Ry
        Total length         45.0638 bohr


     total cpu time spent up to now is     3041.7 secs

     total energy              =   -1288.57533434 Ry
     estimated scf accuracy    <       0.00103903 Ry

     iteration # 15     ecut=    55.12 Ry     beta= 0.10
     Davidson diagonalization with overlap
     ethr =  7.53E-07,  avg # of iterations =  1.3

     negative rho (up, down):  1.449E-02 0.000E+00

     Adding external electric field

     Computed dipole along edir(3) : 
        Dipole               -0.0174 Ry au,         -0.0443 Debye
        Dipole field         -0.0001 Ry au, 

        Potential amp.        0.0046 Ry
        Total length         45.0638 bohr


     total cpu time spent up to now is     3142.5 secs

     total energy              =   -1288.57567570 Ry
     estimated scf accuracy    <       0.00031241 Ry

     iteration # 16     ecut=    55.12 Ry     beta= 0.10
     Davidson diagonalization with overlap
     ethr =  2.26E-07,  avg # of iterations =  5.9

     negative rho (up, down):  1.383E-02 0.000E+00

     Adding external electric field

     Computed dipole along edir(3) : 
        Dipole               -0.0177 Ry au,         -0.0449 Debye
        Dipole field         -0.0001 Ry au, 

        Potential amp.        0.0047 Ry
        Total length         45.0638 bohr


     total cpu time spent up to now is     3294.1 secs

     total energy              =   -1288.57586490 Ry
     estimated scf accuracy    <       0.00104127 Ry

     iteration # 17     ecut=    55.12 Ry     beta= 0.10
     Davidson diagonalization with overlap
     ethr =  2.26E-07,  avg # of iterations =  2.0

     negative rho (up, down):  1.347E-02 0.000E+00

     Adding external electric field

     Computed dipole along edir(3) : 
        Dipole               -0.0157 Ry au,         -0.0398 Debye
        Dipole field         -0.0000 Ry au, 

        Potential amp.        0.0042 Ry
        Total length         45.0638 bohr


     total cpu time spent up to now is     3403.5 secs

     total energy              =   -1288.57586459 Ry
     estimated scf accuracy    <       0.00055309 Ry

     iteration # 18     ecut=    55.12 Ry     beta= 0.10
     Davidson diagonalization with overlap
     ethr =  2.26E-07,  avg # of iterations =  4.5

     negative rho (up, down):  1.209E-02 0.000E+00

     Adding external electric field

     Computed dipole along edir(3) : 
        Dipole               -0.0154 Ry au,         -0.0391 Debye
        Dipole field         -0.0000 Ry au, 

        Potential amp.        0.0041 Ry
        Total length         45.0638 bohr


     total cpu time spent up to now is     3525.6 secs

     total energy              =   -1288.57626010 Ry
     estimated scf accuracy    <       0.00003650 Ry

     iteration # 19     ecut=    55.12 Ry     beta= 0.10
     Davidson diagonalization with overlap
     c_bands:  1 eigenvalues not converged
     c_bands:  1 eigenvalues not converged
     ethr =  2.64E-08,  avg # of iterations =  8.5

     negative rho (up, down):  1.078E-02 0.000E+00

     Adding external electric field

     Computed dipole along edir(3) : 
        Dipole               -0.0155 Ry au,         -0.0394 Debye
        Dipole field         -0.0000 Ry au, 

        Potential amp.        0.0041 Ry
        Total length         45.0638 bohr


     total cpu time spent up to now is     3678.2 secs

     total energy              =   -1288.57659095 Ry
     estimated scf accuracy    <       0.00002305 Ry

     iteration # 20     ecut=    55.12 Ry     beta= 0.10
     Davidson diagonalization with overlap
     ethr =  1.67E-08,  avg # of iterations =  2.4

     negative rho (up, down):  1.586E-03 0.000E+00

     Adding external electric field

     Computed dipole along edir(3) : 
        Dipole               -0.0249 Ry au,         -0.0632 Debye
        Dipole field         -0.0001 Ry au, 

        Potential amp.        0.0066 Ry
        Total length         45.0638 bohr


     total cpu time spent up to now is     3795.3 secs

     End of self-consistent calculation

          k = 0.0000 0.0000 0.0000 ( 29437 PWs)   bands (ev):

   -63.8488 -63.7984 -63.7979 -63.7480 -63.7464 -63.6974 -37.7773 -37.7708
   -37.7302 -37.7239 -37.6894 -37.6772 -37.6531 -37.6486 -37.6476 -37.6280
   -37.6263 -37.6018 -37.5802 -37.3583 -37.2946 -37.2554 -37.2468 -37.2198
    -5.9134  -4.5893  -4.4834  -4.4342  -4.4308  -4.3307  -4.0699  -3.8637
    -3.7867  -3.7655  -3.7501  -3.6451  -3.6364  -3.5443  -3.0258  -2.9264
    -2.6382  -2.4913  -2.3885  -2.3596  -2.2354  -2.0269  -1.9644  -1.9526
    -1.8840  -1.7047  -1.5104  -1.3792  -1.3711  -0.8469  -0.6611  -0.3445
    -0.2514  -0.2242  -0.1524  -0.0333   0.2355   0.2530   0.2989   0.5670
     0.6704   0.7992   0.8054   0.8769   1.2502   1.2704   1.3588   1.3748
     1.4322   1.4707   1.7962   1.9312   2.0110   2.1501   2.1532   2.2532
     2.4227   2.4235   2.4902

          k = 0.0000 0.0174 0.0000 ( 29431 PWs)   bands (ev):

   -63.8488 -63.7984 -63.7979 -63.7480 -63.7464 -63.6974 -37.7775 -37.7709
   -37.7303 -37.7239 -37.6898 -37.6773 -37.6532 -37.6485 -37.6474 -37.6281
   -37.6264 -37.6020 -37.5804 -37.3584 -37.2946 -37.2554 -37.2470 -37.2199
    -5.8613  -4.5642  -4.4713  -4.4078  -4.3886  -4.2974  -4.0563  -3.8558
    -3.7643  -3.7370  -3.7210  -3.6256  -3.6172  -3.5222  -3.0290  -2.8911
    -2.6393  -2.4847  -2.4095  -2.3561  -2.1762  -2.0791  -1.9433  -1.9254
    -1.8705  -1.7295  -1.5194  -1.3675  -1.3531  -0.8524  -0.6586  -0.3775
    -0.3033  -0.2790  -0.1630  -0.0282   0.1838   0.1930   0.2441   0.5135
     0.6405   0.7527   0.7624   0.8784   1.1382   1.1522   1.2604   1.3668
     1.4175   1.5299   1.7824   1.8527   1.9383   2.0756   2.1699   2.2115
     2.2904   2.4055   2.4700

          k = 0.0000 0.0349 0.0000 ( 29435 PWs)   bands (ev):

   -63.8487 -63.7983 -63.7979 -63.7480 -63.7464 -63.6973 -37.7780 -37.7713
   -37.7305 -37.7242 -37.6910 -37.6772 -37.6534 -37.6483 -37.6470 -37.6284
   -37.6268 -37.6026 -37.5809 -37.3585 -37.2948 -37.2555 -37.2470 -37.2199
    -5.7093  -4.4957  -4.4345  -4.3398  -4.2691  -4.2007  -4.0178  -3.8299
    -3.7049  -3.6510  -3.6414  -3.5653  -3.5575  -3.4590  -3.0400  -2.7909
    -2.6369  -2.4729  -2.4295  -2.3458  -2.1688  -2.0486  -1.9203  -1.8776
    -1.8302  -1.7951  -1.5455  -1.3335  -1.3033  -0.8679  -0.6517  -0.5843
    -0.3954  -0.3651  -0.1957  -0.0366  -0.0021   0.0448   0.1293   0.3891
     0.4683   0.6348   0.7477   0.8451   0.8772   0.9072   0.9876   1.3326
     1.3817   1.5874   1.6282   1.6459   1.6494   1.9863   2.0086   2.1341
     2.2463   2.3190   2.4144

          k = 0.0000 0.0523 0.0000 ( 29439 PWs)   bands (ev):

   -63.8487 -63.7982 -63.7979 -63.7480 -63.7464 -63.6973 -37.7787 -37.7718
   -37.7308 -37.7245 -37.6926 -37.6772 -37.6538 -37.6479 -37.6465 -37.6288
   -37.6273 -37.6035 -37.5817 -37.3586 -37.2950 -37.2556 -37.2471 -37.2200
    -5.4714  -4.4042  -4.3821  -4.2309  -4.1196  -4.0560  -3.9648  -3.7763
    -3.6206  -3.5422  -3.5201  -3.4567  -3.4456  -3.3651  -3.0603  -2.6510
    -2.6212  -2.4714  -2.4214  -2.3294  -2.2744  -1.9542  -1.8923  -1.8475
    -1.8191  -1.7689  -1.5832  -1.2838  -1.2319  -0.9453  -0.8902  -0.6421
    -0.5394  -0.4105  -0.2995  -0.2229  -0.2082  -0.1022   0.0160   0.2632
     0.2748   0.3976   0.6053   0.6103   0.6315   0.7310   0.7768   1.1767
     1.1959   1.1961   1.3206   1.5086   1.8840   1.8879   1.9311   2.0766
     2.2195   2.2256   2.2606

          k = 0.0000 0.0697 0.0000 ( 29434 PWs)   bands (ev):

   -63.8486 -63.7981 -63.7978 -63.7480 -63.7464 -63.6972 -37.7793 -37.7723
   -37.7311 -37.7249 -37.6941 -37.6773 -37.6541 -37.6477 -37.6460 -37.6292
   -37.6277 -37.6044 -37.5824 -37.3587 -37.2951 -37.2557 -37.2472 -37.2201
    -5.1794  -4.3252  -4.3164  -4.0956  -4.0057  -3.9379  -3.8761  -3.6890
    -3.5333  -3.4537  -3.3707  -3.2998  -3.2907  -3.2556  -3.0872  -2.6009
    -2.5465  -2.4871  -2.3637  -2.3482  -2.3096  -2.0150  -1.8703  -1.8663
    -1.7015  -1.6922  -1.5926  -1.3353  -1.2308  -1.1550  -0.9144  -0.6951
    -0.6321  -0.5708  -0.5323  -0.4500  -0.3164  -0.2701  -0.0343   0.1012
     0.1176   0.1424   0.3564   0.3586   0.3600   0.5051   0.6782   0.8018
     1.0325   1.0654   1.2805   1.4118   1.6901   1.7913   1.8972   2.0020
     2.1393   2.1746   2.2751

          k = 0.0000 0.0871 0.0000 ( 29468 PWs)   bands (ev):

   -63.8485 -63.7980 -63.7978 -63.7480 -63.7464 -63.6972 -37.7798 -37.7728
   -37.7313 -37.7251 -37.6954 -37.6773 -37.6543 -37.6474 -37.6456 -37.6295
   -37.6282 -37.6051 -37.5831 -37.3588 -37.2952 -37.2558 -37.2472 -37.2202
    -4.9042  -4.2732  -4.2539  -3.9829  -3.9718  -3.8847  -3.7403  -3.6104
    -3.4759  -3.3882  -3.2423  -3.1832  -3.1758  -3.1267  -3.1107  -2.6600
    -2.5250  -2.4088  -2.3338  -2.2922  -2.2843  -2.0010  -1.9848  -1.8480
    -1.7068  -1.6586  -1.6483  -1.4588  -1.1903  -1.0936  -0.9342  -0.8274
    -0.8020  -0.7768  -0.6245  -0.5994  -0.4673  -0.3202  -0.1490  -0.0546
     0.0111   0.0199   0.1822   0.1916   0.2173   0.3311   0.5375   0.5732
     0.9169   1.0763   1.2662   1.3825   1.4207   1.7179   1.8501   1.9278
     2.0566   2.1712   2.2003

          k = 0.0000-0.1046 0.0000 ( 29466 PWs)   bands (ev):

   -63.8485 -63.7980 -63.7978 -63.7480 -63.7464 -63.6972 -37.7800 -37.7729
   -37.7314 -37.7252 -37.6957 -37.6773 -37.6544 -37.6474 -37.6455 -37.6297
   -37.6283 -37.6053 -37.5833 -37.3588 -37.2952 -37.2558 -37.2472 -37.2202
    -4.7804  -4.2451  -4.2312  -4.0005  -3.9186  -3.8582  -3.6715  -3.5888
    -3.4606  -3.3633  -3.1846  -3.1757  -3.1368  -3.1236  -3.0587  -2.6930
    -2.5275  -2.3557  -2.3001  -2.2849  -2.1846  -2.0322  -1.9261  -1.9129
    -1.8413  -1.7379  -1.6280  -1.3890  -1.1753  -1.0693  -0.9424  -0.8929
    -0.8706  -0.8688  -0.7238  -0.6217  -0.4792  -0.3658  -0.2310  -0.0618
    -0.0354  -0.0232   0.1159   0.1409   0.1735   0.2727   0.4454   0.5219
     0.8825   1.1057   1.2631   1.3064   1.3772   1.6901   1.8340   1.8981
     2.0243   2.1697   2.1733

          k = 0.0154 0.0087 0.0000 ( 29460 PWs)   bands (ev):

   -63.8480 -63.7988 -63.7975 -63.7473 -63.7472 -63.6983 -37.7766 -37.7639
   -37.7311 -37.7231 -37.6888 -37.6781 -37.6484 -37.6478 -37.6464 -37.6256
   -37.6213 -37.6026 -37.5811 -37.3656 -37.2940 -37.2561 -37.2540 -37.2270
    -5.8566  -4.5587  -4.4406  -4.4013  -4.3796  -4.2981  -4.0416  -3.8311
    -3.7662  -3.7536  -3.7282  -3.6087  -3.6069  -3.5371  -3.0042  -2.9071
    -2.6390  -2.4801  -2.3951  -2.3405  -2.2214  -2.0754  -1.9902  -1.9516
    -1.8916  -1.7148  -1.5308  -1.4175  -1.4034  -0.9152  -0.6961  -0.3228
    -0.2381  -0.2170  -0.2120  -0.0079   0.1810   0.2745   0.3084   0.3944
     0.6755   0.7519   0.8072   0.8801   0.9945   1.2903   1.3083   1.3318
     1.3466   1.6101   1.7406   1.8579   1.9799   1.9866   2.1637   2.2684
     2.2839   2.4013   2.4070

          k = 0.0154 0.0261 0.0000 ( 29422 PWs)   bands (ev):

   -63.8479 -63.7988 -63.7974 -63.7473 -63.7472 -63.6982 -37.7769 -37.7642
   -37.7312 -37.7232 -37.6895 -37.6781 -37.6481 -37.6476 -37.6465 -37.6258
   -37.6214 -37.6030 -37.5814 -37.3656 -37.2940 -37.2561 -37.2540 -37.2270
    -5.7540  -4.5108  -4.4154  -4.3567  -4.2943  -4.2331  -4.0142  -3.8161
    -3.7250  -3.7030  -3.6707  -3.5690  -3.5680  -3.4947  -3.0106  -2.8392
    -2.6402  -2.4726  -2.4246  -2.3324  -2.1387  -2.1200  -1.9747  -1.9198
    -1.8619  -1.7618  -1.5472  -1.3942  -1.3745  -0.9256  -0.6947  -0.4287
    -0.3151  -0.2998  -0.2407   0.0016   0.0681   0.1406   0.2189   0.3324
     0.5885   0.6665   0.7585   0.8391   0.8763   1.0814   1.1046   1.3295
     1.5036   1.5048   1.6642   1.7278   1.7952   1.8348   2.1176   2.1285
     2.2971   2.3504   2.3704

          k = 0.0154 0.0436 0.0000 ( 29415 PWs)   bands (ev):

   -63.8478 -63.7987 -63.7974 -63.7473 -63.7472 -63.6982 -37.7775 -37.7646
   -37.7315 -37.7235 -37.6910 -37.6780 -37.6476 -37.6473 -37.6467 -37.6263
   -37.6218 -37.6038 -37.5820 -37.3658 -37.2942 -37.2562 -37.2541 -37.2271
    -5.5571  -4.4280  -4.3694  -4.2695  -4.1555  -4.1097  -3.9632  -3.7810
    -3.6558  -3.6102  -3.5640  -3.4904  -3.4844  -3.4168  -3.0248  -2.7174
    -2.6340  -2.4696  -2.4347  -2.3186  -2.2307  -1.9861  -1.9517  -1.8819
    -1.8296  -1.8184  -1.5778  -1.3548  -1.3234  -0.9443  -0.7400  -0.6838
    -0.4294  -0.3548  -0.3027  -0.1519  -0.0887  -0.0201   0.1025   0.2492
     0.4074   0.4667   0.6418   0.7256   0.7571   0.8546   0.8654   1.1867
     1.3061   1.3091   1.4465   1.5968   1.7389   1.8215   2.0380   2.0905
     2.1448   2.2537   2.3581

          k = 0.0154 0.0610 0.0000 ( 29435 PWs)   bands (ev):

   -63.8478 -63.7987 -63.7973 -63.7473 -63.7472 -63.6981 -37.7782 -37.7652
   -37.7318 -37.7239 -37.6926 -37.6781 -37.6473 -37.6471 -37.6469 -37.6267
   -37.6222 -37.6047 -37.5828 -37.3659 -37.2944 -37.2563 -37.2542 -37.2272
    -5.2866  -4.3351  -4.3136  -4.1456  -4.0225  -3.9603  -3.8968  -3.7106
    -3.5739  -3.5063  -3.4268  -3.3643  -3.3582  -3.3158  -3.0459  -2.6146
    -2.5870  -2.4845  -2.4079  -2.3251  -2.2994  -1.9864  -1.9309  -1.8672
    -1.7689  -1.7563  -1.6103  -1.3160  -1.2671  -1.1143  -0.9641  -0.6893
    -0.5738  -0.5030  -0.4171  -0.3877  -0.2609  -0.1616   0.0318   0.1497
     0.2113   0.2434   0.3920   0.5194   0.5226   0.6350   0.7340   0.8609
     1.0984   1.1619   1.2938   1.4635   1.7489   1.8090   1.9231   2.0436
     2.1080   2.1799   2.3293

          k = 0.0154 0.0784 0.0000 ( 29439 PWs)   bands (ev):

   -63.8477 -63.7987 -63.7972 -63.7473 -63.7472 -63.6981 -37.7787 -37.7657
   -37.7320 -37.7242 -37.6940 -37.6781 -37.6475 -37.6468 -37.6465 -37.6272
   -37.6226 -37.6055 -37.5836 -37.3659 -37.2945 -37.2564 -37.2542 -37.2273
    -4.9887  -4.2590  -4.2575  -4.0083  -3.9577  -3.8818  -3.7714  -3.6175
    -3.5069  -3.4209  -3.2922  -3.2313  -3.2224  -3.1952  -3.0630  -2.6368
    -2.5299  -2.4706  -2.3499  -2.3390  -2.2795  -2.0211  -1.9438  -1.9109
    -1.7207  -1.6998  -1.5392  -1.4864  -1.2730  -1.2079  -0.9870  -0.7673
    -0.7311  -0.6838  -0.6748  -0.4453  -0.3861  -0.3239  -0.0691   0.0120
     0.0413   0.1185   0.2110   0.3193   0.3235   0.4468   0.4816   0.7007
     0.9734   1.0779   1.2756   1.4091   1.5331   1.7120   1.8749   1.9637
     2.1228   2.1631   2.2436

          k = 0.0154 0.0958 0.0000 ( 29474 PWs)   bands (ev):

   -63.8476 -63.7987 -63.7971 -63.7473 -63.7472 -63.6981 -37.7791 -37.7659
   -37.7322 -37.7244 -37.6948 -37.6781 -37.6476 -37.6466 -37.6463 -37.6274
   -37.6228 -37.6060 -37.5840 -37.3660 -37.2946 -37.2565 -37.2543 -37.2273
    -4.7652  -4.2158  -4.2134  -3.9749  -3.9086  -3.8336  -3.6578  -3.5642
    -3.4789  -3.3732  -3.2127  -3.1803  -3.1511  -3.1052  -3.0529  -2.6996
    -2.5246  -2.3595  -2.3502  -2.2687  -2.2142  -2.0831  -1.9484  -1.9199
    -1.7559  -1.7387  -1.6868  -1.4226  -1.2758  -1.1822  -1.0161  -0.9296
    -0.8562  -0.7951  -0.6816  -0.6342  -0.3988  -0.3560  -0.2612  -0.0562
     0.0076   0.0463   0.1340   0.2134   0.2300   0.3101   0.3484   0.6068
     0.8929   1.1065   1.2701   1.3654   1.3941   1.6671   1.8445   1.9077
     2.0442   2.1652   2.1854

          k = 0.0154-0.0958 0.0000 ( 29474 PWs)   bands (ev):

   -63.8476 -63.7987 -63.7971 -63.7473 -63.7472 -63.6981 -37.7791 -37.7659
   -37.7322 -37.7244 -37.6948 -37.6781 -37.6476 -37.6466 -37.6463 -37.6274
   -37.6228 -37.6060 -37.5840 -37.3660 -37.2946 -37.2565 -37.2543 -37.2273
    -4.7652  -4.2158  -4.2134  -3.9749  -3.9086  -3.8336  -3.6578  -3.5642
    -3.4789  -3.3732  -3.2127  -3.1803  -3.1511  -3.1052  -3.0529  -2.6996
    -2.5246  -2.3595  -2.3502  -2.2687  -2.2142  -2.0831  -1.9484  -1.9199
    -1.7559  -1.7387  -1.6868  -1.4226  -1.2758  -1.1822  -1.0161  -0.9296
    -0.8562  -0.7951  -0.6816  -0.6342  -0.3988  -0.3560  -0.2612  -0.0562
     0.0076   0.0463   0.1340   0.2134   0.2300   0.3101   0.3484   0.6068
     0.8929   1.1065   1.2701   1.3654   1.3941   1.6671   1.8445   1.9077
     2.0442   2.1654   2.1854

          k = 0.0154-0.0784 0.0000 ( 29439 PWs)   bands (ev):

   -63.8477 -63.7987 -63.7972 -63.7473 -63.7472 -63.6981 -37.7787 -37.7657
   -37.7320 -37.7242 -37.6940 -37.6781 -37.6475 -37.6468 -37.6465 -37.6272
   -37.6226 -37.6055 -37.5836 -37.3659 -37.2945 -37.2564 -37.2542 -37.2273
    -4.9887  -4.2590  -4.2575  -4.0083  -3.9577  -3.8818  -3.7714  -3.6175
    -3.5069  -3.4209  -3.2922  -3.2313  -3.2224  -3.1952  -3.0630  -2.6368
    -2.5299  -2.4706  -2.3499  -2.3390  -2.2795  -2.0211  -1.9438  -1.9109
    -1.7207  -1.6998  -1.5392  -1.4864  -1.2730  -1.2079  -0.9870  -0.7673
    -0.7311  -0.6838  -0.6748  -0.4453  -0.3861  -0.3239  -0.0691   0.0120
     0.0413   0.1185   0.2110   0.3193   0.3235   0.4468   0.4816   0.7007
     0.9734   1.0779   1.2756   1.4091   1.5331   1.7120   1.8749   1.9636
     2.1228   2.1630   2.2437

          k = 0.0154-0.0610 0.0000 ( 29435 PWs)   bands (ev):

   -63.8478 -63.7987 -63.7973 -63.7473 -63.7472 -63.6981 -37.7782 -37.7652
   -37.7318 -37.7239 -37.6926 -37.6781 -37.6473 -37.6471 -37.6469 -37.6267
   -37.6222 -37.6047 -37.5828 -37.3659 -37.2944 -37.2563 -37.2542 -37.2272
    -5.2866  -4.3351  -4.3136  -4.1456  -4.0225  -3.9603  -3.8968  -3.7106
    -3.5739  -3.5063  -3.4268  -3.3643  -3.3582  -3.3158  -3.0459  -2.6146
    -2.5870  -2.4845  -2.4079  -2.3251  -2.2994  -1.9864  -1.9309  -1.8672
    -1.7689  -1.7563  -1.6103  -1.3160  -1.2671  -1.1143  -0.9641  -0.6893
    -0.5738  -0.5030  -0.4171  -0.3877  -0.2609  -0.1616   0.0318   0.1497
     0.2113   0.2434   0.3920   0.5194   0.5226   0.6350   0.7340   0.8609
     1.0984   1.1619   1.2938   1.4635   1.7489   1.8090   1.9231   2.0436
     2.1075   2.1799   2.3265

          k = 0.0154-0.0436 0.0000 ( 29415 PWs)   bands (ev):

   -63.8478 -63.7987 -63.7974 -63.7473 -63.7472 -63.6982 -37.7775 -37.7646
   -37.7315 -37.7235 -37.6910 -37.6780 -37.6476 -37.6473 -37.6467 -37.6263
   -37.6218 -37.6038 -37.5820 -37.3658 -37.2942 -37.2562 -37.2541 -37.2271
    -5.5571  -4.4280  -4.3694  -4.2695  -4.1555  -4.1097  -3.9632  -3.7810
    -3.6558  -3.6102  -3.5640  -3.4904  -3.4844  -3.4168  -3.0248  -2.7174
    -2.6340  -2.4696  -2.4347  -2.3186  -2.2307  -1.9861  -1.9517  -1.8819
    -1.8296  -1.8184  -1.5778  -1.3548  -1.3234  -0.9443  -0.7400  -0.6838
    -0.4294  -0.3548  -0.3027  -0.1519  -0.0887  -0.0201   0.1025   0.2492
     0.4074   0.4667   0.6418   0.7256   0.7571   0.8546   0.8654   1.1867
     1.3061   1.3091   1.4465   1.5968   1.7389   1.8215   2.0381   2.0906
     2.1448   2.2538   2.3588

          k = 0.0154-0.0261 0.0000 ( 29422 PWs)   bands (ev):

   -63.8479 -63.7988 -63.7974 -63.7473 -63.7472 -63.6982 -37.7769 -37.7642
   -37.7312 -37.7232 -37.6895 -37.6781 -37.6481 -37.6476 -37.6465 -37.6258
   -37.6214 -37.6030 -37.5814 -37.3656 -37.2940 -37.2561 -37.2540 -37.2270
    -5.7540  -4.5108  -4.4154  -4.3567  -4.2943  -4.2331  -4.0142  -3.8161
    -3.7250  -3.7030  -3.6707  -3.5690  -3.5680  -3.4947  -3.0106  -2.8392
    -2.6402  -2.4726  -2.4246  -2.3324  -2.1387  -2.1200  -1.9747  -1.9198
    -1.8619  -1.7618  -1.5472  -1.3942  -1.3745  -0.9256  -0.6947  -0.4287
    -0.3151  -0.2998  -0.2407   0.0016   0.0681   0.1406   0.2189   0.3324
     0.5885   0.6665   0.7585   0.8391   0.8763   1.0815   1.1046   1.3295
     1.5036   1.5048   1.6642   1.7278   1.7952   1.8348   2.1176   2.1285
     2.2971   2.3504   2.3705

          k = 0.0154-0.0087 0.0000 ( 29460 PWs)   bands (ev):

   -63.8480 -63.7988 -63.7975 -63.7473 -63.7472 -63.6983 -37.7766 -37.7639
   -37.7311 -37.7231 -37.6888 -37.6781 -37.6484 -37.6478 -37.6464 -37.6256
   -37.6213 -37.6026 -37.5811 -37.3656 -37.2940 -37.2561 -37.2540 -37.2270
    -5.8566  -4.5587  -4.4406  -4.4013  -4.3796  -4.2981  -4.0416  -3.8311
    -3.7662  -3.7536  -3.7282  -3.6087  -3.6069  -3.5371  -3.0042  -2.9071
    -2.6390  -2.4801  -2.3952  -2.3405  -2.2214  -2.0754  -1.9902  -1.9516
    -1.8916  -1.7148  -1.5308  -1.4175  -1.4034  -0.9152  -0.6961  -0.3228
    -0.2381  -0.2170  -0.2120  -0.0079   0.1810   0.2745   0.3084   0.3944
     0.6755   0.7519   0.8072   0.8801   0.9945   1.2903   1.3083   1.3318
     1.3466   1.6101   1.7406   1.8579   1.9799   1.9866   2.1638   2.2686
     2.2839   2.4011   2.4070

          k = 0.0308 0.0174 0.0000 ( 29494 PWs)   bands (ev):

   -63.8454 -63.8013 -63.7949 -63.7499 -63.7447 -63.7008 -37.7744 -37.7439
   -37.7336 -37.7208 -37.6869 -37.6805 -37.6507 -37.6456 -37.6266 -37.6236
   -37.6051 -37.6014 -37.5836 -37.3868 -37.2922 -37.2748 -37.2581 -37.2479
    -5.6897  -4.4697  -4.3158  -4.3145  -4.2302  -4.2007  -3.9661  -3.7546
    -3.7236  -3.6785  -3.6679  -3.5292  -3.5105  -3.4946  -2.9425  -2.8522
    -2.6466  -2.4554  -2.4138  -2.2895  -2.1901  -2.1773  -2.0973  -1.9616
    -1.8824  -1.7442  -1.5883  -1.5290  -1.4979  -1.0837  -0.7961  -0.4532
    -0.2722  -0.2170  -0.1790  -0.0188   0.0744   0.1237   0.2800   0.3411
     0.4918   0.6198   0.6778   0.8165   0.8836   1.0824   1.2249   1.3087
     1.3743   1.5056   1.6368   1.7060   1.7877   1.8470   1.9350   2.1355
     2.1995   2.2930   2.3106

          k = 0.0308 0.0349 0.0000 ( 29420 PWs)   bands (ev):

   -63.8454 -63.8013 -63.7948 -63.7499 -63.7447 -63.7008 -37.7748 -37.7442
   -37.7338 -37.7210 -37.6879 -37.6804 -37.6502 -37.6453 -37.6268 -37.6238
   -37.6056 -37.6017 -37.5840 -37.3868 -37.2922 -37.2748 -37.2581 -37.2479
    -5.5405  -4.4041  -4.2770  -4.2557  -4.1352  -4.0929  -3.9219  -3.7058
    -3.7042  -3.6097  -3.5957  -3.4758  -3.4445  -3.4440  -2.9508  -2.7610
    -2.6482  -2.4665  -2.4429  -2.2717  -2.2385  -2.0791  -2.0594  -1.9603
    -1.8452  -1.8044  -1.6063  -1.5033  -1.4725  -1.0948  -0.8039  -0.5222
    -0.5044  -0.2883  -0.2509  -0.1775  -0.0030   0.0875   0.1714   0.2491
     0.3466   0.5393   0.5609   0.7720   0.7991   0.9562   1.0269   1.2375
     1.2774   1.3097   1.5634   1.5771   1.7020   1.7072   1.9905   2.0055
     2.1639   2.2411   2.2716

          k = 0.0308 0.0523 0.0000 ( 29451 PWs)   bands (ev):

   -63.8453 -63.8013 -63.7947 -63.7499 -63.7447 -63.7007 -37.7755 -37.7447
   -37.7340 -37.7214 -37.6895 -37.6804 -37.6496 -37.6450 -37.6271 -37.6242
   -37.6065 -37.6020 -37.5847 -37.3869 -37.2924 -37.2748 -37.2582 -37.2480
    -5.3055  -4.3135  -4.2247  -4.1567  -4.0153  -3.9486  -3.8409  -3.6624
    -3.6401  -3.5221  -3.4768  -3.3970  -3.3620  -3.3404  -2.9650  -2.6436
    -2.6383  -2.4911  -2.4448  -2.3094  -2.2532  -2.0702  -1.9743  -1.9426
    -1.8227  -1.8124  -1.6319  -1.4768  -1.4459  -1.1119  -0.8768  -0.7914
    -0.6834  -0.4103  -0.3455  -0.2750  -0.2519   0.0126   0.0774   0.1675
     0.1836   0.3703   0.4210   0.6339   0.6651   0.7768   0.8021   0.8853
     1.1176   1.2805   1.3152   1.5503   1.6730   1.7326   1.8163   2.0488
     2.1428   2.1728   2.2979

          k = 0.0308 0.0697 0.0000 ( 29449 PWs)   bands (ev):

   -63.8452 -63.8013 -63.7946 -63.7499 -63.7447 -63.7007 -37.7760 -37.7452
   -37.7343 -37.7217 -37.6910 -37.6804 -37.6490 -37.6447 -37.6274 -37.6246
   -37.6073 -37.6024 -37.5854 -37.3870 -37.2925 -37.2749 -37.2583 -37.2481
    -5.0126  -4.2248  -4.1700  -4.0243  -3.9194  -3.8433  -3.7259  -3.5798
    -3.5744  -3.4372  -3.3440  -3.3082  -3.2555  -3.2114  -2.9786  -2.6535
    -2.5498  -2.5120  -2.4074  -2.3605  -2.2322  -2.0764  -2.0197  -1.9403
    -1.7939  -1.7305  -1.6211  -1.4959  -1.4348  -1.2125  -1.1087  -0.9176
    -0.8196  -0.5479  -0.5394  -0.4367  -0.2869  -0.2173  -0.0497   0.0294
     0.1523   0.2117   0.3076   0.3647   0.4835   0.5244   0.6137   0.7913
     1.0590   1.1027   1.2899   1.4687   1.5809   1.6692   1.8364   1.9977
     2.1357   2.1555   2.3195

          k = 0.0308 0.0871 0.0000 ( 29474 PWs)   bands (ev):

   -63.8451 -63.8012 -63.7946 -63.7499 -63.7447 -63.7006 -37.7765 -37.7455
   -37.7345 -37.7219 -37.6921 -37.6804 -37.6486 -37.6444 -37.6276 -37.6250
   -37.6080 -37.6026 -37.5860 -37.3870 -37.2927 -37.2750 -37.2584 -37.2481
    -4.7257  -4.1613  -4.1257  -3.9057  -3.8880  -3.7793  -3.6043  -3.5532
    -3.4833  -3.3838  -3.2655  -3.2018  -3.1928  -3.0891  -2.9818  -2.7289
    -2.5287  -2.4352  -2.3810  -2.3336  -2.2206  -2.0996  -2.0080  -1.9802
    -1.8019  -1.7496  -1.6199  -1.5089  -1.4651  -1.3469  -1.1516  -1.1090
    -0.8272  -0.7565  -0.6457  -0.5210  -0.4527  -0.2567  -0.1895  -0.0842
     0.0679   0.1349   0.1662   0.2467   0.3248   0.4472   0.5173   0.6975
     0.9227   1.1275   1.2886   1.4368   1.4717   1.6149   1.8474   1.9276
     2.1198   2.1293   2.2270

          k = 0.0308 0.1046 0.0000 ( 29456 PWs)   bands (ev):

   -63.8451 -63.8012 -63.7946 -63.7499 -63.7447 -63.7006 -37.7767 -37.7457
   -37.7345 -37.7220 -37.6925 -37.6804 -37.6484 -37.6443 -37.6276 -37.6251
   -37.6082 -37.6027 -37.5861 -37.3870 -37.2927 -37.2750 -37.2584 -37.2481
    -4.5878  -4.1382  -4.1053  -3.9312  -3.8199  -3.7520  -3.5576  -3.5327
    -3.4573  -3.3675  -3.2424  -3.2078  -3.1497  -3.0289  -2.9853  -2.7638
    -2.5280  -2.3913  -2.3558  -2.2778  -2.2164  -2.1466  -1.9683  -1.9561
    -1.8671  -1.7767  -1.6991  -1.5051  -1.4571  -1.3674  -1.1766  -1.1738
    -0.8387  -0.8198  -0.6850  -0.5511  -0.5319  -0.2704  -0.2448  -0.0916
    -0.0406   0.1158   0.1366   0.2363   0.2705   0.4219   0.4894   0.6457
     0.8891   1.1416   1.2896   1.4288   1.4328   1.5923   1.8490   1.8982
     2.0563   2.1295   2.2027

          k = 0.0308-0.0871 0.0000 ( 29474 PWs)   bands (ev):

   -63.8451 -63.8012 -63.7946 -63.7499 -63.7447 -63.7006 -37.7765 -37.7455
   -37.7345 -37.7219 -37.6921 -37.6804 -37.6486 -37.6444 -37.6276 -37.6250
   -37.6080 -37.6026 -37.5860 -37.3870 -37.2927 -37.2750 -37.2584 -37.2481
    -4.7257  -4.1613  -4.1257  -3.9057  -3.8880  -3.7793  -3.6043  -3.5532
    -3.4833  -3.3838  -3.2655  -3.2018  -3.1928  -3.0891  -2.9818  -2.7289
    -2.5287  -2.4352  -2.3810  -2.3336  -2.2206  -2.0996  -2.0080  -1.9802
    -1.8019  -1.7496  -1.6199  -1.5089  -1.4651  -1.3469  -1.1516  -1.1090
    -0.8272  -0.7565  -0.6457  -0.5210  -0.4527  -0.2567  -0.1895  -0.0842
     0.0679   0.1349   0.1662   0.2467   0.3248   0.4472   0.5173   0.6975
     0.9227   1.1275   1.2886   1.4368   1.4717   1.6149   1.8474   1.9277
     2.1199   2.1302   2.2277

          k = 0.0308-0.0697 0.0000 ( 29449 PWs)   bands (ev):

   -63.8452 -63.8013 -63.7946 -63.7499 -63.7447 -63.7007 -37.7760 -37.7452
   -37.7343 -37.7217 -37.6910 -37.6804 -37.6490 -37.6447 -37.6274 -37.6246
   -37.6073 -37.6024 -37.5854 -37.3870 -37.2925 -37.2749 -37.2583 -37.2481
    -5.0126  -4.2248  -4.1700  -4.0243  -3.9194  -3.8433  -3.7259  -3.5797
    -3.5744  -3.4372  -3.3440  -3.3082  -3.2555  -3.2114  -2.9786  -2.6535
    -2.5498  -2.5120  -2.4074  -2.3605  -2.2322  -2.0764  -2.0197  -1.9403
    -1.7939  -1.7305  -1.6211  -1.4959  -1.4348  -1.2125  -1.1087  -0.9176
    -0.8196  -0.5479  -0.5394  -0.4367  -0.2869  -0.2173  -0.0497   0.0294
     0.1523   0.2117   0.3076   0.3647   0.4835   0.5244   0.6137   0.7913
     1.0590   1.1027   1.2899   1.4687   1.5809   1.6692   1.8364   1.9978
     2.1361   2.1556   2.3193

          k = 0.0308-0.0523 0.0000 ( 29451 PWs)   bands (ev):

   -63.8453 -63.8013 -63.7947 -63.7499 -63.7447 -63.7007 -37.7755 -37.7447
   -37.7340 -37.7214 -37.6895 -37.6804 -37.6496 -37.6450 -37.6271 -37.6242
   -37.6065 -37.6020 -37.5847 -37.3869 -37.2924 -37.2748 -37.2582 -37.2480
    -5.3055  -4.3135  -4.2247  -4.1567  -4.0153  -3.9486  -3.8409  -3.6624
    -3.6401  -3.5221  -3.4768  -3.3970  -3.3620  -3.3404  -2.9650  -2.6436
    -2.6383  -2.4911  -2.4448  -2.3094  -2.2532  -2.0702  -1.9743  -1.9426
    -1.8227  -1.8124  -1.6319  -1.4768  -1.4459  -1.1119  -0.8768  -0.7914
    -0.6834  -0.4103  -0.3455  -0.2750  -0.2519   0.0126   0.0774   0.1675
     0.1836   0.3703   0.4210   0.6339   0.6651   0.7769   0.8021   0.8853
     1.1176   1.2805   1.3152   1.5503   1.6729   1.7326   1.8163   2.0487
     2.1436   2.1727   2.2982

          k = 0.0308-0.0349 0.0000 ( 29420 PWs)   bands (ev):

   -63.8454 -63.8013 -63.7948 -63.7499 -63.7447 -63.7008 -37.7748 -37.7442
   -37.7338 -37.7210 -37.6879 -37.6804 -37.6502 -37.6453 -37.6268 -37.6238
   -37.6056 -37.6017 -37.5840 -37.3868 -37.2922 -37.2748 -37.2581 -37.2479
    -5.5405  -4.4041  -4.2770  -4.2557  -4.1352  -4.0929  -3.9219  -3.7058
    -3.7042  -3.6097  -3.5957  -3.4758  -3.4445  -3.4440  -2.9508  -2.7610
    -2.6482  -2.4665  -2.4429  -2.2717  -2.2385  -2.0791  -2.0594  -1.9603
    -1.8452  -1.8044  -1.6063  -1.5033  -1.4725  -1.0948  -0.8039  -0.5222
    -0.5044  -0.2883  -0.2509  -0.1775  -0.0030   0.0875   0.1714   0.2491
     0.3466   0.5393   0.5609   0.7720   0.7991   0.9562   1.0269   1.2375
     1.2774   1.3097   1.5634   1.5771   1.7019   1.7072   1.9906   2.0053
     2.1639   2.2393   2.2713

          k = 0.0308-0.0174 0.0000 ( 29494 PWs)   bands (ev):

   -63.8454 -63.8013 -63.7949 -63.7499 -63.7447 -63.7008 -37.7744 -37.7439
   -37.7336 -37.7208 -37.6869 -37.6805 -37.6507 -37.6456 -37.6266 -37.6236
   -37.6051 -37.6014 -37.5836 -37.3868 -37.2922 -37.2748 -37.2581 -37.2479
    -5.6897  -4.4697  -4.3158  -4.3145  -4.2302  -4.2007  -3.9661  -3.7546
    -3.7236  -3.6785  -3.6679  -3.5292  -3.5105  -3.4946  -2.9425  -2.8522
    -2.6466  -2.4554  -2.4138  -2.2895  -2.1901  -2.1773  -2.0973  -1.9616
    -1.8824  -1.7442  -1.5883  -1.5290  -1.4979  -1.0837  -0.7961  -0.4532
    -0.2722  -0.2170  -0.1790  -0.0188   0.0744   0.1237   0.2800   0.3411
     0.4918   0.6198   0.6778   0.8165   0.8836   1.0824   1.2249   1.3087
     1.3743   1.5056   1.6368   1.7060   1.7877   1.8470   1.9350   2.1356
     2.1996   2.2930   2.3108

          k = 0.0308 0.0000 0.0000 ( 29514 PWs)   bands (ev):

   -63.8454 -63.8013 -63.7949 -63.7499 -63.7447 -63.7008 -37.7743 -37.7438
   -37.7336 -37.7208 -37.6865 -37.6805 -37.6508 -37.6457 -37.6265 -37.6235
   -37.6049 -37.6013 -37.5835 -37.3868 -37.2922 -37.2748 -37.2581 -37.2479
    -5.7407  -4.4932  -4.3360  -4.3279  -4.2691  -4.2353  -3.9804  -3.7726
    -3.7298  -3.7060  -3.6897  -3.5473  -3.5341  -3.5115  -2.9400  -2.8850
    -2.6449  -2.4526  -2.3826  -2.3112  -2.2251  -2.1743  -2.1064  -1.9518
    -1.9052  -1.7203  -1.5824  -1.5387  -1.5081  -1.0796  -0.7938  -0.4347
    -0.2407  -0.1588  -0.1199   0.0530   0.0538   0.1339   0.3510   0.3828
     0.5531   0.6263   0.6936   0.8872   0.9124   1.1001   1.2773   1.2983
     1.3938   1.5720   1.6767   1.7389   1.8488   1.9336   1.9542   2.1814
     2.2178   2.2782   2.3573

          k = 0.0463 0.0261 0.0000 ( 29475 PWs)   bands (ev):

   -63.8414 -63.8053 -63.7908 -63.7540 -63.7406 -63.7048 -37.7709 -37.7376
   -37.7172 -37.7119 -37.6842 -37.6838 -37.6542 -37.6420 -37.6202 -37.6089
   -37.5949 -37.5875 -37.5697 -37.4203 -37.3080 -37.2894 -37.2806 -37.2612
    -5.4240  -4.3322  -4.1865  -4.1155  -4.0860  -3.9845  -3.8581  -3.7522
    -3.6030  -3.5395  -3.5260  -3.4963  -3.3749  -3.3148  -2.8508  -2.7707
    -2.6792  -2.4591  -2.4411  -2.3583  -2.2252  -2.2090  -2.0953  -1.9805
    -1.8716  -1.7892  -1.6957  -1.6715  -1.6458  -1.2925  -0.9468  -0.9116
    -0.4425  -0.2850  -0.1612  -0.1195  -0.1108   0.0547   0.2137   0.2269
     0.4187   0.4412   0.6210   0.8268   0.8396   0.9549   1.1201   1.1673
     1.2365   1.2898   1.4008   1.5784   1.6130   1.7681   1.8479   1.8815
     2.1320   2.1976   2.2426

          k = 0.0463 0.0436 0.0000 ( 29482 PWs)   bands (ev):

   -63.8413 -63.8053 -63.7907 -63.7540 -63.7406 -63.7048 -37.7714 -37.7378
   -37.7175 -37.7123 -37.6851 -37.6842 -37.6537 -37.6417 -37.6205 -37.6096
   -37.5952 -37.5880 -37.5700 -37.4203 -37.3079 -37.2895 -37.2806 -37.2613
    -5.2359  -4.2564  -4.1256  -4.0670  -3.9983  -3.8756  -3.7730  -3.7089
    -3.5253  -3.5054  -3.4677  -3.4406  -3.2903  -3.2626  -2.8601  -2.6853
    -2.6722  -2.5134  -2.4659  -2.3875  -2.1903  -2.1854  -2.0073  -1.9938
    -1.8442  -1.8370  -1.6840  -1.6823  -1.6305  -1.2996  -1.0356  -0.9663
    -0.5928  -0.5657  -0.2423  -0.2154  -0.1410  -0.1154   0.1185   0.1872
     0.3295   0.3448   0.5285   0.6915   0.7642   0.8397   0.8830   1.0097
     1.0865   1.2804   1.3825   1.5135   1.6092   1.6323   1.7359   1.9014
     2.0451   2.1318   2.2087

          k = 0.0463 0.0610 0.0000 ( 29475 PWs)   bands (ev):

   -63.8412 -63.8053 -63.7906 -63.7540 -63.7407 -63.7047 -37.7719 -37.7379
   -37.7178 -37.7127 -37.6866 -37.6842 -37.6530 -37.6413 -37.6208 -37.6105
   -37.5955 -37.5886 -37.5703 -37.4203 -37.3079 -37.2896 -37.2806 -37.2614
    -4.9733  -4.1621  -4.0328  -4.0116  -3.8978  -3.7965  -3.6610  -3.6122
    -3.4635  -3.4525  -3.3919  -3.3428  -3.2029  -3.1756  -2.8715  -2.7076
    -2.5764  -2.5515  -2.4637  -2.4277  -2.2019  -2.1592  -2.0030  -1.9929
    -1.8272  -1.7931  -1.6977  -1.6851  -1.6324  -1.3165  -1.2166  -0.9969
    -0.9185  -0.7019  -0.3921  -0.3375  -0.3025  -0.1411  -0.0171   0.0527
     0.1905   0.3250   0.4104   0.4650   0.5746   0.6894   0.7844   0.8915
     1.1104   1.1335   1.2961   1.5342   1.5421   1.6232   1.6752   1.9620
     2.0244   2.0750   2.1718

          k = 0.0463 0.0784 0.0000 ( 29462 PWs)   bands (ev):

   -63.8412 -63.8053 -63.7905 -63.7540 -63.7407 -63.7047 -37.7724 -37.7381
   -37.7181 -37.7131 -37.6879 -37.6841 -37.6523 -37.6410 -37.6211 -37.6112
   -37.5957 -37.5891 -37.5705 -37.4203 -37.3079 -37.2897 -37.2807 -37.2614
    -4.6709  -4.0802  -3.9677  -3.9066  -3.8366  -3.7292  -3.6345  -3.4849
    -3.4127  -3.3602  -3.3425  -3.2126  -3.1739  -3.0502  -2.8772  -2.7841
    -2.5502  -2.5193  -2.4628  -2.4262  -2.2036  -2.1452  -2.0322  -1.9974
    -1.8414  -1.7787  -1.7619  -1.6617  -1.6202  -1.3838  -1.3561  -1.1805
    -0.9969  -0.8208  -0.6128  -0.4463  -0.4015  -0.2578  -0.0993  -0.0545
     0.0651   0.1783   0.3021   0.4261   0.4473   0.6588   0.7283   0.7903
     0.9659   1.1522   1.3090   1.4842   1.5124   1.5804   1.7542   1.9214
     2.0511   2.0617   2.1323

          k = 0.0463 0.0958 0.0000 ( 29461 PWs)   bands (ev):

   -63.8411 -63.8053 -63.7905 -63.7540 -63.7407 -63.7047 -37.7727 -37.7382
   -37.7182 -37.7133 -37.6886 -37.6841 -37.6520 -37.6408 -37.6213 -37.6116
   -37.5959 -37.5894 -37.5707 -37.4203 -37.3079 -37.2898 -37.2807 -37.2615
    -4.4158  -4.0339  -3.9627  -3.8382  -3.7700  -3.6848  -3.6652  -3.4054
    -3.3966  -3.3171  -3.2597  -3.2208  -3.1140  -2.9454  -2.8880  -2.8649
    -2.5688  -2.4821  -2.4208  -2.4034  -2.1727  -2.1448  -2.0265  -2.0116
    -1.9420  -1.8045  -1.7807  -1.7048  -1.5999  -1.4311  -1.3819  -1.3331
    -0.9907  -0.8903  -0.7462  -0.5392  -0.4681  -0.3606  -0.1581  -0.0612
    -0.0316   0.1318   0.2532   0.3446   0.4677   0.6518   0.6957   0.7099
     0.9076   1.1757   1.3202   1.4636   1.5144   1.5739   1.8170   1.8757
     2.0452   2.0823   2.0866

          k = 0.0463 0.1133 0.0000 ( 29461 PWs)   bands (ev):

   -63.8411 -63.8053 -63.7905 -63.7540 -63.7407 -63.7047 -37.7727 -37.7382
   -37.7182 -37.7133 -37.6886 -37.6841 -37.6520 -37.6408 -37.6213 -37.6116
   -37.5959 -37.5894 -37.5707 -37.4203 -37.3079 -37.2898 -37.2807 -37.2615
    -4.4158  -4.0339  -3.9627  -3.8382  -3.7700  -3.6848  -3.6652  -3.4054
    -3.3966  -3.3171  -3.2597  -3.2208  -3.1140  -2.9454  -2.8880  -2.8649
    -2.5688  -2.4821  -2.4208  -2.4034  -2.1727  -2.1448  -2.0265  -2.0116
    -1.9420  -1.8045  -1.7807  -1.7048  -1.5999  -1.4311  -1.3819  -1.3331
    -0.9907  -0.8903  -0.7462  -0.5392  -0.4681  -0.3606  -0.1581  -0.0612
    -0.0316   0.1318   0.2532   0.3446   0.4677   0.6518   0.6957   0.7099
     0.9076   1.1757   1.3202   1.4636   1.5144   1.5739   1.8170   1.8757
     2.0453   2.0824   2.0868

          k = 0.0463-0.0784 0.0000 ( 29462 PWs)   bands (ev):

   -63.8412 -63.8053 -63.7905 -63.7540 -63.7407 -63.7047 -37.7724 -37.7381
   -37.7181 -37.7131 -37.6879 -37.6841 -37.6523 -37.6410 -37.6211 -37.6112
   -37.5957 -37.5891 -37.5705 -37.4203 -37.3079 -37.2897 -37.2807 -37.2614
    -4.6709  -4.0802  -3.9677  -3.9066  -3.8366  -3.7292  -3.6345  -3.4849
    -3.4127  -3.3602  -3.3425  -3.2126  -3.1739  -3.0502  -2.8772  -2.7841
    -2.5502  -2.5193  -2.4628  -2.4262  -2.2036  -2.1452  -2.0322  -1.9974
    -1.8415  -1.7787  -1.7619  -1.6617  -1.6202  -1.3838  -1.3561  -1.1805
    -0.9969  -0.8208  -0.6128  -0.4463  -0.4015  -0.2578  -0.0993  -0.0545
     0.0651   0.1783   0.3021   0.4261   0.4473   0.6588   0.7283   0.7903
     0.9659   1.1522   1.3090   1.4842   1.5124   1.5804   1.7542   1.9214
     2.0511   2.0617   2.1327

          k = 0.0463-0.0610 0.0000 ( 29475 PWs)   bands (ev):

   -63.8412 -63.8053 -63.7906 -63.7540 -63.7407 -63.7047 -37.7719 -37.7379
   -37.7178 -37.7127 -37.6866 -37.6842 -37.6530 -37.6413 -37.6208 -37.6105
   -37.5955 -37.5886 -37.5703 -37.4203 -37.3079 -37.2896 -37.2806 -37.2614
    -4.9733  -4.1621  -4.0328  -4.0116  -3.8978  -3.7965  -3.6610  -3.6122
    -3.4635  -3.4525  -3.3919  -3.3428  -3.2029  -3.1756  -2.8715  -2.7076
    -2.5764  -2.5515  -2.4637  -2.4277  -2.2019  -2.1592  -2.0030  -1.9929
    -1.8272  -1.7931  -1.6977  -1.6851  -1.6324  -1.3165  -1.2166  -0.9969
    -0.9185  -0.7019  -0.3921  -0.3375  -0.3025  -0.1411  -0.0171   0.0527
     0.1905   0.3250   0.4104   0.4650   0.5746   0.6894   0.7844   0.8915
     1.1104   1.1335   1.2961   1.5342   1.5421   1.6232   1.6752   1.9618
     2.0244   2.0750   2.1718

          k = 0.0463-0.0436 0.0000 ( 29482 PWs)   bands (ev):

   -63.8413 -63.8053 -63.7907 -63.7540 -63.7406 -63.7048 -37.7714 -37.7378
   -37.7175 -37.7123 -37.6851 -37.6842 -37.6537 -37.6417 -37.6205 -37.6096
   -37.5952 -37.5880 -37.5700 -37.4203 -37.3079 -37.2895 -37.2806 -37.2613
    -5.2359  -4.2564  -4.1256  -4.0670  -3.9983  -3.8756  -3.7730  -3.7089
    -3.5253  -3.5054  -3.4677  -3.4406  -3.2903  -3.2626  -2.8601  -2.6853
    -2.6722  -2.5134  -2.4659  -2.3875  -2.1903  -2.1854  -2.0073  -1.9938
    -1.8442  -1.8370  -1.6840  -1.6823  -1.6305  -1.2996  -1.0356  -0.9663
    -0.5928  -0.5657  -0.2423  -0.2154  -0.1410  -0.1154   0.1185   0.1872
     0.3295   0.3448   0.5285   0.6915   0.7642   0.8397   0.8830   1.0097
     1.0865   1.2804   1.3825   1.5135   1.6093   1.6323   1.7359   1.9014
     2.0451   2.1318   2.2092

          k = 0.0463-0.0261 0.0000 ( 29475 PWs)   bands (ev):

   -63.8414 -63.8053 -63.7908 -63.7540 -63.7406 -63.7048 -37.7709 -37.7376
   -37.7172 -37.7119 -37.6842 -37.6838 -37.6542 -37.6420 -37.6202 -37.6089
   -37.5949 -37.5875 -37.5697 -37.4203 -37.3080 -37.2894 -37.2806 -37.2612
    -5.4240  -4.3322  -4.1865  -4.1155  -4.0860  -3.9845  -3.8581  -3.7521
    -3.6030  -3.5395  -3.5260  -3.4963  -3.3749  -3.3148  -2.8508  -2.7707
    -2.6792  -2.4591  -2.4411  -2.3583  -2.2252  -2.2090  -2.0953  -1.9805
    -1.8716  -1.7892  -1.6957  -1.6715  -1.6458  -1.2925  -0.9468  -0.9116
    -0.4425  -0.2850  -0.1612  -0.1195  -0.1108   0.0547   0.2137   0.2269
     0.4187   0.4412   0.6210   0.8268   0.8396   0.9549   1.1201   1.1673
     1.2365   1.2898   1.4008   1.5784   1.6130   1.7681   1.8481   1.8815
     2.1322   2.1976   2.2428

          k = 0.0463-0.0087 0.0000 ( 29512 PWs)   bands (ev):

   -63.8414 -63.8053 -63.7908 -63.7540 -63.7406 -63.7048 -37.7706 -37.7375
   -37.7171 -37.7116 -37.6843 -37.6831 -37.6546 -37.6422 -37.6201 -37.6085
   -37.5948 -37.5872 -37.5695 -37.4203 -37.3080 -37.2893 -37.2807 -37.2612
    -5.5213  -4.3725  -4.2172  -4.1518  -4.1233  -4.0637  -3.8872  -3.7767
    -3.6505  -3.5758  -3.5357  -3.5272  -3.4198  -3.3442  -2.8470  -2.8281
    -2.6764  -2.4142  -2.3955  -2.3451  -2.2944  -2.2427  -2.1384  -1.9560
    -1.9010  -1.7473  -1.7069  -1.6680  -1.6591  -1.2889  -0.9367  -0.8552
    -0.3698  -0.1433  -0.1066  -0.0463  -0.0457   0.0941   0.1821   0.3838
     0.4522   0.4693   0.7127   0.8621   0.8998   0.9556   1.1813   1.2828
     1.3410   1.3410   1.4297   1.5359   1.7301   1.8497   1.8853   1.9853
     2.2478   2.2703   2.2875

          k = 0.0463 0.0087 0.0000 ( 29512 PWs)   bands (ev):

   -63.8414 -63.8053 -63.7908 -63.7540 -63.7406 -63.7048 -37.7706 -37.7375
   -37.7171 -37.7116 -37.6843 -37.6831 -37.6546 -37.6422 -37.6201 -37.6085
   -37.5948 -37.5872 -37.5695 -37.4203 -37.3080 -37.2893 -37.2807 -37.2612
    -5.5213  -4.3725  -4.2172  -4.1518  -4.1233  -4.0637  -3.8872  -3.7767
    -3.6505  -3.5758  -3.5357  -3.5272  -3.4198  -3.3442  -2.8470  -2.8281
    -2.6764  -2.4142  -2.3955  -2.3451  -2.2944  -2.2427  -2.1384  -1.9560
    -1.9010  -1.7473  -1.7069  -1.6680  -1.6591  -1.2889  -0.9367  -0.8552
    -0.3698  -0.1433  -0.1066  -0.0463  -0.0457   0.0941   0.1821   0.3838
     0.4522   0.4693   0.7127   0.8621   0.8998   0.9556   1.1813   1.2828
     1.3410   1.3410   1.4297   1.5358   1.7301   1.8496   1.8853   1.9854
     2.2476   2.2705   2.2882

          k = 0.0617 0.0349 0.0000 ( 29483 PWs)   bands (ev):

   -63.8361 -63.8106 -63.7854 -63.7594 -63.7354 -63.7101 -37.7663 -37.7427
   -37.7125 -37.6893 -37.6798 -37.6700 -37.6587 -37.6373 -37.6158 -37.6139
   -37.5926 -37.5535 -37.5281 -37.4637 -37.3506 -37.3243 -37.2848 -37.2654
    -5.0825  -4.1794  -4.0446  -3.9503  -3.8727  -3.7586  -3.7511  -3.6909
    -3.5212  -3.4920  -3.3673  -3.2613  -3.1947  -3.0799  -2.7578  -2.7440
    -2.6718  -2.5879  -2.5129  -2.4674  -2.2136  -2.1697  -2.0029  -1.9836
    -1.9533  -1.8494  -1.8411  -1.7856  -1.7616  -1.4961  -1.4566  -1.1287
    -0.9530  -0.6479  -0.3566  -0.1280  -0.1209  -0.0067   0.1234   0.3391
     0.3561   0.4907   0.5714   0.7084   0.7941   0.8476   0.9406   1.0409
     1.1011   1.2485   1.3373   1.3930   1.5118   1.6553   1.6862   1.7224
     1.9202   1.9832   2.2058

          k = 0.0617 0.0523 0.0000 ( 29496 PWs)   bands (ev):

   -63.8360 -63.8106 -63.7853 -63.7594 -63.7354 -63.7100 -37.7667 -37.7428
   -37.7128 -37.6893 -37.6811 -37.6703 -37.6580 -37.6369 -37.6160 -37.6146
   -37.5931 -37.5537 -37.5284 -37.4636 -37.3505 -37.3242 -37.2849 -37.2654
    -4.8706  -4.1217  -4.0083  -3.8790  -3.8100  -3.7184  -3.7035  -3.5559
    -3.4710  -3.4474  -3.2877  -3.2606  -3.1079  -3.0264  -2.7665  -2.7580
    -2.6285  -2.5864  -2.5605  -2.4890  -2.2116  -2.1058  -2.0168  -1.9850
    -1.9524  -1.8692  -1.8367  -1.7609  -1.7562  -1.5691  -1.5004  -1.1579
    -1.0692  -0.7264  -0.6572  -0.2812  -0.1527  -0.0070   0.0572   0.1687
     0.2087   0.4616   0.4813   0.5607   0.6342   0.8415   0.8915   1.0021
     1.1058   1.1749   1.2839   1.4311   1.5138   1.5509   1.6095   1.6984
     1.8726   1.9461   2.2039

          k = 0.0617 0.0697 0.0000 ( 29500 PWs)   bands (ev):

   -63.8359 -63.8106 -63.7852 -63.7594 -63.7354 -63.7100 -37.7671 -37.7429
   -37.7130 -37.6892 -37.6824 -37.6707 -37.6572 -37.6365 -37.6161 -37.6154
   -37.5936 -37.5540 -37.5287 -37.4635 -37.3505 -37.3242 -37.2850 -37.2655
    -4.5993  -4.0508  -3.9564  -3.8145  -3.7382  -3.6816  -3.6489  -3.4431
    -3.4147  -3.4062  -3.2680  -3.1756  -3.0027  -2.9864  -2.7990  -2.7700
    -2.6564  -2.5711  -2.5633  -2.4671  -2.2337  -2.0713  -2.0521  -2.0270
    -1.9548  -1.9020  -1.8375  -1.7620  -1.7577  -1.6315  -1.5243  -1.1911
    -1.1828  -0.9219  -0.8264  -0.4594  -0.2075  -0.0829   0.0391   0.0540
     0.0663   0.2578   0.4989   0.5038   0.5663   0.8200   0.8910   0.9243
     1.0114   1.1606   1.3181   1.4876   1.4885   1.5576   1.5920   1.7242
     1.8285   1.9302   2.1810

          k = 0.0617 0.0871 0.0000 ( 29463 PWs)   bands (ev):

   -63.8359 -63.8106 -63.7852 -63.7594 -63.7354 -63.7100 -37.7674 -37.7429
   -37.7132 -37.6891 -37.6834 -37.6709 -37.6566 -37.6361 -37.6162 -37.6159
   -37.5939 -37.5542 -37.5289 -37.4635 -37.3505 -37.3241 -37.2851 -37.2655
    -4.3104  -3.9895  -3.9038  -3.8040  -3.6910  -3.6414  -3.5902  -3.4518
    -3.4091  -3.3134  -3.2797  -3.0530  -2.9696  -2.9008  -2.8593  -2.7647
    -2.6729  -2.6243  -2.5178  -2.4115  -2.2336  -2.1205  -2.0823  -2.0517
    -2.0048  -1.9160  -1.8897  -1.8075  -1.7796  -1.5709  -1.5557  -1.2847
    -1.2186  -1.0638  -0.9127  -0.5980  -0.3306  -0.1777  -0.0470   0.0389
     0.1270   0.1670   0.4188   0.4296   0.6500   0.7634   0.8014   0.9465
     0.9875   1.1788   1.3489   1.4585   1.5205   1.5913   1.7249   1.7477
     1.7845   1.9241   2.1167

          k = 0.0617 0.1046 0.0000 ( 29488 PWs)   bands (ev):

   -63.8359 -63.8106 -63.7852 -63.7594 -63.7354 -63.7100 -37.7676 -37.7430
   -37.7133 -37.6891 -37.6838 -37.6710 -37.6564 -37.6360 -37.6163 -37.6161
   -37.5940 -37.5542 -37.5290 -37.4635 -37.3505 -37.3241 -37.2851 -37.2655
    -4.1375  -3.9651  -3.8801  -3.8530  -3.6789  -3.6188  -3.5430  -3.4893
    -3.4070  -3.3160  -3.2646  -2.9905  -2.9529  -2.8968  -2.8334  -2.7772
    -2.6819  -2.6732  -2.4531  -2.3837  -2.2585  -2.1206  -2.0968  -2.0735
    -2.0704  -1.9150  -1.9111  -1.8235  -1.7872  -1.5644  -1.5367  -1.3192
    -1.2601  -1.0858  -0.9467  -0.6524  -0.3909  -0.1984  -0.0829   0.0359
     0.1438   0.1753   0.3850   0.3962   0.6932   0.7020   0.7944   0.9319
     1.0179   1.1736   1.3638   1.4489   1.5433   1.6197   1.7544   1.7658
     1.8697   1.9210   2.0627

          k = 0.0617 0.1220 0.0000 ( 29463 PWs)   bands (ev):

   -63.8359 -63.8106 -63.7852 -63.7594 -63.7354 -63.7100 -37.7674 -37.7429
   -37.7132 -37.6891 -37.6834 -37.6709 -37.6566 -37.6361 -37.6162 -37.6159
   -37.5939 -37.5542 -37.5289 -37.4635 -37.3505 -37.3241 -37.2851 -37.2655
    -4.3104  -3.9895  -3.9038  -3.8040  -3.6910  -3.6414  -3.5902  -3.4518
    -3.4091  -3.3134  -3.2797  -3.0530  -2.9696  -2.9008  -2.8593  -2.7647
    -2.6729  -2.6243  -2.5178  -2.4115  -2.2336  -2.1205  -2.0823  -2.0517
    -2.0048  -1.9160  -1.8897  -1.8075  -1.7796  -1.5709  -1.5557  -1.2847
    -1.2186  -1.0638  -0.9127  -0.5980  -0.3306  -0.1777  -0.0470   0.0389
     0.1270   0.1670   0.4188   0.4296   0.6500   0.7634   0.8014   0.9465
     0.9875   1.1788   1.3489   1.4585   1.5205   1.5913   1.7249   1.7476
     1.7844   1.9233   2.1155

          k = 0.0617-0.0697 0.0000 ( 29500 PWs)   bands (ev):

   -63.8359 -63.8106 -63.7852 -63.7594 -63.7354 -63.7100 -37.7671 -37.7429
   -37.7130 -37.6892 -37.6824 -37.6707 -37.6572 -37.6365 -37.6161 -37.6154
   -37.5936 -37.5540 -37.5287 -37.4635 -37.3505 -37.3242 -37.2850 -37.2655
    -4.5993  -4.0508  -3.9564  -3.8145  -3.7382  -3.6816  -3.6489  -3.4431
    -3.4147  -3.4062  -3.2680  -3.1756  -3.0027  -2.9864  -2.7990  -2.7700
    -2.6564  -2.5711  -2.5633  -2.4671  -2.2337  -2.0713  -2.0521  -2.0270
    -1.9548  -1.9020  -1.8375  -1.7620  -1.7577  -1.6315  -1.5243  -1.1911
    -1.1828  -0.9219  -0.8264  -0.4594  -0.2075  -0.0829   0.0391   0.0540
     0.0663   0.2578   0.4989   0.5038   0.5663   0.8200   0.8910   0.9243
     1.0114   1.1606   1.3181   1.4876   1.4885   1.5576   1.5920   1.7242
     1.8285   1.9302   2.1810

          k = 0.0617-0.0523 0.0000 ( 29496 PWs)   bands (ev):

   -63.8360 -63.8106 -63.7853 -63.7594 -63.7354 -63.7100 -37.7667 -37.7428
   -37.7128 -37.6893 -37.6811 -37.6703 -37.6580 -37.6369 -37.6160 -37.6146
   -37.5931 -37.5537 -37.5284 -37.4636 -37.3505 -37.3242 -37.2849 -37.2654
    -4.8706  -4.1217  -4.0083  -3.8790  -3.8100  -3.7184  -3.7035  -3.5559
    -3.4710  -3.4474  -3.2877  -3.2606  -3.1079  -3.0264  -2.7665  -2.7580
    -2.6285  -2.5864  -2.5605  -2.4890  -2.2116  -2.1058  -2.0168  -1.9850
    -1.9524  -1.8692  -1.8367  -1.7609  -1.7562  -1.5691  -1.5004  -1.1579
    -1.0692  -0.7264  -0.6572  -0.2812  -0.1527  -0.0070   0.0572   0.1687
     0.2087   0.4616   0.4813   0.5607   0.6342   0.8415   0.8915   1.0021
     1.1058   1.1749   1.2839   1.4311   1.5138   1.5509   1.6095   1.6984
     1.8727   1.9462   2.2043

          k = 0.0617-0.0349 0.0000 ( 29483 PWs)   bands (ev):

   -63.8361 -63.8106 -63.7854 -63.7594 -63.7354 -63.7101 -37.7663 -37.7427
   -37.7125 -37.6893 -37.6798 -37.6700 -37.6587 -37.6373 -37.6158 -37.6139
   -37.5926 -37.5535 -37.5281 -37.4637 -37.3506 -37.3243 -37.2848 -37.2654
    -5.0825  -4.1794  -4.0446  -3.9503  -3.8727  -3.7586  -3.7511  -3.6909
    -3.5212  -3.4920  -3.3673  -3.2613  -3.1947  -3.0799  -2.7578  -2.7440
    -2.6718  -2.5879  -2.5129  -2.4674  -2.2136  -2.1697  -2.0029  -1.9836
    -1.9533  -1.8494  -1.8411  -1.7856  -1.7616  -1.4961  -1.4566  -1.1287
    -0.9530  -0.6479  -0.3566  -0.1280  -0.1209  -0.0067   0.1234   0.3391
     0.3561   0.4907   0.5714   0.7084   0.7941   0.8476   0.9406   1.0409
     1.1011   1.2485   1.3373   1.3930   1.5118   1.6553   1.6863   1.7224
     1.9202   1.9832   2.2059

          k = 0.0617-0.0174 0.0000 ( 29498 PWs)   bands (ev):

   -63.8361 -63.8106 -63.7854 -63.7594 -63.7354 -63.7101 -37.7660 -37.7427
   -37.7124 -37.6893 -37.6789 -37.6697 -37.6593 -37.6377 -37.6157 -37.6134
   -37.5923 -37.5533 -37.5279 -37.4637 -37.3506 -37.3243 -37.2848 -37.2653
    -5.2156  -4.2146  -4.0624  -4.0010  -3.9112  -3.8227  -3.7848  -3.7503
    -3.5759  -3.5161  -3.4164  -3.2615  -3.2498  -3.1235  -2.7594  -2.7415
    -2.7354  -2.5656  -2.4327  -2.4325  -2.2620  -2.2542  -2.0038  -1.9986
    -1.9422  -1.8492  -1.8209  -1.8073  -1.7635  -1.4950  -1.3810  -1.1079
    -0.8713  -0.5971  -0.1289  -0.0831  -0.0728   0.0141   0.2458   0.3542
     0.4448   0.5404   0.6590   0.8446   0.8561   0.9470   0.9714   1.0144
     1.1140   1.2798   1.3015   1.4632   1.5775   1.7251   1.7820   1.8499
     2.0251   2.0950   2.2664

          k = 0.0617 0.0000 0.0000 ( 29500 PWs)   bands (ev):

   -63.8361 -63.8106 -63.7854 -63.7594 -63.7354 -63.7101 -37.7659 -37.7426
   -37.7123 -37.6893 -37.6785 -37.6696 -37.6596 -37.6378 -37.6156 -37.6131
   -37.5921 -37.5533 -37.5279 -37.4638 -37.3507 -37.3243 -37.2847 -37.2653
    -5.2609  -4.2262  -4.0670  -4.0188  -3.9227  -3.8568  -3.7974  -3.7618
    -3.5977  -3.5234  -3.4339  -3.2685  -3.2606  -3.1406  -2.7781  -2.7419
    -2.7414  -2.5596  -2.4017  -2.3450  -2.3390  -2.3070  -2.0106  -1.9996
    -1.9311  -1.8553  -1.8355  -1.7855  -1.7703  -1.4943  -1.3556  -1.1006
    -0.8424  -0.5785  -0.0764  -0.0635  -0.0477   0.0461   0.3004   0.3381
     0.4967   0.5348   0.7490   0.8125   0.8918   0.9833   0.9884   1.0147
     1.0892   1.3104   1.3388   1.4004   1.6689   1.7438   1.8274   1.8850
     2.0721   2.2263   2.2905

          k = 0.0617 0.0174 0.0000 ( 29498 PWs)   bands (ev):

   -63.8361 -63.8106 -63.7854 -63.7594 -63.7354 -63.7101 -37.7660 -37.7427
   -37.7124 -37.6893 -37.6789 -37.6697 -37.6593 -37.6377 -37.6157 -37.6134
   -37.5923 -37.5533 -37.5279 -37.4637 -37.3506 -37.3243 -37.2848 -37.2653
    -5.2156  -4.2146  -4.0624  -4.0010  -3.9112  -3.8227  -3.7848  -3.7503
    -3.5759  -3.5161  -3.4164  -3.2615  -3.2498  -3.1235  -2.7594  -2.7415
    -2.7354  -2.5656  -2.4327  -2.4325  -2.2620  -2.2542  -2.0038  -1.9986
    -1.9422  -1.8492  -1.8209  -1.8073  -1.7635  -1.4950  -1.3810  -1.1079
    -0.8713  -0.5971  -0.1289  -0.0831  -0.0728   0.0141   0.2458   0.3542
     0.4448   0.5404   0.6590   0.8446   0.8561   0.9470   0.9714   1.0144
     1.1140   1.2798   1.3015   1.4632   1.5775   1.7252   1.7820   1.8499
     2.0255   2.0961   2.2763

          k = 0.0771 0.0436 0.0000 ( 29494 PWs)   bands (ev):

   -63.8299 -63.8167 -63.7791 -63.7656 -63.7293 -63.7162 -37.7608 -37.7486
   -37.7070 -37.6950 -37.6749 -37.6641 -37.6318 -37.6223 -37.6183 -37.6105
   -37.5981 -37.5138 -37.5051 -37.4795 -37.4000 -37.3739 -37.2802 -37.2701
    -4.7082  -4.1621  -3.9007  -3.8368  -3.7060  -3.6981  -3.5562  -3.5215
    -3.4876  -3.4145  -3.1993  -3.1136  -3.0332  -2.9229  -2.7401  -2.7304
    -2.6290  -2.5583  -2.5553  -2.4751  -2.1807  -2.1441  -2.1382  -2.0585
    -1.9889  -1.9728  -1.9558  -1.7923  -1.7765  -1.7588  -1.6457  -1.4896
    -1.3167  -1.1626  -0.4232  -0.3036  -0.0515   0.0601   0.0816   0.2550
     0.3074   0.4063   0.4914   0.6665   0.7817   0.9075   1.0401   1.0681
     1.1084   1.1656   1.2451   1.2879   1.4284   1.4738   1.5291   1.6316
     1.6331   1.7911   2.1048

          k = 0.0771 0.0610 0.0000 ( 29499 PWs)   bands (ev):

   -63.8299 -63.8168 -63.7790 -63.7657 -63.7293 -63.7162 -37.7611 -37.7485
   -37.7072 -37.6948 -37.6762 -37.6632 -37.6313 -37.6227 -37.6188 -37.6105
   -37.5984 -37.5137 -37.5053 -37.4797 -37.3999 -37.3738 -37.2803 -37.2701
    -4.5015  -4.2126  -3.8557  -3.7965  -3.6624  -3.6549  -3.5153  -3.4915
    -3.4502  -3.3622  -3.1737  -3.1301  -2.9877  -2.9265  -2.7161  -2.7110
    -2.6401  -2.5571  -2.5338  -2.4701  -2.2262  -2.1595  -2.1081  -2.0686
    -2.0240  -1.9954  -1.9631  -1.7874  -1.7719  -1.7265  -1.6420  -1.5869
    -1.3559  -1.2251  -0.6384  -0.3577  -0.0005   0.0400   0.0429   0.1057
     0.1753   0.3182   0.5536   0.5818   0.7368   0.9727   0.9921   1.0484
     1.0531   1.1701   1.2957   1.3847   1.4162   1.4336   1.4664   1.5996
     1.6045   1.7837   2.1013

          k = 0.0771 0.0784 0.0000 ( 29493 PWs)   bands (ev):

   -63.8298 -63.8168 -63.7790 -63.7657 -63.7293 -63.7161 -37.7614 -37.7485
   -37.7074 -37.6947 -37.6772 -37.6624 -37.6309 -37.6231 -37.6193 -37.6105
   -37.5988 -37.5135 -37.5054 -37.4799 -37.3998 -37.3737 -37.2803 -37.2702
    -4.2580  -4.2453  -3.7936  -3.7684  -3.6239  -3.6164  -3.5125  -3.4506
    -3.4125  -3.3403  -3.2672  -3.0383  -2.9524  -2.9260  -2.7010  -2.6683
    -2.6283  -2.6052  -2.5280  -2.4141  -2.2880  -2.2227  -2.1231  -2.0844
    -2.0608  -2.0296  -1.9448  -1.8218  -1.7643  -1.6890  -1.6698  -1.6537
    -1.3910  -1.2857  -0.7789  -0.4352  -0.1004  -0.0199   0.0009   0.1048
     0.2615   0.2701   0.4749   0.6324   0.7444   0.8346   0.9569   1.0043
     1.1620   1.2127   1.3134   1.3715   1.4573   1.4689   1.5777   1.5854
     1.6526   1.7730   2.1172

          k = 0.0771 0.0958 0.0000 ( 29503 PWs)   bands (ev):

   -63.8298 -63.8168 -63.7790 -63.7657 -63.7293 -63.7161 -37.7615 -37.7485
   -37.7075 -37.6947 -37.6779 -37.6620 -37.6306 -37.6233 -37.6196 -37.6105
   -37.5989 -37.5134 -37.5056 -37.4801 -37.3998 -37.3737 -37.2804 -37.2702
    -4.2605  -4.0296  -3.7980  -3.7403  -3.6110  -3.5823  -3.5145  -3.4399
    -3.3890  -3.3575  -3.3412  -2.9866  -2.9204  -2.8730  -2.7313  -2.7002
    -2.6022  -2.5976  -2.4909  -2.3660  -2.3658  -2.2454  -2.1518  -2.1158
    -2.1080  -2.0549  -1.9336  -1.8441  -1.7556  -1.7350  -1.7087  -1.6142
    -1.4159  -1.3184  -0.8286  -0.4956  -0.1947  -0.0483  -0.0097   0.1412
     0.2260   0.3998   0.4591   0.5631   0.7268   0.8560   0.9195   0.9847
     1.1328   1.3052   1.3062   1.4070   1.4535   1.5145   1.5595   1.6838
     1.7635   1.9129   2.1065

          k = 0.0771 0.1133 0.0000 ( 29503 PWs)   bands (ev):

   -63.8298 -63.8168 -63.7790 -63.7657 -63.7293 -63.7161 -37.7615 -37.7485
   -37.7075 -37.6947 -37.6779 -37.6620 -37.6306 -37.6233 -37.6196 -37.6105
   -37.5989 -37.5134 -37.5056 -37.4801 -37.3998 -37.3737 -37.2804 -37.2702
    -4.2605  -4.0296  -3.7980  -3.7403  -3.6110  -3.5823  -3.5145  -3.4399
    -3.3890  -3.3576  -3.3412  -2.9866  -2.9204  -2.8730  -2.7313  -2.7002
    -2.6022  -2.5976  -2.4909  -2.3660  -2.3658  -2.2454  -2.1518  -2.1158
    -2.1080  -2.0549  -1.9336  -1.8441  -1.7556  -1.7350  -1.7087  -1.6142
    -1.4159  -1.3184  -0.8286  -0.4956  -0.1947  -0.0483  -0.0097   0.1412
     0.2260   0.3998   0.4591   0.5631   0.7268   0.8560   0.9195   0.9847
     1.1328   1.3052   1.3062   1.4070   1.4535   1.5145   1.5595   1.6838
     1.7635   1.9129   2.1062

          k = 0.0771 0.1307 0.0000 ( 29493 PWs)   bands (ev):

   -63.8298 -63.8168 -63.7790 -63.7657 -63.7293 -63.7161 -37.7614 -37.7485
   -37.7074 -37.6947 -37.6772 -37.6624 -37.6309 -37.6231 -37.6193 -37.6105
   -37.5988 -37.5135 -37.5054 -37.4799 -37.3998 -37.3737 -37.2803 -37.2702
    -4.2580  -4.2453  -3.7936  -3.7684  -3.6239  -3.6164  -3.5125  -3.4506
    -3.4125  -3.3403  -3.2672  -3.0383  -2.9524  -2.9260  -2.7010  -2.6683
    -2.6283  -2.6052  -2.5280  -2.4141  -2.2880  -2.2227  -2.1231  -2.0844
    -2.0608  -2.0296  -1.9448  -1.8218  -1.7643  -1.6890  -1.6698  -1.6537
    -1.3910  -1.2857  -0.7789  -0.4352  -0.1004  -0.0199   0.0009   0.1048
     0.2615   0.2701   0.4749   0.6324   0.7444   0.8346   0.9569   1.0043
     1.1620   1.2127   1.3134   1.3715   1.4573   1.4689   1.5777   1.5854
     1.6526   1.7730   2.1172

          k = 0.0771-0.0610 0.0000 ( 29499 PWs)   bands (ev):

   -63.8299 -63.8168 -63.7790 -63.7657 -63.7293 -63.7162 -37.7611 -37.7485
   -37.7072 -37.6948 -37.6762 -37.6632 -37.6313 -37.6227 -37.6188 -37.6105
   -37.5984 -37.5137 -37.5053 -37.4797 -37.3999 -37.3738 -37.2803 -37.2701
    -4.5015  -4.2126  -3.8557  -3.7965  -3.6624  -3.6549  -3.5153  -3.4915
    -3.4502  -3.3622  -3.1737  -3.1301  -2.9877  -2.9265  -2.7161  -2.7110
    -2.6401  -2.5571  -2.5338  -2.4701  -2.2262  -2.1595  -2.1081  -2.0686
    -2.0240  -1.9954  -1.9631  -1.7874  -1.7719  -1.7265  -1.6420  -1.5869
    -1.3559  -1.2251  -0.6384  -0.3577  -0.0005   0.0400   0.0429   0.1057
     0.1753   0.3182   0.5536   0.5818   0.7368   0.9727   0.9921   1.0484
     1.0531   1.1701   1.2957   1.3847   1.4162   1.4336   1.4664   1.5996
     1.6045   1.7837   2.1013

          k = 0.0771-0.0436 0.0000 ( 29494 PWs)   bands (ev):

   -63.8299 -63.8167 -63.7791 -63.7656 -63.7293 -63.7162 -37.7608 -37.7486
   -37.7070 -37.6950 -37.6749 -37.6641 -37.6318 -37.6223 -37.6183 -37.6105
   -37.5981 -37.5138 -37.5051 -37.4795 -37.4000 -37.3739 -37.2802 -37.2701
    -4.7082  -4.1621  -3.9007  -3.8368  -3.7060  -3.6981  -3.5562  -3.5215
    -3.4876  -3.4145  -3.1993  -3.1136  -3.0332  -2.9229  -2.7401  -2.7304
    -2.6290  -2.5583  -2.5553  -2.4751  -2.1807  -2.1441  -2.1382  -2.0585
    -1.9889  -1.9728  -1.9558  -1.7923  -1.7765  -1.7588  -1.6457  -1.4896
    -1.3167  -1.1626  -0.4232  -0.3036  -0.0515   0.0601   0.0816   0.2550
     0.3074   0.4063   0.4914   0.6665   0.7817   0.9075   1.0401   1.0681
     1.1084   1.1656   1.2451   1.2879   1.4284   1.4738   1.5291   1.6316
     1.6331   1.7912   2.1049

          k = 0.0771-0.0261 0.0000 ( 29515 PWs)   bands (ev):

   -63.8300 -63.8167 -63.7792 -63.7656 -63.7293 -63.7162 -37.7605 -37.7486
   -37.7068 -37.6950 -37.6739 -37.6649 -37.6323 -37.6220 -37.6177 -37.6105
   -37.5979 -37.5140 -37.5049 -37.4793 -37.4001 -37.3740 -37.2802 -37.2701
    -4.8554  -4.1029  -3.9164  -3.8663  -3.7509  -3.7393  -3.6200  -3.5290
    -3.5156  -3.4741  -3.2415  -3.0758  -3.0728  -2.9246  -2.7818  -2.7257
    -2.6317  -2.6269  -2.4893  -2.4539  -2.2112  -2.1930  -2.1440  -2.0616
    -1.9645  -1.9621  -1.9123  -1.8353  -1.8049  -1.7425  -1.6438  -1.4114
    -1.2849  -1.1261  -0.2698  -0.2331  -0.0758   0.0954   0.1017   0.3851
     0.4450   0.4936   0.5453   0.7786   0.7942   0.8263   1.0206   1.0733
     1.0836   1.1923   1.2144   1.3095   1.4529   1.5655   1.6630   1.6911
     1.7337   1.8474   2.1365

          k = 0.0771-0.0087 0.0000 ( 29504 PWs)   bands (ev):

   -63.8300 -63.8167 -63.7792 -63.7656 -63.7293 -63.7162 -37.7604 -37.7487
   -37.7067 -37.6951 -37.6733 -37.6655 -37.6325 -37.6218 -37.6174 -37.6105
   -37.5977 -37.5141 -37.5048 -37.4791 -37.4002 -37.3741 -37.2802 -37.2701
    -4.9314  -4.0611  -3.8960  -3.8796  -3.8095  -3.7574  -3.6592  -3.5433
    -3.5303  -3.5028  -3.2623  -3.0920  -3.0537  -2.9300  -2.8097  -2.7180
    -2.6847  -2.6312  -2.4397  -2.3985  -2.2626  -2.2490  -2.1594  -2.0675
    -1.9541  -1.9387  -1.8821  -1.8803  -1.8232  -1.7310  -1.6346  -1.3689
    -1.2682  -1.1127  -0.2567  -0.1572  -0.0547   0.1098   0.1421   0.4424
     0.4677   0.5984   0.6810   0.7476   0.8201   0.8382   0.9571   1.0393
     1.0801   1.1814   1.2067   1.3766   1.4473   1.6151   1.6978   1.8013
     1.8966   2.0589   2.1809

          k = 0.0771 0.0087 0.0000 ( 29504 PWs)   bands (ev):

   -63.8300 -63.8167 -63.7792 -63.7656 -63.7293 -63.7162 -37.7604 -37.7487
   -37.7067 -37.6951 -37.6733 -37.6655 -37.6325 -37.6218 -37.6174 -37.6105
   -37.5977 -37.5141 -37.5048 -37.4791 -37.4002 -37.3741 -37.2802 -37.2701
    -4.9314  -4.0611  -3.8960  -3.8796  -3.8095  -3.7574  -3.6592  -3.5433
    -3.5303  -3.5028  -3.2623  -3.0920  -3.0537  -2.9300  -2.8097  -2.7180
    -2.6847  -2.6312  -2.4397  -2.3985  -2.2626  -2.2490  -2.1594  -2.0675
    -1.9541  -1.9387  -1.8821  -1.8803  -1.8232  -1.7310  -1.6346  -1.3689
    -1.2682  -1.1127  -0.2567  -0.1572  -0.0547   0.1098   0.1421   0.4424
     0.4677   0.5984   0.6810   0.7476   0.8201   0.8382   0.9571   1.0393
     1.0801   1.1814   1.2067   1.3766   1.4473   1.6151   1.6978   1.8014
     1.8966   2.0589   2.1789

          k = 0.0771 0.0261 0.0000 ( 29515 PWs)   bands (ev):

   -63.8300 -63.8167 -63.7792 -63.7656 -63.7293 -63.7162 -37.7605 -37.7486
   -37.7068 -37.6950 -37.6739 -37.6649 -37.6323 -37.6220 -37.6177 -37.6105
   -37.5979 -37.5140 -37.5049 -37.4793 -37.4001 -37.3740 -37.2802 -37.2701
    -4.8554  -4.1029  -3.9164  -3.8663  -3.7509  -3.7393  -3.6200  -3.5290
    -3.5156  -3.4741  -3.2415  -3.0758  -3.0728  -2.9246  -2.7818  -2.7257
    -2.6317  -2.6269  -2.4893  -2.4539  -2.2112  -2.1930  -2.1440  -2.0616
    -1.9645  -1.9621  -1.9123  -1.8353  -1.8049  -1.7425  -1.6438  -1.4114
    -1.2849  -1.1261  -0.2698  -0.2331  -0.0758   0.0954   0.1017   0.3851
     0.4450   0.4936   0.5453   0.7786   0.7942   0.8263   1.0206   1.0733
     1.0836   1.1923   1.2144   1.3095   1.4529   1.5655   1.6630   1.6911
     1.7337   1.8474   2.1366

          k =-0.0925-0.0523 0.0000 ( 29512 PWs)   bands (ev):

   -63.8233 -63.8233 -63.7725 -63.7723 -63.7229 -63.7226 -37.7548 -37.7548
   -37.7010 -37.7010 -37.6697 -37.6696 -37.6259 -37.6258 -37.6049 -37.6047
   -37.5673 -37.5669 -37.4527 -37.4527 -37.4272 -37.4266 -37.2753 -37.2752
    -4.3714  -4.3713  -3.7976  -3.7976  -3.6350  -3.6349  -3.5621  -3.5621
    -3.2929  -3.2929  -3.1193  -3.1192  -3.0339  -3.0339  -2.7130  -2.7130
    -2.5169  -2.5168  -2.4378  -2.4378  -2.1848  -2.1848  -2.1401  -2.1400
    -2.0485  -2.0484  -1.9333  -1.9333  -1.7799  -1.7799  -1.6810  -1.6810
    -1.4289  -1.4289  -0.4170  -0.4170   0.0572   0.0572   0.1029   0.1029
     0.2835   0.2836   0.5749   0.5749   0.9377   0.9377   1.0831   1.0832
     1.1701   1.1701   1.2851   1.2852   1.3459   1.3460   1.3914   1.3914
     1.6811   1.6811   2.1334

          k =-0.0925-0.0349 0.0000 ( 29502 PWs)   bands (ev):

   -63.8234 -63.8233 -63.7725 -63.7722 -63.7229 -63.7226 -37.7549 -37.7546
   -37.7012 -37.7009 -37.6706 -37.6686 -37.6265 -37.6253 -37.6050 -37.6046
   -37.5674 -37.5668 -37.4529 -37.4526 -37.4272 -37.4265 -37.2753 -37.2752
    -4.4946  -4.2139  -3.8017  -3.7821  -3.6409  -3.6356  -3.5762  -3.5538
    -3.3513  -3.2581  -3.1229  -3.1198  -3.0424  -3.0050  -2.7452  -2.6616
    -2.5505  -2.5277  -2.4482  -2.4084  -2.2200  -2.1850  -2.1464  -2.1426
    -2.0689  -2.0294  -1.9799  -1.8925  -1.8061  -1.7784  -1.6944  -1.6575
    -1.4520  -1.4089  -0.4943  -0.3346  -0.0353   0.0297   0.1158   0.2170
     0.3084   0.3446   0.4932   0.6818   0.8783   0.9374   1.0382   1.1131
     1.1256   1.1930   1.2438   1.3002   1.3288   1.3985   1.4511   1.5456
     1.6818   1.6824   2.1421

          k =-0.0925-0.0174 0.0000 ( 29479 PWs)   bands (ev):

   -63.8234 -63.8233 -63.7725 -63.7722 -63.7229 -63.7226 -37.7550 -37.7545
   -37.7012 -37.7007 -37.6714 -37.6678 -37.6269 -37.6248 -37.6050 -37.6045
   -37.5676 -37.5666 -37.4530 -37.4524 -37.4273 -37.4264 -37.2753 -37.2751
    -4.5721  -4.0430  -3.8166  -3.7575  -3.6515  -3.6439  -3.5971  -3.5490
    -3.4149  -3.2409  -3.1302  -3.1224  -3.0430  -2.9555  -2.7374  -2.6819
    -2.5967  -2.5111  -2.4496  -2.3742  -2.2480  -2.2116  -2.1781  -2.1483
    -2.1073  -2.0167  -2.0019  -1.8715  -1.8600  -1.7703  -1.6681  -1.6606
    -1.4768  -1.3939  -0.5213  -0.3218  -0.0475  -0.0070   0.1403   0.2097
     0.4077   0.4790   0.4987   0.7459   0.7700   0.9611   1.0359   1.0696
     1.0714   1.1633   1.2066   1.2889   1.4502   1.4894   1.5275   1.6726
     1.7377   1.8472   2.1695

          k =-0.0925-0.0000 0.0000 ( 29502 PWs)   bands (ev):

   -63.8234 -63.8233 -63.7725 -63.7722 -63.7229 -63.7226 -37.7551 -37.7544
   -37.7013 -37.7007 -37.6718 -37.6676 -37.6270 -37.6247 -37.6051 -37.6045
   -37.5677 -37.5666 -37.4530 -37.4524 -37.4273 -37.4264 -37.2753 -37.2752
    -4.5984  -3.9018  -3.8878  -3.7436  -3.6635  -3.6420  -3.6114  -3.5483
    -3.4423  -3.2351  -3.1367  -3.1211  -3.0424  -2.9241  -2.7164  -2.7065
    -2.6548  -2.4642  -2.4539  -2.3499  -2.2528  -2.2482  -2.1936  -2.1507
    -2.1352  -2.0126  -2.0023  -1.8847  -1.8662  -1.7635  -1.6679  -1.6524
    -1.4880  -1.3888  -0.5238  -0.3270  -0.0459  -0.0213   0.1510   0.2049
     0.4342   0.5105   0.6286   0.6996   0.7062   1.0319   1.0391   1.0540
     1.0551   1.0839   1.2003   1.2847   1.4713   1.5193   1.6118   1.6682
     1.8490   2.0368   2.1025

          k =-0.0925 0.0174 0.0000 ( 29479 PWs)   bands (ev):

   -63.8234 -63.8233 -63.7725 -63.7722 -63.7229 -63.7226 -37.7550 -37.7545
   -37.7012 -37.7007 -37.6714 -37.6678 -37.6269 -37.6248 -37.6050 -37.6045
   -37.5676 -37.5666 -37.4530 -37.4524 -37.4273 -37.4264 -37.2753 -37.2751
    -4.5721  -4.0430  -3.8166  -3.7575  -3.6515  -3.6439  -3.5971  -3.5490
    -3.4149  -3.2409  -3.1302  -3.1224  -3.0430  -2.9555  -2.7374  -2.6819
    -2.5967  -2.5111  -2.4496  -2.3742  -2.2480  -2.2116  -2.1781  -2.1483
    -2.1073  -2.0167  -2.0019  -1.8715  -1.8600  -1.7703  -1.6681  -1.6606
    -1.4768  -1.3939  -0.5213  -0.3218  -0.0475  -0.0070   0.1403   0.2097
     0.4077   0.4790   0.4987   0.7459   0.7700   0.9611   1.0359   1.0696
     1.0714   1.1633   1.2066   1.2889   1.4502   1.4894   1.5275   1.6727
     1.7376   1.8471   2.1695

          k =-0.0925 0.0349 0.0000 ( 29502 PWs)   bands (ev):

   -63.8234 -63.8233 -63.7725 -63.7722 -63.7229 -63.7226 -37.7549 -37.7546
   -37.7012 -37.7009 -37.6706 -37.6686 -37.6265 -37.6253 -37.6050 -37.6046
   -37.5674 -37.5668 -37.4529 -37.4526 -37.4272 -37.4265 -37.2753 -37.2752
    -4.4946  -4.2139  -3.8017  -3.7821  -3.6409  -3.6356  -3.5762  -3.5538
    -3.3513  -3.2581  -3.1229  -3.1198  -3.0424  -3.0050  -2.7452  -2.6616
    -2.5505  -2.5277  -2.4482  -2.4084  -2.2200  -2.1850  -2.1464  -2.1426
    -2.0689  -2.0294  -1.9799  -1.8925  -1.8061  -1.7784  -1.6944  -1.6575
    -1.4520  -1.4089  -0.4943  -0.3346  -0.0353   0.0297   0.1158   0.2170
     0.3084   0.3446   0.4932   0.6818   0.8783   0.9374   1.0382   1.1131
     1.1256   1.1930   1.2438   1.3002   1.3288   1.3985   1.4511   1.5456
     1.6818   1.6824   2.1423

          k =-0.0925-0.1568 0.0000 ( 29512 PWs)   bands (ev):

   -63.8233 -63.8233 -63.7725 -63.7723 -63.7229 -63.7226 -37.7548 -37.7548
   -37.7010 -37.7010 -37.6697 -37.6696 -37.6259 -37.6258 -37.6049 -37.6047
   -37.5673 -37.5669 -37.4527 -37.4527 -37.4272 -37.4266 -37.2753 -37.2752
    -4.3714  -4.3713  -3.7976  -3.7976  -3.6350  -3.6349  -3.5621  -3.5621
    -3.2929  -3.2929  -3.1193  -3.1192  -3.0339  -3.0339  -2.7130  -2.7130
    -2.5169  -2.5168  -2.4378  -2.4378  -2.1848  -2.1848  -2.1401  -2.1400
    -2.0485  -2.0484  -1.9333  -1.9333  -1.7799  -1.7799  -1.6810  -1.6810
    -1.4289  -1.4289  -0.4170  -0.4170   0.0572   0.0572   0.1029   0.1029
     0.2836   0.2836   0.5749   0.5749   0.9377   0.9377   1.0831   1.0832
     1.1701   1.1701   1.2851   1.2852   1.3459   1.3460   1.3914   1.3914
     1.6811   1.6811   2.1334

     the Fermi energy is     0.7628 ev

!    total energy              =   -1288.57774571 Ry
     estimated scf accuracy    <       0.00000678 Ry
     smearing contrib. (-TS)   =      -0.08058319 Ry
     internal energy E=F+TS    =   -1288.49716253 Ry

     The total energy is F=E-TS. E is the sum of the following terms:
     one-electron contribution =  -11236.68176241 Ry
     hartree contribution      =    5652.21291911 Ry
     xc contribution           =    -260.98817116 Ry
     ewald contribution        =    4556.95985011 Ry
     electric field correction =       0.00000182 Ry

     convergence has been achieved in  20 iterations

     negative rho (up, down):  1.586E-03 0.000E+00

     Forces acting on atoms (cartesian axes, Ry/au):

     atom    1 type  1   force =     0.00000016    0.01491138    0.02540464
     atom    2 type  1   force =    -0.00000188    0.01488896    0.02536423
     atom    3 type  2   force =     0.00000411   -0.02407343   -0.01341777
     atom    4 type  2   force =    -0.00000419   -0.02407174   -0.01341860
     atom    5 type  1   force =     0.00000102    0.00112781   -0.00391639
     atom    6 type  1   force =    -0.00000039    0.00112945   -0.00390046
     atom    7 type  2   force =     0.00000919    0.00911554   -0.00861410
     atom    8 type  2   force =    -0.00000968    0.00911493   -0.00861477
     atom    9 type  1   force =     0.00000344   -0.00003493    0.00003042
     atom   10 type  1   force =    -0.00000135   -0.00000914    0.00005466
     atom   11 type  2   force =    -0.00001589   -0.00104928    0.00051410
     atom   12 type  2   force =     0.00001549   -0.00104955    0.00051403

     Total force =     0.060019     Total SCF correction =     0.009419
     SCF correction compared to forces is large: reduce conv_thr to get better values

     Writing output data file ./V2Pd2/V2Pd2_beef.save/

     init_run     :     87.88s CPU     88.41s WALL (       1 calls)
     electrons    :   3630.15s CPU   3682.10s WALL (       1 calls)
     forces       :     37.46s CPU     37.68s WALL (       1 calls)

     Called by init_run:
     wfcinit      :     72.69s CPU     73.00s WALL (       1 calls)
     potinit      :      9.70s CPU      9.79s WALL (       1 calls)
     hinit0       :      3.24s CPU      3.25s WALL (       1 calls)

     Called by electrons:
     c_bands      :   3196.71s CPU   3241.31s WALL (      20 calls)
     sum_band     :    384.91s CPU    388.87s WALL (      20 calls)
     v_of_rho     :     34.85s CPU     36.13s WALL (      21 calls)
     newd         :     18.87s CPU     20.94s WALL (      21 calls)
     mix_rho      :      2.89s CPU      2.92s WALL (      20 calls)
     vdW_kernel   :      6.26s CPU      6.27s WALL (       1 calls)

     Called by c_bands:
     init_us_2    :     11.50s CPU     11.61s WALL (    3108 calls)
     cegterg      :   3165.36s CPU   3207.17s WALL (    1480 calls)

     Called by *egterg:
     cdiaghg      :    145.87s CPU    146.95s WALL (    7765 calls)
     h_psi        :   1979.62s CPU   2014.27s WALL (    7839 calls)
     s_psi        :    391.85s CPU    392.43s WALL (    7839 calls)
     g_psi        :      1.15s CPU      1.17s WALL (    6285 calls)

     Called by h_psi:
     h_psi:calbec :    473.00s CPU    476.09s WALL (    7839 calls)
     vloc_psi     :   1084.79s CPU   1115.75s WALL (    7839 calls)
     add_vuspsi   :    417.49s CPU    418.06s WALL (    7839 calls)

     General routines
     calbec       :    686.32s CPU    689.86s WALL (    9615 calls)
     fft          :     23.99s CPU     24.46s WALL (    1382 calls)
     ffts         :      0.37s CPU      0.37s WALL (      41 calls)
     fftw         :   1226.02s CPU   1257.97s WALL (  716132 calls)
     interpolate  :      0.52s CPU      0.54s WALL (      21 calls)

     Parallel routines
     fft_scatt_xy :     43.35s CPU     43.85s WALL (  717555 calls)
     fft_scatt_yz :    806.42s CPU    832.75s WALL (  717555 calls)

     PWSCF        :      1h 3m CPU      1h 4m WALL


   This run was terminated on:  16:32:12  25Jun2022            

=------------------------------------------------------------------------------=
   JOB DONE.
=------------------------------------------------------------------------------=
