
     Program PWSCF v.6.6 starts on 25Jun2022 at 16:32:17 

     This program is part of the open-source Quantum ESPRESSO suite
     for quantum simulation of materials; please cite
         "P. Giannozzi et al., J. Phys.:Condens. Matter 21 395502 (2009);
         "P. Giannozzi et al., J. Phys.:Condens. Matter 29 465901 (2017);
          URL http://www.quantum-espresso.org", 
     in publications or presentations arising from this work. More details at
     http://www.quantum-espresso.org/quote

     Parallel version (MPI), running on    37 processors

     MPI processes distributed on     1 nodes
     R & G space division:  proc/nbgrp/npool/nimage =      37
     Fft bands division:     nmany     =       1
     Reading input from V2Pt2.in
Warning: card &CELL ignored
Warning: card / ignored

     Current dimensions of program PWSCF are:
     Max number of different atomic species (ntypx) = 10
     Max number of k-points (npk) =  40000
     Max angular momentum in pseudopotentials (lmaxx) =  3
     Presently stress not available with electric field and gates

     Message from routine cell_base_init:
     DEPRECATED: use true lattice parameter, not A to a.u. conversion factor
     file V.pbe-spnl-rrkjus_psl.1.0.0.UPF: wavefunction(s)  3P 3D renormalized
     file Pt.pbe-n-rrkjus_psl.1.0.0.UPF: wavefunction(s)  6S renormalized

     **************************************************************************
     Initializing libbeef V0.1.2 with the BEEF-vdW functional.
     Citation: Wellendorff et al., PRB 85, 235149 (2012).
     **************************************************************************


     IMPORTANT: XC functional enforced from input :
     Exchange-correlation= BEEF-VDW
                           (   1   4  43  14   2   0   0)
     Any further DFT definition will be discarded
     Please, verify this is what you really want


     Subspace diagonalization in iterative solution of the eigenvalue problem:
     a serial algorithm will be used


     Parallelization info
     --------------------
     sticks:   dense  smooth     PW     G-vecs:    dense   smooth      PW
     Min         109      43     12                25137     6349     996
     Max         110      44     13                25148     6370    1011
     Sum        4045    1619    471               930233   235357   37229



     bravais-lattice index     =            0
     lattice parameter (alat)  =       1.8897  a.u.
     unit-cell volume          =    4255.7249 (a.u.)^3
     number of atoms/cell      =           12
     number of atomic types    =            2
     number of electrons       =       138.00
     number of Kohn-Sham states=           83
     kinetic-energy cutoff     =      55.1240  Ry
     charge density cutoff     =     551.2396  Ry
     convergence threshold     =      1.0E-05
     mixing beta               =       0.1000
     number of iterations used =           10  plain     mixing
     Exchange-correlation= BEEF-VDW
                           (   1   4  43  14   2   0   0)

     celldm(1)=   1.889726  celldm(2)=   0.000000  celldm(3)=   0.000000
     celldm(4)=   0.000000  celldm(5)=   0.000000  celldm(6)=   0.000000

     crystal axes: (cart. coord. in units of alat)
               a(1) = (   5.417548   0.000000   0.000000 )  
               a(2) = (  -2.708774   4.760034   0.000000 )  
               a(3) = (   0.000000   0.000000  24.454805 )  

     reciprocal axes: (cart. coord. in units 2 pi/alat)
               b(1) = (  0.184585  0.105041 -0.000000 )  
               b(2) = (  0.000000  0.210083  0.000000 )  
               b(3) = (  0.000000 -0.000000  0.040892 )  


     PseudoPot. # 1 for V  read from file:
     ../pseudo/V.pbe-spnl-rrkjus_psl.1.0.0.UPF
     MD5 check sum: 79b3eb63147daf0b665d9f1bcc691206
     Pseudo is Ultrasoft + core correction, Zval = 13.0
     Generated using "atomic" code by A. Dal Corso v.6.2.2
     Using radial grid of 1181 points,  6 beta functions with: 
                l(1) =   0
                l(2) =   0
                l(3) =   1
                l(4) =   1
                l(5) =   2
                l(6) =   2
     Q(r) pseudized with 0 coefficients 


     PseudoPot. # 2 for Pt read from file:
     ../pseudo/Pt.pbe-n-rrkjus_psl.1.0.0.UPF
     MD5 check sum: 6bc887cfe28d63a5fc1f72d35a7d3ef7
     Pseudo is Ultrasoft + core correction, Zval = 10.0
     Generated using "atomic" code by A. Dal Corso v.6.3
     Using radial grid of 1277 points,  6 beta functions with: 
                l(1) =   0
                l(2) =   0
                l(3) =   1
                l(4) =   1
                l(5) =   2
                l(6) =   2
     Q(r) pseudized with 0 coefficients 


     atomic species   valence    mass     pseudopotential
        V             13.00    50.94150     V ( 1.00)
        Pt            10.00   195.08400     Pt( 1.00)

     No symmetry found



   Cartesian axes

     site n.     atom                  positions (alat units)
         1           V   tau(   1) = (   0.0000000   0.0000000  10.0000000  )
         2           V   tau(   2) = (   2.7087742   0.0000000  10.0000000  )
         3           Pt  tau(   3) = (   1.3543871   2.3800170  10.0000000  )
         4           Pt  tau(   4) = (  -1.3543871   2.3800170  10.0000000  )
         5           V   tau(   5) = (   2.7087742   1.5414716  12.2274027  )
         6           V   tau(   6) = (  -0.0000000   1.5414716  12.2274027  )
         7           Pt  tau(   7) = (  -1.3543871   3.9214886  12.2274027  )
         8           Pt  tau(   8) = (   1.3543871   3.9214886  12.2274027  )
         9           V   tau(   9) = (  -0.0000000   3.1507941  14.3521920  )
        10           V   tau(  10) = (   2.7087742   3.1508233  14.3521791  )
        11           Pt  tau(  11) = (   4.0632572   0.8787669  14.4264858  )
        12           Pt  tau(  12) = (   1.3542907   0.8787671  14.4264858  )

     number of k points=    74  Fermi-Dirac smearing, width (Ry)=  0.0100
                       cart. coord. in units 2pi/alat
        k(    1) = (   0.0000000   0.0000000   0.0000000), wk =   0.0138889
        k(    2) = (   0.0000000   0.0175069   0.0000000), wk =   0.0277778
        k(    3) = (   0.0000000   0.0350138   0.0000000), wk =   0.0277778
        k(    4) = (   0.0000000   0.0525206   0.0000000), wk =   0.0277778
        k(    5) = (   0.0000000   0.0700275   0.0000000), wk =   0.0277778
        k(    6) = (   0.0000000   0.0875344   0.0000000), wk =   0.0277778
        k(    7) = (   0.0000000  -0.1050413   0.0000000), wk =   0.0138889
        k(    8) = (   0.0153821   0.0087534   0.0000000), wk =   0.0277778
        k(    9) = (   0.0153821   0.0262603   0.0000000), wk =   0.0277778
        k(   10) = (   0.0153821   0.0437672   0.0000000), wk =   0.0277778
        k(   11) = (   0.0153821   0.0612741   0.0000000), wk =   0.0277778
        k(   12) = (   0.0153821   0.0787809   0.0000000), wk =   0.0277778
        k(   13) = (   0.0153821   0.0962878   0.0000000), wk =   0.0277778
        k(   14) = (   0.0153821  -0.0962878   0.0000000), wk =   0.0277778
        k(   15) = (   0.0153821  -0.0787809   0.0000000), wk =   0.0277778
        k(   16) = (   0.0153821  -0.0612741   0.0000000), wk =   0.0277778
        k(   17) = (   0.0153821  -0.0437672   0.0000000), wk =   0.0277778
        k(   18) = (   0.0153821  -0.0262603   0.0000000), wk =   0.0277778
        k(   19) = (   0.0153821  -0.0087534   0.0000000), wk =   0.0277778
        k(   20) = (   0.0307642   0.0175069   0.0000000), wk =   0.0277778
        k(   21) = (   0.0307642   0.0350138   0.0000000), wk =   0.0277778
        k(   22) = (   0.0307642   0.0525206   0.0000000), wk =   0.0277778
        k(   23) = (   0.0307642   0.0700275   0.0000000), wk =   0.0277778
        k(   24) = (   0.0307642   0.0875344   0.0000000), wk =   0.0277778
        k(   25) = (   0.0307642   0.1050413   0.0000000), wk =   0.0277778
        k(   26) = (   0.0307642  -0.0875344   0.0000000), wk =   0.0277778
        k(   27) = (   0.0307642  -0.0700275   0.0000000), wk =   0.0277778
        k(   28) = (   0.0307642  -0.0525206   0.0000000), wk =   0.0277778
        k(   29) = (   0.0307642  -0.0350138   0.0000000), wk =   0.0277778
        k(   30) = (   0.0307642  -0.0175069   0.0000000), wk =   0.0277778
        k(   31) = (   0.0307642  -0.0000000   0.0000000), wk =   0.0277778
        k(   32) = (   0.0461463   0.0262603   0.0000000), wk =   0.0277778
        k(   33) = (   0.0461463   0.0437672   0.0000000), wk =   0.0277778
        k(   34) = (   0.0461463   0.0612741   0.0000000), wk =   0.0277778
        k(   35) = (   0.0461463   0.0787809   0.0000000), wk =   0.0277778
        k(   36) = (   0.0461463   0.0962878   0.0000000), wk =   0.0277778
        k(   37) = (   0.0461463   0.1137947   0.0000000), wk =   0.0277778
        k(   38) = (   0.0461463  -0.0787809   0.0000000), wk =   0.0277778
        k(   39) = (   0.0461463  -0.0612741   0.0000000), wk =   0.0277778
        k(   40) = (   0.0461463  -0.0437672   0.0000000), wk =   0.0277778
        k(   41) = (   0.0461463  -0.0262603   0.0000000), wk =   0.0277778
        k(   42) = (   0.0461463  -0.0087534   0.0000000), wk =   0.0277778
        k(   43) = (   0.0461463   0.0087534   0.0000000), wk =   0.0277778
        k(   44) = (   0.0615285   0.0350138   0.0000000), wk =   0.0277778
        k(   45) = (   0.0615285   0.0525206   0.0000000), wk =   0.0277778
        k(   46) = (   0.0615285   0.0700275   0.0000000), wk =   0.0277778
        k(   47) = (   0.0615285   0.0875344   0.0000000), wk =   0.0277778
        k(   48) = (   0.0615285   0.1050413   0.0000000), wk =   0.0277778
        k(   49) = (   0.0615285   0.1225481   0.0000000), wk =   0.0277778
        k(   50) = (   0.0615285  -0.0700275   0.0000000), wk =   0.0277778
        k(   51) = (   0.0615285  -0.0525206   0.0000000), wk =   0.0277778
        k(   52) = (   0.0615285  -0.0350138   0.0000000), wk =   0.0277778
        k(   53) = (   0.0615285  -0.0175069   0.0000000), wk =   0.0277778
        k(   54) = (   0.0615285   0.0000000   0.0000000), wk =   0.0277778
        k(   55) = (   0.0615285   0.0175069   0.0000000), wk =   0.0277778
        k(   56) = (   0.0769106   0.0437672   0.0000000), wk =   0.0277778
        k(   57) = (   0.0769106   0.0612741   0.0000000), wk =   0.0277778
        k(   58) = (   0.0769106   0.0787809   0.0000000), wk =   0.0277778
        k(   59) = (   0.0769106   0.0962878   0.0000000), wk =   0.0277778
        k(   60) = (   0.0769106   0.1137947   0.0000000), wk =   0.0277778
        k(   61) = (   0.0769106   0.1313016   0.0000000), wk =   0.0277778
        k(   62) = (   0.0769106  -0.0612741   0.0000000), wk =   0.0277778
        k(   63) = (   0.0769106  -0.0437672   0.0000000), wk =   0.0277778
        k(   64) = (   0.0769106  -0.0262603   0.0000000), wk =   0.0277778
        k(   65) = (   0.0769106  -0.0087534   0.0000000), wk =   0.0277778
        k(   66) = (   0.0769106   0.0087534   0.0000000), wk =   0.0277778
        k(   67) = (   0.0769106   0.0262603   0.0000000), wk =   0.0277778
        k(   68) = (  -0.0922927  -0.0525206   0.0000000), wk =   0.0138889
        k(   69) = (  -0.0922927  -0.0350138   0.0000000), wk =   0.0277778
        k(   70) = (  -0.0922927  -0.0175069   0.0000000), wk =   0.0277778
        k(   71) = (  -0.0922927   0.0000000   0.0000000), wk =   0.0277778
        k(   72) = (  -0.0922927   0.0175069   0.0000000), wk =   0.0277778
        k(   73) = (  -0.0922927   0.0350138   0.0000000), wk =   0.0277778
        k(   74) = (  -0.0922927  -0.1575619   0.0000000), wk =   0.0138889

     Dense  grid:   930233 G-vectors     FFT dimensions: (  80,  80, 360)

     Smooth grid:   235357 G-vectors     FFT dimensions: (  50,  50, 225)

     Estimated max dynamical RAM per process >     176.52 MB

     Estimated total dynamical RAM >       6.38 GB

     Initial potential from superposition of free atoms

     starting charge  137.99353, renormalised to  138.00000

     negative rho (up, down):  1.213E-03 0.000E+00


     %%%%%%%%%%%%%%%%%%%%%%%%%%%%%%%%%%%%%%%%%%%%%%%%%%%%%%%%%%%%%%%%%%%%%%%%
     %                                                                      %
     % You are using vdW-DF, which was implemented by the Thonhauser group. %
     % Please cite the following two papers that made this development      %
     % possible and the two reviews that describe the various versions:     %
     %                                                                      %
     %   T. Thonhauser et al., PRL 115, 136402 (2015).                      %
     %   T. Thonhauser et al., PRB 76, 125112 (2007).                       %
     %   K. Berland et al., Rep. Prog. Phys. 78, 066501 (2015).             %
     %   D.C. Langreth et al., J. Phys.: Condens. Matter 21, 084203 (2009). %
     %                                                                      %
     %                                                                      %
     % If you are calculating the stress with vdW-DF, please also cite:     %
     %                                                                      %
     %   R. Sabatini et al., J. Phys.: Condens. Matter 24, 424209 (2012).   %
     %                                                                      %
     %%%%%%%%%%%%%%%%%%%%%%%%%%%%%%%%%%%%%%%%%%%%%%%%%%%%%%%%%%%%%%%%%%%%%%%%



     Adding external electric field

     Computed dipole along edir(3) : 
        Dipole               -0.0001 Ry au,         -0.0002 Debye
        Dipole field         -0.0000 Ry au, 

        Potential amp.        0.0000 Ry
        Total length         45.0576 bohr

     Starting wfcs are  114 randomized atomic wfcs

     total cpu time spent up to now is       70.1 secs

     Self-consistent Calculation

     iteration #  1     ecut=    55.12 Ry     beta= 0.10
     Davidson diagonalization with overlap
     ethr =  1.00E-02,  avg # of iterations =  2.0

     negative rho (up, down):  1.073E-03 0.000E+00

     Adding external electric field

     Computed dipole along edir(3) : 
        Dipole               -0.2171 Ry au,         -0.5518 Debye
        Dipole field         -0.0006 Ry au, 

        Potential amp.        0.0578 Ry
        Total length         45.0576 bohr


     total cpu time spent up to now is      192.3 secs

     total energy              =   -1273.66095059 Ry
     estimated scf accuracy    <       8.99685751 Ry

     iteration #  2     ecut=    55.12 Ry     beta= 0.10
     Davidson diagonalization with overlap
     ethr =  6.52E-03,  avg # of iterations =  2.1

     negative rho (up, down):  1.858E-03 0.000E+00

     Adding external electric field

     Computed dipole along edir(3) : 
        Dipole                0.8160 Ry au,          2.0740 Debye
        Dipole field          0.0024 Ry au, 

        Potential amp.       -0.2171 Ry
        Total length         45.0576 bohr


     total cpu time spent up to now is      527.8 secs

     total energy              =   -1274.06002433 Ry
     estimated scf accuracy    <       6.42132649 Ry

     iteration #  3     ecut=    55.12 Ry     beta= 0.10
     Davidson diagonalization with overlap
     ethr =  4.65E-03,  avg # of iterations =  2.3

     negative rho (up, down):  2.491E-03 0.000E+00

     Adding external electric field

     Computed dipole along edir(3) : 
        Dipole               -0.0474 Ry au,         -0.1205 Debye
        Dipole field         -0.0001 Ry au, 

        Potential amp.        0.0126 Ry
        Total length         45.0576 bohr


     total cpu time spent up to now is      640.4 secs

     total energy              =   -1274.03356479 Ry
     estimated scf accuracy    <      49.06252933 Ry

     iteration #  4     ecut=    55.12 Ry     beta= 0.10
     Davidson diagonalization with overlap
     ethr =  4.65E-03,  avg # of iterations =  1.0

     negative rho (up, down):  4.210E-03 0.000E+00

     Adding external electric field

     Computed dipole along edir(3) : 
        Dipole               -0.0109 Ry au,         -0.0278 Debye
        Dipole field         -0.0000 Ry au, 

        Potential amp.        0.0029 Ry
        Total length         45.0576 bohr


     total cpu time spent up to now is      741.6 secs

     total energy              =   -1274.69811073 Ry
     estimated scf accuracy    <       1.38020371 Ry

     iteration #  5     ecut=    55.12 Ry     beta= 0.10
     Davidson diagonalization with overlap
     ethr =  1.00E-03,  avg # of iterations =  2.1

     negative rho (up, down):  2.595E-03 0.000E+00

     Adding external electric field

     Computed dipole along edir(3) : 
        Dipole               -0.0407 Ry au,         -0.1035 Debye
        Dipole field         -0.0001 Ry au, 

        Potential amp.        0.0108 Ry
        Total length         45.0576 bohr


     total cpu time spent up to now is     1080.1 secs

     total energy              =   -1274.68157862 Ry
     estimated scf accuracy    <       0.47768022 Ry

     iteration #  6     ecut=    55.12 Ry     beta= 0.10
     Davidson diagonalization with overlap
     ethr =  3.46E-04,  avg # of iterations =  3.3

     negative rho (up, down):  1.135E-02 0.000E+00

     Adding external electric field

     Computed dipole along edir(3) : 
        Dipole                0.0719 Ry au,          0.1828 Debye
        Dipole field          0.0002 Ry au, 

        Potential amp.       -0.0191 Ry
        Total length         45.0576 bohr


     total cpu time spent up to now is     1196.3 secs

     total energy              =   -1274.63604808 Ry
     estimated scf accuracy    <       0.31390139 Ry

     iteration #  7     ecut=    55.12 Ry     beta= 0.10
     Davidson diagonalization with overlap
     ethr =  2.27E-04,  avg # of iterations =  5.4

     negative rho (up, down):  8.933E-03 0.000E+00

     Adding external electric field

     Computed dipole along edir(3) : 
        Dipole               -0.0129 Ry au,         -0.0327 Debye
        Dipole field         -0.0000 Ry au, 

        Potential amp.        0.0034 Ry
        Total length         45.0576 bohr


     total cpu time spent up to now is     1339.6 secs

     total energy              =   -1274.67279618 Ry
     estimated scf accuracy    <       0.44265080 Ry

     iteration #  8     ecut=    55.12 Ry     beta= 0.10
     Davidson diagonalization with overlap
     ethr =  2.27E-04,  avg # of iterations =  1.9

     negative rho (up, down):  6.590E-03 0.000E+00

     Adding external electric field

     Computed dipole along edir(3) : 
        Dipole               -0.0073 Ry au,         -0.0186 Debye
        Dipole field         -0.0000 Ry au, 

        Potential amp.        0.0020 Ry
        Total length         45.0576 bohr


     total cpu time spent up to now is     1818.3 secs

     total energy              =   -1274.68077771 Ry
     estimated scf accuracy    <       0.05845683 Ry

     iteration #  9     ecut=    55.12 Ry     beta= 0.10
     Davidson diagonalization with overlap
     c_bands:  2 eigenvalues not converged
     c_bands:  3 eigenvalues not converged
     c_bands:  1 eigenvalues not converged
     c_bands:  1 eigenvalues not converged
     c_bands:  1 eigenvalues not converged
     c_bands:  2 eigenvalues not converged
     c_bands:  1 eigenvalues not converged
     c_bands:  1 eigenvalues not converged
     c_bands:  1 eigenvalues not converged
     c_bands:  1 eigenvalues not converged
     c_bands:  3 eigenvalues not converged
     c_bands:  1 eigenvalues not converged
     c_bands:  1 eigenvalues not converged
     c_bands:  2 eigenvalues not converged
     c_bands:  1 eigenvalues not converged
     c_bands:  1 eigenvalues not converged
     c_bands:  1 eigenvalues not converged
     c_bands:  1 eigenvalues not converged
     c_bands:  2 eigenvalues not converged
     c_bands:  1 eigenvalues not converged
     c_bands:  1 eigenvalues not converged
     c_bands:  1 eigenvalues not converged
     ethr =  4.24E-05,  avg # of iterations = 14.5

     negative rho (up, down):  7.477E-03 0.000E+00

     Adding external electric field

     Computed dipole along edir(3) : 
        Dipole                0.0094 Ry au,          0.0240 Debye
        Dipole field          0.0000 Ry au, 

        Potential amp.       -0.0025 Ry
        Total length         45.0576 bohr


     total cpu time spent up to now is     2040.1 secs

     total energy              =   -1274.69321152 Ry
     estimated scf accuracy    <       0.09888377 Ry

     iteration # 10     ecut=    55.12 Ry     beta= 0.10
     Davidson diagonalization with overlap
     c_bands:  1 eigenvalues not converged
     c_bands:  1 eigenvalues not converged
     ethr =  4.24E-05,  avg # of iterations =  2.7

     negative rho (up, down):  1.421E-02 0.000E+00

     Adding external electric field

     Computed dipole along edir(3) : 
        Dipole               -0.0008 Ry au,         -0.0021 Debye
        Dipole field         -0.0000 Ry au, 

        Potential amp.        0.0002 Ry
        Total length         45.0576 bohr


     total cpu time spent up to now is     2155.6 secs

     total energy              =   -1274.69875489 Ry
     estimated scf accuracy    <       0.02383494 Ry

     iteration # 11     ecut=    55.12 Ry     beta= 0.10
     Davidson diagonalization with overlap
     c_bands:  4 eigenvalues not converged
     c_bands:  1 eigenvalues not converged
     c_bands:  1 eigenvalues not converged
     c_bands:  1 eigenvalues not converged
     ethr =  1.73E-05,  avg # of iterations =  9.5

     negative rho (up, down):  2.046E-02 0.000E+00

     Adding external electric field

     Computed dipole along edir(3) : 
        Dipole               -0.0216 Ry au,         -0.0549 Debye
        Dipole field         -0.0001 Ry au, 

        Potential amp.        0.0057 Ry
        Total length         45.0576 bohr


     total cpu time spent up to now is     2331.3 secs

     total energy              =   -1274.70482250 Ry
     estimated scf accuracy    <       0.07095324 Ry

     iteration # 12     ecut=    55.12 Ry     beta= 0.10
     Davidson diagonalization with overlap
     ethr =  1.73E-05,  avg # of iterations =  1.7

     negative rho (up, down):  1.729E-02 0.000E+00

     Adding external electric field

     Computed dipole along edir(3) : 
        Dipole               -0.0197 Ry au,         -0.0499 Debye
        Dipole field         -0.0001 Ry au, 

        Potential amp.        0.0052 Ry
        Total length         45.0576 bohr


     total cpu time spent up to now is     2440.9 secs

     total energy              =   -1274.69341269 Ry
     estimated scf accuracy    <       0.07612507 Ry

     iteration # 13     ecut=    55.12 Ry     beta= 0.10
     Davidson diagonalization with overlap
     c_bands:  1 eigenvalues not converged
     c_bands:  1 eigenvalues not converged
     ethr =  1.73E-05,  avg # of iterations =  6.6

     negative rho (up, down):  1.586E-02 0.000E+00

     Adding external electric field

     Computed dipole along edir(3) : 
        Dipole               -0.0049 Ry au,         -0.0124 Debye
        Dipole field         -0.0000 Ry au, 

        Potential amp.        0.0013 Ry
        Total length         45.0576 bohr


     total cpu time spent up to now is     2578.7 secs

     total energy              =   -1274.70043775 Ry
     estimated scf accuracy    <       0.00743641 Ry

     iteration # 14     ecut=    55.12 Ry     beta= 0.10
     Davidson diagonalization with overlap
     c_bands:  3 eigenvalues not converged
     c_bands:  3 eigenvalues not converged
     c_bands:  3 eigenvalues not converged
     c_bands:  1 eigenvalues not converged
     c_bands:  1 eigenvalues not converged
     c_bands:  1 eigenvalues not converged
     c_bands:  1 eigenvalues not converged
     c_bands:  3 eigenvalues not converged
     c_bands:  4 eigenvalues not converged
     c_bands:  2 eigenvalues not converged
     c_bands:  2 eigenvalues not converged
     c_bands:  1 eigenvalues not converged
     c_bands:  1 eigenvalues not converged
     c_bands:  2 eigenvalues not converged
     c_bands:  2 eigenvalues not converged
     ethr =  5.39E-06,  avg # of iterations =  8.2

     negative rho (up, down):  1.494E-02 0.000E+00

     Adding external electric field

     Computed dipole along edir(3) : 
        Dipole               -0.0000 Ry au,         -0.0001 Debye
        Dipole field         -0.0000 Ry au, 

        Potential amp.        0.0000 Ry
        Total length         45.0576 bohr


     total cpu time spent up to now is     2715.0 secs

     total energy              =   -1274.70111747 Ry
     estimated scf accuracy    <       0.00104158 Ry

     iteration # 15     ecut=    55.12 Ry     beta= 0.10
     Davidson diagonalization with overlap
     c_bands:  2 eigenvalues not converged
     c_bands:  1 eigenvalues not converged
     c_bands:  1 eigenvalues not converged
     c_bands:  2 eigenvalues not converged
     c_bands:  2 eigenvalues not converged
     c_bands:  3 eigenvalues not converged
     c_bands:  1 eigenvalues not converged
     c_bands:  1 eigenvalues not converged
     c_bands:  2 eigenvalues not converged
     c_bands:  1 eigenvalues not converged
     c_bands:  1 eigenvalues not converged
     c_bands:  3 eigenvalues not converged
     c_bands:  2 eigenvalues not converged
     c_bands:  4 eigenvalues not converged
     c_bands:  1 eigenvalues not converged
     c_bands:  1 eigenvalues not converged
     c_bands:  2 eigenvalues not converged
     c_bands:  1 eigenvalues not converged
     c_bands:  3 eigenvalues not converged
     c_bands:  3 eigenvalues not converged
     c_bands:  2 eigenvalues not converged
     c_bands:  1 eigenvalues not converged
     c_bands:  1 eigenvalues not converged
     c_bands:  2 eigenvalues not converged
     c_bands:  2 eigenvalues not converged
     c_bands:  1 eigenvalues not converged
     c_bands:  2 eigenvalues not converged
     c_bands:  2 eigenvalues not converged
     c_bands:  1 eigenvalues not converged
     c_bands:  1 eigenvalues not converged
     c_bands:  3 eigenvalues not converged
     ethr =  7.55E-07,  avg # of iterations = 15.7

     negative rho (up, down):  1.300E-02 0.000E+00

     Adding external electric field

     Computed dipole along edir(3) : 
        Dipole               -0.0048 Ry au,         -0.0122 Debye
        Dipole field         -0.0000 Ry au, 

        Potential amp.        0.0013 Ry
        Total length         45.0576 bohr


     total cpu time spent up to now is     2925.1 secs

     total energy              =   -1274.70201401 Ry
     estimated scf accuracy    <       0.00037906 Ry

     iteration # 16     ecut=    55.12 Ry     beta= 0.10
     Davidson diagonalization with overlap
     c_bands:  1 eigenvalues not converged
     c_bands:  1 eigenvalues not converged
     c_bands:  2 eigenvalues not converged
     c_bands:  3 eigenvalues not converged
     c_bands:  1 eigenvalues not converged
     c_bands:  1 eigenvalues not converged
     c_bands:  2 eigenvalues not converged
     c_bands:  1 eigenvalues not converged
     c_bands:  2 eigenvalues not converged
     c_bands:  2 eigenvalues not converged
     c_bands:  2 eigenvalues not converged
     c_bands:  1 eigenvalues not converged
     ethr =  2.75E-07,  avg # of iterations = 10.2

     negative rho (up, down):  1.224E-02 0.000E+00

     Adding external electric field

     Computed dipole along edir(3) : 
        Dipole               -0.0038 Ry au,         -0.0096 Debye
        Dipole field         -0.0000 Ry au, 

        Potential amp.        0.0010 Ry
        Total length         45.0576 bohr


     total cpu time spent up to now is     3087.2 secs

     total energy              =   -1274.70193460 Ry
     estimated scf accuracy    <       0.00218178 Ry

     iteration # 17     ecut=    55.12 Ry     beta= 0.10
     Davidson diagonalization with overlap
     c_bands:  1 eigenvalues not converged
     c_bands:  1 eigenvalues not converged
     c_bands:  1 eigenvalues not converged
     c_bands:  2 eigenvalues not converged
     ethr =  2.75E-07,  avg # of iterations =  7.1

     negative rho (up, down):  1.160E-02 0.000E+00

     Adding external electric field

     Computed dipole along edir(3) : 
        Dipole               -0.0028 Ry au,         -0.0072 Debye
        Dipole field         -0.0000 Ry au, 

        Potential amp.        0.0008 Ry
        Total length         45.0576 bohr


     total cpu time spent up to now is     3245.2 secs

     total energy              =   -1274.70224693 Ry
     estimated scf accuracy    <       0.00010551 Ry

     iteration # 18     ecut=    55.12 Ry     beta= 0.10
     Davidson diagonalization with overlap
     ethr =  7.65E-08,  avg # of iterations =  6.7

     negative rho (up, down):  1.082E-02 0.000E+00

     Adding external electric field

     Computed dipole along edir(3) : 
        Dipole               -0.0041 Ry au,         -0.0104 Debye
        Dipole field         -0.0000 Ry au, 

        Potential amp.        0.0011 Ry
        Total length         45.0576 bohr


     total cpu time spent up to now is     3421.4 secs

     total energy              =   -1274.70243972 Ry
     estimated scf accuracy    <       0.00015758 Ry

     iteration # 19     ecut=    55.12 Ry     beta= 0.10
     Davidson diagonalization with overlap
     ethr =  7.65E-08,  avg # of iterations =  2.0

     negative rho (up, down):  9.877E-03 0.000E+00

     Adding external electric field

     Computed dipole along edir(3) : 
        Dipole               -0.0045 Ry au,         -0.0114 Debye
        Dipole field         -0.0000 Ry au, 

        Potential amp.        0.0012 Ry
        Total length         45.0576 bohr


     total cpu time spent up to now is     3538.8 secs

     total energy              =   -1274.70265644 Ry
     estimated scf accuracy    <       0.00002859 Ry

     iteration # 20     ecut=    55.12 Ry     beta= 0.10
     Davidson diagonalization with overlap
     ethr =  2.07E-08,  avg # of iterations =  6.6

     negative rho (up, down):  8.913E-03 0.000E+00

     Adding external electric field

     Computed dipole along edir(3) : 
        Dipole               -0.0040 Ry au,         -0.0103 Debye
        Dipole field         -0.0000 Ry au, 

        Potential amp.        0.0011 Ry
        Total length         45.0576 bohr


     total cpu time spent up to now is     3712.3 secs

     total energy              =   -1274.70286407 Ry
     estimated scf accuracy    <       0.00005679 Ry

     iteration # 21     ecut=    55.12 Ry     beta= 0.10
     Davidson diagonalization with overlap
     ethr =  2.07E-08,  avg # of iterations =  2.2

     negative rho (up, down):  8.024E-03 0.000E+00

     Adding external electric field

     Computed dipole along edir(3) : 
        Dipole               -0.0040 Ry au,         -0.0101 Debye
        Dipole field         -0.0000 Ry au, 

        Potential amp.        0.0011 Ry
        Total length         45.0576 bohr


     total cpu time spent up to now is     3832.5 secs

     total energy              =   -1274.70303609 Ry
     estimated scf accuracy    <       0.00001525 Ry

     iteration # 22     ecut=    55.12 Ry     beta= 0.10
     Davidson diagonalization with overlap
     ethr =  1.11E-08,  avg # of iterations =  5.6

     negative rho (up, down):  1.296E-03 0.000E+00

     Adding external electric field

     Computed dipole along edir(3) : 
        Dipole               -0.0116 Ry au,         -0.0295 Debye
        Dipole field         -0.0000 Ry au, 

        Potential amp.        0.0031 Ry
        Total length         45.0576 bohr


     total cpu time spent up to now is     3987.7 secs

     End of self-consistent calculation

          k = 0.0000 0.0000 0.0000 ( 29337 PWs)   bands (ev):

   -63.5658 -63.5433 -63.5205 -63.5151 -63.4940 -63.4715 -37.5301 -37.4939
   -37.4583 -37.4509 -37.4485 -37.4155 -37.4060 -37.3911 -37.3526 -37.3483
   -37.3441 -37.3437 -37.3007 -37.1258 -37.1116 -37.0725 -36.9541 -36.9509
    -7.2580  -5.5653  -5.3034  -5.1409  -4.8139  -4.7786  -4.5042  -4.4462
    -4.4063  -4.0994  -4.0379  -4.0150  -3.8899  -3.8099  -3.2619  -3.1688
    -2.7683  -2.4508  -2.4445  -2.2654  -2.1811  -2.1614  -1.8336  -1.7669
    -1.6836  -1.6488  -1.5445  -1.1120  -1.0220  -0.4016  -0.1457  -0.0979
     0.0180   0.0757   0.2625   0.4101   0.5226   0.5456   0.6557   0.7026
     1.0515   1.3095   1.3757   1.3803   1.5513   1.6936   1.7321   1.7534
     2.0246   2.2233   2.3214   2.4038   2.4156   2.5028   2.6158   2.6186
     2.6399   2.6546   2.6970

          k = 0.0000 0.0175 0.0000 ( 29347 PWs)   bands (ev):

   -63.5657 -63.5433 -63.5205 -63.5151 -63.4940 -63.4715 -37.5303 -37.4942
   -37.4590 -37.4505 -37.4486 -37.4155 -37.4058 -37.3913 -37.3527 -37.3486
   -37.3444 -37.3440 -37.3008 -37.1260 -37.1117 -37.0724 -36.9542 -36.9511
    -7.2087  -5.5334  -5.2841  -5.1130  -4.7868  -4.7474  -4.4863  -4.4254
    -4.3863  -4.0701  -4.0094  -3.9780  -3.8618  -3.7929  -3.2679  -3.1155
    -2.7815  -2.4426  -2.4421  -2.3409  -2.1821  -2.0722  -1.8179  -1.7471
    -1.7103  -1.6718  -1.5156  -1.0939  -0.9967  -0.4107  -0.1992  -0.0935
    -0.0379   0.0319   0.2526   0.3773   0.4192   0.5156   0.6418   0.6575
     0.9375   1.2846   1.2984   1.3490   1.4163   1.6848   1.7046   1.8071
     1.8306   2.1618   2.2216   2.2368   2.3188   2.3931   2.4194   2.6130
     2.7026   2.7694   2.8611

          k = 0.0000 0.0350 0.0000 ( 29385 PWs)   bands (ev):

   -63.5656 -63.5432 -63.5205 -63.5151 -63.4940 -63.4715 -37.5309 -37.4952
   -37.4607 -37.4496 -37.4490 -37.4156 -37.4054 -37.3919 -37.3529 -37.3492
   -37.3455 -37.3449 -37.3012 -37.1261 -37.1119 -37.0725 -36.9543 -36.9513
    -7.0659  -5.4520  -5.2304  -5.0356  -4.7085  -4.6612  -4.4328  -4.3674
    -4.3220  -3.9949  -3.9203  -3.8714  -3.7757  -3.7389  -3.2854  -2.9638
    -2.8156  -2.4503  -2.4194  -2.4165  -2.2309  -1.9561  -1.7831  -1.7747
    -1.6987  -1.6316  -1.4885  -1.0430  -0.9249  -0.4355  -0.3705  -0.2328
    -0.0810  -0.0270   0.1715   0.2144   0.2911   0.4367   0.4506   0.6169
     0.7119   1.0467   1.0942   1.2088   1.2669   1.4436   1.6338   1.6426
     1.6931   1.7974   1.9247   2.0745   2.3012   2.3042   2.3300   2.5613
     2.6694   2.7006   2.7995

          k = 0.0000 0.0525 0.0000 ( 29367 PWs)   bands (ev):

   -63.5653 -63.5432 -63.5205 -63.5151 -63.4940 -63.4714 -37.5316 -37.4965
   -37.4624 -37.4495 -37.4490 -37.4155 -37.4050 -37.3926 -37.3532 -37.3501
   -37.3470 -37.3461 -37.3018 -37.1262 -37.1122 -37.0727 -36.9544 -36.9514
    -6.8469  -5.3660  -5.1464  -4.9277  -4.5874  -4.5534  -4.3328  -4.2859
    -4.2091  -3.8985  -3.7771  -3.7120  -3.6416  -3.6293  -3.3095  -2.8675
    -2.7399  -2.4880  -2.4708  -2.3859  -2.2841  -2.0526  -1.7593  -1.6508
    -1.6357  -1.5519  -1.4657  -0.9699  -0.8193  -0.7113  -0.4696  -0.4009
    -0.1626  -0.1000  -0.0636   0.1062   0.1397   0.1880   0.3225   0.4909
     0.5296   0.7119   0.7428   0.8687   1.0179   1.1408   1.3128   1.4678
     1.4783   1.6154   1.7926   2.0627   2.1492   2.2316   2.2920   2.4078
     2.5696   2.6248   2.7001

          k = 0.0000 0.0700 0.0000 ( 29395 PWs)   bands (ev):

   -63.5651 -63.5432 -63.5205 -63.5151 -63.4940 -63.4713 -37.5323 -37.4979
   -37.4637 -37.4500 -37.4486 -37.4154 -37.4048 -37.3931 -37.3533 -37.3512
   -37.3486 -37.3473 -37.3025 -37.1263 -37.1124 -37.0728 -36.9545 -36.9516
    -6.5869  -5.3278  -5.0421  -4.8184  -4.4704  -4.4407  -4.2018  -4.1792
    -4.0590  -3.8109  -3.6166  -3.5457  -3.4880  -3.4474  -3.3226  -2.9392
    -2.6031  -2.5186  -2.4129  -2.3496  -2.3206  -2.1767  -1.8010  -1.6134
    -1.5708  -1.4522  -1.3294  -1.0848  -0.8946  -0.7031  -0.5417  -0.5104
    -0.5014  -0.2556  -0.1849  -0.0983  -0.0456   0.0723   0.2021   0.2992
     0.3636   0.4349   0.4490   0.5186   0.7250   0.8969   0.8979   1.2198
     1.4510   1.5775   1.7022   1.9090   1.9511   2.1104   2.1419   2.2487
     2.4751   2.4897   2.5918

          k = 0.0000 0.0875 0.0000 ( 29444 PWs)   bands (ev):

   -63.5650 -63.5432 -63.5205 -63.5150 -63.4939 -63.4713 -37.5329 -37.4989
   -37.4646 -37.4503 -37.4486 -37.4151 -37.4048 -37.3936 -37.3533 -37.3521
   -37.3498 -37.3482 -37.3030 -37.1265 -37.1126 -37.0730 -36.9545 -36.9517
    -6.3516  -5.3427  -4.9570  -4.7382  -4.4191  -4.3043  -4.1385  -4.0168
    -3.9181  -3.7719  -3.4957  -3.4075  -3.3744  -3.3206  -3.2999  -2.9499
    -2.6820  -2.4722  -2.3541  -2.3198  -2.2800  -2.0613  -1.9401  -1.6217
    -1.5877  -1.4638  -1.3690  -1.1498  -0.8424  -0.7817  -0.6642  -0.6106
    -0.5182  -0.5104  -0.4249  -0.1623  -0.0736  -0.0323   0.0872   0.1634
     0.1701   0.2000   0.2942   0.4342   0.5629   0.6019   0.7053   0.9696
     1.4572   1.5640   1.6536   1.6564   1.9327   2.0055   2.0806   2.1352
     2.3411   2.4402   2.4767

          k = 0.0000-0.1050 0.0000 ( 29390 PWs)   bands (ev):

   -63.5649 -63.5432 -63.5205 -63.5150 -63.4939 -63.4712 -37.5332 -37.4993
   -37.4648 -37.4505 -37.4485 -37.4150 -37.4047 -37.3936 -37.3533 -37.3526
   -37.3501 -37.3484 -37.3032 -37.1265 -37.1126 -37.0729 -36.9545 -36.9517
    -6.2487  -5.3628  -4.9251  -4.7089  -4.4005  -4.2434  -4.1150  -3.9287
    -3.8638  -3.7715  -3.4535  -3.4166  -3.3412  -3.2761  -3.2463  -2.9115
    -2.7377  -2.4105  -2.3825  -2.3074  -2.1705  -1.9900  -1.8930  -1.7814
    -1.6964  -1.5783  -1.3361  -1.0802  -0.8868  -0.8258  -0.6844  -0.6116
    -0.5759  -0.5201  -0.5049  -0.1747  -0.1729  -0.0276   0.0364   0.0850
     0.1005   0.1646   0.2451   0.4096   0.4924   0.5201   0.6290   0.8651
     1.4708   1.5545   1.5629   1.6455   1.9311   1.9639   2.0596   2.0922
     2.2887   2.4240   2.4288

          k = 0.0154 0.0088 0.0000 ( 29367 PWs)   bands (ev):

   -63.5649 -63.5424 -63.5197 -63.5160 -63.4948 -63.4724 -37.5235 -37.4932
   -37.4577 -37.4500 -37.4494 -37.4163 -37.4066 -37.3905 -37.3460 -37.3450
   -37.3431 -37.3419 -37.3015 -37.1330 -37.1110 -37.0731 -36.9611 -36.9580
    -7.1951  -5.5007  -5.2395  -5.1060  -4.7788  -4.7336  -4.4716  -4.4608
    -4.3842  -4.0560  -4.0036  -3.9918  -3.8481  -3.8001  -3.2362  -3.1449
    -2.7728  -2.4319  -2.4249  -2.2977  -2.1738  -2.1475  -1.8257  -1.8098
    -1.7487  -1.6812  -1.5414  -1.1575  -1.0689  -0.5302  -0.1649  -0.1017
     0.0392   0.0945   0.2261   0.2924   0.4580   0.5708   0.6254   0.7097
     1.0556   1.1501   1.2941   1.3108   1.4495   1.6673   1.7020   1.7737
     1.8768   2.1181   2.1901   2.2744   2.3538   2.4361   2.4480   2.5451
     2.6299   2.7864   2.8031

          k = 0.0154 0.0263 0.0000 ( 29356 PWs)   bands (ev):

   -63.5648 -63.5424 -63.5197 -63.5160 -63.4948 -63.4723 -37.5238 -37.4939
   -37.4590 -37.4497 -37.4493 -37.4164 -37.4064 -37.3909 -37.3461 -37.3457
   -37.3437 -37.3423 -37.3017 -37.1330 -37.1112 -37.0732 -36.9612 -36.9581
    -7.0979  -5.4401  -5.2022  -5.0528  -4.7293  -4.6719  -4.4388  -4.4211
    -4.3439  -4.0028  -3.9428  -3.9223  -3.7937  -3.7665  -3.2480  -3.0414
    -2.7971  -2.4380  -2.4136  -2.3812  -2.2075  -2.0063  -1.8022  -1.7753
    -1.7649  -1.7266  -1.5090  -1.1256  -1.0263  -0.5527  -0.2246  -0.1479
    -0.0909   0.0452   0.1051   0.2784   0.3533   0.5191   0.5585   0.6222
     0.8715   0.9955   1.2257   1.2350   1.3072   1.5894   1.6291   1.6731
     1.7650   1.9075   1.9845   2.0702   2.2345   2.3840   2.3978   2.5766
     2.6523   2.7133   2.7632

          k = 0.0154 0.0438 0.0000 ( 29359 PWs)   bands (ev):

   -63.5646 -63.5424 -63.5197 -63.5160 -63.4948 -63.4723 -37.5245 -37.4951
   -37.4608 -37.4501 -37.4485 -37.4163 -37.4060 -37.3915 -37.3471 -37.3463
   -37.3447 -37.3430 -37.3022 -37.1332 -37.1114 -37.0732 -36.9613 -36.9583
    -6.9139  -5.3481  -5.1341  -4.9580  -4.6353  -4.5664  -4.3706  -4.3517
    -4.2558  -3.9150  -3.8206  -3.7922  -3.6954  -3.6826  -3.2692  -2.8516
    -2.8402  -2.4685  -2.4561  -2.3762  -2.2569  -1.9966  -1.7734  -1.7338
    -1.7229  -1.6724  -1.4885  -1.0709  -0.9526  -0.5977  -0.4838  -0.2663
    -0.1469  -0.1412  -0.0098   0.2201   0.2278   0.3059   0.4291   0.5466
     0.6592   0.7473   0.9228   1.0107   1.1489   1.2758   1.4035   1.5121
     1.5369   1.6411   1.8622   2.1326   2.1486   2.2373   2.3145   2.4602
     2.5114   2.6130   2.7158

          k = 0.0154 0.0613 0.0000 ( 29392 PWs)   bands (ev):

   -63.5644 -63.5424 -63.5197 -63.5159 -63.4948 -63.4722 -37.5252 -37.4964
   -37.4623 -37.4505 -37.4481 -37.4162 -37.4057 -37.3921 -37.3486 -37.3466
   -37.3459 -37.3440 -37.3029 -37.1333 -37.1117 -37.0734 -36.9613 -36.9585
    -6.6679  -5.2805  -5.0381  -4.8453  -4.5065  -4.4699  -4.2715  -4.2427
    -4.1219  -3.8157  -3.6600  -3.6284  -3.5810  -3.5200  -3.2893  -2.9054
    -2.6339  -2.5150  -2.4878  -2.3400  -2.3039  -2.1276  -1.7804  -1.7012
    -1.5983  -1.5897  -1.4249  -1.0226  -0.8951  -0.8273  -0.6211  -0.4690
    -0.3918  -0.1670  -0.0745  -0.0294   0.0442   0.1174   0.3242   0.3918
     0.4719   0.5271   0.6096   0.6457   0.8758   0.9144   1.0644   1.3527
     1.4610   1.5898   1.7174   1.9774   2.0070   2.1573   2.2116   2.3507
     2.4758   2.5363   2.6559

          k = 0.0154 0.0788 0.0000 ( 29414 PWs)   bands (ev):

   -63.5642 -63.5423 -63.5197 -63.5159 -63.4948 -63.4721 -37.5259 -37.4976
   -37.4634 -37.4509 -37.4479 -37.4160 -37.4055 -37.3926 -37.3500 -37.3470
   -37.3467 -37.3450 -37.3035 -37.1335 -37.1119 -37.0736 -36.9614 -36.9586
    -6.4076  -5.2727  -4.9384  -4.7464  -4.4104  -4.3627  -4.2060  -4.0721
    -3.9678  -3.7440  -3.5228  -3.4733  -3.4163  -3.3790  -3.2825  -2.9681
    -2.6414  -2.5134  -2.3664  -2.3140  -2.3112  -2.1593  -1.8767  -1.6877
    -1.6014  -1.5344  -1.2470  -1.2277  -0.9635  -0.7985  -0.7665  -0.6710
    -0.5180  -0.3231  -0.3200  -0.1385  -0.0585  -0.0018   0.1635   0.2192
     0.2715   0.3518   0.4388   0.4554   0.6003   0.6929   0.8211   1.0970
     1.4662   1.5656   1.6425   1.7499   1.9370   2.0497   2.1331   2.2058
     2.4314   2.4670   2.5465

          k = 0.0154 0.0963 0.0000 ( 29426 PWs)   bands (ev):

   -63.5641 -63.5423 -63.5196 -63.5159 -63.4948 -63.4721 -37.5263 -37.4984
   -37.4640 -37.4512 -37.4479 -37.4158 -37.4055 -37.3928 -37.3508 -37.3476
   -37.3466 -37.3457 -37.3038 -37.1335 -37.1120 -37.0736 -36.9615 -36.9587
    -6.2209  -5.3015  -4.8775  -4.6892  -4.3792  -4.2424  -4.1852  -3.9289
    -3.8571  -3.7258  -3.4539  -3.4057  -3.3492  -3.2890  -3.2501  -2.9369
    -2.7260  -2.4395  -2.3868  -2.2921  -2.2115  -2.0155  -1.9543  -1.7427
    -1.6865  -1.5487  -1.4809  -1.1246  -0.9685  -0.9444  -0.7862  -0.7437
    -0.5141  -0.4788  -0.4367  -0.1582  -0.1289  -0.0589  -0.0019   0.1176
     0.1227   0.3102   0.3463   0.3860   0.4605   0.6255   0.6719   0.9126
     1.4849   1.5673   1.5950   1.6150   1.9320   1.9745   2.0945   2.1180
     2.3169   2.4299   2.4513

          k = 0.0154-0.0963 0.0000 ( 29426 PWs)   bands (ev):

   -63.5641 -63.5423 -63.5196 -63.5159 -63.4948 -63.4721 -37.5263 -37.4984
   -37.4640 -37.4512 -37.4479 -37.4158 -37.4055 -37.3928 -37.3508 -37.3476
   -37.3466 -37.3457 -37.3038 -37.1335 -37.1120 -37.0736 -36.9615 -36.9587
    -6.2209  -5.3015  -4.8775  -4.6892  -4.3792  -4.2424  -4.1852  -3.9289
    -3.8571  -3.7258  -3.4539  -3.4057  -3.3492  -3.2890  -3.2501  -2.9369
    -2.7260  -2.4395  -2.3868  -2.2921  -2.2115  -2.0155  -1.9543  -1.7427
    -1.6865  -1.5487  -1.4809  -1.1246  -0.9685  -0.9444  -0.7862  -0.7437
    -0.5141  -0.4788  -0.4367  -0.1582  -0.1289  -0.0589  -0.0019   0.1176
     0.1227   0.3102   0.3463   0.3860   0.4605   0.6255   0.6719   0.9126
     1.4849   1.5673   1.5950   1.6150   1.9320   1.9745   2.0945   2.1180
     2.3173   2.4300   2.4513

          k = 0.0154-0.0788 0.0000 ( 29414 PWs)   bands (ev):

   -63.5642 -63.5423 -63.5197 -63.5159 -63.4948 -63.4721 -37.5259 -37.4976
   -37.4634 -37.4509 -37.4479 -37.4160 -37.4055 -37.3926 -37.3500 -37.3470
   -37.3467 -37.3450 -37.3035 -37.1335 -37.1119 -37.0736 -36.9614 -36.9586
    -6.4076  -5.2727  -4.9384  -4.7464  -4.4104  -4.3627  -4.2060  -4.0721
    -3.9678  -3.7440  -3.5228  -3.4733  -3.4163  -3.3790  -3.2825  -2.9681
    -2.6414  -2.5134  -2.3664  -2.3140  -2.3112  -2.1593  -1.8767  -1.6877
    -1.6014  -1.5344  -1.2470  -1.2277  -0.9635  -0.7985  -0.7665  -0.6710
    -0.5180  -0.3231  -0.3200  -0.1385  -0.0585  -0.0018   0.1635   0.2192
     0.2715   0.3518   0.4388   0.4554   0.6003   0.6929   0.8211   1.0970
     1.4662   1.5656   1.6425   1.7499   1.9370   2.0497   2.1331   2.2054
     2.4315   2.4662   2.5465

          k = 0.0154-0.0613 0.0000 ( 29392 PWs)   bands (ev):

   -63.5644 -63.5424 -63.5197 -63.5159 -63.4948 -63.4722 -37.5252 -37.4964
   -37.4623 -37.4505 -37.4481 -37.4162 -37.4057 -37.3921 -37.3486 -37.3466
   -37.3459 -37.3440 -37.3029 -37.1333 -37.1117 -37.0734 -36.9613 -36.9585
    -6.6679  -5.2805  -5.0381  -4.8454  -4.5065  -4.4699  -4.2715  -4.2427
    -4.1219  -3.8157  -3.6600  -3.6284  -3.5810  -3.5200  -3.2893  -2.9054
    -2.6339  -2.5150  -2.4878  -2.3400  -2.3039  -2.1276  -1.7804  -1.7012
    -1.5983  -1.5897  -1.4249  -1.0227  -0.8951  -0.8273  -0.6211  -0.4690
    -0.3918  -0.1670  -0.0745  -0.0294   0.0442   0.1174   0.3242   0.3918
     0.4719   0.5271   0.6096   0.6457   0.8758   0.9144   1.0644   1.3527
     1.4610   1.5898   1.7174   1.9774   2.0070   2.1573   2.2115   2.3503
     2.4757   2.5340   2.6564

          k = 0.0154-0.0438 0.0000 ( 29359 PWs)   bands (ev):

   -63.5646 -63.5424 -63.5197 -63.5160 -63.4948 -63.4723 -37.5245 -37.4951
   -37.4608 -37.4501 -37.4485 -37.4163 -37.4060 -37.3915 -37.3471 -37.3463
   -37.3447 -37.3430 -37.3022 -37.1332 -37.1114 -37.0732 -36.9613 -36.9583
    -6.9139  -5.3481  -5.1341  -4.9580  -4.6353  -4.5664  -4.3706  -4.3517
    -4.2558  -3.9150  -3.8206  -3.7922  -3.6954  -3.6826  -3.2692  -2.8516
    -2.8402  -2.4685  -2.4561  -2.3762  -2.2569  -1.9966  -1.7734  -1.7338
    -1.7229  -1.6724  -1.4885  -1.0709  -0.9526  -0.5977  -0.4838  -0.2663
    -0.1469  -0.1412  -0.0098   0.2201   0.2278   0.3059   0.4291   0.5466
     0.6592   0.7473   0.9228   1.0107   1.1489   1.2758   1.4035   1.5121
     1.5369   1.6411   1.8622   2.1326   2.1486   2.2373   2.3145   2.4599
     2.5114   2.6131   2.7160

          k = 0.0154-0.0263 0.0000 ( 29356 PWs)   bands (ev):

   -63.5648 -63.5424 -63.5197 -63.5160 -63.4948 -63.4723 -37.5238 -37.4939
   -37.4590 -37.4497 -37.4493 -37.4164 -37.4064 -37.3909 -37.3461 -37.3457
   -37.3437 -37.3423 -37.3017 -37.1330 -37.1112 -37.0732 -36.9612 -36.9581
    -7.0979  -5.4401  -5.2022  -5.0528  -4.7293  -4.6719  -4.4388  -4.4211
    -4.3439  -4.0028  -3.9428  -3.9223  -3.7937  -3.7665  -3.2480  -3.0414
    -2.7971  -2.4380  -2.4136  -2.3812  -2.2075  -2.0063  -1.8022  -1.7753
    -1.7649  -1.7266  -1.5090  -1.1256  -1.0263  -0.5527  -0.2246  -0.1479
    -0.0909   0.0452   0.1051   0.2784   0.3533   0.5191   0.5585   0.6222
     0.8715   0.9955   1.2257   1.2350   1.3072   1.5894   1.6291   1.6731
     1.7650   1.9075   1.9845   2.0702   2.2345   2.3840   2.3978   2.5773
     2.6515   2.7139   2.7640

          k = 0.0154-0.0088 0.0000 ( 29367 PWs)   bands (ev):

   -63.5649 -63.5424 -63.5197 -63.5160 -63.4948 -63.4724 -37.5235 -37.4932
   -37.4577 -37.4500 -37.4494 -37.4163 -37.4066 -37.3905 -37.3460 -37.3450
   -37.3431 -37.3419 -37.3015 -37.1330 -37.1110 -37.0731 -36.9611 -36.9580
    -7.1951  -5.5007  -5.2395  -5.1060  -4.7788  -4.7336  -4.4716  -4.4608
    -4.3842  -4.0560  -4.0036  -3.9918  -3.8481  -3.8001  -3.2362  -3.1449
    -2.7728  -2.4319  -2.4249  -2.2977  -2.1738  -2.1475  -1.8257  -1.8098
    -1.7487  -1.6812  -1.5414  -1.1575  -1.0689  -0.5302  -0.1649  -0.1017
     0.0392   0.0945   0.2261   0.2924   0.4580   0.5708   0.6254   0.7097
     1.0556   1.1501   1.2941   1.3108   1.4495   1.6673   1.7020   1.7737
     1.8768   2.1181   2.1901   2.2744   2.3538   2.4360   2.4479   2.5449
     2.6298   2.7861   2.8037

          k = 0.0308 0.0175 0.0000 ( 29396 PWs)   bands (ev):

   -63.5623 -63.5400 -63.5185 -63.5172 -63.4973 -63.4748 -37.5039 -37.4913
   -37.4561 -37.4520 -37.4474 -37.4188 -37.4087 -37.3886 -37.3477 -37.3413
   -37.3265 -37.3227 -37.3039 -37.1538 -37.1092 -37.0751 -36.9815 -36.9786
    -7.0099  -5.3121  -5.0521  -5.0058  -4.6859  -4.6039  -4.4886  -4.3763
    -4.3162  -3.9568  -3.9318  -3.8915  -3.7634  -3.7263  -3.1624  -3.0754
    -2.7915  -2.4108  -2.3850  -2.3195  -2.2044  -2.0917  -1.9449  -1.9146
    -1.7970  -1.7540  -1.5462  -1.2927  -1.2050  -0.7946  -0.3100  -0.3063
    -0.0785   0.0628   0.1580   0.3005   0.3861   0.5418   0.5707   0.6369
     0.7110   0.9769   1.0424   1.2732   1.3130   1.4884   1.6527   1.6724
     1.7092   1.8661   1.9055   2.1159   2.1496   2.4004   2.4865   2.4967
     2.5396   2.6542   2.7149

          k = 0.0308 0.0350 0.0000 ( 29354 PWs)   bands (ev):

   -63.5622 -63.5400 -63.5185 -63.5172 -63.4973 -63.4748 -37.5044 -37.4921
   -37.4576 -37.4523 -37.4466 -37.4188 -37.4083 -37.3890 -37.3487 -37.3420
   -37.3267 -37.3233 -37.3042 -37.1538 -37.1093 -37.0752 -36.9815 -36.9787
    -6.8679  -5.2290  -5.0001  -4.9347  -4.6426  -4.5101  -4.4214  -4.3387
    -4.2584  -3.8786  -3.8462  -3.8102  -3.7091  -3.6547  -3.1785  -2.9307
    -2.8241  -2.4548  -2.4488  -2.3147  -2.2346  -1.9968  -1.9311  -1.8831
    -1.7872  -1.7620  -1.5222  -1.2630  -1.1688  -0.8202  -0.4605  -0.3494
    -0.2253  -0.1067   0.1222   0.1983   0.3687   0.4070   0.4244   0.5779
     0.5862   0.8544   0.8589   1.0866   1.2005   1.3575   1.4061   1.4892
     1.5816   1.6638   1.9404   2.0134   2.1446   2.2291   2.3040   2.4623
     2.5481   2.6060   2.7012

          k = 0.0308 0.0525 0.0000 ( 29385 PWs)   bands (ev):

   -63.5620 -63.5399 -63.5185 -63.5172 -63.4973 -63.4747 -37.5050 -37.4934
   -37.4592 -37.4527 -37.4460 -37.4186 -37.4080 -37.3895 -37.3502 -37.3431
   -37.3269 -37.3241 -37.3047 -37.1539 -37.1096 -37.0753 -36.9815 -36.9788
    -6.6486  -5.1382  -4.9223  -4.8306  -4.5731  -4.3936  -4.3302  -4.2632
    -4.1480  -3.7775  -3.7106  -3.6886  -3.6134  -3.5373  -3.1989  -2.8794
    -2.7265  -2.5136  -2.5063  -2.2849  -2.2799  -2.0804  -1.9393  -1.8324
    -1.7326  -1.6644  -1.4912  -1.2370  -1.1348  -0.8564  -0.6958  -0.5933
    -0.3254  -0.2159   0.0408   0.0714   0.1395   0.2369   0.2479   0.4700
     0.5076   0.6569   0.6867   0.8366   0.8894   1.0069   1.1755   1.4356
     1.4625   1.6236   1.7150   2.0116   2.0211   2.1318   2.1879   2.4288
     2.4521   2.5697   2.6266

          k = 0.0308 0.0700 0.0000 ( 29409 PWs)   bands (ev):

   -63.5618 -63.5399 -63.5185 -63.5172 -63.4973 -63.4746 -37.5057 -37.4946
   -37.4605 -37.4530 -37.4458 -37.4184 -37.4079 -37.3900 -37.3516 -37.3442
   -37.3271 -37.3250 -37.3053 -37.1540 -37.1098 -37.0755 -36.9816 -36.9789
    -6.3848  -5.0990  -4.8250  -4.7191  -4.4889  -4.3341  -4.2352  -4.0966
    -4.0011  -3.6865  -3.5751  -3.5404  -3.4764  -3.4018  -3.2037  -2.9612
    -2.6247  -2.5478  -2.4597  -2.3160  -2.2683  -2.1600  -1.9703  -1.8060
    -1.7391  -1.6168  -1.3709  -1.2592  -1.1391  -0.9499  -0.9255  -0.8444
    -0.3807  -0.3065  -0.2086  -0.0918  -0.0772   0.0993   0.1002   0.2776
     0.4111   0.4442   0.5226   0.5952   0.7137   0.8794   0.9488   1.2317
     1.4816   1.5521   1.6216   1.8041   1.9511   2.0803   2.1978   2.3061
     2.4744   2.5231   2.6322

          k = 0.0308 0.0875 0.0000 ( 29427 PWs)   bands (ev):

   -63.5617 -63.5399 -63.5185 -63.5172 -63.4973 -63.4746 -37.5062 -37.4956
   -37.4613 -37.4533 -37.4457 -37.4181 -37.4078 -37.3903 -37.3526 -37.3450
   -37.3270 -37.3258 -37.3057 -37.1541 -37.1099 -37.0756 -36.9816 -36.9790
    -6.1405  -5.1230  -4.7435  -4.6342  -4.4139  -4.3047  -4.1563  -3.9160
    -3.8540  -3.6477  -3.4900  -3.3892  -3.3750  -3.3319  -3.1762  -2.9990
    -2.7078  -2.5043  -2.3976  -2.2884  -2.2672  -2.0538  -2.0488  -1.8240
    -1.7619  -1.6827  -1.3929  -1.2631  -1.2313  -1.1118  -1.0310  -0.9370
    -0.4318  -0.4088  -0.3244  -0.2527  -0.2214  -0.0078   0.0653   0.0841
     0.1782   0.2909   0.4660   0.5813   0.6682   0.7642   0.8383   1.0155
     1.5029   1.5356   1.5985   1.6871   1.9357   2.0092   2.1719   2.1802
     2.4225   2.4567   2.5259

          k = 0.0308 0.1050 0.0000 ( 29392 PWs)   bands (ev):

   -63.5616 -63.5399 -63.5185 -63.5172 -63.4973 -63.4746 -37.5064 -37.4959
   -37.4615 -37.4534 -37.4457 -37.4179 -37.4078 -37.3903 -37.3529 -37.3452
   -37.3269 -37.3262 -37.3059 -37.1541 -37.1100 -37.0756 -36.9816 -36.9790
    -6.0309  -5.1511  -4.7130  -4.6028  -4.3829  -4.2936  -4.1227  -3.8342
    -3.7684  -3.6468  -3.4581  -3.4425  -3.3272  -3.2495  -3.1600  -2.9814
    -2.7649  -2.4486  -2.4231  -2.2414  -2.1948  -2.1484  -1.9068  -1.8408
    -1.7822  -1.7636  -1.5743  -1.2798  -1.2696  -1.1125  -1.0494  -0.9578
    -0.4765  -0.3948  -0.3438  -0.3128  -0.2776  -0.0820  -0.0123   0.0987
     0.1136   0.2225   0.4488   0.5808   0.6634   0.6912   0.8327   0.9249
     1.5096   1.5390   1.5914   1.6582   1.9359   1.9757   2.1277   2.1668
     2.3332   2.4333   2.4638

          k = 0.0308-0.0875 0.0000 ( 29427 PWs)   bands (ev):

   -63.5617 -63.5399 -63.5185 -63.5172 -63.4973 -63.4746 -37.5062 -37.4956
   -37.4613 -37.4533 -37.4457 -37.4181 -37.4078 -37.3903 -37.3526 -37.3450
   -37.3270 -37.3258 -37.3057 -37.1541 -37.1099 -37.0756 -36.9816 -36.9790
    -6.1405  -5.1230  -4.7435  -4.6342  -4.4139  -4.3047  -4.1563  -3.9160
    -3.8540  -3.6477  -3.4900  -3.3892  -3.3750  -3.3319  -3.1762  -2.9990
    -2.7078  -2.5043  -2.3976  -2.2884  -2.2672  -2.0538  -2.0488  -1.8240
    -1.7619  -1.6827  -1.3929  -1.2631  -1.2313  -1.1118  -1.0310  -0.9370
    -0.4318  -0.4088  -0.3244  -0.2527  -0.2214  -0.0078   0.0653   0.0841
     0.1782   0.2908   0.4660   0.5813   0.6682   0.7642   0.8383   1.0155
     1.5029   1.5356   1.5985   1.6871   1.9357   2.0092   2.1719   2.1802
     2.4224   2.4566   2.5263

          k = 0.0308-0.0700 0.0000 ( 29409 PWs)   bands (ev):

   -63.5618 -63.5399 -63.5185 -63.5172 -63.4973 -63.4746 -37.5057 -37.4946
   -37.4605 -37.4530 -37.4458 -37.4184 -37.4079 -37.3900 -37.3516 -37.3442
   -37.3271 -37.3250 -37.3053 -37.1540 -37.1098 -37.0755 -36.9816 -36.9789
    -6.3848  -5.0990  -4.8250  -4.7191  -4.4889  -4.3341  -4.2352  -4.0966
    -4.0011  -3.6865  -3.5751  -3.5404  -3.4764  -3.4018  -3.2037  -2.9612
    -2.6247  -2.5478  -2.4597  -2.3160  -2.2683  -2.1600  -1.9703  -1.8060
    -1.7391  -1.6168  -1.3709  -1.2592  -1.1391  -0.9499  -0.9255  -0.8444
    -0.3807  -0.3065  -0.2086  -0.0918  -0.0772   0.0993   0.1002   0.2776
     0.4111   0.4442   0.5226   0.5952   0.7137   0.8794   0.9488   1.2317
     1.4816   1.5521   1.6216   1.8041   1.9511   2.0803   2.1978   2.3060
     2.4744   2.5205   2.5640

          k = 0.0308-0.0525 0.0000 ( 29385 PWs)   bands (ev):

   -63.5620 -63.5399 -63.5185 -63.5172 -63.4973 -63.4747 -37.5050 -37.4934
   -37.4592 -37.4527 -37.4460 -37.4186 -37.4080 -37.3895 -37.3502 -37.3431
   -37.3269 -37.3241 -37.3047 -37.1539 -37.1096 -37.0753 -36.9815 -36.9788
    -6.6486  -5.1382  -4.9223  -4.8306  -4.5731  -4.3936  -4.3302  -4.2632
    -4.1480  -3.7775  -3.7106  -3.6886  -3.6134  -3.5373  -3.1989  -2.8794
    -2.7265  -2.5136  -2.5063  -2.2849  -2.2799  -2.0804  -1.9393  -1.8324
    -1.7326  -1.6644  -1.4912  -1.2370  -1.1348  -0.8564  -0.6958  -0.5933
    -0.3254  -0.2159   0.0408   0.0714   0.1395   0.2369   0.2479   0.4700
     0.5076   0.6569   0.6867   0.8366   0.8894   1.0069   1.1755   1.4356
     1.4625   1.6236   1.7150   2.0116   2.0211   2.1318   2.1879   2.4288
     2.4521   2.5696   2.6265

          k = 0.0308-0.0350 0.0000 ( 29354 PWs)   bands (ev):

   -63.5622 -63.5400 -63.5185 -63.5172 -63.4973 -63.4748 -37.5044 -37.4921
   -37.4576 -37.4523 -37.4466 -37.4188 -37.4083 -37.3890 -37.3487 -37.3420
   -37.3267 -37.3233 -37.3042 -37.1538 -37.1093 -37.0752 -36.9815 -36.9787
    -6.8679  -5.2290  -5.0001  -4.9347  -4.6426  -4.5101  -4.4214  -4.3387
    -4.2584  -3.8786  -3.8462  -3.8102  -3.7091  -3.6547  -3.1785  -2.9307
    -2.8241  -2.4548  -2.4488  -2.3147  -2.2346  -1.9968  -1.9311  -1.8831
    -1.7872  -1.7620  -1.5222  -1.2630  -1.1688  -0.8202  -0.4605  -0.3494
    -0.2253  -0.1067   0.1222   0.1983   0.3687   0.4070   0.4244   0.5779
     0.5862   0.8544   0.8589   1.0866   1.2006   1.3575   1.4061   1.4892
     1.5816   1.6638   1.9404   2.0134   2.1446   2.2291   2.3040   2.4623
     2.5487   2.6064   2.7021

          k = 0.0308-0.0175 0.0000 ( 29396 PWs)   bands (ev):

   -63.5623 -63.5400 -63.5185 -63.5172 -63.4973 -63.4748 -37.5039 -37.4913
   -37.4561 -37.4520 -37.4474 -37.4188 -37.4087 -37.3886 -37.3477 -37.3413
   -37.3265 -37.3227 -37.3039 -37.1538 -37.1092 -37.0751 -36.9815 -36.9786
    -7.0099  -5.3121  -5.0521  -5.0059  -4.6859  -4.6039  -4.4886  -4.3763
    -4.3162  -3.9568  -3.9318  -3.8915  -3.7634  -3.7263  -3.1624  -3.0754
    -2.7915  -2.4108  -2.3850  -2.3195  -2.2044  -2.0917  -1.9449  -1.9146
    -1.7970  -1.7540  -1.5462  -1.2927  -1.2050  -0.7946  -0.3100  -0.3063
    -0.0785   0.0628   0.1580   0.3005   0.3861   0.5418   0.5707   0.6369
     0.7110   0.9769   1.0424   1.2732   1.3130   1.4884   1.6527   1.6724
     1.7092   1.8661   1.9055   2.1159   2.1496   2.4004   2.4866   2.4967
     2.5396   2.6546   2.7147

          k = 0.0308-0.0000 0.0000 ( 29422 PWs)   bands (ev):

   -63.5624 -63.5400 -63.5185 -63.5172 -63.4973 -63.4748 -37.5037 -37.4910
   -37.4554 -37.4520 -37.4478 -37.4188 -37.4088 -37.3885 -37.3474 -37.3410
   -37.3264 -37.3225 -37.3038 -37.1538 -37.1091 -37.0751 -36.9815 -36.9786
    -7.0588  -5.3441  -5.0714  -5.0309  -4.7001  -4.6364  -4.5138  -4.3920
    -4.3314  -3.9874  -3.9589  -3.9198  -3.7805  -3.7502  -3.1567  -3.1272
    -2.7802  -2.3944  -2.3677  -2.2617  -2.2012  -2.1958  -1.9590  -1.9175
    -1.8129  -1.7102  -1.5646  -1.3046  -1.2198  -0.7852  -0.3036  -0.2545
    -0.0371   0.1390   0.1848   0.3403   0.3818   0.5670   0.6260   0.6544
     0.7807   1.0099   1.1598   1.3059   1.3246   1.5245   1.6976   1.7258
     1.7865   1.8523   2.0787   2.0880   2.2811   2.3862   2.4990   2.5302
     2.6050   2.6243   2.7645

          k = 0.0461 0.0263 0.0000 ( 29395 PWs)   bands (ev):

   -63.5583 -63.5361 -63.5225 -63.5133 -63.5012 -63.4787 -37.4881 -37.4726
   -37.4561 -37.4533 -37.4435 -37.4227 -37.4120 -37.3854 -37.3520 -37.3384
   -37.3078 -37.2953 -37.2920 -37.1867 -37.1062 -37.0783 -37.0137 -37.0111
    -6.7135  -5.0189  -4.8639  -4.7569  -4.6377  -4.4286  -4.4107  -4.2395
    -4.1751  -3.8754  -3.8202  -3.7636  -3.6321  -3.5351  -3.0529  -2.9658
    -2.8421  -2.4426  -2.4411  -2.2766  -2.2144  -2.1509  -2.0542  -2.0389
    -1.8176  -1.7775  -1.5642  -1.5056  -1.4167  -1.0955  -1.0032  -0.5273
    -0.2045  -0.0756  -0.0710   0.0475   0.2706   0.4143   0.5303   0.5565
     0.6927   0.7417   0.9752   1.1440   1.2219   1.3057   1.4073   1.4228
     1.6046   1.6843   1.8643   1.9876   2.0512   2.2280   2.2734   2.3950
     2.5303   2.6134   2.6213

          k = 0.0461 0.0438 0.0000 ( 29430 PWs)   bands (ev):

   -63.5581 -63.5360 -63.5225 -63.5133 -63.5012 -63.4786 -37.4891 -37.4732
   -37.4563 -37.4548 -37.4428 -37.4225 -37.4117 -37.3858 -37.3532 -37.3392
   -37.3081 -37.2956 -37.2927 -37.1867 -37.1064 -37.0784 -37.0137 -37.0111
    -6.5325  -4.9247  -4.8060  -4.6973  -4.6316  -4.3106  -4.2832  -4.1885
    -4.1280  -3.7769  -3.7509  -3.6919  -3.5369  -3.4652  -3.0706  -2.8795
    -2.7985  -2.5279  -2.5108  -2.3110  -2.1915  -2.1637  -2.0645  -1.9977
    -1.7525  -1.7459  -1.5413  -1.5044  -1.4090  -1.1412  -1.1165  -0.5668
    -0.3500  -0.3046  -0.1614  -0.0719   0.2373   0.2469   0.4017   0.4523
     0.5736   0.7155   0.7922   0.9733   0.9972   1.1079   1.2111   1.4420
     1.5080   1.6398   1.7362   1.9528   1.9981   2.0756   2.1260   2.4144
     2.4568   2.5178   2.5457

          k = 0.0461 0.0613 0.0000 ( 29423 PWs)   bands (ev):

   -63.5579 -63.5360 -63.5225 -63.5133 -63.5012 -63.4786 -37.4902 -37.4738
   -37.4565 -37.4561 -37.4425 -37.4222 -37.4115 -37.3861 -37.3544 -37.3401
   -37.3085 -37.2957 -37.2935 -37.1867 -37.1066 -37.0785 -37.0137 -37.0111
    -6.2860  -4.8491  -4.7393  -4.6252  -4.5887  -4.1874  -4.1777  -4.0942
    -4.0022  -3.6750  -3.6510  -3.5931  -3.4099  -3.3787  -3.0817  -2.9505
    -2.6373  -2.5897  -2.5465  -2.3558  -2.2033  -2.1910  -2.1108  -1.9817
    -1.7344  -1.6689  -1.5365  -1.4895  -1.4324  -1.3007  -1.1460  -0.6582
    -0.5572  -0.5241  -0.2862  -0.1266  -0.0322   0.1269   0.2564   0.2824
     0.4703   0.6025   0.6320   0.7493   0.9485   1.0277   1.0422   1.3461
     1.4782   1.5338   1.6311   1.8051   1.9763   2.0631   2.1300   2.3403
     2.4681   2.4946   2.6176

          k = 0.0461 0.0788 0.0000 ( 29406 PWs)   bands (ev):

   -63.5578 -63.5360 -63.5225 -63.5133 -63.5012 -63.4785 -37.4912 -37.4742
   -37.4571 -37.4567 -37.4424 -37.4218 -37.4114 -37.3863 -37.3555 -37.3409
   -37.3089 -37.2958 -37.2942 -37.1867 -37.1067 -37.0786 -37.0137 -37.0111
    -6.0163  -4.8496  -4.6843  -4.5485  -4.5266  -4.1611  -4.0716  -3.8873
    -3.8489  -3.6148  -3.5823  -3.4467  -3.3348  -3.2776  -3.0611  -3.0463
    -2.6998  -2.5851  -2.4335  -2.3932  -2.2646  -2.2000  -2.0486  -1.9910
    -1.8062  -1.7004  -1.5899  -1.5320  -1.4953  -1.2992  -1.1816  -0.9012
    -0.6717  -0.6155  -0.4284  -0.2571  -0.1888  -0.0412   0.1302   0.2466
     0.2632   0.4968   0.5067   0.7954   0.8478   0.9624   1.0400   1.1293
     1.4918   1.5063   1.6237   1.7498   1.9408   2.0368   2.1928   2.2227
     2.4479   2.4604   2.4955

          k = 0.0461 0.0963 0.0000 ( 29402 PWs)   bands (ev):

   -63.5577 -63.5360 -63.5225 -63.5133 -63.5012 -63.4785 -37.4918 -37.4745
   -37.4576 -37.4568 -37.4424 -37.4214 -37.4115 -37.3864 -37.3561 -37.3414
   -37.3091 -37.2957 -37.2948 -37.1867 -37.1068 -37.0786 -37.0137 -37.0112
    -5.8120  -4.9038  -4.6536  -4.4995  -4.4806  -4.1465  -3.9890  -3.7359
    -3.6943  -3.6253  -3.5314  -3.4184  -3.3295  -3.1608  -3.0922  -3.0286
    -2.8105  -2.5137  -2.4321  -2.4068  -2.2166  -2.1869  -2.0002  -1.9484
    -1.9021  -1.8107  -1.6728  -1.6184  -1.5647  -1.2243  -1.2073  -1.0835
    -0.7422  -0.6032  -0.5460  -0.3676  -0.2499  -0.0711   0.0456   0.1209
     0.2846   0.3969   0.4806   0.7390   0.8388   0.9828   1.0057   1.0486
     1.4888   1.5147   1.6285   1.7890   1.9374   2.0201   2.1298   2.2449
     2.4096   2.4339   2.4681

          k = 0.0461 0.1138 0.0000 ( 29402 PWs)   bands (ev):

   -63.5577 -63.5360 -63.5225 -63.5133 -63.5012 -63.4785 -37.4918 -37.4745
   -37.4576 -37.4568 -37.4424 -37.4214 -37.4115 -37.3864 -37.3561 -37.3414
   -37.3091 -37.2957 -37.2948 -37.1867 -37.1068 -37.0786 -37.0137 -37.0112
    -5.8120  -4.9038  -4.6536  -4.4995  -4.4806  -4.1465  -3.9890  -3.7359
    -3.6943  -3.6253  -3.5314  -3.4184  -3.3295  -3.1608  -3.0922  -3.0286
    -2.8105  -2.5137  -2.4321  -2.4068  -2.2166  -2.1869  -2.0002  -1.9484
    -1.9021  -1.8107  -1.6728  -1.6184  -1.5647  -1.2243  -1.2073  -1.0835
    -0.7422  -0.6032  -0.5460  -0.3676  -0.2499  -0.0711   0.0456   0.1209
     0.2846   0.3969   0.4806   0.7390   0.8388   0.9828   1.0057   1.0486
     1.4888   1.5147   1.6285   1.7890   1.9374   2.0201   2.1299   2.2449
     2.4099   2.4357   2.4857

          k = 0.0461-0.0788 0.0000 ( 29406 PWs)   bands (ev):

   -63.5578 -63.5360 -63.5225 -63.5133 -63.5012 -63.4785 -37.4912 -37.4742
   -37.4571 -37.4567 -37.4424 -37.4218 -37.4114 -37.3863 -37.3555 -37.3409
   -37.3089 -37.2958 -37.2942 -37.1867 -37.1067 -37.0786 -37.0137 -37.0111
    -6.0163  -4.8496  -4.6843  -4.5485  -4.5266  -4.1611  -4.0716  -3.8873
    -3.8489  -3.6148  -3.5823  -3.4467  -3.3348  -3.2776  -3.0611  -3.0463
    -2.6998  -2.5851  -2.4335  -2.3932  -2.2646  -2.2000  -2.0486  -1.9910
    -1.8062  -1.7004  -1.5899  -1.5320  -1.4953  -1.2992  -1.1816  -0.9012
    -0.6717  -0.6155  -0.4284  -0.2571  -0.1888  -0.0412   0.1302   0.2466
     0.2632   0.4968   0.5067   0.7954   0.8478   0.9624   1.0400   1.1293
     1.4918   1.5063   1.6237   1.7498   1.9408   2.0368   2.1928   2.2227
     2.4475   2.4604   2.4918

          k = 0.0461-0.0613 0.0000 ( 29423 PWs)   bands (ev):

   -63.5579 -63.5360 -63.5225 -63.5133 -63.5012 -63.4786 -37.4902 -37.4738
   -37.4565 -37.4561 -37.4425 -37.4222 -37.4115 -37.3861 -37.3544 -37.3401
   -37.3085 -37.2957 -37.2935 -37.1867 -37.1066 -37.0785 -37.0137 -37.0111
    -6.2860  -4.8491  -4.7393  -4.6252  -4.5887  -4.1874  -4.1777  -4.0942
    -4.0022  -3.6750  -3.6510  -3.5931  -3.4099  -3.3787  -3.0817  -2.9505
    -2.6373  -2.5897  -2.5465  -2.3558  -2.2033  -2.1910  -2.1108  -1.9817
    -1.7344  -1.6689  -1.5365  -1.4895  -1.4324  -1.3007  -1.1460  -0.6582
    -0.5572  -0.5241  -0.2862  -0.1266  -0.0322   0.1269   0.2564   0.2824
     0.4703   0.6025   0.6320   0.7493   0.9485   1.0277   1.0422   1.3461
     1.4782   1.5338   1.6311   1.8051   1.9762   2.0631   2.1300   2.3390
     2.4678   2.4945   2.4982

          k = 0.0461-0.0438 0.0000 ( 29430 PWs)   bands (ev):

   -63.5581 -63.5360 -63.5225 -63.5133 -63.5012 -63.4786 -37.4891 -37.4732
   -37.4563 -37.4548 -37.4428 -37.4225 -37.4117 -37.3858 -37.3532 -37.3392
   -37.3081 -37.2956 -37.2927 -37.1867 -37.1064 -37.0784 -37.0137 -37.0111
    -6.5325  -4.9247  -4.8060  -4.6973  -4.6316  -4.3106  -4.2832  -4.1885
    -4.1280  -3.7769  -3.7509  -3.6919  -3.5369  -3.4652  -3.0706  -2.8795
    -2.7985  -2.5279  -2.5108  -2.3110  -2.1915  -2.1637  -2.0645  -1.9977
    -1.7525  -1.7459  -1.5413  -1.5044  -1.4090  -1.1412  -1.1165  -0.5668
    -0.3500  -0.3046  -0.1614  -0.0719   0.2373   0.2469   0.4018   0.4523
     0.5736   0.7155   0.7922   0.9733   0.9972   1.1079   1.2111   1.4420
     1.5080   1.6398   1.7362   1.9528   1.9981   2.0756   2.1260   2.4147
     2.4568   2.5178   2.5454

          k = 0.0461-0.0263 0.0000 ( 29395 PWs)   bands (ev):

   -63.5583 -63.5361 -63.5225 -63.5133 -63.5012 -63.4787 -37.4881 -37.4726
   -37.4561 -37.4533 -37.4435 -37.4227 -37.4120 -37.3854 -37.3520 -37.3384
   -37.3078 -37.2953 -37.2920 -37.1867 -37.1062 -37.0783 -37.0137 -37.0111
    -6.7135  -5.0189  -4.8639  -4.7569  -4.6377  -4.4286  -4.4107  -4.2395
    -4.1751  -3.8754  -3.8202  -3.7636  -3.6321  -3.5351  -3.0529  -2.9658
    -2.8421  -2.4426  -2.4411  -2.2766  -2.2144  -2.1509  -2.0542  -2.0389
    -1.8176  -1.7775  -1.5642  -1.5056  -1.4167  -1.0955  -1.0032  -0.5273
    -0.2045  -0.0756  -0.0710   0.0475   0.2706   0.4143   0.5303   0.5565
     0.6927   0.7417   0.9752   1.1439   1.2219   1.3057   1.4074   1.4228
     1.6046   1.6843   1.8643   1.9876   2.0512   2.2280   2.2734   2.3951
     2.5303   2.5973   2.6238

          k = 0.0461-0.0088 0.0000 ( 29437 PWs)   bands (ev):

   -63.5583 -63.5361 -63.5225 -63.5133 -63.5012 -63.4787 -37.4876 -37.4722
   -37.4560 -37.4522 -37.4441 -37.4227 -37.4122 -37.3852 -37.3514 -37.3379
   -37.3077 -37.2952 -37.2916 -37.1867 -37.1061 -37.0783 -37.0137 -37.0111
    -6.8083  -5.0778  -4.8964  -4.7939  -4.6046  -4.5284  -4.4742  -4.2799
    -4.1834  -3.9308  -3.8531  -3.8037  -3.6819  -3.5723  -3.0659  -3.0397
    -2.8262  -2.3705  -2.3564  -2.2640  -2.2263  -2.1848  -2.1468  -2.0569
    -1.8009  -1.7884  -1.5800  -1.5130  -1.4299  -1.0836  -0.9295  -0.5093
    -0.1215  -0.0339  -0.0013   0.2135   0.2856   0.4682   0.5231   0.6504
     0.7456   0.8128   1.1130   1.2294   1.3240   1.3685   1.4427   1.6100
     1.6749   1.7491   1.8208   1.9793   2.1727   2.3286   2.3781   2.4086
     2.6246   2.6448   2.6615

          k = 0.0461 0.0088 0.0000 ( 29437 PWs)   bands (ev):

   -63.5583 -63.5361 -63.5225 -63.5133 -63.5012 -63.4787 -37.4876 -37.4722
   -37.4560 -37.4522 -37.4441 -37.4227 -37.4122 -37.3852 -37.3514 -37.3379
   -37.3077 -37.2952 -37.2916 -37.1867 -37.1061 -37.0783 -37.0137 -37.0111
    -6.8083  -5.0778  -4.8964  -4.7939  -4.6046  -4.5284  -4.4742  -4.2799
    -4.1834  -3.9308  -3.8531  -3.8037  -3.6819  -3.5723  -3.0659  -3.0397
    -2.8262  -2.3705  -2.3564  -2.2640  -2.2263  -2.1848  -2.1468  -2.0569
    -1.8009  -1.7884  -1.5800  -1.5130  -1.4299  -1.0836  -0.9295  -0.5093
    -0.1215  -0.0339  -0.0013   0.2135   0.2856   0.4682   0.5231   0.6504
     0.7456   0.8128   1.1130   1.2294   1.3240   1.3685   1.4427   1.6100
     1.6749   1.7491   1.8208   1.9793   2.1728   2.3285   2.3781   2.4088
     2.6243   2.6442   2.6619

          k = 0.0615 0.0350 0.0000 ( 29437 PWs)   bands (ev):

   -63.5530 -63.5310 -63.5277 -63.5083 -63.5063 -63.4838 -37.4839 -37.4612
   -37.4493 -37.4385 -37.4318 -37.4274 -37.4162 -37.3811 -37.3575 -37.3344
   -37.3127 -37.2547 -37.2518 -37.2293 -37.1023 -37.0825 -37.0554 -37.0532
    -6.3275  -4.8565  -4.6746  -4.5795  -4.3856  -4.2252  -4.1943  -4.1005
    -3.9087  -3.8229  -3.7731  -3.5705  -3.4107  -3.2949  -2.9477  -2.9415
    -2.8196  -2.5680  -2.5219  -2.5069  -2.2177  -2.1366  -2.0622  -2.0556
    -1.8483  -1.8102  -1.7128  -1.6737  -1.6546  -1.5695  -1.3781  -0.9646
    -0.8110  -0.7864  -0.0922   0.0343   0.2228   0.3718   0.4114   0.6333
     0.6334   0.7670   0.9450   0.9527   1.0546   1.1981   1.2232   1.4209
     1.5272   1.6409   1.7483   1.8110   1.9212   2.0912   2.1128   2.2038
     2.2891   2.4150   2.4476

          k = 0.0615 0.0525 0.0000 ( 29436 PWs)   bands (ev):

   -63.5528 -63.5309 -63.5277 -63.5083 -63.5063 -63.4837 -37.4848 -37.4613
   -37.4507 -37.4381 -37.4324 -37.4270 -37.4160 -37.3813 -37.3586 -37.3351
   -37.3129 -37.2548 -37.2524 -37.2292 -37.1025 -37.0826 -37.0554 -37.0531
    -6.1180  -4.9133  -4.5952  -4.5080  -4.3289  -4.1043  -4.0822  -3.9955
    -3.8954  -3.7735  -3.6903  -3.4991  -3.3144  -3.2522  -2.9756  -2.9569
    -2.6624  -2.6365  -2.5796  -2.5707  -2.2553  -2.1615  -2.0836  -2.0391
    -1.8394  -1.7539  -1.7457  -1.7137  -1.6915  -1.5235  -1.3996  -1.0689
    -0.9004  -0.8284  -0.3602   0.0268   0.0518   0.2944   0.3444   0.4285
     0.4844   0.6801   0.7915   0.8693   1.0549   1.0975   1.1977   1.4378
     1.4669   1.5101   1.6576   1.7734   1.9315   1.9740   2.1085   2.1863
     2.2275   2.3714   2.4334

          k = 0.0615 0.0700 0.0000 ( 29440 PWs)   bands (ev):

   -63.5527 -63.5309 -63.5277 -63.5083 -63.5063 -63.4837 -37.4857 -37.4613
   -37.4517 -37.4379 -37.4328 -37.4265 -37.4159 -37.3813 -37.3595 -37.3358
   -37.3131 -37.2550 -37.2531 -37.2291 -37.1026 -37.0826 -37.0554 -37.0530
    -5.8577  -4.9488  -4.5545  -4.4254  -4.2941  -3.9999  -3.9836  -3.8434
    -3.8065  -3.7121  -3.6353  -3.3988  -3.2394  -3.2159  -3.0445  -2.9371
    -2.6816  -2.6811  -2.6086  -2.4978  -2.2695  -2.2392  -2.0714  -2.0686
    -1.9069  -1.8126  -1.8121  -1.7230  -1.7122  -1.4412  -1.4252  -1.1739
    -0.9981  -0.8673  -0.6189  -0.1302   0.0261   0.1284   0.1977   0.3304
     0.4302   0.5467   0.7494   0.8920   0.8987   1.1891   1.2157   1.2262
     1.4860   1.5059   1.6503   1.7491   1.9172   2.0085   2.1196   2.1484
     2.2091   2.3532   2.4439

          k = 0.0615 0.0875 0.0000 ( 29426 PWs)   bands (ev):

   -63.5526 -63.5309 -63.5278 -63.5083 -63.5063 -63.4836 -37.4863 -37.4614
   -37.4523 -37.4379 -37.4331 -37.4261 -37.4160 -37.3813 -37.3602 -37.3364
   -37.3132 -37.2550 -37.2537 -37.2290 -37.1027 -37.0826 -37.0553 -37.0529
    -5.6019  -4.9664  -4.6031  -4.3548  -4.2681  -3.9644  -3.8674  -3.7031
    -3.6648  -3.6498  -3.6296  -3.2995  -3.2708  -3.1363  -3.1322  -2.8938
    -2.8052  -2.6710  -2.6065  -2.4205  -2.2578  -2.2365  -2.1141  -2.0634
    -2.0580  -1.9103  -1.8953  -1.7492  -1.7155  -1.4470  -1.3761  -1.2280
    -1.0738  -0.9486  -0.7574  -0.2664  -0.0813   0.1255   0.1276   0.2240
     0.4650   0.5232   0.6328   0.7878   1.0092   1.0622   1.2028   1.3161
     1.4835   1.5269   1.6691   1.8482   1.9003   2.0593   2.0676   2.1988
     2.2194   2.3430   2.4687

          k = 0.0615 0.1050 0.0000 ( 29444 PWs)   bands (ev):

   -63.5525 -63.5309 -63.5278 -63.5083 -63.5063 -63.4836 -37.4866 -37.4614
   -37.4525 -37.4380 -37.4333 -37.4259 -37.4161 -37.3813 -37.3604 -37.3366
   -37.3133 -37.2550 -37.2540 -37.2290 -37.1027 -37.0826 -37.0553 -37.0529
    -5.4777  -4.9715  -4.6589  -4.3263  -4.2556  -3.9505  -3.7870  -3.7096
    -3.6379  -3.6329  -3.5017  -3.3876  -3.2039  -3.1804  -3.0347  -2.9963
    -2.8140  -2.6707  -2.5647  -2.4193  -2.2305  -2.2164  -2.1320  -2.1198
    -2.0273  -2.0145  -1.9604  -1.7565  -1.7163  -1.4549  -1.3631  -1.2206
    -1.1120  -1.0171  -0.7715  -0.3149  -0.1240   0.1045   0.1412   0.1875
     0.5204   0.5213   0.5485   0.7591   0.9896   1.0656   1.1989   1.3758
     1.4853   1.5256   1.6839   1.9085   1.9310   2.0168   2.1061   2.2217
     2.3395   2.3401   2.3828

          k = 0.0615 0.1225 0.0000 ( 29426 PWs)   bands (ev):

   -63.5526 -63.5309 -63.5278 -63.5083 -63.5063 -63.4836 -37.4863 -37.4614
   -37.4523 -37.4379 -37.4331 -37.4261 -37.4160 -37.3813 -37.3602 -37.3364
   -37.3132 -37.2550 -37.2537 -37.2290 -37.1027 -37.0826 -37.0553 -37.0529
    -5.6019  -4.9664  -4.6031  -4.3548  -4.2681  -3.9644  -3.8674  -3.7031
    -3.6648  -3.6498  -3.6296  -3.2995  -3.2708  -3.1363  -3.1322  -2.8938
    -2.8052  -2.6710  -2.6065  -2.4205  -2.2578  -2.2365  -2.1141  -2.0634
    -2.0580  -1.9103  -1.8953  -1.7492  -1.7155  -1.4470  -1.3761  -1.2280
    -1.0738  -0.9486  -0.7574  -0.2664  -0.0813   0.1255   0.1276   0.2240
     0.4650   0.5232   0.6328   0.7878   1.0092   1.0622   1.2028   1.3161
     1.4835   1.5268   1.6691   1.8482   1.9003   2.0592   2.0676   2.1988
     2.2194   2.3427   2.4683

          k = 0.0615-0.0700 0.0000 ( 29440 PWs)   bands (ev):

   -63.5527 -63.5309 -63.5277 -63.5083 -63.5063 -63.4837 -37.4857 -37.4613
   -37.4517 -37.4379 -37.4329 -37.4265 -37.4159 -37.3813 -37.3595 -37.3358
   -37.3131 -37.2550 -37.2531 -37.2291 -37.1026 -37.0826 -37.0554 -37.0530
    -5.8577  -4.9488  -4.5545  -4.4254  -4.2941  -3.9999  -3.9836  -3.8434
    -3.8065  -3.7121  -3.6353  -3.3988  -3.2394  -3.2159  -3.0445  -2.9371
    -2.6816  -2.6811  -2.6086  -2.4978  -2.2695  -2.2392  -2.0714  -2.0686
    -1.9069  -1.8126  -1.8121  -1.7230  -1.7122  -1.4412  -1.4252  -1.1739
    -0.9981  -0.8673  -0.6189  -0.1301   0.0261   0.1284   0.1977   0.3304
     0.4302   0.5467   0.7494   0.8920   0.8987   1.1891   1.2157   1.2262
     1.4860   1.5059   1.6503   1.7491   1.9172   2.0085   2.1196   2.1484
     2.2091   2.3535   2.4449

          k = 0.0615-0.0525 0.0000 ( 29436 PWs)   bands (ev):

   -63.5528 -63.5309 -63.5277 -63.5083 -63.5063 -63.4837 -37.4848 -37.4613
   -37.4507 -37.4381 -37.4324 -37.4270 -37.4160 -37.3813 -37.3586 -37.3351
   -37.3129 -37.2548 -37.2524 -37.2292 -37.1025 -37.0826 -37.0554 -37.0531
    -6.1180  -4.9133  -4.5952  -4.5080  -4.3289  -4.1043  -4.0822  -3.9955
    -3.8954  -3.7735  -3.6903  -3.4991  -3.3144  -3.2522  -2.9756  -2.9569
    -2.6624  -2.6365  -2.5796  -2.5707  -2.2553  -2.1615  -2.0836  -2.0391
    -1.8394  -1.7539  -1.7457  -1.7137  -1.6915  -1.5235  -1.3996  -1.0689
    -0.9004  -0.8284  -0.3602   0.0268   0.0518   0.2944   0.3444   0.4286
     0.4844   0.6801   0.7915   0.8693   1.0549   1.0975   1.1977   1.4378
     1.4669   1.5101   1.6576   1.7734   1.9315   1.9741   2.1085   2.1863
     2.2275   2.3706   2.4305

          k = 0.0615-0.0350 0.0000 ( 29437 PWs)   bands (ev):

   -63.5530 -63.5310 -63.5277 -63.5083 -63.5063 -63.4838 -37.4839 -37.4612
   -37.4493 -37.4385 -37.4318 -37.4274 -37.4162 -37.3811 -37.3575 -37.3344
   -37.3127 -37.2547 -37.2518 -37.2293 -37.1023 -37.0825 -37.0554 -37.0532
    -6.3275  -4.8565  -4.6746  -4.5795  -4.3856  -4.2252  -4.1943  -4.1005
    -3.9087  -3.8229  -3.7731  -3.5705  -3.4107  -3.2949  -2.9477  -2.9415
    -2.8196  -2.5680  -2.5219  -2.5069  -2.2177  -2.1366  -2.0622  -2.0556
    -1.8483  -1.8102  -1.7128  -1.6737  -1.6546  -1.5695  -1.3781  -0.9646
    -0.8110  -0.7864  -0.0922   0.0343   0.2228   0.3718   0.4114   0.6333
     0.6334   0.7670   0.9450   0.9527   1.0546   1.1982   1.2232   1.4209
     1.5272   1.6409   1.7483   1.8110   1.9211   2.0912   2.1128   2.2038
     2.2891   2.4151   2.4476

          k = 0.0615-0.0175 0.0000 ( 29427 PWs)   bands (ev):

   -63.5531 -63.5310 -63.5276 -63.5083 -63.5063 -63.4838 -37.4833 -37.4612
   -37.4481 -37.4391 -37.4313 -37.4277 -37.4164 -37.3810 -37.3567 -37.3339
   -37.3126 -37.2545 -37.2513 -37.2294 -37.1022 -37.0825 -37.0555 -37.0533
    -6.4610  -4.7846  -4.7399  -4.6329  -4.4433  -4.3310  -4.2680  -4.1558
    -3.9081  -3.8653  -3.8176  -3.6203  -3.4755  -3.3314  -2.9693  -2.9295
    -2.9138  -2.5411  -2.4420  -2.4082  -2.1934  -2.1849  -2.1171  -2.0358
    -1.8764  -1.8508  -1.7041  -1.6738  -1.6134  -1.5804  -1.3618  -0.8936
    -0.7565  -0.7541   0.0186   0.1648   0.3091   0.4172   0.4404   0.6795
     0.7936   0.8543   1.0402   1.0799   1.1762   1.2718   1.2777   1.3807
     1.5456   1.7059   1.7771   1.9241   1.9431   2.1735   2.1984   2.2721
     2.4106   2.5261   2.5701

          k = 0.0615 0.0000 0.0000 ( 29438 PWs)   bands (ev):

   -63.5531 -63.5310 -63.5276 -63.5083 -63.5063 -63.4838 -37.4831 -37.4612
   -37.4476 -37.4394 -37.4311 -37.4278 -37.4166 -37.3810 -37.3565 -37.3337
   -37.3125 -37.2544 -37.2511 -37.2294 -37.1022 -37.0825 -37.0555 -37.0533
    -6.5066  -4.7643  -4.7358  -4.6644  -4.4672  -4.3785  -4.2920  -4.1730
    -3.9074  -3.8855  -3.8255  -3.6390  -3.4977  -3.3452  -3.0117  -2.9269
    -2.9163  -2.5333  -2.4017  -2.3169  -2.2335  -2.2258  -2.1401  -2.0364
    -1.8903  -1.8518  -1.7059  -1.6738  -1.6081  -1.5738  -1.3553  -0.8689
    -0.7466  -0.7351   0.0373   0.2408   0.3286   0.4207   0.4693   0.6841
     0.8594   0.8772   1.0659   1.1702   1.2429   1.2794   1.2921   1.3542
     1.5580   1.7317   1.8204   1.8657   1.9850   2.2121   2.2387   2.2962
     2.5172   2.6190   2.6585

          k = 0.0615 0.0175 0.0000 ( 29427 PWs)   bands (ev):

   -63.5531 -63.5310 -63.5276 -63.5083 -63.5063 -63.4838 -37.4833 -37.4612
   -37.4481 -37.4391 -37.4313 -37.4277 -37.4164 -37.3810 -37.3567 -37.3339
   -37.3126 -37.2545 -37.2513 -37.2294 -37.1022 -37.0825 -37.0555 -37.0533
    -6.4610  -4.7846  -4.7399  -4.6329  -4.4433  -4.3310  -4.2680  -4.1558
    -3.9081  -3.8653  -3.8176  -3.6203  -3.4755  -3.3314  -2.9693  -2.9295
    -2.9138  -2.5411  -2.4420  -2.4082  -2.1934  -2.1849  -2.1171  -2.0358
    -1.8764  -1.8508  -1.7041  -1.6738  -1.6134  -1.5804  -1.3618  -0.8936
    -0.7565  -0.7541   0.0186   0.1648   0.3091   0.4172   0.4404   0.6795
     0.7936   0.8543   1.0402   1.0799   1.1762   1.2718   1.2777   1.3807
     1.5456   1.7059   1.7771   1.9241   1.9431   2.1735   2.1984   2.2720
     2.4105   2.5255   2.5700

          k = 0.0769 0.0438 0.0000 ( 29440 PWs)   bands (ev):

   -63.5468 -63.5337 -63.5250 -63.5123 -63.5024 -63.4897 -37.4788 -37.4670
   -37.4445 -37.4332 -37.4330 -37.4216 -37.3832 -37.3759 -37.3637 -37.3296
   -37.3182 -37.2785 -37.2070 -37.2045 -37.1048 -37.1019 -37.0965 -37.0873
    -5.8892  -5.0922  -4.3999  -4.3991  -4.0344  -4.0119  -3.9773  -3.9094
    -3.8457  -3.6807  -3.6009  -3.3821  -3.2309  -3.1509  -2.9584  -2.9547
    -2.7845  -2.6385  -2.5969  -2.5592  -2.2841  -2.2796  -2.0936  -2.0699
    -2.0141  -1.9693  -1.9262  -1.7892  -1.7703  -1.6382  -1.5906  -1.5613
    -1.4487  -1.0605  -0.1387   0.0047   0.1053   0.2997   0.4743   0.5349
     0.5379   0.6661   0.8010   1.0559   1.0746   1.2271   1.3707   1.3935
     1.4745   1.5285   1.6576   1.7188   1.8286   1.8811   1.9604   1.9966
     2.1355   2.2927   2.3018

          k = 0.0769 0.0613 0.0000 ( 29451 PWs)   bands (ev):

   -63.5467 -63.5338 -63.5250 -63.5123 -63.5024 -63.4896 -37.4795 -37.4668
   -37.4455 -37.4328 -37.4326 -37.4216 -37.3836 -37.3757 -37.3644 -37.3302
   -37.3181 -37.2783 -37.2072 -37.2051 -37.1047 -37.1017 -37.0966 -37.0873
    -5.6703  -5.2124  -4.3721  -4.3313  -3.9796  -3.9405  -3.9007  -3.8309
    -3.8253  -3.6440  -3.5993  -3.3312  -3.2140  -3.1416  -2.9578  -2.9149
    -2.7687  -2.6780  -2.6445  -2.5132  -2.2991  -2.2980  -2.1458  -2.1167
    -2.0709  -2.0046  -1.9123  -1.8070  -1.7793  -1.6945  -1.5939  -1.5633
    -1.3930  -1.1112  -0.3391  -0.0521   0.1893   0.2305   0.2909   0.3789
     0.5432   0.5949   0.9087   0.9214   1.0029   1.2633   1.3551   1.3852
     1.5089   1.5183   1.6566   1.7159   1.7785   1.9025   1.9170   1.9540
     2.1391   2.2696   2.2860

          k = 0.0769 0.0788 0.0000 ( 29441 PWs)   bands (ev):

   -63.5466 -63.5339 -63.5250 -63.5123 -63.5024 -63.4896 -37.4801 -37.4667
   -37.4462 -37.4328 -37.4318 -37.4218 -37.3840 -37.3755 -37.3650 -37.3306
   -37.3181 -37.2781 -37.2073 -37.2057 -37.1046 -37.1015 -37.0967 -37.0873
    -5.4204  -5.2954  -4.3847  -4.2612  -4.0041  -3.8898  -3.8066  -3.7959
    -3.7448  -3.6499  -3.5524  -3.2627  -3.2153  -3.1434  -2.9627  -2.8824
    -2.7370  -2.7248  -2.6921  -2.4266  -2.3059  -2.2946  -2.2531  -2.1902
    -2.1640  -2.0223  -1.9924  -1.8557  -1.7912  -1.7165  -1.6154  -1.5084
    -1.3514  -1.1641  -0.4843  -0.1276   0.1084   0.1314   0.3125   0.3737
     0.5629   0.6028   0.8189   0.9136   1.0557   1.1303   1.3468   1.5083
     1.5227   1.5665   1.6781   1.7438   1.8329   1.8846   1.9410   2.0268
     2.1666   2.2411   2.3102

          k = 0.0769 0.0963 0.0000 ( 29414 PWs)   bands (ev):

   -63.5465 -63.5339 -63.5250 -63.5123 -63.5024 -63.4896 -37.4804 -37.4666
   -37.4465 -37.4328 -37.4312 -37.4221 -37.3842 -37.3753 -37.3653 -37.3308
   -37.3181 -37.2779 -37.2073 -37.2060 -37.1045 -37.1013 -37.0968 -37.0873
    -5.3374  -5.2163  -4.4565  -4.2107  -4.0308  -3.8652  -3.7732  -3.7483
    -3.7052  -3.6184  -3.5427  -3.2397  -3.1550  -3.1439  -2.9648  -2.9619
    -2.7564  -2.6699  -2.6288  -2.4255  -2.3838  -2.2926  -2.2624  -2.2342
    -2.2085  -2.0949  -2.0531  -1.8922  -1.8052  -1.7238  -1.6253  -1.4463
    -1.3455  -1.2063  -0.5478  -0.1848   0.0341   0.0988   0.3480   0.3804
     0.5600   0.6983   0.7974   0.8259   1.0241   1.1844   1.3058   1.5164
     1.5538   1.6673   1.6881   1.7766   1.8400   1.9336   1.9878   2.1773
     2.2222   2.3003   2.3400

          k = 0.0769 0.1138 0.0000 ( 29414 PWs)   bands (ev):

   -63.5465 -63.5339 -63.5250 -63.5123 -63.5024 -63.4896 -37.4804 -37.4666
   -37.4465 -37.4328 -37.4312 -37.4221 -37.3842 -37.3753 -37.3653 -37.3308
   -37.3181 -37.2779 -37.2073 -37.2060 -37.1045 -37.1013 -37.0968 -37.0873
    -5.3374  -5.2163  -4.4565  -4.2107  -4.0308  -3.8652  -3.7732  -3.7483
    -3.7052  -3.6184  -3.5427  -3.2397  -3.1550  -3.1439  -2.9648  -2.9619
    -2.7564  -2.6699  -2.6288  -2.4255  -2.3838  -2.2926  -2.2624  -2.2342
    -2.2085  -2.0949  -2.0531  -1.8922  -1.8052  -1.7238  -1.6253  -1.4463
    -1.3455  -1.2063  -0.5478  -0.1848   0.0341   0.0988   0.3480   0.3804
     0.5600   0.6983   0.7974   0.8259   1.0241   1.1844   1.3058   1.5164
     1.5538   1.6673   1.6881   1.7766   1.8400   1.9336   1.9878   2.1773
     2.2222   2.3001   2.3400

          k = 0.0769 0.1313 0.0000 ( 29441 PWs)   bands (ev):

   -63.5466 -63.5339 -63.5250 -63.5123 -63.5024 -63.4896 -37.4801 -37.4667
   -37.4462 -37.4328 -37.4318 -37.4218 -37.3840 -37.3755 -37.3650 -37.3306
   -37.3181 -37.2781 -37.2073 -37.2057 -37.1046 -37.1015 -37.0967 -37.0873
    -5.4204  -5.2954  -4.3847  -4.2612  -4.0041  -3.8898  -3.8066  -3.7959
    -3.7448  -3.6499  -3.5524  -3.2627  -3.2153  -3.1433  -2.9627  -2.8824
    -2.7370  -2.7248  -2.6921  -2.4266  -2.3059  -2.2946  -2.2531  -2.1902
    -2.1640  -2.0223  -1.9924  -1.8557  -1.7912  -1.7165  -1.6154  -1.5084
    -1.3514  -1.1641  -0.4843  -0.1276   0.1084   0.1314   0.3125   0.3737
     0.5629   0.6028   0.8189   0.9136   1.0557   1.1302   1.3468   1.5083
     1.5227   1.5665   1.6781   1.7438   1.8329   1.8846   1.9410   2.0268
     2.1667   2.2411   2.3102

          k = 0.0769-0.0613 0.0000 ( 29451 PWs)   bands (ev):

   -63.5467 -63.5338 -63.5250 -63.5123 -63.5024 -63.4896 -37.4795 -37.4668
   -37.4455 -37.4328 -37.4326 -37.4216 -37.3836 -37.3757 -37.3644 -37.3302
   -37.3181 -37.2783 -37.2072 -37.2051 -37.1047 -37.1017 -37.0966 -37.0873
    -5.6703  -5.2124  -4.3721  -4.3313  -3.9796  -3.9405  -3.9007  -3.8309
    -3.8253  -3.6440  -3.5993  -3.3312  -3.2140  -3.1415  -2.9578  -2.9149
    -2.7687  -2.6780  -2.6445  -2.5132  -2.2991  -2.2980  -2.1458  -2.1167
    -2.0709  -2.0046  -1.9123  -1.8070  -1.7793  -1.6945  -1.5939  -1.5633
    -1.3930  -1.1112  -0.3391  -0.0521   0.1893   0.2305   0.2909   0.3789
     0.5432   0.5949   0.9087   0.9214   1.0029   1.2633   1.3551   1.3852
     1.5089   1.5183   1.6566   1.7159   1.7785   1.9025   1.9169   1.9540
     2.1390   2.2696   2.2860

          k = 0.0769-0.0438 0.0000 ( 29440 PWs)   bands (ev):

   -63.5468 -63.5337 -63.5250 -63.5123 -63.5024 -63.4897 -37.4788 -37.4670
   -37.4445 -37.4332 -37.4330 -37.4216 -37.3832 -37.3759 -37.3637 -37.3296
   -37.3182 -37.2785 -37.2070 -37.2045 -37.1048 -37.1019 -37.0965 -37.0873
    -5.8892  -5.0922  -4.3999  -4.3991  -4.0344  -4.0119  -3.9773  -3.9094
    -3.8457  -3.6807  -3.6009  -3.3821  -3.2309  -3.1509  -2.9584  -2.9547
    -2.7845  -2.6385  -2.5969  -2.5592  -2.2841  -2.2796  -2.0936  -2.0699
    -2.0141  -1.9693  -1.9262  -1.7892  -1.7703  -1.6382  -1.5906  -1.5613
    -1.4487  -1.0605  -0.1387   0.0047   0.1053   0.2997   0.4744   0.5349
     0.5379   0.6661   0.8011   1.0559   1.0746   1.2271   1.3707   1.3935
     1.4745   1.5285   1.6576   1.7188   1.8286   1.8811   1.9604   1.9966
     2.1355   2.2927   2.3018

          k = 0.0769-0.0263 0.0000 ( 29454 PWs)   bands (ev):

   -63.5470 -63.5337 -63.5250 -63.5123 -63.5023 -63.4897 -37.4782 -37.4672
   -37.4433 -37.4336 -37.4334 -37.4217 -37.3829 -37.3760 -37.3630 -37.3292
   -37.3182 -37.2787 -37.2069 -37.2041 -37.1049 -37.1022 -37.0964 -37.0873
    -6.0463  -4.9461  -4.4667  -4.4270  -4.1347  -4.0935  -4.0245  -3.9480
    -3.8559  -3.7530  -3.5578  -3.4200  -3.2635  -3.1801  -2.9613  -2.9548
    -2.7885  -2.7709  -2.5002  -2.4834  -2.2710  -2.2453  -2.0954  -2.0379
    -2.0365  -1.9713  -1.9445  -1.8182  -1.7489  -1.6220  -1.5858  -1.5200
    -1.4799  -1.0203   0.0376   0.0588   0.0599   0.3119   0.5216   0.6988
     0.7121   0.7606   0.8244   1.0696   1.1645   1.1822   1.3596   1.4465
     1.4487   1.5812   1.6642   1.7086   1.8697   2.0276   2.0907   2.1151
     2.1199   2.3249   2.4092

          k = 0.0769-0.0088 0.0000 ( 29426 PWs)   bands (ev):

   -63.5470 -63.5336 -63.5251 -63.5123 -63.5023 -63.4897 -37.4779 -37.4673
   -37.4425 -37.4338 -37.4338 -37.4219 -37.3827 -37.3760 -37.3625 -37.3289
   -37.3182 -37.2788 -37.2068 -37.2038 -37.1049 -37.1023 -37.0963 -37.0873
    -6.1278  -4.8091  -4.5442  -4.4391  -4.1968  -4.1528  -4.0544  -3.9633
    -3.8643  -3.7841  -3.5312  -3.4427  -3.2827  -3.2077  -2.9554  -2.9448
    -2.8723  -2.7890  -2.4608  -2.3713  -2.2769  -2.2100  -2.1194  -2.1003
    -2.0245  -1.9882  -1.9543  -1.8342  -1.7500  -1.6255  -1.5831  -1.4883
    -1.4793  -1.0007   0.0567   0.0945   0.1181   0.3195   0.5269   0.7669
     0.7931   0.8414   0.9960   1.0324   1.1653   1.1874   1.3669   1.4363
     1.4606   1.6087   1.6658   1.7142   1.8839   2.0757   2.1378   2.2353
     2.2986   2.4782   2.5089

          k = 0.0769 0.0088 0.0000 ( 29426 PWs)   bands (ev):

   -63.5470 -63.5336 -63.5251 -63.5123 -63.5023 -63.4897 -37.4779 -37.4673
   -37.4425 -37.4338 -37.4338 -37.4219 -37.3827 -37.3760 -37.3625 -37.3289
   -37.3182 -37.2788 -37.2068 -37.2038 -37.1049 -37.1023 -37.0963 -37.0873
    -6.1278  -4.8091  -4.5442  -4.4391  -4.1968  -4.1528  -4.0544  -3.9633
    -3.8643  -3.7841  -3.5312  -3.4427  -3.2827  -3.2077  -2.9554  -2.9448
    -2.8723  -2.7890  -2.4608  -2.3713  -2.2769  -2.2100  -2.1194  -2.1003
    -2.0245  -1.9882  -1.9543  -1.8342  -1.7500  -1.6255  -1.5831  -1.4883
    -1.4793  -1.0007   0.0567   0.0945   0.1181   0.3195   0.5269   0.7669
     0.7931   0.8414   0.9960   1.0324   1.1653   1.1874   1.3669   1.4363
     1.4606   1.6087   1.6658   1.7142   1.8839   2.0757   2.1378   2.2353
     2.2986   2.4783   2.5089

          k = 0.0769 0.0263 0.0000 ( 29454 PWs)   bands (ev):

   -63.5470 -63.5337 -63.5250 -63.5123 -63.5023 -63.4897 -37.4782 -37.4672
   -37.4433 -37.4336 -37.4334 -37.4217 -37.3829 -37.3760 -37.3630 -37.3292
   -37.3182 -37.2787 -37.2069 -37.2041 -37.1049 -37.1022 -37.0964 -37.0873
    -6.0463  -4.9461  -4.4667  -4.4270  -4.1347  -4.0935  -4.0245  -3.9480
    -3.8559  -3.7530  -3.5578  -3.4200  -3.2635  -3.1801  -2.9613  -2.9548
    -2.7885  -2.7709  -2.5002  -2.4834  -2.2710  -2.2453  -2.0954  -2.0379
    -2.0365  -1.9713  -1.9445  -1.8182  -1.7489  -1.6220  -1.5858  -1.5200
    -1.4799  -1.0203   0.0376   0.0588   0.0599   0.3119   0.5216   0.6988
     0.7121   0.7606   0.8244   1.0696   1.1645   1.1822   1.3596   1.4465
     1.4487   1.5812   1.6642   1.7086   1.8697   2.0276   2.0907   2.1151
     2.1199   2.3249   2.4094

          k =-0.0923-0.0525 0.0000 ( 29454 PWs)   bands (ev):

   -63.5403 -63.5403 -63.5187 -63.5186 -63.4960 -63.4960 -37.4730 -37.4730
   -37.4390 -37.4389 -37.4272 -37.4271 -37.3699 -37.3699 -37.3322 -37.3322
   -37.3230 -37.3229 -37.1557 -37.1557 -37.1535 -37.1534 -37.0924 -37.0923
    -5.4550  -5.4550  -4.3026  -4.3025  -3.9299  -3.9298  -3.8880  -3.8879
    -3.5557  -3.5557  -3.4713  -3.4713  -3.2329  -3.2328  -2.9679  -2.9677
    -2.6257  -2.6253  -2.4944  -2.4943  -2.2946  -2.2945  -2.1958  -2.1954
    -2.1621  -2.1617  -1.9793  -1.9788  -1.8941  -1.8941  -1.6063  -1.6062
    -1.3188  -1.3187  -0.1242  -0.1241   0.2424   0.2425   0.3850   0.3850
     0.5947   0.5947   0.9196   0.9196   1.1939   1.1940   1.5064   1.5064
     1.5378   1.5378   1.6388   1.6389   1.6891   1.6892   1.8476   1.8476
     2.1993   2.1994   2.3194

          k =-0.0923-0.0350 0.0000 ( 29411 PWs)   bands (ev):

   -63.5404 -63.5402 -63.5187 -63.5186 -63.4960 -63.4960 -37.4734 -37.4726
   -37.4396 -37.4380 -37.4274 -37.4272 -37.3704 -37.3694 -37.3324 -37.3320
   -37.3230 -37.3228 -37.1558 -37.1555 -37.1538 -37.1530 -37.0924 -37.0923
    -5.6101  -5.2574  -4.3333  -4.2747  -3.9445  -3.9303  -3.9189  -3.8634
    -3.6504  -3.5438  -3.4453  -3.4178  -3.2430  -3.2160  -2.9912  -2.9671
    -2.6311  -2.6088  -2.5120  -2.4759  -2.3102  -2.2736  -2.2119  -2.2047
    -2.1919  -2.1485  -1.9988  -1.9857  -1.9162  -1.8896  -1.6345  -1.5563
    -1.3855  -1.2656  -0.1940  -0.0449   0.1180   0.2447   0.4587   0.4901
     0.5889   0.6433   0.8209   1.0463   1.1449   1.2054   1.4738   1.4805
     1.5168   1.5789   1.5974   1.7023   1.7138   1.8109   1.8248   1.9621
     2.1779   2.2178   2.3250

          k =-0.0923-0.0175 0.0000 ( 29427 PWs)   bands (ev):

   -63.5404 -63.5401 -63.5187 -63.5186 -63.4961 -63.4960 -37.4738 -37.4723
   -37.4401 -37.4371 -37.4277 -37.4273 -37.3706 -37.3690 -37.3325 -37.3318
   -37.3231 -37.3226 -37.1559 -37.1554 -37.1542 -37.1527 -37.0924 -37.0923
    -5.7075  -5.0537  -4.3946  -4.2403  -3.9956  -3.9318  -3.9150  -3.8812
    -3.7076  -3.5629  -3.4138  -3.3584  -3.2469  -3.1841  -3.0530  -2.9418
    -2.7062  -2.5676  -2.5138  -2.4363  -2.3063  -2.2680  -2.2371  -2.2292
    -2.2066  -2.1485  -2.0272  -2.0000  -1.9372  -1.9351  -1.6492  -1.4913
    -1.4447  -1.2397  -0.2179  -0.0359   0.0860   0.1955   0.5443   0.5497
     0.5982   0.8013   0.8062   1.0646   1.1063   1.2392   1.4216   1.4498
     1.5268   1.5625   1.6031   1.7067   1.8388   1.8596   2.0349   2.1498
     2.1555   2.2807   2.3589

          k =-0.0923 0.0000 0.0000 ( 29454 PWs)   bands (ev):

   -63.5405 -63.5401 -63.5187 -63.5186 -63.4961 -63.4960 -37.4739 -37.4722
   -37.4402 -37.4368 -37.4280 -37.4274 -37.3707 -37.3689 -37.3326 -37.3318
   -37.3232 -37.3226 -37.1559 -37.1554 -37.1543 -37.1526 -37.0925 -37.0923
    -5.7406  -4.9468  -4.4485  -4.2202  -4.0224  -3.9350  -3.9119  -3.8970
    -3.7175  -3.5703  -3.4015  -3.3391  -3.2470  -3.1359  -3.1158  -2.9008
    -2.7791  -2.5540  -2.5135  -2.3815  -2.3103  -2.2935  -2.2446  -2.2285
    -2.2084  -2.1489  -2.0356  -2.0043  -1.9746  -1.9501  -1.6533  -1.4689
    -1.4586  -1.2361  -0.2193  -0.0380   0.0791   0.1746   0.5580   0.5711
     0.6082   0.8379   0.9234   1.0036   1.0621   1.3064   1.3787   1.4418
     1.5414   1.5582   1.5935   1.7062   1.8535   1.9156   2.1435   2.1544
     2.2358   2.3818   2.4846

          k =-0.0923 0.0175 0.0000 ( 29427 PWs)   bands (ev):

   -63.5404 -63.5401 -63.5187 -63.5186 -63.4961 -63.4960 -37.4738 -37.4723
   -37.4401 -37.4371 -37.4277 -37.4273 -37.3706 -37.3690 -37.3325 -37.3318
   -37.3231 -37.3226 -37.1559 -37.1554 -37.1542 -37.1527 -37.0924 -37.0923
    -5.7075  -5.0537  -4.3946  -4.2403  -3.9956  -3.9318  -3.9150  -3.8812
    -3.7076  -3.5629  -3.4138  -3.3584  -3.2469  -3.1841  -3.0530  -2.9418
    -2.7062  -2.5676  -2.5138  -2.4363  -2.3063  -2.2680  -2.2371  -2.2292
    -2.2066  -2.1485  -2.0272  -2.0000  -1.9372  -1.9351  -1.6492  -1.4913
    -1.4447  -1.2397  -0.2179  -0.0359   0.0860   0.1955   0.5443   0.5497
     0.5982   0.8013   0.8062   1.0646   1.1063   1.2392   1.4216   1.4498
     1.5268   1.5625   1.6031   1.7067   1.8388   1.8596   2.0349   2.1498
     2.1555   2.2807   2.3589

          k =-0.0923 0.0350 0.0000 ( 29411 PWs)   bands (ev):

   -63.5404 -63.5402 -63.5187 -63.5186 -63.4960 -63.4960 -37.4734 -37.4726
   -37.4396 -37.4380 -37.4274 -37.4272 -37.3704 -37.3694 -37.3324 -37.3320
   -37.3230 -37.3228 -37.1558 -37.1555 -37.1538 -37.1530 -37.0924 -37.0923
    -5.6101  -5.2574  -4.3333  -4.2747  -3.9445  -3.9303  -3.9189  -3.8634
    -3.6504  -3.5438  -3.4453  -3.4178  -3.2430  -3.2160  -2.9912  -2.9671
    -2.6311  -2.6088  -2.5120  -2.4759  -2.3102  -2.2736  -2.2119  -2.2047
    -2.1919  -2.1485  -1.9988  -1.9857  -1.9162  -1.8896  -1.6345  -1.5563
    -1.3855  -1.2656  -0.1940  -0.0449   0.1180   0.2447   0.4587   0.4901
     0.5889   0.6434   0.8209   1.0463   1.1449   1.2054   1.4738   1.4805
     1.5168   1.5789   1.5974   1.7023   1.7138   1.8109   1.8248   1.9621
     2.1779   2.2180   2.3250

          k =-0.0923-0.1576 0.0000 ( 29454 PWs)   bands (ev):

   -63.5403 -63.5403 -63.5187 -63.5186 -63.4960 -63.4960 -37.4730 -37.4730
   -37.4390 -37.4389 -37.4272 -37.4271 -37.3699 -37.3699 -37.3322 -37.3322
   -37.3230 -37.3229 -37.1557 -37.1557 -37.1535 -37.1534 -37.0924 -37.0923
    -5.4550  -5.4550  -4.3026  -4.3025  -3.9299  -3.9298  -3.8880  -3.8880
    -3.5557  -3.5556  -3.4713  -3.4713  -3.2329  -3.2328  -2.9679  -2.9677
    -2.6257  -2.6253  -2.4944  -2.4943  -2.2946  -2.2945  -2.1958  -2.1954
    -2.1621  -2.1617  -1.9793  -1.9788  -1.8941  -1.8941  -1.6063  -1.6062
    -1.3188  -1.3186  -0.1242  -0.1241   0.2424   0.2425   0.3850   0.3850
     0.5947   0.5947   0.9196   0.9196   1.1939   1.1940   1.5064   1.5064
     1.5378   1.5378   1.6388   1.6389   1.6891   1.6892   1.8476   1.8476
     2.1992   2.1993   2.3194

     the Fermi energy is     1.1110 ev

!    total energy              =   -1274.70353160 Ry
     estimated scf accuracy    <       0.00000471 Ry
     smearing contrib. (-TS)   =      -0.06946349 Ry
     internal energy E=F+TS    =   -1274.63406811 Ry

     The total energy is F=E-TS. E is the sum of the following terms:
     one-electron contribution =  -11178.07051945 Ry
     hartree contribution      =    5619.68220524 Ry
     xc contribution           =    -274.78545573 Ry
     ewald contribution        =    4558.53970143 Ry
     electric field correction =       0.00000040 Ry

     convergence has been achieved in  22 iterations

     negative rho (up, down):  1.296E-03 0.000E+00

     Forces acting on atoms (cartesian axes, Ry/au):

     atom    1 type  1   force =     0.00000146    0.01715740    0.01794076
     atom    2 type  1   force =    -0.00000185    0.01715762    0.01798044
     atom    3 type  2   force =    -0.00000977   -0.03762697   -0.00903601
     atom    4 type  2   force =    -0.00000259   -0.03762097   -0.00904441
     atom    5 type  1   force =     0.00000455    0.00742631   -0.01193745
     atom    6 type  1   force =    -0.00000021    0.00749410   -0.01189064
     atom    7 type  2   force =    -0.00005414    0.01229860   -0.00511064
     atom    8 type  2   force =     0.00005487    0.01228808   -0.00510948
     atom    9 type  1   force =     0.00000076   -0.00032412    0.00261770
     atom   10 type  1   force =     0.00000120   -0.00035588    0.00263435
     atom   11 type  2   force =    -0.00009015    0.00104980    0.00547716
     atom   12 type  2   force =     0.00009586    0.00105604    0.00547822

     Total force =     0.071095     Total SCF correction =     0.007765
     SCF correction compared to forces is large: reduce conv_thr to get better values

     Writing output data file ./V2Pt2/V2Pt2_beef.save/

     init_run     :     65.13s CPU     65.62s WALL (       1 calls)
     electrons    :   3897.53s CPU   3918.39s WALL (       1 calls)
     forces       :     42.87s CPU     43.08s WALL (       1 calls)

     Called by init_run:
     wfcinit      :     54.77s CPU     55.06s WALL (       1 calls)
     potinit      :      7.38s CPU      7.45s WALL (       1 calls)
     hinit0       :      1.78s CPU      1.79s WALL (       1 calls)

     Called by electrons:
     c_bands      :   3284.17s CPU   3297.71s WALL (      22 calls)
     sum_band     :    567.96s CPU    571.50s WALL (      22 calls)
     v_of_rho     :     32.55s CPU     33.81s WALL (      23 calls)
     newd         :     17.31s CPU     19.26s WALL (      23 calls)
     mix_rho      :      1.93s CPU      1.96s WALL (      22 calls)
     vdW_kernel   :      5.70s CPU      5.70s WALL (       1 calls)

     Called by c_bands:
     init_us_2    :     11.67s CPU     11.76s WALL (    3404 calls)
     cegterg      :   3249.95s CPU   3261.07s WALL (    1628 calls)

     Called by *egterg:
     cdiaghg      :    192.37s CPU    192.46s WALL (   10467 calls)
     h_psi        :   1973.47s CPU   1983.61s WALL (   10541 calls)
     s_psi        :    397.41s CPU    397.57s WALL (   10541 calls)
     g_psi        :      1.39s CPU      1.40s WALL (    8839 calls)

     Called by h_psi:
     h_psi:calbec :    463.29s CPU    464.13s WALL (   10541 calls)
     vloc_psi     :   1072.09s CPU   1081.22s WALL (   10541 calls)
     add_vuspsi   :    433.77s CPU    433.87s WALL (   10541 calls)

     General routines
     calbec       :    681.18s CPU    682.41s WALL (   12465 calls)
     fft          :     22.12s CPU     22.52s WALL (    1508 calls)
     ffts         :      0.38s CPU      0.39s WALL (      45 calls)
     fftw         :   1392.91s CPU   1402.92s WALL (  817716 calls)
     interpolate  :      0.52s CPU      0.52s WALL (      23 calls)

     Parallel routines
     fft_scatt_xy :     47.26s CPU     47.82s WALL (  819269 calls)
     fft_scatt_yz :    919.20s CPU    923.33s WALL (  819269 calls)

     PWSCF        :      1h 9m CPU      1h10m WALL


   This run was terminated on:  17:43: 9  25Jun2022            

=------------------------------------------------------------------------------=
   JOB DONE.
=------------------------------------------------------------------------------=
