
     Program PWSCF v.6.6 starts on 25Jun2022 at 18:55:46 

     This program is part of the open-source Quantum ESPRESSO suite
     for quantum simulation of materials; please cite
         "P. Giannozzi et al., J. Phys.:Condens. Matter 21 395502 (2009);
         "P. Giannozzi et al., J. Phys.:Condens. Matter 29 465901 (2017);
          URL http://www.quantum-espresso.org", 
     in publications or presentations arising from this work. More details at
     http://www.quantum-espresso.org/quote

     Parallel version (MPI), running on    37 processors

     MPI processes distributed on     1 nodes
     R & G space division:  proc/nbgrp/npool/nimage =      37
     Fft bands division:     nmany     =       1
     Reading input from V2Rh2.in
Warning: card &CELL ignored
Warning: card / ignored

     Current dimensions of program PWSCF are:
     Max number of different atomic species (ntypx) = 10
     Max number of k-points (npk) =  40000
     Max angular momentum in pseudopotentials (lmaxx) =  3
     Presently stress not available with electric field and gates

     Message from routine cell_base_init:
     DEPRECATED: use true lattice parameter, not A to a.u. conversion factor
     file V.pbe-spnl-rrkjus_psl.1.0.0.UPF: wavefunction(s)  3P 3D renormalized
     file Rh.pbe-spn-rrkjus_psl.1.0.0.UPF: wavefunction(s)  4S 5S renormalized

     **************************************************************************
     Initializing libbeef V0.1.2 with the BEEF-vdW functional.
     Citation: Wellendorff et al., PRB 85, 235149 (2012).
     **************************************************************************


     IMPORTANT: XC functional enforced from input :
     Exchange-correlation= BEEF-VDW
                           (   1   4  43  14   2   0   0)
     Any further DFT definition will be discarded
     Please, verify this is what you really want


     Subspace diagonalization in iterative solution of the eigenvalue problem:
     a serial algorithm will be used

     Found symmetry operation: I + ( -0.5000 -0.5000  0.0000)
     This is a supercell, fractional translations are disabled

     Parallelization info
     --------------------
     sticks:   dense  smooth     PW     G-vecs:    dense   smooth      PW
     Min         106      42     12                24432     6177     954
     Max         107      43     13                24445     6195     967
     Sum        3927    1573    453               904119   228721   35513



     bravais-lattice index     =            0
     lattice parameter (alat)  =       1.8897  a.u.
     unit-cell volume          =    4136.4772 (a.u.)^3
     number of atoms/cell      =           12
     number of atomic types    =            2
     number of electrons       =       180.00
     number of Kohn-Sham states=          108
     kinetic-energy cutoff     =      55.1240  Ry
     charge density cutoff     =     551.2396  Ry
     convergence threshold     =      1.0E-05
     mixing beta               =       0.1000
     number of iterations used =           10  plain     mixing
     Exchange-correlation= BEEF-VDW
                           (   1   4  43  14   2   0   0)

     celldm(1)=   1.889726  celldm(2)=   0.000000  celldm(3)=   0.000000
     celldm(4)=   0.000000  celldm(5)=   0.000000  celldm(6)=   0.000000

     crystal axes: (cart. coord. in units of alat)
               a(1) = (   5.338773   0.000000   0.000000 )  
               a(2) = (   2.519766   4.706727   0.000000 )  
               a(3) = (   0.000000   0.000000  24.393474 )  

     reciprocal axes: (cart. coord. in units 2 pi/alat)
               b(1) = (  0.187309 -0.100277  0.000000 )  
               b(2) = (  0.000000  0.212462  0.000000 )  
               b(3) = (  0.000000  0.000000  0.040995 )  


     PseudoPot. # 1 for V  read from file:
     ../pseudo/V.pbe-spnl-rrkjus_psl.1.0.0.UPF
     MD5 check sum: 79b3eb63147daf0b665d9f1bcc691206
     Pseudo is Ultrasoft + core correction, Zval = 13.0
     Generated using "atomic" code by A. Dal Corso v.6.2.2
     Using radial grid of 1181 points,  6 beta functions with: 
                l(1) =   0
                l(2) =   0
                l(3) =   1
                l(4) =   1
                l(5) =   2
                l(6) =   2
     Q(r) pseudized with 0 coefficients 


     PseudoPot. # 2 for Rh read from file:
     ../pseudo/Rh.pbe-spn-rrkjus_psl.1.0.0.UPF
     MD5 check sum: 912a852783f0c9b7bd5e9eb06cc0cc10
     Pseudo is Ultrasoft + core correction, Zval = 17.0
     Generated using "atomic" code by A. Dal Corso v.6.3
     Using radial grid of 1233 points,  6 beta functions with: 
                l(1) =   0
                l(2) =   0
                l(3) =   1
                l(4) =   1
                l(5) =   2
                l(6) =   2
     Q(r) pseudized with 0 coefficients 


     atomic species   valence    mass     pseudopotential
        V             13.00    50.94150     V ( 1.00)
        Rh            17.00   102.90550     Rh( 1.00)

     No symmetry found



   Cartesian axes

     site n.     atom                  positions (alat units)
         1           V   tau(   1) = (   0.0000000   0.0000000  10.0000000  )
         2           V   tau(   2) = (   3.9292696   2.3533636  10.0000000  )
         3           Rh  tau(   3) = (   2.6693867   0.0000000  10.0000000  )
         4           Rh  tau(   4) = (   1.2598830   2.3533636  10.0000000  )
         5           V   tau(   5) = (   5.3387733   3.1975598  12.1967369  )
         6           V   tau(   6) = (   1.4095037   0.8441962  12.1967369  )
         7           Rh  tau(   7) = (   2.6693867   3.1975598  12.1967369  )
         8           Rh  tau(   8) = (   4.0788904   0.8441962  12.1967369  )
         9           V   tau(   9) = (   2.8075767   1.6815463  14.2730790  )
        10           V   tau(  10) = (   6.7368440   4.0349087  14.2730913  )
        11           Rh  tau(  11) = (   5.5233105   1.7093050  14.3411401  )
        12           Rh  tau(  12) = (   4.1138072   4.0626686  14.3411400  )

     number of k points=    74  Fermi-Dirac smearing, width (Ry)=  0.0100
                       cart. coord. in units 2pi/alat
        k(    1) = (   0.0000000   0.0000000   0.0000000), wk =   0.0138889
        k(    2) = (   0.0000000   0.0177052   0.0000000), wk =   0.0277778
        k(    3) = (   0.0000000   0.0354103   0.0000000), wk =   0.0277778
        k(    4) = (   0.0000000   0.0531155   0.0000000), wk =   0.0277778
        k(    5) = (   0.0000000   0.0708206   0.0000000), wk =   0.0277778
        k(    6) = (   0.0000000   0.0885258   0.0000000), wk =   0.0277778
        k(    7) = (   0.0000000  -0.1062309   0.0000000), wk =   0.0138889
        k(    8) = (   0.0156091  -0.0083564   0.0000000), wk =   0.0277778
        k(    9) = (   0.0156091   0.0093488   0.0000000), wk =   0.0277778
        k(   10) = (   0.0156091   0.0270539   0.0000000), wk =   0.0277778
        k(   11) = (   0.0156091   0.0447591   0.0000000), wk =   0.0277778
        k(   12) = (   0.0156091   0.0624642   0.0000000), wk =   0.0277778
        k(   13) = (   0.0156091   0.0801694   0.0000000), wk =   0.0277778
        k(   14) = (   0.0156091  -0.1145873   0.0000000), wk =   0.0277778
        k(   15) = (   0.0156091  -0.0968822   0.0000000), wk =   0.0277778
        k(   16) = (   0.0156091  -0.0791770   0.0000000), wk =   0.0277778
        k(   17) = (   0.0156091  -0.0614719   0.0000000), wk =   0.0277778
        k(   18) = (   0.0156091  -0.0437667   0.0000000), wk =   0.0277778
        k(   19) = (   0.0156091  -0.0260615   0.0000000), wk =   0.0277778
        k(   20) = (   0.0312182  -0.0167128   0.0000000), wk =   0.0277778
        k(   21) = (   0.0312182   0.0009924   0.0000000), wk =   0.0277778
        k(   22) = (   0.0312182   0.0186975   0.0000000), wk =   0.0277778
        k(   23) = (   0.0312182   0.0364027   0.0000000), wk =   0.0277778
        k(   24) = (   0.0312182   0.0541078   0.0000000), wk =   0.0277778
        k(   25) = (   0.0312182   0.0718130   0.0000000), wk =   0.0277778
        k(   26) = (   0.0312182  -0.1229437   0.0000000), wk =   0.0277778
        k(   27) = (   0.0312182  -0.1052385   0.0000000), wk =   0.0277778
        k(   28) = (   0.0312182  -0.0875334   0.0000000), wk =   0.0277778
        k(   29) = (   0.0312182  -0.0698282   0.0000000), wk =   0.0277778
        k(   30) = (   0.0312182  -0.0521231   0.0000000), wk =   0.0277778
        k(   31) = (   0.0312182  -0.0344179   0.0000000), wk =   0.0277778
        k(   32) = (   0.0468272  -0.0250692   0.0000000), wk =   0.0277778
        k(   33) = (   0.0468272  -0.0073640   0.0000000), wk =   0.0277778
        k(   34) = (   0.0468272   0.0103412   0.0000000), wk =   0.0277778
        k(   35) = (   0.0468272   0.0280463   0.0000000), wk =   0.0277778
        k(   36) = (   0.0468272   0.0457515   0.0000000), wk =   0.0277778
        k(   37) = (   0.0468272   0.0634566   0.0000000), wk =   0.0277778
        k(   38) = (   0.0468272  -0.1313001   0.0000000), wk =   0.0277778
        k(   39) = (   0.0468272  -0.1135949   0.0000000), wk =   0.0277778
        k(   40) = (   0.0468272  -0.0958898   0.0000000), wk =   0.0277778
        k(   41) = (   0.0468272  -0.0781846   0.0000000), wk =   0.0277778
        k(   42) = (   0.0468272  -0.0604795   0.0000000), wk =   0.0277778
        k(   43) = (   0.0468272  -0.0427743   0.0000000), wk =   0.0277778
        k(   44) = (   0.0624363  -0.0334255   0.0000000), wk =   0.0277778
        k(   45) = (   0.0624363  -0.0157204   0.0000000), wk =   0.0277778
        k(   46) = (   0.0624363   0.0019848   0.0000000), wk =   0.0277778
        k(   47) = (   0.0624363   0.0196899   0.0000000), wk =   0.0277778
        k(   48) = (   0.0624363   0.0373951   0.0000000), wk =   0.0277778
        k(   49) = (   0.0624363   0.0551002   0.0000000), wk =   0.0277778
        k(   50) = (   0.0624363  -0.1396565   0.0000000), wk =   0.0277778
        k(   51) = (   0.0624363  -0.1219513   0.0000000), wk =   0.0277778
        k(   52) = (   0.0624363  -0.1042462   0.0000000), wk =   0.0277778
        k(   53) = (   0.0624363  -0.0865410   0.0000000), wk =   0.0277778
        k(   54) = (   0.0624363  -0.0688359   0.0000000), wk =   0.0277778
        k(   55) = (   0.0624363  -0.0511307   0.0000000), wk =   0.0277778
        k(   56) = (   0.0780454  -0.0417819   0.0000000), wk =   0.0277778
        k(   57) = (   0.0780454  -0.0240768   0.0000000), wk =   0.0277778
        k(   58) = (   0.0780454  -0.0063716   0.0000000), wk =   0.0277778
        k(   59) = (   0.0780454   0.0113335   0.0000000), wk =   0.0277778
        k(   60) = (   0.0780454   0.0290387   0.0000000), wk =   0.0277778
        k(   61) = (   0.0780454   0.0467438   0.0000000), wk =   0.0277778
        k(   62) = (   0.0780454  -0.1480129   0.0000000), wk =   0.0277778
        k(   63) = (   0.0780454  -0.1303077   0.0000000), wk =   0.0277778
        k(   64) = (   0.0780454  -0.1126026   0.0000000), wk =   0.0277778
        k(   65) = (   0.0780454  -0.0948974   0.0000000), wk =   0.0277778
        k(   66) = (   0.0780454  -0.0771922   0.0000000), wk =   0.0277778
        k(   67) = (   0.0780454  -0.0594871   0.0000000), wk =   0.0277778
        k(   68) = (  -0.0936545   0.0501383   0.0000000), wk =   0.0138889
        k(   69) = (  -0.0936545   0.0678435   0.0000000), wk =   0.0277778
        k(   70) = (  -0.0936545   0.0855486   0.0000000), wk =   0.0277778
        k(   71) = (  -0.0936545   0.1032538   0.0000000), wk =   0.0277778
        k(   72) = (  -0.0936545   0.1209589   0.0000000), wk =   0.0277778
        k(   73) = (  -0.0936545   0.1386641   0.0000000), wk =   0.0277778
        k(   74) = (  -0.0936545  -0.0560926   0.0000000), wk =   0.0138889

     Dense  grid:   904119 G-vectors     FFT dimensions: (  75,  75, 360)

     Smooth grid:   228721 G-vectors     FFT dimensions: (  48,  48, 225)

     Estimated max dynamical RAM per process >     193.38 MB

     Estimated total dynamical RAM >       6.99 GB

     Check: negative core charge=   -0.000001

     Initial potential from superposition of free atoms

     starting charge  179.99161, renormalised to  180.00000

     negative rho (up, down):  1.499E-03 0.000E+00


     %%%%%%%%%%%%%%%%%%%%%%%%%%%%%%%%%%%%%%%%%%%%%%%%%%%%%%%%%%%%%%%%%%%%%%%%
     %                                                                      %
     % You are using vdW-DF, which was implemented by the Thonhauser group. %
     % Please cite the following two papers that made this development      %
     % possible and the two reviews that describe the various versions:     %
     %                                                                      %
     %   T. Thonhauser et al., PRL 115, 136402 (2015).                      %
     %   T. Thonhauser et al., PRB 76, 125112 (2007).                       %
     %   K. Berland et al., Rep. Prog. Phys. 78, 066501 (2015).             %
     %   D.C. Langreth et al., J. Phys.: Condens. Matter 21, 084203 (2009). %
     %                                                                      %
     %                                                                      %
     % If you are calculating the stress with vdW-DF, please also cite:     %
     %                                                                      %
     %   R. Sabatini et al., J. Phys.: Condens. Matter 24, 424209 (2012).   %
     %                                                                      %
     %%%%%%%%%%%%%%%%%%%%%%%%%%%%%%%%%%%%%%%%%%%%%%%%%%%%%%%%%%%%%%%%%%%%%%%%



     Adding external electric field

     Computed dipole along edir(3) : 
        Dipole               -0.0001 Ry au,         -0.0002 Debye
        Dipole field         -0.0000 Ry au, 

        Potential amp.        0.0000 Ry
        Total length         44.9446 bohr

     Starting wfcs are  120 randomized atomic wfcs

     total cpu time spent up to now is       69.9 secs

     Self-consistent Calculation

     iteration #  1     ecut=    55.12 Ry     beta= 0.10
     Davidson diagonalization with overlap
     ethr =  1.00E-02,  avg # of iterations =  2.1

     negative rho (up, down):  1.448E-03 0.000E+00

     Adding external electric field

     Computed dipole along edir(3) : 
        Dipole               -0.4016 Ry au,         -1.0208 Debye
        Dipole field         -0.0012 Ry au, 

        Potential amp.        0.1097 Ry
        Total length         44.9446 bohr


     total cpu time spent up to now is      254.0 secs

     total energy              =   -2241.57684084 Ry
     estimated scf accuracy    <       9.58746108 Ry

     iteration #  2     ecut=    55.12 Ry     beta= 0.10
     Davidson diagonalization with overlap
     ethr =  5.33E-03,  avg # of iterations =  2.2

     negative rho (up, down):  3.214E-03 0.000E+00

     Adding external electric field

     Computed dipole along edir(3) : 
        Dipole                0.7858 Ry au,          1.9973 Debye
        Dipole field          0.0024 Ry au, 

        Potential amp.       -0.2146 Ry
        Total length         44.9446 bohr


     total cpu time spent up to now is      410.7 secs

     total energy              =   -2241.34384508 Ry
     estimated scf accuracy    <      33.31377874 Ry

     iteration #  3     ecut=    55.12 Ry     beta= 0.10
     Davidson diagonalization with overlap
     ethr =  5.33E-03,  avg # of iterations =  2.4

     negative rho (up, down):  3.882E-03 0.000E+00

     Adding external electric field

     Computed dipole along edir(3) : 
        Dipole               -0.0313 Ry au,         -0.0794 Debye
        Dipole field         -0.0001 Ry au, 

        Potential amp.        0.0085 Ry
        Total length         44.9446 bohr


     total cpu time spent up to now is      566.2 secs

     total energy              =   -2241.65064393 Ry
     estimated scf accuracy    <      82.54266822 Ry

     iteration #  4     ecut=    55.12 Ry     beta= 0.10
     Davidson diagonalization with overlap
     ethr =  5.33E-03,  avg # of iterations =  1.0

     negative rho (up, down):  2.202E-03 0.000E+00

     Adding external electric field

     Computed dipole along edir(3) : 
        Dipole               -0.0275 Ry au,         -0.0699 Debye
        Dipole field         -0.0001 Ry au, 

        Potential amp.        0.0075 Ry
        Total length         44.9446 bohr


     total cpu time spent up to now is      696.8 secs

     total energy              =   -2242.44270924 Ry
     estimated scf accuracy    <       0.65868037 Ry

     iteration #  5     ecut=    55.12 Ry     beta= 0.10
     Davidson diagonalization with overlap
     ethr =  3.66E-04,  avg # of iterations =  3.3

     negative rho (up, down):  2.526E-03 0.000E+00

     Adding external electric field

     Computed dipole along edir(3) : 
        Dipole                0.0279 Ry au,          0.0708 Debye
        Dipole field          0.0001 Ry au, 

        Potential amp.       -0.0076 Ry
        Total length         44.9446 bohr


     total cpu time spent up to now is      876.1 secs

     total energy              =   -2242.45816253 Ry
     estimated scf accuracy    <       0.21592140 Ry

     iteration #  6     ecut=    55.12 Ry     beta= 0.10
     Davidson diagonalization with overlap
     ethr =  1.20E-04,  avg # of iterations =  6.4

     negative rho (up, down):  2.094E-03 0.000E+00

     Adding external electric field

     Computed dipole along edir(3) : 
        Dipole                0.0167 Ry au,          0.0426 Debye
        Dipole field          0.0001 Ry au, 

        Potential amp.       -0.0046 Ry
        Total length         44.9446 bohr


     total cpu time spent up to now is     1296.3 secs

     total energy              =   -2242.47593018 Ry
     estimated scf accuracy    <       0.17564481 Ry

     iteration #  7     ecut=    55.12 Ry     beta= 0.10
     Davidson diagonalization with overlap
     ethr =  9.76E-05,  avg # of iterations =  1.6

     negative rho (up, down):  3.387E-03 0.000E+00

     Adding external electric field

     Computed dipole along edir(3) : 
        Dipole                0.0152 Ry au,          0.0387 Debye
        Dipole field          0.0000 Ry au, 

        Potential amp.       -0.0042 Ry
        Total length         44.9446 bohr


     total cpu time spent up to now is     1430.5 secs

     total energy              =   -2242.47440915 Ry
     estimated scf accuracy    <       0.05507657 Ry

     iteration #  8     ecut=    55.12 Ry     beta= 0.10
     Davidson diagonalization with overlap
     c_bands:  2 eigenvalues not converged
     c_bands:  3 eigenvalues not converged
     c_bands:  1 eigenvalues not converged
     ethr =  3.06E-05,  avg # of iterations =  8.5

     negative rho (up, down):  1.074E-02 0.000E+00

     Adding external electric field

     Computed dipole along edir(3) : 
        Dipole                0.0013 Ry au,          0.0034 Debye
        Dipole field          0.0000 Ry au, 

        Potential amp.       -0.0004 Ry
        Total length         44.9446 bohr


     total cpu time spent up to now is     1613.1 secs

     total energy              =   -2242.47262757 Ry
     estimated scf accuracy    <       0.02825986 Ry

     iteration #  9     ecut=    55.12 Ry     beta= 0.10
     Davidson diagonalization with overlap
     ethr =  1.57E-05,  avg # of iterations =  8.1

     negative rho (up, down):  1.016E-02 0.000E+00

     Adding external electric field

     Computed dipole along edir(3) : 
        Dipole                0.0017 Ry au,          0.0043 Debye
        Dipole field          0.0000 Ry au, 

        Potential amp.       -0.0005 Ry
        Total length         44.9446 bohr


     total cpu time spent up to now is     1823.2 secs

     total energy              =   -2242.47646641 Ry
     estimated scf accuracy    <       0.00672820 Ry

     iteration # 10     ecut=    55.12 Ry     beta= 0.10
     Davidson diagonalization with overlap
     ethr =  3.74E-06,  avg # of iterations =  5.0

     negative rho (up, down):  1.174E-02 0.000E+00

     Adding external electric field

     Computed dipole along edir(3) : 
        Dipole                0.0048 Ry au,          0.0122 Debye
        Dipole field          0.0000 Ry au, 

        Potential amp.       -0.0013 Ry
        Total length         44.9446 bohr


     total cpu time spent up to now is     2215.1 secs

     total energy              =   -2242.47608738 Ry
     estimated scf accuracy    <       0.00404843 Ry

     iteration # 11     ecut=    55.12 Ry     beta= 0.10
     Davidson diagonalization with overlap
     ethr =  2.25E-06,  avg # of iterations =  7.2

     negative rho (up, down):  1.099E-02 0.000E+00

     Adding external electric field

     Computed dipole along edir(3) : 
        Dipole                0.0024 Ry au,          0.0060 Debye
        Dipole field          0.0000 Ry au, 

        Potential amp.       -0.0006 Ry
        Total length         44.9446 bohr


     total cpu time spent up to now is     2453.7 secs

     total energy              =   -2242.47633438 Ry
     estimated scf accuracy    <       0.01621288 Ry

     iteration # 12     ecut=    55.12 Ry     beta= 0.10
     Davidson diagonalization with overlap
     ethr =  2.25E-06,  avg # of iterations =  2.1

     negative rho (up, down):  1.043E-02 0.000E+00

     Adding external electric field

     Computed dipole along edir(3) : 
        Dipole                0.0025 Ry au,          0.0063 Debye
        Dipole field          0.0000 Ry au, 

        Potential amp.       -0.0007 Ry
        Total length         44.9446 bohr


     total cpu time spent up to now is     2621.5 secs

     total energy              =   -2242.47632745 Ry
     estimated scf accuracy    <       0.00375078 Ry

     iteration # 13     ecut=    55.12 Ry     beta= 0.10
     Davidson diagonalization with overlap
     ethr =  2.08E-06,  avg # of iterations =  3.5

     negative rho (up, down):  1.031E-02 0.000E+00

     Adding external electric field

     Computed dipole along edir(3) : 
        Dipole                0.0055 Ry au,          0.0139 Debye
        Dipole field          0.0000 Ry au, 

        Potential amp.       -0.0015 Ry
        Total length         44.9446 bohr


     total cpu time spent up to now is     2794.9 secs

     total energy              =   -2242.47691380 Ry
     estimated scf accuracy    <       0.00027050 Ry

     iteration # 14     ecut=    55.12 Ry     beta= 0.10
     Davidson diagonalization with overlap
     ethr =  1.50E-07,  avg # of iterations =  6.4

     negative rho (up, down):  9.172E-03 0.000E+00

     Adding external electric field

     Computed dipole along edir(3) : 
        Dipole                0.0051 Ry au,          0.0129 Debye
        Dipole field          0.0000 Ry au, 

        Potential amp.       -0.0014 Ry
        Total length         44.9446 bohr


     total cpu time spent up to now is     3044.5 secs

     total energy              =   -2242.47720718 Ry
     estimated scf accuracy    <       0.00061337 Ry

     iteration # 15     ecut=    55.12 Ry     beta= 0.10
     Davidson diagonalization with overlap
     ethr =  1.50E-07,  avg # of iterations =  1.5

     negative rho (up, down):  9.073E-03 0.000E+00

     Adding external electric field

     Computed dipole along edir(3) : 
        Dipole                0.0066 Ry au,          0.0169 Debye
        Dipole field          0.0000 Ry au, 

        Potential amp.       -0.0018 Ry
        Total length         44.9446 bohr


     total cpu time spent up to now is     3184.9 secs

     total energy              =   -2242.47718721 Ry
     estimated scf accuracy    <       0.00018579 Ry

     iteration # 16     ecut=    55.12 Ry     beta= 0.10
     Davidson diagonalization with overlap
     c_bands:  1 eigenvalues not converged
     ethr =  1.03E-07,  avg # of iterations =  5.1

     negative rho (up, down):  8.361E-03 0.000E+00

     Adding external electric field

     Computed dipole along edir(3) : 
        Dipole                0.0066 Ry au,          0.0167 Debye
        Dipole field          0.0000 Ry au, 

        Potential amp.       -0.0018 Ry
        Total length         44.9446 bohr


     total cpu time spent up to now is     3381.7 secs

     total energy              =   -2242.47735075 Ry
     estimated scf accuracy    <       0.00027536 Ry

     iteration # 17     ecut=    55.12 Ry     beta= 0.10
     Davidson diagonalization with overlap
     ethr =  1.03E-07,  avg # of iterations =  2.1

     negative rho (up, down):  7.601E-03 0.000E+00

     Adding external electric field

     Computed dipole along edir(3) : 
        Dipole                0.0068 Ry au,          0.0173 Debye
        Dipole field          0.0000 Ry au, 

        Potential amp.       -0.0019 Ry
        Total length         44.9446 bohr


     total cpu time spent up to now is     3537.1 secs

     total energy              =   -2242.47751193 Ry
     estimated scf accuracy    <       0.00003876 Ry

     iteration # 18     ecut=    55.12 Ry     beta= 0.10
     Davidson diagonalization with overlap
     ethr =  2.15E-08,  avg # of iterations =  4.9

     negative rho (up, down):  6.841E-03 0.000E+00

     Adding external electric field

     Computed dipole along edir(3) : 
        Dipole                0.0059 Ry au,          0.0149 Debye
        Dipole field          0.0000 Ry au, 

        Potential amp.       -0.0016 Ry
        Total length         44.9446 bohr


     total cpu time spent up to now is     3704.5 secs

     total energy              =   -2242.47765110 Ry
     estimated scf accuracy    <       0.00002146 Ry

     iteration # 19     ecut=    55.12 Ry     beta= 0.10
     Davidson diagonalization with overlap
     ethr =  1.19E-08,  avg # of iterations =  3.1

     negative rho (up, down):  6.157E-03 0.000E+00

     Adding external electric field

     Computed dipole along edir(3) : 
        Dipole                0.0059 Ry au,          0.0150 Debye
        Dipole field          0.0000 Ry au, 

        Potential amp.       -0.0016 Ry
        Total length         44.9446 bohr


     total cpu time spent up to now is     3865.9 secs

     total energy              =   -2242.47776347 Ry
     estimated scf accuracy    <       0.00001294 Ry

     iteration # 20     ecut=    55.12 Ry     beta= 0.10
     Davidson diagonalization with overlap
     ethr =  7.19E-09,  avg # of iterations =  5.0

     negative rho (up, down):  1.517E-03 0.000E+00

     Adding external electric field

     Computed dipole along edir(3) : 
        Dipole               -0.0051 Ry au,         -0.0128 Debye
        Dipole field         -0.0000 Ry au, 

        Potential amp.        0.0014 Ry
        Total length         44.9446 bohr


     total cpu time spent up to now is     4033.8 secs

     End of self-consistent calculation

          k = 0.0000 0.0000 0.0000 ( 28497 PWs)   bands (ev):

   -77.2223 -77.1933 -76.7316 -76.7063 -76.7027 -76.6776 -62.8833 -62.8444
   -62.8405 -62.8043 -62.8008 -62.7619 -45.2121 -45.1500 -45.1162 -45.0843
   -45.0481 -44.8948 -44.7406 -44.7063 -44.6628 -44.6448 -44.6269 -44.6087
   -44.5414 -44.5104 -44.5028 -44.4711 -44.4254 -44.3925 -36.8059 -36.7959
   -36.7599 -36.7274 -36.7039 -36.6900 -36.6820 -36.6701 -36.6533 -36.6464
   -36.6131 -36.6006 -36.5687 -36.4554 -36.4097 -36.3781 -36.3564 -36.3220
    -4.8942  -3.3882  -3.3336  -3.2134  -3.1434  -3.0742  -2.8393  -2.6307
    -2.6143  -2.4621  -2.4503  -2.4192  -2.3453  -2.2741  -1.7073  -1.5181
    -1.2695  -0.8852  -0.8408  -0.5766  -0.5189  -0.4712  -0.4101  -0.3563
    -0.3127  -0.1071   0.0207   0.0823   0.1290   0.9828   1.0911   1.1571
     1.1767   1.3220   1.3400   1.4972   1.5655   1.5736   1.5811   1.8202
     2.0354   2.3720   2.3803   2.5086   2.5281   2.5667   2.7253   2.8393
     3.0307   3.0437   3.1926   3.2829   3.4103   3.4678   3.5942   3.6207
     3.6314   3.6520   3.6835   3.8915

          k = 0.0000 0.0177 0.0000 ( 28548 PWs)   bands (ev):

   -77.2218 -77.1938 -76.7311 -76.7058 -76.7032 -76.6781 -62.8826 -62.8437
   -62.8413 -62.8036 -62.8016 -62.7626 -45.2068 -45.1493 -45.1167 -45.0835
   -45.0485 -44.9002 -44.7353 -44.7010 -44.6620 -44.6440 -44.6273 -44.6091
   -44.5410 -44.5110 -44.5022 -44.4716 -44.4308 -44.3978 -36.8003 -36.7956
   -36.7608 -36.7267 -36.6984 -36.6905 -36.6818 -36.6646 -36.6541 -36.6462
   -36.6141 -36.6005 -36.5697 -36.4618 -36.4092 -36.3788 -36.3626 -36.3282
    -4.8364  -3.3538  -3.2786  -3.1666  -3.1047  -3.0425  -2.8082  -2.6111
    -2.5765  -2.4888  -2.3986  -2.3636  -2.3289  -2.2295  -1.6788  -1.4988
    -1.2681  -0.8991  -0.8084  -0.5573  -0.5376  -0.5001  -0.4575  -0.3470
    -0.3028  -0.1238  -0.0011   0.0656   0.1073   0.8489   1.1091   1.1376
     1.1844   1.3242   1.3322   1.3804   1.5435   1.5888   1.5964   1.8114
     2.0340   2.2152   2.2956   2.4113   2.4907   2.5283   2.7455   2.8006
     2.8923   3.0456   3.1880   3.2657   3.3388   3.3417   3.4329   3.5131
     3.5861   3.6062   3.6480   3.7960

          k = 0.0000 0.0354 0.0000 ( 28568 PWs)   bands (ev):

   -77.2204 -77.1953 -76.7296 -76.7047 -76.7044 -76.6796 -62.8805 -62.8435
   -62.8416 -62.8038 -62.8015 -62.7647 -45.1910 -45.1475 -45.1182 -45.0812
   -45.0498 -44.9162 -44.7196 -44.6854 -44.6597 -44.6416 -44.6286 -44.6104
   -44.5396 -44.5127 -44.5005 -44.4732 -44.4466 -44.4135 -36.7945 -36.7838
   -36.7633 -36.7246 -36.6923 -36.6816 -36.6812 -36.6565 -36.6479 -36.6458
   -36.6168 -36.6000 -36.5724 -36.4801 -36.4078 -36.3807 -36.3806 -36.3464
    -4.6668  -3.2550  -3.1223  -3.0316  -2.9919  -2.9539  -2.7194  -2.5646
    -2.4780  -2.4591  -2.3018  -2.2875  -2.2241  -2.0980  -1.5957  -1.4428
    -1.2696  -0.9255  -0.7302  -0.6539  -0.6077  -0.4998  -0.4810  -0.3408
    -0.2914  -0.1798  -0.0533   0.0116   0.0461   0.6040   0.9692   1.0224
     1.1566   1.1939   1.3195   1.4665   1.4703   1.5327   1.6343   1.7571
     1.8221   1.9873   2.0427   2.1844   2.4407   2.4578   2.6454   2.7048
     2.7532   2.8390   2.9438   3.0963   3.1617   3.2049   3.3644   3.4362
     3.4504   3.4960   3.5881   3.6559

          k = 0.0000 0.0531 0.0000 ( 28570 PWs)   bands (ev):

   -77.2181 -77.1976 -76.7273 -76.7070 -76.7021 -76.6818 -62.8772 -62.8470
   -62.8382 -62.8074 -62.7982 -62.7681 -45.1659 -45.1446 -45.1207 -45.0776
   -45.0520 -44.9414 -44.6947 -44.6605 -44.6562 -44.6380 -44.6307 -44.6124
   -44.5374 -44.5154 -44.4980 -44.4756 -44.4717 -44.4385 -36.7927 -36.7673
   -36.7570 -36.7213 -36.6949 -36.6801 -36.6603 -36.6549 -36.6447 -36.6218
   -36.6205 -36.5989 -36.5763 -36.5091 -36.4096 -36.4052 -36.3833 -36.3750
    -4.3969  -3.1088  -2.9050  -2.8369  -2.8303  -2.8025  -2.5786  -2.5195
    -2.4117  -2.2578  -2.2226  -2.1508  -2.0398  -1.8890  -1.4716  -1.3520
    -1.2879  -0.9585  -0.8483  -0.7644  -0.6243  -0.5289  -0.4086  -0.3120
    -0.3057  -0.2677  -0.1143  -0.0825  -0.0433   0.3490   0.4744   0.8444
     1.1385   1.2140   1.2529   1.2750   1.2880   1.4500   1.5790   1.6125
     1.7114   1.7519   1.8784   2.0938   2.2873   2.2880   2.3372   2.4282
     2.6049   2.6365   2.7839   2.9790   3.0279   3.1658   3.1975   3.3101
     3.3448   3.4275   3.4775   3.4900

          k = 0.0000 0.0708 0.0000 ( 28554 PWs)   bands (ev):

   -77.2151 -77.2006 -76.7244 -76.7100 -76.6992 -76.6848 -62.8729 -62.8515
   -62.8337 -62.8120 -62.7938 -62.7726 -45.1409 -45.1332 -45.1239 -45.0731
   -45.0550 -44.9744 -44.6622 -44.6517 -44.6337 -44.6335 -44.6282 -44.6152
   -44.5344 -44.5188 -44.5044 -44.4945 -44.4787 -44.4710 -36.7900 -36.7720
   -36.7221 -36.7171 -36.6984 -36.6784 -36.6641 -36.6427 -36.6272 -36.6187
   -36.5971 -36.5874 -36.5801 -36.5465 -36.4463 -36.4126 -36.4020 -36.3867
    -4.0497  -2.9775  -2.7460  -2.7064  -2.6125  -2.5362  -2.4373  -2.3738
    -2.3210  -2.1431  -1.9942  -1.9697  -1.8327  -1.6366  -1.3663  -1.3090
    -1.2037  -1.0703  -0.9824  -0.9469  -0.5977  -0.5413  -0.3917  -0.3867
    -0.2859  -0.2494  -0.1967  -0.1731  -0.1397  -0.0267   0.1354   0.6227
     0.6455   0.7592   1.0683   1.1951   1.2906   1.3728   1.4130   1.6330
     1.6349   1.8180   1.8540   1.8977   1.9453   2.1090   2.1838   2.3770
     2.4782   2.5804   2.6794   2.7545   2.8477   3.0034   3.0070   3.0894
     3.1646   3.2743   3.2852   3.3241

          k = 0.0000 0.0885 0.0000 ( 28586 PWs)   bands (ev):

   -77.2116 -77.2041 -76.7209 -76.7134 -76.6957 -76.6883 -62.8678 -62.8567
   -62.8285 -62.8173 -62.7887 -62.7777 -45.1367 -45.1279 -45.0949 -45.0683
   -45.0588 -45.0127 -44.6469 -44.6379 -44.6286 -44.6240 -44.6192 -44.5902
   -44.5427 -44.5306 -44.5227 -44.5091 -44.4906 -44.4825 -36.7864 -36.7771
   -36.7124 -36.7029 -36.6811 -36.6759 -36.6678 -36.6399 -36.6313 -36.5945
   -36.5894 -36.5863 -36.5785 -36.5449 -36.4889 -36.4551 -36.3987 -36.3906
    -3.6644  -3.0404  -2.6193  -2.5563  -2.4468  -2.3446  -2.3055  -2.2464
    -2.0961  -2.0382  -1.7960  -1.7951  -1.6507  -1.4957  -1.3530  -1.2885
    -1.1230  -1.0856  -1.0103  -0.9800  -0.6579  -0.5916  -0.5408  -0.5049
    -0.3672  -0.3077  -0.2337  -0.2041  -0.1737  -0.0991  -0.0033   0.1263
     0.2052   0.3849   0.9718   1.0351   1.1694   1.3504   1.4511   1.5148
     1.5669   1.5856   1.7299   1.9868   2.0249   2.1347   2.2395   2.3131
     2.3871   2.4542   2.5408   2.6484   2.7557   2.7585   2.8117   2.9416
     2.9866   3.1025   3.2125   3.2134

          k = 0.0000-0.1062 0.0000 ( 28612 PWs)   bands (ev):

   -77.2078 -77.2078 -76.7172 -76.7172 -76.6920 -76.6920 -62.8623 -62.8622
   -62.8231 -62.8228 -62.7832 -62.7831 -45.1323 -45.1323 -45.0636 -45.0636
   -45.0536 -45.0536 -44.6421 -44.6421 -44.6238 -44.6238 -44.5833 -44.5833
   -44.5497 -44.5497 -44.5267 -44.5267 -44.4865 -44.4865 -36.7820 -36.7820
   -36.7076 -36.7075 -36.6730 -36.6726 -36.6369 -36.6367 -36.6344 -36.6341
   -36.5908 -36.5906 -36.5340 -36.5340 -36.5004 -36.5002 -36.3949 -36.3946
    -3.3017  -3.3017  -2.5115  -2.5115  -2.3610  -2.3610  -2.2142  -2.2142
    -1.9350  -1.9350  -1.7183  -1.7183  -1.5862  -1.5862  -1.3467  -1.3467
    -1.0533  -1.0533  -0.8959  -0.8959  -0.7124  -0.7124  -0.5224  -0.5224
    -0.3876  -0.3876  -0.2882  -0.2882  -0.1866  -0.1866  -0.0609  -0.0609
     0.1660   0.1660   0.9218   0.9219   1.2487   1.2488   1.4273   1.4273
     1.5318   1.5318   1.8575   1.8576   2.1067   2.1068   2.3962   2.3963
     2.4164   2.4164   2.5053   2.5054   2.5935   2.5936   2.8067   2.8068
     3.0146   3.0147   3.1850   3.1850

          k = 0.0156-0.0084 0.0000 ( 28548 PWs)   bands (ev):

   -77.2218 -77.1938 -76.7311 -76.7058 -76.7032 -76.6781 -62.8826 -62.8437
   -62.8413 -62.8036 -62.8016 -62.7626 -45.2068 -45.1493 -45.1167 -45.0835
   -45.0485 -44.9002 -44.7353 -44.7010 -44.6620 -44.6440 -44.6273 -44.6091
   -44.5410 -44.5110 -44.5022 -44.4716 -44.4308 -44.3978 -36.8003 -36.7956
   -36.7608 -36.7267 -36.6984 -36.6905 -36.6818 -36.6646 -36.6541 -36.6462
   -36.6141 -36.6005 -36.5697 -36.4618 -36.4092 -36.3788 -36.3626 -36.3282
    -4.8364  -3.3538  -3.2786  -3.1666  -3.1047  -3.0425  -2.8082  -2.6111
    -2.5765  -2.4888  -2.3986  -2.3636  -2.3289  -2.2295  -1.6788  -1.4988
    -1.2681  -0.8991  -0.8084  -0.5573  -0.5376  -0.5001  -0.4575  -0.3470
    -0.3028  -0.1238  -0.0011   0.0656   0.1073   0.8489   1.1091   1.1376
     1.1844   1.3242   1.3322   1.3804   1.5435   1.5888   1.5964   1.8114
     2.0340   2.2152   2.2956   2.4113   2.4907   2.5283   2.7455   2.8006
     2.8923   3.0456   3.1880   3.2657   3.3388   3.3417   3.4329   3.5131
     3.5861   3.6062   3.6480   3.7960

          k = 0.0156 0.0093 0.0000 ( 28507 PWs)   bands (ev):

   -77.2223 -77.1934 -76.7315 -76.7063 -76.7027 -76.6776 -62.8833 -62.8445
   -62.8406 -62.8044 -62.8009 -62.7618 -45.2119 -45.1499 -45.1161 -45.0838
   -45.0479 -44.8948 -44.7404 -44.7060 -44.6622 -44.6442 -44.6267 -44.6085
   -44.5416 -44.5105 -44.5026 -44.4711 -44.4253 -44.3924 -36.8066 -36.7967
   -36.7603 -36.7272 -36.7045 -36.6899 -36.6830 -36.6707 -36.6535 -36.6472
   -36.6139 -36.6015 -36.5694 -36.4555 -36.4098 -36.3783 -36.3565 -36.3220
    -4.8347  -3.3528  -3.2848  -3.1817  -3.1010  -3.0410  -2.8185  -2.6010
    -2.5923  -2.4352  -2.4215  -2.3811  -2.3211  -2.2486  -1.6597  -1.5194
    -1.2661  -0.8943  -0.8279  -0.5618  -0.5263  -0.4387  -0.4097  -0.3441
    -0.2840  -0.1514   0.0236   0.1058   0.1644   0.9706   1.0613   1.0910
     1.1849   1.2519   1.3374   1.3963   1.5225   1.5485   1.5875   1.7669
     1.9464   2.2684   2.3571   2.3923   2.4869   2.5310   2.7638   2.8289
     2.8377   3.0153   3.2060   3.2219   3.3090   3.4267   3.5119   3.5398
     3.5837   3.6187   3.6318   3.7440

          k = 0.0156 0.0271 0.0000 ( 28543 PWs)   bands (ev):

   -77.2218 -77.1939 -76.7311 -76.7058 -76.7032 -76.6781 -62.8827 -62.8438
   -62.8413 -62.8037 -62.8016 -62.7625 -45.2063 -45.1491 -45.1165 -45.0825
   -45.0481 -44.9002 -44.7348 -44.7005 -44.6610 -44.6428 -44.6269 -44.6087
   -44.5413 -44.5111 -44.5020 -44.4716 -44.4307 -44.3978 -36.8016 -36.7971
   -36.7615 -36.7263 -36.6994 -36.6903 -36.6838 -36.6656 -36.6544 -36.6478
   -36.6156 -36.6022 -36.5708 -36.4620 -36.4095 -36.3789 -36.3628 -36.3284
    -4.7193  -3.2859  -3.1892  -3.1027  -3.0195  -2.9798  -2.7673  -2.5511
    -2.5393  -2.4365  -2.3446  -2.2870  -2.2807  -2.1797  -1.5868  -1.5010
    -1.2625  -0.9100  -0.7874  -0.6203  -0.4818  -0.4680  -0.4134  -0.3315
    -0.2522  -0.2011   0.0035   0.1098   0.1705   0.8093   1.0576   1.0795
     1.1408   1.1971   1.1974   1.3689   1.4590   1.5499   1.5530   1.6929
     1.8725   2.0488   2.2110   2.2323   2.4530   2.5047   2.5837   2.7324
     2.8765   2.9830   3.0245   3.0709   3.0932   3.1988   3.3600   3.4827
     3.5420   3.5767   3.5905   3.7881

          k = 0.0156 0.0448 0.0000 ( 28557 PWs)   bands (ev):

   -77.2203 -77.1953 -76.7296 -76.7047 -76.7044 -76.6796 -62.8806 -62.8435
   -62.8417 -62.8039 -62.8016 -62.7646 -45.1903 -45.1472 -45.1180 -45.0798
   -45.0493 -44.9161 -44.7190 -44.6847 -44.6583 -44.6401 -44.6282 -44.6099
   -44.5400 -44.5129 -44.5002 -44.4731 -44.4465 -44.4135 -36.7964 -36.7854
   -36.7641 -36.7240 -36.6920 -36.6840 -36.6830 -36.6568 -36.6493 -36.6477
   -36.6187 -36.6022 -36.5737 -36.4803 -36.4083 -36.3808 -36.3806 -36.3465
    -4.4973  -3.1635  -3.0169  -2.9288  -2.8771  -2.8665  -2.6597  -2.4836
    -2.4263  -2.3962  -2.2236  -2.2157  -2.1204  -2.0280  -1.4871  -1.4269
    -1.2658  -0.9361  -0.7393  -0.7061  -0.6169  -0.4598  -0.4078  -0.3171
    -0.2481  -0.2260  -0.0457   0.0664   0.1120   0.5618   0.8113   0.9873
     1.0284   1.1090   1.1715   1.3498   1.4593   1.4629   1.5635   1.6002
     1.6282   1.8208   1.9125   2.0398   2.3534   2.3607   2.4248   2.5178
     2.5752   2.6468   2.9069   2.9536   3.0557   3.1911   3.2525   3.2813
     3.4468   3.4978   3.5143   3.5853

          k = 0.0156 0.0625 0.0000 ( 28544 PWs)   bands (ev):

   -77.2180 -77.1976 -76.7273 -76.7070 -76.7021 -76.6818 -62.8773 -62.8470
   -62.8383 -62.8074 -62.7983 -62.7680 -45.1651 -45.1443 -45.1205 -45.0761
   -45.0516 -44.9415 -44.6940 -44.6598 -44.6547 -44.6363 -44.6304 -44.6121
   -44.5378 -44.5155 -44.4976 -44.4756 -44.4717 -44.4386 -36.7947 -36.7681
   -36.7587 -36.7207 -36.6946 -36.6832 -36.6604 -36.6562 -36.6465 -36.6237
   -36.6220 -36.6013 -36.5776 -36.5091 -36.4096 -36.4057 -36.3833 -36.3750
    -4.1848  -3.0113  -2.8089  -2.7806  -2.7013  -2.6414  -2.5043  -2.4352
    -2.3060  -2.2240  -2.1394  -2.0611  -1.9208  -1.8051  -1.4164  -1.2887
    -1.2673  -0.9654  -0.9181  -0.8115  -0.6104  -0.5392  -0.4201  -0.3283
    -0.2327  -0.2013  -0.1029  -0.0443   0.0065   0.3144   0.3243   0.7791
     0.9530   1.0349   1.0791   1.1395   1.2484   1.3284   1.4241   1.5682
     1.5771   1.7070   1.8062   1.9350   1.9451   2.0469   2.2430   2.3891
     2.4984   2.5414   2.7230   2.8607   2.8946   2.9990   3.0207   3.2737
     3.3412   3.3858   3.4009   3.4567

          k = 0.0156 0.0802 0.0000 ( 28577 PWs)   bands (ev):

   -77.2150 -77.2006 -76.7244 -76.7100 -76.6992 -76.6848 -62.8730 -62.8515
   -62.8338 -62.8120 -62.7940 -62.7724 -45.1407 -45.1325 -45.1237 -45.0718
   -45.0549 -44.9746 -44.6615 -44.6504 -44.6336 -44.6320 -44.6276 -44.6152
   -44.5348 -44.5189 -44.5046 -44.4942 -44.4788 -44.4712 -36.7918 -36.7724
   -36.7238 -36.7166 -36.6982 -36.6815 -36.6635 -36.6442 -36.6290 -36.6198
   -36.5992 -36.5890 -36.5807 -36.5462 -36.4460 -36.4124 -36.4025 -36.3867
    -3.8115  -2.9480  -2.6998  -2.6209  -2.4958  -2.3765  -2.3423  -2.2944
    -2.2304  -2.0510  -1.9787  -1.8933  -1.7207  -1.5484  -1.3663  -1.3034
    -1.1168  -1.0782  -1.0287  -0.9833  -0.6108  -0.5680  -0.4520  -0.3773
    -0.3448  -0.1945  -0.1898  -0.1168  -0.1103  -0.0746   0.1308   0.4794
     0.5389   0.6366   0.8517   1.0606   1.0754   1.3610   1.3777   1.4688
     1.5563   1.5829   1.7317   1.8550   1.9721   2.0673   2.0817   2.3610
     2.4034   2.4625   2.5252   2.6657   2.8516   2.8529   2.9604   3.0417
     3.1231   3.2280   3.2879   3.3077

          k = 0.0156-0.1146 0.0000 ( 28593 PWs)   bands (ev):

   -77.2116 -77.2041 -76.7209 -76.7134 -76.6957 -76.6883 -62.8678 -62.8567
   -62.8286 -62.8173 -62.7889 -62.7775 -45.1365 -45.1279 -45.0943 -45.0672
   -45.0590 -45.0130 -44.6459 -44.6381 -44.6274 -44.6235 -44.6195 -44.5895
   -44.5431 -44.5308 -44.5227 -44.5093 -44.4903 -44.4826 -36.7877 -36.7769
   -36.7120 -36.7030 -36.6822 -36.6786 -36.6667 -36.6405 -36.6321 -36.5961
   -36.5887 -36.5865 -36.5796 -36.5461 -36.4883 -36.4545 -36.3991 -36.3905
    -3.4274  -3.1274  -2.5525  -2.5023  -2.3760  -2.3047  -2.2115  -2.1967
    -2.0243  -1.9395  -1.8400  -1.7451  -1.6056  -1.4685  -1.3320  -1.3025
    -1.1469  -1.0465  -1.0193  -0.8980  -0.6710  -0.6639  -0.5524  -0.5126
    -0.4763  -0.3074  -0.2414  -0.1949  -0.1939  -0.0653  -0.0182   0.0321
     0.1695   0.3044   0.7672   0.9544   1.1352   1.3061   1.3809   1.4198
     1.4782   1.5465   1.8234   1.8876   1.9581   2.1950   2.2392   2.2685
     2.3932   2.4502   2.5148   2.5959   2.6455   2.7663   2.8554   2.9111
     2.9794   3.0724   3.1733   3.2393

          k = 0.0156-0.0969 0.0000 ( 28592 PWs)   bands (ev):

   -77.2079 -77.2078 -76.7172 -76.7172 -76.6920 -76.6920 -62.8623 -62.8622
   -62.8231 -62.8228 -62.7834 -62.7830 -45.1323 -45.1322 -45.0641 -45.0629
   -45.0541 -45.0532 -44.6428 -44.6415 -44.6245 -44.6230 -44.5838 -44.5829
   -44.5502 -44.5492 -44.5268 -44.5266 -44.4867 -44.4863 -36.7827 -36.7813
   -36.7077 -36.7072 -36.6747 -36.6709 -36.6371 -36.6365 -36.6349 -36.6335
   -36.5913 -36.5900 -36.5349 -36.5332 -36.5012 -36.4995 -36.3950 -36.3945
    -3.4510  -3.1056  -2.5164  -2.4875  -2.3762  -2.3423  -2.2374  -2.2224
    -1.9934  -1.9032  -1.7181  -1.6982  -1.6017  -1.5681  -1.3797  -1.2872
    -1.0971  -1.0435  -0.9170  -0.8941  -0.7083  -0.6823  -0.5933  -0.5019
    -0.4659  -0.3547  -0.3443  -0.2681  -0.2075  -0.2035  -0.0980  -0.0155
     0.0809   0.2491   0.8501   0.9734   1.2312   1.2788   1.4310   1.4643
     1.4927   1.6736   1.7467   1.9740   2.0702   2.1287   2.3437   2.3532
     2.4134   2.4723   2.5101   2.5896   2.6468   2.7139   2.7507   2.9247
     3.0193   3.0838   3.1434   3.2092

          k = 0.0156-0.0792 0.0000 ( 28597 PWs)   bands (ev):

   -77.2116 -77.2041 -76.7209 -76.7134 -76.6957 -76.6883 -62.8677 -62.8567
   -62.8285 -62.8172 -62.7885 -62.7778 -45.1368 -45.1280 -45.0954 -45.0691
   -45.0586 -45.0124 -44.6478 -44.6375 -44.6296 -44.6245 -44.6189 -44.5908
   -44.5424 -44.5304 -44.5227 -44.5088 -44.4908 -44.4823 -36.7853 -36.7772
   -36.7127 -36.7027 -36.6798 -36.6738 -36.6692 -36.6391 -36.6303 -36.5932
   -36.5901 -36.5861 -36.5777 -36.5440 -36.4894 -36.4556 -36.3984 -36.3908
    -3.8311  -2.9333  -2.6474  -2.5882  -2.5007  -2.4090  -2.4034  -2.3000
    -2.1519  -2.1093  -1.8354  -1.7523  -1.6965  -1.5563  -1.3392  -1.2810
    -1.1602  -1.1213  -0.9996  -0.9955  -0.6402  -0.5513  -0.5314  -0.5039
    -0.3463  -0.2983  -0.2754  -0.2542  -0.2282  -0.1698   0.0387   0.1911
     0.2578   0.4556   1.0684   1.1237   1.2542   1.3923   1.4638   1.5887
     1.6233   1.7797   1.8031   1.9683   2.0905   2.1115   2.2370   2.3577
     2.4326   2.4790   2.5777   2.6842   2.7983   2.8762   3.0027   3.0394
     3.0724   3.1877   3.2260   3.2993

          k = 0.0156-0.0615 0.0000 ( 28573 PWs)   bands (ev):

   -77.2151 -77.2006 -76.7244 -76.7099 -76.6992 -76.6848 -62.8728 -62.8514
   -62.8337 -62.8119 -62.7937 -62.7727 -45.1411 -45.1336 -45.1241 -45.0741
   -45.0551 -44.9743 -44.6627 -44.6527 -44.6346 -44.6338 -44.6287 -44.6154
   -44.5341 -44.5187 -44.5043 -44.4947 -44.4787 -44.4709 -36.7887 -36.7717
   -36.7207 -36.7175 -36.6985 -36.6763 -36.6646 -36.6416 -36.6253 -36.6185
   -36.5956 -36.5857 -36.5801 -36.5468 -36.4465 -36.4128 -36.4018 -36.3867
    -4.1989  -2.9983  -2.7558  -2.7411  -2.6895  -2.6626  -2.5326  -2.4213
    -2.3813  -2.1964  -2.0278  -2.0036  -1.8994  -1.7020  -1.4198  -1.3161
    -1.2561  -1.0452  -0.9862  -0.8571  -0.5699  -0.5204  -0.4345  -0.3867
    -0.3310  -0.3257  -0.2017  -0.1811  -0.1781   0.0371   0.1543   0.6734
     0.7487   0.8336   1.1770   1.3367   1.3736   1.3965   1.5154   1.6406
     1.8078   1.8179   1.9127   2.0251   2.1206   2.1524   2.2230   2.4268
     2.5065   2.6417   2.7191   2.8120   2.9118   3.0881   3.1131   3.2390
     3.2853   3.3281   3.4040   3.5341

          k = 0.0156-0.0438 0.0000 ( 28551 PWs)   bands (ev):

   -77.2181 -77.1976 -76.7273 -76.7070 -76.7021 -76.6818 -62.8771 -62.8469
   -62.8381 -62.8073 -62.7981 -62.7682 -45.1663 -45.1448 -45.1208 -45.0784
   -45.0522 -44.9414 -44.6951 -44.6609 -44.6570 -44.6389 -44.6309 -44.6126
   -44.5371 -44.5153 -44.4981 -44.4755 -44.4716 -44.4385 -36.7916 -36.7668
   -36.7560 -36.7216 -36.6950 -36.6784 -36.6602 -36.6541 -36.6435 -36.6205
   -36.6197 -36.5976 -36.5756 -36.5090 -36.4097 -36.4049 -36.3832 -36.3750
    -4.5065  -3.1586  -2.9654  -2.9016  -2.8842  -2.8647  -2.6149  -2.5740
    -2.4631  -2.2749  -2.2630  -2.2023  -2.1006  -1.9352  -1.5514  -1.3560
    -1.2882  -0.9507  -0.8231  -0.7179  -0.6224  -0.5043  -0.4925  -0.4065
    -0.3141  -0.2026  -0.1310  -0.1103  -0.0726   0.3657   0.5552   0.8714
     1.2245   1.2910   1.2978   1.3530   1.4357   1.4939   1.5593   1.7044
     1.7408   1.8678   1.9551   2.1392   2.3457   2.4407   2.4674   2.5252
     2.6762   2.7027   2.7475   2.9677   3.0991   3.2516   3.3405   3.3429
     3.3663   3.5012   3.5218   3.5574

          k = 0.0156-0.0261 0.0000 ( 28573 PWs)   bands (ev):

   -77.2204 -77.1953 -76.7296 -76.7047 -76.7044 -76.6796 -62.8805 -62.8435
   -62.8415 -62.8038 -62.8014 -62.7648 -45.1912 -45.1476 -45.1183 -45.0817
   -45.0500 -44.9162 -44.7199 -44.6856 -44.6602 -44.6422 -44.6288 -44.6105
   -44.5394 -44.5126 -44.5007 -44.4731 -44.4466 -44.4136 -36.7939 -36.7832
   -36.7630 -36.7248 -36.6925 -36.6812 -36.6803 -36.6564 -36.6474 -36.6450
   -36.6161 -36.5991 -36.5719 -36.4800 -36.4077 -36.3806 -36.3805 -36.3464
    -4.7246  -3.2867  -3.1668  -3.0642  -3.0327  -2.9805  -2.7397  -2.5963
    -2.5037  -2.4699  -2.3295  -2.3115  -2.2590  -2.1223  -1.6418  -1.4419
    -1.2708  -0.9188  -0.7351  -0.6305  -0.5921  -0.5532  -0.4871  -0.3745
    -0.3040  -0.1242  -0.0720  -0.0097   0.0226   0.6186   1.0214   1.0293
     1.1748   1.2499   1.4110   1.4438   1.5163   1.5522   1.6420   1.8299
     1.8974   2.0681   2.1059   2.1953   2.4755   2.4759   2.7210   2.7439
     2.8193   2.9407   2.9469   3.0418   3.2424   3.2658   3.3840   3.4458
     3.4826   3.5026   3.6290   3.7142

          k = 0.0312-0.0167 0.0000 ( 28568 PWs)   bands (ev):

   -77.2204 -77.1953 -76.7296 -76.7047 -76.7044 -76.6796 -62.8805 -62.8435
   -62.8416 -62.8038 -62.8015 -62.7647 -45.1910 -45.1475 -45.1182 -45.0812
   -45.0498 -44.9162 -44.7196 -44.6854 -44.6597 -44.6416 -44.6286 -44.6104
   -44.5396 -44.5127 -44.5005 -44.4732 -44.4466 -44.4135 -36.7945 -36.7838
   -36.7633 -36.7246 -36.6923 -36.6816 -36.6812 -36.6565 -36.6479 -36.6458
   -36.6168 -36.6000 -36.5724 -36.4801 -36.4078 -36.3807 -36.3806 -36.3464
    -4.6668  -3.2550  -3.1223  -3.0316  -2.9919  -2.9539  -2.7194  -2.5646
    -2.4780  -2.4591  -2.3018  -2.2875  -2.2241  -2.0980  -1.5957  -1.4428
    -1.2696  -0.9255  -0.7302  -0.6539  -0.6077  -0.4998  -0.4810  -0.3408
    -0.2914  -0.1798  -0.0533   0.0116   0.0461   0.6040   0.9692   1.0224
     1.1566   1.1939   1.3195   1.4665   1.4703   1.5327   1.6343   1.7571
     1.8221   1.9873   2.0427   2.1844   2.4407   2.4579   2.6454   2.7048
     2.7532   2.8390   2.9438   3.0963   3.1617   3.2049   3.3645   3.4361
     3.4504   3.4959   3.5881   3.6562

          k = 0.0312 0.0010 0.0000 ( 28543 PWs)   bands (ev):

   -77.2218 -77.1939 -76.7311 -76.7058 -76.7032 -76.6781 -62.8827 -62.8438
   -62.8413 -62.8037 -62.8016 -62.7625 -45.2063 -45.1491 -45.1165 -45.0825
   -45.0481 -44.9002 -44.7348 -44.7005 -44.6610 -44.6428 -44.6269 -44.6087
   -44.5413 -44.5111 -44.5020 -44.4716 -44.4307 -44.3978 -36.8016 -36.7971
   -36.7615 -36.7263 -36.6994 -36.6903 -36.6838 -36.6656 -36.6544 -36.6478
   -36.6156 -36.6022 -36.5708 -36.4620 -36.4095 -36.3789 -36.3628 -36.3284
    -4.7193  -3.2859  -3.1892  -3.1027  -3.0195  -2.9798  -2.7673  -2.5511
    -2.5393  -2.4365  -2.3446  -2.2870  -2.2807  -2.1797  -1.5868  -1.5010
    -1.2625  -0.9100  -0.7874  -0.6203  -0.4818  -0.4680  -0.4134  -0.3315
    -0.2522  -0.2011   0.0035   0.1098   0.1705   0.8093   1.0576   1.0795
     1.1408   1.1971   1.1974   1.3689   1.4590   1.5499   1.5530   1.6929
     1.8725   2.0488   2.2110   2.2323   2.4530   2.5047   2.5837   2.7324
     2.8765   2.9830   3.0245   3.0709   3.0932   3.1988   3.3600   3.4827
     3.5420   3.5767   3.5905   3.7879

          k = 0.0312 0.0187 0.0000 ( 28577 PWs)   bands (ev):

   -77.2223 -77.1934 -76.7315 -76.7063 -76.7027 -76.6776 -62.8835 -62.8445
   -62.8406 -62.8045 -62.8009 -62.7617 -45.2112 -45.1495 -45.1158 -45.0823
   -45.0473 -44.8947 -44.7397 -44.7053 -44.6607 -44.6425 -44.6261 -44.6079
   -44.5420 -44.5107 -44.5023 -44.4711 -44.4253 -44.3924 -36.8085 -36.7988
   -36.7613 -36.7266 -36.7059 -36.6895 -36.6860 -36.6723 -36.6540 -36.6496
   -36.6161 -36.6041 -36.5711 -36.4560 -36.4103 -36.3784 -36.3568 -36.3224
    -4.6607  -3.2525  -3.1687  -3.0798  -2.9724  -2.9452  -2.7595  -2.5590
    -2.4836  -2.3593  -2.3464  -2.2634  -2.2445  -2.1740  -1.5245  -1.5237
    -1.2560  -0.9057  -0.7906  -0.6536  -0.4419  -0.4308  -0.3508  -0.3052
    -0.2265  -0.2145   0.0170   0.1724   0.2663   0.8949   0.9374   1.0015
     1.0899   1.1757   1.2075   1.2841   1.4045   1.4833   1.5300   1.5934
     1.7405   2.0290   2.1070   2.2249   2.4406   2.4433   2.4911   2.7158
     2.8132   2.9254   2.9329   2.9678   3.0870   3.2523   3.3181   3.4214
     3.5297   3.5491   3.5984   3.6761

          k = 0.0312 0.0364 0.0000 ( 28586 PWs)   bands (ev):

   -77.2218 -77.1939 -76.7311 -76.7058 -76.7032 -76.6781 -62.8828 -62.8439
   -62.8414 -62.8039 -62.8017 -62.7624 -45.2054 -45.1488 -45.1162 -45.0807
   -45.0474 -44.9001 -44.7340 -44.6996 -44.6592 -44.6408 -44.6263 -44.6081
   -44.5418 -44.5114 -44.5016 -44.4716 -44.4307 -44.3977 -36.8038 -36.7996
   -36.7627 -36.7255 -36.7011 -36.6899 -36.6876 -36.6675 -36.6550 -36.6505
   -36.6182 -36.6053 -36.5729 -36.4624 -36.4101 -36.3791 -36.3631 -36.3287
    -4.4939  -3.1615  -3.0731  -2.9535  -2.8616  -2.8546  -2.6912  -2.4945
    -2.4184  -2.3324  -2.2452  -2.1815  -2.1381  -2.0840  -1.5133  -1.4119
    -1.2518  -0.9168  -0.7436  -0.7274  -0.5122  -0.4372  -0.3498  -0.2849
    -0.2054  -0.1723  -0.0051   0.1880   0.2850   0.7118   0.8862   0.9493
     0.9506   1.0402   1.1639   1.3104   1.3138   1.4394   1.4714   1.4786
     1.6697   1.7807   1.9507   2.0025   2.2835   2.3743   2.4440   2.4909
     2.5778   2.6069   2.8764   2.9452   3.0860   3.1287   3.2229   3.3934
     3.4044   3.5014   3.5476   3.5483

          k = 0.0312 0.0541 0.0000 ( 28569 PWs)   bands (ev):

   -77.2203 -77.1953 -76.7296 -76.7047 -76.7044 -76.6796 -62.8808 -62.8436
   -62.8418 -62.8040 -62.8018 -62.7645 -45.1894 -45.1469 -45.1176 -45.0780
   -45.0487 -44.9161 -44.7181 -44.6838 -44.6565 -44.6380 -44.6276 -44.6093
   -44.5405 -44.5131 -44.4999 -44.4731 -44.4465 -44.4135 -36.7990 -36.7877
   -36.7652 -36.7232 -36.6915 -36.6880 -36.6848 -36.6571 -36.6512 -36.6502
   -36.6212 -36.6054 -36.5757 -36.4806 -36.4089 -36.3810 -36.3808 -36.3467
    -4.2291  -3.0249  -2.9101  -2.7586  -2.7530  -2.6822  -2.5589  -2.3901
    -2.3609  -2.2481  -2.1108  -2.1008  -1.9564  -1.9215  -1.4745  -1.2679
    -1.2619  -0.9393  -0.8459  -0.6669  -0.6535  -0.4897  -0.4329  -0.3168
    -0.1541  -0.1310  -0.0397   0.1291   0.1934   0.5061   0.5613   0.7578
     0.8782   1.0056   1.1371   1.1484   1.2884   1.3200   1.4164   1.4377
     1.5386   1.6675   1.6959   1.8306   1.9177   2.0653   2.2576   2.4187
     2.4277   2.4979   2.7234   2.8622   2.9448   2.9720   3.1051   3.3267
     3.3537   3.4288   3.4877   3.4942

          k = 0.0312 0.0718 0.0000 ( 28584 PWs)   bands (ev):

   -77.2180 -77.1976 -76.7273 -76.7070 -76.7021 -76.6818 -62.8774 -62.8471
   -62.8384 -62.8075 -62.7985 -62.7678 -45.1643 -45.1440 -45.1202 -45.0744
   -45.0511 -44.9415 -44.6931 -44.6589 -44.6530 -44.6344 -44.6300 -44.6118
   -44.5383 -44.5157 -44.4973 -44.4756 -44.4718 -44.4387 -36.7970 -36.7690
   -36.7608 -36.7200 -36.6943 -36.6872 -36.6606 -36.6577 -36.6485 -36.6257
   -36.6239 -36.6042 -36.5791 -36.5092 -36.4095 -36.4064 -36.3834 -36.3750
    -3.8867  -2.8756  -2.7048  -2.7040  -2.5400  -2.4958  -2.3491  -2.3397
    -2.1611  -2.1600  -2.0244  -1.9580  -1.7567  -1.7044  -1.4201  -1.3020
    -1.1215  -0.9965  -0.9627  -0.8624  -0.6279  -0.5354  -0.4779  -0.3956
    -0.2113  -0.1329  -0.0288  -0.0061   0.0118   0.1075   0.3086   0.5852
     0.7841   0.7957   0.9162   0.9906   1.0310   1.2528   1.3071   1.4270
     1.4490   1.5536   1.6696   1.7280   1.8400   1.9642   2.0849   2.3434
     2.3664   2.4532   2.5149   2.6929   2.8790   2.9055   2.9989   3.1990
     3.3117   3.3598   3.4261   3.4640

          k = 0.0312-0.1229 0.0000 ( 28602 PWs)   bands (ev):

   -77.2150 -77.2006 -76.7244 -76.7100 -76.6992 -76.6848 -62.8731 -62.8515
   -62.8339 -62.8121 -62.7941 -62.7723 -45.1405 -45.1317 -45.1235 -45.0705
   -45.0547 -44.9747 -44.6608 -44.6491 -44.6336 -44.6305 -44.6268 -44.6152
   -44.5352 -44.5190 -44.5047 -44.4939 -44.4789 -44.4714 -36.7936 -36.7727
   -36.7256 -36.7159 -36.6979 -36.6849 -36.6630 -36.6454 -36.6302 -36.6215
   -36.6014 -36.5902 -36.5819 -36.5460 -36.4458 -36.4121 -36.4030 -36.3867
    -3.5034  -2.9163  -2.6078  -2.5361  -2.3771  -2.2683  -2.2472  -2.1520
    -2.1415  -1.9502  -1.9457  -1.8090  -1.5961  -1.4775  -1.3495  -1.3126
    -1.1435  -1.0853  -1.0505  -0.9266  -0.6312  -0.6008  -0.5045  -0.4985
    -0.3681  -0.2385  -0.2134  -0.1906  -0.1616   0.0540   0.0903   0.2973
     0.4494   0.4740   0.5993   0.8843   0.9847   1.2535   1.3200   1.3643
     1.4412   1.4452   1.7670   1.8375   1.9016   2.0595   2.1372   2.1905
     2.3522   2.4477   2.4866   2.6342   2.7981   2.9005   2.9861   2.9972
     3.1519   3.2054   3.2996   3.3020

          k = 0.0312-0.1052 0.0000 ( 28592 PWs)   bands (ev):

   -77.2115 -77.2041 -76.7209 -76.7134 -76.6957 -76.6883 -62.8679 -62.8567
   -62.8286 -62.8173 -62.7890 -62.7774 -45.1364 -45.1278 -45.0937 -45.0663
   -45.0593 -45.0133 -44.6450 -44.6383 -44.6264 -44.6231 -44.6197 -44.5890
   -44.5434 -44.5310 -44.5227 -44.5096 -44.4901 -44.4827 -36.7888 -36.7768
   -36.7115 -36.7031 -36.6830 -36.6810 -36.6660 -36.6409 -36.6327 -36.5975
   -36.5880 -36.5867 -36.5806 -36.5473 -36.4878 -36.4540 -36.3994 -36.3905
    -3.1849  -3.1412  -2.4705  -2.4552  -2.3085  -2.2735  -2.1731  -2.1652
    -1.9576  -1.8781  -1.8486  -1.6861  -1.6034  -1.4691  -1.2746  -1.2331
    -1.1730  -1.1126  -0.9739  -0.8204  -0.7112  -0.6760  -0.6394  -0.5831
    -0.5386  -0.3603  -0.3245  -0.2612  -0.2598  -0.1290  -0.0934   0.0512
     0.2052   0.2557   0.5715   0.8731   1.1420   1.2413   1.3301   1.3597
     1.4790   1.6416   1.7597   1.8984   1.9791   2.0883   2.2003   2.4191
     2.4589   2.4660   2.5253   2.6286   2.7160   2.7496   2.9148   2.9875
     3.0509   3.0846   3.1421   3.2593

          k = 0.0312-0.0875 0.0000 ( 28606 PWs)   bands (ev):

   -77.2079 -77.2078 -76.7172 -76.7172 -76.6920 -76.6920 -62.8623 -62.8622
   -62.8231 -62.8228 -62.7835 -62.7829 -45.1323 -45.1322 -45.0645 -45.0623
   -45.0545 -45.0530 -44.6432 -44.6410 -44.6250 -44.6224 -44.5842 -44.5826
   -44.5506 -44.5489 -44.5269 -44.5265 -44.4868 -44.4862 -36.7832 -36.7808
   -36.7078 -36.7070 -36.6761 -36.6696 -36.6375 -36.6362 -36.6353 -36.6330
   -36.5917 -36.5896 -36.5356 -36.5327 -36.5020 -36.4989 -36.3952 -36.3944
    -3.5435  -2.8829  -2.5418  -2.4452  -2.3806  -2.3388  -2.2767  -2.2658
    -2.0384  -1.9009  -1.7027  -1.6841  -1.6025  -1.5325  -1.3417  -1.3259
    -1.1036  -1.0407  -0.9911  -0.8858  -0.6964  -0.6434  -0.6170  -0.5975
    -0.4921  -0.4317  -0.3304  -0.2721  -0.2674  -0.2339  -0.1610  -0.0007
     0.0794   0.2979   0.8286   0.9636   1.2344   1.3050   1.4299   1.5015
     1.5284   1.7279   1.8381   2.0055   2.0697   2.1340   2.2652   2.3344
     2.4207   2.5147   2.5366   2.6995   2.7162   2.7514   2.9944   3.0178
     3.1381   3.1418   3.2073   3.3426

          k = 0.0312-0.0698 0.0000 ( 28609 PWs)   bands (ev):

   -77.2116 -77.2041 -76.7209 -76.7134 -76.6957 -76.6883 -62.8677 -62.8567
   -62.8285 -62.8172 -62.7884 -62.7779 -45.1369 -45.1281 -45.0957 -45.0696
   -45.0585 -45.0123 -44.6483 -44.6373 -44.6302 -44.6249 -44.6187 -44.5911
   -44.5422 -44.5303 -44.5227 -44.5087 -44.4909 -44.4823 -36.7847 -36.7772
   -36.7129 -36.7026 -36.6787 -36.6726 -36.6703 -36.6386 -36.6297 -36.5924
   -36.5905 -36.5860 -36.5772 -36.5435 -36.4898 -36.4560 -36.3983 -36.3908
    -3.9168  -2.8434  -2.6279  -2.5921  -2.5295  -2.5135  -2.4700  -2.3248
    -2.1818  -2.1400  -1.8604  -1.7104  -1.7085  -1.6178  -1.3363  -1.2821
    -1.1986  -1.1826  -1.0209  -0.8986  -0.6220  -0.6021  -0.5015  -0.4538
    -0.3621  -0.3471  -0.3263  -0.3004  -0.2410  -0.2214   0.0867   0.2224
     0.2852   0.4869   1.1389   1.1721   1.2444   1.4257   1.4760   1.6273
     1.7101   1.8409   1.9367   1.9858   2.0824   2.1100   2.2430   2.3477
     2.4787   2.5034   2.6082   2.6913   2.8010   2.9379   3.0633   3.1995
     3.2135   3.2486   3.4576   3.4786

          k = 0.0312-0.0521 0.0000 ( 28562 PWs)   bands (ev):

   -77.2151 -77.2006 -76.7244 -76.7099 -76.6992 -76.6848 -62.8728 -62.8514
   -62.8337 -62.8119 -62.7936 -62.7727 -45.1411 -45.1338 -45.1242 -45.0744
   -45.0551 -44.9742 -44.6629 -44.6531 -44.6350 -44.6338 -44.6288 -44.6154
   -44.5340 -44.5187 -44.5043 -44.4948 -44.4786 -44.4709 -36.7882 -36.7715
   -36.7202 -36.7176 -36.6985 -36.6755 -36.6649 -36.6411 -36.6244 -36.6185
   -36.5950 -36.5849 -36.5803 -36.5468 -36.4466 -36.4129 -36.4017 -36.3867
    -4.2496  -3.0057  -2.7620  -2.7270  -2.7201  -2.7075  -2.5861  -2.4377
    -2.4009  -2.2128  -2.0499  -2.0068  -1.9196  -1.7258  -1.4587  -1.3189
    -1.2593  -1.0388  -0.9884  -0.8124  -0.5334  -0.4836  -0.4804  -0.4675
    -0.3713  -0.3097  -0.2069  -0.1879  -0.1764   0.0592   0.1634   0.6885
     0.7824   0.8601   1.2311   1.3536   1.3867   1.4182   1.5632   1.6700
     1.8044   1.8965   1.9062   2.0717   2.1606   2.2106   2.2118   2.4641
     2.5181   2.6722   2.7607   2.8224   2.8347   3.0991   3.2163   3.2674
     3.3284   3.4053   3.4556   3.6369

          k = 0.0312-0.0344 0.0000 ( 28551 PWs)   bands (ev):

   -77.2181 -77.1976 -76.7273 -76.7070 -76.7021 -76.6818 -62.8771 -62.8469
   -62.8381 -62.8073 -62.7981 -62.7682 -45.1663 -45.1448 -45.1208 -45.0784
   -45.0522 -44.9414 -44.6951 -44.6609 -44.6570 -44.6389 -44.6309 -44.6126
   -44.5371 -44.5153 -44.4981 -44.4755 -44.4716 -44.4385 -36.7916 -36.7668
   -36.7560 -36.7216 -36.6950 -36.6784 -36.6602 -36.6541 -36.6435 -36.6205
   -36.6197 -36.5976 -36.5756 -36.5090 -36.4097 -36.4049 -36.3832 -36.3750
    -4.5065  -3.1586  -2.9654  -2.9016  -2.8842  -2.8647  -2.6149  -2.5740
    -2.4631  -2.2749  -2.2630  -2.2023  -2.1006  -1.9352  -1.5514  -1.3560
    -1.2882  -0.9507  -0.8231  -0.7179  -0.6224  -0.5043  -0.4925  -0.4065
    -0.3141  -0.2026  -0.1310  -0.1103  -0.0726   0.3657   0.5552   0.8714
     1.2245   1.2910   1.2978   1.3530   1.4357   1.4939   1.5593   1.7044
     1.7408   1.8678   1.9551   2.1392   2.3457   2.4407   2.4674   2.5252
     2.6762   2.7027   2.7475   2.9677   3.0992   3.2516   3.3405   3.3429
     3.3663   3.5012   3.5219   3.5574

          k = 0.0468-0.0251 0.0000 ( 28570 PWs)   bands (ev):

   -77.2181 -77.1976 -76.7273 -76.7070 -76.7021 -76.6818 -62.8772 -62.8470
   -62.8382 -62.8074 -62.7982 -62.7681 -45.1659 -45.1446 -45.1207 -45.0776
   -45.0520 -44.9415 -44.6947 -44.6605 -44.6562 -44.6380 -44.6307 -44.6124
   -44.5374 -44.5154 -44.4980 -44.4756 -44.4717 -44.4385 -36.7927 -36.7673
   -36.7570 -36.7213 -36.6949 -36.6801 -36.6603 -36.6549 -36.6447 -36.6218
   -36.6205 -36.5989 -36.5763 -36.5091 -36.4096 -36.4052 -36.3833 -36.3750
    -4.3969  -3.1088  -2.9050  -2.8369  -2.8303  -2.8025  -2.5786  -2.5195
    -2.4117  -2.2578  -2.2226  -2.1508  -2.0398  -1.8890  -1.4716  -1.3520
    -1.2879  -0.9585  -0.8483  -0.7644  -0.6243  -0.5289  -0.4086  -0.3120
    -0.3057  -0.2677  -0.1143  -0.0825  -0.0433   0.3490   0.4744   0.8444
     1.1385   1.2140   1.2529   1.2750   1.2880   1.4500   1.5790   1.6125
     1.7114   1.7519   1.8784   2.0938   2.2873   2.2880   2.3372   2.4282
     2.6049   2.6365   2.7839   2.9790   3.0279   3.1658   3.1975   3.3101
     3.3448   3.4275   3.4775   3.4900

          k = 0.0468-0.0074 0.0000 ( 28557 PWs)   bands (ev):

   -77.2203 -77.1953 -76.7296 -76.7047 -76.7044 -76.6796 -62.8806 -62.8435
   -62.8417 -62.8039 -62.8016 -62.7646 -45.1903 -45.1472 -45.1180 -45.0798
   -45.0493 -44.9161 -44.7190 -44.6847 -44.6583 -44.6401 -44.6282 -44.6099
   -44.5400 -44.5129 -44.5002 -44.4731 -44.4465 -44.4135 -36.7964 -36.7854
   -36.7641 -36.7240 -36.6920 -36.6840 -36.6830 -36.6568 -36.6493 -36.6477
   -36.6187 -36.6022 -36.5737 -36.4803 -36.4083 -36.3808 -36.3806 -36.3465
    -4.4973  -3.1635  -3.0169  -2.9288  -2.8771  -2.8665  -2.6597  -2.4836
    -2.4263  -2.3962  -2.2236  -2.2157  -2.1204  -2.0280  -1.4871  -1.4269
    -1.2658  -0.9361  -0.7393  -0.7061  -0.6169  -0.4598  -0.4078  -0.3171
    -0.2481  -0.2260  -0.0457   0.0664   0.1120   0.5618   0.8113   0.9873
     1.0284   1.1090   1.1715   1.3498   1.4593   1.4629   1.5635   1.6002
     1.6282   1.8208   1.9125   2.0398   2.3534   2.3607   2.4248   2.5178
     2.5752   2.6468   2.9069   2.9536   3.0557   3.1911   3.2525   3.2813
     3.4469   3.4979   3.5144   3.5858

          k = 0.0468 0.0103 0.0000 ( 28586 PWs)   bands (ev):

   -77.2218 -77.1939 -76.7311 -76.7058 -76.7032 -76.6781 -62.8828 -62.8439
   -62.8414 -62.8039 -62.8017 -62.7624 -45.2054 -45.1488 -45.1162 -45.0807
   -45.0474 -44.9001 -44.7340 -44.6996 -44.6592 -44.6408 -44.6263 -44.6081
   -44.5418 -44.5114 -44.5016 -44.4716 -44.4307 -44.3977 -36.8038 -36.7996
   -36.7627 -36.7255 -36.7011 -36.6899 -36.6876 -36.6675 -36.6550 -36.6505
   -36.6182 -36.6053 -36.5729 -36.4624 -36.4101 -36.3791 -36.3631 -36.3287
    -4.4939  -3.1615  -3.0731  -2.9535  -2.8616  -2.8546  -2.6912  -2.4945
    -2.4184  -2.3324  -2.2452  -2.1815  -2.1381  -2.0840  -1.5133  -1.4119
    -1.2518  -0.9168  -0.7436  -0.7274  -0.5122  -0.4372  -0.3498  -0.2849
    -0.2054  -0.1723  -0.0051   0.1880   0.2850   0.7118   0.8862   0.9493
     0.9506   1.0402   1.1639   1.3104   1.3138   1.4394   1.4714   1.4786
     1.6697   1.7807   1.9507   2.0025   2.2835   2.3743   2.4440   2.4909
     2.5778   2.6069   2.8764   2.9452   3.0860   3.1287   3.2229   3.3934
     3.4044   3.5014   3.5476   3.5483

          k = 0.0468 0.0280 0.0000 ( 28590 PWs)   bands (ev):

   -77.2223 -77.1934 -76.7315 -76.7063 -76.7027 -76.6776 -62.8836 -62.8447
   -62.8407 -62.8047 -62.8011 -62.7616 -45.2102 -45.1491 -45.1154 -45.0802
   -45.0464 -44.8946 -44.7387 -44.7043 -44.6587 -44.6402 -44.6254 -44.6071
   -44.5426 -44.5110 -44.5019 -44.4711 -44.4252 -44.3923 -36.8109 -36.8017
   -36.7627 -36.7257 -36.7079 -36.6904 -36.6890 -36.6744 -36.6547 -36.6524
   -36.6191 -36.6077 -36.5734 -36.4564 -36.4110 -36.3786 -36.3572 -36.3228
    -4.3865  -3.1072  -3.0630  -2.8902  -2.7978  -2.7783  -2.6752  -2.4702
    -2.3393  -2.2391  -2.2298  -2.1110  -2.0814  -2.0539  -1.5319  -1.3251
    -1.2418  -0.9064  -0.7673  -0.7344  -0.5270  -0.4999  -0.2788  -0.1890
    -0.1359  -0.1327   0.0065   0.2697   0.4214   0.6376   0.7808   0.8710
     0.8935   0.9891   1.1904   1.2213   1.2414   1.3289   1.3901   1.4047
     1.5200   1.7170   1.8027   1.8665   2.2054   2.2687   2.2827   2.4374
     2.5157   2.5257   2.8330   2.8816   3.0348   3.0362   3.2755   3.3689
     3.3744   3.4330   3.4868   3.5059

          k = 0.0468 0.0458 0.0000 ( 28589 PWs)   bands (ev):

   -77.2218 -77.1939 -76.7310 -76.7058 -76.7032 -76.6781 -62.8830 -62.8440
   -62.8415 -62.8041 -62.8019 -62.7623 -45.2044 -45.1483 -45.1158 -45.0786
   -45.0466 -44.9000 -44.7330 -44.6986 -44.6571 -44.6385 -44.6256 -44.6073
   -44.5424 -44.5117 -44.5012 -44.4716 -44.4306 -44.3976 -36.8062 -36.8025
   -36.7641 -36.7245 -36.7030 -36.6922 -36.6894 -36.6696 -36.6556 -36.6531
   -36.6212 -36.6090 -36.5751 -36.4628 -36.4108 -36.3793 -36.3634 -36.3290
    -4.1808  -3.0068  -2.9799  -2.7555  -2.7001  -2.6586  -2.5882  -2.3723
    -2.3062  -2.1639  -2.1167  -2.0315  -1.9495  -1.9409  -1.5169  -1.2444
    -1.2175  -0.9059  -0.8383  -0.6885  -0.6076  -0.5699  -0.3073  -0.1865
    -0.1079  -0.0779   0.0297   0.2732   0.4163   0.5087   0.6295   0.6569
     0.8126   0.9891   1.0651   1.1635   1.2139   1.2392   1.3082   1.3778
     1.4858   1.5189   1.6317   1.6686   1.9012   2.0104   2.1452   2.3876
     2.4148   2.4451   2.7447   2.8059   2.9067   2.9369   3.1900   3.2184
     3.3786   3.3865   3.4628   3.4673

          k = 0.0468 0.0635 0.0000 ( 28604 PWs)   bands (ev):

   -77.2203 -77.1953 -76.7296 -76.7047 -76.7044 -76.6796 -62.8809 -62.8437
   -62.8419 -62.8041 -62.8020 -62.7643 -45.1885 -45.1465 -45.1173 -45.0761
   -45.0480 -44.9160 -44.7172 -44.6828 -44.6546 -44.6359 -44.6270 -44.6088
   -44.5411 -44.5134 -44.4995 -44.4731 -44.4465 -44.4135 -36.8016 -36.7899
   -36.7664 -36.7223 -36.6925 -36.6911 -36.6866 -36.6576 -36.6531 -36.6524
   -36.6239 -36.6087 -36.5777 -36.4809 -36.4095 -36.3812 -36.3809 -36.3469
    -3.8892  -2.8692  -2.8320  -2.6106  -2.5876  -2.5403  -2.3931  -2.3058
    -2.2100  -2.0553  -2.0067  -1.9543  -1.8004  -1.7596  -1.4683  -1.2811
    -1.1374  -0.9230  -0.9113  -0.7286  -0.6772  -0.5442  -0.4186  -0.3219
    -0.1546  -0.1028   0.1033   0.1475   0.2253   0.2737   0.4416   0.4931
     0.7378   0.8669   0.9486   1.0335   1.1210   1.1368   1.2805   1.2822
     1.4177   1.4734   1.5010   1.6198   1.6705   1.8652   2.0319   2.2499
     2.3900   2.3920   2.5732   2.6827   2.8657   2.8732   3.0550   3.1798
     3.3352   3.3609   3.3931   3.4443

          k = 0.0468-0.1313 0.0000 ( 28592 PWs)   bands (ev):

   -77.2180 -77.1976 -76.7273 -76.7070 -76.7021 -76.6818 -62.8776 -62.8471
   -62.8384 -62.8076 -62.7987 -62.7677 -45.1635 -45.1437 -45.1199 -45.0730
   -45.0508 -44.9416 -44.6924 -44.6581 -44.6515 -44.6328 -44.6298 -44.6115
   -44.5387 -44.5159 -44.4969 -44.4757 -44.4718 -44.4387 -36.7990 -36.7696
   -36.7626 -36.7191 -36.6940 -36.6909 -36.6608 -36.6588 -36.6500 -36.6274
   -36.6257 -36.6067 -36.5804 -36.5092 -36.4095 -36.4069 -36.3835 -36.3750
    -3.5353  -2.7279  -2.6586  -2.6282  -2.4266  -2.4055  -2.2384  -2.1417
    -2.0255  -2.0143  -1.9460  -1.8372  -1.6336  -1.5853  -1.3843  -1.3715
    -1.1065  -1.0020  -0.9258  -0.9091  -0.6797  -0.5113  -0.4859  -0.4321
    -0.2480  -0.2160  -0.1295  -0.0926  -0.0242   0.1712   0.2344   0.3349
     0.5612   0.7251   0.7851   0.8182   0.8433   1.1088   1.2317   1.2897
     1.3053   1.3925   1.5908   1.7809   1.8705   1.8905   2.0008   2.1171
     2.3353   2.4138   2.4838   2.6613   2.8457   2.8529   3.0589   3.0909
     3.2816   3.2947   3.3637   3.4132

          k = 0.0468-0.1136 0.0000 ( 28601 PWs)   bands (ev):

   -77.2150 -77.2006 -76.7243 -76.7100 -76.6991 -76.6848 -62.8731 -62.8516
   -62.8339 -62.8121 -62.7943 -62.7721 -45.1403 -45.1312 -45.1234 -45.0695
   -45.0547 -44.9749 -44.6602 -44.6481 -44.6336 -44.6293 -44.6262 -44.6153
   -44.5355 -44.5191 -44.5049 -44.4937 -44.4789 -44.4716 -36.7949 -36.7730
   -36.7267 -36.7153 -36.6977 -36.6875 -36.6627 -36.6461 -36.6305 -36.6233
   -36.6030 -36.5907 -36.5832 -36.5458 -36.4456 -36.4119 -36.4034 -36.3867
    -3.1636  -2.8902  -2.5509  -2.5049  -2.3205  -2.1838  -2.1555  -2.0868
    -2.0206  -1.9266  -1.8788  -1.6942  -1.4986  -1.4793  -1.3222  -1.2650
    -1.1756  -1.1464  -1.0209  -0.8663  -0.6807  -0.6291  -0.5518  -0.5479
    -0.4726  -0.3396  -0.3091  -0.2401  -0.1990   0.0116   0.0905   0.2231
     0.2735   0.3638   0.4817   0.7504   1.0169   1.1435   1.2342   1.2372
     1.4334   1.5086   1.6990   1.7733   1.9562   2.0403   2.1010   2.2360
     2.3952   2.4518   2.4874   2.7416   2.8040   2.9329   2.9593   3.0974
     3.1608   3.2040   3.2887   3.3357

          k = 0.0468-0.0959 0.0000 ( 28586 PWs)   bands (ev):

   -77.2115 -77.2041 -76.7209 -76.7135 -76.6957 -76.6883 -62.8679 -62.8567
   -62.8286 -62.8173 -62.7891 -62.7773 -45.1364 -45.1277 -45.0934 -45.0658
   -45.0594 -45.0135 -44.6444 -44.6384 -44.6257 -44.6229 -44.6198 -44.5888
   -44.5436 -44.5312 -44.5227 -44.5098 -44.4900 -44.4828 -36.7894 -36.7767
   -36.7112 -36.7030 -36.6834 -36.6825 -36.6657 -36.6411 -36.6330 -36.5983
   -36.5877 -36.5869 -36.5812 -36.5481 -36.4876 -36.4537 -36.3996 -36.3904
    -3.2128  -2.8502  -2.5590  -2.3573  -2.2739  -2.2568  -2.1912  -2.1501
    -1.9409  -1.8720  -1.7952  -1.6745  -1.5435  -1.4682  -1.2742  -1.2410
    -1.1262  -1.0743  -0.9502  -0.8028  -0.7733  -0.7173  -0.7036  -0.6270
    -0.5245  -0.4971  -0.3753  -0.3405  -0.3121  -0.1785  -0.1424   0.1368
     0.1901   0.2210   0.4856   0.8179   1.1939   1.2090   1.2894   1.3238
     1.4805   1.7401   1.7428   1.8578   1.9921   2.0820   2.1645   2.4594
     2.4913   2.5343   2.5585   2.6535   2.7319   2.9204   2.9406   3.0711
     3.1269   3.1646   3.2529   3.3924

          k = 0.0468-0.0782 0.0000 ( 28586 PWs)   bands (ev):

   -77.2079 -77.2078 -76.7172 -76.7171 -76.6920 -76.6920 -62.8623 -62.8622
   -62.8231 -62.8228 -62.7835 -62.7829 -45.1323 -45.1322 -45.0646 -45.0621
   -45.0547 -45.0529 -44.6434 -44.6408 -44.6252 -44.6222 -44.5843 -44.5824
   -44.5507 -44.5488 -44.5269 -44.5265 -44.4869 -44.4861 -36.7833 -36.7806
   -36.7079 -36.7069 -36.6765 -36.6690 -36.6377 -36.6361 -36.6354 -36.6328
   -36.5919 -36.5895 -36.5358 -36.5324 -36.5022 -36.4986 -36.3952 -36.3943
    -3.5748  -2.6860  -2.6553  -2.4226  -2.3684  -2.3538  -2.3092  -2.2778
    -2.0525  -1.9037  -1.6964  -1.6815  -1.5980  -1.4882  -1.3901  -1.2569
    -1.2012  -1.0332  -0.9716  -0.8764  -0.7265  -0.6476  -0.6307  -0.5850
    -0.4947  -0.4826  -0.3203  -0.3029  -0.2723  -0.2541  -0.1885  -0.0400
     0.1351   0.2996   0.8286   0.9723   1.2072   1.3157   1.4266   1.5008
     1.5691   1.7652   1.9265   1.9541   2.0749   2.1668   2.2117   2.3321
     2.4258   2.5395   2.5553   2.7021   2.7551   2.7714   3.0254   3.1253
     3.1620   3.1906   3.4458   3.4475

          k = 0.0468-0.0605 0.0000 ( 28609 PWs)   bands (ev):

   -77.2116 -77.2041 -76.7209 -76.7134 -76.6957 -76.6883 -62.8677 -62.8567
   -62.8285 -62.8172 -62.7884 -62.7779 -45.1369 -45.1281 -45.0957 -45.0696
   -45.0585 -45.0123 -44.6483 -44.6373 -44.6302 -44.6249 -44.6187 -44.5911
   -44.5422 -44.5303 -44.5227 -44.5087 -44.4909 -44.4823 -36.7847 -36.7772
   -36.7129 -36.7026 -36.6787 -36.6726 -36.6703 -36.6386 -36.6297 -36.5924
   -36.5905 -36.5860 -36.5772 -36.5435 -36.4898 -36.4560 -36.3983 -36.3908
    -3.9168  -2.8434  -2.6279  -2.5921  -2.5295  -2.5135  -2.4700  -2.3248
    -2.1818  -2.1400  -1.8604  -1.7104  -1.7085  -1.6178  -1.3363  -1.2821
    -1.1986  -1.1826  -1.0209  -0.8986  -0.6220  -0.6021  -0.5015  -0.4538
    -0.3621  -0.3471  -0.3263  -0.3004  -0.2410  -0.2214   0.0867   0.2224
     0.2852   0.4869   1.1389   1.1721   1.2444   1.4257   1.4760   1.6273
     1.7101   1.8409   1.9367   1.9858   2.0824   2.1100   2.2430   2.3477
     2.4787   2.5034   2.6082   2.6913   2.8010   2.9379   3.0633   3.1995
     3.2135   3.2486   3.4577   3.6209

          k = 0.0468-0.0428 0.0000 ( 28573 PWs)   bands (ev):

   -77.2151 -77.2006 -76.7244 -76.7099 -76.6992 -76.6848 -62.8728 -62.8514
   -62.8337 -62.8119 -62.7937 -62.7727 -45.1411 -45.1336 -45.1241 -45.0741
   -45.0551 -44.9743 -44.6627 -44.6527 -44.6346 -44.6338 -44.6287 -44.6154
   -44.5341 -44.5187 -44.5043 -44.4947 -44.4787 -44.4709 -36.7887 -36.7717
   -36.7207 -36.7175 -36.6985 -36.6763 -36.6646 -36.6416 -36.6253 -36.6185
   -36.5956 -36.5857 -36.5801 -36.5468 -36.4465 -36.4128 -36.4018 -36.3867
    -4.1989  -2.9983  -2.7558  -2.7411  -2.6895  -2.6626  -2.5326  -2.4213
    -2.3813  -2.1964  -2.0278  -2.0036  -1.8994  -1.7020  -1.4198  -1.3161
    -1.2561  -1.0452  -0.9862  -0.8571  -0.5699  -0.5204  -0.4345  -0.3867
    -0.3310  -0.3257  -0.2017  -0.1811  -0.1781   0.0371   0.1543   0.6734
     0.7487   0.8336   1.1770   1.3367   1.3736   1.3965   1.5154   1.6406
     1.8078   1.8179   1.9127   2.0251   2.1206   2.1524   2.2230   2.4268
     2.5065   2.6417   2.7191   2.8120   2.9118   3.0881   3.1131   3.2390
     3.2853   3.3281   3.4040   3.5341

          k = 0.0624-0.0334 0.0000 ( 28554 PWs)   bands (ev):

   -77.2151 -77.2006 -76.7244 -76.7100 -76.6992 -76.6848 -62.8729 -62.8515
   -62.8337 -62.8120 -62.7938 -62.7726 -45.1409 -45.1332 -45.1239 -45.0731
   -45.0550 -44.9744 -44.6622 -44.6517 -44.6337 -44.6335 -44.6282 -44.6152
   -44.5344 -44.5188 -44.5044 -44.4945 -44.4787 -44.4710 -36.7900 -36.7720
   -36.7221 -36.7171 -36.6984 -36.6784 -36.6641 -36.6427 -36.6272 -36.6187
   -36.5971 -36.5874 -36.5801 -36.5465 -36.4463 -36.4126 -36.4020 -36.3867
    -4.0497  -2.9775  -2.7460  -2.7064  -2.6125  -2.5362  -2.4373  -2.3738
    -2.3210  -2.1431  -1.9942  -1.9697  -1.8327  -1.6366  -1.3663  -1.3090
    -1.2037  -1.0703  -0.9824  -0.9469  -0.5977  -0.5413  -0.3917  -0.3867
    -0.2859  -0.2494  -0.1967  -0.1731  -0.1397  -0.0267   0.1354   0.6227
     0.6455   0.7592   1.0683   1.1951   1.2906   1.3728   1.4130   1.6330
     1.6349   1.8180   1.8540   1.8977   1.9453   2.1090   2.1838   2.3770
     2.4782   2.5804   2.6794   2.7545   2.8477   3.0034   3.0070   3.0894
     3.1646   3.2743   3.2851   3.3241

          k = 0.0624-0.0157 0.0000 ( 28544 PWs)   bands (ev):

   -77.2180 -77.1976 -76.7273 -76.7070 -76.7021 -76.6818 -62.8773 -62.8470
   -62.8383 -62.8074 -62.7983 -62.7680 -45.1651 -45.1443 -45.1205 -45.0761
   -45.0516 -44.9415 -44.6940 -44.6598 -44.6547 -44.6363 -44.6304 -44.6121
   -44.5378 -44.5155 -44.4976 -44.4756 -44.4717 -44.4386 -36.7947 -36.7681
   -36.7587 -36.7207 -36.6946 -36.6832 -36.6604 -36.6562 -36.6465 -36.6237
   -36.6220 -36.6013 -36.5776 -36.5091 -36.4096 -36.4057 -36.3833 -36.3750
    -4.1848  -3.0113  -2.8089  -2.7806  -2.7013  -2.6414  -2.5043  -2.4352
    -2.3060  -2.2240  -2.1394  -2.0611  -1.9208  -1.8051  -1.4164  -1.2887
    -1.2673  -0.9654  -0.9181  -0.8115  -0.6104  -0.5392  -0.4201  -0.3283
    -0.2327  -0.2013  -0.1029  -0.0443   0.0065   0.3144   0.3243   0.7791
     0.9530   1.0349   1.0791   1.1395   1.2484   1.3284   1.4241   1.5682
     1.5771   1.7070   1.8062   1.9351   1.9451   2.0469   2.2430   2.3891
     2.4984   2.5414   2.7230   2.8607   2.8946   2.9990   3.0207   3.2737
     3.3412   3.3856   3.4009   3.4567

          k = 0.0624 0.0020 0.0000 ( 28569 PWs)   bands (ev):

   -77.2203 -77.1953 -76.7296 -76.7047 -76.7044 -76.6796 -62.8808 -62.8436
   -62.8418 -62.8040 -62.8018 -62.7645 -45.1894 -45.1469 -45.1176 -45.0780
   -45.0487 -44.9161 -44.7181 -44.6838 -44.6565 -44.6380 -44.6276 -44.6093
   -44.5405 -44.5131 -44.4999 -44.4731 -44.4465 -44.4135 -36.7990 -36.7877
   -36.7652 -36.7232 -36.6915 -36.6880 -36.6848 -36.6571 -36.6512 -36.6502
   -36.6212 -36.6054 -36.5757 -36.4806 -36.4089 -36.3810 -36.3808 -36.3467
    -4.2291  -3.0249  -2.9101  -2.7586  -2.7530  -2.6822  -2.5589  -2.3901
    -2.3609  -2.2481  -2.1108  -2.1008  -1.9564  -1.9215  -1.4745  -1.2679
    -1.2619  -0.9393  -0.8459  -0.6669  -0.6535  -0.4897  -0.4329  -0.3168
    -0.1541  -0.1310  -0.0397   0.1291   0.1934   0.5061   0.5613   0.7578
     0.8782   1.0056   1.1371   1.1484   1.2884   1.3200   1.4164   1.4377
     1.5386   1.6675   1.6959   1.8306   1.9177   2.0653   2.2576   2.4187
     2.4277   2.4979   2.7234   2.8622   2.9448   2.9720   3.1051   3.3267
     3.3537   3.4288   3.4877   3.4942

          k = 0.0624 0.0197 0.0000 ( 28589 PWs)   bands (ev):

   -77.2218 -77.1939 -76.7310 -76.7058 -76.7032 -76.6781 -62.8830 -62.8440
   -62.8415 -62.8041 -62.8019 -62.7623 -45.2044 -45.1483 -45.1158 -45.0786
   -45.0466 -44.9000 -44.7330 -44.6986 -44.6571 -44.6385 -44.6256 -44.6073
   -44.5424 -44.5117 -44.5012 -44.4716 -44.4306 -44.3976 -36.8062 -36.8025
   -36.7641 -36.7245 -36.7030 -36.6922 -36.6894 -36.6696 -36.6556 -36.6531
   -36.6212 -36.6090 -36.5751 -36.4628 -36.4108 -36.3793 -36.3634 -36.3290
    -4.1808  -3.0068  -2.9799  -2.7555  -2.7001  -2.6586  -2.5882  -2.3723
    -2.3062  -2.1639  -2.1167  -2.0315  -1.9495  -1.9409  -1.5169  -1.2444
    -1.2175  -0.9059  -0.8383  -0.6885  -0.6076  -0.5699  -0.3073  -0.1865
    -0.1079  -0.0779   0.0297   0.2732   0.4163   0.5087   0.6295   0.6569
     0.8126   0.9891   1.0651   1.1635   1.2139   1.2392   1.3082   1.3778
     1.4858   1.5189   1.6317   1.6686   1.9012   2.0104   2.1452   2.3876
     2.4148   2.4451   2.7447   2.8059   2.9067   2.9369   3.1900   3.2184
     3.3779   3.3865   3.4628   3.4655

          k = 0.0624 0.0374 0.0000 ( 28646 PWs)   bands (ev):

   -77.2223 -77.1934 -76.7315 -76.7063 -76.7027 -76.6776 -62.8838 -62.8448
   -62.8409 -62.8049 -62.8012 -62.7614 -45.2092 -45.1487 -45.1150 -45.0782
   -45.0456 -44.8945 -44.7378 -44.7033 -44.6567 -44.6379 -44.6246 -44.6063
   -44.5432 -44.5114 -44.5015 -44.4710 -44.4251 -44.3922 -36.8134 -36.8046
   -36.7642 -36.7246 -36.7098 -36.6952 -36.6885 -36.6765 -36.6554 -36.6549
   -36.6221 -36.6114 -36.5758 -36.4569 -36.4117 -36.3788 -36.3576 -36.3231
    -4.0427  -2.9918  -2.9528  -2.7024  -2.6219  -2.6153  -2.5412  -2.2966
    -2.2227  -2.1328  -2.0248  -1.9320  -1.8943  -1.8762  -1.5231  -1.2467
    -1.1667  -0.8663  -0.8576  -0.6709  -0.6570  -0.6403  -0.2301  -0.1090
    -0.0694  -0.0254   0.1261   0.3268   0.3704   0.5273   0.5364   0.6020
     0.8555   0.9349   0.9425   1.0841   1.1170   1.2376   1.2547   1.2797
     1.3578   1.4156   1.4729   1.4915   1.8051   1.8355   1.9916   2.2758
     2.3743   2.4476   2.7420   2.7512   2.8028   2.8824   3.0799   3.1627
     3.2701   3.3281   3.3800   3.3925

          k = 0.0624 0.0551 0.0000 ( 28643 PWs)   bands (ev):

   -77.2218 -77.1939 -76.7310 -76.7058 -76.7032 -76.6781 -62.8831 -62.8441
   -62.8416 -62.8043 -62.8020 -62.7621 -45.2036 -45.1480 -45.1154 -45.0768
   -45.0459 -44.8999 -44.7322 -44.6977 -44.6553 -44.6365 -44.6250 -44.6066
   -44.5429 -44.5120 -44.5008 -44.4716 -44.4305 -44.3975 -36.8084 -36.8050
   -36.7653 -36.7235 -36.7047 -36.6966 -36.6890 -36.6714 -36.6562 -36.6553
   -36.6237 -36.6123 -36.5772 -36.4632 -36.4114 -36.3795 -36.3637 -36.3293
    -3.8222  -2.9425  -2.8642  -2.6017  -2.5675  -2.5133  -2.4107  -2.2260
    -2.1679  -2.0522  -1.9214  -1.8581  -1.7918  -1.7431  -1.4852  -1.2881
    -1.1594  -0.8702  -0.8682  -0.7245  -0.6691  -0.5845  -0.2787  -0.1897
    -0.0973  -0.0870   0.2200   0.2272   0.3099   0.3702   0.4536   0.5852
     0.7090   0.7814   0.9833   1.0029   1.0866   1.0945   1.1530   1.2823
     1.3005   1.3413   1.4014   1.4813   1.5260   1.7125   1.9116   2.1232
     2.3604   2.4211   2.6293   2.6475   2.7554   2.8680   3.0346   3.0468
     3.2036   3.2786   3.2925   3.4202

          k = 0.0624-0.1397 0.0000 ( 28651 PWs)   bands (ev):

   -77.2203 -77.1953 -76.7296 -76.7047 -76.7044 -76.6796 -62.8810 -62.8438
   -62.8419 -62.8042 -62.8021 -62.7642 -45.1878 -45.1462 -45.1171 -45.0747
   -45.0476 -44.9160 -44.7165 -44.6822 -44.6533 -44.6344 -44.6266 -44.6083
[...]
   -36.6237 -36.6123 -36.5772 -36.4632 -36.4114 -36.3795 -36.3637 -36.3293
    -3.8222  -2.9425  -2.8642  -2.6017  -2.5675  -2.5133  -2.4107  -2.2260
    -2.1679  -2.0522  -1.9214  -1.8581  -1.7918  -1.7431  -1.4852  -1.2881
    -1.1594  -0.8702  -0.8682  -0.7245  -0.6691  -0.5845  -0.2787  -0.1897
    -0.0973  -0.0870   0.2200   0.2272   0.3099   0.3702   0.4536   0.5852
     0.7090   0.7814   0.9833   1.0029   1.0866   1.0945   1.1530   1.2823
     1.3005   1.3413   1.4014   1.4813   1.5260   1.7125   1.9116   2.1232
     2.3604   2.4211   2.6293   2.6475   2.7554   2.8680   3.0346   3.0468
     3.2036   3.2786   3.2925   3.4201

          k = 0.0780 0.0467 0.0000 ( 28644 PWs)   bands (ev):

   -77.2222 -77.1934 -76.7315 -76.7063 -76.7027 -76.6776 -62.8839 -62.8449
   -62.8409 -62.8051 -62.8013 -62.7614 -45.2085 -45.1484 -45.1147 -45.0767
   -45.0449 -44.8944 -44.7371 -44.7026 -44.6552 -44.6363 -44.6241 -44.6057
   -44.5437 -44.5116 -44.5012 -44.4710 -44.4250 -44.3921 -36.8151 -36.8067
   -36.7652 -36.7237 -36.7112 -36.6991 -36.6881 -36.6780 -36.6567 -36.6559
   -36.6242 -36.6142 -36.5774 -36.4573 -36.4122 -36.3790 -36.3578 -36.3234
    -3.6924  -3.0014  -2.8353  -2.5794  -2.5660  -2.4295  -2.3700  -2.1435
    -2.1021  -2.0910  -1.8045  -1.7395  -1.7187  -1.7132  -1.4640  -1.3364
    -1.2047  -0.9003  -0.8119  -0.7522  -0.6145  -0.5314  -0.2925  -0.1938
    -0.1167   0.1184   0.1208   0.2283   0.3245   0.3797   0.4346   0.6803
     0.7583   0.8449   0.8726   0.8904   0.9539   1.0501   1.1322   1.2061
     1.2463   1.2852   1.3097   1.3323   1.4608   1.5467   1.8085   1.9814
     2.3466   2.4191   2.5988   2.6163   2.6781   2.8660   2.9484   2.9721
     3.0832   3.1236   3.2563   3.2872

          k = 0.0780-0.1480 0.0000 ( 28633 PWs)   bands (ev):

   -77.2217 -77.1939 -76.7310 -76.7058 -76.7032 -76.6781 -62.8832 -62.8442
   -62.8417 -62.8044 -62.8020 -62.7621 -45.2031 -45.1478 -45.1152 -45.0758
   -45.0454 -44.8999 -44.7317 -44.6972 -44.6543 -44.6353 -44.6246 -44.6062
   -44.5432 -44.5122 -44.5006 -44.4716 -44.4305 -44.3975 -36.8096 -36.8065
   -36.7660 -36.7228 -36.7056 -36.6994 -36.6887 -36.6724 -36.6565 -36.6563
   -36.6251 -36.6141 -36.5783 -36.4634 -36.4117 -36.3795 -36.3639 -36.3295
    -3.5144  -3.0008  -2.7791  -2.5292  -2.5138  -2.3433  -2.2816  -2.2053
    -2.0331  -2.0127  -1.7549  -1.7199  -1.6372  -1.6000  -1.4186  -1.4130
    -1.2438  -0.9578  -0.7913  -0.7056  -0.5927  -0.4495  -0.4041  -0.2480
    -0.1902  -0.0364   0.0327   0.0866   0.3790   0.3807   0.4675   0.5976
     0.5998   0.6389   0.7868   0.9190   0.9248   1.0149   1.1458   1.2068
     1.2596   1.2794   1.3014   1.3347   1.4262   1.6064   1.7614   1.8937
     2.3487   2.3928   2.5236   2.6217   2.6466   2.8650   2.9464   2.9492
     3.0567   3.1021   3.2403   3.2760

          k = 0.0780-0.1303 0.0000 ( 28630 PWs)   bands (ev):

   -77.2203 -77.1953 -76.7296 -76.7047 -76.7044 -76.6796 -62.8811 -62.8438
   -62.8420 -62.8042 -62.8022 -62.7642 -45.1876 -45.1461 -45.1170 -45.0742
   -45.0474 -44.9160 -44.7163 -44.6819 -44.6528 -44.6338 -44.6265 -44.6082
   -44.5416 -44.5137 -44.4991 -44.4731 -44.4465 -44.4134 -36.8042 -36.7921
   -36.7675 -36.7211 -36.6974 -36.6908 -36.6882 -36.6580 -36.6549 -36.6544
   -36.6264 -36.6121 -36.5796 -36.4812 -36.4101 -36.3815 -36.3811 -36.3472
    -3.3276  -2.9295  -2.6985  -2.4533  -2.4322  -2.3734  -2.2286  -2.1514
    -1.9834  -1.8846  -1.8217  -1.7167  -1.6357  -1.4983  -1.4903  -1.3510
    -1.2421  -0.9835  -0.8335  -0.6621  -0.5842  -0.5841  -0.3448  -0.3331
    -0.3063  -0.2399  -0.1086  -0.0795   0.1795   0.2144   0.3462   0.3663
     0.5749   0.7187   0.7776   0.8199   0.9214   0.9655   1.0073   1.2151
     1.2438   1.2823   1.3676   1.5905   1.6923   1.7578   1.8406   1.8982
     2.3392   2.3717   2.5364   2.5991   2.7349   2.8719   2.9762   3.0462
     3.1095   3.1517   3.2460   3.2910

          k = 0.0780-0.1126 0.0000 ( 28623 PWs)   bands (ev):

   -77.2180 -77.1976 -76.7273 -76.7070 -76.7021 -76.6818 -62.8776 -62.8472
   -62.8385 -62.8076 -62.7988 -62.7676 -45.1631 -45.1436 -45.1198 -45.0721
   -45.0506 -44.9416 -44.6920 -44.6577 -44.6507 -44.6318 -44.6296 -44.6113
   -44.5389 -44.5160 -44.4968 -44.4757 -44.4719 -44.4388 -36.8002 -36.7700
   -36.7637 -36.7186 -36.6938 -36.6932 -36.6610 -36.6594 -36.6508 -36.6284
   -36.6267 -36.6082 -36.5813 -36.5093 -36.4095 -36.4072 -36.3835 -36.3751
    -3.2080  -2.7560  -2.6173  -2.5866  -2.3661  -2.3408  -2.1389  -2.0151
    -1.9812  -1.9496  -1.8082  -1.7075  -1.6296  -1.5079  -1.4416  -1.3055
    -1.2041  -0.9906  -0.9492  -0.8113  -0.6371  -0.5879  -0.4397  -0.3884
    -0.3830  -0.3322  -0.2072  -0.1959  -0.0691   0.0504   0.1805   0.2715
     0.4640   0.5993   0.7122   0.7262   0.9157   0.9635   1.0791   1.2274
     1.3557   1.3563   1.5140   1.7734   1.8208   1.9630   1.9759   2.0468
     2.3225   2.4145   2.4789   2.7191   2.8593   2.8685   2.9891   3.1280
     3.2298   3.2663   3.2951   3.3237

          k = 0.0780-0.0949 0.0000 ( 28601 PWs)   bands (ev):

   -77.2150 -77.2006 -76.7243 -76.7100 -76.6991 -76.6848 -62.8731 -62.8516
   -62.8339 -62.8121 -62.7943 -62.7721 -45.1403 -45.1312 -45.1234 -45.0695
   -45.0547 -44.9749 -44.6602 -44.6481 -44.6336 -44.6293 -44.6262 -44.6153
   -44.5355 -44.5191 -44.5049 -44.4937 -44.4789 -44.4716 -36.7949 -36.7730
   -36.7267 -36.7153 -36.6977 -36.6875 -36.6627 -36.6461 -36.6305 -36.6233
   -36.6030 -36.5907 -36.5832 -36.5458 -36.4456 -36.4119 -36.4034 -36.3867
    -3.1636  -2.8902  -2.5509  -2.5049  -2.3205  -2.1838  -2.1555  -2.0868
    -2.0206  -1.9266  -1.8788  -1.6942  -1.4986  -1.4793  -1.3222  -1.2650
    -1.1756  -1.1464  -1.0209  -0.8663  -0.6807  -0.6291  -0.5518  -0.5479
    -0.4726  -0.3396  -0.3091  -0.2401  -0.1990   0.0116   0.0905   0.2231
     0.2735   0.3638   0.4817   0.7504   1.0169   1.1435   1.2342   1.2372
     1.4334   1.5086   1.6990   1.7733   1.9562   2.0403   2.1010   2.2360
     2.3952   2.4518   2.4874   2.7416   2.8040   2.9329   2.9593   3.0974
     3.1608   3.2040   3.2887   3.3362

          k = 0.0780-0.0772 0.0000 ( 28592 PWs)   bands (ev):

   -77.2115 -77.2041 -76.7209 -76.7134 -76.6957 -76.6883 -62.8679 -62.8567
   -62.8286 -62.8173 -62.7890 -62.7774 -45.1364 -45.1278 -45.0937 -45.0663
   -45.0593 -45.0133 -44.6450 -44.6383 -44.6264 -44.6231 -44.6197 -44.5890
   -44.5434 -44.5310 -44.5227 -44.5096 -44.4901 -44.4827 -36.7888 -36.7768
   -36.7115 -36.7031 -36.6830 -36.6810 -36.6660 -36.6409 -36.6327 -36.5975
   -36.5880 -36.5867 -36.5806 -36.5473 -36.4878 -36.4540 -36.3994 -36.3905
    -3.1849  -3.1412  -2.4705  -2.4552  -2.3085  -2.2735  -2.1731  -2.1652
    -1.9576  -1.8781  -1.8486  -1.6861  -1.6034  -1.4691  -1.2746  -1.2331
    -1.1730  -1.1126  -0.9739  -0.8204  -0.7112  -0.6760  -0.6394  -0.5831
    -0.5386  -0.3603  -0.3245  -0.2612  -0.2598  -0.1290  -0.0934   0.0512
     0.2052   0.2557   0.5715   0.8731   1.1420   1.2413   1.3301   1.3597
     1.4790   1.6416   1.7597   1.8984   1.9791   2.0883   2.2003   2.4191
     2.4589   2.4660   2.5253   2.6286   2.7160   2.7496   2.9148   2.9875
     3.0509   3.0846   3.1421   3.2594

          k = 0.0780-0.0595 0.0000 ( 28592 PWs)   bands (ev):

   -77.2079 -77.2078 -76.7172 -76.7172 -76.6920 -76.6920 -62.8623 -62.8622
   -62.8231 -62.8228 -62.7834 -62.7830 -45.1323 -45.1322 -45.0641 -45.0629
   -45.0541 -45.0532 -44.6428 -44.6415 -44.6245 -44.6230 -44.5838 -44.5829
   -44.5502 -44.5492 -44.5268 -44.5266 -44.4867 -44.4863 -36.7827 -36.7813
   -36.7077 -36.7072 -36.6747 -36.6709 -36.6371 -36.6365 -36.6349 -36.6335
   -36.5913 -36.5900 -36.5349 -36.5332 -36.5012 -36.4995 -36.3950 -36.3945
    -3.4510  -3.1056  -2.5164  -2.4875  -2.3762  -2.3423  -2.2374  -2.2224
    -1.9934  -1.9032  -1.7181  -1.6982  -1.6017  -1.5681  -1.3797  -1.2872
    -1.0971  -1.0435  -0.9170  -0.8941  -0.7083  -0.6823  -0.5933  -0.5019
    -0.4659  -0.3547  -0.3443  -0.2681  -0.2075  -0.2035  -0.0980  -0.0155
     0.0809   0.2491   0.8501   0.9734   1.2312   1.2788   1.4310   1.4643
     1.4927   1.6736   1.7467   1.9740   2.0702   2.1287   2.3437   2.3532
     2.4134   2.4723   2.5101   2.5896   2.6468   2.7139   2.7507   2.9247
     3.0193   3.0838   3.1434   3.2092

          k =-0.0937 0.0501 0.0000 ( 28612 PWs)   bands (ev):

   -77.2078 -77.2078 -76.7172 -76.7172 -76.6920 -76.6920 -62.8623 -62.8622
   -62.8231 -62.8228 -62.7832 -62.7831 -45.1323 -45.1323 -45.0636 -45.0636
   -45.0536 -45.0536 -44.6421 -44.6421 -44.6238 -44.6238 -44.5833 -44.5833
   -44.5497 -44.5497 -44.5267 -44.5267 -44.4865 -44.4865 -36.7820 -36.7820
   -36.7076 -36.7075 -36.6730 -36.6726 -36.6369 -36.6367 -36.6344 -36.6341
   -36.5908 -36.5906 -36.5340 -36.5340 -36.5004 -36.5002 -36.3949 -36.3946
    -3.3017  -3.3017  -2.5115  -2.5115  -2.3610  -2.3610  -2.2142  -2.2142
    -1.9350  -1.9350  -1.7183  -1.7183  -1.5862  -1.5862  -1.3467  -1.3467
    -1.0533  -1.0533  -0.8959  -0.8959  -0.7124  -0.7124  -0.5224  -0.5224
    -0.3876  -0.3876  -0.2882  -0.2882  -0.1866  -0.1866  -0.0609  -0.0609
     0.1660   0.1660   0.9218   0.9219   1.2487   1.2488   1.4273   1.4273
     1.5318   1.5318   1.8575   1.8576   2.1067   2.1068   2.3962   2.3963
     2.4164   2.4164   2.5053   2.5054   2.5935   2.5936   2.8067   2.8068
     3.0145   3.0147   3.1850   3.1850

          k =-0.0937 0.0678 0.0000 ( 28593 PWs)   bands (ev):

   -77.2116 -77.2041 -76.7209 -76.7134 -76.6957 -76.6883 -62.8678 -62.8567
   -62.8286 -62.8173 -62.7889 -62.7775 -45.1365 -45.1279 -45.0943 -45.0672
   -45.0590 -45.0130 -44.6459 -44.6381 -44.6274 -44.6235 -44.6195 -44.5895
   -44.5431 -44.5308 -44.5227 -44.5093 -44.4903 -44.4826 -36.7877 -36.7769
   -36.7120 -36.7030 -36.6822 -36.6786 -36.6667 -36.6405 -36.6321 -36.5961
   -36.5887 -36.5865 -36.5796 -36.5461 -36.4883 -36.4545 -36.3991 -36.3905
    -3.4274  -3.1274  -2.5525  -2.5023  -2.3760  -2.3047  -2.2115  -2.1967
    -2.0243  -1.9395  -1.8400  -1.7451  -1.6056  -1.4685  -1.3320  -1.3025
    -1.1469  -1.0465  -1.0193  -0.8980  -0.6710  -0.6639  -0.5524  -0.5126
    -0.4763  -0.3074  -0.2414  -0.1949  -0.1939  -0.0653  -0.0182   0.0321
     0.1695   0.3044   0.7672   0.9544   1.1352   1.3061   1.3809   1.4198
     1.4782   1.5465   1.8234   1.8876   1.9581   2.1950   2.2392   2.2685
     2.3932   2.4502   2.5148   2.5959   2.6455   2.7663   2.8554   2.9111
     2.9794   3.0724   3.1733   3.2392

          k =-0.0937 0.0855 0.0000 ( 28602 PWs)   bands (ev):

   -77.2150 -77.2006 -76.7244 -76.7100 -76.6992 -76.6848 -62.8731 -62.8515
   -62.8339 -62.8121 -62.7941 -62.7723 -45.1405 -45.1317 -45.1235 -45.0705
   -45.0547 -44.9747 -44.6608 -44.6491 -44.6336 -44.6305 -44.6268 -44.6152
   -44.5352 -44.5190 -44.5047 -44.4939 -44.4789 -44.4714 -36.7936 -36.7727
   -36.7256 -36.7159 -36.6979 -36.6849 -36.6630 -36.6454 -36.6302 -36.6215
   -36.6014 -36.5902 -36.5819 -36.5460 -36.4458 -36.4121 -36.4030 -36.3867
    -3.5034  -2.9163  -2.6078  -2.5361  -2.3771  -2.2683  -2.2472  -2.1520
    -2.1415  -1.9502  -1.9457  -1.8090  -1.5961  -1.4775  -1.3495  -1.3126
    -1.1435  -1.0853  -1.0505  -0.9266  -0.6312  -0.6008  -0.5045  -0.4985
    -0.3681  -0.2385  -0.2134  -0.1906  -0.1616   0.0540   0.0903   0.2973
     0.4494   0.4740   0.5993   0.8843   0.9847   1.2535   1.3201   1.3643
     1.4412   1.4452   1.7670   1.8375   1.9016   2.0595   2.1372   2.1905
     2.3522   2.4477   2.4866   2.6342   2.7981   2.9005   2.9861   2.9972
     3.1519   3.2054   3.2996   3.3020

          k =-0.0937 0.1033 0.0000 ( 28592 PWs)   bands (ev):

   -77.2180 -77.1976 -76.7273 -76.7070 -76.7021 -76.6818 -62.8776 -62.8471
   -62.8384 -62.8076 -62.7987 -62.7677 -45.1635 -45.1437 -45.1199 -45.0730
   -45.0508 -44.9416 -44.6924 -44.6581 -44.6515 -44.6328 -44.6298 -44.6115
   -44.5387 -44.5159 -44.4969 -44.4757 -44.4718 -44.4387 -36.7990 -36.7696
   -36.7626 -36.7191 -36.6940 -36.6909 -36.6608 -36.6588 -36.6500 -36.6274
   -36.6257 -36.6067 -36.5804 -36.5092 -36.4095 -36.4069 -36.3835 -36.3750
    -3.5353  -2.7279  -2.6586  -2.6282  -2.4266  -2.4055  -2.2384  -2.1417
    -2.0255  -2.0143  -1.9460  -1.8372  -1.6336  -1.5853  -1.3843  -1.3715
    -1.1065  -1.0020  -0.9258  -0.9091  -0.6797  -0.5113  -0.4859  -0.4321
    -0.2480  -0.2160  -0.1295  -0.0926  -0.0242   0.1712   0.2344   0.3349
     0.5612   0.7251   0.7851   0.8182   0.8433   1.1088   1.2317   1.2897
     1.3053   1.3925   1.5908   1.7809   1.8705   1.8905   2.0008   2.1171
     2.3353   2.4138   2.4838   2.6613   2.8457   2.8529   3.0589   3.0909
     3.2816   3.2947   3.3637   3.4133

          k =-0.0937 0.1210 0.0000 ( 28651 PWs)   bands (ev):

   -77.2203 -77.1953 -76.7296 -76.7047 -76.7044 -76.6796 -62.8810 -62.8438
   -62.8419 -62.8042 -62.8021 -62.7642 -45.1878 -45.1462 -45.1171 -45.0747
   -45.0476 -44.9160 -44.7165 -44.6822 -44.6533 -44.6344 -44.6266 -44.6083
   -44.5415 -44.5136 -44.4992 -44.4731 -44.4465 -44.4135 -36.8035 -36.7915
   -36.7672 -36.7215 -36.6960 -36.6909 -36.6878 -36.6579 -36.6544 -36.6539
   -36.6257 -36.6112 -36.5791 -36.4811 -36.4100 -36.3814 -36.3811 -36.3471
    -3.5338  -2.8503  -2.7453  -2.4793  -2.4746  -2.4559  -2.2467  -2.2227
    -1.9900  -1.9716  -1.8835  -1.8012  -1.7052  -1.5841  -1.4045  -1.3832
    -1.1729  -0.9317  -0.8708  -0.7826  -0.6458  -0.4529  -0.4290  -0.3590
    -0.2405  -0.1860   0.0204   0.0407   0.2178   0.2537   0.2868   0.4040
     0.6554   0.7165   0.8040   0.9138   0.9325   1.0733   1.0897   1.1857
     1.2606   1.3304   1.4097   1.6074   1.6485   1.8332   1.8346   2.0080
     2.3558   2.3723   2.5414   2.6105   2.7604   2.8648   3.0296   3.0396
     3.2006   3.2767   3.2943   3.3739

          k =-0.0937 0.1387 0.0000 ( 28633 PWs)   bands (ev):

   -77.2217 -77.1939 -76.7310 -76.7058 -76.7032 -76.6781 -62.8832 -62.8442
   -62.8417 -62.8044 -62.8020 -62.7621 -45.2031 -45.1478 -45.1152 -45.0758
   -45.0454 -44.8999 -44.7317 -44.6972 -44.6543 -44.6353 -44.6246 -44.6062
   -44.5432 -44.5122 -44.5006 -44.4716 -44.4305 -44.3975 -36.8096 -36.8065
   -36.7660 -36.7228 -36.7056 -36.6994 -36.6887 -36.6724 -36.6565 -36.6563
   -36.6251 -36.6141 -36.5783 -36.4634 -36.4117 -36.3795 -36.3639 -36.3295
    -3.5144  -3.0008  -2.7791  -2.5292  -2.5138  -2.3433  -2.2816  -2.2053
    -2.0331  -2.0127  -1.7549  -1.7199  -1.6372  -1.6000  -1.4186  -1.4130
    -1.2438  -0.9578  -0.7913  -0.7056  -0.5927  -0.4495  -0.4041  -0.2480
    -0.1902  -0.0364   0.0327   0.0866   0.3790   0.3807   0.4675   0.5976
     0.5998   0.6389   0.7868   0.9190   0.9248   1.0149   1.1458   1.2068
     1.2596   1.2794   1.3014   1.3347   1.4262   1.6064   1.7614   1.8937
     2.3487   2.3928   2.5236   2.6217   2.6466   2.8650   2.9464   2.9492
     3.0567   3.1021   3.2403   3.2760

          k =-0.0937-0.0561 0.0000 ( 28668 PWs)   bands (ev):

   -77.2222 -77.1934 -76.7315 -76.7063 -76.7027 -76.6776 -62.8840 -62.8449
   -62.8410 -62.8051 -62.8013 -62.7613 -45.2082 -45.1483 -45.1146 -45.0761
   -45.0447 -44.8944 -44.7368 -44.7023 -44.6547 -44.6356 -44.6239 -44.6055
   -44.5438 -44.5117 -44.5011 -44.4710 -44.4250 -44.3921 -36.8157 -36.8075
   -36.7655 -36.7233 -36.7117 -36.7007 -36.6880 -36.6785 -36.6573 -36.6561
   -36.6249 -36.6152 -36.5781 -36.4575 -36.4124 -36.3790 -36.3579 -36.3235
    -3.5019  -3.0588  -2.7915  -2.5472  -2.5300  -2.3282  -2.3022  -2.1138
    -2.1100  -2.0257  -1.6919  -1.6620  -1.6311  -1.5774  -1.4543  -1.4161
    -1.2784  -0.9743  -0.7927  -0.5929  -0.5869  -0.5428  -0.3239  -0.2164
    -0.1802  -0.0207   0.0986   0.1798   0.3934   0.4195   0.4493   0.5760
     0.7269   0.7781   0.8197   0.8536   0.9201   0.9633   1.0920   1.1954
     1.2101   1.2661   1.2713   1.3198   1.3199   1.4612   1.7273   1.8402
     2.3409   2.3821   2.5452   2.5583   2.6641   2.8646   2.8918   2.9010
     3.0095   3.0469   3.2310   3.2548

     the Fermi energy is     1.7265 ev

!    total energy              =   -2242.47801332 Ry
     estimated scf accuracy    <       0.00000617 Ry
     smearing contrib. (-TS)   =      -0.08212760 Ry
     internal energy E=F+TS    =   -2242.39588572 Ry

     The total energy is F=E-TS. E is the sum of the following terms:
     one-electron contribution =  -19947.55936666 Ry
     hartree contribution      =    9969.20639520 Ry
     xc contribution           =    -310.93177130 Ry
     ewald contribution        =    8046.88885697 Ry
     electric field correction =       0.00000008 Ry

     convergence has been achieved in  20 iterations

     negative rho (up, down):  1.517E-03 0.000E+00

     Forces acting on atoms (cartesian axes, Ry/au):

     atom    1 type  1   force =     0.00554307    0.00332269    0.01741176
     atom    2 type  1   force =     0.00557727    0.00334054    0.01744564
     atom    3 type  2   force =    -0.00792480   -0.00477285    0.00637318
     atom    4 type  2   force =    -0.00795256   -0.00473422    0.00637374
     atom    5 type  1   force =     0.00194300    0.00116480   -0.00901741
     atom    6 type  1   force =     0.00195170    0.00117013   -0.00899997
     atom    7 type  2   force =     0.00120496    0.00070865   -0.01552744
     atom    8 type  2   force =     0.00119352    0.00072806   -0.01552622
     atom    9 type  1   force =     0.00032254    0.00018750   -0.00051630
     atom   10 type  1   force =     0.00027314    0.00016584   -0.00054208
     atom   11 type  2   force =    -0.00108218   -0.00061882    0.00126327
     atom   12 type  2   force =    -0.00104967   -0.00066231    0.00126184

     Total force =     0.040122     Total SCF correction =     0.013147
     SCF correction compared to forces is large: reduce conv_thr to get better values

     Writing output data file ./V2Rh2/V2Rh2_beef.save/

     init_run     :     64.66s CPU     65.13s WALL (       1 calls)
     electrons    :   3945.14s CPU   3964.84s WALL (       1 calls)
     forces       :     44.64s CPU     44.86s WALL (       1 calls)

     Called by init_run:
     wfcinit      :     54.46s CPU     54.77s WALL (       1 calls)
     potinit      :      7.28s CPU      7.34s WALL (       1 calls)
     hinit0       :      1.73s CPU      1.73s WALL (       1 calls)

     Called by electrons:
     c_bands      :   3577.69s CPU   3589.69s WALL (      20 calls)
     sum_band     :    326.66s CPU    330.82s WALL (      20 calls)
     v_of_rho     :     30.67s CPU     31.67s WALL (      21 calls)
     newd         :     15.15s CPU     16.85s WALL (      21 calls)
     mix_rho      :      1.28s CPU      1.30s WALL (      20 calls)
     vdW_kernel   :      5.71s CPU      5.71s WALL (       1 calls)

     Called by c_bands:
     init_us_2    :     10.65s CPU     10.74s WALL (    3108 calls)
     cegterg      :   3548.03s CPU   3557.95s WALL (    1480 calls)

     Called by *egterg:
     cdiaghg      :    258.66s CPU    258.72s WALL (    7492 calls)
     h_psi        :   1829.72s CPU   1838.36s WALL (    7566 calls)
     s_psi        :    427.94s CPU    428.02s WALL (    7566 calls)
     g_psi        :      1.39s CPU      1.40s WALL (    6012 calls)

     Called by h_psi:
     h_psi:calbec :    476.16s CPU    477.03s WALL (    7566 calls)
     vloc_psi     :    877.16s CPU    884.78s WALL (    7566 calls)
     add_vuspsi   :    470.41s CPU    470.53s WALL (    7566 calls)

     General routines
     calbec       :    709.12s CPU    710.47s WALL (    9342 calls)
     fft          :     20.15s CPU     20.49s WALL (    1382 calls)
     ffts         :      0.40s CPU      0.40s WALL (      41 calls)
     fftw         :    946.30s CPU    955.22s WALL (  912832 calls)
     interpolate  :      0.50s CPU      0.51s WALL (      21 calls)

     Parallel routines
     fft_scatt_xy :     40.02s CPU     40.49s WALL (  914255 calls)
     fft_scatt_yz :    531.97s CPU    534.04s WALL (  914255 calls)

     PWSCF        :      1h25m CPU      1h36m WALL


   This run was terminated on:  20:31:55  25Jun2022            

=------------------------------------------------------------------------------=
   JOB DONE.
=------------------------------------------------------------------------------=
