
     Program PWSCF v.6.6 starts on 10Jul2022 at  2:29:21 

     This program is part of the open-source Quantum ESPRESSO suite
     for quantum simulation of materials; please cite
         "P. Giannozzi et al., J. Phys.:Condens. Matter 21 395502 (2009);
         "P. Giannozzi et al., J. Phys.:Condens. Matter 29 465901 (2017);
          URL http://www.quantum-espresso.org", 
     in publications or presentations arising from this work. More details at
     http://www.quantum-espresso.org/quote

     Parallel version (MPI), running on    37 processors

     MPI processes distributed on     1 nodes
     R & G space division:  proc/nbgrp/npool/nimage =      37
     Fft bands division:     nmany     =       1
     Reading input from V2Zn2.in
Warning: card &CELL ignored
Warning: card / ignored

     Current dimensions of program PWSCF are:
     Max number of different atomic species (ntypx) = 10
     Max number of k-points (npk) =  40000
     Max angular momentum in pseudopotentials (lmaxx) =  3
     Presently stress not available with electric field and gates

     Message from routine cell_base_init:
     DEPRECATED: use true lattice parameter, not A to a.u. conversion factor
     file V.pbe-spnl-rrkjus_psl.1.0.0.UPF: wavefunction(s)  3P 3D renormalized
     file Zn.pbe-dnl-rrkjus_psl.1.0.0.UPF: wavefunction(s)  3D renormalized

     **************************************************************************
     Initializing libbeef V0.1.2 with the BEEF-vdW functional.
     Citation: Wellendorff et al., PRB 85, 235149 (2012).
     **************************************************************************


     IMPORTANT: XC functional enforced from input :
     Exchange-correlation= BEEF-VDW
                           (   1   4  43  14   2   0   0)
     Any further DFT definition will be discarded
     Please, verify this is what you really want


     Subspace diagonalization in iterative solution of the eigenvalue problem:
     a serial algorithm will be used

     Found symmetry operation: I + (  0.5000  0.0000  0.0000)
     This is a supercell, fractional translations are disabled

     Parallelization info
     --------------------
     sticks:   dense  smooth     PW     G-vecs:    dense   smooth      PW
     Min         105      42     12                24365     6166     969
     Max         106      43     13                24400     6181     985
     Sum        3921    1577    471               902493   228317   36103



     bravais-lattice index     =            0
     lattice parameter (alat)  =       1.8897  a.u.
     unit-cell volume          =    4129.7716 (a.u.)^3
     number of atoms/cell      =           12
     number of atomic types    =            2
     number of electrons       =       150.00
     number of Kohn-Sham states=           90
     kinetic-energy cutoff     =      55.1240  Ry
     charge density cutoff     =     551.2396  Ry
     convergence threshold     =      1.0E-05
     mixing beta               =       0.1000
     number of iterations used =           10  plain     mixing
     Exchange-correlation= BEEF-VDW
                           (   1   4  43  14   2   0   0)

     celldm(1)=   1.889726  celldm(2)=   0.000000  celldm(3)=   0.000000
     celldm(4)=   0.000000  celldm(5)=   0.000000  celldm(6)=   0.000000

     crystal axes: (cart. coord. in units of alat)
               a(1) = (   5.152491   0.000000   0.000000 )  
               a(2) = (  -2.576245   4.872969   0.000000 )  
               a(3) = (   0.000000   0.000000  24.373541 )  

     reciprocal axes: (cart. coord. in units 2 pi/alat)
               b(1) = (  0.194081  0.102607 -0.000000 )  
               b(2) = (  0.000000  0.205214  0.000000 )  
               b(3) = (  0.000000 -0.000000  0.041028 )  


     PseudoPot. # 1 for V  read from file:
     ../pseudo/V.pbe-spnl-rrkjus_psl.1.0.0.UPF
     MD5 check sum: 79b3eb63147daf0b665d9f1bcc691206
     Pseudo is Ultrasoft + core correction, Zval = 13.0
     Generated using "atomic" code by A. Dal Corso v.6.2.2
     Using radial grid of 1181 points,  6 beta functions with: 
                l(1) =   0
                l(2) =   0
                l(3) =   1
                l(4) =   1
                l(5) =   2
                l(6) =   2
     Q(r) pseudized with 0 coefficients 


     PseudoPot. # 2 for Zn read from file:
     ../pseudo/Zn.pbe-dnl-rrkjus_psl.1.0.0.UPF
     MD5 check sum: 7f56cabf9682ed8c977c2f7d0c5985c5
     Pseudo is Ultrasoft + core correction, Zval = 12.0
     Generated using "atomic" code by A. Dal Corso v.6.2.2
     Using radial grid of 1201 points,  6 beta functions with: 
                l(1) =   0
                l(2) =   0
                l(3) =   1
                l(4) =   1
                l(5) =   2
                l(6) =   2
     Q(r) pseudized with 0 coefficients 


     atomic species   valence    mass     pseudopotential
        V             13.00    50.94150     V ( 1.00)
        Zn            12.00    65.38000     Zn( 1.00)

     No symmetry found



   Cartesian axes

     site n.     atom                  positions (alat units)
         1           V   tau(   1) = (   0.0000000   0.0000000  10.0000000  )
         2           V   tau(   2) = (   2.5762453   0.0000000  10.0000000  )
         3           Zn  tau(   3) = (   1.2881226   2.4364845  10.0000000  )
         4           Zn  tau(   4) = (  -1.2881226   2.4364845  10.0000000  )
         5           V   tau(   5) = (   2.5762453   1.3620115  12.1867703  )
         6           V   tau(   6) = (   0.0000000   1.3620115  12.1867703  )
         7           Zn  tau(   7) = (  -1.2881226   3.7984960  12.1867703  )
         8           Zn  tau(   8) = (   1.2881226   3.7984960  12.1867703  )
         9           V   tau(   9) = (   0.0000836   2.6446538  14.2649348  )
        10           V   tau(  10) = (   2.5763273   2.6446607  14.2649391  )
        11           Zn  tau(  11) = (   3.8646056   0.2531038  14.5331577  )
        12           Zn  tau(  12) = (   1.2883423   0.2531051  14.5331625  )

     number of k points=    74  Fermi-Dirac smearing, width (Ry)=  0.0100
                       cart. coord. in units 2pi/alat
        k(    1) = (   0.0000000   0.0000000   0.0000000), wk =   0.0138889
        k(    2) = (   0.0000000   0.0171011   0.0000000), wk =   0.0277778
        k(    3) = (   0.0000000   0.0342023   0.0000000), wk =   0.0277778
        k(    4) = (   0.0000000   0.0513034   0.0000000), wk =   0.0277778
        k(    5) = (   0.0000000   0.0684046   0.0000000), wk =   0.0277778
        k(    6) = (   0.0000000   0.0855057   0.0000000), wk =   0.0277778
        k(    7) = (   0.0000000  -0.1026069   0.0000000), wk =   0.0138889
        k(    8) = (   0.0161734   0.0085506   0.0000000), wk =   0.0277778
        k(    9) = (   0.0161734   0.0256517   0.0000000), wk =   0.0277778
        k(   10) = (   0.0161734   0.0427529   0.0000000), wk =   0.0277778
        k(   11) = (   0.0161734   0.0598540   0.0000000), wk =   0.0277778
        k(   12) = (   0.0161734   0.0769551   0.0000000), wk =   0.0277778
        k(   13) = (   0.0161734   0.0940563   0.0000000), wk =   0.0277778
        k(   14) = (   0.0161734  -0.0940563   0.0000000), wk =   0.0277778
        k(   15) = (   0.0161734  -0.0769551   0.0000000), wk =   0.0277778
        k(   16) = (   0.0161734  -0.0598540   0.0000000), wk =   0.0277778
        k(   17) = (   0.0161734  -0.0427529   0.0000000), wk =   0.0277778
        k(   18) = (   0.0161734  -0.0256517   0.0000000), wk =   0.0277778
        k(   19) = (   0.0161734  -0.0085506   0.0000000), wk =   0.0277778
        k(   20) = (   0.0323468   0.0171011   0.0000000), wk =   0.0277778
        k(   21) = (   0.0323468   0.0342023   0.0000000), wk =   0.0277778
        k(   22) = (   0.0323468   0.0513034   0.0000000), wk =   0.0277778
        k(   23) = (   0.0323468   0.0684046   0.0000000), wk =   0.0277778
        k(   24) = (   0.0323468   0.0855057   0.0000000), wk =   0.0277778
        k(   25) = (   0.0323468   0.1026068   0.0000000), wk =   0.0277778
        k(   26) = (   0.0323468  -0.0855057   0.0000000), wk =   0.0277778
        k(   27) = (   0.0323468  -0.0684046   0.0000000), wk =   0.0277778
        k(   28) = (   0.0323468  -0.0513034   0.0000000), wk =   0.0277778
        k(   29) = (   0.0323468  -0.0342023   0.0000000), wk =   0.0277778
        k(   30) = (   0.0323468  -0.0171011   0.0000000), wk =   0.0277778
        k(   31) = (   0.0323468  -0.0000000   0.0000000), wk =   0.0277778
        k(   32) = (   0.0485202   0.0256517   0.0000000), wk =   0.0277778
        k(   33) = (   0.0485202   0.0427528   0.0000000), wk =   0.0277778
        k(   34) = (   0.0485202   0.0598540   0.0000000), wk =   0.0277778
        k(   35) = (   0.0485202   0.0769551   0.0000000), wk =   0.0277778
        k(   36) = (   0.0485202   0.0940563   0.0000000), wk =   0.0277778
        k(   37) = (   0.0485202   0.1111574   0.0000000), wk =   0.0277778
        k(   38) = (   0.0485202  -0.0769551   0.0000000), wk =   0.0277778
        k(   39) = (   0.0485202  -0.0598540   0.0000000), wk =   0.0277778
        k(   40) = (   0.0485202  -0.0427529   0.0000000), wk =   0.0277778
        k(   41) = (   0.0485202  -0.0256517   0.0000000), wk =   0.0277778
        k(   42) = (   0.0485202  -0.0085506   0.0000000), wk =   0.0277778
        k(   43) = (   0.0485202   0.0085506   0.0000000), wk =   0.0277778
        k(   44) = (   0.0646936   0.0342023   0.0000000), wk =   0.0277778
        k(   45) = (   0.0646936   0.0513034   0.0000000), wk =   0.0277778
        k(   46) = (   0.0646936   0.0684046   0.0000000), wk =   0.0277778
        k(   47) = (   0.0646936   0.0855057   0.0000000), wk =   0.0277778
        k(   48) = (   0.0646936   0.1026068   0.0000000), wk =   0.0277778
        k(   49) = (   0.0646936   0.1197080   0.0000000), wk =   0.0277778
        k(   50) = (   0.0646936  -0.0684046   0.0000000), wk =   0.0277778
        k(   51) = (   0.0646936  -0.0513034   0.0000000), wk =   0.0277778
        k(   52) = (   0.0646936  -0.0342023   0.0000000), wk =   0.0277778
        k(   53) = (   0.0646936  -0.0171011   0.0000000), wk =   0.0277778
        k(   54) = (   0.0646936  -0.0000000   0.0000000), wk =   0.0277778
        k(   55) = (   0.0646936   0.0171011   0.0000000), wk =   0.0277778
        k(   56) = (   0.0808670   0.0427528   0.0000000), wk =   0.0277778
        k(   57) = (   0.0808670   0.0598540   0.0000000), wk =   0.0277778
        k(   58) = (   0.0808670   0.0769551   0.0000000), wk =   0.0277778
        k(   59) = (   0.0808670   0.0940563   0.0000000), wk =   0.0277778
        k(   60) = (   0.0808670   0.1111574   0.0000000), wk =   0.0277778
        k(   61) = (   0.0808670   0.1282586   0.0000000), wk =   0.0277778
        k(   62) = (   0.0808670  -0.0598540   0.0000000), wk =   0.0277778
        k(   63) = (   0.0808670  -0.0427529   0.0000000), wk =   0.0277778
        k(   64) = (   0.0808670  -0.0256517   0.0000000), wk =   0.0277778
        k(   65) = (   0.0808670  -0.0085506   0.0000000), wk =   0.0277778
        k(   66) = (   0.0808670   0.0085506   0.0000000), wk =   0.0277778
        k(   67) = (   0.0808670   0.0256517   0.0000000), wk =   0.0277778
        k(   68) = (  -0.0970404  -0.0513034   0.0000000), wk =   0.0138889
        k(   69) = (  -0.0970404  -0.0342023   0.0000000), wk =   0.0277778
        k(   70) = (  -0.0970404  -0.0171011   0.0000000), wk =   0.0277778
        k(   71) = (  -0.0970404   0.0000000   0.0000000), wk =   0.0277778
        k(   72) = (  -0.0970404   0.0171012   0.0000000), wk =   0.0277778
        k(   73) = (  -0.0970404   0.0342023   0.0000000), wk =   0.0277778
        k(   74) = (  -0.0970404  -0.1539103   0.0000000), wk =   0.0138889

     Dense  grid:   902493 G-vectors     FFT dimensions: (  75,  80, 360)

     Smooth grid:   228317 G-vectors     FFT dimensions: (  48,  50, 225)

     Estimated max dynamical RAM per process >     177.45 MB

     Estimated total dynamical RAM >       6.41 GB

     Check: negative core charge=   -0.000001

     Initial potential from superposition of free atoms

     starting charge  149.97220, renormalised to  150.00000

     negative rho (up, down):  1.012E-03 0.000E+00


     %%%%%%%%%%%%%%%%%%%%%%%%%%%%%%%%%%%%%%%%%%%%%%%%%%%%%%%%%%%%%%%%%%%%%%%%
     %                                                                      %
     % You are using vdW-DF, which was implemented by the Thonhauser group. %
     % Please cite the following two papers that made this development      %
     % possible and the two reviews that describe the various versions:     %
     %                                                                      %
     %   T. Thonhauser et al., PRL 115, 136402 (2015).                      %
     %   T. Thonhauser et al., PRB 76, 125112 (2007).                       %
     %   K. Berland et al., Rep. Prog. Phys. 78, 066501 (2015).             %
     %   D.C. Langreth et al., J. Phys.: Condens. Matter 21, 084203 (2009). %
     %                                                                      %
     %                                                                      %
     % If you are calculating the stress with vdW-DF, please also cite:     %
     %                                                                      %
     %   R. Sabatini et al., J. Phys.: Condens. Matter 24, 424209 (2012).   %
     %                                                                      %
     %%%%%%%%%%%%%%%%%%%%%%%%%%%%%%%%%%%%%%%%%%%%%%%%%%%%%%%%%%%%%%%%%%%%%%%%



     Adding external electric field

     Computed dipole along edir(3) : 
        Dipole                0.0015 Ry au,          0.0039 Debye
        Dipole field          0.0000 Ry au, 

        Potential amp.       -0.0004 Ry
        Total length         44.9078 bohr

     Starting wfcs are  114 randomized atomic wfcs

     total cpu time spent up to now is      101.6 secs

     Self-consistent Calculation

     iteration #  1     ecut=    55.12 Ry     beta= 0.10
     Davidson diagonalization with overlap
     ethr =  1.00E-02,  avg # of iterations =  2.1

     negative rho (up, down):  9.294E-04 0.000E+00

     Adding external electric field

     Computed dipole along edir(3) : 
        Dipole               -0.3777 Ry au,         -0.9601 Debye
        Dipole field         -0.0011 Ry au, 

        Potential amp.        0.1032 Ry
        Total length         44.9078 bohr


     total cpu time spent up to now is      298.1 secs

     total energy              =   -1774.60308481 Ry
     estimated scf accuracy    <       5.08918988 Ry

     iteration #  2     ecut=    55.12 Ry     beta= 0.10
     Davidson diagonalization with overlap
     ethr =  3.39E-03,  avg # of iterations =  2.8

     negative rho (up, down):  4.325E-03 0.000E+00

     Adding external electric field

     Computed dipole along edir(3) : 
        Dipole                0.4642 Ry au,          1.1799 Debye
        Dipole field          0.0014 Ry au, 

        Potential amp.       -0.1269 Ry
        Total length         44.9078 bohr


     total cpu time spent up to now is      508.8 secs

     total energy              =   -1774.42163682 Ry
     estimated scf accuracy    <      27.76524822 Ry

     iteration #  3     ecut=    55.12 Ry     beta= 0.10
     Davidson diagonalization with overlap
     ethr =  3.39E-03,  avg # of iterations =  1.7

     negative rho (up, down):  7.418E-03 0.000E+00

     Adding external electric field

     Computed dipole along edir(3) : 
        Dipole               -0.0268 Ry au,         -0.0680 Debye
        Dipole field         -0.0001 Ry au, 

        Potential amp.        0.0073 Ry
        Total length         44.9078 bohr


     total cpu time spent up to now is      637.2 secs

     total energy              =   -1774.84340315 Ry
     estimated scf accuracy    <      24.49069431 Ry

     iteration #  4     ecut=    55.12 Ry     beta= 0.10
     Davidson diagonalization with overlap
     ethr =  3.39E-03,  avg # of iterations =  1.0

     negative rho (up, down):  5.058E-03 0.000E+00

     Adding external electric field

     Computed dipole along edir(3) : 
        Dipole               -0.0091 Ry au,         -0.0231 Debye
        Dipole field         -0.0000 Ry au, 

        Potential amp.        0.0025 Ry
        Total length         44.9078 bohr


     total cpu time spent up to now is      763.6 secs

     total energy              =   -1775.15099197 Ry
     estimated scf accuracy    <       0.42981603 Ry

     iteration #  5     ecut=    55.12 Ry     beta= 0.10
     Davidson diagonalization with overlap
     ethr =  2.87E-04,  avg # of iterations =  7.0

     negative rho (up, down):  2.924E-03 0.000E+00

     Adding external electric field

     Computed dipole along edir(3) : 
        Dipole               -0.0366 Ry au,         -0.0931 Debye
        Dipole field         -0.0001 Ry au, 

        Potential amp.        0.0100 Ry
        Total length         44.9078 bohr


     total cpu time spent up to now is      922.0 secs

     total energy              =   -1775.14486198 Ry
     estimated scf accuracy    <       0.16794894 Ry

     iteration #  6     ecut=    55.12 Ry     beta= 0.10
     Davidson diagonalization with overlap
     ethr =  1.12E-04,  avg # of iterations =  7.0

     negative rho (up, down):  1.522E-02 0.000E+00

     Adding external electric field

     Computed dipole along edir(3) : 
        Dipole               -0.0523 Ry au,         -0.1329 Debye
        Dipole field         -0.0002 Ry au, 

        Potential amp.        0.0143 Ry
        Total length         44.9078 bohr


     total cpu time spent up to now is     1082.4 secs

     total energy              =   -1775.14610944 Ry
     estimated scf accuracy    <       0.06284971 Ry

     iteration #  7     ecut=    55.12 Ry     beta= 0.10
     Davidson diagonalization with overlap
     ethr =  4.19E-05,  avg # of iterations =  6.9

     negative rho (up, down):  1.635E-02 0.000E+00

     Adding external electric field

     Computed dipole along edir(3) : 
        Dipole               -0.0419 Ry au,         -0.1065 Debye
        Dipole field         -0.0001 Ry au, 

        Potential amp.        0.0114 Ry
        Total length         44.9078 bohr


     total cpu time spent up to now is     1258.3 secs

     total energy              =   -1775.15678108 Ry
     estimated scf accuracy    <       0.03562440 Ry

     iteration #  8     ecut=    55.12 Ry     beta= 0.10
     Davidson diagonalization with overlap
     ethr =  2.37E-05,  avg # of iterations =  2.2

     negative rho (up, down):  1.790E-02 0.000E+00

     Adding external electric field

     Computed dipole along edir(3) : 
        Dipole               -0.0292 Ry au,         -0.0741 Debye
        Dipole field         -0.0001 Ry au, 

        Potential amp.        0.0080 Ry
        Total length         44.9078 bohr


     total cpu time spent up to now is     1397.0 secs

     total energy              =   -1775.15586084 Ry
     estimated scf accuracy    <       0.02088995 Ry

     iteration #  9     ecut=    55.12 Ry     beta= 0.10
     Davidson diagonalization with overlap
     ethr =  1.39E-05,  avg # of iterations =  5.2

     negative rho (up, down):  1.746E-02 0.000E+00

     Adding external electric field

     Computed dipole along edir(3) : 
        Dipole               -0.0379 Ry au,         -0.0963 Debye
        Dipole field         -0.0001 Ry au, 

        Potential amp.        0.0104 Ry
        Total length         44.9078 bohr


     total cpu time spent up to now is     1575.1 secs

     total energy              =   -1775.15673883 Ry
     estimated scf accuracy    <       0.00867775 Ry

     iteration # 10     ecut=    55.12 Ry     beta= 0.10
     Davidson diagonalization with overlap
     c_bands:  1 eigenvalues not converged
     c_bands:  1 eigenvalues not converged
     c_bands:  1 eigenvalues not converged
     c_bands:  1 eigenvalues not converged
     c_bands:  1 eigenvalues not converged
     c_bands:  1 eigenvalues not converged
     ethr =  5.79E-06,  avg # of iterations =  6.9

     negative rho (up, down):  1.755E-02 0.000E+00

     Adding external electric field

     Computed dipole along edir(3) : 
        Dipole               -0.0421 Ry au,         -0.1070 Debye
        Dipole field         -0.0001 Ry au, 

        Potential amp.        0.0115 Ry
        Total length         44.9078 bohr


     total cpu time spent up to now is     1737.7 secs

     total energy              =   -1775.15866423 Ry
     estimated scf accuracy    <       0.00402306 Ry

     iteration # 11     ecut=    55.12 Ry     beta= 0.10
     Davidson diagonalization with overlap
     c_bands:  1 eigenvalues not converged
     ethr =  2.68E-06,  avg # of iterations =  5.8

     negative rho (up, down):  1.873E-02 0.000E+00

     Adding external electric field

     Computed dipole along edir(3) : 
        Dipole               -0.0416 Ry au,         -0.1057 Debye
        Dipole field         -0.0001 Ry au, 

        Potential amp.        0.0114 Ry
        Total length         44.9078 bohr


     total cpu time spent up to now is     1919.5 secs

     total energy              =   -1775.15858119 Ry
     estimated scf accuracy    <       0.00436485 Ry

     iteration # 12     ecut=    55.12 Ry     beta= 0.10
     Davidson diagonalization with overlap
     c_bands:  1 eigenvalues not converged
     ethr =  2.68E-06,  avg # of iterations =  2.2

     negative rho (up, down):  1.970E-02 0.000E+00

     Adding external electric field

     Computed dipole along edir(3) : 
        Dipole               -0.0338 Ry au,         -0.0859 Debye
        Dipole field         -0.0001 Ry au, 

        Potential amp.        0.0092 Ry
        Total length         44.9078 bohr


     total cpu time spent up to now is     2067.3 secs

     total energy              =   -1775.15795842 Ry
     estimated scf accuracy    <       0.00344999 Ry

     iteration # 13     ecut=    55.12 Ry     beta= 0.10
     Davidson diagonalization with overlap
     c_bands:  1 eigenvalues not converged
     ethr =  2.30E-06,  avg # of iterations =  4.3

     negative rho (up, down):  1.834E-02 0.000E+00

     Adding external electric field

     Computed dipole along edir(3) : 
        Dipole               -0.0328 Ry au,         -0.0833 Debye
        Dipole field         -0.0001 Ry au, 

        Potential amp.        0.0090 Ry
        Total length         44.9078 bohr


     total cpu time spent up to now is     2217.3 secs

     total energy              =   -1775.15883877 Ry
     estimated scf accuracy    <       0.00050966 Ry

     iteration # 14     ecut=    55.12 Ry     beta= 0.10
     Davidson diagonalization with overlap
     c_bands:  1 eigenvalues not converged
     c_bands:  1 eigenvalues not converged
     ethr =  3.40E-07,  avg # of iterations =  6.1

     negative rho (up, down):  1.880E-02 0.000E+00

     Adding external electric field

     Computed dipole along edir(3) : 
        Dipole               -0.0355 Ry au,         -0.0901 Debye
        Dipole field         -0.0001 Ry au, 

        Potential amp.        0.0097 Ry
        Total length         44.9078 bohr


     total cpu time spent up to now is     2372.7 secs

     total energy              =   -1775.15872574 Ry
     estimated scf accuracy    <       0.00025881 Ry

     iteration # 15     ecut=    55.12 Ry     beta= 0.10
     Davidson diagonalization with overlap
     ethr =  1.73E-07,  avg # of iterations =  7.5

     negative rho (up, down):  1.770E-02 0.000E+00

     Adding external electric field

     Computed dipole along edir(3) : 
        Dipole               -0.0368 Ry au,         -0.0934 Debye
        Dipole field         -0.0001 Ry au, 

        Potential amp.        0.0100 Ry
        Total length         44.9078 bohr


     total cpu time spent up to now is     2576.1 secs

     total energy              =   -1775.15920675 Ry
     estimated scf accuracy    <       0.00088079 Ry

     iteration # 16     ecut=    55.12 Ry     beta= 0.10
     Davidson diagonalization with overlap
     ethr =  1.73E-07,  avg # of iterations =  1.7

     negative rho (up, down):  1.592E-02 0.000E+00

     Adding external electric field

     Computed dipole along edir(3) : 
        Dipole               -0.0328 Ry au,         -0.0834 Debye
        Dipole field         -0.0001 Ry au, 

        Potential amp.        0.0090 Ry
        Total length         44.9078 bohr


     total cpu time spent up to now is     2709.4 secs

     total energy              =   -1775.15959816 Ry
     estimated scf accuracy    <       0.00079585 Ry

     iteration # 17     ecut=    55.12 Ry     beta= 0.10
     Davidson diagonalization with overlap
     ethr =  1.73E-07,  avg # of iterations =  5.8

     negative rho (up, down):  1.445E-02 0.000E+00

     Adding external electric field

     Computed dipole along edir(3) : 
        Dipole               -0.0334 Ry au,         -0.0850 Debye
        Dipole field         -0.0001 Ry au, 

        Potential amp.        0.0091 Ry
        Total length         44.9078 bohr


     total cpu time spent up to now is     2875.8 secs

     total energy              =   -1775.16016599 Ry
     estimated scf accuracy    <       0.00004597 Ry

     iteration # 18     ecut=    55.12 Ry     beta= 0.10
     Davidson diagonalization with overlap
     ethr =  3.06E-08,  avg # of iterations =  3.6

     negative rho (up, down):  1.500E-03 0.000E+00

     Adding external electric field

     Computed dipole along edir(3) : 
        Dipole               -0.0384 Ry au,         -0.0976 Debye
        Dipole field         -0.0001 Ry au, 

        Potential amp.        0.0105 Ry
        Total length         44.9078 bohr


     total cpu time spent up to now is     3023.3 secs

     End of self-consistent calculation

          k = 0.0000 0.0000 0.0000 ( 28631 PWs)   bands (ev):

   -63.8764 -63.7884 -63.7829 -63.6939 -63.6334 -63.5452 -37.8795 -37.8230
   -37.7976 -37.7791 -37.7569 -37.6913 -37.6816 -37.6789 -37.6174 -37.6055
   -37.5425 -37.5260 -37.4505 -37.1974 -37.1927 -37.1425 -37.1353 -37.0714
    -8.0339  -7.3687  -7.3454  -7.2919  -7.2239  -7.1751  -7.0992  -7.0082
    -6.9921  -6.9873  -6.9208  -6.9033  -6.8259  -6.7100  -6.6644  -6.6526
    -6.6082  -6.5404  -6.5293  -6.5268  -6.4807  -6.4797  -6.4441  -6.4312
    -6.3499  -6.2942  -6.2536  -6.2073  -6.1986  -6.1581  -5.9783  -5.8460
    -3.8102  -2.7228  -2.0730  -1.8411  -1.7011  -1.5302  -1.2295  -1.1723
    -0.9686  -0.8733  -0.5434  -0.5108  -0.3024  -0.1466  -0.1457   0.0160
     0.3851   0.5532   0.5779   0.6934   0.7052   0.8381   1.1737   1.4440
     1.4535   1.5456   1.5791   1.8599   1.8842   2.0421   2.3046   2.3351
     2.4321   2.5244

          k = 0.0000 0.0171 0.0000 ( 28605 PWs)   bands (ev):

   -63.8764 -63.7884 -63.7829 -63.6939 -63.6334 -63.5452 -37.8796 -37.8230
   -37.7976 -37.7791 -37.7569 -37.6913 -37.6816 -37.6789 -37.6175 -37.6055
   -37.5425 -37.5258 -37.4506 -37.1974 -37.1927 -37.1424 -37.1353 -37.0713
    -8.0009  -7.3650  -7.3412  -7.2873  -7.2186  -7.1727  -7.0924  -6.9985
    -6.9907  -6.9820  -6.9165  -6.8994  -6.8259  -6.7011  -6.6604  -6.6523
    -6.6073  -6.5366  -6.5279  -6.5261  -6.4789  -6.4786  -6.4441  -6.4274
    -6.3498  -6.2932  -6.2535  -6.2069  -6.1978  -6.1581  -5.9782  -5.8203
    -3.8063  -2.7019  -2.0841  -2.0369  -1.8230  -1.3769  -1.3305  -1.2548
    -0.9884  -0.8854  -0.5266  -0.5216  -0.3673  -0.1640  -0.1151  -0.0274
     0.3412   0.4133   0.5128   0.5337   0.6779   0.9723   1.1816   1.2993
     1.5176   1.5590   1.6570   1.8266   1.8804   2.1693   2.2942   2.3374
     2.4278   2.5246

          k = 0.0000 0.0342 0.0000 ( 28570 PWs)   bands (ev):

   -63.8764 -63.7884 -63.7829 -63.6939 -63.6334 -63.5452 -37.8797 -37.8230
   -37.7975 -37.7792 -37.7569 -37.6913 -37.6815 -37.6793 -37.6178 -37.6054
   -37.5424 -37.5257 -37.4508 -37.1974 -37.1927 -37.1424 -37.1353 -37.0714
    -7.9094  -7.3534  -7.3298  -7.2756  -7.2038  -7.1670  -7.0725  -6.9870
    -6.9673  -6.9664  -6.9043  -6.8891  -6.8253  -6.6783  -6.6515  -6.6487
    -6.6049  -6.5270  -6.5245  -6.5233  -6.4767  -6.4735  -6.4437  -6.4170
    -6.3488  -6.2906  -6.2535  -6.2054  -6.1957  -6.1581  -5.9776  -5.7446
    -3.8153  -2.6389  -2.4859  -2.1126  -1.7729  -1.6790  -1.5698  -1.1485
    -1.0420  -0.9104  -0.5868  -0.5825  -0.4768  -0.1855  -0.1648  -0.1421
     0.0306   0.1678   0.4131   0.5176   0.7244   0.9968   1.0699   1.2085
     1.4000   1.7021   1.8699   1.8755   1.8845   2.2695   2.2764   2.3422
     2.4161   2.4593

          k = 0.0000 0.0513 0.0000 ( 28592 PWs)   bands (ev):

   -63.8764 -63.7884 -63.7829 -63.6939 -63.6334 -63.5452 -37.8800 -37.8232
   -37.7975 -37.7793 -37.7569 -37.6913 -37.6815 -37.6798 -37.6183 -37.6052
   -37.5422 -37.5255 -37.4511 -37.1974 -37.1927 -37.1425 -37.1354 -37.0714
    -7.7857  -7.3333  -7.3146  -7.2612  -7.1825  -7.1610  -7.0438  -6.9823
    -6.9472  -6.9010  -6.8873  -6.8769  -6.8223  -6.6519  -6.6503  -6.6313
    -6.6007  -6.5223  -6.5155  -6.5109  -6.4737  -6.4686  -6.4405  -6.4029
    -6.3453  -6.2871  -6.2534  -6.2031  -6.1927  -6.1580  -5.9768  -5.6334
    -3.9026  -2.8600  -2.5349  -2.1496  -1.9895  -1.9473  -1.6994  -1.1294
    -1.1165  -0.9531  -0.7923  -0.7179  -0.5303  -0.3944  -0.3679  -0.1917
    -0.1418   0.0195   0.2534   0.4523   0.6975   0.9402   1.1149   1.2705
     1.3078   1.7582   1.8554   1.9823   2.1042   2.2117   2.2358   2.3452
     2.3997   2.5234

          k = 0.0000 0.0684 0.0000 ( 28534 PWs)   bands (ev):

   -63.8764 -63.7884 -63.7829 -63.6939 -63.6334 -63.5452 -37.8802 -37.8233
   -37.7975 -37.7793 -37.7569 -37.6912 -37.6815 -37.6803 -37.6188 -37.6050
   -37.5419 -37.5252 -37.4513 -37.1974 -37.1927 -37.1424 -37.1354 -37.0714
    -7.6724  -7.3067  -7.2998  -7.2480  -7.1599  -7.1564  -7.0151  -6.9779
    -6.9274  -6.8697  -6.8677  -6.8152  -6.7955  -6.6491  -6.6349  -6.6118
    -6.5920  -6.5202  -6.5060  -6.4786  -6.4706  -6.4668  -6.4252  -6.3894
    -6.3378  -6.2836  -6.2533  -6.2005  -6.1896  -6.1580  -5.9759  -5.5481
    -4.0709  -3.1359  -2.3963  -2.2428  -2.2284  -2.1857  -1.6224  -1.3059
    -1.1922  -1.0378  -0.9217  -0.8527  -0.6666  -0.6438  -0.5440  -0.2922
    -0.1477   0.0166   0.0876   0.3425   0.4742   1.1320   1.1328   1.3287
     1.3456   1.7813   1.8418   2.0768   2.1985   2.2054   2.2088   2.3459
     2.3853   2.5219

          k = 0.0000 0.0855 0.0000 ( 28530 PWs)   bands (ev):

   -63.8763 -63.7884 -63.7829 -63.6939 -63.6334 -63.5452 -37.8803 -37.8234
   -37.7975 -37.7794 -37.7569 -37.6913 -37.6815 -37.6807 -37.6191 -37.6049
   -37.5418 -37.5250 -37.4515 -37.1974 -37.1927 -37.1424 -37.1353 -37.0714
    -7.6034  -7.2892  -7.2834  -7.2381  -7.1541  -7.1425  -6.9945  -6.9749
    -6.9138  -6.8627  -6.8566  -6.8071  -6.6986  -6.6481  -6.6344  -6.5956
    -6.5798  -6.5187  -6.5006  -6.4683  -6.4682  -6.4514  -6.3802  -6.3292
    -6.3228  -6.2811  -6.2532  -6.1987  -6.1874  -6.1579  -5.9752  -5.6034
    -4.0992  -3.4817  -2.4063  -2.2513  -2.2186  -2.2099  -1.6334  -1.5973
    -1.2125  -1.1135  -0.9386  -0.9381  -0.9091  -0.8317  -0.5426  -0.3655
    -0.1494  -0.0494   0.0582   0.2416   0.3481   1.1420   1.1790   1.4048
     1.4559   1.7827   1.8312   2.1808   2.1838   2.2276   2.2276   2.3427
     2.3780   2.5200

          k = 0.0000-0.1026 0.0000 ( 28558 PWs)   bands (ev):

   -63.8763 -63.7884 -63.7829 -63.6939 -63.6334 -63.5452 -37.8803 -37.8235
   -37.7975 -37.7795 -37.7568 -37.6913 -37.6815 -37.6808 -37.6193 -37.6050
   -37.5418 -37.5249 -37.4516 -37.1973 -37.1927 -37.1424 -37.1354 -37.0714
    -7.5820  -7.2854  -7.2746  -7.2341  -7.1534  -7.1360  -6.9870  -6.9739
    -6.9092  -6.8610  -6.8518  -6.8035  -6.6625  -6.6478  -6.6422  -6.5892
    -6.5744  -6.5181  -6.4990  -6.4695  -6.4674  -6.4470  -6.3771  -6.3255
    -6.2802  -6.2531  -6.2023  -6.1981  -6.1866  -6.1579  -5.9749  -5.7131
    -3.9231  -3.7956  -2.4626  -2.2253  -2.1694  -2.0452  -1.9024  -1.6213
    -1.1552  -1.1397  -1.0491  -0.9593  -0.9409  -0.9054  -0.5395  -0.3909
    -0.1503  -0.1040   0.0906   0.1886   0.3086   1.1451   1.1885   1.4279
     1.5077   1.7796   1.8275   2.1761   2.2340   2.2375   2.2426   2.3404
     2.3763   2.5194

          k = 0.0162 0.0086 0.0000 ( 28599 PWs)   bands (ev):

   -63.8749 -63.7899 -63.7814 -63.6954 -63.6319 -63.5467 -37.8781 -37.8125
   -37.7990 -37.7686 -37.7556 -37.6832 -37.6807 -37.6776 -37.6161 -37.6068
   -37.5438 -37.5246 -37.4518 -37.2039 -37.1962 -37.1536 -37.1364 -37.0822
    -7.9830  -7.3524  -7.3344  -7.2679  -7.2125  -7.1566  -7.0927  -6.9991
    -6.9984  -6.9751  -6.9206  -6.8912  -6.8168  -6.7035  -6.6658  -6.6453
    -6.6106  -6.5410  -6.5401  -6.5249  -6.4919  -6.4824  -6.4419  -6.4316
    -6.3523  -6.3056  -6.2630  -6.2185  -6.2101  -6.1677  -5.9950  -5.8077
    -3.7857  -2.9597  -2.1013  -2.0359  -1.7944  -1.3971  -1.1489  -1.0881
    -0.9743  -0.8600  -0.4846  -0.4416  -0.3039  -0.1400  -0.1027   0.0024
     0.3636   0.4969   0.5272   0.5838   0.6734   0.8572   1.1557   1.3069
     1.4604   1.5065   1.5597   1.7451   1.9724   2.0523   2.2597   2.3378
     2.4399   2.5197

          k = 0.0162 0.0257 0.0000 ( 28591 PWs)   bands (ev):

   -63.8749 -63.7899 -63.7814 -63.6954 -63.6319 -63.5467 -37.8782 -37.8126
   -37.7990 -37.7687 -37.7556 -37.6832 -37.6807 -37.6778 -37.6163 -37.6067
   -37.5437 -37.5245 -37.4519 -37.2039 -37.1962 -37.1536 -37.1364 -37.0822
    -7.9194  -7.3449  -7.3264  -7.2599  -7.2024  -7.1524  -7.0795  -6.9960
    -6.9783  -6.9655  -6.9123  -6.8840  -6.8166  -6.6875  -6.6584  -6.6447
    -6.6091  -6.5407  -6.5332  -6.5216  -6.4905  -6.4785  -6.4418  -6.4246
    -6.3520  -6.3040  -6.2629  -6.2176  -6.2088  -6.1677  -5.9948  -5.7558
    -3.7825  -2.9518  -2.2258  -2.1431  -2.0070  -1.3667  -1.2845  -1.1675
    -1.0000  -0.8760  -0.5152  -0.4530  -0.3904  -0.1929  -0.1033  -0.0732
     0.1507   0.2519   0.5032   0.5198   0.6604   0.9472   1.1167   1.2481
     1.4052   1.6028   1.7084   1.8196   1.9302   2.2703   2.2736   2.3406
     2.3657   2.3897

          k = 0.0162 0.0428 0.0000 ( 28578 PWs)   bands (ev):

   -63.8749 -63.7899 -63.7814 -63.6954 -63.6319 -63.5467 -37.8784 -37.8127
   -37.7989 -37.7687 -37.7556 -37.6832 -37.6807 -37.6783 -37.6167 -37.6066
   -37.5436 -37.5243 -37.4522 -37.2039 -37.1962 -37.1536 -37.1364 -37.0823
    -7.8090  -7.3291  -7.3127  -7.2477  -7.1840  -7.1465  -7.0552  -6.9912
    -6.9483  -6.9311  -6.8977  -6.8725  -6.8149  -6.6624  -6.6448  -6.6434
    -6.6064  -6.5394  -6.5225  -6.5138  -6.4877  -6.4732  -6.4402  -6.4124
    -6.3501  -6.3012  -6.2625  -6.2157  -6.2065  -6.1677  -5.9944  -5.6584
    -3.8186  -2.9490  -2.6522  -2.1907  -1.9916  -1.7122  -1.4592  -1.0819
    -1.0719  -0.9032  -0.6568  -0.5727  -0.4759  -0.3344  -0.2324  -0.1375
    -0.1212   0.0784   0.4090   0.4869   0.8127   0.8368   1.0705   1.2484
     1.2872   1.7004   1.8555   1.9714   1.9836   2.2588   2.2600   2.3069
     2.3961   2.4855

          k = 0.0162 0.0599 0.0000 ( 28574 PWs)   bands (ev):

   -63.8749 -63.7900 -63.7814 -63.6954 -63.6319 -63.5467 -37.8787 -37.8129
   -37.7989 -37.7688 -37.7556 -37.6832 -37.6807 -37.6788 -37.6172 -37.6064
   -37.5434 -37.5240 -37.4525 -37.2039 -37.1962 -37.1536 -37.1364 -37.0823
    -7.6875  -7.3045  -7.2973  -7.2357  -7.1615  -7.1411  -7.0262  -6.9864
    -6.9281  -6.8805  -6.8615  -6.8450  -6.8098  -6.6425  -6.6401  -6.6267
    -6.6015  -6.5363  -6.5121  -6.4968  -6.4813  -6.4697  -6.4334  -6.3984
    -6.3449  -6.2979  -6.2617  -6.2133  -6.2038  -6.1676  -5.9938  -5.5488
    -3.9540  -2.9714  -2.9642  -2.2318  -2.0697  -1.9857  -1.5234  -1.1658
    -1.1476  -0.9593  -0.8600  -0.7330  -0.6525  -0.5002  -0.4328  -0.2130
    -0.1603   0.0198   0.2660   0.3962   0.6221   1.0474   1.0991   1.2361
     1.3031   1.7480   1.8367   2.0587   2.1482   2.2092   2.2352   2.3304
     2.3815   2.4774

          k = 0.0162 0.0770 0.0000 ( 28543 PWs)   bands (ev):

   -63.8749 -63.7900 -63.7814 -63.6955 -63.6319 -63.5467 -37.8788 -37.8129
   -37.7989 -37.7689 -37.7556 -37.6831 -37.6807 -37.6793 -37.6177 -37.6062
   -37.5432 -37.5238 -37.4527 -37.2039 -37.1962 -37.1536 -37.1364 -37.0823
    -7.5976  -7.2842  -7.2760  -7.2273  -7.1407  -7.1374  -7.0015  -6.9826
    -6.9112  -6.8658  -6.8539  -6.8015  -6.7362  -6.6414  -6.6322  -6.6094
    -6.5915  -6.5329  -6.5049  -6.4862  -6.4696  -6.4558  -6.3869  -6.3860
    -6.3367  -6.2946  -6.2591  -6.2111  -6.2013  -6.1674  -5.9932  -5.5226
    -4.0766  -3.2624  -3.0190  -2.2613  -2.2128  -1.9351  -1.5255  -1.4229
    -1.2519  -1.0525  -0.9270  -0.9055  -0.8498  -0.6352  -0.5023  -0.3011
    -0.1725   0.0494   0.1339   0.2971   0.4683   1.1200   1.1317   1.3526
     1.3660   1.7622   1.8306   2.1053   2.1717   2.2053   2.2460   2.3512
     2.3827   2.4773

          k = 0.0162 0.0941 0.0000 ( 28551 PWs)   bands (ev):

   -63.8749 -63.7900 -63.7814 -63.6955 -63.6319 -63.5467 -37.8790 -37.8130
   -37.7989 -37.7689 -37.7556 -37.6831 -37.6806 -37.6796 -37.6179 -37.6062
   -37.5431 -37.5238 -37.4528 -37.2039 -37.1962 -37.1536 -37.1364 -37.0823
    -7.5556  -7.2767  -7.2563  -7.2236  -7.1357  -7.1281  -6.9873  -6.9806
    -6.9024  -6.8579  -6.8492  -6.7952  -6.6710  -6.6407  -6.6377  -6.5982
    -6.5821  -6.5311  -6.5016  -6.4840  -6.4713  -6.4465  -6.3807  -6.3301
    -6.2979  -6.2773  -6.2206  -6.2100  -6.1971  -6.1651  -5.9927  -5.6387
    -3.9721  -3.6312  -3.0583  -2.2786  -2.0814  -1.8269  -1.7563  -1.5948
    -1.2402  -1.1038  -1.1027  -0.9221  -0.9106  -0.7606  -0.4968  -0.3490
    -0.1822   0.0549   0.0897   0.2215   0.3931   1.1307   1.1412   1.4081
     1.4628   1.7596   1.8388   2.1206   2.1540   2.2227   2.2604   2.3303
     2.4320   2.4907

          k = 0.0162-0.0941 0.0000 ( 28551 PWs)   bands (ev):

   -63.8749 -63.7900 -63.7814 -63.6955 -63.6319 -63.5467 -37.8790 -37.8130
   -37.7989 -37.7689 -37.7556 -37.6831 -37.6806 -37.6796 -37.6179 -37.6062
   -37.5431 -37.5238 -37.4528 -37.2039 -37.1962 -37.1536 -37.1364 -37.0823
    -7.5556  -7.2767  -7.2563  -7.2236  -7.1357  -7.1281  -6.9873  -6.9806
    -6.9024  -6.8579  -6.8492  -6.7952  -6.6710  -6.6407  -6.6377  -6.5982
    -6.5821  -6.5310  -6.5016  -6.4840  -6.4713  -6.4465  -6.3807  -6.3301
    -6.2979  -6.2773  -6.2207  -6.2100  -6.1970  -6.1651  -5.9927  -5.6387
    -3.9721  -3.6312  -3.0583  -2.2786  -2.0814  -1.8269  -1.7563  -1.5948
    -1.2402  -1.1038  -1.1027  -0.9221  -0.9106  -0.7606  -0.4968  -0.3490
    -0.1822   0.0549   0.0897   0.2215   0.3931   1.1307   1.1412   1.4081
     1.4628   1.7596   1.8388   2.1206   2.1540   2.2227   2.2604   2.3303
     2.4320   2.4907

          k = 0.0162-0.0770 0.0000 ( 28543 PWs)   bands (ev):

   -63.8749 -63.7900 -63.7814 -63.6955 -63.6319 -63.5467 -37.8788 -37.8129
   -37.7989 -37.7689 -37.7556 -37.6831 -37.6807 -37.6793 -37.6177 -37.6062
   -37.5432 -37.5238 -37.4527 -37.2039 -37.1962 -37.1536 -37.1364 -37.0823
    -7.5976  -7.2842  -7.2760  -7.2273  -7.1407  -7.1374  -7.0015  -6.9826
    -6.9112  -6.8658  -6.8539  -6.8015  -6.7362  -6.6414  -6.6322  -6.6094
    -6.5915  -6.5329  -6.5049  -6.4861  -6.4696  -6.4558  -6.3869  -6.3860
    -6.3367  -6.2946  -6.2591  -6.2111  -6.2013  -6.1674  -5.9932  -5.5226
    -4.0766  -3.2624  -3.0190  -2.2613  -2.2128  -1.9351  -1.5255  -1.4229
    -1.2519  -1.0525  -0.9269  -0.9055  -0.8497  -0.6353  -0.5023  -0.3011
    -0.1725   0.0494   0.1338   0.2971   0.4683   1.1200   1.1317   1.3526
     1.3660   1.7622   1.8306   2.1053   2.1717   2.2053   2.2460   2.3512
     2.3827   2.4773

          k = 0.0162-0.0599 0.0000 ( 28574 PWs)   bands (ev):

   -63.8749 -63.7900 -63.7814 -63.6954 -63.6319 -63.5467 -37.8787 -37.8129
   -37.7989 -37.7688 -37.7556 -37.6832 -37.6807 -37.6788 -37.6172 -37.6064
   -37.5434 -37.5240 -37.4525 -37.2039 -37.1962 -37.1536 -37.1364 -37.0823
    -7.6875  -7.3045  -7.2973  -7.2357  -7.1615  -7.1411  -7.0262  -6.9864
    -6.9281  -6.8805  -6.8615  -6.8450  -6.8098  -6.6425  -6.6401  -6.6267
    -6.6015  -6.5363  -6.5121  -6.4968  -6.4813  -6.4697  -6.4334  -6.3984
    -6.3449  -6.2979  -6.2617  -6.2133  -6.2038  -6.1676  -5.9938  -5.5488
    -3.9540  -2.9714  -2.9642  -2.2318  -2.0697  -1.9857  -1.5234  -1.1658
    -1.1476  -0.9593  -0.8600  -0.7330  -0.6524  -0.5002  -0.4328  -0.2130
    -0.1603   0.0198   0.2660   0.3962   0.6221   1.0474   1.0991   1.2361
     1.3031   1.7480   1.8368   2.0586   2.1482   2.2092   2.2352   2.3304
     2.3815   2.4774

          k = 0.0162-0.0428 0.0000 ( 28578 PWs)   bands (ev):

   -63.8749 -63.7899 -63.7814 -63.6954 -63.6319 -63.5467 -37.8784 -37.8127
   -37.7989 -37.7687 -37.7556 -37.6832 -37.6807 -37.6783 -37.6167 -37.6066
   -37.5436 -37.5243 -37.4522 -37.2039 -37.1962 -37.1536 -37.1364 -37.0823
    -7.8090  -7.3291  -7.3127  -7.2477  -7.1840  -7.1465  -7.0552  -6.9912
    -6.9483  -6.9311  -6.8977  -6.8725  -6.8149  -6.6624  -6.6448  -6.6435
    -6.6064  -6.5394  -6.5225  -6.5138  -6.4877  -6.4732  -6.4402  -6.4124
    -6.3501  -6.3012  -6.2625  -6.2157  -6.2065  -6.1677  -5.9944  -5.6584
    -3.8186  -2.9490  -2.6522  -2.1907  -1.9916  -1.7122  -1.4593  -1.0819
    -1.0719  -0.9032  -0.6568  -0.5727  -0.4759  -0.3344  -0.2324  -0.1375
    -0.1212   0.0784   0.4090   0.4869   0.8127   0.8367   1.0705   1.2485
     1.2872   1.7004   1.8555   1.9714   1.9836   2.2588   2.2600   2.3069
     2.3961   2.4855

          k = 0.0162-0.0257 0.0000 ( 28591 PWs)   bands (ev):

   -63.8749 -63.7899 -63.7814 -63.6954 -63.6319 -63.5467 -37.8782 -37.8126
   -37.7990 -37.7687 -37.7556 -37.6832 -37.6807 -37.6778 -37.6163 -37.6067
   -37.5437 -37.5245 -37.4519 -37.2039 -37.1962 -37.1536 -37.1364 -37.0822
    -7.9194  -7.3449  -7.3264  -7.2599  -7.2024  -7.1524  -7.0795  -6.9960
    -6.9783  -6.9655  -6.9123  -6.8840  -6.8166  -6.6875  -6.6584  -6.6447
    -6.6091  -6.5407  -6.5332  -6.5216  -6.4905  -6.4785  -6.4418  -6.4246
    -6.3520  -6.3040  -6.2629  -6.2176  -6.2088  -6.1677  -5.9948  -5.7558
    -3.7825  -2.9518  -2.2258  -2.1430  -2.0071  -1.3667  -1.2846  -1.1675
    -1.0000  -0.8760  -0.5152  -0.4529  -0.3904  -0.1929  -0.1033  -0.0732
     0.1507   0.2518   0.5032   0.5198   0.6604   0.9471   1.1167   1.2482
     1.4052   1.6027   1.7084   1.8196   1.9303   2.2704   2.2736   2.3411
     2.3657   2.3898

          k = 0.0162-0.0086 0.0000 ( 28599 PWs)   bands (ev):

   -63.8749 -63.7899 -63.7814 -63.6954 -63.6319 -63.5467 -37.8781 -37.8125
   -37.7990 -37.7686 -37.7556 -37.6832 -37.6807 -37.6776 -37.6161 -37.6068
   -37.5438 -37.5246 -37.4518 -37.2039 -37.1962 -37.1536 -37.1364 -37.0822
    -7.9830  -7.3524  -7.3344  -7.2679  -7.2125  -7.1566  -7.0927  -6.9991
    -6.9984  -6.9751  -6.9206  -6.8912  -6.8168  -6.7035  -6.6658  -6.6453
    -6.6106  -6.5410  -6.5401  -6.5249  -6.4919  -6.4824  -6.4419  -6.4316
    -6.3523  -6.3056  -6.2630  -6.2185  -6.2101  -6.1677  -5.9950  -5.8077
    -3.7857  -2.9597  -2.1012  -2.0360  -1.7944  -1.3971  -1.1489  -1.0881
    -0.9742  -0.8600  -0.4846  -0.4416  -0.3039  -0.1400  -0.1027   0.0024
     0.3636   0.4969   0.5271   0.5838   0.6734   0.8572   1.1557   1.3069
     1.4603   1.5066   1.5597   1.7450   1.9724   2.0523   2.2597   2.3378
     2.4399   2.5197

          k = 0.0323 0.0171 0.0000 ( 28564 PWs)   bands (ev):

   -63.8705 -63.7944 -63.7770 -63.6999 -63.6275 -63.5512 -37.8741 -37.8032
   -37.7818 -37.7519 -37.7377 -37.6866 -37.6740 -37.6510 -37.6124 -37.6104
   -37.5476 -37.5209 -37.4556 -37.2362 -37.1939 -37.1856 -37.1394 -37.1140
    -7.8333  -7.3094  -7.3021  -7.1990  -7.1792  -7.1000  -7.0741  -7.0127
    -6.9683  -6.9470  -6.9161  -6.8589  -6.7907  -6.6877  -6.6710  -6.6300
    -6.6238  -6.5634  -6.5396  -6.5261  -6.5157  -6.4877  -6.4366  -6.4339
    -6.3597  -6.3391  -6.2894  -6.2518  -6.2433  -6.1948  -6.0449  -5.6935
    -3.7128  -3.4797  -2.5063  -2.1459  -1.9012  -1.1841  -1.1055  -1.0821
    -0.8112  -0.7433  -0.4151  -0.3542  -0.2676  -0.1187  -0.0257  -0.0131
     0.2346   0.2472   0.4592   0.5618   0.6248   0.7858   1.0774   1.2191
     1.3308   1.4015   1.5226   1.6986   2.0566   2.0691   2.1571   2.2943
     2.3892   2.5473

          k = 0.0323 0.0342 0.0000 ( 28583 PWs)   bands (ev):

   -63.8705 -63.7944 -63.7770 -63.6999 -63.6275 -63.5512 -37.8742 -37.8032
   -37.7819 -37.7519 -37.7378 -37.6867 -37.6744 -37.6510 -37.6128 -37.6103
   -37.5475 -37.5207 -37.4558 -37.2362 -37.1939 -37.1856 -37.1395 -37.1140
    -7.7467  -7.2991  -7.2912  -7.1908  -7.1653  -7.0943  -7.0570  -7.0091
    -6.9359  -6.9339  -6.9053  -6.8499  -6.7896  -6.6688  -6.6625  -6.6299
    -6.6231  -6.5613  -6.5314  -6.5247  -6.5109  -6.4828  -6.4358  -6.4253
    -6.3588  -6.3375  -6.2884  -6.2505  -6.2420  -6.1948  -6.0451  -5.6156
    -3.7184  -3.5311  -2.5282  -2.3408  -2.1258  -1.4020  -1.2161  -1.0028
    -0.8517  -0.8187  -0.4965  -0.4577  -0.3433  -0.2935  -0.0990  -0.0666
    -0.0593   0.1347   0.4813   0.5633   0.6932   0.8200   1.0375   1.2148
     1.2614   1.5483   1.7764   1.7952   2.0393   2.1637   2.2741   2.3241
     2.3686   2.4006

          k = 0.0323 0.0513 0.0000 ( 28537 PWs)   bands (ev):

   -63.8705 -63.7944 -63.7770 -63.6999 -63.6275 -63.5512 -37.8744 -37.8031
   -37.7820 -37.7518 -37.7379 -37.6866 -37.6748 -37.6510 -37.6132 -37.6101
   -37.5473 -37.5205 -37.4561 -37.2361 -37.1939 -37.1856 -37.1395 -37.1140
    -7.6324  -7.2804  -7.2764  -7.1819  -7.1448  -7.0879  -7.0319  -7.0047
    -6.9159  -6.8902  -6.8712  -6.8389  -6.7860  -6.6497  -6.6469  -6.6297
    -6.6219  -6.5575  -6.5230  -6.5216  -6.4965  -6.4780  -6.4324  -6.4130
    -6.3560  -6.3353  -6.2862  -6.2485  -6.2400  -6.1947  -6.0453  -5.5058
    -3.7900  -3.6116  -2.7139  -2.5535  -2.0905  -1.7726  -1.3034  -0.9918
    -0.9810  -0.8393  -0.7064  -0.6840  -0.5169  -0.3814  -0.2586  -0.1494
    -0.0932   0.0577   0.4219   0.5110   0.7576   0.9148   1.0126   1.1188
     1.2800   1.6500   1.8150   2.0298   2.0490   2.1942   2.2294   2.2570
     2.3525   2.5298

          k = 0.0323 0.0684 0.0000 ( 28542 PWs)   bands (ev):

   -63.8705 -63.7944 -63.7770 -63.6999 -63.6275 -63.5511 -37.8747 -37.8031
   -37.7822 -37.7519 -37.7380 -37.6866 -37.6753 -37.6509 -37.6137 -37.6099
   -37.5471 -37.5202 -37.4563 -37.2361 -37.1939 -37.1856 -37.1395 -37.1141
    -7.5331  -7.2619  -7.2533  -7.1760  -7.1226  -7.0820  -7.0065  -7.0007
    -6.8988  -6.8742  -6.8302  -6.7788  -6.7737  -6.6384  -6.6355  -6.6216
    -6.6208  -6.5526  -6.5228  -6.5137  -6.4761  -6.4635  -6.4146  -6.4005
    -6.3502  -6.3323  -6.2798  -6.2465  -6.2370  -6.1936  -6.0455  -5.4262
    -3.9256  -3.7014  -2.9998  -2.5789  -2.0406  -2.0295  -1.3507  -1.1554
    -1.1503  -0.9274  -0.8829  -0.8157  -0.6883  -0.4198  -0.3837  -0.1883
    -0.1689   0.0706   0.3525   0.4217   0.6439   1.0417   1.0472   1.1657
     1.3198   1.6938   1.8102   2.0459   2.1350   2.1464   2.2418   2.2597
     2.3338   2.5674

          k = 0.0323 0.0855 0.0000 ( 28559 PWs)   bands (ev):

   -63.8705 -63.7944 -63.7770 -63.6999 -63.6275 -63.5511 -37.8748 -37.8031
   -37.7822 -37.7519 -37.7380 -37.6866 -37.6757 -37.6509 -37.6141 -37.6098
   -37.5469 -37.5201 -37.4565 -37.2362 -37.1939 -37.1856 -37.1395 -37.1141
    -7.4768  -7.2514  -7.2264  -7.1749  -7.1050  -7.0779  -6.9981  -6.9878
    -6.8882  -6.8613  -6.8249  -6.7709  -6.6913  -6.6394  -6.6242  -6.6197
    -6.6128  -6.5475  -6.5246  -6.5091  -6.4769  -6.4454  -6.3917  -6.3537
    -6.3434  -6.3225  -6.2553  -6.2453  -6.2222  -6.1825  -6.0456  -5.4748
    -3.9336  -3.7718  -3.3364  -2.6005  -2.0354  -1.9405  -1.4736  -1.4603
    -1.2105  -0.9968  -0.9877  -0.8223  -0.8144  -0.5556  -0.3740  -0.2277
    -0.2065   0.1033   0.2927   0.3437   0.5625   1.0257   1.0806   1.3244
     1.3641   1.7000   1.8225   2.0203   2.1015   2.1873   2.2575   2.2723
     2.2797   2.6395

          k = 0.0323 0.1026 0.0000 ( 28568 PWs)   bands (ev):

   -63.8705 -63.7944 -63.7770 -63.6999 -63.6275 -63.5511 -37.8748 -37.8031
   -37.7823 -37.7519 -37.7380 -37.6866 -37.6759 -37.6509 -37.6142 -37.6098
   -37.5468 -37.5200 -37.4566 -37.2362 -37.1939 -37.1856 -37.1396 -37.1141
    -7.4601  -7.2476  -7.2144  -7.1761  -7.0982  -7.0765  -6.9972  -6.9810
    -6.8850  -6.8562  -6.8231  -6.7676  -6.6658  -6.6388  -6.6209  -6.6182
    -6.6107  -6.5447  -6.5261  -6.5078  -6.4777  -6.4425  -6.3887  -6.3410
    -6.3402  -6.3116  -6.2454  -6.2450  -6.2058  -6.1241  -6.0457  -5.5633
    -3.7983  -3.7645  -3.6329  -2.6094  -1.8797  -1.8699  -1.7365  -1.5501
    -1.1865  -1.0289  -1.0198  -0.8673  -0.8228  -0.6081  -0.3672  -0.2500
    -0.2124   0.1202   0.2658   0.3136   0.5342   1.0223   1.0929   1.3806
     1.3845   1.6964   1.8370   2.0044   2.0950   2.1977   2.2439   2.2673
     2.2788   2.6791

          k = 0.0323-0.0855 0.0000 ( 28559 PWs)   bands (ev):

   -63.8705 -63.7944 -63.7770 -63.6999 -63.6275 -63.5511 -37.8748 -37.8031
   -37.7822 -37.7519 -37.7380 -37.6866 -37.6757 -37.6509 -37.6141 -37.6098
   -37.5469 -37.5201 -37.4565 -37.2362 -37.1939 -37.1856 -37.1395 -37.1141
    -7.4768  -7.2514  -7.2264  -7.1749  -7.1050  -7.0779  -6.9981  -6.9878
    -6.8882  -6.8613  -6.8249  -6.7709  -6.6913  -6.6394  -6.6242  -6.6196
    -6.6128  -6.5474  -6.5246  -6.5091  -6.4769  -6.4454  -6.3917  -6.3537
    -6.3434  -6.3225  -6.2554  -6.2453  -6.2222  -6.1825  -6.0456  -5.4748
    -3.9336  -3.7718  -3.3364  -2.6005  -2.0354  -1.9405  -1.4736  -1.4603
    -1.2105  -0.9968  -0.9877  -0.8223  -0.8143  -0.5556  -0.3740  -0.2277
    -0.2065   0.1033   0.2927   0.3437   0.5625   1.0258   1.0806   1.3244
     1.3641   1.7000   1.8225   2.0203   2.1015   2.1873   2.2575   2.2723
     2.2797   2.6393

          k = 0.0323-0.0684 0.0000 ( 28542 PWs)   bands (ev):

   -63.8705 -63.7944 -63.7770 -63.6999 -63.6275 -63.5511 -37.8747 -37.8031
   -37.7822 -37.7519 -37.7380 -37.6866 -37.6753 -37.6509 -37.6137 -37.6099
   -37.5471 -37.5202 -37.4563 -37.2361 -37.1939 -37.1856 -37.1395 -37.1141
    -7.5331  -7.2619  -7.2533  -7.1760  -7.1226  -7.0820  -7.0065  -7.0007
    -6.8988  -6.8742  -6.8302  -6.7788  -6.7737  -6.6384  -6.6355  -6.6216
    -6.6208  -6.5526  -6.5228  -6.5137  -6.4761  -6.4636  -6.4146  -6.4005
    -6.3502  -6.3323  -6.2799  -6.2465  -6.2370  -6.1936  -6.0455  -5.4262
    -3.9256  -3.7014  -2.9998  -2.5789  -2.0406  -2.0295  -1.3508  -1.1554
    -1.1503  -0.9274  -0.8829  -0.8157  -0.6882  -0.4199  -0.3837  -0.1883
    -0.1689   0.0706   0.3525   0.4217   0.6438   1.0418   1.0472   1.1656
     1.3198   1.6938   1.8102   2.0459   2.1350   2.1464   2.2418   2.2597
     2.3338   2.5674

          k = 0.0323-0.0513 0.0000 ( 28537 PWs)   bands (ev):

   -63.8705 -63.7944 -63.7770 -63.6999 -63.6275 -63.5512 -37.8744 -37.8031
   -37.7820 -37.7518 -37.7379 -37.6866 -37.6748 -37.6510 -37.6132 -37.6101
   -37.5473 -37.5205 -37.4561 -37.2361 -37.1939 -37.1856 -37.1395 -37.1140
    -7.6324  -7.2804  -7.2764  -7.1819  -7.1448  -7.0879  -7.0319  -7.0047
    -6.9159  -6.8902  -6.8712  -6.8389  -6.7860  -6.6497  -6.6469  -6.6297
    -6.6219  -6.5575  -6.5230  -6.5216  -6.4965  -6.4780  -6.4325  -6.4130
    -6.3560  -6.3353  -6.2862  -6.2485  -6.2400  -6.1947  -6.0453  -5.5058
    -3.7900  -3.6116  -2.7139  -2.5535  -2.0905  -1.7726  -1.3035  -0.9918
    -0.9810  -0.8393  -0.7064  -0.6839  -0.5168  -0.3814  -0.2586  -0.1494
    -0.0932   0.0577   0.4219   0.5110   0.7575   0.9148   1.0126   1.1188
     1.2800   1.6500   1.8151   2.0298   2.0492   2.1943   2.2294   2.2570
     2.3525   2.5298

          k = 0.0323-0.0342 0.0000 ( 28583 PWs)   bands (ev):

   -63.8705 -63.7944 -63.7770 -63.6999 -63.6275 -63.5512 -37.8742 -37.8032
   -37.7819 -37.7519 -37.7378 -37.6867 -37.6744 -37.6510 -37.6128 -37.6103
   -37.5475 -37.5207 -37.4558 -37.2362 -37.1939 -37.1856 -37.1395 -37.1140
    -7.7467  -7.2991  -7.2912  -7.1908  -7.1653  -7.0943  -7.0570  -7.0091
    -6.9359  -6.9339  -6.9054  -6.8499  -6.7896  -6.6688  -6.6625  -6.6299
    -6.6231  -6.5613  -6.5314  -6.5247  -6.5109  -6.4828  -6.4358  -6.4253
    -6.3588  -6.3375  -6.2884  -6.2505  -6.2420  -6.1948  -6.0451  -5.6156
    -3.7184  -3.5311  -2.5282  -2.3408  -2.1258  -1.4020  -1.2162  -1.0028
    -0.8517  -0.8187  -0.4965  -0.4576  -0.3433  -0.2935  -0.0989  -0.0666
    -0.0593   0.1347   0.4813   0.5633   0.6932   0.8199   1.0375   1.2148
     1.2614   1.5483   1.7764   1.7952   2.0393   2.1637   2.2741   2.3241
     2.3687   2.4005

          k = 0.0323-0.0171 0.0000 ( 28564 PWs)   bands (ev):

   -63.8705 -63.7944 -63.7770 -63.6999 -63.6275 -63.5512 -37.8741 -37.8032
   -37.7818 -37.7519 -37.7377 -37.6866 -37.6740 -37.6510 -37.6124 -37.6104
   -37.5476 -37.5209 -37.4556 -37.2362 -37.1939 -37.1856 -37.1394 -37.1140
    -7.8333  -7.3094  -7.3021  -7.1990  -7.1792  -7.1000  -7.0741  -7.0127
    -6.9683  -6.9470  -6.9161  -6.8589  -6.7907  -6.6877  -6.6710  -6.6300
    -6.6238  -6.5634  -6.5396  -6.5261  -6.5157  -6.4877  -6.4366  -6.4339
    -6.3597  -6.3391  -6.2894  -6.2518  -6.2433  -6.1948  -6.0449  -5.6935
    -3.7128  -3.4797  -2.5063  -2.1460  -1.9012  -1.1841  -1.1055  -1.0821
    -0.8112  -0.7433  -0.4151  -0.3542  -0.2676  -0.1187  -0.0257  -0.0130
     0.2345   0.2472   0.4592   0.5618   0.6248   0.7858   1.0774   1.2192
     1.3308   1.4014   1.5225   1.6986   2.0566   2.0691   2.1571   2.2943
     2.3892   2.5475

          k = 0.0323-0.0000 0.0000 ( 28583 PWs)   bands (ev):

   -63.8705 -63.7944 -63.7770 -63.6999 -63.6275 -63.5512 -37.8740 -37.8032
   -37.7818 -37.7519 -37.7377 -37.6867 -37.6739 -37.6510 -37.6123 -37.6105
   -37.5477 -37.5210 -37.4555 -37.2361 -37.1939 -37.1856 -37.1395 -37.1140
    -7.8649  -7.3127  -7.3061  -7.2024  -7.1842  -7.1025  -7.0798  -7.0141
    -6.9780  -6.9518  -6.9200  -6.8624  -6.7910  -6.6950  -6.6740  -6.6301
    -6.6241  -6.5641  -6.5428  -6.5264  -6.5170  -6.4899  -6.4369  -6.4367
    -6.3598  -6.3396  -6.2897  -6.2522  -6.2437  -6.1948  -6.0449  -5.7206
    -3.7172  -3.4626  -2.4970  -2.1532  -1.5717  -1.3930  -1.0520  -0.9814
    -0.8061  -0.6951  -0.3994  -0.3339  -0.2444  -0.0597  -0.0156   0.0153
     0.2756   0.4367   0.5131   0.5936   0.6435   0.7296   0.9718   1.1249
     1.3862   1.4048   1.4337   1.6188   1.9547   2.0912   2.1755   2.2670
     2.4700   2.5757

          k = 0.0485 0.0257 0.0000 ( 28563 PWs)   bands (ev):

   -63.8636 -63.8014 -63.7700 -63.7070 -63.6206 -63.5582 -37.8677 -37.8097
   -37.7459 -37.7329 -37.6937 -37.6874 -37.6683 -37.6171 -37.6066 -37.6022
   -37.5536 -37.5149 -37.4616 -37.2874 -37.2384 -37.1883 -37.1642 -37.1444
    -7.5973  -7.2538  -7.2504  -7.1263  -7.0940  -7.0474  -7.0311  -7.0044
    -6.9291  -6.9155  -6.8834  -6.8112  -6.7511  -6.6972  -6.6825  -6.6606
    -6.5900  -6.5784  -6.5610  -6.5405  -6.5024  -6.4965  -6.4408  -6.4301
    -6.3909  -6.3718  -6.3270  -6.3061  -6.2934  -6.2354  -6.1265  -5.5033
    -4.0988  -3.5931  -3.0286  -2.2620  -1.9655  -1.2548  -1.0602  -0.9132
    -0.7078  -0.5587  -0.4749  -0.3260  -0.1736  -0.1333   0.0144   0.0224
     0.0646   0.1300   0.4443   0.5424   0.6394   0.6943   0.9949   1.1228
     1.1603   1.3160   1.5434   1.6505   2.0267   2.0561   2.1284   2.2259
     2.3526   2.5523

          k = 0.0485 0.0428 0.0000 ( 28543 PWs)   bands (ev):

   -63.8636 -63.8014 -63.7700 -63.7070 -63.6206 -63.5582 -37.8678 -37.8097
   -37.7459 -37.7330 -37.6937 -37.6874 -37.6687 -37.6170 -37.6070 -37.6022
   -37.5534 -37.5147 -37.4619 -37.2873 -37.2383 -37.1883 -37.1642 -37.1444
    -7.5029  -7.2447  -7.2378  -7.1101  -7.0870  -7.0295  -7.0277  -6.9961
    -6.9177  -6.8714  -6.8690  -6.8024  -6.7476  -6.6937  -6.6766  -6.6514
    -6.5890  -6.5694  -6.5597  -6.5328  -6.4969  -6.4912  -6.4323  -6.4291
    -6.3896  -6.3705  -6.3238  -6.3043  -6.2904  -6.2344  -6.1276  -5.4052
    -4.2103  -3.6162  -3.0427  -2.3698  -2.2297  -1.3966  -1.3140  -0.8362
    -0.8162  -0.6995  -0.6043  -0.4791  -0.2871  -0.2108  -0.1417  -0.0503
     0.0337   0.0928   0.4078   0.5822   0.7417   0.7883   0.9635   1.0284
     1.2406   1.4809   1.7136   1.8231   2.0281   2.0670   2.1880   2.2832
     2.4067   2.4488

          k = 0.0485 0.0599 0.0000 ( 28565 PWs)   bands (ev):

   -63.8636 -63.8014 -63.7700 -63.7071 -63.6206 -63.5582 -37.8680 -37.8096
   -37.7460 -37.7331 -37.6938 -37.6874 -37.6692 -37.6168 -37.6075 -37.6022
   -37.5532 -37.5145 -37.4621 -37.2874 -37.2384 -37.1884 -37.1643 -37.1444
    -7.4081  -7.2286  -7.2231  -7.0891  -7.0811  -7.0243  -7.0075  -6.9875
    -6.9054  -6.8514  -6.7988  -6.7941  -6.7408  -6.6929  -6.6689  -6.6388
    -6.5880  -6.5699  -6.5479  -6.5257  -6.4875  -6.4769  -6.4255  -6.4214
    -6.3864  -6.3675  -6.3179  -6.3023  -6.2808  -6.2299  -6.1290  -5.3036
    -4.3347  -3.7069  -3.0738  -2.6873  -2.1677  -1.7230  -1.4047  -1.0310
    -0.8763  -0.7384  -0.7285  -0.6701  -0.4345  -0.2538  -0.2086  -0.1548
     0.0004   0.1143   0.3710   0.6008   0.7282   0.9480   0.9490   0.9755
     1.2797   1.5761   1.7393   1.9823   2.0293   2.0456   2.1345   2.2001
     2.3597   2.6478

          k = 0.0485 0.0770 0.0000 ( 28555 PWs)   bands (ev):

   -63.8636 -63.8014 -63.7700 -63.7071 -63.6206 -63.5582 -37.8682 -37.8096
   -37.7459 -37.7332 -37.6938 -37.6874 -37.6696 -37.6166 -37.6079 -37.6021
   -37.5530 -37.5143 -37.4624 -37.2874 -37.2383 -37.1883 -37.1643 -37.1445
    -7.3484  -7.2104  -7.2067  -7.0773  -7.0684  -7.0218  -6.9878  -6.9807
    -6.8962  -6.8352  -6.7885  -6.7321  -6.7317  -6.6847  -6.6613  -6.6283
    -6.5871  -6.5723  -6.5425  -6.5209  -6.4865  -6.4487  -6.4128  -6.4113
    -6.3758  -6.3631  -6.3110  -6.3008  -6.2577  -6.1925  -6.1302  -5.2819
    -4.4397  -3.7763  -3.1122  -2.9848  -2.0716  -1.8508  -1.5686  -1.1251
    -1.1042  -0.8394  -0.8233  -0.6815  -0.5398  -0.3699  -0.2136  -0.1890
    -0.0455   0.1389   0.3594   0.5783   0.6840   0.8973   0.9846   1.1289
     1.3158   1.6048   1.7402   1.9259   2.0377   2.0755   2.1166   2.2115
     2.2892   2.6700

          k = 0.0485 0.0941 0.0000 ( 28542 PWs)   bands (ev):

   -63.8636 -63.8014 -63.7700 -63.7071 -63.6206 -63.5582 -37.8683 -37.8096
   -37.7459 -37.7333 -37.6938 -37.6875 -37.6699 -37.6165 -37.6081 -37.6021
   -37.5529 -37.5141 -37.4625 -37.2874 -37.2384 -37.1883 -37.1643 -37.1445
    -7.3250  -7.2031  -7.1905  -7.0758  -7.0549  -7.0208  -6.9773  -6.9759
    -6.8919  -6.8255  -6.7855  -6.7260  -6.7161  -6.6594  -6.6565  -6.6242
    -6.5866  -6.5732  -6.5428  -6.5189  -6.4868  -6.4410  -6.4055  -6.4041
    -6.3633  -6.3594  -6.3079  -6.3002  -6.2492  -6.1310  -6.0788  -5.3668
    -4.4994  -3.6730  -3.3121  -3.1384  -1.9501  -1.7455  -1.7356  -1.4383
    -1.0982  -0.8765  -0.8750  -0.6808  -0.5930  -0.4563  -0.2346  -0.1698
    -0.0775   0.1477   0.3606   0.5517   0.6527   0.8729   1.0208   1.2132
     1.3449   1.5997   1.7285   1.8939   2.0393   2.0962   2.1516   2.1970
     2.2142   2.6625

          k = 0.0485 0.1112 0.0000 ( 28542 PWs)   bands (ev):

   -63.8636 -63.8014 -63.7700 -63.7071 -63.6206 -63.5582 -37.8683 -37.8096
   -37.7459 -37.7333 -37.6938 -37.6875 -37.6699 -37.6165 -37.6081 -37.6021
   -37.5529 -37.5141 -37.4625 -37.2874 -37.2384 -37.1883 -37.1643 -37.1445
    -7.3250  -7.2031  -7.1905  -7.0758  -7.0549  -7.0208  -6.9773  -6.9759
    -6.8919  -6.8255  -6.7855  -6.7259  -6.7161  -6.6594  -6.6565  -6.6242
    -6.5866  -6.5732  -6.5428  -6.5189  -6.4868  -6.4410  -6.4055  -6.4041
    -6.3633  -6.3594  -6.3079  -6.3002  -6.2492  -6.1310  -6.0788  -5.3668
    -4.4994  -3.6730  -3.3121  -3.1384  -1.9501  -1.7455  -1.7356  -1.4383
    -1.0982  -0.8765  -0.8750  -0.6808  -0.5930  -0.4563  -0.2346  -0.1698
    -0.0775   0.1477   0.3606   0.5517   0.6527   0.8729   1.0208   1.2132
     1.3450   1.5997   1.7285   1.8939   2.0393   2.0962   2.1516   2.1970
     2.2142   2.6636

          k = 0.0485-0.0770 0.0000 ( 28555 PWs)   bands (ev):

   -63.8636 -63.8014 -63.7700 -63.7071 -63.6206 -63.5582 -37.8682 -37.8096
   -37.7459 -37.7332 -37.6938 -37.6874 -37.6696 -37.6166 -37.6079 -37.6021
   -37.5530 -37.5143 -37.4624 -37.2874 -37.2383 -37.1883 -37.1643 -37.1445
    -7.3484  -7.2104  -7.2067  -7.0773  -7.0684  -7.0218  -6.9878  -6.9807
    -6.8962  -6.8352  -6.7885  -6.7321  -6.7317  -6.6847  -6.6613  -6.6283
    -6.5871  -6.5723  -6.5424  -6.5209  -6.4865  -6.4488  -6.4128  -6.4113
    -6.3758  -6.3631  -6.3110  -6.3008  -6.2577  -6.1925  -6.1302  -5.2819
    -4.4397  -3.7763  -3.1122  -2.9848  -2.0716  -1.8508  -1.5686  -1.1251
    -1.1042  -0.8394  -0.8233  -0.6815  -0.5398  -0.3699  -0.2136  -0.1890
    -0.0455   0.1389   0.3594   0.5783   0.6840   0.8973   0.9846   1.1289
     1.3158   1.6048   1.7401   1.9259   2.0377   2.0755   2.1166   2.2115
     2.2892   2.6699

          k = 0.0485-0.0599 0.0000 ( 28565 PWs)   bands (ev):

   -63.8636 -63.8014 -63.7700 -63.7071 -63.6206 -63.5582 -37.8680 -37.8096
   -37.7460 -37.7331 -37.6938 -37.6874 -37.6692 -37.6168 -37.6075 -37.6022
   -37.5532 -37.5145 -37.4621 -37.2874 -37.2384 -37.1884 -37.1643 -37.1444
    -7.4081  -7.2286  -7.2231  -7.0891  -7.0811  -7.0243  -7.0075  -6.9875
    -6.9054  -6.8514  -6.7988  -6.7941  -6.7408  -6.6929  -6.6689  -6.6388
    -6.5880  -6.5699  -6.5479  -6.5257  -6.4875  -6.4769  -6.4255  -6.4214
    -6.3864  -6.3675  -6.3179  -6.3023  -6.2808  -6.2299  -6.1290  -5.3036
    -4.3347  -3.7069  -3.0738  -2.6873  -2.1677  -1.7230  -1.4047  -1.0309
    -0.8763  -0.7384  -0.7285  -0.6701  -0.4344  -0.2538  -0.2086  -0.1548
     0.0004   0.1143   0.3710   0.6008   0.7281   0.9480   0.9490   0.9754
     1.2798   1.5761   1.7393   1.9824   2.0293   2.0456   2.1346   2.2001
     2.3597   2.6478

          k = 0.0485-0.0428 0.0000 ( 28543 PWs)   bands (ev):

   -63.8636 -63.8014 -63.7700 -63.7070 -63.6206 -63.5582 -37.8678 -37.8097
   -37.7459 -37.7330 -37.6937 -37.6874 -37.6687 -37.6170 -37.6070 -37.6022
   -37.5534 -37.5147 -37.4619 -37.2873 -37.2383 -37.1883 -37.1642 -37.1444
    -7.5029  -7.2447  -7.2378  -7.1101  -7.0870  -7.0295  -7.0277  -6.9961
    -6.9177  -6.8714  -6.8690  -6.8024  -6.7476  -6.6937  -6.6766  -6.6514
    -6.5890  -6.5694  -6.5597  -6.5328  -6.4969  -6.4912  -6.4323  -6.4292
    -6.3896  -6.3705  -6.3238  -6.3043  -6.2904  -6.2344  -6.1276  -5.4052
    -4.2103  -3.6162  -3.0426  -2.3698  -2.2298  -1.3966  -1.3140  -0.8362
    -0.8161  -0.6995  -0.6043  -0.4791  -0.2870  -0.2108  -0.1416  -0.0504
     0.0337   0.0928   0.4078   0.5822   0.7417   0.7883   0.9635   1.0284
     1.2406   1.4809   1.7136   1.8231   2.0281   2.0670   2.1880   2.2832
     2.4069   2.4489

          k = 0.0485-0.0257 0.0000 ( 28563 PWs)   bands (ev):

   -63.8636 -63.8014 -63.7700 -63.7070 -63.6206 -63.5582 -37.8677 -37.8097
   -37.7459 -37.7329 -37.6937 -37.6874 -37.6683 -37.6171 -37.6066 -37.6022
   -37.5536 -37.5149 -37.4616 -37.2874 -37.2384 -37.1883 -37.1642 -37.1444
    -7.5973  -7.2538  -7.2504  -7.1263  -7.0940  -7.0474  -7.0311  -7.0044
    -6.9291  -6.9155  -6.8834  -6.8112  -6.7511  -6.6972  -6.6825  -6.6606
    -6.5900  -6.5784  -6.5610  -6.5405  -6.5024  -6.4965  -6.4408  -6.4301
    -6.3909  -6.3718  -6.3270  -6.3061  -6.2934  -6.2354  -6.1265  -5.5033
    -4.0988  -3.5931  -3.0286  -2.2620  -1.9655  -1.2548  -1.0602  -0.9132
    -0.7078  -0.5587  -0.4749  -0.3260  -0.1735  -0.1332   0.0144   0.0224
     0.0647   0.1300   0.4443   0.5424   0.6393   0.6943   0.9949   1.1228
     1.1603   1.3159   1.5434   1.6505   2.0268   2.0561   2.1284   2.2258
     2.3526   2.5524

          k = 0.0485-0.0086 0.0000 ( 28562 PWs)   bands (ev):

   -63.8636 -63.8014 -63.7700 -63.7070 -63.6206 -63.5582 -37.8676 -37.8098
   -37.7460 -37.7328 -37.6937 -37.6873 -37.6681 -37.6172 -37.6064 -37.6022
   -37.5537 -37.5151 -37.4615 -37.2874 -37.2384 -37.1884 -37.1642 -37.1444
    -7.6536  -7.2580  -7.2577  -7.1349  -7.0990  -7.0569  -7.0331  -7.0096
    -6.9358  -6.9344  -6.8913  -6.8168  -6.7524  -6.7015  -6.6855  -6.6644
    -6.5905  -6.5845  -6.5598  -6.5455  -6.5036  -6.5004  -6.4452  -6.4303
    -6.3914  -6.3722  -6.3285  -6.3070  -6.2946  -6.2357  -6.1259  -5.5584
    -4.0324  -3.5986  -3.0264  -2.2745  -1.5595  -1.2149  -1.1580  -0.7948
    -0.7126  -0.4384  -0.3252  -0.2946  -0.1592  -0.0641   0.0421   0.1197
     0.1541   0.3427   0.4332   0.5195   0.6003   0.6077   0.8530   1.0482
     1.1870   1.2081   1.4033   1.5688   1.8486   2.0190   2.1629   2.2463
     2.3349   2.4866

          k = 0.0485 0.0086 0.0000 ( 28562 PWs)   bands (ev):

   -63.8636 -63.8014 -63.7700 -63.7070 -63.6206 -63.5582 -37.8676 -37.8098
   -37.7460 -37.7328 -37.6937 -37.6873 -37.6681 -37.6172 -37.6064 -37.6022
   -37.5537 -37.5151 -37.4615 -37.2874 -37.2384 -37.1884 -37.1642 -37.1444
    -7.6536  -7.2580  -7.2577  -7.1349  -7.0990  -7.0569  -7.0331  -7.0096
    -6.9358  -6.9344  -6.8913  -6.8168  -6.7524  -6.7015  -6.6855  -6.6644
    -6.5905  -6.5845  -6.5598  -6.5455  -6.5036  -6.5004  -6.4452  -6.4303
    -6.3914  -6.3722  -6.3285  -6.3070  -6.2946  -6.2357  -6.1259  -5.5584
    -4.0324  -3.5986  -3.0264  -2.2745  -1.5595  -1.2149  -1.1580  -0.7948
    -0.7126  -0.4384  -0.3252  -0.2946  -0.1592  -0.0641   0.0421   0.1196
     0.1541   0.3427   0.4332   0.5195   0.6003   0.6076   0.8530   1.0482
     1.1870   1.2081   1.4033   1.5688   1.8486   2.0190   2.1630   2.2463
     2.3349   2.4867

          k = 0.0647 0.0342 0.0000 ( 28539 PWs)   bands (ev):

   -63.8545 -63.8106 -63.7608 -63.7163 -63.6115 -63.5674 -37.8593 -37.8183
   -37.7382 -37.7007 -37.6687 -37.6609 -37.6258 -37.6220 -37.5990 -37.5617
   -37.5394 -37.5072 -37.4695 -37.3537 -37.3054 -37.2301 -37.1815 -37.1508
    -7.3159  -7.1901  -7.1834  -7.0636  -7.0463  -7.0186  -6.9641  -6.9293
    -6.8840  -6.8408  -6.8198  -6.7622  -6.7572  -6.7211  -6.6811  -6.6783
    -6.6011  -6.5533  -6.5489  -6.5442  -6.5061  -6.4924  -6.4586  -6.4545
    -6.4250  -6.3976  -6.3759  -6.3673  -6.3363  -6.2768  -6.2350  -5.2359
    -4.7411  -3.5466  -3.4288  -2.4518  -1.9742  -1.4448  -1.0272  -0.8154
    -0.7384  -0.5488  -0.3944  -0.2317  -0.1398  -0.0974  -0.0419   0.0717
     0.1019   0.2254   0.4007   0.4420   0.6770   0.7445   0.8722   0.9540
     1.1058   1.2650   1.5471   1.5665   1.9415   1.9882   2.0750   2.0781
     2.3122   2.4211

          k = 0.0647 0.0513 0.0000 ( 28551 PWs)   bands (ev):

   -63.8545 -63.8106 -63.7608 -63.7163 -63.6115 -63.5674 -37.8594 -37.8182
   -37.7382 -37.7006 -37.6688 -37.6613 -37.6257 -37.6220 -37.5994 -37.5615
   -37.5394 -37.5070 -37.4697 -37.3537 -37.3054 -37.2301 -37.1815 -37.1508
    -7.2414  -7.1879  -7.1707  -7.0572  -7.0335  -7.0036  -6.9590  -6.9213
    -6.8676  -6.8094  -6.8046  -6.7591  -6.7520  -6.7144  -6.6801  -6.6648
    -6.5903  -6.5478  -6.5463  -6.5380  -6.5016  -6.4927  -6.4531  -6.4502
    -6.4240  -6.3962  -6.3771  -6.3644  -6.3191  -6.2549  -6.2371  -5.1332
    -4.8932  -3.5764  -3.4698  -2.4117  -2.3134  -1.4421  -1.3377  -1.0175
    -0.7082  -0.5568  -0.5543  -0.3952  -0.2339  -0.1079  -0.0446  -0.0410
     0.1245   0.1980   0.3905   0.5064   0.7098   0.8490   0.8731   0.8834
     1.1727   1.4111   1.5843   1.8446   1.8925   1.9916   2.0436   2.2091
     2.2423   2.4738

          k = 0.0647 0.0684 0.0000 ( 28539 PWs)   bands (ev):

   -63.8545 -63.8106 -63.7608 -63.7163 -63.6115 -63.5674 -37.8595 -37.8182
   -37.7382 -37.7006 -37.6689 -37.6617 -37.6256 -37.6220 -37.5998 -37.5613
   -37.5394 -37.5067 -37.4700 -37.3537 -37.3054 -37.2301 -37.1815 -37.1509
    -7.1860  -7.1815  -7.1575  -7.0524  -7.0160  -6.9870  -6.9551  -6.9149
    -6.8583  -6.7896  -6.7885  -6.7478  -6.7422  -6.7086  -6.6753  -6.6436
    -6.5846  -6.5471  -6.5391  -6.5340  -6.4984  -6.4897  -6.4462  -6.4392
    -6.4219  -6.3950  -6.3792  -6.3609  -6.3069  -6.2394  -6.1727  -5.0667
    -5.0316  -3.6303  -3.5391  -2.5969  -2.3519  -1.5441  -1.5221  -1.0680
    -0.7774  -0.6851  -0.6586  -0.4841  -0.3208  -0.1884  -0.1607   0.0131
     0.1036   0.2388   0.4058   0.5796   0.7064   0.8135   0.8785   0.9500
     1.2143   1.4802   1.5916   1.8309   1.8786   2.0060   2.0939   2.0960
     2.2985   2.3625

          k = 0.0647 0.0855 0.0000 ( 28530 PWs)   bands (ev):

   -63.8545 -63.8106 -63.7608 -63.7163 -63.6115 -63.5674 -37.8597 -37.8181
   -37.7382 -37.7006 -37.6690 -37.6620 -37.6255 -37.6219 -37.6001 -37.5610
   -37.5394 -37.5065 -37.4702 -37.3537 -37.3054 -37.2301 -37.1815 -37.1509
    -7.1840  -7.1480  -7.1475  -7.0495  -6.9996  -6.9732  -6.9538  -6.9121
    -6.8531  -6.7884  -6.7763  -6.7450  -6.7251  -6.7054  -6.6686  -6.6225
    -6.5836  -6.5467  -6.5395  -6.5325  -6.4969  -6.4880  -6.4403  -6.4285
    -6.4185  -6.3942  -6.3816  -6.3581  -6.3030  -6.2413  -6.0249  -5.1272
    -5.1005  -3.6793  -3.5173  -2.8904  -2.2977  -1.6255  -1.5319  -1.0438
    -1.0143  -0.7816  -0.6943  -0.4890  -0.3791  -0.2888  -0.2004   0.0415
     0.0998   0.2377   0.4585   0.6078   0.6939   0.7634   0.9115   1.0167
     1.2485   1.4837   1.5561   1.7585   1.8226   2.0709   2.0957   2.1176
     2.2626   2.3242

          k = 0.0647 0.1026 0.0000 ( 28506 PWs)   bands (ev):

   -63.8545 -63.8106 -63.7608 -63.7163 -63.6115 -63.5674 -37.8597 -37.8181
   -37.7382 -37.7006 -37.6690 -37.6621 -37.6254 -37.6219 -37.6002 -37.5609
   -37.5393 -37.5064 -37.4703 -37.3537 -37.3053 -37.2301 -37.1815 -37.1509
    -7.1834  -7.1438  -7.1373  -7.0484  -6.9925  -6.9670  -6.9542  -6.9117
    -6.8514  -6.7891  -6.7718  -6.7439  -6.7197  -6.7044  -6.6655  -6.6132
    -6.5842  -6.5466  -6.5412  -6.5323  -6.4965  -6.4879  -6.4380  -6.4256
    -6.4161  -6.3940  -6.3827  -6.3570  -6.3023  -6.2420  -5.9349  -5.1612
    -5.1550  -3.6986  -3.4247  -3.0827  -2.2754  -1.6681  -1.3895  -1.2710
    -0.9654  -0.8338  -0.7021  -0.4884  -0.3974  -0.3323  -0.2110   0.0437
     0.1118   0.2254   0.4903   0.6107   0.6878   0.7403   0.9326   1.0421
     1.2647   1.4732   1.5280   1.7317   1.8108   2.0980   2.1128   2.1407
     2.1882   2.3302

          k = 0.0647 0.1197 0.0000 ( 28530 PWs)   bands (ev):

   -63.8545 -63.8106 -63.7608 -63.7163 -63.6115 -63.5674 -37.8597 -37.8181
   -37.7382 -37.7006 -37.6690 -37.6620 -37.6255 -37.6219 -37.6001 -37.5610
   -37.5394 -37.5065 -37.4702 -37.3537 -37.3054 -37.2301 -37.1815 -37.1509
    -7.1840  -7.1480  -7.1475  -7.0495  -6.9996  -6.9732  -6.9538  -6.9121
    -6.8531  -6.7884  -6.7763  -6.7450  -6.7251  -6.7054  -6.6686  -6.6225
    -6.5836  -6.5467  -6.5395  -6.5325  -6.4969  -6.4880  -6.4403  -6.4285
    -6.4185  -6.3942  -6.3816  -6.3581  -6.3030  -6.2413  -6.0249  -5.1272
    -5.1005  -3.6793  -3.5173  -2.8904  -2.2977  -1.6255  -1.5318  -1.0438
    -1.0143  -0.7816  -0.6943  -0.4890  -0.3790  -0.2889  -0.2004   0.0415
     0.0997   0.2377   0.4585   0.6079   0.6938   0.7634   0.9115   1.0166
     1.2485   1.4837   1.5561   1.7585   1.8226   2.0709   2.0957   2.1176
     2.2626   2.3239

          k = 0.0647-0.0684 0.0000 ( 28539 PWs)   bands (ev):

   -63.8545 -63.8106 -63.7608 -63.7163 -63.6115 -63.5674 -37.8595 -37.8182
   -37.7382 -37.7006 -37.6689 -37.6617 -37.6256 -37.6220 -37.5998 -37.5613
   -37.5394 -37.5067 -37.4700 -37.3537 -37.3054 -37.2301 -37.1815 -37.1509
    -7.1860  -7.1815  -7.1575  -7.0524  -7.0160  -6.9870  -6.9551  -6.9149
    -6.8583  -6.7896  -6.7885  -6.7478  -6.7422  -6.7086  -6.6753  -6.6436
    -6.5846  -6.5471  -6.5391  -6.5340  -6.4984  -6.4897  -6.4462  -6.4392
    -6.4219  -6.3950  -6.3792  -6.3609  -6.3069  -6.2394  -6.1727  -5.0667
    -5.0316  -3.6303  -3.5391  -2.5969  -2.3520  -1.5441  -1.5221  -1.0679
    -0.7774  -0.6851  -0.6586  -0.4841  -0.3207  -0.1884  -0.1607   0.0131
     0.1036   0.2389   0.4058   0.5796   0.7064   0.8135   0.8785   0.9500
     1.2143   1.4802   1.5916   1.8310   1.8785   2.0060   2.0939   2.0961
     2.2985   2.3626

          k = 0.0647-0.0513 0.0000 ( 28551 PWs)   bands (ev):

   -63.8545 -63.8106 -63.7608 -63.7163 -63.6115 -63.5674 -37.8594 -37.8182
   -37.7382 -37.7006 -37.6688 -37.6613 -37.6257 -37.6220 -37.5994 -37.5615
   -37.5394 -37.5070 -37.4697 -37.3537 -37.3054 -37.2301 -37.1815 -37.1508
    -7.2414  -7.1879  -7.1707  -7.0572  -7.0335  -7.0036  -6.9590  -6.9213
    -6.8676  -6.8094  -6.8046  -6.7591  -6.7520  -6.7144  -6.6801  -6.6648
    -6.5903  -6.5478  -6.5463  -6.5380  -6.5016  -6.4927  -6.4531  -6.4502
    -6.4240  -6.3962  -6.3771  -6.3644  -6.3191  -6.2549  -6.2371  -5.1332
    -4.8932  -3.5764  -3.4698  -2.4117  -2.3134  -1.4422  -1.3376  -1.0174
    -0.7082  -0.5568  -0.5543  -0.3953  -0.2339  -0.1078  -0.0446  -0.0410
     0.1245   0.1980   0.3905   0.5064   0.7097   0.8489   0.8731   0.8834
     1.1727   1.4111   1.5843   1.8447   1.8926   1.9913   2.0436   2.2091
     2.2425   2.4784

          k = 0.0647-0.0342 0.0000 ( 28539 PWs)   bands (ev):

   -63.8545 -63.8106 -63.7608 -63.7163 -63.6115 -63.5674 -37.8593 -37.8183
   -37.7382 -37.7007 -37.6687 -37.6609 -37.6258 -37.6220 -37.5990 -37.5617
   -37.5394 -37.5072 -37.4695 -37.3537 -37.3054 -37.2301 -37.1815 -37.1508
    -7.3159  -7.1901  -7.1834  -7.0636  -7.0463  -7.0186  -6.9641  -6.9293
    -6.8840  -6.8408  -6.8198  -6.7622  -6.7572  -6.7211  -6.6811  -6.6783
    -6.6011  -6.5533  -6.5488  -6.5442  -6.5061  -6.4924  -6.4586  -6.4545
    -6.4250  -6.3976  -6.3759  -6.3673  -6.3363  -6.2768  -6.2350  -5.2359
    -4.7411  -3.5466  -3.4288  -2.4518  -1.9743  -1.4448  -1.0271  -0.8154
    -0.7384  -0.5488  -0.3945  -0.2317  -0.1398  -0.0974  -0.0419   0.0717
     0.1019   0.2254   0.4007   0.4420   0.6769   0.7445   0.8722   0.9540
     1.1058   1.2649   1.5471   1.5665   1.9415   1.9882   2.0750   2.0780
     2.3122   2.4210

          k = 0.0647-0.0171 0.0000 ( 28518 PWs)   bands (ev):

   -63.8546 -63.8106 -63.7608 -63.7163 -63.6115 -63.5674 -37.8591 -37.8183
   -37.7382 -37.7006 -37.6686 -37.6606 -37.6259 -37.6220 -37.5986 -37.5619
   -37.5394 -37.5074 -37.4692 -37.3538 -37.3054 -37.2301 -37.1815 -37.1508
    -7.3778  -7.1924  -7.1918  -7.0696  -7.0529  -7.0289  -6.9686  -6.9356
    -6.9028  -6.8553  -6.8303  -6.7622  -6.7618  -6.7257  -6.6850  -6.6803
    -6.6105  -6.5556  -6.5509  -6.5490  -6.5102  -6.4901  -6.4620  -6.4561
    -6.4253  -6.3986  -6.3756  -6.3690  -6.3460  -6.2818  -6.2336  -5.3149
    -4.6162  -3.5488  -3.4290  -2.4647  -1.5946  -1.4716  -0.9357  -0.6708
    -0.5524  -0.5471  -0.2360  -0.1966  -0.1377  -0.1114   0.0160   0.0178
     0.2522   0.2985   0.4221   0.4684   0.5854   0.6440   0.8292   0.9461
     1.0248   1.1282   1.3521   1.5027   1.7651   1.9657   1.9741   2.1229
     2.2348   2.4453

          k = 0.0647-0.0000 0.0000 ( 28533 PWs)   bands (ev):

   -63.8546 -63.8106 -63.7608 -63.7163 -63.6115 -63.5674 -37.8591 -37.8184
   -37.7382 -37.7006 -37.6686 -37.6605 -37.6259 -37.6220 -37.5986 -37.5620
   -37.5394 -37.5075 -37.4692 -37.3538 -37.3054 -37.2301 -37.1815 -37.1508
    -7.4015  -7.1956  -7.1925  -7.0720  -7.0550  -7.0326  -6.9704  -6.9380
    -6.9103  -6.8590  -6.8340  -6.7637  -6.7621  -6.7273  -6.6871  -6.6798
    -6.6140  -6.5559  -6.5530  -6.5496  -6.5117  -6.4889  -6.4631  -6.4568
    -6.4253  -6.3990  -6.3756  -6.3696  -6.3488  -6.2828  -6.2331  -5.3435
    -4.5663  -3.5567  -3.4340  -2.4652  -1.4836  -1.3315  -1.0958  -0.5921
    -0.4647  -0.3327  -0.3043  -0.2675  -0.1580  -0.0774   0.0172   0.0687
     0.3348   0.3382   0.4473   0.5101   0.5144   0.5891   0.7778   0.8336
     1.0568   1.0578   1.3071   1.4801   1.6410   1.9626   1.9728   2.1392
     2.2190   2.4686

          k = 0.0647 0.0171 0.0000 ( 28518 PWs)   bands (ev):

   -63.8546 -63.8106 -63.7608 -63.7163 -63.6115 -63.5674 -37.8591 -37.8183
   -37.7382 -37.7006 -37.6686 -37.6606 -37.6259 -37.6220 -37.5986 -37.5619
   -37.5394 -37.5074 -37.4692 -37.3538 -37.3054 -37.2301 -37.1815 -37.1508
    -7.3778  -7.1924  -7.1918  -7.0696  -7.0529  -7.0289  -6.9686  -6.9356
    -6.9028  -6.8553  -6.8303  -6.7622  -6.7618  -6.7257  -6.6850  -6.6803
    -6.6105  -6.5556  -6.5509  -6.5490  -6.5102  -6.4901  -6.4620  -6.4561
    -6.4253  -6.3986  -6.3756  -6.3690  -6.3460  -6.2818  -6.2336  -5.3149
    -4.6162  -3.5488  -3.4290  -2.4647  -1.5946  -1.4716  -0.9357  -0.6708
    -0.5524  -0.5471  -0.2360  -0.1966  -0.1377  -0.1114   0.0160   0.0178
     0.2522   0.2985   0.4221   0.4684   0.5854   0.6440   0.8292   0.9461
     1.0248   1.1282   1.3521   1.5027   1.7651   1.9657   1.9741   2.1229
     2.2348   2.4454

          k = 0.0809 0.0428 0.0000 ( 28521 PWs)   bands (ev):

   -63.8440 -63.8212 -63.7501 -63.7271 -63.6009 -63.5781 -37.8494 -37.8282
   -37.7292 -37.7097 -37.6521 -37.6333 -37.5935 -37.5901 -37.5708 -37.5475
   -37.4981 -37.4786 -37.4657 -37.4305 -37.3830 -37.3055 -37.1742 -37.1583
    -7.1745  -7.1193  -7.0673  -7.0288  -6.9907  -6.9777  -6.9324  -6.9007
    -6.8173  -6.7802  -6.7776  -6.7435  -6.7096  -6.6864  -6.6810  -6.6225
    -6.5981  -6.5565  -6.5448  -6.5371  -6.5322  -6.5140  -6.4837  -6.4740
    -6.4526  -6.4417  -6.4216  -6.3931  -6.3676  -6.3538  -6.2146  -5.3557
    -4.8948  -4.0370  -3.2222  -2.7060  -1.9189  -1.6368  -1.0360  -0.9844
    -0.6223  -0.4413  -0.4018  -0.2029  -0.1452  -0.0099   0.0288   0.1197
     0.1612   0.3147   0.3773   0.4884   0.6702   0.7216   0.8272   0.9056
     0.9775   1.2443   1.4342   1.5617   1.7029   1.8593   2.0292   2.0356
     2.3318   2.3392

          k = 0.0809 0.0599 0.0000 ( 28537 PWs)   bands (ev):

   -63.8440 -63.8212 -63.7501 -63.7271 -63.6009 -63.5781 -37.8496 -37.8281
   -37.7292 -37.7097 -37.6525 -37.6330 -37.5937 -37.5905 -37.5705 -37.5476
   -37.4979 -37.4789 -37.4657 -37.4305 -37.3830 -37.3055 -37.1743 -37.1583
    -7.1597  -7.1140  -7.0613  -7.0147  -6.9822  -6.9647  -6.9262  -6.9046
    -6.8144  -6.7785  -6.7784  -6.7308  -6.7062  -6.6859  -6.6489  -6.6166
    -6.5934  -6.5526  -6.5459  -6.5333  -6.5319  -6.5166  -6.4827  -6.4738
    -6.4493  -6.4440  -6.4190  -6.3930  -6.3640  -6.3540  -6.0892  -5.5231
    -4.8100  -4.0964  -3.2664  -2.6695  -2.1862  -1.5483  -1.2113  -1.0613
    -0.5929  -0.5544  -0.4468  -0.2451  -0.2294  -0.0954   0.0267   0.1084
     0.1745   0.3890   0.4007   0.5220   0.6831   0.7347   0.7652   0.9193
     1.0089   1.3460   1.4245   1.6786   1.7308   1.8857   1.9118   2.1340
     2.1852   2.3335

          k = 0.0809 0.0770 0.0000 ( 28515 PWs)   bands (ev):

   -63.8440 -63.8212 -63.7501 -63.7271 -63.6009 -63.5781 -37.8497 -37.8280
   -37.7292 -37.7097 -37.6529 -37.6327 -37.5938 -37.5908 -37.5703 -37.5477
   -37.4976 -37.4791 -37.4657 -37.4304 -37.3829 -37.3055 -37.1742 -37.1583
    -7.1502  -7.1095  -7.0543  -7.0036  -6.9714  -6.9521  -6.9202  -6.9114
    -6.8113  -6.7796  -6.7769  -6.7204  -6.7046  -6.6850  -6.6264  -6.6077
    -6.5886  -6.5530  -6.5496  -6.5378  -6.5270  -6.5188  -6.4817  -6.4696
    -6.4485  -6.4474  -6.4177  -6.3931  -6.3624  -6.3541  -5.9149  -5.6526
    -4.7927  -4.1663  -3.2844  -2.6418  -2.4394  -1.5167  -1.2521  -1.0086
    -0.6630  -0.6493  -0.5203  -0.2876  -0.2591  -0.2086  -0.0227   0.0728
     0.2663   0.4461   0.4495   0.5646   0.6829   0.7283   0.7709   0.9094
     1.0445   1.3601   1.3785   1.6116   1.7337   1.7484   2.0025   2.1427
     2.1729   2.3249

          k = 0.0809 0.0941 0.0000 ( 28518 PWs)   bands (ev):

   -63.8440 -63.8212 -63.7501 -63.7271 -63.6009 -63.5781 -37.8498 -37.8280
   -37.7292 -37.7097 -37.6531 -37.6326 -37.5938 -37.5909 -37.5701 -37.5477
   -37.4975 -37.4793 -37.4658 -37.4304 -37.3829 -37.3055 -37.1742 -37.1583
    -7.1458  -7.1071  -7.0494  -6.9978  -6.9622  -6.9446  -6.9184  -6.9158
    -6.8094  -6.7807  -6.7760  -6.7163  -6.7038  -6.6825  -6.6129  -6.6003
    -6.5858  -6.5558  -6.5557  -6.5404  -6.5242  -6.5198  -6.4810  -6.4646
    -6.4534  -6.4468  -6.4172  -6.3934  -6.3619  -6.3542  -5.7670  -5.7228
    -4.8424  -4.2107  -3.2238  -2.6584  -2.6323  -1.5113  -1.1365  -0.8913
    -0.8874  -0.7491  -0.5099  -0.3146  -0.2797  -0.2508  -0.0450   0.0323
     0.3411   0.4522   0.4683   0.6194   0.6740   0.7032   0.8158   0.9167
     1.0692   1.3108   1.3382   1.5347   1.6325   1.7841   2.0490   2.1689
     2.1803   2.2423

          k = 0.0809 0.1112 0.0000 ( 28518 PWs)   bands (ev):

   -63.8440 -63.8212 -63.7501 -63.7271 -63.6009 -63.5781 -37.8498 -37.8280
   -37.7292 -37.7097 -37.6531 -37.6326 -37.5938 -37.5909 -37.5701 -37.5477
   -37.4975 -37.4793 -37.4658 -37.4304 -37.3829 -37.3055 -37.1742 -37.1583
    -7.1458  -7.1071  -7.0494  -6.9978  -6.9622  -6.9446  -6.9184  -6.9158
    -6.8094  -6.7807  -6.7760  -6.7163  -6.7038  -6.6825  -6.6129  -6.6003
    -6.5858  -6.5558  -6.5557  -6.5404  -6.5242  -6.5198  -6.4810  -6.4646
    -6.4534  -6.4468  -6.4172  -6.3934  -6.3619  -6.3542  -5.7670  -5.7228
    -4.8424  -4.2107  -3.2238  -2.6584  -2.6323  -1.5113  -1.1365  -0.8913
    -0.8875  -0.7491  -0.5099  -0.3146  -0.2797  -0.2508  -0.0450   0.0323
     0.3411   0.4522   0.4683   0.6194   0.6740   0.7032   0.8158   0.9167
     1.0692   1.3108   1.3382   1.5347   1.6325   1.7841   2.0491   2.1689
     2.1810   2.2423

          k = 0.0809 0.1283 0.0000 ( 28515 PWs)   bands (ev):

   -63.8440 -63.8212 -63.7501 -63.7271 -63.6009 -63.5781 -37.8497 -37.8280
   -37.7292 -37.7097 -37.6529 -37.6327 -37.5938 -37.5908 -37.5703 -37.5477
   -37.4976 -37.4791 -37.4657 -37.4304 -37.3829 -37.3055 -37.1742 -37.1583
    -7.1502  -7.1095  -7.0543  -7.0036  -6.9714  -6.9521  -6.9202  -6.9114
    -6.8113  -6.7796  -6.7769  -6.7204  -6.7046  -6.6850  -6.6264  -6.6077
    -6.5886  -6.5530  -6.5496  -6.5378  -6.5270  -6.5188  -6.4817  -6.4696
    -6.4485  -6.4474  -6.4177  -6.3931  -6.3624  -6.3541  -5.9149  -5.6526
    -4.7926  -4.1663  -3.2844  -2.6418  -2.4394  -1.5167  -1.2520  -1.0086
    -0.6630  -0.6493  -0.5204  -0.2876  -0.2591  -0.2086  -0.0226   0.0728
     0.2663   0.4461   0.4495   0.5646   0.6829   0.7284   0.7709   0.9094
     1.0445   1.3601   1.3785   1.6116   1.7337   1.7484   2.0025   2.1427
     2.1729   2.3250

          k = 0.0809-0.0599 0.0000 ( 28537 PWs)   bands (ev):

   -63.8440 -63.8212 -63.7501 -63.7271 -63.6009 -63.5781 -37.8496 -37.8281
   -37.7292 -37.7097 -37.6525 -37.6330 -37.5937 -37.5905 -37.5705 -37.5476
   -37.4979 -37.4789 -37.4657 -37.4305 -37.3830 -37.3055 -37.1743 -37.1583
    -7.1597  -7.1140  -7.0613  -7.0147  -6.9822  -6.9647  -6.9262  -6.9046
    -6.8144  -6.7785  -6.7784  -6.7308  -6.7062  -6.6859  -6.6489  -6.6166
    -6.5934  -6.5526  -6.5459  -6.5333  -6.5319  -6.5166  -6.4827  -6.4738
    -6.4493  -6.4440  -6.4191  -6.3930  -6.3640  -6.3540  -6.0892  -5.5231
    -4.8100  -4.0964  -3.2664  -2.6695  -2.1862  -1.5483  -1.2112  -1.0612
    -0.5929  -0.5544  -0.4468  -0.2451  -0.2294  -0.0954   0.0267   0.1084
     0.1745   0.3890   0.4007   0.5220   0.6830   0.7347   0.7652   0.9192
     1.0089   1.3460   1.4245   1.6786   1.7308   1.8857   1.9118   2.1340
     2.1853   2.3334

          k = 0.0809-0.0428 0.0000 ( 28521 PWs)   bands (ev):

   -63.8440 -63.8212 -63.7501 -63.7271 -63.6009 -63.5781 -37.8494 -37.8282
   -37.7292 -37.7097 -37.6521 -37.6333 -37.5935 -37.5901 -37.5708 -37.5475
   -37.4981 -37.4786 -37.4657 -37.4305 -37.3830 -37.3055 -37.1742 -37.1583
    -7.1745  -7.1193  -7.0673  -7.0288  -6.9908  -6.9777  -6.9324  -6.9007
    -6.8173  -6.7802  -6.7776  -6.7435  -6.7096  -6.6864  -6.6810  -6.6225
    -6.5981  -6.5565  -6.5448  -6.5371  -6.5322  -6.5140  -6.4837  -6.4740
    -6.4526  -6.4417  -6.4216  -6.3931  -6.3676  -6.3538  -6.2146  -5.3557
    -4.8948  -4.0370  -3.2222  -2.7061  -1.9190  -1.6369  -1.0359  -0.9843
    -0.6223  -0.4413  -0.4018  -0.2029  -0.1452  -0.0100   0.0289   0.1197
     0.1612   0.3148   0.3773   0.4884   0.6702   0.7216   0.8272   0.9055
     0.9775   1.2443   1.4342   1.5617   1.7029   1.8592   2.0292   2.0355
     2.3319   2.3383

          k = 0.0809-0.0257 0.0000 ( 28487 PWs)   bands (ev):

   -63.8440 -63.8212 -63.7501 -63.7271 -63.6009 -63.5781 -37.8493 -37.8283
   -37.7291 -37.7097 -37.6518 -37.6335 -37.5934 -37.5897 -37.5710 -37.5474
   -37.4983 -37.4784 -37.4657 -37.4306 -37.3830 -37.3055 -37.1742 -37.1583
    -7.1923  -7.1239  -7.0709  -7.0415  -6.9963  -6.9878  -6.9379  -6.8995
    -6.8191  -6.7816  -6.7774  -6.7533  -6.7280  -6.7028  -6.6880  -6.6244
    -6.6002  -6.5626  -6.5448  -6.5411  -6.5341  -6.5118  -6.4843  -6.4696
    -6.4562  -6.4421  -6.4251  -6.3935  -6.3732  -6.3535  -6.2768  -5.1852
    -4.9854  -4.0235  -3.2102  -2.7197  -1.7555  -1.6171  -0.8957  -0.7946
    -0.6015  -0.4034  -0.3106  -0.1806  -0.1733  -0.0492  -0.0250   0.1725
     0.2209   0.3366   0.3493   0.5316   0.6568   0.6937   0.8361   0.9032
     0.9653   1.0804   1.3324   1.4281   1.6120   1.7861   1.9362   2.1067
     2.1825   2.3462

          k = 0.0809-0.0086 0.0000 ( 28491 PWs)   bands (ev):

   -63.8440 -63.8212 -63.7501 -63.7271 -63.6009 -63.5781 -37.8492 -37.8283
   -37.7291 -37.7097 -37.6516 -37.6336 -37.5934 -37.5895 -37.5712 -37.5473
   -37.4985 -37.4782 -37.4657 -37.4306 -37.3830 -37.3055 -37.1742 -37.1583
    -7.2055  -7.1264  -7.0724  -7.0487  -6.9991  -6.9933  -6.9412  -6.8996
    -6.8193  -6.7827  -6.7777  -6.7582  -6.7515  -6.7058  -6.6895  -6.6242
    -6.6004  -6.5672  -6.5453  -6.5433  -6.5357  -6.5107  -6.4846  -6.4647
    -6.4586  -6.4442  -6.4279  -6.3938  -6.3775  -6.3533  -6.2982  -5.0682
    -5.0395  -4.0449  -3.2159  -2.7069  -1.8429  -1.3504  -0.9433  -0.5524
    -0.4860  -0.4158  -0.3114  -0.2204  -0.1669  -0.1131  -0.1059   0.2319
     0.2524   0.2978   0.4538   0.6189   0.6238   0.6794   0.7646   0.8674
     0.9332   1.0732   1.1711   1.4243   1.4543   1.6602   1.9682   2.1424
     2.1508   2.3486

          k = 0.0809 0.0086 0.0000 ( 28491 PWs)   bands (ev):

   -63.8440 -63.8212 -63.7501 -63.7271 -63.6009 -63.5781 -37.8492 -37.8283
   -37.7291 -37.7097 -37.6516 -37.6336 -37.5934 -37.5895 -37.5712 -37.5473
   -37.4985 -37.4782 -37.4657 -37.4306 -37.3830 -37.3055 -37.1742 -37.1583
    -7.2055  -7.1264  -7.0724  -7.0487  -6.9991  -6.9933  -6.9412  -6.8996
    -6.8193  -6.7827  -6.7777  -6.7582  -6.7515  -6.7058  -6.6895  -6.6242
    -6.6004  -6.5672  -6.5453  -6.5433  -6.5357  -6.5107  -6.4846  -6.4647
    -6.4586  -6.4442  -6.4279  -6.3938  -6.3775  -6.3533  -6.2982  -5.0682
    -5.0395  -4.0449  -3.2159  -2.7068  -1.8429  -1.3504  -0.9434  -0.5525
    -0.4860  -0.4158  -0.3113  -0.2204  -0.1669  -0.1131  -0.1059   0.2319
     0.2524   0.2978   0.4538   0.6189   0.6238   0.6794   0.7646   0.8674
     0.9332   1.0732   1.1711   1.4243   1.4543   1.6602   1.9682   2.1424
     2.1507   2.3486

          k = 0.0809 0.0257 0.0000 ( 28487 PWs)   bands (ev):

   -63.8440 -63.8212 -63.7501 -63.7271 -63.6009 -63.5781 -37.8493 -37.8283
   -37.7291 -37.7097 -37.6518 -37.6335 -37.5934 -37.5897 -37.5710 -37.5474
   -37.4983 -37.4784 -37.4657 -37.4306 -37.3830 -37.3055 -37.1742 -37.1583
    -7.1923  -7.1239  -7.0709  -7.0415  -6.9963  -6.9878  -6.9379  -6.8995
    -6.8191  -6.7816  -6.7774  -6.7533  -6.7280  -6.7028  -6.6880  -6.6244
    -6.6002  -6.5626  -6.5448  -6.5411  -6.5341  -6.5118  -6.4843  -6.4696
    -6.4562  -6.4421  -6.4251  -6.3935  -6.3732  -6.3535  -6.2768  -5.1852
    -4.9854  -4.0235  -3.2102  -2.7197  -1.7555  -1.6171  -0.8957  -0.7946
    -0.6015  -0.4034  -0.3106  -0.1806  -0.1733  -0.0491  -0.0250   0.1725
     0.2209   0.3365   0.3493   0.5316   0.6568   0.6936   0.8361   0.9032
     0.9653   1.0804   1.3324   1.4280   1.6119   1.7861   1.9362   2.1066
     2.1825   2.3461

          k =-0.0970-0.0513 0.0000 ( 28506 PWs)   bands (ev):

   -63.8326 -63.8326 -63.7387 -63.7386 -63.5896 -63.5894 -37.8389 -37.8388
   -37.7195 -37.7194 -37.6428 -37.6427 -37.5805 -37.5805 -37.5124 -37.5123
   -37.4885 -37.4883 -37.4657 -37.4655 -37.3860 -37.3857 -37.1664 -37.1662
    -7.1310  -7.1309  -7.0115  -7.0115  -6.9527  -6.9527  -6.8824  -6.8824
    -6.8587  -6.8587  -6.6784  -6.6784  -6.6596  -6.6596  -6.6246  -6.6246
    -6.5788  -6.5788  -6.5615  -6.5615  -6.5321  -6.5321  -6.5192  -6.5192
    -6.4360  -6.4360  -6.4238  -6.4238  -6.4042  -6.4042  -5.8835  -5.8834
    -4.4904  -4.4904  -2.9764  -2.9764  -1.8017  -1.8016  -1.0424  -1.0424
    -0.5251  -0.5251  -0.2897  -0.2896  -0.0781  -0.0780   0.1416   0.1416
     0.2338   0.2338   0.5374   0.5374   0.6348   0.6348   0.8117   0.8117
     1.1648   1.1649   1.3567   1.3567   1.7617   1.7618   2.0259   2.0260
     2.2949   2.2952

          k =-0.0970-0.0342 0.0000 ( 28486 PWs)   bands (ev):

   -63.8326 -63.8326 -63.7387 -63.7386 -63.5896 -63.5894 -37.8390 -37.8387
   -37.7195 -37.7194 -37.6430 -37.6424 -37.5807 -37.5801 -37.5124 -37.5122
   -37.4887 -37.4881 -37.4657 -37.4655 -37.3860 -37.3858 -37.1664 -37.1662
    -7.1364  -7.1254  -7.0176  -7.0021  -6.9563  -6.9521  -6.8928  -6.8697
    -6.8588  -6.8557  -6.6867  -6.6801  -6.6594  -6.6578  -6.6222  -6.6213
    -6.5842  -6.5746  -6.5649  -6.5589  -6.5336  -6.5305  -6.5201  -6.5191
    -6.4388  -6.4339  -6.4245  -6.4238  -6.4055  -6.4044  -6.0307  -5.7000
    -4.5741  -4.4416  -3.0052  -2.9501  -2.0003  -1.6063  -1.0217  -0.9906
    -0.5656  -0.4628  -0.3269  -0.2993  -0.1450  -0.0770   0.1205   0.1389
     0.2161   0.3010   0.5282   0.5714   0.6179   0.7072   0.7531   0.8681
     1.1010   1.1627   1.2794   1.4201   1.5600   1.8375   1.9160   2.1205
     2.2246   2.3216

          k =-0.0970-0.0171 0.0000 ( 28502 PWs)   bands (ev):

   -63.8326 -63.8326 -63.7387 -63.7386 -63.5896 -63.5894 -37.8391 -37.8386
   -37.7195 -37.7194 -37.6433 -37.6422 -37.5810 -37.5799 -37.5125 -37.5122
   -37.4889 -37.4879 -37.4657 -37.4654 -37.3861 -37.3858 -37.1664 -37.1662
    -7.1403  -7.1212  -7.0207  -6.9905  -6.9635  -6.9531  -6.8987  -6.8673
    -6.8534  -6.8457  -6.7050  -6.6824  -6.6576  -6.6570  -6.6165  -6.6144
    -6.5893  -6.5740  -6.5683  -6.5573  -6.5347  -6.5290  -6.5216  -6.5193
    -6.4413  -6.4325  -6.4256  -6.4239  -6.4083  -6.4049  -6.1211  -5.5274
    -4.6438  -4.4588  -2.9879  -2.9465  -2.1873  -1.4387  -0.9230  -0.8989
    -0.5947  -0.4989  -0.3451  -0.3324  -0.2161  -0.0862   0.0799   0.1148
     0.2044   0.4010   0.5495   0.5861   0.6733   0.6916   0.8278   0.9006
     0.9895   1.1287   1.2085   1.3953   1.4591   1.6163   1.9846   2.1817
     2.1847   2.2767

          k =-0.0970 0.0000 0.0000 ( 28474 PWs)   bands (ev):

   -63.8326 -63.8326 -63.7387 -63.7386 -63.5896 -63.5894 -37.8391 -37.8386
   -37.7195 -37.7194 -37.6434 -37.6421 -37.5811 -37.5797 -37.5125 -37.5121
   -37.4889 -37.4879 -37.4657 -37.4654 -37.3860 -37.3858 -37.1664 -37.1661
    -7.1417  -7.1196  -7.0215  -6.9823  -6.9699  -6.9537  -6.9005  -6.8677
    -6.8526  -6.8366  -6.7157  -6.6831  -6.6577  -6.6560  -6.6141  -6.6090
    -6.5916  -6.5765  -6.5688  -6.5568  -6.5350  -6.5284  -6.5223  -6.5193
    -6.4423  -6.4320  -6.4263  -6.4240  -6.4100  -6.4052  -6.1506  -5.4498
    -4.6701  -4.4860  -2.9588  -2.9488  -2.2768  -1.3695  -0.8826  -0.7512
    -0.6428  -0.6227  -0.3484  -0.3161  -0.2401  -0.0755   0.0352   0.1134
     0.1998   0.4473   0.5417   0.6152   0.7074   0.7278   0.7714   0.9114
     1.0797   1.0949   1.1063   1.3070   1.4720   1.5382   2.0041   2.1768
     2.2083   2.2652

          k =-0.0970 0.0171 0.0000 ( 28502 PWs)   bands (ev):

   -63.8326 -63.8326 -63.7387 -63.7386 -63.5896 -63.5894 -37.8391 -37.8386
   -37.7195 -37.7194 -37.6433 -37.6422 -37.5810 -37.5799 -37.5125 -37.5122
   -37.4889 -37.4879 -37.4657 -37.4654 -37.3861 -37.3858 -37.1664 -37.1662
    -7.1403  -7.1212  -7.0207  -6.9905  -6.9635  -6.9531  -6.8987  -6.8673
    -6.8534  -6.8457  -6.7050  -6.6824  -6.6576  -6.6570  -6.6165  -6.6144
    -6.5893  -6.5740  -6.5683  -6.5573  -6.5347  -6.5290  -6.5216  -6.5193
    -6.4413  -6.4325  -6.4256  -6.4239  -6.4083  -6.4049  -6.1210  -5.5274
    -4.6438  -4.4588  -2.9879  -2.9465  -2.1873  -1.4388  -0.9230  -0.8989
    -0.5947  -0.4989  -0.3451  -0.3324  -0.2160  -0.0862   0.0799   0.1148
     0.2044   0.4010   0.5496   0.5861   0.6733   0.6916   0.8278   0.9006
     0.9894   1.1287   1.2085   1.3954   1.4591   1.6162   1.9846   2.1817
     2.1847   2.2767

          k =-0.0970 0.0342 0.0000 ( 28486 PWs)   bands (ev):

   -63.8326 -63.8326 -63.7387 -63.7386 -63.5896 -63.5894 -37.8390 -37.8387
   -37.7195 -37.7194 -37.6430 -37.6424 -37.5807 -37.5801 -37.5124 -37.5122
   -37.4887 -37.4881 -37.4657 -37.4655 -37.3860 -37.3858 -37.1664 -37.1662
    -7.1364  -7.1254  -7.0176  -7.0021  -6.9563  -6.9521  -6.8928  -6.8697
    -6.8588  -6.8557  -6.6867  -6.6801  -6.6594  -6.6578  -6.6222  -6.6213
    -6.5842  -6.5746  -6.5649  -6.5589  -6.5336  -6.5305  -6.5201  -6.5191
    -6.4388  -6.4339  -6.4245  -6.4238  -6.4055  -6.4044  -6.0307  -5.7000
    -4.5741  -4.4416  -3.0052  -2.9501  -2.0003  -1.6063  -1.0217  -0.9905
    -0.5656  -0.4628  -0.3269  -0.2993  -0.1450  -0.0770   0.1205   0.1389
     0.2161   0.3011   0.5282   0.5714   0.6179   0.7073   0.7531   0.8681
     1.1009   1.1627   1.2794   1.4201   1.5600   1.8375   1.9158   2.1204
     2.2246   2.3215

          k =-0.0970-0.1539 0.0000 ( 28506 PWs)   bands (ev):

   -63.8326 -63.8326 -63.7387 -63.7386 -63.5896 -63.5894 -37.8389 -37.8388
   -37.7195 -37.7194 -37.6428 -37.6427 -37.5805 -37.5805 -37.5124 -37.5123
   -37.4885 -37.4883 -37.4657 -37.4655 -37.3860 -37.3857 -37.1664 -37.1662
    -7.1310  -7.1309  -7.0115  -7.0115  -6.9527  -6.9527  -6.8824  -6.8824
    -6.8587  -6.8587  -6.6784  -6.6784  -6.6596  -6.6596  -6.6246  -6.6246
    -6.5788  -6.5788  -6.5615  -6.5615  -6.5321  -6.5321  -6.5192  -6.5192
    -6.4360  -6.4360  -6.4238  -6.4238  -6.4042  -6.4042  -5.8834  -5.8834
    -4.4904  -4.4904  -2.9764  -2.9764  -1.8017  -1.8016  -1.0424  -1.0423
    -0.5251  -0.5251  -0.2897  -0.2896  -0.0781  -0.0781   0.1416   0.1416
     0.2338   0.2338   0.5374   0.5374   0.6348   0.6348   0.8117   0.8117
     1.1648   1.1649   1.3567   1.3567   1.7617   1.7618   2.0259   2.0260
     2.2947   2.2948

     the Fermi energy is     0.4571 ev

!    total energy              =   -1775.16265679 Ry
     estimated scf accuracy    <       0.00000991 Ry
     smearing contrib. (-TS)   =      -0.06605738 Ry
     internal energy E=F+TS    =   -1775.09659941 Ry

     The total energy is F=E-TS. E is the sum of the following terms:
     one-electron contribution =  -13874.00577035 Ry
     hartree contribution      =    7003.51043773 Ry
     xc contribution           =    -417.56841534 Ry
     ewald contribution        =    5512.96714405 Ry
     electric field correction =       0.00000449 Ry

     convergence has been achieved in  18 iterations

     negative rho (up, down):  1.500E-03 0.000E+00

     Forces acting on atoms (cartesian axes, Ry/au):

     atom    1 type  1   force =    -0.00000514    0.01111085    0.02416821
     atom    2 type  1   force =     0.00000222    0.01112320    0.02419510
     atom    3 type  2   force =    -0.00000745   -0.00382375   -0.02201422
     atom    4 type  2   force =     0.00003317   -0.00384010   -0.02200495
     atom    5 type  1   force =    -0.00000887   -0.00993914   -0.00010284
     atom    6 type  1   force =     0.00000123   -0.00993095   -0.00011335
     atom    7 type  2   force =    -0.00001367    0.00666976    0.00059565
     atom    8 type  2   force =     0.00002407    0.00669089    0.00058495
     atom    9 type  1   force =     0.00000248   -0.00130628   -0.00274154
     atom   10 type  1   force =     0.00000724   -0.00131393   -0.00274528
     atom   11 type  2   force =     0.00002395   -0.00270907    0.00007862
     atom   12 type  2   force =    -0.00005922   -0.00273148    0.00009965

     Total force =     0.052303     Total SCF correction =     0.004958

     Writing output data file ./V2Zn2/V2Zn2_beef.save/

     init_run     :     82.12s CPU     82.54s WALL (       1 calls)
     electrons    :   2846.94s CPU   2922.07s WALL (       1 calls)
     forces       :     45.42s CPU     45.65s WALL (       1 calls)

     Called by init_run:
     wfcinit      :     61.08s CPU     61.36s WALL (       1 calls)
     potinit      :     13.98s CPU     14.03s WALL (       1 calls)
     hinit0       :      4.94s CPU      4.95s WALL (       1 calls)

     Called by electrons:
     c_bands      :   2508.63s CPU   2577.74s WALL (      18 calls)
     sum_band     :    304.51s CPU    307.75s WALL (      18 calls)
     v_of_rho     :     30.74s CPU     31.82s WALL (      19 calls)
     newd         :     15.03s CPU     16.57s WALL (      19 calls)
     mix_rho      :      0.58s CPU      0.60s WALL (      18 calls)
     vdW_kernel   :     10.00s CPU     10.00s WALL (       1 calls)

     Called by c_bands:
     init_us_2    :      8.34s CPU      8.45s WALL (    2812 calls)
     cegterg      :   2478.60s CPU   2544.99s WALL (    1332 calls)

     Called by *egterg:
     cdiaghg      :    162.98s CPU    163.58s WALL (    7230 calls)
     h_psi        :   1239.18s CPU   1297.87s WALL (    7304 calls)
     s_psi        :    195.28s CPU    196.22s WALL (    7304 calls)
     g_psi        :      1.28s CPU      1.30s WALL (    5898 calls)

     Called by h_psi:
     h_psi:calbec :    452.91s CPU    456.77s WALL (    7304 calls)
     vloc_psi     :    568.11s CPU    621.71s WALL (    7304 calls)
     add_vuspsi   :    215.15s CPU    216.39s WALL (    7304 calls)

     General routines
     calbec       :    671.69s CPU    676.20s WALL (    8932 calls)
     fft          :     17.52s CPU     18.14s WALL (    1256 calls)
     ffts         :      0.08s CPU      0.09s WALL (      37 calls)
     fftw         :    634.25s CPU    688.77s WALL (  687660 calls)
     interpolate  :      0.22s CPU      0.23s WALL (      19 calls)

     Parallel routines
     fft_scatt_xy :     38.14s CPU     38.62s WALL (  688953 calls)
     fft_scatt_yz :    266.92s CPU    316.62s WALL (  688953 calls)

     PWSCF        :  51m18.02s CPU  53m20.45s WALL


   This run was terminated on:   3:22:42  10Jul2022            

=------------------------------------------------------------------------------=
   JOB DONE.
=------------------------------------------------------------------------------=
