
     Program PWSCF v.6.6 starts on 26Jun2022 at  8:41:10 

     This program is part of the open-source Quantum ESPRESSO suite
     for quantum simulation of materials; please cite
         "P. Giannozzi et al., J. Phys.:Condens. Matter 21 395502 (2009);
         "P. Giannozzi et al., J. Phys.:Condens. Matter 29 465901 (2017);
          URL http://www.quantum-espresso.org", 
     in publications or presentations arising from this work. More details at
     http://www.quantum-espresso.org/quote

     Parallel version (MPI), running on    37 processors

     MPI processes distributed on     1 nodes
     R & G space division:  proc/nbgrp/npool/nimage =      37
     Fft bands division:     nmany     =       1
     Reading input from V2Zr2.in
Warning: card &CELL ignored
Warning: card / ignored

     Current dimensions of program PWSCF are:
     Max number of different atomic species (ntypx) = 10
     Max number of k-points (npk) =  40000
     Max angular momentum in pseudopotentials (lmaxx) =  3
     Presently stress not available with electric field and gates

     Message from routine cell_base_init:
     DEPRECATED: use true lattice parameter, not A to a.u. conversion factor
     file V.pbe-spnl-rrkjus_psl.1.0.0.UPF: wavefunction(s)  3P 3D renormalized
     file Zr.pbe-spn-rrkjus_psl.1.0.0.UPF: wavefunction(s)  4S renormalized

     **************************************************************************
     Initializing libbeef V0.1.2 with the BEEF-vdW functional.
     Citation: Wellendorff et al., PRB 85, 235149 (2012).
     **************************************************************************


     IMPORTANT: XC functional enforced from input :
     Exchange-correlation= BEEF-VDW
                           (   1   4  43  14   2   0   0)
     Any further DFT definition will be discarded
     Please, verify this is what you really want


     Subspace diagonalization in iterative solution of the eigenvalue problem:
     a serial algorithm will be used


     Parallelization info
     --------------------
     sticks:   dense  smooth     PW     G-vecs:    dense   smooth      PW
     Min         131      52     14                30557     7726    1144
     Max         132      54     15                30576     7747    1171
     Sum        4865    1949    553              1130917   286165   42877



     bravais-lattice index     =            0
     lattice parameter (alat)  =       1.8897  a.u.
     unit-cell volume          =    5173.7498 (a.u.)^3
     number of atoms/cell      =           12
     number of atomic types    =            2
     number of electrons       =       150.00
     number of Kohn-Sham states=           90
     kinetic-energy cutoff     =      55.1240  Ry
     charge density cutoff     =     551.2396  Ry
     convergence threshold     =      1.0E-05
     mixing beta               =       0.1000
     number of iterations used =           10  plain     mixing
     Exchange-correlation= BEEF-VDW
                           (   1   4  43  14   2   0   0)

     celldm(1)=   1.889726  celldm(2)=   0.000000  celldm(3)=   0.000000
     celldm(4)=   0.000000  celldm(5)=   0.000000  celldm(6)=   0.000000

     crystal axes: (cart. coord. in units of alat)
               a(1) = (   5.739384   0.000000   0.000000 )  
               a(2) = (   1.913103   5.411152   0.000000 )  
               a(3) = (   0.000000   0.000000  24.686180 )  

     reciprocal axes: (cart. coord. in units 2 pi/alat)
               b(1) = (  0.174235 -0.061600  0.000000 )  
               b(2) = (  0.000000  0.184804  0.000000 )  
               b(3) = (  0.000000  0.000000  0.040508 )  


     PseudoPot. # 1 for V  read from file:
     ../pseudo/V.pbe-spnl-rrkjus_psl.1.0.0.UPF
     MD5 check sum: 79b3eb63147daf0b665d9f1bcc691206
     Pseudo is Ultrasoft + core correction, Zval = 13.0
     Generated using "atomic" code by A. Dal Corso v.6.2.2
     Using radial grid of 1181 points,  6 beta functions with: 
                l(1) =   0
                l(2) =   0
                l(3) =   1
                l(4) =   1
                l(5) =   2
                l(6) =   2
     Q(r) pseudized with 0 coefficients 


     PseudoPot. # 2 for Zr read from file:
     ../pseudo/Zr.pbe-spn-rrkjus_psl.1.0.0.UPF
     MD5 check sum: 3d17ee99aa1707c2ccb6b09ed65e51a1
     Pseudo is Ultrasoft + core correction, Zval = 12.0
     Generated using "atomic" code by A. Dal Corso v.6.2.2
     Using radial grid of 1225 points,  6 beta functions with: 
                l(1) =   0
                l(2) =   0
                l(3) =   1
                l(4) =   1
                l(5) =   2
                l(6) =   2
     Q(r) pseudized with 0 coefficients 


     atomic species   valence    mass     pseudopotential
        V             13.00    50.94150     V ( 1.00)
        Zr            12.00    91.22400     Zr( 1.00)

     No symmetry found



   Cartesian axes

     site n.     atom                  positions (alat units)
         1           V   tau(   1) = (   0.0000000   0.0000000  10.0000000  )
         2           V   tau(   2) = (   3.8262437   2.7055759  10.0000000  )
         3           Zr  tau(   3) = (   2.8696920   0.0000000  10.0000000  )
         4           Zr  tau(   4) = (   0.9565517   2.7055759  10.0000000  )
         5           V   tau(   5) = (   5.7393840   4.0583768  12.3430899  )
         6           V   tau(   6) = (   1.9131402   1.3528009  12.3430899  )
         7           Zr  tau(   7) = (   2.8696920   4.0583768  12.3430899  )
         8           Zr  tau(   8) = (   4.7828322   1.3528009  12.3430899  )
         9           V   tau(   9) = (   3.8262576   2.7055814  14.4615955  )
        10           V   tau(  10) = (   0.0000543   0.0000429  14.4616414  )
        11           Zr  tau(  11) = (   0.9566114   2.7055496  14.6654180  )
        12           Zr  tau(  12) = (   2.8696854   0.0000636  14.6654174  )

     number of k points=    74  Fermi-Dirac smearing, width (Ry)=  0.0100
                       cart. coord. in units 2pi/alat
        k(    1) = (   0.0000000   0.0000000   0.0000000), wk =   0.0138889
        k(    2) = (   0.0000000   0.0154003   0.0000000), wk =   0.0277778
        k(    3) = (   0.0000000   0.0308006   0.0000000), wk =   0.0277778
        k(    4) = (   0.0000000   0.0462009   0.0000000), wk =   0.0277778
        k(    5) = (   0.0000000   0.0616012   0.0000000), wk =   0.0277778
        k(    6) = (   0.0000000   0.0770015   0.0000000), wk =   0.0277778
        k(    7) = (   0.0000000  -0.0924018   0.0000000), wk =   0.0138889
        k(    8) = (   0.0145196  -0.0051334   0.0000000), wk =   0.0277778
        k(    9) = (   0.0145196   0.0102669   0.0000000), wk =   0.0277778
        k(   10) = (   0.0145196   0.0256672   0.0000000), wk =   0.0277778
        k(   11) = (   0.0145196   0.0410675   0.0000000), wk =   0.0277778
        k(   12) = (   0.0145196   0.0564678   0.0000000), wk =   0.0277778
        k(   13) = (   0.0145196   0.0718681   0.0000000), wk =   0.0277778
        k(   14) = (   0.0145196  -0.0975351   0.0000000), wk =   0.0277778
        k(   15) = (   0.0145196  -0.0821348   0.0000000), wk =   0.0277778
        k(   16) = (   0.0145196  -0.0667345   0.0000000), wk =   0.0277778
        k(   17) = (   0.0145196  -0.0513342   0.0000000), wk =   0.0277778
        k(   18) = (   0.0145196  -0.0359340   0.0000000), wk =   0.0277778
        k(   19) = (   0.0145196  -0.0205337   0.0000000), wk =   0.0277778
        k(   20) = (   0.0290391  -0.0102667   0.0000000), wk =   0.0277778
        k(   21) = (   0.0290391   0.0051336   0.0000000), wk =   0.0277778
        k(   22) = (   0.0290391   0.0205339   0.0000000), wk =   0.0277778
        k(   23) = (   0.0290391   0.0359342   0.0000000), wk =   0.0277778
        k(   24) = (   0.0290391   0.0513344   0.0000000), wk =   0.0277778
        k(   25) = (   0.0290391   0.0667347   0.0000000), wk =   0.0277778
        k(   26) = (   0.0290391  -0.1026685   0.0000000), wk =   0.0277778
        k(   27) = (   0.0290391  -0.0872682   0.0000000), wk =   0.0277778
        k(   28) = (   0.0290391  -0.0718679   0.0000000), wk =   0.0277778
        k(   29) = (   0.0290391  -0.0564676   0.0000000), wk =   0.0277778
        k(   30) = (   0.0290391  -0.0410673   0.0000000), wk =   0.0277778
        k(   31) = (   0.0290391  -0.0256670   0.0000000), wk =   0.0277778
        k(   32) = (   0.0435587  -0.0154001   0.0000000), wk =   0.0277778
        k(   33) = (   0.0435587   0.0000002   0.0000000), wk =   0.0277778
        k(   34) = (   0.0435587   0.0154005   0.0000000), wk =   0.0277778
        k(   35) = (   0.0435587   0.0308008   0.0000000), wk =   0.0277778
        k(   36) = (   0.0435587   0.0462011   0.0000000), wk =   0.0277778
        k(   37) = (   0.0435587   0.0616014   0.0000000), wk =   0.0277778
        k(   38) = (   0.0435587  -0.1078019   0.0000000), wk =   0.0277778
        k(   39) = (   0.0435587  -0.0924016   0.0000000), wk =   0.0277778
        k(   40) = (   0.0435587  -0.0770013   0.0000000), wk =   0.0277778
        k(   41) = (   0.0435587  -0.0616010   0.0000000), wk =   0.0277778
        k(   42) = (   0.0435587  -0.0462007   0.0000000), wk =   0.0277778
        k(   43) = (   0.0435587  -0.0308004   0.0000000), wk =   0.0277778
        k(   44) = (   0.0580782  -0.0205335   0.0000000), wk =   0.0277778
        k(   45) = (   0.0580782  -0.0051332   0.0000000), wk =   0.0277778
        k(   46) = (   0.0580782   0.0102671   0.0000000), wk =   0.0277778
        k(   47) = (   0.0580782   0.0256674   0.0000000), wk =   0.0277778
        k(   48) = (   0.0580782   0.0410677   0.0000000), wk =   0.0277778
        k(   49) = (   0.0580782   0.0564680   0.0000000), wk =   0.0277778
        k(   50) = (   0.0580782  -0.1129352   0.0000000), wk =   0.0277778
        k(   51) = (   0.0580782  -0.0975349   0.0000000), wk =   0.0277778
        k(   52) = (   0.0580782  -0.0821346   0.0000000), wk =   0.0277778
        k(   53) = (   0.0580782  -0.0667343   0.0000000), wk =   0.0277778
        k(   54) = (   0.0580782  -0.0513340   0.0000000), wk =   0.0277778
        k(   55) = (   0.0580782  -0.0359338   0.0000000), wk =   0.0277778
        k(   56) = (   0.0725978  -0.0256668   0.0000000), wk =   0.0277778
        k(   57) = (   0.0725978  -0.0102665   0.0000000), wk =   0.0277778
        k(   58) = (   0.0725978   0.0051338   0.0000000), wk =   0.0277778
        k(   59) = (   0.0725978   0.0205341   0.0000000), wk =   0.0277778
        k(   60) = (   0.0725978   0.0359344   0.0000000), wk =   0.0277778
        k(   61) = (   0.0725978   0.0513346   0.0000000), wk =   0.0277778
        k(   62) = (   0.0725978  -0.1180686   0.0000000), wk =   0.0277778
        k(   63) = (   0.0725978  -0.1026683   0.0000000), wk =   0.0277778
        k(   64) = (   0.0725978  -0.0872680   0.0000000), wk =   0.0277778
        k(   65) = (   0.0725978  -0.0718677   0.0000000), wk =   0.0277778
        k(   66) = (   0.0725978  -0.0564674   0.0000000), wk =   0.0277778
        k(   67) = (   0.0725978  -0.0410671   0.0000000), wk =   0.0277778
        k(   68) = (  -0.0871174   0.0308002   0.0000000), wk =   0.0138889
        k(   69) = (  -0.0871174   0.0462005   0.0000000), wk =   0.0277778
        k(   70) = (  -0.0871174   0.0616008   0.0000000), wk =   0.0277778
        k(   71) = (  -0.0871174   0.0770011   0.0000000), wk =   0.0277778
        k(   72) = (  -0.0871174   0.0924014   0.0000000), wk =   0.0277778
        k(   73) = (  -0.0871174   0.1078017   0.0000000), wk =   0.0277778
        k(   74) = (  -0.0871174  -0.0616016   0.0000000), wk =   0.0138889

     Dense  grid:  1130917 G-vectors     FFT dimensions: (  81,  81, 360)

     Smooth grid:   286165 G-vectors     FFT dimensions: (  54,  54, 225)

     Estimated max dynamical RAM per process >     220.78 MB

     Estimated total dynamical RAM >       7.98 GB

     Initial potential from superposition of free atoms

     starting charge  149.98164, renormalised to  150.00000

     negative rho (up, down):  1.179E-03 0.000E+00


     %%%%%%%%%%%%%%%%%%%%%%%%%%%%%%%%%%%%%%%%%%%%%%%%%%%%%%%%%%%%%%%%%%%%%%%%
     %                                                                      %
     % You are using vdW-DF, which was implemented by the Thonhauser group. %
     % Please cite the following two papers that made this development      %
     % possible and the two reviews that describe the various versions:     %
     %                                                                      %
     %   T. Thonhauser et al., PRL 115, 136402 (2015).                      %
     %   T. Thonhauser et al., PRB 76, 125112 (2007).                       %
     %   K. Berland et al., Rep. Prog. Phys. 78, 066501 (2015).             %
     %   D.C. Langreth et al., J. Phys.: Condens. Matter 21, 084203 (2009). %
     %                                                                      %
     %                                                                      %
     % If you are calculating the stress with vdW-DF, please also cite:     %
     %                                                                      %
     %   R. Sabatini et al., J. Phys.: Condens. Matter 24, 424209 (2012).   %
     %                                                                      %
     %%%%%%%%%%%%%%%%%%%%%%%%%%%%%%%%%%%%%%%%%%%%%%%%%%%%%%%%%%%%%%%%%%%%%%%%



     Adding external electric field

     Computed dipole along edir(3) : 
        Dipole                0.0005 Ry au,          0.0013 Debye
        Dipole field          0.0000 Ry au, 

        Potential amp.       -0.0001 Ry
        Total length         45.4839 bohr

     Starting wfcs are  138 randomized atomic wfcs

     total cpu time spent up to now is      622.6 secs

     Self-consistent Calculation

     iteration #  1     ecut=    55.12 Ry     beta= 0.10
     Davidson diagonalization with overlap
     ethr =  1.00E-02,  avg # of iterations =  2.0

     negative rho (up, down):  1.103E-03 0.000E+00

     Adding external electric field

     Computed dipole along edir(3) : 
        Dipole               -0.8779 Ry au,         -2.2314 Debye
        Dipole field         -0.0021 Ry au, 

        Potential amp.        0.1940 Ry
        Total length         45.4839 bohr


     total cpu time spent up to now is      877.1 secs

     total energy              =   -1475.89895786 Ry
     estimated scf accuracy    <      13.23653450 Ry

     iteration #  2     ecut=    55.12 Ry     beta= 0.10
     Davidson diagonalization with overlap
     ethr =  8.82E-03,  avg # of iterations =  3.2

     negative rho (up, down):  2.129E-03 0.000E+00

     Adding external electric field

     Computed dipole along edir(3) : 
        Dipole                0.9166 Ry au,          2.3298 Debye
        Dipole field          0.0022 Ry au, 

        Potential amp.       -0.2025 Ry
        Total length         45.4839 bohr


     total cpu time spent up to now is     1121.9 secs

     total energy              =   -1475.59464104 Ry
     estimated scf accuracy    <      68.74031090 Ry

     iteration #  3     ecut=    55.12 Ry     beta= 0.10
     Davidson diagonalization with overlap
     ethr =  8.82E-03,  avg # of iterations =  1.9

     negative rho (up, down):  2.823E-03 0.000E+00

     Adding external electric field

     Computed dipole along edir(3) : 
        Dipole                0.0264 Ry au,          0.0670 Debye
        Dipole field          0.0001 Ry au, 

        Potential amp.       -0.0058 Ry
        Total length         45.4839 bohr


     total cpu time spent up to now is     1338.9 secs

     total energy              =   -1476.61776044 Ry
     estimated scf accuracy    <      47.99667149 Ry

     iteration #  4     ecut=    55.12 Ry     beta= 0.10
     Davidson diagonalization with overlap
     ethr =  8.82E-03,  avg # of iterations =  1.0

     negative rho (up, down):  2.838E-03 0.000E+00

     Adding external electric field

     Computed dipole along edir(3) : 
        Dipole                0.0992 Ry au,          0.2521 Debye
        Dipole field          0.0002 Ry au, 

        Potential amp.       -0.0219 Ry
        Total length         45.4839 bohr


     total cpu time spent up to now is     1535.0 secs

     total energy              =   -1477.26638632 Ry
     estimated scf accuracy    <       1.49799768 Ry

     iteration #  5     ecut=    55.12 Ry     beta= 0.10
     Davidson diagonalization with overlap
     ethr =  9.99E-04,  avg # of iterations =  2.9

     negative rho (up, down):  1.411E-03 0.000E+00

     Adding external electric field

     Computed dipole along edir(3) : 
        Dipole               -0.1557 Ry au,         -0.3958 Debye
        Dipole field         -0.0004 Ry au, 

        Potential amp.        0.0344 Ry
        Total length         45.4839 bohr


     total cpu time spent up to now is     1766.6 secs

     total energy              =   -1477.20408834 Ry
     estimated scf accuracy    <       0.54282147 Ry

     iteration #  6     ecut=    55.12 Ry     beta= 0.10
     Davidson diagonalization with overlap
     ethr =  3.62E-04,  avg # of iterations =  4.7

     negative rho (up, down):  1.391E-03 0.000E+00

     Adding external electric field

     Computed dipole along edir(3) : 
        Dipole                0.0068 Ry au,          0.0172 Debye
        Dipole field          0.0000 Ry au, 

        Potential amp.       -0.0015 Ry
        Total length         45.4839 bohr


     total cpu time spent up to now is     2029.1 secs

     total energy              =   -1477.26220790 Ry
     estimated scf accuracy    <       3.68707777 Ry

     iteration #  7     ecut=    55.12 Ry     beta= 0.10
     Davidson diagonalization with overlap
     ethr =  3.62E-04,  avg # of iterations =  1.2

     negative rho (up, down):  1.547E-03 0.000E+00

     Adding external electric field

     Computed dipole along edir(3) : 
        Dipole                0.1460 Ry au,          0.3711 Debye
        Dipole field          0.0004 Ry au, 

        Potential amp.       -0.0323 Ry
        Total length         45.4839 bohr


     total cpu time spent up to now is     2228.4 secs

     total energy              =   -1477.26965856 Ry
     estimated scf accuracy    <       0.20880774 Ry

     iteration #  8     ecut=    55.12 Ry     beta= 0.10
     Davidson diagonalization with overlap
     c_bands:  1 eigenvalues not converged
     ethr =  1.39E-04,  avg # of iterations = 10.0

     negative rho (up, down):  1.439E-03 0.000E+00

     Adding external electric field

     Computed dipole along edir(3) : 
        Dipole                0.0683 Ry au,          0.1735 Debye
        Dipole field          0.0002 Ry au, 

        Potential amp.       -0.0151 Ry
        Total length         45.4839 bohr


     total cpu time spent up to now is     2680.2 secs

     total energy              =   -1477.28306460 Ry
     estimated scf accuracy    <       0.49425543 Ry

     iteration #  9     ecut=    55.12 Ry     beta= 0.10
     Davidson diagonalization with overlap
     ethr =  1.39E-04,  avg # of iterations =  1.3

     negative rho (up, down):  1.403E-03 0.000E+00

     Adding external electric field

     Computed dipole along edir(3) : 
        Dipole                0.0261 Ry au,          0.0662 Debye
        Dipole field          0.0001 Ry au, 

        Potential amp.       -0.0058 Ry
        Total length         45.4839 bohr


     total cpu time spent up to now is     3092.2 secs

     total energy              =   -1477.28749730 Ry
     estimated scf accuracy    <       0.12634391 Ry

     iteration # 10     ecut=    55.12 Ry     beta= 0.10
     Davidson diagonalization with overlap
     ethr =  8.42E-05,  avg # of iterations =  1.3

     negative rho (up, down):  2.940E-03 0.000E+00

     Adding external electric field

     Computed dipole along edir(3) : 
        Dipole               -0.0143 Ry au,         -0.0364 Debye
        Dipole field         -0.0000 Ry au, 

        Potential amp.        0.0032 Ry
        Total length         45.4839 bohr


     total cpu time spent up to now is     3406.9 secs

     total energy              =   -1477.28858243 Ry
     estimated scf accuracy    <       0.01885098 Ry

     iteration # 11     ecut=    55.12 Ry     beta= 0.10
     Davidson diagonalization with overlap
     c_bands:  1 eigenvalues not converged
     c_bands:  2 eigenvalues not converged
     c_bands:  1 eigenvalues not converged
     c_bands:  1 eigenvalues not converged
     c_bands:  1 eigenvalues not converged
     c_bands:  2 eigenvalues not converged
     c_bands:  2 eigenvalues not converged
     c_bands:  1 eigenvalues not converged
     c_bands:  1 eigenvalues not converged
     c_bands:  1 eigenvalues not converged
     c_bands:  1 eigenvalues not converged
     c_bands:  1 eigenvalues not converged
     c_bands:  2 eigenvalues not converged
     c_bands:  1 eigenvalues not converged
     c_bands:  1 eigenvalues not converged
     c_bands:  2 eigenvalues not converged
     c_bands:  1 eigenvalues not converged
     ethr =  1.26E-05,  avg # of iterations = 13.6

     negative rho (up, down):  3.003E-03 0.000E+00

     Adding external electric field

     Computed dipole along edir(3) : 
        Dipole                0.0188 Ry au,          0.0478 Debye
        Dipole field          0.0000 Ry au, 

        Potential amp.       -0.0042 Ry
        Total length         45.4839 bohr


     total cpu time spent up to now is     3835.9 secs

     total energy              =   -1477.29361564 Ry
     estimated scf accuracy    <       0.49381300 Ry

     iteration # 12     ecut=    55.12 Ry     beta= 0.10
     Davidson diagonalization with overlap
     c_bands:  2 eigenvalues not converged
     c_bands:  2 eigenvalues not converged
     c_bands:  1 eigenvalues not converged
     c_bands:  1 eigenvalues not converged
     ethr =  1.26E-05,  avg # of iterations =  4.2

     negative rho (up, down):  2.907E-03 0.000E+00

     Adding external electric field

     Computed dipole along edir(3) : 
        Dipole                0.0602 Ry au,          0.1529 Debye
        Dipole field          0.0001 Ry au, 

        Potential amp.       -0.0133 Ry
        Total length         45.4839 bohr


     total cpu time spent up to now is     4065.7 secs

     total energy              =   -1477.29075061 Ry
     estimated scf accuracy    <       0.32715878 Ry

     iteration # 13     ecut=    55.12 Ry     beta= 0.10
     Davidson diagonalization with overlap
     c_bands:  1 eigenvalues not converged
     ethr =  1.26E-05,  avg # of iterations =  2.7

     negative rho (up, down):  3.144E-03 0.000E+00

     Adding external electric field

     Computed dipole along edir(3) : 
        Dipole                0.0474 Ry au,          0.1206 Debye
        Dipole field          0.0001 Ry au, 

        Potential amp.       -0.0105 Ry
        Total length         45.4839 bohr


     total cpu time spent up to now is     4352.0 secs

     total energy              =   -1477.29155511 Ry
     estimated scf accuracy    <       0.03247992 Ry

     iteration # 14     ecut=    55.12 Ry     beta= 0.10
     Davidson diagonalization with overlap
     ethr =  1.26E-05,  avg # of iterations =  1.1

     negative rho (up, down):  2.987E-03 0.000E+00

     Adding external electric field

     Computed dipole along edir(3) : 
        Dipole                0.0341 Ry au,          0.0866 Debye
        Dipole field          0.0001 Ry au, 

        Potential amp.       -0.0075 Ry
        Total length         45.4839 bohr


     total cpu time spent up to now is     4578.4 secs

     total energy              =   -1477.29252319 Ry
     estimated scf accuracy    <       0.00240734 Ry

     iteration # 15     ecut=    55.12 Ry     beta= 0.10
     Davidson diagonalization with overlap
     c_bands:  1 eigenvalues not converged
     c_bands:  1 eigenvalues not converged
     c_bands:  1 eigenvalues not converged
     c_bands:  2 eigenvalues not converged
     c_bands:  1 eigenvalues not converged
     c_bands:  1 eigenvalues not converged
     c_bands:  1 eigenvalues not converged
     c_bands:  1 eigenvalues not converged
     c_bands:  1 eigenvalues not converged
     c_bands:  2 eigenvalues not converged
     c_bands:  1 eigenvalues not converged
     c_bands:  1 eigenvalues not converged
     c_bands:  1 eigenvalues not converged
     c_bands:  1 eigenvalues not converged
     c_bands:  1 eigenvalues not converged
     c_bands:  1 eigenvalues not converged
     c_bands:  1 eigenvalues not converged
     c_bands:  1 eigenvalues not converged
     c_bands:  1 eigenvalues not converged
     c_bands:  2 eigenvalues not converged
     c_bands:  2 eigenvalues not converged
     ethr =  1.60E-06,  avg # of iterations = 12.8

     negative rho (up, down):  2.990E-03 0.000E+00

     Adding external electric field

     Computed dipole along edir(3) : 
        Dipole                0.0273 Ry au,          0.0693 Debye
        Dipole field          0.0001 Ry au, 

        Potential amp.       -0.0060 Ry
        Total length         45.4839 bohr


     total cpu time spent up to now is     4926.7 secs

     total energy              =   -1477.29287102 Ry
     estimated scf accuracy    <       0.00329927 Ry

     iteration # 16     ecut=    55.12 Ry     beta= 0.10
     Davidson diagonalization with overlap
     c_bands:  1 eigenvalues not converged
     c_bands:  1 eigenvalues not converged
     c_bands:  1 eigenvalues not converged
     c_bands:  1 eigenvalues not converged
     c_bands:  1 eigenvalues not converged
     c_bands:  1 eigenvalues not converged
     c_bands:  1 eigenvalues not converged
     c_bands:  1 eigenvalues not converged
     c_bands:  2 eigenvalues not converged
     ethr =  1.60E-06,  avg # of iterations =  4.5

     negative rho (up, down):  2.553E-03 0.000E+00

     Adding external electric field

     Computed dipole along edir(3) : 
        Dipole                0.0403 Ry au,          0.1023 Debye
        Dipole field          0.0001 Ry au, 

        Potential amp.       -0.0089 Ry
        Total length         45.4839 bohr


     total cpu time spent up to now is     5137.9 secs

     total energy              =   -1477.29280775 Ry
     estimated scf accuracy    <       0.00370580 Ry

     iteration # 17     ecut=    55.12 Ry     beta= 0.10
     Davidson diagonalization with overlap
     ethr =  1.60E-06,  avg # of iterations =  2.4

     negative rho (up, down):  2.650E-03 0.000E+00

     Adding external electric field

     Computed dipole along edir(3) : 
        Dipole                0.0441 Ry au,          0.1122 Debye
        Dipole field          0.0001 Ry au, 

        Potential amp.       -0.0098 Ry
        Total length         45.4839 bohr


     total cpu time spent up to now is     5363.4 secs

     total energy              =   -1477.29299299 Ry
     estimated scf accuracy    <       0.00051458 Ry

     iteration # 18     ecut=    55.12 Ry     beta= 0.10
     Davidson diagonalization with overlap
     ethr =  3.43E-07,  avg # of iterations =  6.1

     negative rho (up, down):  2.645E-03 0.000E+00

     Adding external electric field

     Computed dipole along edir(3) : 
        Dipole                0.0413 Ry au,          0.1050 Debye
        Dipole field          0.0001 Ry au, 

        Potential amp.       -0.0091 Ry
        Total length         45.4839 bohr


     total cpu time spent up to now is     5705.4 secs

     total energy              =   -1477.29303488 Ry
     estimated scf accuracy    <       0.00084063 Ry

     iteration # 19     ecut=    55.12 Ry     beta= 0.10
     Davidson diagonalization with overlap
     ethr =  3.43E-07,  avg # of iterations =  5.1

     negative rho (up, down):  3.724E-03 0.000E+00

     Adding external electric field

     Computed dipole along edir(3) : 
        Dipole                0.0427 Ry au,          0.1084 Debye
        Dipole field          0.0001 Ry au, 

        Potential amp.       -0.0094 Ry
        Total length         45.4839 bohr


     total cpu time spent up to now is     5980.2 secs

     total energy              =   -1477.29309583 Ry
     estimated scf accuracy    <       0.00042971 Ry

     iteration # 20     ecut=    55.12 Ry     beta= 0.10
     Davidson diagonalization with overlap
     ethr =  2.86E-07,  avg # of iterations =  2.0

     negative rho (up, down):  3.430E-03 0.000E+00

     Adding external electric field

     Computed dipole along edir(3) : 
        Dipole                0.0419 Ry au,          0.1066 Debye
        Dipole field          0.0001 Ry au, 

        Potential amp.       -0.0093 Ry
        Total length         45.4839 bohr


     total cpu time spent up to now is     6370.7 secs

     total energy              =   -1477.29316743 Ry
     estimated scf accuracy    <       0.00008392 Ry

     iteration # 21     ecut=    55.12 Ry     beta= 0.10
     Davidson diagonalization with overlap
     ethr =  5.59E-08,  avg # of iterations =  5.2

     negative rho (up, down):  3.087E-03 0.000E+00

     Adding external electric field

     Computed dipole along edir(3) : 
        Dipole                0.0417 Ry au,          0.1059 Debye
        Dipole field          0.0001 Ry au, 

        Potential amp.       -0.0092 Ry
        Total length         45.4839 bohr


     total cpu time spent up to now is     6640.9 secs

     total energy              =   -1477.29320987 Ry
     estimated scf accuracy    <       0.00007443 Ry

     iteration # 22     ecut=    55.12 Ry     beta= 0.10
     Davidson diagonalization with overlap
     ethr =  4.96E-08,  avg # of iterations =  2.3

     negative rho (up, down):  2.787E-03 0.000E+00

     Adding external electric field

     Computed dipole along edir(3) : 
        Dipole                0.0418 Ry au,          0.1063 Debye
        Dipole field          0.0001 Ry au, 

        Potential amp.       -0.0092 Ry
        Total length         45.4839 bohr


     total cpu time spent up to now is     6871.4 secs

     total energy              =   -1477.29323712 Ry
     estimated scf accuracy    <       0.00004909 Ry

     iteration # 23     ecut=    55.12 Ry     beta= 0.10
     Davidson diagonalization with overlap
     ethr =  3.27E-08,  avg # of iterations =  4.0

     negative rho (up, down):  2.536E-03 0.000E+00

     Adding external electric field

     Computed dipole along edir(3) : 
        Dipole                0.0418 Ry au,          0.1063 Debye
        Dipole field          0.0001 Ry au, 

        Potential amp.       -0.0092 Ry
        Total length         45.4839 bohr


     total cpu time spent up to now is     7109.7 secs

     total energy              =   -1477.29325612 Ry
     estimated scf accuracy    <       0.00001462 Ry

     iteration # 24     ecut=    55.12 Ry     beta= 0.10
     Davidson diagonalization with overlap
     ethr =  9.75E-09,  avg # of iterations =  5.3

     negative rho (up, down):  2.315E-03 0.000E+00

     Adding external electric field

     Computed dipole along edir(3) : 
        Dipole                0.0418 Ry au,          0.1062 Debye
        Dipole field          0.0001 Ry au, 

        Potential amp.       -0.0092 Ry
        Total length         45.4839 bohr


     total cpu time spent up to now is     7601.8 secs

     total energy              =   -1477.29326766 Ry
     estimated scf accuracy    <       0.00001055 Ry

     iteration # 25     ecut=    55.12 Ry     beta= 0.10
     Davidson diagonalization with overlap
     ethr =  7.04E-09,  avg # of iterations =  4.9

     negative rho (up, down):  9.186E-04 0.000E+00

     Adding external electric field

     Computed dipole along edir(3) : 
        Dipole                0.0418 Ry au,          0.1062 Debye
        Dipole field          0.0001 Ry au, 

        Potential amp.       -0.0092 Ry
        Total length         45.4839 bohr


     total cpu time spent up to now is     7865.6 secs

     End of self-consistent calculation

          k = 0.0000 0.0000 0.0000 ( 35761 PWs)   bands (ev):

   -62.8994 -62.8952 -62.8286 -62.8219 -62.8199 -62.8181 -47.6174 -47.5866
   -47.5814 -47.5506 -46.9642 -46.9332 -36.7791 -36.7765 -36.7303 -36.7019
   -36.6980 -36.6782 -36.6761 -36.6724 -36.6555 -36.6503 -36.6449 -36.6264
   -36.6172 -36.6058 -36.6037 -36.6027 -36.5752 -36.5460 -25.7446 -25.7164
   -25.6921 -25.6606 -25.6462 -25.6094 -25.6033 -25.5806 -25.5577 -25.5314
   -25.3860 -25.3592 -25.1730 -25.0080 -24.9837 -24.9589 -24.9476 -24.8009
    -4.0158  -2.6861  -1.8898  -1.7345  -1.5953  -1.2461  -1.2322  -1.0958
    -1.0070  -0.9506  -0.9270  -0.7793  -0.2571   0.1118   0.2034   0.3354
     0.3915   0.4114   0.4177   0.4836   0.5840   0.6711   0.8770   0.9867
     1.0910   1.3128   1.3571   1.5417   1.6897   1.8479   1.8652   1.8898
     1.9844   2.1365   2.4565   2.5646   2.8981   2.9278   3.0005   3.0769
     3.1592   3.2307

          k = 0.0000 0.0154 0.0000 ( 35738 PWs)   bands (ev):

   -62.8993 -62.8953 -62.8285 -62.8220 -62.8198 -62.8181 -47.6169 -47.5871
   -47.5809 -47.5511 -46.9638 -46.9337 -36.7790 -36.7765 -36.7293 -36.7017
   -36.6978 -36.6778 -36.6750 -36.6732 -36.6552 -36.6501 -36.6457 -36.6258
   -36.6181 -36.6056 -36.6047 -36.6005 -36.5754 -36.5469 -25.7390 -25.7109
   -25.6916 -25.6613 -25.6460 -25.6105 -25.6031 -25.5811 -25.5582 -25.5327
   -25.3926 -25.3659 -25.1672 -25.0070 -24.9836 -24.9596 -24.9488 -24.8078
    -3.9680  -2.6403  -1.8479  -1.7144  -1.5667  -1.2122  -1.1977  -1.0745
    -1.0531  -0.9358  -0.8512  -0.7413  -0.2430   0.1245   0.2059   0.3522
     0.3971   0.4238   0.4347   0.4915   0.6079   0.6571   0.8799   0.9810
     1.0904   1.2553   1.3214   1.5438   1.6748   1.7509   1.8240   1.8826
     1.9725   2.1011   2.4187   2.4723   2.6689   2.8836   2.9183   3.1543
     3.2391   3.2548

          k = 0.0000 0.0308 0.0000 ( 35726 PWs)   bands (ev):

   -62.8991 -62.8955 -62.8282 -62.8224 -62.8197 -62.8181 -47.6155 -47.5888
   -47.5794 -47.5528 -46.9623 -46.9354 -36.7788 -36.7766 -36.7261 -36.7012
   -36.6974 -36.6769 -36.6754 -36.6718 -36.6544 -36.6497 -36.6478 -36.6243
   -36.6207 -36.6077 -36.6015 -36.5975 -36.5763 -36.5496 -25.7226 -25.6947
   -25.6903 -25.6631 -25.6454 -25.6135 -25.6024 -25.5827 -25.5594 -25.5363
   -25.4119 -25.3853 -25.1501 -25.0041 -24.9834 -24.9618 -24.9521 -24.8279
    -3.8268  -2.5065  -1.7260  -1.6749  -1.4890  -1.1130  -1.1066  -1.0955
    -1.0124  -0.8937  -0.7148  -0.6288  -0.1942   0.1563   0.2081   0.3999
     0.4097   0.4431   0.4829   0.5227   0.6138   0.6744   0.8854   0.9615
     1.0797   1.1268   1.2289   1.5243   1.5297   1.6655   1.7002   1.8421
     1.9600   2.0048   2.1507   2.3115   2.4155   2.6198   2.9096   3.0579
     3.1612   3.2505

          k = 0.0000 0.0462 0.0000 ( 35743 PWs)   bands (ev):

   -62.8988 -62.8958 -62.8277 -62.8230 -62.8195 -62.8182 -47.6132 -47.5914
   -47.5771 -47.5554 -46.9600 -46.9380 -36.7784 -36.7766 -36.7212 -36.7004
   -36.6970 -36.6803 -36.6740 -36.6668 -36.6532 -36.6509 -36.6492 -36.6251
   -36.6222 -36.6096 -36.5964 -36.5944 -36.5777 -36.5541 -25.6962 -25.6882
   -25.6700 -25.6645 -25.6441 -25.6182 -25.6012 -25.5850 -25.5609 -25.5416
   -25.4423 -25.4158 -25.1226 -24.9996 -24.9828 -24.9652 -24.9570 -24.8595
    -3.5999  -2.2961  -1.6981  -1.5363  -1.3896  -1.1124  -0.9568  -0.9343
    -0.9106  -0.8297  -0.5668  -0.4468  -0.0957   0.1896   0.1952   0.4187
     0.4219   0.4792   0.5230   0.5397   0.5812   0.7741   0.8878   0.9254
     1.0296   1.0455   1.1332   1.2933   1.4438   1.5076   1.6878   1.7556
     1.7959   1.8334   1.9876   2.0455   2.1831   2.4065   2.6903   2.8884
     2.9397   3.2412

          k = 0.0000 0.0616 0.0000 ( 35761 PWs)   bands (ev):

   -62.8983 -62.8962 -62.8271 -62.8238 -62.8193 -62.8183 -47.6101 -47.5947
   -47.5741 -47.5587 -46.9569 -46.9414 -36.7780 -36.7767 -36.7150 -36.6995
   -36.6969 -36.6859 -36.6709 -36.6604 -36.6546 -36.6517 -36.6488 -36.6309
   -36.6199 -36.6115 -36.5911 -36.5899 -36.5796 -36.5600 -25.6854 -25.6702
   -25.6611 -25.6420 -25.6336 -25.6237 -25.5996 -25.5876 -25.5617 -25.5474
   -25.4813 -25.4547 -25.0863 -24.9941 -24.9814 -24.9698 -24.9627 -24.8999
    -3.2999  -2.0306  -1.8793  -1.3190  -1.3013  -1.0229  -0.8070  -0.7580
    -0.7512  -0.7038  -0.4520  -0.2036   0.0321   0.1514   0.2064   0.3017
     0.4071   0.4449   0.5075   0.5934   0.6439   0.8674   0.8752   0.8903
     0.9894   0.9981   1.1080   1.1592   1.3239   1.3379   1.4158   1.5845
     1.6313   1.6765   1.8644   2.0103   2.0635   2.2543   2.2645   2.5936
     2.9893   3.2402

          k = 0.0000 0.0770 0.0000 ( 35785 PWs)   bands (ev):

   -62.8978 -62.8967 -62.8263 -62.8246 -62.8191 -62.8184 -47.6065 -47.5985
   -47.5705 -47.5625 -46.9533 -46.9452 -36.7776 -36.7769 -36.7078 -36.6985
   -36.6973 -36.6925 -36.6671 -36.6587 -36.6531 -36.6504 -36.6489 -36.6378
   -36.6177 -36.6135 -36.5878 -36.5827 -36.5818 -36.5670 -25.6819 -25.6740
   -25.6389 -25.6295 -25.6205 -25.5977 -25.5937 -25.5888 -25.5614 -25.5523
   -25.5255 -25.4988 -25.0433 -24.9879 -24.9795 -24.9753 -24.9683 -24.9452
    -2.9457  -2.1907  -1.7461  -1.3437  -1.0612  -0.9059  -0.7012  -0.6761
    -0.5631  -0.4452  -0.4058   0.0313   0.0835   0.0909   0.1480   0.2141
     0.3308   0.4014   0.4688   0.6270   0.6904   0.8265   0.8931   0.9037
     0.9315   1.0038   1.0655   1.1422   1.1798   1.2084   1.3800   1.4155
     1.4581   1.5937   1.7946   1.8679   2.0278   2.0756   2.1429   2.3488
     3.0816   3.2786

          k = 0.0000-0.0924 0.0000 ( 35824 PWs)   bands (ev):

   -62.8974 -62.8971 -62.8256 -62.8253 -62.8190 -62.8185 -47.6025 -47.6025
   -47.5665 -47.5665 -46.9493 -46.9493 -36.7774 -36.7771 -36.7007 -36.7005
   -36.6974 -36.6973 -36.6631 -36.6629 -36.6496 -36.6493 -36.6457 -36.6450
   -36.6156 -36.6154 -36.5850 -36.5846 -36.5748 -36.5745 -25.6781 -25.6781
   -25.6346 -25.6346 -25.5967 -25.5966 -25.5708 -25.5707 -25.5614 -25.5614
   -25.5427 -25.5427 -24.9974 -24.9974 -24.9814 -24.9814 -24.9720 -24.9720
    -2.5636  -2.5636  -1.4965  -1.4965  -0.8974  -0.8973  -0.6489  -0.6489
    -0.4419  -0.4418  -0.1796  -0.1795   0.0802   0.0802   0.2357   0.2358
     0.4098   0.4099   0.4126   0.4127   0.7674   0.7674   0.9098   0.9099
     0.9687   0.9687   1.0431   1.0432   1.2062   1.2063   1.3540   1.3540
     1.5825   1.5826   1.6493   1.6494   2.0672   2.0673   2.1812   2.1812
     3.1852   3.1854

          k = 0.0145-0.0051 0.0000 ( 35738 PWs)   bands (ev):

   -62.8993 -62.8953 -62.8285 -62.8220 -62.8198 -62.8181 -47.6169 -47.5871
   -47.5809 -47.5511 -46.9638 -46.9337 -36.7790 -36.7765 -36.7293 -36.7017
   -36.6978 -36.6778 -36.6750 -36.6732 -36.6552 -36.6501 -36.6457 -36.6258
   -36.6181 -36.6056 -36.6047 -36.6005 -36.5754 -36.5469 -25.7390 -25.7109
   -25.6916 -25.6613 -25.6460 -25.6105 -25.6031 -25.5811 -25.5582 -25.5327
   -25.3926 -25.3659 -25.1672 -25.0070 -24.9836 -24.9596 -24.9488 -24.8078
    -3.9680  -2.6403  -1.8479  -1.7144  -1.5667  -1.2122  -1.1977  -1.0745
    -1.0531  -0.9358  -0.8512  -0.7413  -0.2430   0.1245   0.2059   0.3522
     0.3971   0.4238   0.4347   0.4915   0.6079   0.6571   0.8799   0.9810
     1.0904   1.2553   1.3214   1.5438   1.6748   1.7509   1.8240   1.8826
     1.9725   2.1011   2.4187   2.4723   2.6689   2.8836   2.9183   3.1543
     3.2385   3.2548

          k = 0.0145 0.0103 0.0000 ( 35729 PWs)   bands (ev):

   -62.8994 -62.8952 -62.8285 -62.8221 -62.8200 -62.8179 -47.6175 -47.5867
   -47.5814 -47.5506 -46.9644 -46.9331 -36.7791 -36.7764 -36.7300 -36.7015
   -36.6979 -36.6767 -36.6758 -36.6723 -36.6546 -36.6502 -36.6474 -36.6243
   -36.6171 -36.6081 -36.6055 -36.5980 -36.5759 -36.5459 -25.7457 -25.7175
   -25.6928 -25.6601 -25.6479 -25.6110 -25.6038 -25.5787 -25.5608 -25.5326
   -25.3862 -25.3595 -25.1740 -25.0066 -24.9849 -24.9597 -24.9486 -24.8013
    -3.9523  -2.6268  -1.8339  -1.6975  -1.5496  -1.2331  -1.2025  -1.0676
    -1.0012  -0.9180  -0.8869  -0.7433  -0.2446   0.1230   0.2002   0.3606
     0.4170   0.4241   0.4414   0.4681   0.6386   0.6896   0.9223   1.0016
     1.0950   1.3058   1.3426   1.5797   1.6806   1.8100   1.8525   1.8787
     1.9881   2.0292   2.4290   2.4371   2.7198   2.8632   2.8700   3.0953
     3.1021   3.2057

          k = 0.0145 0.0257 0.0000 ( 35734 PWs)   bands (ev):

   -62.8993 -62.8953 -62.8283 -62.8225 -62.8200 -62.8177 -47.6170 -47.5873
   -47.5810 -47.5513 -46.9640 -46.9337 -36.7791 -36.7763 -36.7286 -36.7008
   -36.6979 -36.6749 -36.6744 -36.6731 -36.6535 -36.6502 -36.6500 -36.6221
   -36.6179 -36.6103 -36.6040 -36.5953 -36.5769 -36.5469 -25.7411 -25.7130
   -25.6931 -25.6603 -25.6489 -25.6132 -25.6043 -25.5780 -25.5639 -25.5348
   -25.3931 -25.3664 -25.1690 -25.0043 -24.9860 -24.9611 -24.9507 -24.8085
    -3.8426  -2.5239  -1.7393  -1.6517  -1.4805  -1.1941  -1.1339  -1.0325
    -1.0201  -0.8736  -0.7837  -0.6702  -0.2116   0.1429   0.1987   0.3969
     0.4218   0.4540   0.4773   0.4917   0.6907   0.7024   0.9656   1.0051
     1.0970   1.2488   1.3044   1.5898   1.6808   1.6876   1.7967   1.8657
     1.9178   1.9829   2.2588   2.3311   2.4168   2.6762   2.8371   2.9627
     3.0729   3.2311

          k = 0.0145 0.0411 0.0000 ( 35761 PWs)   bands (ev):

   -62.8991 -62.8955 -62.8279 -62.8230 -62.8200 -62.8176 -47.6156 -47.5890
   -47.5796 -47.5529 -46.9627 -46.9353 -36.7789 -36.7762 -36.7253 -36.6999
   -36.6977 -36.6760 -36.6720 -36.6710 -36.6534 -36.6519 -36.6500 -36.6207
   -36.6196 -36.6123 -36.6006 -36.5924 -36.5785 -36.5497 -25.7254 -25.6975
   -25.6925 -25.6617 -25.6488 -25.6166 -25.6047 -25.5788 -25.5667 -25.5388
   -25.4124 -25.3858 -25.1525 -25.0005 -24.9865 -24.9639 -24.9545 -24.8287
    -3.6445  -2.3403  -1.6410  -1.5742  -1.3824  -1.0921  -1.0554  -1.0010
    -0.9377  -0.8044  -0.6358  -0.5248  -0.1295   0.1689   0.1911   0.4011
     0.4680   0.5000   0.5253   0.5276   0.6486   0.7944   0.9831   1.0033
     1.0832   1.1500   1.2356   1.4789   1.5057   1.6543   1.7195   1.7826
     1.8735   1.9296   1.9677   2.0804   2.1911   2.4212   2.6444   2.8336
     2.8409   3.1319

          k = 0.0145 0.0565 0.0000 ( 35766 PWs)   bands (ev):

   -62.8987 -62.8958 -62.8273 -62.8236 -62.8200 -62.8176 -47.6133 -47.5915
   -47.5773 -47.5555 -46.9604 -46.9379 -36.7786 -36.7762 -36.7202 -36.6988
   -36.6977 -36.6803 -36.6686 -36.6659 -36.6571 -36.6503 -36.6498 -36.6252
   -36.6172 -36.6142 -36.5954 -36.5894 -36.5805 -36.5543 -25.6993 -25.6910
   -25.6721 -25.6638 -25.6472 -25.6206 -25.6047 -25.5809 -25.5683 -25.5434
   -25.4425 -25.4160 -25.1252 -24.9956 -24.9859 -24.9680 -24.9593 -24.8600
    -3.3686  -2.0931  -1.7704  -1.3601  -1.2962  -0.9912  -0.9349  -0.8324
    -0.8108  -0.7186  -0.5025  -0.3125  -0.0044   0.1643   0.1820   0.3404
     0.4877   0.5160   0.5631   0.5736   0.5961   0.8950   0.9646   1.0012
     1.0466   1.0708   1.1930   1.3164   1.3703   1.4621   1.5518   1.5843
     1.7436   1.7766   1.9176   1.9455   2.0787   2.2152   2.2511   2.5688
     2.8422   3.1256

          k = 0.0145 0.0719 0.0000 ( 35779 PWs)   bands (ev):

   -62.8983 -62.8963 -62.8265 -62.8244 -62.8198 -62.8177 -47.6102 -47.5948
   -47.5742 -47.5588 -46.9574 -46.9412 -36.7782 -36.7763 -36.7140 -36.6980
   -36.6976 -36.6861 -36.6647 -36.6612 -36.6595 -36.6500 -36.6488 -36.6311
   -36.6162 -36.6148 -36.5890 -36.5864 -36.5831 -36.5603 -25.6886 -25.6683
   -25.6639 -25.6440 -25.6367 -25.6248 -25.6043 -25.5838 -25.5680 -25.5478
   -25.4809 -25.4543 -25.0887 -24.9899 -24.9840 -24.9731 -24.9644 -24.8999
    -3.0310  -2.0463  -1.8113  -1.2815  -1.1377  -0.8707  -0.7529  -0.7138
    -0.6337  -0.5769  -0.4201  -0.0415   0.0841   0.1219   0.1760   0.1975
     0.4279   0.4698   0.4754   0.6316   0.6576   0.9114   0.9305   0.9629
     1.0116   1.0671   1.1050   1.2131   1.2397   1.2947   1.4090   1.4174
     1.5153   1.6819   1.8147   1.8986   2.0127   2.0499   2.0880   2.3459
     2.8915   3.1699

          k = 0.0145-0.0975 0.0000 ( 35781 PWs)   bands (ev):

   -62.8978 -62.8967 -62.8257 -62.8252 -62.8197 -62.8179 -47.6065 -47.5986
   -47.5706 -47.5626 -46.9537 -46.9450 -36.7779 -36.7765 -36.7070 -36.6986
   -36.6965 -36.6928 -36.6654 -36.6605 -36.6524 -36.6506 -36.6478 -36.6381
   -36.6182 -36.6126 -36.5861 -36.5836 -36.5816 -36.5675 -25.6852 -25.6718
   -25.6393 -25.6292 -25.6225 -25.6032 -25.5953 -25.5867 -25.5655 -25.5508
   -25.5246 -25.4979 -25.0451 -24.9839 -24.9809 -24.9789 -24.9691 -24.9448
    -2.6547  -2.4028  -1.5410  -1.3881  -0.9814  -0.8176  -0.6780  -0.5890
    -0.5266  -0.4136  -0.3201   0.0184   0.0673   0.1074   0.1697   0.2727
     0.3306   0.4131   0.4364   0.5145   0.7053   0.8484   0.8664   0.9178
     0.9775   0.9995   1.0518   1.0774   1.1869   1.2386   1.3356   1.3623
     1.5714   1.5830   1.5840   1.7620   2.0299   2.0341   2.1570   2.1904
     2.9963   3.2594

          k = 0.0145-0.0821 0.0000 ( 35788 PWs)   bands (ev):

   -62.8974 -62.8971 -62.8260 -62.8248 -62.8195 -62.8182 -47.6026 -47.6025
   -47.5665 -47.5665 -46.9496 -46.9490 -36.7776 -36.7769 -36.7014 -36.6997
   -36.6982 -36.6957 -36.6694 -36.6564 -36.6515 -36.6474 -36.6459 -36.6447
   -36.6203 -36.6106 -36.5894 -36.5811 -36.5753 -36.5741 -25.6811 -25.6759
   -25.6334 -25.6326 -25.6019 -25.5943 -25.5724 -25.5703 -25.5617 -25.5583
   -25.5439 -25.5424 -24.9980 -24.9959 -24.9851 -24.9778 -24.9727 -24.9722
    -2.7837  -2.2724  -1.6097  -1.3447  -0.9725  -0.9415  -0.6934  -0.6269
    -0.4928  -0.3808  -0.2077  -0.0816   0.0725   0.1609   0.1634   0.2816
     0.3095   0.3895   0.4458   0.5756   0.7322   0.7385   0.8399   0.8518
     0.8721   0.9621   1.0255   1.0576   1.1730   1.1739   1.3365   1.3487
     1.4449   1.5182   1.7614   1.8369   2.0071   2.0845   2.1265   2.3369
     3.1467   3.2101

          k = 0.0145-0.0667 0.0000 ( 35739 PWs)   bands (ev):

   -62.8979 -62.8967 -62.8268 -62.8239 -62.8193 -62.8185 -47.6064 -47.5984
   -47.5704 -47.5625 -46.9529 -46.9454 -36.7775 -36.7771 -36.7085 -36.6995
   -36.6957 -36.6923 -36.6729 -36.6537 -36.6528 -36.6521 -36.6475 -36.6375
   -36.6224 -36.6086 -36.5928 -36.5832 -36.5790 -36.5666 -25.6800 -25.6766
   -25.6356 -25.6271 -25.6180 -25.5966 -25.5961 -25.5897 -25.5558 -25.5528
   -25.5266 -25.4999 -25.0415 -24.9915 -24.9777 -24.9723 -24.9678 -24.9462
    -3.1483  -1.9314  -1.8899  -1.2775  -1.1766  -1.0774  -0.7626  -0.7321
    -0.6612  -0.4708  -0.3567  -0.0566   0.0268   0.1381   0.2639   0.2823
     0.3314   0.3705   0.5323   0.6077   0.7157   0.7739   0.8109   0.8131
     0.8889   0.9326   0.9608   1.1073   1.2273   1.2844   1.3004   1.4192
     1.4811   1.5569   1.8405   1.9993   2.0430   2.2183   2.2442   2.5884
     3.0985   3.2867

          k = 0.0145-0.0513 0.0000 ( 35725 PWs)   bands (ev):

   -62.8984 -62.8962 -62.8274 -62.8232 -62.8192 -62.8186 -47.6100 -47.5946
   -47.5740 -47.5586 -46.9566 -46.9415 -36.7779 -36.7770 -36.7156 -36.7004
   -36.6958 -36.6858 -36.6756 -36.6609 -36.6538 -36.6490 -36.6481 -36.6308
   -36.6243 -36.6067 -36.5963 -36.5906 -36.5773 -36.5598 -25.6837 -25.6721
   -25.6589 -25.6384 -25.6312 -25.6202 -25.5987 -25.5933 -25.5557 -25.5465
   -25.4816 -25.4551 -25.0844 -24.9973 -24.9793 -24.9675 -24.9616 -24.9000
    -3.4670  -2.1680  -1.7026  -1.4238  -1.3324  -1.1795  -0.8567  -0.8543
    -0.8324  -0.7275  -0.4448  -0.3101  -0.0631   0.1962   0.2423   0.3568
     0.4345   0.4393   0.4993   0.5758   0.6630   0.7815   0.7964   0.8557
     0.8845   0.9832   1.0003   1.1230   1.3190   1.4072   1.5000   1.5655
     1.7074   1.8164   1.8337   2.0332   2.0891   2.3734   2.6239   2.8937
     3.0214   3.2794

          k = 0.0145-0.0359 0.0000 ( 35686 PWs)   bands (ev):

   -62.8988 -62.8958 -62.8280 -62.8225 -62.8194 -62.8186 -47.6131 -47.5913
   -47.5770 -47.5553 -46.9597 -46.9381 -36.7784 -36.7769 -36.7217 -36.7012
   -36.6964 -36.6804 -36.6770 -36.6672 -36.6547 -36.6489 -36.6466 -36.6258
   -36.6250 -36.6048 -36.5996 -36.5970 -36.5762 -36.5540 -25.6943 -25.6870
   -25.6696 -25.6642 -25.6411 -25.6150 -25.6008 -25.5892 -25.5558 -25.5402
   -25.4423 -25.4157 -25.1211 -25.0021 -24.9809 -24.9636 -24.9557 -24.8593
    -3.7188  -2.4010  -1.6500  -1.6331  -1.4365  -1.1819  -1.0248  -0.9643
    -0.9441  -0.8870  -0.5934  -0.5183  -0.1619   0.1987   0.2195   0.3555
     0.4266   0.4935   0.5257   0.5354   0.5976   0.6797   0.8179   0.9081
     0.9516   1.0547   1.0907   1.3114   1.4832   1.5246   1.6276   1.7156
     1.8680   2.0057   2.0329   2.1761   2.2610   2.4972   2.9720   3.0173
     3.1962   3.2500

          k = 0.0145-0.0205 0.0000 ( 35701 PWs)   bands (ev):

   -62.8991 -62.8955 -62.8284 -62.8222 -62.8196 -62.8184 -47.6154 -47.5887
   -47.5794 -47.5527 -46.9622 -46.9354 -36.7787 -36.7767 -36.7265 -36.7016
   -36.6972 -36.6782 -36.6757 -36.6721 -36.6552 -36.6496 -36.6454 -36.6264
   -36.6207 -36.6031 -36.6024 -36.6018 -36.5756 -36.5496 -25.7215 -25.6936
   -25.6897 -25.6636 -25.6436 -25.6117 -25.6022 -25.5848 -25.5565 -25.5353
   -25.4118 -25.3851 -25.1492 -25.0054 -24.9823 -24.9610 -24.9512 -24.8277
    -3.8888  -2.5632  -1.7791  -1.6892  -1.5255  -1.1467  -1.1221  -1.1052
    -1.0391  -0.9236  -0.7418  -0.6648  -0.2164   0.1522   0.2163   0.3675
     0.3760   0.4610   0.4722   0.5383   0.6012   0.6177   0.8452   0.9493
     1.0823   1.1127   1.2275   1.5179   1.5538   1.6432   1.7091   1.8238
     1.9784   2.1150   2.2328   2.3112   2.5823   2.6570   2.9541   3.2007
     3.2703   3.3112

          k = 0.0290-0.0103 0.0000 ( 35726 PWs)   bands (ev):

   -62.8991 -62.8955 -62.8282 -62.8224 -62.8197 -62.8181 -47.6155 -47.5888
   -47.5794 -47.5528 -46.9623 -46.9354 -36.7788 -36.7766 -36.7261 -36.7012
   -36.6974 -36.6769 -36.6754 -36.6718 -36.6544 -36.6497 -36.6478 -36.6243
   -36.6207 -36.6077 -36.6015 -36.5975 -36.5763 -36.5496 -25.7226 -25.6947
   -25.6903 -25.6631 -25.6454 -25.6135 -25.6024 -25.5827 -25.5594 -25.5363
   -25.4119 -25.3853 -25.1501 -25.0041 -24.9834 -24.9618 -24.9521 -24.8279
    -3.8268  -2.5065  -1.7260  -1.6749  -1.4890  -1.1130  -1.1066  -1.0955
    -1.0124  -0.8937  -0.7148  -0.6288  -0.1942   0.1563   0.2081   0.3999
     0.4097   0.4431   0.4829   0.5227   0.6138   0.6744   0.8854   0.9615
     1.0797   1.1268   1.2289   1.5243   1.5297   1.6655   1.7002   1.8421
     1.9600   2.0048   2.1507   2.3115   2.4155   2.6198   2.9096   3.0579
     3.1613   3.2499

          k = 0.0290 0.0051 0.0000 ( 35734 PWs)   bands (ev):

   -62.8993 -62.8953 -62.8283 -62.8225 -62.8200 -62.8177 -47.6170 -47.5873
   -47.5810 -47.5513 -46.9640 -46.9337 -36.7791 -36.7763 -36.7286 -36.7008
   -36.6979 -36.6749 -36.6744 -36.6731 -36.6535 -36.6502 -36.6500 -36.6221
   -36.6179 -36.6103 -36.6040 -36.5953 -36.5769 -36.5469 -25.7411 -25.7130
   -25.6931 -25.6603 -25.6489 -25.6132 -25.6043 -25.5780 -25.5639 -25.5348
   -25.3931 -25.3664 -25.1690 -25.0043 -24.9860 -24.9611 -24.9507 -24.8085
    -3.8426  -2.5239  -1.7393  -1.6517  -1.4805  -1.1941  -1.1339  -1.0325
    -1.0201  -0.8736  -0.7837  -0.6702  -0.2116   0.1429   0.1987   0.3969
     0.4218   0.4540   0.4773   0.4917   0.6907   0.7024   0.9656   1.0051
     1.0970   1.2488   1.3044   1.5898   1.6808   1.6876   1.7967   1.8657
     1.9178   1.9829   2.2588   2.3311   2.4168   2.6762   2.8371   2.9626
     3.0730   3.1778

          k = 0.0290 0.0205 0.0000 ( 35731 PWs)   bands (ev):

   -62.8993 -62.8952 -62.8281 -62.8227 -62.8203 -62.8173 -47.6176 -47.5869
   -47.5816 -47.5508 -46.9648 -46.9331 -36.7792 -36.7759 -36.7291 -36.7000
   -36.6980 -36.6749 -36.6725 -36.6722 -36.6529 -36.6519 -36.6504 -36.6195
   -36.6169 -36.6127 -36.6045 -36.5928 -36.5780 -36.5459 -25.7488 -25.7206
   -25.6951 -25.6589 -25.6512 -25.6139 -25.6065 -25.5755 -25.5686 -25.5355
   -25.3870 -25.3603 -25.1766 -25.0029 -24.9884 -24.9618 -24.9514 -24.8023
    -3.7654  -2.4531  -1.6740  -1.5906  -1.4160  -1.2257  -1.0981  -0.9897
    -0.9879  -0.8224  -0.7711  -0.6388  -0.1981   0.1532   0.1977   0.4109
     0.4312   0.4611   0.4620   0.5872   0.7461   0.7614   1.0200   1.0527
     1.1207   1.2900   1.3031   1.6288   1.6842   1.7035   1.8045   1.8133
     1.8375   2.0145   2.1440   2.2270   2.2986   2.5734   2.7551   2.8159
     2.9262   3.0554

          k = 0.0290 0.0359 0.0000 ( 35749 PWs)   bands (ev):

   -62.8993 -62.8953 -62.8278 -62.8231 -62.8205 -62.8171 -47.6172 -47.5875
   -47.5812 -47.5515 -46.9646 -46.9337 -36.7791 -36.7757 -36.7275 -36.6989
   -36.6980 -36.6733 -36.6731 -36.6695 -36.6562 -36.6505 -36.6502 -36.6178
   -36.6169 -36.6148 -36.6029 -36.5903 -36.5797 -36.5469 -25.7448 -25.7167
   -25.6963 -25.6590 -25.6519 -25.6155 -25.6089 -25.5753 -25.5725 -25.5379
   -25.3939 -25.3673 -25.1721 -25.0000 -24.9900 -24.9637 -24.9540 -24.8097
    -3.5991  -2.3000  -1.5401  -1.5398  -1.3154  -1.1971  -1.0019  -0.9988
    -0.9211  -0.7489  -0.6527  -0.5355  -0.1376   0.1739   0.1991   0.3989
     0.4615   0.4943   0.5154   0.6664   0.7565   0.8468   1.0126   1.1184
     1.1426   1.2284   1.2744   1.5177   1.5805   1.6967   1.7213   1.7727
     1.8246   1.9395   1.9873   2.0287   2.0876   2.3722   2.5143   2.7299
     2.7327   2.9710

          k = 0.0290 0.0513 0.0000 ( 35762 PWs)   bands (ev):

   -62.8990 -62.8955 -62.8273 -62.8236 -62.8206 -62.8170 -47.6158 -47.5892
   -47.5798 -47.5532 -46.9633 -46.9353 -36.7790 -36.7756 -36.7241 -36.6980
   -36.6975 -36.6758 -36.6699 -36.6660 -36.6599 -36.6505 -36.6485 -36.6207
   -36.6167 -36.6143 -36.5994 -36.5877 -36.5819 -36.5498 -25.7292 -25.7014
   -25.6964 -25.6605 -25.6507 -25.6176 -25.6111 -25.5770 -25.5748 -25.5410
   -25.4131 -25.3865 -25.1557 -24.9960 -24.9905 -24.9669 -24.9577 -24.8297
    -3.3523  -2.0774  -1.6098  -1.3642  -1.2138  -1.1031  -0.9594  -0.8394
    -0.8299  -0.6567  -0.5119  -0.3652  -0.0316   0.1854   0.1918   0.3666
     0.4833   0.5408   0.6055   0.6692   0.6946   0.9435   1.0304   1.0926
     1.1312   1.1585   1.2150   1.3712   1.4402   1.5665   1.5871   1.5927
     1.7212   1.7672   1.8768   1.9643   2.0717   2.1568   2.1848   2.5202
     2.6616   2.9565

          k = 0.0290 0.0667 0.0000 ( 35749 PWs)   bands (ev):

   -62.8987 -62.8959 -62.8266 -62.8242 -62.8206 -62.8170 -47.6135 -47.5918
   -47.5775 -47.5557 -46.9610 -46.9378 -36.7787 -36.7756 -36.7191 -36.6981
   -36.6961 -36.6803 -36.6648 -36.6638 -36.6621 -36.6508 -36.6470 -36.6253
   -36.6186 -36.6118 -36.5943 -36.5851 -36.5845 -36.5545 -25.7028 -25.6952
   -25.6754 -25.6629 -25.6477 -25.6201 -25.6125 -25.5803 -25.5747 -25.5442
   -25.4428 -25.4162 -25.1282 -24.9912 -24.9893 -24.9712 -24.9620 -24.8607
    -3.0381  -1.8441  -1.8078  -1.2111  -1.1616  -0.9189  -0.8360  -0.7355
    -0.6268  -0.5612  -0.4061  -0.1352   0.0617   0.1716   0.1717   0.2951
     0.4767   0.5498   0.5927   0.6045   0.6782   0.9430   0.9990   1.0420
     1.0768   1.0974   1.1462   1.2460   1.2708   1.3988   1.4448   1.4585
     1.5416   1.6811   1.7754   1.9002   1.9980   2.0023   2.0705   2.3368
     2.6519   3.0284

          k = 0.0290-0.1027 0.0000 ( 35804 PWs)   bands (ev):

   -62.8983 -62.8963 -62.8259 -62.8249 -62.8205 -62.8172 -47.6103 -47.5950
   -47.5744 -47.5590 -46.9578 -46.9410 -36.7784 -36.7758 -36.7131 -36.6985
   -36.6948 -36.6862 -36.6678 -36.6587 -36.6581 -36.6513 -36.6460 -36.6312
   -36.6206 -36.6096 -36.5883 -36.5874 -36.5826 -36.5607 -25.6926 -25.6682
   -25.6656 -25.6429 -25.6394 -25.6227 -25.6128 -25.5844 -25.5722 -25.5468
   -25.4807 -25.4541 -25.0910 -24.9862 -24.9858 -24.9763 -24.9662 -24.9001
    -2.6758  -2.1782  -1.5275  -1.2192  -1.1320  -0.7309  -0.6979  -0.6306
    -0.4956  -0.3777  -0.3740   0.0508   0.1293   0.1294   0.1700   0.2107
     0.4074   0.4550   0.5012   0.5840   0.6577   0.8477   0.8700   0.9370
     0.9678   1.0602   1.0734   1.1840   1.1840   1.3011   1.3183   1.3505
     1.5625   1.5689   1.5835   1.8660   1.9298   1.9539   2.1212   2.1981
     2.7373   3.0566

          k = 0.0290-0.0873 0.0000 ( 35806 PWs)   bands (ev):

   -62.8978 -62.8968 -62.8257 -62.8250 -62.8203 -62.8175 -47.6066 -47.5987
   -47.5706 -47.5627 -46.9540 -46.9448 -36.7781 -36.7762 -36.7063 -36.6994
   -36.6939 -36.6929 -36.6716 -36.6542 -36.6521 -36.6517 -36.6457 -36.6383
   -36.6226 -36.6075 -36.5910 -36.5810 -36.5806 -36.5679 -25.6887 -25.6708
   -25.6366 -25.6271 -25.6226 -25.6115 -25.5968 -25.5884 -25.5674 -25.5485
   -25.5240 -25.4974 -25.0465 -24.9821 -24.9815 -24.9805 -24.9700 -24.9449
    -2.5515  -2.2930  -1.4067  -1.2936  -1.1385  -0.7788  -0.6999  -0.5122
    -0.4298  -0.3680  -0.1296  -0.0076   0.0869   0.1262   0.1656   0.3277
     0.3983   0.4099   0.4258   0.5029   0.6528   0.7287   0.7689   0.8467
     0.8636   0.9317   1.0124   1.1033   1.1702   1.2028   1.2702   1.3121
     1.3565   1.5974   1.7121   1.7964   1.9356   2.0391   2.0753   2.2996
     2.9036   3.1294

          k = 0.0290-0.0719 0.0000 ( 35752 PWs)   bands (ev):

   -62.8974 -62.8971 -62.8264 -62.8242 -62.8200 -62.8178 -47.6026 -47.6025
   -47.5665 -47.5665 -46.9498 -46.9487 -36.7778 -36.7767 -36.7021 -36.6992
   -36.6984 -36.6936 -36.6746 -36.6530 -36.6508 -36.6460 -36.6460 -36.6444
   -36.6244 -36.6055 -36.5945 -36.5788 -36.5757 -36.5736 -25.6838 -25.6750
   -25.6297 -25.6288 -25.6087 -25.5942 -25.5749 -25.5700 -25.5610 -25.5535
   -25.5460 -25.5427 -24.9979 -24.9940 -24.9878 -24.9753 -24.9739 -24.9730
    -2.9202  -1.9306  -1.6774  -1.2250  -1.1728  -0.9896  -0.7710  -0.6162
    -0.5552  -0.2187  -0.2162   0.0136   0.0799   0.1089   0.2440   0.2841
     0.3419   0.3731   0.5023   0.5519   0.6823   0.6893   0.7333   0.7897
     0.8447   0.8824   0.9559   1.0348   1.1433   1.2137   1.2736   1.3180
     1.3265   1.4547   1.8287   1.9302   2.0075   2.1165   2.1673   2.5366
     3.1071   3.1967

          k = 0.0290-0.0565 0.0000 ( 35740 PWs)   bands (ev):

   -62.8979 -62.8967 -62.8270 -62.8235 -62.8197 -62.8183 -47.6064 -47.5984
   -47.5704 -47.5624 -46.9527 -46.9456 -36.7775 -36.7772 -36.7089 -36.7000
   -36.6942 -36.6922 -36.6766 -36.6540 -36.6539 -36.6480 -36.6468 -36.6373
   -36.6258 -36.6036 -36.5981 -36.5836 -36.5774 -36.5664 -25.6793 -25.6783
   -25.6323 -25.6243 -25.6149 -25.6029 -25.5967 -25.5885 -25.5531 -25.5517
   -25.5274 -25.5008 -25.0403 -24.9937 -24.9762 -24.9706 -24.9677 -24.9471
    -3.2521  -1.9635  -1.6592  -1.3118  -1.2420  -1.2146  -0.8275  -0.7509
    -0.7243  -0.4872  -0.2636  -0.1303  -0.0456   0.1659   0.3233   0.3357
     0.3578   0.4341   0.5032   0.6275   0.6778   0.7235   0.7462   0.7834
     0.8269   0.8536   0.9429   1.0815   1.1827   1.2223   1.3765   1.4053
     1.4793   1.6264   1.8025   1.9808   2.0429   2.2989   2.4531   2.8190
     3.0925   3.2327

          k = 0.0290-0.0411 0.0000 ( 35723 PWs)   bands (ev):

   -62.8984 -62.8962 -62.8276 -62.8229 -62.8194 -62.8186 -47.6100 -47.5945
   -47.5740 -47.5586 -46.9565 -46.9415 -36.7779 -36.7771 -36.7158 -36.7007
   -36.6952 -36.6858 -36.6774 -36.6611 -36.6545 -36.6479 -36.6466 -36.6307
   -36.6263 -36.6018 -36.6014 -36.5908 -36.5766 -36.5597 -25.6833 -25.6728
   -25.6581 -25.6366 -25.6302 -25.6179 -25.5990 -25.5966 -25.5532 -25.5461
   -25.4818 -25.4553 -25.0837 -24.9985 -24.9785 -24.9666 -24.9612 -24.9001
    -3.5237  -2.2147  -1.5994  -1.4667  -1.3352  -1.2728  -0.8908  -0.8732
    -0.8621  -0.7377  -0.4260  -0.3469  -0.1205   0.2078   0.2639   0.3429
     0.4312   0.4594   0.5421   0.5980   0.6983   0.7145   0.7638   0.7877
     0.8496   0.9310   1.0064   1.1180   1.3131   1.4567   1.5279   1.5389
     1.6381   1.8851   1.9538   2.0380   2.0430   2.4140   2.7737   3.0292
     3.1097   3.2498

          k = 0.0290-0.0257 0.0000 ( 35686 PWs)   bands (ev):

   -62.8988 -62.8958 -62.8280 -62.8225 -62.8194 -62.8186 -47.6131 -47.5913
   -47.5770 -47.5553 -46.9597 -46.9381 -36.7784 -36.7769 -36.7217 -36.7012
   -36.6964 -36.6804 -36.6770 -36.6672 -36.6547 -36.6489 -36.6466 -36.6258
   -36.6250 -36.6048 -36.5996 -36.5970 -36.5762 -36.5540 -25.6943 -25.6870
   -25.6696 -25.6642 -25.6411 -25.6150 -25.6008 -25.5892 -25.5558 -25.5402
   -25.4423 -25.4157 -25.1211 -25.0021 -24.9809 -24.9636 -24.9557 -24.8593
    -3.7188  -2.4010  -1.6500  -1.6331  -1.4365  -1.1819  -1.0248  -0.9643
    -0.9441  -0.8870  -0.5934  -0.5183  -0.1619   0.1987   0.2195   0.3555
     0.4266   0.4935   0.5257   0.5354   0.5976   0.6797   0.8179   0.9081
     0.9516   1.0547   1.0907   1.3114   1.4832   1.5246   1.6276   1.7156
     1.8680   2.0057   2.0328   2.1761   2.2610   2.4972   2.9721   3.0173
     3.1962   3.2500

          k = 0.0436-0.0154 0.0000 ( 35743 PWs)   bands (ev):

   -62.8988 -62.8958 -62.8277 -62.8230 -62.8195 -62.8182 -47.6132 -47.5914
   -47.5771 -47.5554 -46.9600 -46.9380 -36.7784 -36.7766 -36.7212 -36.7004
   -36.6970 -36.6803 -36.6740 -36.6668 -36.6532 -36.6509 -36.6492 -36.6251
   -36.6222 -36.6096 -36.5964 -36.5944 -36.5777 -36.5541 -25.6962 -25.6882
   -25.6700 -25.6645 -25.6441 -25.6182 -25.6012 -25.5850 -25.5609 -25.5416
   -25.4423 -25.4158 -25.1226 -24.9996 -24.9828 -24.9652 -24.9570 -24.8595
    -3.5999  -2.2961  -1.6981  -1.5363  -1.3896  -1.1124  -0.9568  -0.9343
    -0.9106  -0.8297  -0.5668  -0.4468  -0.0957   0.1896   0.1952   0.4187
     0.4219   0.4792   0.5230   0.5397   0.5812   0.7741   0.8878   0.9254
     1.0296   1.0455   1.1332   1.2933   1.4438   1.5076   1.6878   1.7556
     1.7959   1.8333   1.9876   2.0455   2.1831   2.4065   2.6903   2.8884
     2.9397   3.2404

          k = 0.0436 0.0000 0.0000 ( 35761 PWs)   bands (ev):

   -62.8991 -62.8955 -62.8279 -62.8230 -62.8200 -62.8176 -47.6156 -47.5890
   -47.5796 -47.5529 -46.9627 -46.9353 -36.7789 -36.7762 -36.7253 -36.6999
   -36.6977 -36.6760 -36.6720 -36.6710 -36.6534 -36.6519 -36.6500 -36.6207
   -36.6196 -36.6123 -36.6006 -36.5924 -36.5785 -36.5497 -25.7254 -25.6975
   -25.6925 -25.6617 -25.6488 -25.6166 -25.6047 -25.5788 -25.5667 -25.5388
   -25.4124 -25.3858 -25.1525 -25.0005 -24.9865 -24.9639 -24.9545 -24.8287
    -3.6445  -2.3403  -1.6410  -1.5742  -1.3824  -1.0921  -1.0554  -1.0010
    -0.9377  -0.8044  -0.6358  -0.5248  -0.1295   0.1689   0.1911   0.4011
     0.4680   0.5000   0.5253   0.5276   0.6486   0.7944   0.9831   1.0033
     1.0832   1.1500   1.2356   1.4789   1.5057   1.6543   1.7194   1.7826
     1.8735   1.9296   1.9677   2.0805   2.1911   2.4212   2.6444   2.8339
     2.8409   3.1325

          k = 0.0436 0.0154 0.0000 ( 35749 PWs)   bands (ev):

   -62.8993 -62.8953 -62.8278 -62.8231 -62.8205 -62.8171 -47.6172 -47.5875
   -47.5812 -47.5515 -46.9646 -46.9337 -36.7791 -36.7757 -36.7275 -36.6989
   -36.6980 -36.6733 -36.6731 -36.6695 -36.6562 -36.6505 -36.6502 -36.6178
   -36.6169 -36.6148 -36.6029 -36.5903 -36.5797 -36.5469 -25.7448 -25.7167
   -25.6963 -25.6590 -25.6519 -25.6155 -25.6089 -25.5753 -25.5725 -25.5379
   -25.3939 -25.3673 -25.1721 -25.0000 -24.9900 -24.9637 -24.9540 -24.8097
    -3.5991  -2.3000  -1.5401  -1.5398  -1.3154  -1.1971  -1.0019  -0.9988
    -0.9211  -0.7489  -0.6527  -0.5355  -0.1376   0.1739   0.1991   0.3989
     0.4615   0.4943   0.5154   0.6664   0.7565   0.8468   1.0126   1.1184
     1.1426   1.2284   1.2744   1.5177   1.5805   1.6967   1.7213   1.7727
     1.8246   1.9395   1.9873   2.0287   2.0876   2.3722   2.5143   2.7299
     2.7327   2.9710

          k = 0.0436 0.0308 0.0000 ( 35771 PWs)   bands (ev):

   -62.8993 -62.8953 -62.8276 -62.8233 -62.8208 -62.8167 -47.6179 -47.5871
   -47.5819 -47.5511 -46.9654 -46.9331 -36.7793 -36.7753 -36.7278 -36.6980
   -36.6975 -36.6737 -36.6720 -36.6665 -36.6593 -36.6507 -36.6483 -36.6171
   -36.6166 -36.6141 -36.6032 -36.5881 -36.5814 -36.5459 -25.7529 -25.7248
   -25.6994 -25.6579 -25.6532 -25.6149 -25.6136 -25.5773 -25.5745 -25.5385
   -25.3880 -25.3614 -25.1801 -24.9982 -24.9929 -24.9646 -24.9552 -24.8037
    -3.4664  -2.1794  -1.4496  -1.4287  -1.2426  -1.2061  -0.9887  -0.9391
    -0.8730  -0.6635  -0.5943  -0.4761  -0.1005   0.1921   0.2171   0.3979
     0.4777   0.4875   0.5705   0.7936   0.8651   0.9273   0.9854   1.1901
     1.2434   1.2438   1.2447   1.3892   1.5630   1.6797   1.6860   1.7767
     1.8004   1.8113   1.8169   1.9254   2.0886   2.2349   2.3169   2.5915
     2.5976   2.8668

          k = 0.0436 0.0462 0.0000 ( 35786 PWs)   bands (ev):

   -62.8992 -62.8953 -62.8272 -62.8237 -62.8211 -62.8165 -47.6175 -47.5878
   -47.5815 -47.5518 -46.9652 -46.9336 -36.7792 -36.7751 -36.7262 -36.6979
   -36.6959 -36.6729 -36.6721 -36.6631 -36.6628 -36.6509 -36.6465 -36.6193
   -36.6174 -36.6114 -36.6016 -36.5859 -36.5837 -36.5469 -25.7490 -25.7209
   -25.7011 -25.6584 -25.6526 -25.6179 -25.6149 -25.5802 -25.5760 -25.5400
   -25.3949 -25.3683 -25.1757 -24.9954 -24.9944 -24.9667 -24.9578 -24.8110
    -3.2529  -1.9883  -1.4145  -1.3750  -1.1732  -1.0878  -0.9585  -0.8228
    -0.8029  -0.5620  -0.4733  -0.3510  -0.0169   0.2045   0.2350   0.3852
     0.4877   0.5225   0.6549   0.8264   0.8426   1.0221   1.0536   1.1435
     1.1648   1.1989   1.2214   1.3498   1.4526   1.5297   1.5746   1.6115
     1.6383   1.7240   1.8346   1.8953   2.0583   2.0594   2.1481   2.4534
     2.4612   2.8274

          k = 0.0436 0.0616 0.0000 ( 35756 PWs)   bands (ev):

   -62.8990 -62.8955 -62.8266 -62.8242 -62.8212 -62.8164 -47.6160 -47.5894
   -47.5801 -47.5534 -46.9638 -46.9352 -36.7791 -36.7750 -36.7229 -36.6979
   -36.6941 -36.6757 -36.6687 -36.6666 -36.6594 -36.6512 -36.6450 -36.6216
   -36.6198 -36.6088 -36.5982 -36.5863 -36.5838 -36.5499 -25.7330 -25.7052
   -25.7012 -25.6601 -25.6500 -25.6212 -25.6154 -25.5808 -25.5793 -25.5418
   -25.4138 -25.3872 -25.1589 -24.9943 -24.9917 -24.9698 -24.9610 -24.8308
    -2.9691  -1.7429  -1.5970  -1.3618  -1.0010  -0.9694  -0.8255  -0.7295
    -0.6516  -0.4561  -0.3554  -0.1697   0.0650   0.1902   0.2420   0.3589
     0.4945   0.5604   0.6862   0.7232   0.7599   0.9581   0.9631   1.1028
     1.1286   1.1376   1.1800   1.2174   1.3935   1.4018   1.4643   1.5181
     1.5239   1.6167   1.7278   1.8577   1.9002   1.9755   2.1505   2.3265
     2.4023   2.8758

          k = 0.0436-0.1078 0.0000 ( 35781 PWs)   bands (ev):

   -62.8987 -62.8959 -62.8260 -62.8247 -62.8212 -62.8166 -47.6136 -47.5919
   -47.5777 -47.5559 -46.9614 -46.9377 -36.7788 -36.7752 -36.7182 -36.6982
   -36.6926 -36.6803 -36.6703 -36.6639 -36.6557 -36.6516 -36.6441 -36.6253
   -36.6226 -36.6065 -36.5933 -36.5894 -36.5819 -36.5547 -25.7058 -25.6994
   -25.6783 -25.6626 -25.6454 -25.6228 -25.6165 -25.5835 -25.5789 -25.5435
   -25.4431 -25.4166 -25.1307 -24.9920 -24.9875 -24.9739 -24.9644 -24.8613
    -2.6306  -1.9027  -1.4699  -1.3722  -1.0064  -0.7260  -0.6759  -0.6594
    -0.4348  -0.3714  -0.2907   0.0515   0.0531   0.1295   0.2358   0.3391
     0.4747   0.5046   0.6025   0.6269   0.6454   0.7887   0.8477   0.9501
     1.0130   1.0868   1.1476   1.1775   1.2799   1.3384   1.3748   1.4528
     1.5053   1.5648   1.5689   1.8090   1.8354   1.9785   2.0787   2.2164
     2.4558   2.7987

          k = 0.0436-0.0924 0.0000 ( 35790 PWs)   bands (ev):

   -62.8983 -62.8963 -62.8254 -62.8251 -62.8211 -62.8168 -47.6104 -47.5951
   -47.5745 -47.5591 -46.9581 -46.9409 -36.7785 -36.7755 -36.7124 -36.6988
   -36.6916 -36.6862 -36.6736 -36.6581 -36.6526 -36.6521 -36.6439 -36.6312
   -36.6245 -36.6043 -36.5928 -36.5873 -36.5802 -36.5609 -25.6959 -25.6696
   -25.6660 -25.6413 -25.6391 -25.6223 -25.6184 -25.5880 -25.5745 -25.5451
   -25.4807 -25.4541 -25.0926 -24.9876 -24.9831 -24.9787 -24.9677 -24.9004
    -2.2618  -2.2593  -1.4125  -1.2104  -1.1532  -0.7221  -0.6190  -0.3860
    -0.3620  -0.3362  -0.1847   0.0095   0.0659   0.1972   0.2627   0.3030
     0.3413   0.4318   0.5177   0.5751   0.6032   0.6718   0.7140   0.8547
     0.8809   0.9682   1.0619   1.1193   1.1937   1.2494   1.2669   1.3264
     1.4264   1.6460   1.6867   1.7249   1.8152   1.9072   2.0950   2.2289
     2.6215   2.8884

          k = 0.0436-0.0770 0.0000 ( 35741 PWs)   bands (ev):

   -62.8978 -62.8968 -62.8259 -62.8245 -62.8208 -62.8172 -47.6066 -47.5987
   -47.5706 -47.5627 -46.9542 -46.9446 -36.7782 -36.7760 -36.7058 -36.6996
   -36.6930 -36.6915 -36.6759 -36.6530 -36.6514 -36.6499 -36.6444 -36.6383
   -36.6258 -36.6023 -36.5962 -36.5806 -36.5789 -36.5681 -25.6908 -25.6706
   -25.6322 -25.6268 -25.6197 -25.6193 -25.5975 -25.5917 -25.5681 -25.5467
   -25.5238 -25.4972 -25.0471 -24.9839 -24.9816 -24.9787 -24.9706 -24.9451
    -2.6279  -1.8880  -1.4818  -1.4098  -1.0394  -0.8109  -0.7611  -0.4633
    -0.4490  -0.0905   0.0152   0.0515   0.0726   0.0896   0.1380   0.2467
     0.3806   0.3963   0.4393   0.5396   0.6295   0.6633   0.7074   0.7720
     0.8243   0.8517   0.9118   1.1083   1.1349   1.1450   1.2882   1.2983
     1.3446   1.3990   1.7783   1.8755   1.9533   1.9814   2.0405   2.4265
     2.8495   3.0308

          k = 0.0436-0.0616 0.0000 ( 35781 PWs)   bands (ev):

   -62.8974 -62.8971 -62.8265 -62.8239 -62.8203 -62.8177 -47.6026 -47.6025
   -47.5665 -47.5665 -46.9499 -46.9487 -36.7779 -36.7766 -36.7024 -36.6990
   -36.6985 -36.6925 -36.6769 -36.6536 -36.6486 -36.6459 -36.6455 -36.6442
   -36.6263 -36.6010 -36.5991 -36.5780 -36.5760 -36.5734 -25.6848 -25.6748
   -25.6269 -25.6267 -25.6126 -25.5946 -25.5761 -25.5697 -25.5606 -25.5495
   -25.5488 -25.5430 -24.9977 -24.9930 -24.9888 -24.9747 -24.9742 -24.9734
    -2.9665  -1.6997  -1.6077  -1.5204  -1.0756  -1.0073  -0.8364  -0.6129
    -0.5800  -0.2225  -0.0465  -0.0129   0.0478   0.1131   0.2799   0.2845
     0.3685   0.3778   0.4652   0.4885   0.6731   0.7060   0.7061   0.7189
     0.8748   0.8898   0.9470   1.0135   1.1331   1.1626   1.2187   1.2209
     1.3779   1.4828   1.8342   1.8871   1.9923   2.1805   2.2202   2.6417
     3.0852   3.2031

          k = 0.0436-0.0462 0.0000 ( 35740 PWs)   bands (ev):

   -62.8979 -62.8967 -62.8270 -62.8235 -62.8197 -62.8183 -47.6064 -47.5984
   -47.5704 -47.5624 -46.9527 -46.9456 -36.7775 -36.7772 -36.7089 -36.7000
   -36.6942 -36.6922 -36.6766 -36.6540 -36.6538 -36.6480 -36.6468 -36.6373
   -36.6258 -36.6036 -36.5981 -36.5836 -36.5774 -36.5664 -25.6793 -25.6783
   -25.6323 -25.6243 -25.6149 -25.6029 -25.5967 -25.5885 -25.5531 -25.5517
   -25.5274 -25.5008 -25.0403 -24.9937 -24.9762 -24.9706 -24.9677 -24.9471
    -3.2521  -1.9635  -1.6592  -1.3118  -1.2420  -1.2146  -0.8275  -0.7509
    -0.7243  -0.4872  -0.2636  -0.1303  -0.0456   0.1659   0.3233   0.3357
     0.3578   0.4341   0.5032   0.6275   0.6778   0.7235   0.7462   0.7834
     0.8269   0.8536   0.9429   1.0815   1.1827   1.2223   1.3765   1.4053
     1.4793   1.6264   1.8025   1.9808   2.0429   2.2989   2.4531   2.8190
     3.0926   3.2326

          k = 0.0436-0.0308 0.0000 ( 35725 PWs)   bands (ev):

   -62.8984 -62.8962 -62.8274 -62.8232 -62.8192 -62.8186 -47.6100 -47.5946
   -47.5740 -47.5586 -46.9566 -46.9415 -36.7779 -36.7770 -36.7156 -36.7004
   -36.6958 -36.6858 -36.6756 -36.6609 -36.6538 -36.6490 -36.6481 -36.6308
   -36.6243 -36.6067 -36.5963 -36.5906 -36.5773 -36.5598 -25.6837 -25.6721
   -25.6589 -25.6384 -25.6312 -25.6202 -25.5987 -25.5933 -25.5557 -25.5465
   -25.4816 -25.4551 -25.0844 -24.9973 -24.9793 -24.9675 -24.9616 -24.9000
    -3.4670  -2.1680  -1.7026  -1.4238  -1.3324  -1.1795  -0.8567  -0.8543
    -0.8324  -0.7275  -0.4448  -0.3101  -0.0631   0.1962   0.2423   0.3568
     0.4345   0.4393   0.4993   0.5758   0.6630   0.7815   0.7964   0.8557
     0.8845   0.9832   1.0003   1.1230   1.3190   1.4072   1.5000   1.5655
     1.7074   1.8164   1.8337   2.0332   2.0891   2.3734   2.6239   2.8937
     3.0214   3.2796

          k = 0.0581-0.0205 0.0000 ( 35761 PWs)   bands (ev):

   -62.8983 -62.8962 -62.8271 -62.8238 -62.8193 -62.8183 -47.6101 -47.5947
   -47.5741 -47.5587 -46.9569 -46.9414 -36.7780 -36.7767 -36.7150 -36.6995
   -36.6969 -36.6859 -36.6709 -36.6604 -36.6546 -36.6517 -36.6488 -36.6309
   -36.6199 -36.6115 -36.5911 -36.5899 -36.5796 -36.5600 -25.6854 -25.6702
   -25.6611 -25.6420 -25.6336 -25.6237 -25.5996 -25.5876 -25.5617 -25.5474
   -25.4813 -25.4547 -25.0863 -24.9941 -24.9814 -24.9698 -24.9627 -24.8999
    -3.2999  -2.0306  -1.8793  -1.3190  -1.3013  -1.0229  -0.8070  -0.7580
    -0.7512  -0.7038  -0.4520  -0.2036   0.0321   0.1514   0.2064   0.3017
     0.4071   0.4449   0.5075   0.5934   0.6439   0.8674   0.8752   0.8903
     0.9894   0.9981   1.1080   1.1592   1.3239   1.3379   1.4158   1.5845
     1.6313   1.6765   1.8644   2.0103   2.0635   2.2543   2.2645   2.5936
     2.9894   3.2417

          k = 0.0581-0.0051 0.0000 ( 35766 PWs)   bands (ev):

   -62.8987 -62.8958 -62.8273 -62.8236 -62.8200 -62.8176 -47.6133 -47.5915
   -47.5773 -47.5555 -46.9604 -46.9379 -36.7786 -36.7762 -36.7202 -36.6988
   -36.6977 -36.6803 -36.6686 -36.6659 -36.6571 -36.6503 -36.6498 -36.6252
   -36.6172 -36.6142 -36.5954 -36.5894 -36.5805 -36.5543 -25.6993 -25.6910
   -25.6721 -25.6638 -25.6472 -25.6206 -25.6047 -25.5809 -25.5683 -25.5434
   -25.4425 -25.4160 -25.1252 -24.9956 -24.9859 -24.9680 -24.9593 -24.8600
    -3.3686  -2.0931  -1.7704  -1.3601  -1.2962  -0.9912  -0.9349  -0.8324
    -0.8108  -0.7186  -0.5025  -0.3125  -0.0044   0.1643   0.1820   0.3404
     0.4877   0.5160   0.5631   0.5736   0.5961   0.8950   0.9646   1.0012
     1.0466   1.0708   1.1930   1.3164   1.3703   1.4621   1.5518   1.5843
     1.7436   1.7766   1.9176   1.9455   2.0787   2.2152   2.2511   2.5688
     2.8422   3.1263

          k = 0.0581 0.0103 0.0000 ( 35762 PWs)   bands (ev):

   -62.8990 -62.8955 -62.8273 -62.8236 -62.8206 -62.8170 -47.6158 -47.5892
   -47.5798 -47.5532 -46.9633 -46.9353 -36.7790 -36.7756 -36.7241 -36.6980
   -36.6975 -36.6758 -36.6699 -36.6660 -36.6599 -36.6505 -36.6485 -36.6207
   -36.6167 -36.6143 -36.5994 -36.5877 -36.5819 -36.5498 -25.7292 -25.7014
   -25.6964 -25.6605 -25.6507 -25.6176 -25.6111 -25.5770 -25.5748 -25.5410
   -25.4131 -25.3865 -25.1557 -24.9960 -24.9905 -24.9669 -24.9577 -24.8297
    -3.3523  -2.0774  -1.6098  -1.3642  -1.2138  -1.1031  -0.9594  -0.8394
    -0.8299  -0.6567  -0.5119  -0.3652  -0.0316   0.1854   0.1918   0.3666
     0.4833   0.5408   0.6055   0.6692   0.6946   0.9435   1.0304   1.0926
     1.1312   1.1585   1.2150   1.3712   1.4402   1.5665   1.5871   1.5927
     1.7212   1.7672   1.8768   1.9643   2.0717   2.1568   2.1848   2.5202
     2.6615   2.9567

          k = 0.0581 0.0257 0.0000 ( 35786 PWs)   bands (ev):

   -62.8992 -62.8953 -62.8272 -62.8237 -62.8211 -62.8165 -47.6175 -47.5878
   -47.5815 -47.5518 -46.9652 -46.9336 -36.7792 -36.7751 -36.7262 -36.6979
   -36.6959 -36.6729 -36.6721 -36.6631 -36.6628 -36.6509 -36.6465 -36.6193
   -36.6173 -36.6114 -36.6016 -36.5859 -36.5837 -36.5469 -25.7490 -25.7209
   -25.7011 -25.6584 -25.6526 -25.6179 -25.6149 -25.5802 -25.5760 -25.5400
   -25.3949 -25.3683 -25.1757 -24.9954 -24.9944 -24.9667 -24.9578 -24.8110
    -3.2529  -1.9883  -1.4145  -1.3750  -1.1732  -1.0878  -0.9585  -0.8228
    -0.8029  -0.5620  -0.4733  -0.3510  -0.0169   0.2045   0.2350   0.3852
     0.4877   0.5225   0.6549   0.8264   0.8426   1.0221   1.0536   1.1435
     1.1648   1.1989   1.2214   1.3498   1.4526   1.5297   1.5746   1.6115
     1.6383   1.7240   1.8346   1.8953   2.0583   2.0594   2.1481   2.4533
     2.4612   2.8276

          k = 0.0581 0.0411 0.0000 ( 35771 PWs)   bands (ev):

   -62.8993 -62.8953 -62.8269 -62.8239 -62.8215 -62.8162 -47.6181 -47.5874
   -47.5822 -47.5514 -46.9660 -46.9330 -36.7793 -36.7747 -36.7265 -36.6977
   -36.6939 -36.6725 -36.6718 -36.6661 -36.6598 -36.6512 -36.6446 -36.6212
   -36.6164 -36.6086 -36.6019 -36.5859 -36.5842 -36.5459 -25.7571 -25.7290
   -25.7043 -25.6578 -25.6526 -25.6242 -25.6127 -25.5840 -25.5774 -25.5399
   -25.3891 -25.3625 -25.1836 -24.9973 -24.9938 -24.9675 -24.9591 -24.8051
    -3.0757  -1.8342  -1.4603  -1.2418  -1.0857  -1.0037  -0.9433  -0.7691
    -0.7555  -0.4415  -0.3852  -0.2687   0.0469   0.2207   0.2850   0.3921
     0.5081   0.5207   0.7372   0.8907   0.9314   1.0212   1.0570   1.1217
     1.1505   1.1580   1.2551   1.3106   1.3829   1.4029   1.5446   1.5491
     1.5852   1.7096   1.7869   1.9064   1.9072   1.9135   2.2224   2.2713
     2.3833   2.7509

          k = 0.0581 0.0565 0.0000 ( 35745 PWs)   bands (ev):

   -62.8992 -62.8954 -62.8265 -62.8241 -62.8218 -62.8160 -47.6177 -47.5880
   -47.5817 -47.5520 -46.9657 -46.9336 -36.7793 -36.7746 -36.7251 -36.6976
   -36.6919 -36.6727 -36.6710 -36.6695 -36.6566 -36.6514 -36.6431 -36.6231
   -36.6172 -36.6059 -36.6004 -36.5884 -36.5826 -36.5469 -25.7527 -25.7246
   -25.7057 -25.6585 -25.6506 -25.6290 -25.6114 -25.5855 -25.5804 -25.5404
   -25.3958 -25.3692 -25.1787 -24.9982 -24.9915 -24.9693 -24.9611 -24.8122
    -2.8291  -1.6279  -1.5561  -1.3266  -0.9200  -0.8942  -0.8201  -0.7314
    -0.6489  -0.3189  -0.2770  -0.1288   0.1170   0.2127   0.3261   0.3930
     0.5143   0.5484   0.7725   0.7895   0.8183   0.9045   0.9373   1.0728
     1.1313   1.1804   1.2161   1.3095   1.3162   1.3983   1.4247   1.5248
     1.5331   1.6562   1.7110   1.7746   1.8321   1.9463   2.1586   2.2529
     2.3207   2.5983

          k = 0.0581-0.1129 0.0000 ( 35804 PWs)   bands (ev):

   -62.8990 -62.8956 -62.8260 -62.8245 -62.8218 -62.8161 -47.6162 -47.5896
   -47.5802 -47.5536 -46.9642 -46.9351 -36.7792 -36.7746 -36.7220 -36.6978
   -36.6902 -36.6757 -36.6727 -36.6679 -36.6537 -36.6518 -36.6424 -36.6248
   -36.6202 -36.6034 -36.5973 -36.5914 -36.5813 -36.5500 -25.7358 -25.7079
   -25.7049 -25.6603 -25.6466 -25.6319 -25.6111 -25.5845 -25.5841 -25.5414
   -25.4143 -25.3878 -25.1612 -24.9970 -24.9887 -24.9720 -24.9635 -24.8316
    -2.5252  -1.6471  -1.5979  -1.3867  -0.7881  -0.7509  -0.6972  -0.6783
    -0.4992  -0.2180  -0.1876   0.0509   0.0885   0.1564   0.3398   0.3994
     0.5018   0.5787   0.5994   0.6181   0.6323   0.8411   0.8453   0.9642
     1.0536   1.0927   1.1719   1.2542   1.2743   1.4208   1.4249   1.4841
     1.5471   1.5494   1.6276   1.6867   1.7867   1.9766   2.1049   2.1980
     2.2518   2.5769

          k = 0.0581-0.0975 0.0000 ( 35781 PWs)   bands (ev):

   -62.8987 -62.8959 -62.8255 -62.8249 -62.8217 -62.8163 -47.6137 -47.5920
   -47.5778 -47.5560 -46.9617 -46.9376 -36.7789 -36.7749 -36.7176 -36.6982
   -36.6893 -36.6802 -36.6752 -36.6634 -36.6522 -36.6514 -36.6423 -36.6260
   -36.6248 -36.6013 -36.5945 -36.5927 -36.5802 -36.5548 -25.7075 -25.7020
   -25.6800 -25.6628 -25.6405 -25.6323 -25.6125 -25.5877 -25.5809 -25.5426
   -25.4433 -25.4168 -25.1321 -24.9935 -24.9855 -24.9755 -24.9659 -24.8617
    -2.1811  -1.9350  -1.7336  -1.1429  -0.8864  -0.7784  -0.5697  -0.4504
    -0.3151  -0.1780  -0.1623  -0.0179   0.0329   0.2420   0.3120   0.3775
     0.4191   0.4485   0.5050   0.5343   0.6095   0.6865   0.7644   0.9032
     0.9238   1.0618   1.0746   1.1736   1.1853   1.2207   1.4202   1.4979
     1.5697   1.5745   1.6217   1.6891   1.7653   1.7734   2.1370   2.1549
     2.3435   2.6644

          k = 0.0581-0.0821 0.0000 ( 35763 PWs)   bands (ev):

   -62.8982 -62.8963 -62.8254 -62.8249 -62.8214 -62.8167 -47.6104 -47.5951
   -47.5745 -47.5591 -46.9582 -46.9408 -36.7786 -36.7754 -36.7121 -36.6988
   -36.6898 -36.6862 -36.6762 -36.6578 -36.6527 -36.6500 -36.6431 -36.6311
   -36.6263 -36.6001 -36.5969 -36.5871 -36.5794 -36.5610 -25.6971 -25.6702
   -25.6661 -25.6420 -25.6350 -25.6286 -25.6159 -25.5903 -25.5752 -25.5443
   -25.4806 -25.4541 -25.0931 -24.9881 -24.9821 -24.9796 -24.9682 -24.9005
    -2.2904  -1.8374  -1.7999  -1.1231  -0.9545  -0.8707  -0.5747  -0.3220
    -0.2901  -0.2053  -0.1060   0.0007   0.0220   0.2130   0.2558   0.2715
     0.3859   0.4255   0.4752   0.5158   0.6032   0.6324   0.7279   0.7937
     0.8505   0.8864   0.9867   1.0584   1.2254   1.2638   1.2798   1.3078
     1.4961   1.4988   1.6881   1.7421   1.8104   1.8917   2.0421   2.2791
     2.5813   2.8276

          k = 0.0581-0.0667 0.0000 ( 35741 PWs)   bands (ev):

   -62.8978 -62.8968 -62.8259 -62.8245 -62.8208 -62.8172 -47.6066 -47.5987
   -47.5706 -47.5627 -46.9542 -46.9446 -36.7782 -36.7760 -36.7058 -36.6996
   -36.6930 -36.6915 -36.6759 -36.6530 -36.6514 -36.6499 -36.6444 -36.6383
   -36.6258 -36.6023 -36.5962 -36.5806 -36.5789 -36.5681 -25.6908 -25.6706
   -25.6322 -25.6268 -25.6197 -25.6193 -25.5975 -25.5917 -25.5681 -25.5467
   -25.5238 -25.4972 -25.0471 -24.9839 -24.9816 -24.9787 -24.9706 -24.9451
    -2.6279  -1.8880  -1.4818  -1.4098  -1.0394  -0.8109  -0.7611  -0.4633
    -0.4490  -0.0905   0.0152   0.0515   0.0726   0.0896   0.1380   0.2467
[...]
    -0.6337  -0.5769  -0.4201  -0.0415   0.0841   0.1219   0.1760   0.1975
     0.4279   0.4698   0.4754   0.6316   0.6576   0.9114   0.9305   0.9629
     1.0116   1.0671   1.1050   1.2131   1.2397   1.2947   1.4090   1.4174
     1.5153   1.6819   1.8147   1.8986   2.0127   2.0499   2.0880   2.3459
     2.8915   3.1705

          k = 0.0726 0.0051 0.0000 ( 35749 PWs)   bands (ev):

   -62.8987 -62.8959 -62.8266 -62.8242 -62.8206 -62.8170 -47.6135 -47.5918
   -47.5775 -47.5557 -46.9610 -46.9378 -36.7787 -36.7756 -36.7191 -36.6981
   -36.6961 -36.6803 -36.6648 -36.6638 -36.6621 -36.6508 -36.6470 -36.6253
   -36.6186 -36.6118 -36.5943 -36.5851 -36.5845 -36.5545 -25.7028 -25.6952
   -25.6754 -25.6629 -25.6477 -25.6201 -25.6125 -25.5803 -25.5747 -25.5442
   -25.4428 -25.4162 -25.1282 -24.9912 -24.9892 -24.9712 -24.9620 -24.8607
    -3.0381  -1.8441  -1.8078  -1.2111  -1.1616  -0.9189  -0.8360  -0.7355
    -0.6268  -0.5612  -0.4061  -0.1352   0.0617   0.1716   0.1717   0.2951
     0.4767   0.5498   0.5927   0.6045   0.6782   0.9430   0.9990   1.0420
     1.0768   1.0974   1.1462   1.2460   1.2708   1.3988   1.4448   1.4585
     1.5416   1.6811   1.7754   1.9002   1.9980   2.0023   2.0705   2.3369
     2.6519   3.0282

          k = 0.0726 0.0205 0.0000 ( 35756 PWs)   bands (ev):

   -62.8990 -62.8955 -62.8266 -62.8242 -62.8212 -62.8164 -47.6160 -47.5894
   -47.5801 -47.5534 -46.9638 -46.9352 -36.7791 -36.7750 -36.7229 -36.6979
   -36.6941 -36.6757 -36.6687 -36.6666 -36.6594 -36.6512 -36.6450 -36.6216
   -36.6198 -36.6088 -36.5982 -36.5863 -36.5838 -36.5499 -25.7330 -25.7052
   -25.7012 -25.6601 -25.6500 -25.6212 -25.6154 -25.5808 -25.5793 -25.5418
   -25.4138 -25.3872 -25.1589 -24.9943 -24.9917 -24.9698 -24.9610 -24.8308
    -2.9691  -1.7429  -1.5970  -1.3618  -1.0010  -0.9694  -0.8255  -0.7295
    -0.6516  -0.4561  -0.3554  -0.1697   0.0650   0.1902   0.2420   0.3589
     0.4945   0.5604   0.6862   0.7232   0.7599   0.9581   0.9631   1.1028
     1.1286   1.1376   1.1800   1.2174   1.3935   1.4018   1.4643   1.5181
     1.5239   1.6167   1.7278   1.8577   1.9002   1.9755   2.1505   2.3265
     2.4023   2.7889

          k = 0.0726 0.0359 0.0000 ( 35745 PWs)   bands (ev):

   -62.8992 -62.8954 -62.8265 -62.8241 -62.8218 -62.8160 -47.6177 -47.5880
   -47.5817 -47.5520 -46.9657 -46.9336 -36.7793 -36.7746 -36.7251 -36.6976
   -36.6919 -36.6727 -36.6710 -36.6695 -36.6566 -36.6514 -36.6431 -36.6231
   -36.6172 -36.6059 -36.6004 -36.5884 -36.5826 -36.5469 -25.7527 -25.7246
   -25.7057 -25.6585 -25.6506 -25.6290 -25.6114 -25.5855 -25.5804 -25.5404
   -25.3958 -25.3692 -25.1787 -24.9982 -24.9915 -24.9693 -24.9611 -24.8122
    -2.8291  -1.6279  -1.5561  -1.3266  -0.9200  -0.8942  -0.8201  -0.7314
    -0.6489  -0.3189  -0.2770  -0.1288   0.1170   0.2127   0.3261   0.3930
     0.5143   0.5484   0.7725   0.7895   0.8183   0.9045   0.9373   1.0728
     1.1313   1.1804   1.2161   1.3095   1.3162   1.3983   1.4247   1.5248
     1.5331   1.6562   1.7110   1.7746   1.8321   1.9463   2.1586   2.2529
     2.3207   2.5982

          k = 0.0726 0.0513 0.0000 ( 35729 PWs)   bands (ev):

   -62.8992 -62.8953 -62.8263 -62.8242 -62.8221 -62.8158 -47.6183 -47.5876
   -47.5824 -47.5516 -46.9664 -46.9330 -36.7793 -36.7743 -36.7256 -36.6974
   -36.6896 -36.6723 -36.6717 -36.6716 -36.6541 -36.6515 -36.6418 -36.6248
   -36.6161 -36.6031 -36.6010 -36.5909 -36.5816 -36.5459 -25.7601 -25.7320
   -25.7083 -25.6581 -25.6495 -25.6351 -25.6084 -25.5882 -25.5827 -25.5400
   -25.3898 -25.3633 -25.1862 -25.0004 -24.9908 -24.9695 -24.9620 -24.8062
    -2.6253  -1.7452  -1.4753  -1.0817  -1.0230  -0.8297  -0.7427  -0.6794
    -0.6167  -0.1969  -0.1671  -0.0189   0.1929   0.2119   0.4022   0.4053
     0.5390   0.5616   0.6383   0.7215   0.7586   0.9187   0.9921   1.0122
     1.0654   1.1802   1.2291   1.3044   1.3149   1.3321   1.4958   1.5312
     1.5389   1.6354   1.6372   1.6758   1.9269   1.9709   1.9801   2.3014
     2.3177   2.4601

          k = 0.0726-0.1181 0.0000 ( 35750 PWs)   bands (ev):

   -62.8992 -62.8954 -62.8260 -62.8244 -62.8222 -62.8158 -47.6178 -47.5882
   -47.5819 -47.5521 -46.9660 -46.9335 -36.7793 -36.7743 -36.7244 -36.6975
   -36.6880 -36.6747 -36.6727 -36.6704 -36.6523 -36.6517 -36.6411 -36.6260
   -36.6171 -36.6007 -36.5998 -36.5934 -36.5809 -36.5470 -25.7548 -25.7267
   -25.7085 -25.6588 -25.6462 -25.6389 -25.6071 -25.5883 -25.5853 -25.5402
   -25.3963 -25.3697 -25.1805 -25.0003 -24.9895 -24.9707 -24.9631 -24.8129
    -2.3678  -1.9131  -1.3078  -1.2936  -0.8208  -0.7978  -0.6798  -0.6105
    -0.5541  -0.1304  -0.0500   0.1365   0.1555   0.2135   0.3755   0.4250
     0.4918   0.5296   0.5788   0.6156   0.6461   0.8138   0.9559   1.0224
     1.0302   1.1573   1.1881   1.2031   1.3439   1.3973   1.4089   1.5180
     1.5286   1.5617   1.6972   1.7350   1.8225   1.9127   2.0392   2.2090
     2.2950   2.4152

          k = 0.0726-0.1027 0.0000 ( 35762 PWs)   bands (ev):

   -62.8990 -62.8956 -62.8257 -62.8246 -62.8221 -62.8160 -47.6162 -47.5897
   -47.5803 -47.5536 -46.9643 -46.9351 -36.7792 -36.7745 -36.7217 -36.6978
   -36.6877 -36.6758 -36.6756 -36.6676 -36.6520 -36.6513 -36.6413 -36.6264
   -36.6201 -36.5995 -36.5970 -36.5952 -36.5804 -36.5500 -25.7368 -25.7089
   -25.7063 -25.6604 -25.6408 -25.6403 -25.6084 -25.5871 -25.5858 -25.5411
   -25.4145 -25.3880 -25.1621 -24.9979 -24.9877 -24.9728 -24.9644 -24.8319
    -2.1006  -2.0242  -1.6001  -1.1699  -0.8150  -0.6868  -0.6397  -0.5534
    -0.4550  -0.0843  -0.0142   0.0255   0.0921   0.2968   0.3163   0.3486
     0.4518   0.5076   0.5165   0.5507   0.6521   0.6749   0.9094   0.9443
     1.0294   1.0738   1.1470   1.1748   1.2326   1.3555   1.4638   1.5021
     1.5359   1.5829   1.6939   1.7006   1.7631   1.8376   2.0899   2.1102
     2.2347   2.4930

          k = 0.0726-0.0873 0.0000 ( 35781 PWs)   bands (ev):

   -62.8987 -62.8959 -62.8255 -62.8249 -62.8217 -62.8163 -47.6137 -47.5920
   -47.5778 -47.5560 -46.9617 -46.9376 -36.7789 -36.7749 -36.7176 -36.6982
   -36.6893 -36.6802 -36.6752 -36.6634 -36.6522 -36.6514 -36.6423 -36.6260
   -36.6248 -36.6013 -36.5945 -36.5927 -36.5802 -36.5548 -25.7075 -25.7020
   -25.6800 -25.6628 -25.6405 -25.6323 -25.6125 -25.5877 -25.5809 -25.5426
   -25.4433 -25.4168 -25.1321 -24.9935 -24.9855 -24.9755 -24.9659 -24.8617
    -2.1811  -1.9350  -1.7336  -1.1429  -0.8864  -0.7784  -0.5697  -0.4504
    -0.3151  -0.1780  -0.1623  -0.0179   0.0329   0.2420   0.3120   0.3775
     0.4191   0.4485   0.5050   0.5343   0.6095   0.6865   0.7644   0.9032
     0.9238   1.0618   1.0746   1.1736   1.1853   1.2207   1.4202   1.4979
     1.5697   1.5745   1.6217   1.6891   1.7653   1.7734   2.1370   2.1549
     2.3435   2.6644

          k = 0.0726-0.0719 0.0000 ( 35790 PWs)   bands (ev):

   -62.8983 -62.8963 -62.8254 -62.8251 -62.8211 -62.8168 -47.6104 -47.5951
   -47.5745 -47.5591 -46.9581 -46.9409 -36.7785 -36.7755 -36.7124 -36.6988
   -36.6916 -36.6862 -36.6736 -36.6581 -36.6526 -36.6521 -36.6439 -36.6312
   -36.6245 -36.6043 -36.5928 -36.5873 -36.5802 -36.5609 -25.6959 -25.6696
   -25.6660 -25.6413 -25.6391 -25.6223 -25.6184 -25.5880 -25.5745 -25.5451
   -25.4807 -25.4541 -25.0926 -24.9876 -24.9831 -24.9787 -24.9677 -24.9004
    -2.2618  -2.2593  -1.4125  -1.2104  -1.1532  -0.7221  -0.6190  -0.3860
    -0.3620  -0.3362  -0.1847   0.0095   0.0659   0.1972   0.2627   0.3030
     0.3413   0.4318   0.5177   0.5751   0.6032   0.6718   0.7140   0.8547
     0.8809   0.9682   1.0619   1.1193   1.1937   1.2494   1.2669   1.3264
     1.4264   1.6460   1.6867   1.7249   1.8152   1.9072   2.0950   2.2289
     2.6215   2.8884

          k = 0.0726-0.0565 0.0000 ( 35806 PWs)   bands (ev):

   -62.8978 -62.8968 -62.8257 -62.8250 -62.8203 -62.8175 -47.6066 -47.5987
   -47.5706 -47.5627 -46.9540 -46.9448 -36.7781 -36.7762 -36.7063 -36.6994
   -36.6939 -36.6929 -36.6716 -36.6542 -36.6521 -36.6517 -36.6457 -36.6383
   -36.6226 -36.6075 -36.5910 -36.5810 -36.5806 -36.5679 -25.6887 -25.6708
   -25.6366 -25.6271 -25.6226 -25.6115 -25.5968 -25.5884 -25.5674 -25.5485
   -25.5240 -25.4974 -25.0465 -24.9821 -24.9815 -24.9805 -24.9700 -24.9449
    -2.5515  -2.2930  -1.4067  -1.2936  -1.1385  -0.7788  -0.6999  -0.5122
    -0.4298  -0.3680  -0.1296  -0.0076   0.0869   0.1262   0.1656   0.3277
     0.3983   0.4099   0.4258   0.5029   0.6528   0.7287   0.7689   0.8467
     0.8636   0.9317   1.0124   1.1033   1.1702   1.2028   1.2702   1.3121
     1.3565   1.5974   1.7120   1.7964   1.9356   2.0391   2.0753   2.2996
     2.9036   3.1293

          k = 0.0726-0.0411 0.0000 ( 35788 PWs)   bands (ev):

   -62.8974 -62.8971 -62.8260 -62.8248 -62.8195 -62.8182 -47.6026 -47.6025
   -47.5665 -47.5665 -46.9496 -46.9490 -36.7776 -36.7769 -36.7014 -36.6997
   -36.6982 -36.6957 -36.6694 -36.6564 -36.6515 -36.6474 -36.6459 -36.6447
   -36.6203 -36.6106 -36.5894 -36.5811 -36.5753 -36.5741 -25.6811 -25.6759
   -25.6334 -25.6326 -25.6019 -25.5943 -25.5724 -25.5703 -25.5617 -25.5583
   -25.5439 -25.5424 -24.9980 -24.9958 -24.9851 -24.9778 -24.9727 -24.9723
    -2.7837  -2.2724  -1.6097  -1.3447  -0.9725  -0.9415  -0.6934  -0.6269
    -0.4928  -0.3808  -0.2077  -0.0816   0.0725   0.1609   0.1634   0.2816
     0.3095   0.3895   0.4458   0.5756   0.7322   0.7385   0.8399   0.8518
     0.8721   0.9621   1.0255   1.0576   1.1730   1.1739   1.3365   1.3487
     1.4449   1.5182   1.7614   1.8369   2.0071   2.0845   2.1265   2.3369
     3.1467   3.2102

          k =-0.0871 0.0308 0.0000 ( 35824 PWs)   bands (ev):

   -62.8974 -62.8971 -62.8256 -62.8253 -62.8190 -62.8185 -47.6025 -47.6025
   -47.5665 -47.5665 -46.9493 -46.9493 -36.7774 -36.7771 -36.7007 -36.7005
   -36.6974 -36.6973 -36.6631 -36.6629 -36.6496 -36.6493 -36.6457 -36.6450
   -36.6156 -36.6154 -36.5850 -36.5846 -36.5748 -36.5745 -25.6781 -25.6781
   -25.6346 -25.6346 -25.5967 -25.5966 -25.5708 -25.5707 -25.5614 -25.5614
   -25.5427 -25.5427 -24.9974 -24.9974 -24.9814 -24.9814 -24.9720 -24.9720
    -2.5636  -2.5636  -1.4965  -1.4965  -0.8974  -0.8973  -0.6489  -0.6489
    -0.4419  -0.4418  -0.1796  -0.1795   0.0802   0.0802   0.2357   0.2358
     0.4098   0.4099   0.4126   0.4127   0.7674   0.7674   0.9098   0.9099
     0.9687   0.9687   1.0431   1.0432   1.2062   1.2063   1.3540   1.3540
     1.5825   1.5826   1.6493   1.6494   2.0672   2.0673   2.1812   2.1812
     3.1855   3.1857

          k =-0.0871 0.0462 0.0000 ( 35781 PWs)   bands (ev):

   -62.8978 -62.8967 -62.8257 -62.8252 -62.8197 -62.8179 -47.6065 -47.5986
   -47.5706 -47.5626 -46.9537 -46.9450 -36.7779 -36.7765 -36.7070 -36.6986
   -36.6965 -36.6928 -36.6654 -36.6605 -36.6524 -36.6506 -36.6478 -36.6381
   -36.6182 -36.6126 -36.5861 -36.5836 -36.5816 -36.5675 -25.6852 -25.6718
   -25.6393 -25.6292 -25.6225 -25.6032 -25.5953 -25.5867 -25.5655 -25.5508
   -25.5246 -25.4979 -25.0451 -24.9839 -24.9809 -24.9789 -24.9691 -24.9448
    -2.6547  -2.4028  -1.5410  -1.3881  -0.9814  -0.8176  -0.6780  -0.5890
    -0.5266  -0.4136  -0.3201   0.0184   0.0672   0.1074   0.1696   0.2727
     0.3306   0.4131   0.4364   0.5145   0.7053   0.8484   0.8664   0.9178
     0.9775   0.9995   1.0518   1.0775   1.1869   1.2386   1.3356   1.3623
     1.5714   1.5830   1.5840   1.7620   2.0299   2.0341   2.1570   2.1904
     2.9964   3.2713

          k =-0.0871 0.0616 0.0000 ( 35804 PWs)   bands (ev):

   -62.8983 -62.8963 -62.8259 -62.8249 -62.8205 -62.8172 -47.6103 -47.5950
   -47.5744 -47.5590 -46.9578 -46.9410 -36.7784 -36.7758 -36.7131 -36.6985
   -36.6948 -36.6862 -36.6678 -36.6587 -36.6581 -36.6513 -36.6460 -36.6313
   -36.6206 -36.6096 -36.5883 -36.5874 -36.5826 -36.5607 -25.6926 -25.6682
   -25.6656 -25.6429 -25.6394 -25.6227 -25.6128 -25.5844 -25.5722 -25.5468
   -25.4807 -25.4541 -25.0910 -24.9862 -24.9858 -24.9763 -24.9662 -24.9001
    -2.6758  -2.1782  -1.5275  -1.2192  -1.1320  -0.7309  -0.6979  -0.6306
    -0.4956  -0.3777  -0.3740   0.0508   0.1293   0.1294   0.1700   0.2107
     0.4074   0.4550   0.5012   0.5840   0.6577   0.8477   0.8700   0.9370
     0.9678   1.0602   1.0734   1.1840   1.1840   1.3011   1.3183   1.3505
     1.5625   1.5689   1.5835   1.8660   1.9298   1.9539   2.1212   2.1981
     2.7373   3.0566

          k =-0.0871 0.0770 0.0000 ( 35781 PWs)   bands (ev):

   -62.8987 -62.8959 -62.8260 -62.8247 -62.8212 -62.8166 -47.6136 -47.5919
   -47.5777 -47.5559 -46.9614 -46.9377 -36.7788 -36.7752 -36.7182 -36.6982
   -36.6926 -36.6803 -36.6703 -36.6639 -36.6557 -36.6516 -36.6441 -36.6253
   -36.6226 -36.6065 -36.5933 -36.5894 -36.5819 -36.5547 -25.7058 -25.6994
   -25.6783 -25.6626 -25.6454 -25.6228 -25.6165 -25.5835 -25.5789 -25.5435
   -25.4431 -25.4166 -25.1306 -24.9920 -24.9875 -24.9739 -24.9644 -24.8613
    -2.6306  -1.9027  -1.4699  -1.3722  -1.0064  -0.7260  -0.6759  -0.6594
    -0.4348  -0.3714  -0.2907   0.0515   0.0531   0.1295   0.2358   0.3391
     0.4747   0.5046   0.6025   0.6269   0.6454   0.7887   0.8477   0.9501
     1.0130   1.0868   1.1476   1.1775   1.2799   1.3384   1.3748   1.4528
     1.5053   1.5648   1.5689   1.8090   1.8354   1.9785   2.0787   2.2164
     2.4559   2.7987

          k =-0.0871 0.0924 0.0000 ( 35804 PWs)   bands (ev):

   -62.8990 -62.8956 -62.8260 -62.8245 -62.8218 -62.8161 -47.6162 -47.5896
   -47.5802 -47.5536 -46.9642 -46.9351 -36.7792 -36.7746 -36.7220 -36.6978
   -36.6902 -36.6757 -36.6727 -36.6679 -36.6537 -36.6518 -36.6424 -36.6248
   -36.6202 -36.6034 -36.5973 -36.5914 -36.5813 -36.5500 -25.7358 -25.7079
   -25.7049 -25.6603 -25.6466 -25.6319 -25.6111 -25.5845 -25.5841 -25.5414
   -25.4143 -25.3878 -25.1612 -24.9970 -24.9887 -24.9720 -24.9635 -24.8316
    -2.5252  -1.6471  -1.5979  -1.3867  -0.7881  -0.7509  -0.6972  -0.6783
    -0.4992  -0.2180  -0.1876   0.0509   0.0885   0.1564   0.3398   0.3994
     0.5018   0.5787   0.5994   0.6181   0.6323   0.8411   0.8453   0.9642
     1.0536   1.0927   1.1719   1.2542   1.2743   1.4208   1.4249   1.4841
     1.5471   1.5494   1.6276   1.6867   1.7867   1.9766   2.1049   2.1980
     2.2517   2.5769

          k =-0.0871 0.1078 0.0000 ( 35750 PWs)   bands (ev):

   -62.8992 -62.8954 -62.8260 -62.8244 -62.8222 -62.8158 -47.6178 -47.5882
   -47.5819 -47.5521 -46.9660 -46.9335 -36.7793 -36.7743 -36.7244 -36.6975
   -36.6880 -36.6747 -36.6727 -36.6704 -36.6523 -36.6517 -36.6411 -36.6260
   -36.6171 -36.6007 -36.5998 -36.5934 -36.5809 -36.5470 -25.7548 -25.7267
   -25.7085 -25.6588 -25.6462 -25.6389 -25.6071 -25.5883 -25.5853 -25.5402
   -25.3963 -25.3697 -25.1805 -25.0003 -24.9895 -24.9707 -24.9631 -24.8129
    -2.3678  -1.9131  -1.3078  -1.2936  -0.8208  -0.7978  -0.6798  -0.6105
    -0.5541  -0.1304  -0.0500   0.1365   0.1555   0.2135   0.3755   0.4250
     0.4918   0.5296   0.5788   0.6156   0.6461   0.8138   0.9559   1.0224
     1.0302   1.1573   1.1881   1.2031   1.3439   1.3973   1.4089   1.5180
     1.5286   1.5617   1.6972   1.7350   1.8225   1.9127   2.0392   2.2090
     2.2950   2.4153

          k =-0.0871-0.0616 0.0000 ( 35718 PWs)   bands (ev):

   -62.8992 -62.8953 -62.8260 -62.8243 -62.8224 -62.8157 -47.6184 -47.5877
   -47.5824 -47.5516 -46.9666 -46.9330 -36.7794 -36.7741 -36.7252 -36.6974
   -36.6870 -36.6755 -36.6717 -36.6712 -36.6518 -36.6518 -36.6406 -36.6264
   -36.6161 -36.6006 -36.5992 -36.5945 -36.5808 -36.5459 -25.7612 -25.7331
   -25.7097 -25.6583 -25.6446 -25.6429 -25.6056 -25.5896 -25.5859 -25.5398
   -25.3901 -25.3636 -25.1871 -25.0015 -24.9897 -24.9703 -24.9630 -24.8065
    -2.2010  -2.1170  -1.2723  -1.0315  -1.0162  -0.8260  -0.6737  -0.5783
    -0.5472  -0.1154   0.0435   0.1839   0.2714   0.2723   0.2906   0.3167
     0.5318   0.5443   0.5500   0.6352   0.6731   0.7848   0.8958   1.0679
     1.1318   1.1725   1.1841   1.2098   1.2516   1.4313   1.4319   1.4906
     1.5043   1.5841   1.7188   1.8011   1.8107   1.8463   2.1116   2.2574
     2.3158   2.3513

     the Fermi energy is     1.1894 ev

!    total energy              =   -1477.29321915 Ry
     estimated scf accuracy    <       0.00000768 Ry
     smearing contrib. (-TS)   =      -0.11415233 Ry
     internal energy E=F+TS    =   -1477.17906682 Ry

     The total energy is F=E-TS. E is the sum of the following terms:
     one-electron contribution =  -11064.37553618 Ry
     hartree contribution      =    5523.02160248 Ry
     xc contribution           =    -238.30425871 Ry
     ewald contribution        =    4302.47912134 Ry
     electric field correction =       0.00000424 Ry

     convergence has been achieved in  25 iterations

     negative rho (up, down):  9.186E-04 0.000E+00

     Forces acting on atoms (cartesian axes, Ry/au):

     atom    1 type  1   force =    -0.00001413   -0.00000649    0.02572163
     atom    2 type  1   force =     0.00001135    0.00000680    0.02572254
     atom    3 type  2   force =     0.00002004   -0.00002232   -0.00512099
     atom    4 type  2   force =    -0.00001840    0.00002392   -0.00511960
     atom    5 type  1   force =    -0.00003893   -0.00001981    0.00719868
     atom    6 type  1   force =     0.00003789    0.00001991    0.00717633
     atom    7 type  2   force =     0.00004074   -0.00005645   -0.02774758
     atom    8 type  2   force =    -0.00004167    0.00005403   -0.02774484
     atom    9 type  1   force =     0.00001771    0.00000908   -0.00003104
     atom   10 type  1   force =    -0.00001617   -0.00000884    0.00000732
     atom   11 type  2   force =    -0.00002988    0.00003717   -0.00003161
     atom   12 type  2   force =     0.00003143   -0.00003700   -0.00003086

     Total force =     0.054943     Total SCF correction =     0.002349

     Writing output data file ./V2Zr2/V2Zr2_beef.save/

     init_run     :    603.84s CPU    604.47s WALL (       1 calls)
     electrons    :   7206.16s CPU   7243.19s WALL (       1 calls)
     forces       :     74.88s CPU     75.16s WALL (       1 calls)

     Called by init_run:
     wfcinit      :    573.21s CPU    573.65s WALL (       1 calls)
     potinit      :     23.70s CPU     23.74s WALL (       1 calls)
     hinit0       :      3.55s CPU      3.55s WALL (       1 calls)

     Called by electrons:
     c_bands      :   6044.59s CPU   6068.91s WALL (      25 calls)
     sum_band     :   1070.42s CPU   1076.88s WALL (      25 calls)
     v_of_rho     :     73.53s CPU     75.77s WALL (      26 calls)
     newd         :     32.68s CPU     36.60s WALL (      26 calls)
     mix_rho      :      6.37s CPU      6.44s WALL (      25 calls)
     vdW_kernel   :     10.05s CPU     10.05s WALL (       1 calls)

     Called by c_bands:
     init_us_2    :     21.04s CPU     21.16s WALL (    3848 calls)
     cegterg      :   5983.75s CPU   6004.86s WALL (    1850 calls)

     Called by *egterg:
     cdiaghg      :    211.65s CPU    211.82s WALL (    9671 calls)
     h_psi        :   3636.25s CPU   3654.66s WALL (    9745 calls)
     s_psi        :    911.62s CPU    911.89s WALL (    9745 calls)
     g_psi        :      1.92s CPU      1.95s WALL (    7821 calls)

     Called by h_psi:
     h_psi:calbec :   1001.34s CPU   1002.83s WALL (    9745 calls)
     vloc_psi     :   1706.93s CPU   1723.61s WALL (    9745 calls)
     add_vuspsi   :    917.38s CPU    917.59s WALL (    9745 calls)

     General routines
     calbec       :   1507.98s CPU   1509.97s WALL (   11891 calls)
     fft          :     56.89s CPU     57.95s WALL (    1697 calls)
     ffts         :      1.06s CPU      1.07s WALL (      51 calls)
     fftw         :   2192.24s CPU   2210.10s WALL (  946334 calls)
     interpolate  :      1.42s CPU      1.45s WALL (      26 calls)

     Parallel routines
     fft_scatt_xy :     78.37s CPU     79.18s WALL (  948082 calls)
     fft_scatt_yz :   1546.85s CPU   1558.31s WALL (  948082 calls)

     PWSCF        :      2h12m CPU      2h13m WALL


   This run was terminated on:  10:54:56  26Jun2022            

=------------------------------------------------------------------------------=
   JOB DONE.
=------------------------------------------------------------------------------=
