
     Program PWSCF v.6.6 starts on 26Jun2022 at 15: 9:23 

     This program is part of the open-source Quantum ESPRESSO suite
     for quantum simulation of materials; please cite
         "P. Giannozzi et al., J. Phys.:Condens. Matter 21 395502 (2009);
         "P. Giannozzi et al., J. Phys.:Condens. Matter 29 465901 (2017);
          URL http://www.quantum-espresso.org", 
     in publications or presentations arising from this work. More details at
     http://www.quantum-espresso.org/quote

     Parallel version (MPI), running on    37 processors

     MPI processes distributed on     1 nodes
     R & G space division:  proc/nbgrp/npool/nimage =      37
     Fft bands division:     nmany     =       1
     Reading input from W2Ir2.in
Warning: card &CELL ignored
Warning: card / ignored

     Current dimensions of program PWSCF are:
     Max number of different atomic species (ntypx) = 10
     Max number of k-points (npk) =  40000
     Max angular momentum in pseudopotentials (lmaxx) =  3
     Presently stress not available with electric field and gates

     Message from routine cell_base_init:
     DEPRECATED: use true lattice parameter, not A to a.u. conversion factor
     Message from routine emend_upf/check:
     BEWARE !!! Possible out of bounds while fixing pseudo
     Message from routine emend_upf/check:
     BEWARE !!! Possible out of bounds while fixing pseudo
     Message from routine read_upf:
     Pseudo file W.pbe-spn-rrkjus_psl.0.2.3.UPF has been fixed on the fly.
     To avoid this message in the future, permanently fix 
     your pseudo files following these instructions: 
     https://gitlab.com/QEF/q-e/blob/master/upftools/how_to_fix_upf.md
     file Ir.pbe-n-rrkjus_psl.0.2.3.UPF: wavefunction(s)  5D renormalized

     **************************************************************************
     Initializing libbeef V0.1.2 with the BEEF-vdW functional.
     Citation: Wellendorff et al., PRB 85, 235149 (2012).
     **************************************************************************


     IMPORTANT: XC functional enforced from input :
     Exchange-correlation= BEEF-VDW
                           (   1   4  43  14   2   0   0)
     Any further DFT definition will be discarded
     Please, verify this is what you really want


     Subspace diagonalization in iterative solution of the eigenvalue problem:
     a serial algorithm will be used

     Found symmetry operation: I + (  0.5000  0.0000  0.0000)
     This is a supercell, fractional translations are disabled

     Parallelization info
     --------------------
     sticks:   dense  smooth     PW     G-vecs:    dense   smooth      PW
     Min         113      45     13                26205     6606    1043
     Max         114      46     14                26224     6635    1056
     Sum        4195    1667    499               969829   245225   38809



     bravais-lattice index     =            0
     lattice parameter (alat)  =       1.8897  a.u.
     unit-cell volume          =    4438.1733 (a.u.)^3
     number of atoms/cell      =           12
     number of atomic types    =            2
     number of electrons       =       138.00
     number of Kohn-Sham states=           83
     kinetic-energy cutoff     =      55.1240  Ry
     charge density cutoff     =     551.2396  Ry
     convergence threshold     =      1.0E-05
     mixing beta               =       0.1000
     number of iterations used =           10  plain     mixing
     Exchange-correlation= BEEF-VDW
                           (   1   4  43  14   2   0   0)

     celldm(1)=   1.889726  celldm(2)=   0.000000  celldm(3)=   0.000000
     celldm(4)=   0.000000  celldm(5)=   0.000000  celldm(6)=   0.000000

     crystal axes: (cart. coord. in units of alat)
               a(1) = (   5.561240   0.000000   0.000000 )  
               a(2) = (  -2.780620   4.818676   0.000000 )  
               a(3) = (   0.000000   0.000000  24.541911 )  

     reciprocal axes: (cart. coord. in units 2 pi/alat)
               b(1) = (  0.179816  0.103763 -0.000000 )  
               b(2) = (  0.000000  0.207526  0.000000 )  
               b(3) = (  0.000000 -0.000000  0.040747 )  


     PseudoPot. # 1 for W  read from file:
     ../pseudo/W.pbe-spn-rrkjus_psl.0.2.3.UPF
     MD5 check sum: 25b665cf2bbae626ad8d9f1bc024df95
     Pseudo is Ultrasoft + core correction, Zval = 14.0
     Generated using "atomic" code by A. Dal Corso v.5.0.2 svn rev. 10551
     Using radial grid of 1273 points,  6 beta functions with: 
                l(1) =   0
                l(2) =   0
                l(3) =   1
                l(4) =   1
                l(5) =   2
                l(6) =   2
     Q(r) pseudized with 0 coefficients 


     PseudoPot. # 2 for Ir read from file:
     ../pseudo/Ir.pbe-n-rrkjus_psl.0.2.3.UPF
     MD5 check sum: a93e608e8ddc29ee62145620b5f41564
     Pseudo is Ultrasoft + core correction, Zval =  9.0
     Generated using "atomic" code by A. Dal Corso v.5.0.2 svn rev. 9415
     Using radial grid of 1277 points,  6 beta functions with: 
                l(1) =   0
                l(2) =   0
                l(3) =   1
                l(4) =   1
                l(5) =   2
                l(6) =   2
     Q(r) pseudized with 0 coefficients 


     atomic species   valence    mass     pseudopotential
        W             14.00   183.84000     W ( 1.00)
        Ir             9.00   192.21700     Ir( 1.00)

     No symmetry found



   Cartesian axes

     site n.     atom                  positions (alat units)
         1           W   tau(   1) = (   0.0000000   0.0000000  10.0000000  )
         2           W   tau(   2) = (   2.7806198   0.0000000  10.0000000  )
         3           Ir  tau(   3) = (   1.3903099   2.4093381  10.0000000  )
         4           Ir  tau(   4) = (  -1.3903099   2.4093381  10.0000000  )
         5           W   tau(   5) = (   2.7806198   1.6045582  12.2709556  )
         6           W   tau(   6) = (   0.0000000   1.6045582  12.2709556  )
         7           Ir  tau(   7) = (  -1.3903099   4.0138963  12.2709556  )
         8           Ir  tau(   8) = (   1.3903099   4.0138963  12.2709556  )
         9           W   tau(   9) = (   0.0000006   3.2417715  14.4413516  )
        10           W   tau(  10) = (   2.7806197   3.2417723  14.4413505  )
        11           Ir  tau(  11) = (   4.1709313   0.8858100  14.4649217  )
        12           Ir  tau(  12) = (   1.3903093   0.8858105  14.4649220  )

     number of k points=    74  Fermi-Dirac smearing, width (Ry)=  0.0100
                       cart. coord. in units 2pi/alat
        k(    1) = (   0.0000000   0.0000000   0.0000000), wk =   0.0138889
        k(    2) = (   0.0000000   0.0172938   0.0000000), wk =   0.0277778
        k(    3) = (   0.0000000   0.0345876   0.0000000), wk =   0.0277778
        k(    4) = (   0.0000000   0.0518815   0.0000000), wk =   0.0277778
        k(    5) = (   0.0000000   0.0691753   0.0000000), wk =   0.0277778
        k(    6) = (   0.0000000   0.0864691   0.0000000), wk =   0.0277778
        k(    7) = (   0.0000000  -0.1037629   0.0000000), wk =   0.0138889
        k(    8) = (   0.0149847   0.0086469   0.0000000), wk =   0.0277778
        k(    9) = (   0.0149847   0.0259407   0.0000000), wk =   0.0277778
        k(   10) = (   0.0149847   0.0432346   0.0000000), wk =   0.0277778
        k(   11) = (   0.0149847   0.0605284   0.0000000), wk =   0.0277778
        k(   12) = (   0.0149847   0.0778222   0.0000000), wk =   0.0277778
        k(   13) = (   0.0149847   0.0951160   0.0000000), wk =   0.0277778
        k(   14) = (   0.0149847  -0.0951160   0.0000000), wk =   0.0277778
        k(   15) = (   0.0149847  -0.0778222   0.0000000), wk =   0.0277778
        k(   16) = (   0.0149847  -0.0605284   0.0000000), wk =   0.0277778
        k(   17) = (   0.0149847  -0.0432346   0.0000000), wk =   0.0277778
        k(   18) = (   0.0149847  -0.0259407   0.0000000), wk =   0.0277778
        k(   19) = (   0.0149847  -0.0086469   0.0000000), wk =   0.0277778
        k(   20) = (   0.0299693   0.0172938   0.0000000), wk =   0.0277778
        k(   21) = (   0.0299693   0.0345876   0.0000000), wk =   0.0277778
        k(   22) = (   0.0299693   0.0518815   0.0000000), wk =   0.0277778
        k(   23) = (   0.0299693   0.0691753   0.0000000), wk =   0.0277778
        k(   24) = (   0.0299693   0.0864691   0.0000000), wk =   0.0277778
        k(   25) = (   0.0299693   0.1037629   0.0000000), wk =   0.0277778
        k(   26) = (   0.0299693  -0.0864691   0.0000000), wk =   0.0277778
        k(   27) = (   0.0299693  -0.0691753   0.0000000), wk =   0.0277778
        k(   28) = (   0.0299693  -0.0518815   0.0000000), wk =   0.0277778
        k(   29) = (   0.0299693  -0.0345876   0.0000000), wk =   0.0277778
        k(   30) = (   0.0299693  -0.0172938   0.0000000), wk =   0.0277778
        k(   31) = (   0.0299693  -0.0000000   0.0000000), wk =   0.0277778
        k(   32) = (   0.0449540   0.0259407   0.0000000), wk =   0.0277778
        k(   33) = (   0.0449540   0.0432346   0.0000000), wk =   0.0277778
        k(   34) = (   0.0449540   0.0605284   0.0000000), wk =   0.0277778
        k(   35) = (   0.0449540   0.0778222   0.0000000), wk =   0.0277778
        k(   36) = (   0.0449540   0.0951160   0.0000000), wk =   0.0277778
        k(   37) = (   0.0449540   0.1124099   0.0000000), wk =   0.0277778
        k(   38) = (   0.0449540  -0.0778222   0.0000000), wk =   0.0277778
        k(   39) = (   0.0449540  -0.0605284   0.0000000), wk =   0.0277778
        k(   40) = (   0.0449540  -0.0432346   0.0000000), wk =   0.0277778
        k(   41) = (   0.0449540  -0.0259407   0.0000000), wk =   0.0277778
        k(   42) = (   0.0449540  -0.0086469   0.0000000), wk =   0.0277778
        k(   43) = (   0.0449540   0.0086469   0.0000000), wk =   0.0277778
        k(   44) = (   0.0599387   0.0345876   0.0000000), wk =   0.0277778
        k(   45) = (   0.0599387   0.0518815   0.0000000), wk =   0.0277778
        k(   46) = (   0.0599387   0.0691753   0.0000000), wk =   0.0277778
        k(   47) = (   0.0599387   0.0864691   0.0000000), wk =   0.0277778
        k(   48) = (   0.0599387   0.1037629   0.0000000), wk =   0.0277778
        k(   49) = (   0.0599387   0.1210568   0.0000000), wk =   0.0277778
        k(   50) = (   0.0599387  -0.0691753   0.0000000), wk =   0.0277778
        k(   51) = (   0.0599387  -0.0518815   0.0000000), wk =   0.0277778
        k(   52) = (   0.0599387  -0.0345876   0.0000000), wk =   0.0277778
        k(   53) = (   0.0599387  -0.0172938   0.0000000), wk =   0.0277778
        k(   54) = (   0.0599387   0.0000000   0.0000000), wk =   0.0277778
        k(   55) = (   0.0599387   0.0172938   0.0000000), wk =   0.0277778
        k(   56) = (   0.0749233   0.0432346   0.0000000), wk =   0.0277778
        k(   57) = (   0.0749233   0.0605284   0.0000000), wk =   0.0277778
        k(   58) = (   0.0749233   0.0778222   0.0000000), wk =   0.0277778
        k(   59) = (   0.0749233   0.0951160   0.0000000), wk =   0.0277778
        k(   60) = (   0.0749233   0.1124099   0.0000000), wk =   0.0277778
        k(   61) = (   0.0749233   0.1297037   0.0000000), wk =   0.0277778
        k(   62) = (   0.0749233  -0.0605284   0.0000000), wk =   0.0277778
        k(   63) = (   0.0749233  -0.0432346   0.0000000), wk =   0.0277778
        k(   64) = (   0.0749233  -0.0259407   0.0000000), wk =   0.0277778
        k(   65) = (   0.0749233  -0.0086469   0.0000000), wk =   0.0277778
        k(   66) = (   0.0749233   0.0086469   0.0000000), wk =   0.0277778
        k(   67) = (   0.0749233   0.0259407   0.0000000), wk =   0.0277778
        k(   68) = (  -0.0899080  -0.0518815   0.0000000), wk =   0.0138889
        k(   69) = (  -0.0899080  -0.0345876   0.0000000), wk =   0.0277778
        k(   70) = (  -0.0899080  -0.0172938   0.0000000), wk =   0.0277778
        k(   71) = (  -0.0899080   0.0000000   0.0000000), wk =   0.0277778
        k(   72) = (  -0.0899080   0.0172938   0.0000000), wk =   0.0277778
        k(   73) = (  -0.0899080   0.0345876   0.0000000), wk =   0.0277778
        k(   74) = (  -0.0899080  -0.1556444   0.0000000), wk =   0.0138889

     Dense  grid:   969829 G-vectors     FFT dimensions: (  80,  80, 360)

     Smooth grid:   245225 G-vectors     FFT dimensions: (  50,  50, 225)

     Estimated max dynamical RAM per process >     183.78 MB

     Estimated total dynamical RAM >       6.64 GB

     Initial potential from superposition of free atoms

     starting charge  137.99577, renormalised to  138.00000

     negative rho (up, down):  8.430E-04 0.000E+00


     %%%%%%%%%%%%%%%%%%%%%%%%%%%%%%%%%%%%%%%%%%%%%%%%%%%%%%%%%%%%%%%%%%%%%%%%
     %                                                                      %
     % You are using vdW-DF, which was implemented by the Thonhauser group. %
     % Please cite the following two papers that made this development      %
     % possible and the two reviews that describe the various versions:     %
     %                                                                      %
     %   T. Thonhauser et al., PRL 115, 136402 (2015).                      %
     %   T. Thonhauser et al., PRB 76, 125112 (2007).                       %
     %   K. Berland et al., Rep. Prog. Phys. 78, 066501 (2015).             %
     %   D.C. Langreth et al., J. Phys.: Condens. Matter 21, 084203 (2009). %
     %                                                                      %
     %                                                                      %
     % If you are calculating the stress with vdW-DF, please also cite:     %
     %                                                                      %
     %   R. Sabatini et al., J. Phys.: Condens. Matter 24, 424209 (2012).   %
     %                                                                      %
     %%%%%%%%%%%%%%%%%%%%%%%%%%%%%%%%%%%%%%%%%%%%%%%%%%%%%%%%%%%%%%%%%%%%%%%%



     Adding external electric field

     Computed dipole along edir(3) : 
        Dipole               -0.0000 Ry au,         -0.0000 Debye
        Dipole field         -0.0000 Ry au, 

        Potential amp.        0.0000 Ry
        Total length         45.2181 bohr

     Starting wfcs are  132 randomized atomic wfcs

     total cpu time spent up to now is      138.5 secs

     Self-consistent Calculation

     iteration #  1     ecut=    55.12 Ry     beta= 0.10
     Davidson diagonalization with overlap
     ethr =  1.00E-02,  avg # of iterations =  2.0

     negative rho (up, down):  7.656E-04 0.000E+00

     Adding external electric field

     Computed dipole along edir(3) : 
        Dipole               -0.1281 Ry au,         -0.3257 Debye
        Dipole field         -0.0004 Ry au, 

        Potential amp.        0.0328 Ry
        Total length         45.2181 bohr


     total cpu time spent up to now is      328.8 secs

     total energy              =   -1333.44343471 Ry
     estimated scf accuracy    <       2.05307363 Ry

     iteration #  2     ecut=    55.12 Ry     beta= 0.10
     Davidson diagonalization with overlap
     ethr =  1.49E-03,  avg # of iterations =  2.2

     negative rho (up, down):  7.989E-04 0.000E+00

     Adding external electric field

     Computed dipole along edir(3) : 
        Dipole                0.4030 Ry au,          1.0244 Debye
        Dipole field          0.0011 Ry au, 

        Potential amp.       -0.1032 Ry
        Total length         45.2181 bohr


     total cpu time spent up to now is      511.6 secs

     total energy              =   -1333.54519923 Ry
     estimated scf accuracy    <       1.05558921 Ry

     iteration #  3     ecut=    55.12 Ry     beta= 0.10
     Davidson diagonalization with overlap
     ethr =  7.65E-04,  avg # of iterations =  2.8

     negative rho (up, down):  8.807E-04 0.000E+00

     Adding external electric field

     Computed dipole along edir(3) : 
        Dipole               -0.0098 Ry au,         -0.0249 Debye
        Dipole field         -0.0000 Ry au, 

        Potential amp.        0.0025 Ry
        Total length         45.2181 bohr


     total cpu time spent up to now is      697.3 secs

     total energy              =   -1333.52003747 Ry
     estimated scf accuracy    <       6.52863406 Ry

     iteration #  4     ecut=    55.12 Ry     beta= 0.10
     Davidson diagonalization with overlap
     ethr =  7.65E-04,  avg # of iterations =  1.2

     negative rho (up, down):  9.601E-04 0.000E+00

     Adding external electric field

     Computed dipole along edir(3) : 
        Dipole                0.0002 Ry au,          0.0006 Debye
        Dipole field          0.0000 Ry au, 

        Potential amp.       -0.0001 Ry
        Total length         45.2181 bohr


     total cpu time spent up to now is      846.7 secs

     total energy              =   -1333.60172233 Ry
     estimated scf accuracy    <       0.22705575 Ry

     iteration #  5     ecut=    55.12 Ry     beta= 0.10
     Davidson diagonalization with overlap
     ethr =  1.65E-04,  avg # of iterations =  2.6

     negative rho (up, down):  2.760E-03 0.000E+00

     Adding external electric field

     Computed dipole along edir(3) : 
        Dipole                0.0489 Ry au,          0.1243 Debye
        Dipole field          0.0001 Ry au, 

        Potential amp.       -0.0125 Ry
        Total length         45.2181 bohr


     total cpu time spent up to now is     1303.2 secs

     total energy              =   -1333.60074779 Ry
     estimated scf accuracy    <       0.10191809 Ry

     iteration #  6     ecut=    55.12 Ry     beta= 0.10
     Davidson diagonalization with overlap
     c_bands:  1 eigenvalues not converged
     c_bands:  1 eigenvalues not converged
     c_bands:  1 eigenvalues not converged
     ethr =  7.39E-05,  avg # of iterations =  7.6

     negative rho (up, down):  1.949E-03 0.000E+00

     Adding external electric field

     Computed dipole along edir(3) : 
        Dipole                0.0276 Ry au,          0.0702 Debye
        Dipole field          0.0001 Ry au, 

        Potential amp.       -0.0071 Ry
        Total length         45.2181 bohr


     total cpu time spent up to now is     1760.6 secs

     total energy              =   -1333.62498817 Ry
     estimated scf accuracy    <       0.17072679 Ry

     iteration #  7     ecut=    55.12 Ry     beta= 0.10
     Davidson diagonalization with overlap
     ethr =  7.39E-05,  avg # of iterations =  1.3

     negative rho (up, down):  3.360E-03 0.000E+00

     Adding external electric field

     Computed dipole along edir(3) : 
        Dipole                0.0090 Ry au,          0.0229 Debye
        Dipole field          0.0000 Ry au, 

        Potential amp.       -0.0023 Ry
        Total length         45.2181 bohr


     total cpu time spent up to now is     1915.4 secs

     total energy              =   -1333.61455514 Ry
     estimated scf accuracy    <       0.05411621 Ry

     iteration #  8     ecut=    55.12 Ry     beta= 0.10
     Davidson diagonalization with overlap
     ethr =  3.92E-05,  avg # of iterations =  4.8

     negative rho (up, down):  4.327E-03 0.000E+00

     Adding external electric field

     Computed dipole along edir(3) : 
        Dipole                0.0090 Ry au,          0.0230 Debye
        Dipole field          0.0000 Ry au, 

        Potential amp.       -0.0023 Ry
        Total length         45.2181 bohr


     total cpu time spent up to now is     2340.4 secs

     total energy              =   -1333.62265246 Ry
     estimated scf accuracy    <       0.03045120 Ry

     iteration #  9     ecut=    55.12 Ry     beta= 0.10
     Davidson diagonalization with overlap
     c_bands:  2 eigenvalues not converged
     c_bands:  2 eigenvalues not converged
     c_bands:  1 eigenvalues not converged
     c_bands:  1 eigenvalues not converged
     ethr =  2.21E-05,  avg # of iterations =  3.7

     negative rho (up, down):  3.625E-03 0.000E+00

     Adding external electric field

     Computed dipole along edir(3) : 
        Dipole                0.0205 Ry au,          0.0520 Debye
        Dipole field          0.0001 Ry au, 

        Potential amp.       -0.0052 Ry
        Total length         45.2181 bohr


     total cpu time spent up to now is     2589.1 secs

     total energy              =   -1333.62803652 Ry
     estimated scf accuracy    <       0.00449911 Ry

     iteration # 10     ecut=    55.12 Ry     beta= 0.10
     Davidson diagonalization with overlap
     c_bands:  1 eigenvalues not converged
     c_bands:  1 eigenvalues not converged
     c_bands:  1 eigenvalues not converged
     c_bands:  1 eigenvalues not converged
     c_bands:  1 eigenvalues not converged
     c_bands:  1 eigenvalues not converged
     c_bands:  1 eigenvalues not converged
     c_bands:  1 eigenvalues not converged
     c_bands:  1 eigenvalues not converged
     c_bands:  1 eigenvalues not converged
     c_bands:  1 eigenvalues not converged
     c_bands:  1 eigenvalues not converged
     c_bands:  1 eigenvalues not converged
     c_bands:  1 eigenvalues not converged
     c_bands:  2 eigenvalues not converged
     c_bands:  1 eigenvalues not converged
     c_bands:  1 eigenvalues not converged
     c_bands:  1 eigenvalues not converged
     c_bands:  2 eigenvalues not converged
     c_bands:  1 eigenvalues not converged
     c_bands:  1 eigenvalues not converged
     c_bands:  1 eigenvalues not converged
     c_bands:  1 eigenvalues not converged
     c_bands:  1 eigenvalues not converged
     c_bands:  1 eigenvalues not converged
     c_bands:  1 eigenvalues not converged
     c_bands:  1 eigenvalues not converged
     c_bands:  1 eigenvalues not converged
     c_bands:  1 eigenvalues not converged
     c_bands:  1 eigenvalues not converged
     ethr =  3.26E-06,  avg # of iterations = 17.0

     negative rho (up, down):  3.746E-03 0.000E+00

     Adding external electric field

     Computed dipole along edir(3) : 
        Dipole                0.0153 Ry au,          0.0389 Debye
        Dipole field          0.0000 Ry au, 

        Potential amp.       -0.0039 Ry
        Total length         45.2181 bohr


     total cpu time spent up to now is     2927.1 secs

     total energy              =   -1333.62646323 Ry
     estimated scf accuracy    <       0.02137369 Ry

     iteration # 11     ecut=    55.12 Ry     beta= 0.10
     Davidson diagonalization with overlap
     c_bands:  1 eigenvalues not converged
     c_bands:  1 eigenvalues not converged
     c_bands:  1 eigenvalues not converged
     ethr =  3.26E-06,  avg # of iterations =  5.5

     negative rho (up, down):  3.845E-03 0.000E+00

     Adding external electric field

     Computed dipole along edir(3) : 
        Dipole                0.0155 Ry au,          0.0395 Debye
        Dipole field          0.0000 Ry au, 

        Potential amp.       -0.0040 Ry
        Total length         45.2181 bohr


     total cpu time spent up to now is     3263.5 secs

     total energy              =   -1333.62751206 Ry
     estimated scf accuracy    <       0.00156862 Ry

     iteration # 12     ecut=    55.12 Ry     beta= 0.10
     Davidson diagonalization with overlap
     c_bands:  1 eigenvalues not converged
     ethr =  1.14E-06,  avg # of iterations =  5.7

     negative rho (up, down):  3.529E-03 0.000E+00

     Adding external electric field

     Computed dipole along edir(3) : 
        Dipole                0.0158 Ry au,          0.0403 Debye
        Dipole field          0.0000 Ry au, 

        Potential amp.       -0.0041 Ry
        Total length         45.2181 bohr


     total cpu time spent up to now is     3555.5 secs

     total energy              =   -1333.62774906 Ry
     estimated scf accuracy    <       0.00006452 Ry

     iteration # 13     ecut=    55.12 Ry     beta= 0.10
     Davidson diagonalization with overlap
     ethr =  4.68E-08,  avg # of iterations =  8.4

     negative rho (up, down):  3.323E-03 0.000E+00

     Adding external electric field

     Computed dipole along edir(3) : 
        Dipole                0.0150 Ry au,          0.0381 Debye
        Dipole field          0.0000 Ry au, 

        Potential amp.       -0.0038 Ry
        Total length         45.2181 bohr


     total cpu time spent up to now is     4080.5 secs

     total energy              =   -1333.62777871 Ry
     estimated scf accuracy    <       0.00041180 Ry

     iteration # 14     ecut=    55.12 Ry     beta= 0.10
     Davidson diagonalization with overlap
     ethr =  4.68E-08,  avg # of iterations =  3.5

     negative rho (up, down):  3.151E-03 0.000E+00

     Adding external electric field

     Computed dipole along edir(3) : 
        Dipole                0.0143 Ry au,          0.0364 Debye
        Dipole field          0.0000 Ry au, 

        Potential amp.       -0.0037 Ry
        Total length         45.2181 bohr


     total cpu time spent up to now is     4288.2 secs

     total energy              =   -1333.62779880 Ry
     estimated scf accuracy    <       0.00002467 Ry

     iteration # 15     ecut=    55.12 Ry     beta= 0.10
     Davidson diagonalization with overlap
     ethr =  1.79E-08,  avg # of iterations =  4.2

     negative rho (up, down):  1.481E-03 0.000E+00

     Adding external electric field

     Computed dipole along edir(3) : 
        Dipole                0.0188 Ry au,          0.0477 Debye
        Dipole field          0.0001 Ry au, 

        Potential amp.       -0.0048 Ry
        Total length         45.2181 bohr


     total cpu time spent up to now is     4509.8 secs

     End of self-consistent calculation

          k = 0.0000 0.0000 0.0000 ( 30769 PWs)   bands (ev):

   -72.9477 -72.9155 -72.9004 -72.8697 -72.8421 -72.7961 -37.3858 -37.2762
   -37.1904 -37.1491 -37.1116 -37.0862 -37.0753 -37.0102 -36.9967 -36.9821
   -36.9289 -36.9007 -36.8519 -36.6646 -36.6438 -36.5945 -36.4292 -36.3871
    -7.3983  -5.3703  -4.9508  -4.6404  -4.6236  -4.6091  -4.3377  -4.2836
    -4.2569  -3.7181  -3.6843  -3.6605  -3.4205  -3.3373  -3.2925  -2.0507
    -1.9824  -1.7555  -1.3873  -1.2561  -1.2511  -0.9669  -0.9035  -0.8694
    -0.6804  -0.6756  -0.3837  -0.2044  -0.1172   0.0056   0.1797   0.3196
     0.5591   0.6137   0.6920   0.8893   1.1043   1.4047   1.4431   1.4983
     1.7509   2.0657   2.3053   2.3438   2.6014   2.6742   3.0084   3.1690
     3.3706   3.3984   3.4423   3.5660   3.5747   3.9359   4.0472   4.1022
     4.4037   4.4449   4.5396

          k = 0.0000 0.0173 0.0000 ( 30741 PWs)   bands (ev):

   -72.9477 -72.9155 -72.9004 -72.8697 -72.8421 -72.7961 -37.3862 -37.2769
   -37.1907 -37.1493 -37.1119 -37.0875 -37.0745 -37.0102 -36.9964 -36.9823
   -36.9295 -36.9014 -36.8522 -36.6647 -36.6439 -36.5945 -36.4292 -36.3872
    -7.3315  -5.3027  -4.8910  -4.6072  -4.5863  -4.5536  -4.2982  -4.2610
    -4.2055  -3.7002  -3.6510  -3.6277  -3.3575  -3.3090  -3.2207  -2.0507
    -1.9697  -1.7583  -1.3868  -1.2419  -1.2115  -1.0603  -0.8600  -0.8211
    -0.7657  -0.6632  -0.3573  -0.1742  -0.1243   0.0520   0.0900   0.2641
     0.3870   0.5812   0.7479   0.8444   1.0890   1.3163   1.4132   1.4742
     1.6213   1.9430   2.1684   2.3023   2.5831   2.6433   2.9931   3.0004
     3.1576   3.1663   3.2491   3.5575   3.6006   3.8771   4.0568   4.0977
     4.4575   4.5306   4.5530

          k = 0.0000 0.0346 0.0000 ( 30749 PWs)   bands (ev):

   -72.9476 -72.9155 -72.9004 -72.8697 -72.8421 -72.7961 -37.3872 -37.2789
   -37.1916 -37.1500 -37.1128 -37.0906 -37.0731 -37.0103 -36.9958 -36.9829
   -36.9312 -36.9032 -36.8532 -36.6648 -36.6441 -36.5947 -36.4294 -36.3873
    -7.1351  -5.1066  -4.7429  -4.5469  -4.4285  -4.3938  -4.1947  -4.1869
    -4.0566  -3.6477  -3.5487  -3.5289  -3.2261  -3.1761  -3.0103  -2.0545
    -1.9396  -1.7764  -1.3951  -1.2286  -1.2015  -1.1107  -0.9479  -0.7855
    -0.7365  -0.6138  -0.3398  -0.1699  -0.1319  -0.0875   0.0755   0.1315
     0.1863   0.4925   0.7206   0.7214   1.0474   1.0903   1.2678   1.3116
     1.4377   1.6327   1.8172   2.1366   2.3386   2.4584   2.5611   2.5895
     2.6880   3.0513   3.2974   3.4198   3.4683   3.7154   3.8832   4.0568
     4.4916   4.5071   4.5471

          k = 0.0000 0.0519 0.0000 ( 30690 PWs)   bands (ev):

   -72.9475 -72.9155 -72.9003 -72.8696 -72.8420 -72.7960 -37.3886 -37.2816
   -37.1927 -37.1509 -37.1139 -37.0940 -37.0720 -37.0102 -36.9951 -36.9835
   -36.9335 -36.9056 -36.8545 -36.6651 -36.6444 -36.5950 -36.4296 -36.3876
    -6.8217  -4.8098  -4.6714  -4.3363  -4.1844  -4.1529  -4.0902  -4.0226
    -3.8275  -3.5626  -3.3724  -3.3714  -3.0963  -2.8990  -2.6789  -2.0644
    -1.9266  -1.8414  -1.4483  -1.3937  -1.2019  -1.1474  -0.9169  -0.8153
    -0.5869  -0.5051  -0.4870  -0.3534  -0.2967  -0.1801  -0.0008   0.0393
     0.3569   0.3929   0.5612   0.5795   0.8423   0.8924   0.9227   0.9934
     1.2235   1.3395   1.4753   1.6529   1.6803   1.8715   2.3014   2.3529
     2.4754   2.7280   3.1657   3.2688   3.4691   3.5258   3.5868   3.8359
     3.8603   4.2037   4.4036

          k = 0.0000 0.0692 0.0000 ( 30692 PWs)   bands (ev):

   -72.9474 -72.9154 -72.9003 -72.8696 -72.8420 -72.7960 -37.3900 -37.2844
   -37.1938 -37.1519 -37.1151 -37.0971 -37.0713 -37.0098 -36.9947 -36.9839
   -36.9360 -36.9079 -36.8558 -36.6653 -36.6447 -36.5953 -36.4298 -36.3878
    -6.4152  -4.7931  -4.4235  -4.0133  -3.9614  -3.9145  -3.8809  -3.8081
    -3.5500  -3.4406  -3.1970  -3.1085  -2.9381  -2.5825  -2.3109  -2.0477
    -2.0069  -1.9424  -1.5548  -1.4790  -1.4164  -1.1347  -0.9352  -0.7722
    -0.7570  -0.6499  -0.5066  -0.3489  -0.2886  -0.2634  -0.1021   0.1690
     0.1759   0.3686   0.4181   0.4363   0.5543   0.6147   0.6372   0.7911
     0.8614   0.9514   0.9996   1.1186   1.2410   1.5189   2.0168   2.2015
     2.2993   2.3649   2.8736   3.1484   3.1706   3.2003   3.3841   3.5328
     4.0841   4.0917   4.1266

          k = 0.0000 0.0865 0.0000 ( 30628 PWs)   bands (ev):

   -72.9473 -72.9154 -72.9003 -72.8696 -72.8420 -72.7960 -37.3911 -37.2863
   -37.1946 -37.1526 -37.1159 -37.0993 -37.0710 -37.0094 -36.9946 -36.9841
   -36.9379 -36.9095 -36.8568 -36.6654 -36.6449 -36.5955 -36.4300 -36.3880
    -5.9568  -5.0469  -4.0906  -3.8606  -3.7476  -3.7355  -3.6603  -3.5170
    -3.2784  -3.2581  -3.0948  -2.8035  -2.7585  -2.3577  -2.3115  -2.1732
    -1.9578  -1.9117  -1.6903  -1.4704  -1.3785  -1.2707  -1.0862  -0.8907
    -0.8380  -0.6444  -0.5372  -0.4542  -0.3414  -0.2051  -0.0799   0.0193
     0.0904   0.1180   0.1660   0.2475   0.2549   0.4326   0.4512   0.5501
     0.7392   0.7493   0.7964   0.8476   0.9522   1.5530   1.6572   1.8484
     2.2559   2.3336   2.4909   2.9093   3.0394   3.1419   3.2712   3.3611
     3.7874   3.9959   4.0810

          k = 0.0000-0.1038 0.0000 ( 30618 PWs)   bands (ev):

   -72.9473 -72.9154 -72.9003 -72.8696 -72.8420 -72.7960 -37.3914 -37.2871
   -37.1949 -37.1528 -37.1162 -37.1000 -37.0709 -37.0093 -36.9946 -36.9841
   -36.9385 -36.9101 -36.8572 -36.6655 -36.6449 -36.5956 -36.4300 -36.3881
    -5.5995  -5.3345  -3.9411  -3.8215  -3.6892  -3.6463  -3.5748  -3.3399
    -3.1398  -3.1080  -3.1071  -2.7779  -2.4944  -2.3146  -2.2876  -2.2622
    -2.2601  -1.7824  -1.7806  -1.4461  -1.3864  -1.0666  -0.9297  -0.9087
    -0.8863  -0.7806  -0.7760  -0.5012  -0.4347  -0.2781  -0.1111  -0.0293
    -0.0268   0.0157   0.0372   0.1956   0.2608   0.4074   0.4119   0.4796
     0.5023   0.6959   0.7456   0.9174   0.9846   1.4296   1.5641   1.7617
     2.1768   2.3388   2.4172   2.8032   2.9804   3.1411   3.1656   3.3603
     3.6610   3.8751   4.0360

          k = 0.0150 0.0086 0.0000 ( 30738 PWs)   bands (ev):

   -72.9469 -72.9147 -72.9012 -72.8705 -72.8413 -72.7969 -37.3738 -37.2750
   -37.1922 -37.1374 -37.0999 -37.0852 -37.0737 -37.0118 -36.9979 -36.9809
   -36.9279 -36.9023 -36.8535 -36.6635 -36.6572 -36.5957 -36.4421 -36.4001
    -7.3314  -5.3028  -4.8836  -4.6197  -4.5690  -4.5673  -4.3044  -4.2389
    -4.2221  -3.6841  -3.6615  -3.6299  -3.3729  -3.2725  -3.2416  -2.0370
    -1.9799  -1.7515  -1.3692  -1.2412  -1.2204  -1.0716  -0.9104  -0.8497
    -0.7374  -0.7031  -0.4089  -0.2193  -0.1086  -0.0015   0.1999   0.3467
     0.4313   0.6389   0.6860   0.7677   1.1023   1.3650   1.3880   1.4624
     1.7622   1.8837   2.1885   2.3222   2.4430   2.7095   2.9649   3.0124
     3.0927   3.1734   3.2350   3.5267   3.6942   3.9676   3.9852   4.1184
     4.4193   4.5331   4.7090

          k = 0.0150 0.0259 0.0000 ( 30739 PWs)   bands (ev):

   -72.9469 -72.9147 -72.9012 -72.8705 -72.8413 -72.7969 -37.3746 -37.2764
   -37.1928 -37.1378 -37.1005 -37.0876 -37.0725 -37.0118 -36.9974 -36.9813
   -36.9290 -36.9036 -36.8541 -36.6636 -36.6573 -36.5958 -36.4422 -36.4003
    -7.1997  -5.1707  -4.7699  -4.5567  -4.5363  -4.4223  -4.2319  -4.1942
    -4.1177  -3.6492  -3.6039  -3.5534  -3.2645  -3.2172  -3.0863  -2.0404
    -1.9582  -1.7599  -1.3797  -1.2064  -1.1933  -1.1541  -0.8621  -0.8392
    -0.8036  -0.7195  -0.3689  -0.1687  -0.1200   0.0274   0.0636   0.1923
     0.2786   0.5847   0.7016   0.7055   1.0630   1.1952   1.3507   1.3524
     1.5508   1.6856   1.9784   2.2191   2.3483   2.5975   2.6739   2.7082
     2.7716   3.0595   3.2734   3.4406   3.4986   3.8411   3.9653   4.1220
     4.4138   4.4520   4.5245

          k = 0.0150 0.0432 0.0000 ( 30714 PWs)   bands (ev):

   -72.9468 -72.9147 -72.9012 -72.8704 -72.8413 -72.7968 -37.3758 -37.2788
   -37.1937 -37.1387 -37.1015 -37.0909 -37.0712 -37.0117 -36.9967 -36.9819
   -36.9310 -36.9057 -36.8552 -36.6638 -36.6575 -36.5961 -36.4424 -36.4005
    -6.9443  -4.9200  -4.6325  -4.4218  -4.3982  -4.1976  -4.1074  -4.0819
    -3.9293  -3.5811  -3.4804  -3.4062  -3.1115  -3.0475  -2.8033  -2.0530
    -1.9329  -1.7958  -1.4172  -1.3626  -1.1622  -1.1155  -0.9732  -0.8065
    -0.7494  -0.6492  -0.3689  -0.2367  -0.1537  -0.1351  -0.0778   0.0868
     0.2702   0.4874   0.6044   0.6190   0.9577   0.9725   1.0426   1.1810
     1.3523   1.4137   1.6071   1.8617   1.9629   2.0018   2.3796   2.4647
     2.5372   2.8968   3.1426   3.3509   3.5189   3.6130   3.6241   3.9214
     4.0165   4.2670   4.5287

          k = 0.0150 0.0605 0.0000 ( 30674 PWs)   bands (ev):

   -72.9466 -72.9147 -72.9011 -72.8704 -72.8412 -72.7968 -37.3773 -37.2815
   -37.1948 -37.1397 -37.1027 -37.0942 -37.0703 -37.0114 -36.9962 -36.9824
   -36.9334 -36.9081 -36.8565 -36.6640 -36.6578 -36.5963 -36.4426 -36.4007
    -6.5824  -4.6800  -4.5558  -4.1686  -4.1336  -3.9873  -3.9702  -3.8379
    -3.6780  -3.4797  -3.2927  -3.1987  -2.9676  -2.7451  -2.4500  -2.0607
    -1.9617  -1.8822  -1.5227  -1.4784  -1.3215  -1.1230  -0.8882  -0.8274
    -0.8174  -0.5152  -0.5040  -0.3952  -0.3640  -0.2157  -0.0454   0.0884
     0.2897   0.3611   0.3940   0.5288   0.6543   0.7462   0.8445   0.9372
     0.9546   1.1174   1.2549   1.3505   1.4548   1.4940   2.1697   2.3047
     2.3964   2.4506   3.0379   3.0608   3.3041   3.3941   3.3969   3.7708
     3.9091   4.1123   4.3476

          k = 0.0150 0.0778 0.0000 ( 30633 PWs)   bands (ev):

   -72.9465 -72.9147 -72.9011 -72.8704 -72.8412 -72.7968 -37.3785 -37.2839
   -37.1957 -37.1405 -37.1037 -37.0968 -37.0699 -37.0110 -36.9960 -36.9826
   -36.9356 -36.9101 -36.8576 -36.6642 -36.6580 -36.5966 -36.4427 -36.4009
    -6.1445  -4.8518  -4.2020  -3.9233  -3.8669  -3.8071  -3.7923  -3.5443
    -3.3949  -3.3300  -3.1073  -2.9207  -2.8165  -2.4566  -2.2863  -2.1060
    -1.9671  -1.8972  -1.6246  -1.5298  -1.4899  -1.1869  -1.0818  -0.9068
    -0.7795  -0.6688  -0.5599  -0.3953  -0.3614  -0.2471  -0.1557   0.0883
     0.0942   0.1614   0.3133   0.3285   0.3804   0.4347   0.5665   0.6301
     0.7860   0.9167   0.9414   0.9840   1.0791   1.5056   1.8551   1.9564
     2.2900   2.3446   2.6064   3.0462   3.0980   3.1420   3.3422   3.4779
     3.9594   4.0695   4.1607

          k = 0.0150 0.0951 0.0000 ( 30637 PWs)   bands (ev):

   -72.9465 -72.9146 -72.9011 -72.8704 -72.8412 -72.7968 -37.3792 -37.2853
   -37.1963 -37.1410 -37.1043 -37.0983 -37.0697 -37.0106 -36.9959 -36.9827
   -36.9369 -36.9112 -36.8583 -36.6643 -36.6581 -36.5967 -36.4428 -36.4010
    -5.6903  -5.1712  -3.9392  -3.7828  -3.7578  -3.6835  -3.6234  -3.2949
    -3.1579  -3.1193  -3.0675  -2.7415  -2.5793  -2.4320  -2.2687  -2.2668
    -2.0828  -1.8058  -1.7410  -1.5137  -1.3531  -1.1706  -1.1395  -0.9615
    -0.8610  -0.7542  -0.6757  -0.5760  -0.4675  -0.3027  -0.1374  -0.1078
    -0.0501  -0.0325   0.1224   0.1967   0.3301   0.3897   0.4119   0.5164
     0.5555   0.7502   0.7837   1.0474   1.1359   1.5014   1.5087   1.7626
     2.2669   2.3421   2.3871   2.9148   3.0381   3.0459   3.2718   3.3574
     3.7239   3.9269   4.0500

          k = 0.0150-0.0951 0.0000 ( 30637 PWs)   bands (ev):

   -72.9465 -72.9146 -72.9011 -72.8704 -72.8412 -72.7968 -37.3792 -37.2853
   -37.1963 -37.1410 -37.1043 -37.0983 -37.0697 -37.0106 -36.9959 -36.9827
   -36.9369 -36.9112 -36.8583 -36.6643 -36.6581 -36.5967 -36.4428 -36.4010
    -5.6903  -5.1712  -3.9392  -3.7828  -3.7578  -3.6835  -3.6234  -3.2949
    -3.1579  -3.1193  -3.0675  -2.7415  -2.5793  -2.4320  -2.2687  -2.2668
    -2.0828  -1.8058  -1.7410  -1.5137  -1.3531  -1.1706  -1.1395  -0.9615
    -0.8610  -0.7542  -0.6757  -0.5760  -0.4675  -0.3027  -0.1374  -0.1078
    -0.0501  -0.0325   0.1224   0.1967   0.3301   0.3897   0.4119   0.5164
     0.5555   0.7502   0.7837   1.0474   1.1359   1.5014   1.5087   1.7626
     2.2669   2.3421   2.3871   2.9148   3.0381   3.0459   3.2718   3.3574
     3.7239   3.9269   4.0493

          k = 0.0150-0.0778 0.0000 ( 30633 PWs)   bands (ev):

   -72.9465 -72.9147 -72.9011 -72.8704 -72.8412 -72.7968 -37.3785 -37.2839
   -37.1957 -37.1405 -37.1037 -37.0968 -37.0699 -37.0110 -36.9960 -36.9826
   -36.9356 -36.9101 -36.8576 -36.6642 -36.6580 -36.5966 -36.4427 -36.4009
    -6.1445  -4.8518  -4.2020  -3.9233  -3.8669  -3.8071  -3.7923  -3.5443
    -3.3949  -3.3300  -3.1073  -2.9207  -2.8165  -2.4566  -2.2863  -2.1060
    -1.9671  -1.8972  -1.6246  -1.5298  -1.4899  -1.1869  -1.0818  -0.9068
    -0.7795  -0.6688  -0.5599  -0.3953  -0.3614  -0.2471  -0.1557   0.0883
     0.0942   0.1614   0.3133   0.3285   0.3804   0.4347   0.5665   0.6301
     0.7860   0.9167   0.9414   0.9840   1.0791   1.5056   1.8551   1.9564
     2.2900   2.3446   2.6064   3.0462   3.0979   3.1420   3.3422   3.4779
     3.9593   4.0693   4.1607

          k = 0.0150-0.0605 0.0000 ( 30674 PWs)   bands (ev):

   -72.9466 -72.9147 -72.9011 -72.8704 -72.8412 -72.7968 -37.3773 -37.2815
   -37.1948 -37.1397 -37.1027 -37.0942 -37.0703 -37.0114 -36.9962 -36.9824
   -36.9334 -36.9081 -36.8565 -36.6640 -36.6578 -36.5963 -36.4426 -36.4007
    -6.5824  -4.6800  -4.5558  -4.1686  -4.1336  -3.9873  -3.9702  -3.8379
    -3.6780  -3.4797  -3.2927  -3.1987  -2.9676  -2.7451  -2.4500  -2.0607
    -1.9617  -1.8822  -1.5227  -1.4784  -1.3215  -1.1230  -0.8882  -0.8274
    -0.8174  -0.5152  -0.5040  -0.3952  -0.3640  -0.2157  -0.0454   0.0883
     0.2897   0.3611   0.3940   0.5289   0.6543   0.7462   0.8445   0.9372
     0.9546   1.1174   1.2549   1.3505   1.4548   1.4940   2.1697   2.3047
     2.3964   2.4506   3.0379   3.0608   3.3041   3.3941   3.3969   3.7708
     3.9091   4.1123   4.3475

          k = 0.0150-0.0432 0.0000 ( 30714 PWs)   bands (ev):

   -72.9468 -72.9147 -72.9012 -72.8704 -72.8413 -72.7968 -37.3758 -37.2788
   -37.1937 -37.1387 -37.1015 -37.0909 -37.0712 -37.0117 -36.9967 -36.9819
   -36.9310 -36.9057 -36.8552 -36.6638 -36.6575 -36.5961 -36.4424 -36.4005
    -6.9443  -4.9200  -4.6325  -4.4218  -4.3982  -4.1976  -4.1074  -4.0819
    -3.9293  -3.5811  -3.4804  -3.4062  -3.1115  -3.0475  -2.8033  -2.0530
    -1.9329  -1.7958  -1.4172  -1.3626  -1.1622  -1.1155  -0.9732  -0.8065
    -0.7494  -0.6492  -0.3689  -0.2367  -0.1537  -0.1351  -0.0778   0.0868
     0.2702   0.4874   0.6044   0.6190   0.9577   0.9725   1.0426   1.1810
     1.3523   1.4137   1.6071   1.8617   1.9629   2.0018   2.3796   2.4647
     2.5372   2.8968   3.1426   3.3509   3.5189   3.6130   3.6241   3.9213
     4.0165   4.2669   4.5291

          k = 0.0150-0.0259 0.0000 ( 30739 PWs)   bands (ev):

   -72.9469 -72.9147 -72.9012 -72.8705 -72.8413 -72.7969 -37.3746 -37.2764
   -37.1928 -37.1378 -37.1005 -37.0876 -37.0725 -37.0118 -36.9974 -36.9813
   -36.9290 -36.9036 -36.8541 -36.6636 -36.6573 -36.5958 -36.4422 -36.4003
    -7.1997  -5.1707  -4.7699  -4.5567  -4.5363  -4.4223  -4.2319  -4.1942
    -4.1177  -3.6492  -3.6039  -3.5534  -3.2645  -3.2172  -3.0863  -2.0404
    -1.9582  -1.7599  -1.3797  -1.2064  -1.1933  -1.1541  -0.8621  -0.8392
    -0.8036  -0.7195  -0.3689  -0.1687  -0.1200   0.0274   0.0636   0.1923
     0.2786   0.5847   0.7016   0.7055   1.0630   1.1952   1.3507   1.3524
     1.5508   1.6856   1.9784   2.2191   2.3483   2.5975   2.6739   2.7082
     2.7716   3.0595   3.2734   3.4406   3.4986   3.8411   3.9653   4.1220
     4.4137   4.4519   4.5228

          k = 0.0150-0.0086 0.0000 ( 30738 PWs)   bands (ev):

   -72.9469 -72.9147 -72.9012 -72.8705 -72.8413 -72.7969 -37.3738 -37.2750
   -37.1922 -37.1374 -37.0999 -37.0852 -37.0737 -37.0118 -36.9979 -36.9809
   -36.9279 -36.9023 -36.8535 -36.6635 -36.6572 -36.5957 -36.4421 -36.4001
    -7.3314  -5.3028  -4.8836  -4.6197  -4.5690  -4.5673  -4.3044  -4.2389
    -4.2221  -3.6841  -3.6615  -3.6299  -3.3729  -3.2725  -3.2416  -2.0370
    -1.9799  -1.7515  -1.3692  -1.2412  -1.2204  -1.0716  -0.9104  -0.8497
    -0.7374  -0.7031  -0.4089  -0.2193  -0.1086  -0.0015   0.1999   0.3467
     0.4313   0.6389   0.6860   0.7677   1.1023   1.3650   1.3880   1.4624
     1.7622   1.8837   2.1885   2.3222   2.4430   2.7095   2.9649   3.0124
     3.0927   3.1734   3.2350   3.5267   3.6942   3.9676   3.9852   4.1186
     4.4193   4.5330   4.7087

          k = 0.0300 0.0173 0.0000 ( 30743 PWs)   bands (ev):

   -72.9445 -72.9124 -72.9035 -72.8728 -72.8390 -72.7992 -37.3387 -37.2714
   -37.1973 -37.1030 -37.0823 -37.0692 -37.0655 -37.0162 -37.0014 -36.9775
   -36.9247 -36.9070 -36.8580 -36.6963 -36.6601 -36.5993 -36.4798 -36.4382
    -7.1346  -5.1064  -4.6868  -4.6053  -4.4164  -4.4110  -4.2159  -4.1118
    -4.1115  -3.6004  -3.5821  -3.5313  -3.2557  -3.0835  -3.0710  -2.0042
    -1.9798  -1.7424  -1.3434  -1.2817  -1.2100  -1.1241  -0.9581  -0.9033
    -0.8348  -0.7971  -0.4648  -0.2629  -0.1692   0.0564   0.1211   0.2375
     0.4344   0.5174   0.6355   0.7189   1.0490   1.2357   1.2664   1.2788
     1.4910   1.7203   1.9694   1.9904   2.2314   2.4804   2.5225   2.6521
     2.8235   2.9824   3.1348   3.4552   3.5472   3.8921   3.9759   4.1138
     4.2023   4.4232   4.4271

          k = 0.0300 0.0346 0.0000 ( 30717 PWs)   bands (ev):

   -72.9445 -72.9124 -72.9035 -72.8727 -72.8390 -72.7992 -37.3396 -37.2733
   -37.1979 -37.1037 -37.0852 -37.0679 -37.0663 -37.0161 -37.0009 -36.9779
   -36.9262 -36.9087 -36.8587 -36.6964 -36.6602 -36.5995 -36.4799 -36.4383
    -6.9438  -4.9191  -4.5580  -4.5343  -4.3618  -4.2122  -4.1003  -4.0467
    -3.9634  -3.5335  -3.5241  -3.4033  -3.1275  -3.0058  -2.8260  -2.0234
    -1.9586  -1.7590  -1.4187  -1.3952  -1.1671  -1.0697  -0.9626  -0.9581
    -0.8385  -0.7901  -0.4274  -0.2300  -0.1626  -0.1030  -0.0010   0.1148
     0.3519   0.4910   0.5919   0.6467   0.9967   1.0007   1.0701   1.2226
     1.2885   1.5184   1.7549   1.7592   1.8938   2.1030   2.3369   2.4071
     2.6963   2.8681   3.1812   3.2576   3.4529   3.6753   3.6756   3.9539
     4.0161   4.1964   4.4325

          k = 0.0300 0.0519 0.0000 ( 30679 PWs)   bands (ev):

   -72.9443 -72.9124 -72.9035 -72.8727 -72.8390 -72.7991 -37.3410 -37.2757
   -37.1988 -37.1046 -37.0884 -37.0673 -37.0669 -37.0158 -37.0003 -36.9783
   -36.9283 -36.9108 -36.8598 -36.6965 -36.6604 -36.5997 -36.4801 -36.4385
    -6.6383  -4.6319  -4.4619  -4.4312  -4.1667  -4.0176  -3.9409  -3.8495
    -3.7542  -3.4534  -3.3749  -3.2117  -2.8916  -2.8859  -2.5114  -2.0492
    -1.9595  -1.8089  -1.5586  -1.4990  -1.2527  -1.1143  -1.0454  -0.8643
    -0.8527  -0.6775  -0.4679  -0.3470  -0.2717  -0.2165  -0.1329   0.1442
     0.2225   0.3962   0.4157   0.5741   0.7382   0.8154   0.9672   0.9683
     1.0670   1.2888   1.2968   1.4885   1.5119   1.5427   2.2447   2.2789
     2.4840   2.6320   2.8929   3.0966   3.3442   3.3901   3.4922   3.8589
     3.9245   4.1053   4.4011

          k = 0.0300 0.0692 0.0000 ( 30648 PWs)   bands (ev):

   -72.9442 -72.9124 -72.9035 -72.8727 -72.8389 -72.7991 -37.3423 -37.2782
   -37.1996 -37.1055 -37.0913 -37.0684 -37.0663 -37.0152 -37.0000 -36.9785
   -36.9305 -36.9130 -36.8609 -36.6967 -36.6606 -36.6000 -36.4802 -36.4386
    -6.2395  -4.5939  -4.2597  -4.2583  -3.8463  -3.8286  -3.8043  -3.5558
    -3.4930  -3.3346  -3.1541  -2.9860  -2.7444  -2.5846  -2.3519  -2.0607
    -1.9405  -1.8766  -1.6506  -1.6093  -1.4532  -1.1516  -1.1483  -0.9918
    -0.7539  -0.6549  -0.6237  -0.4168  -0.3688  -0.3160  -0.2114  -0.0005
     0.0575   0.1807   0.3545   0.4063   0.4524   0.5468   0.6209   0.8191
     0.8206   1.0545   1.0567   1.1580   1.3083   1.4950   1.9745   2.1085
     2.2647   2.3906   2.7278   2.8830   3.2545   3.3067   3.3304   3.7253
     3.9651   3.9794   4.2593

          k = 0.0300 0.0865 0.0000 ( 30649 PWs)   bands (ev):

   -72.9442 -72.9124 -72.9035 -72.8727 -72.8389 -72.7991 -37.3432 -37.2800
   -37.2002 -37.1061 -37.0933 -37.0692 -37.0661 -37.0147 -36.9999 -36.9786
   -36.9322 -36.9145 -36.8617 -36.6968 -36.6607 -36.6001 -36.4803 -36.4387
    -5.7854  -4.8631  -4.1043  -3.9309  -3.6910  -3.6757  -3.5654  -3.2899
    -3.2123  -3.1410  -2.9854  -2.7200  -2.6334  -2.5123  -2.2607  -2.2537
    -1.9096  -1.8661  -1.7467  -1.6172  -1.4090  -1.2852  -1.2577  -1.0664
    -0.8311  -0.8009  -0.6510  -0.6456  -0.4958  -0.4825  -0.3149  -0.0915
    -0.0415  -0.0337   0.1581   0.2532   0.2858   0.4386   0.4518   0.5933
     0.7093   0.7925   0.9716   1.2470   1.3684   1.4903   1.6583   1.7862
     2.2428   2.3594   2.5535   2.8938   3.1280   3.2012   3.2953   3.4812
     3.9024   3.9427   4.1131

          k = 0.0300 0.1038 0.0000 ( 30624 PWs)   bands (ev):

   -72.9441 -72.9124 -72.9035 -72.8727 -72.8389 -72.7991 -37.3436 -37.2807
   -37.2005 -37.1064 -37.0940 -37.0695 -37.0660 -37.0144 -36.9999 -36.9786
   -36.9328 -36.9150 -36.8620 -36.6968 -36.6608 -36.6002 -36.4803 -36.4388
    -5.4248  -5.1627  -4.0400  -3.7868  -3.6393  -3.6153  -3.4761  -3.1169
    -3.0527  -3.0085  -2.9542  -2.6414  -2.6403  -2.4388  -2.3809  -2.2332
    -2.0864  -1.7946  -1.7174  -1.6075  -1.3986  -1.1793  -1.1542  -1.1463
    -1.0468  -0.9470  -0.8520  -0.6918  -0.5580  -0.4611  -0.3909  -0.1996
    -0.1073   0.0439   0.0544   0.1792   0.2382   0.3532   0.5060   0.5340
     0.6409   0.7414   0.9126   1.3518   1.4239   1.4658   1.4950   1.6831
     2.2220   2.3664   2.5255   2.8987   3.0724   3.1659   3.3074   3.3649
     3.7536   3.9332   3.9441

          k = 0.0300-0.0865 0.0000 ( 30649 PWs)   bands (ev):

   -72.9442 -72.9124 -72.9035 -72.8727 -72.8389 -72.7991 -37.3432 -37.2800
   -37.2002 -37.1061 -37.0933 -37.0692 -37.0661 -37.0147 -36.9999 -36.9786
   -36.9322 -36.9145 -36.8617 -36.6968 -36.6607 -36.6001 -36.4803 -36.4387
    -5.7854  -4.8631  -4.1043  -3.9309  -3.6910  -3.6757  -3.5654  -3.2899
    -3.2123  -3.1410  -2.9854  -2.7200  -2.6334  -2.5123  -2.2607  -2.2537
    -1.9096  -1.8661  -1.7467  -1.6172  -1.4090  -1.2852  -1.2577  -1.0664
    -0.8311  -0.8009  -0.6510  -0.6456  -0.4958  -0.4825  -0.3149  -0.0915
    -0.0415  -0.0337   0.1581   0.2532   0.2858   0.4386   0.4518   0.5933
     0.7093   0.7925   0.9716   1.2470   1.3684   1.4903   1.6583   1.7862
     2.2428   2.3594   2.5535   2.8938   3.1280   3.2012   3.2952   3.4812
     3.9022   3.9426   4.0966

          k = 0.0300-0.0692 0.0000 ( 30648 PWs)   bands (ev):

   -72.9442 -72.9124 -72.9035 -72.8727 -72.8389 -72.7991 -37.3423 -37.2782
   -37.1996 -37.1055 -37.0913 -37.0684 -37.0663 -37.0152 -37.0000 -36.9785
   -36.9305 -36.9130 -36.8609 -36.6967 -36.6606 -36.6000 -36.4802 -36.4386
    -6.2395  -4.5939  -4.2597  -4.2583  -3.8463  -3.8286  -3.8043  -3.5558
    -3.4930  -3.3346  -3.1541  -2.9860  -2.7444  -2.5846  -2.3519  -2.0607
    -1.9405  -1.8766  -1.6506  -1.6093  -1.4532  -1.1516  -1.1483  -0.9918
    -0.7539  -0.6549  -0.6237  -0.4168  -0.3688  -0.3160  -0.2114  -0.0005
     0.0575   0.1807   0.3545   0.4063   0.4524   0.5468   0.6209   0.8191
     0.8206   1.0545   1.0567   1.1580   1.3083   1.4950   1.9745   2.1085
     2.2647   2.3906   2.7278   2.8830   3.2545   3.3067   3.3304   3.7253
     3.9650   3.9794   4.2592

          k = 0.0300-0.0519 0.0000 ( 30679 PWs)   bands (ev):

   -72.9443 -72.9124 -72.9035 -72.8727 -72.8390 -72.7991 -37.3410 -37.2757
   -37.1988 -37.1046 -37.0884 -37.0673 -37.0669 -37.0158 -37.0003 -36.9783
   -36.9283 -36.9108 -36.8598 -36.6965 -36.6604 -36.5997 -36.4801 -36.4385
    -6.6383  -4.6319  -4.4619  -4.4312  -4.1667  -4.0176  -3.9409  -3.8495
    -3.7542  -3.4534  -3.3749  -3.2117  -2.8916  -2.8859  -2.5114  -2.0492
    -1.9595  -1.8089  -1.5586  -1.4990  -1.2527  -1.1143  -1.0454  -0.8643
    -0.8527  -0.6775  -0.4679  -0.3470  -0.2717  -0.2165  -0.1329   0.1442
     0.2225   0.3962   0.4157   0.5741   0.7382   0.8154   0.9672   0.9683
     1.0670   1.2888   1.2968   1.4885   1.5119   1.5427   2.2447   2.2788
     2.4840   2.6320   2.8929   3.0966   3.3442   3.3901   3.4922   3.8588
     3.9245   4.1053   4.3997

          k = 0.0300-0.0346 0.0000 ( 30717 PWs)   bands (ev):

   -72.9445 -72.9124 -72.9035 -72.8727 -72.8390 -72.7992 -37.3396 -37.2733
   -37.1979 -37.1037 -37.0852 -37.0679 -37.0663 -37.0161 -37.0009 -36.9779
   -36.9262 -36.9087 -36.8587 -36.6964 -36.6602 -36.5995 -36.4799 -36.4383
    -6.9438  -4.9191  -4.5580  -4.5343  -4.3618  -4.2122  -4.1003  -4.0467
    -3.9634  -3.5335  -3.5241  -3.4033  -3.1275  -3.0058  -2.8260  -2.0234
    -1.9586  -1.7590  -1.4187  -1.3952  -1.1671  -1.0697  -0.9626  -0.9581
    -0.8385  -0.7901  -0.4274  -0.2300  -0.1626  -0.1030  -0.0010   0.1148
     0.3519   0.4910   0.5919   0.6467   0.9967   1.0007   1.0701   1.2226
     1.2885   1.5184   1.7549   1.7592   1.8938   2.1030   2.3369   2.4071
     2.6963   2.8681   3.1812   3.2576   3.4529   3.6753   3.6756   3.9539
     4.0161   4.1964   4.4324

          k = 0.0300-0.0173 0.0000 ( 30743 PWs)   bands (ev):

   -72.9445 -72.9124 -72.9035 -72.8728 -72.8390 -72.7992 -37.3387 -37.2714
   -37.1973 -37.1030 -37.0823 -37.0692 -37.0655 -37.0162 -37.0014 -36.9775
   -36.9247 -36.9070 -36.8580 -36.6963 -36.6601 -36.5993 -36.4798 -36.4382
    -7.1346  -5.1064  -4.6868  -4.6053  -4.4164  -4.4110  -4.2159  -4.1118
    -4.1115  -3.6004  -3.5821  -3.5313  -3.2557  -3.0835  -3.0710  -2.0042
    -1.9798  -1.7424  -1.3434  -1.2817  -1.2100  -1.1241  -0.9581  -0.9033
    -0.8348  -0.7971  -0.4648  -0.2629  -0.1692   0.0564   0.1211   0.2375
     0.4344   0.5174   0.6355   0.7189   1.0490   1.2357   1.2664   1.2788
     1.4910   1.7203   1.9694   1.9904   2.2314   2.4804   2.5225   2.6521
     2.8235   2.9824   3.1348   3.4552   3.5472   3.8922   3.9759   4.1141
     4.2023   4.4233   4.4271

          k = 0.0300-0.0000 0.0000 ( 30737 PWs)   bands (ev):

   -72.9446 -72.9125 -72.9035 -72.8728 -72.8390 -72.7992 -37.3383 -37.2708
   -37.1971 -37.1028 -37.0811 -37.0699 -37.0652 -37.0162 -37.0017 -36.9773
   -36.9242 -36.9064 -36.8577 -36.6962 -36.6600 -36.5992 -36.4798 -36.4382
    -7.1994  -5.1707  -4.7457  -4.5637  -4.5515  -4.4262  -4.2404  -4.1732
    -4.1332  -3.6184  -3.5986  -3.5800  -3.2856  -3.1716  -3.1103  -1.9989
    -1.9892  -1.7393  -1.3166  -1.2387  -1.2368  -1.1439  -0.9911  -0.8928
    -0.8670  -0.6792  -0.5261  -0.2815  -0.1750   0.0502   0.2131   0.3246
     0.4417   0.5515   0.6381   0.7432   1.0683   1.2697   1.3232   1.3594
     1.5612   1.8690   1.9805   2.0515   2.3106   2.5011   2.6756   2.8470
     2.9157   3.0258   3.0889   3.4298   3.7543   3.8506   4.0688   4.0979
     4.3390   4.4171   4.6394

          k = 0.0450 0.0259 0.0000 ( 30686 PWs)   bands (ev):

   -72.9408 -72.9088 -72.9073 -72.8764 -72.8354 -72.8028 -37.2824 -37.2656
   -37.2051 -37.0774 -37.0624 -37.0482 -37.0233 -37.0105 -37.0069 -36.9719
   -36.9195 -36.9143 -36.8650 -36.7578 -36.6547 -36.6050 -36.5394 -36.4983
    -6.8201  -4.8020  -4.6369  -4.3768  -4.1957  -4.1687  -4.0730  -3.9344
    -3.9219  -3.5074  -3.4146  -3.3659  -3.0941  -2.7905  -2.7791  -1.9982
    -1.9782  -1.7296  -1.5607  -1.3927  -1.2145  -1.1484  -0.9877  -0.9551
    -0.9145  -0.8600  -0.5343  -0.3542  -0.2868  -0.2539   0.0673   0.2386
     0.3943   0.5319   0.5569   0.7150   0.7618   0.9549   1.0342   1.1924
     1.2279   1.2889   1.5914   1.7971   1.8404   2.0085   2.2490   2.2778
     2.7036   2.8479   3.0984   3.2219   3.4021   3.5932   3.6808   3.8031
     4.0685   4.1068   4.2610

          k = 0.0450 0.0432 0.0000 ( 30688 PWs)   bands (ev):

   -72.9407 -72.9088 -72.9073 -72.8764 -72.8353 -72.8028 -37.2834 -37.2676
   -37.2056 -37.0803 -37.0612 -37.0489 -37.0229 -37.0115 -37.0063 -36.9721
   -36.9211 -36.9160 -36.8657 -36.7579 -36.6548 -36.6052 -36.5395 -36.4983
    -6.5803  -4.6357  -4.5789  -4.2200  -4.0974  -4.0360  -3.8500  -3.8445
    -3.7618  -3.4095  -3.3588  -3.1952  -2.9482  -2.6985  -2.4991  -2.0129
    -1.9862  -1.7540  -1.6729  -1.5310  -1.2685  -1.2509  -1.0710  -0.8741
    -0.8466  -0.7960  -0.5153  -0.3926  -0.3849  -0.2746  -0.0421   0.1131
     0.3250   0.3870   0.4195   0.5733   0.7168   0.8484   0.8726   0.8942
     1.0410   1.2346   1.3537   1.5256   1.5735   1.6547   2.1490   2.2440
     2.6249   2.7071   2.7765   3.0779   3.2143   3.3985   3.4753   3.8029
     4.0081   4.0121   4.1051

          k = 0.0450 0.0605 0.0000 ( 30656 PWs)   bands (ev):

   -72.9406 -72.9088 -72.9073 -72.8764 -72.8353 -72.8028 -37.2847 -37.2698
   -37.2061 -37.0832 -37.0605 -37.0498 -37.0222 -37.0126 -37.0058 -36.9722
   -36.9231 -36.9180 -36.8665 -36.7579 -36.6550 -36.6054 -36.5395 -36.4984
    -6.2374  -4.5769  -4.3119  -4.2262  -3.8648  -3.8249  -3.7252  -3.5985
    -3.5167  -3.2711  -3.2214  -2.9868  -2.7038  -2.5806  -2.3607  -2.0362
    -1.9177  -1.8276  -1.7785  -1.6739  -1.3970  -1.3534  -1.1611  -0.9581
    -0.7399  -0.7256  -0.5784  -0.4728  -0.4642  -0.3684  -0.1653  -0.0341
     0.0280   0.0845   0.4118   0.4617   0.5337   0.5766   0.6185   0.7639
     0.7932   1.0815   1.1576   1.3410   1.5145   1.5806   1.9647   2.2197
     2.2361   2.5059   2.7389   2.7788   3.2679   3.2699   3.4021   3.7632
     3.9090   3.9901   4.0869

          k = 0.0450 0.0778 0.0000 ( 30662 PWs)   bands (ev):

   -72.9405 -72.9088 -72.9073 -72.8763 -72.8353 -72.8028 -37.2857 -37.2718
   -37.2066 -37.0855 -37.0602 -37.0505 -37.0213 -37.0136 -37.0057 -36.9722
   -36.9248 -36.9197 -36.8672 -36.7579 -36.6551 -36.6056 -36.5395 -36.4984
    -5.8160  -4.4951  -4.4944  -3.9242  -3.6851  -3.5962  -3.4974  -3.3466
    -3.2613  -3.1322  -2.9730  -2.7829  -2.5450  -2.4708  -2.3213  -2.2026
    -1.9435  -1.8995  -1.7819  -1.7300  -1.4494  -1.3626  -1.2490  -1.1263
    -0.8351  -0.7886  -0.7054  -0.6052  -0.5668  -0.5390  -0.4904  -0.1254
    -0.0679  -0.0048   0.0398   0.3139   0.3810   0.4073   0.5537   0.6297
     0.7381   0.8242   1.2149   1.3250   1.5590   1.6721   1.7112   1.8690
     2.2298   2.4145   2.6957   2.7683   3.2418   3.2716   3.3414   3.6137
     3.8067   3.9728   4.1036

          k = 0.0450 0.0951 0.0000 ( 30663 PWs)   bands (ev):

   -72.9404 -72.9087 -72.9073 -72.8763 -72.8353 -72.8028 -37.2863 -37.2729
   -37.2069 -37.0868 -37.0601 -37.0509 -37.0207 -37.0142 -37.0057 -36.9721
   -36.9259 -36.9206 -36.8677 -36.7579 -36.6552 -36.6057 -36.5395 -36.4984
    -5.3671  -4.8429  -4.4361  -3.6836  -3.5665  -3.4936  -3.3024  -3.1007
    -3.0204  -2.8855  -2.8767  -2.7480  -2.5509  -2.4957  -2.3755  -2.1595
    -2.0227  -1.9880  -1.8009  -1.6090  -1.3692  -1.3244  -1.3163  -1.2372
    -1.1308  -1.1059  -0.9870  -0.8070  -0.6162  -0.5827  -0.4629  -0.1817
    -0.1202  -0.0074   0.0473   0.1503   0.2109   0.3312   0.5404   0.6244
     0.7090   0.7136   1.1031   1.5068   1.5395   1.6315   1.6506   1.7513
     2.2114   2.4147   2.7872   2.7881   3.2711   3.2712   3.3398   3.4273
     3.7760   3.8613   4.0472

          k = 0.0450 0.1124 0.0000 ( 30663 PWs)   bands (ev):

   -72.9404 -72.9087 -72.9073 -72.8763 -72.8353 -72.8028 -37.2863 -37.2729
   -37.2069 -37.0868 -37.0601 -37.0509 -37.0207 -37.0142 -37.0057 -36.9721
   -36.9259 -36.9206 -36.8677 -36.7579 -36.6552 -36.6057 -36.5395 -36.4984
    -5.3671  -4.8429  -4.4361  -3.6836  -3.5665  -3.4936  -3.3024  -3.1007
    -3.0204  -2.8855  -2.8767  -2.7480  -2.5509  -2.4957  -2.3755  -2.1595
    -2.0227  -1.9880  -1.8009  -1.6090  -1.3692  -1.3244  -1.3163  -1.2372
    -1.1308  -1.1059  -0.9870  -0.8070  -0.6162  -0.5827  -0.4629  -0.1817
    -0.1202  -0.0074   0.0473   0.1503   0.2109   0.3312   0.5404   0.6244
     0.7090   0.7136   1.1031   1.5068   1.5395   1.6315   1.6506   1.7513
     2.2114   2.4147   2.7872   2.7881   3.2711   3.2712   3.3398   3.4274
     3.7764   3.8613   4.0477

          k = 0.0450-0.0778 0.0000 ( 30662 PWs)   bands (ev):

   -72.9405 -72.9088 -72.9073 -72.8763 -72.8353 -72.8028 -37.2857 -37.2718
   -37.2066 -37.0855 -37.0602 -37.0505 -37.0213 -37.0136 -37.0057 -36.9722
   -36.9248 -36.9197 -36.8672 -36.7579 -36.6551 -36.6056 -36.5395 -36.4984
    -5.8160  -4.4951  -4.4944  -3.9242  -3.6851  -3.5962  -3.4974  -3.3466
    -3.2613  -3.1322  -2.9730  -2.7829  -2.5450  -2.4708  -2.3213  -2.2026
    -1.9435  -1.8995  -1.7819  -1.7300  -1.4494  -1.3626  -1.2490  -1.1263
    -0.8351  -0.7886  -0.7054  -0.6052  -0.5668  -0.5390  -0.4904  -0.1254
    -0.0679  -0.0048   0.0398   0.3139   0.3810   0.4073   0.5537   0.6297
     0.7381   0.8242   1.2149   1.3250   1.5590   1.6721   1.7112   1.8690
     2.2298   2.4145   2.6957   2.7683   3.2418   3.2716   3.3414   3.6137
     3.8068   3.9732   4.1041

          k = 0.0450-0.0605 0.0000 ( 30656 PWs)   bands (ev):

   -72.9406 -72.9088 -72.9073 -72.8764 -72.8353 -72.8028 -37.2847 -37.2698
   -37.2061 -37.0832 -37.0605 -37.0498 -37.0222 -37.0126 -37.0058 -36.9722
   -36.9231 -36.9180 -36.8665 -36.7579 -36.6550 -36.6054 -36.5395 -36.4984
    -6.2374  -4.5769  -4.3119  -4.2262  -3.8648  -3.8249  -3.7252  -3.5985
    -3.5167  -3.2711  -3.2214  -2.9868  -2.7038  -2.5806  -2.3607  -2.0362
    -1.9177  -1.8276  -1.7785  -1.6739  -1.3970  -1.3534  -1.1611  -0.9581
    -0.7399  -0.7256  -0.5784  -0.4728  -0.4642  -0.3684  -0.1653  -0.0341
     0.0280   0.0845   0.4118   0.4617   0.5337   0.5766   0.6185   0.7639
     0.7932   1.0815   1.1576   1.3410   1.5145   1.5806   1.9647   2.2197
     2.2361   2.5059   2.7389   2.7788   3.2679   3.2699   3.4021   3.7632
     3.9090   3.9901   4.0870

          k = 0.0450-0.0432 0.0000 ( 30688 PWs)   bands (ev):

   -72.9407 -72.9088 -72.9073 -72.8764 -72.8353 -72.8028 -37.2834 -37.2676
   -37.2056 -37.0803 -37.0612 -37.0489 -37.0229 -37.0115 -37.0063 -36.9721
   -36.9211 -36.9160 -36.8657 -36.7579 -36.6548 -36.6052 -36.5395 -36.4983
    -6.5803  -4.6357  -4.5789  -4.2200  -4.0974  -4.0360  -3.8500  -3.8445
    -3.7618  -3.4095  -3.3588  -3.1952  -2.9482  -2.6985  -2.4991  -2.0129
    -1.9862  -1.7540  -1.6729  -1.5310  -1.2685  -1.2509  -1.0710  -0.8741
    -0.8466  -0.7960  -0.5153  -0.3926  -0.3848  -0.2746  -0.0421   0.1131
     0.3250   0.3870   0.4195   0.5733   0.7168   0.8484   0.8726   0.8942
     1.0410   1.2346   1.3537   1.5256   1.5735   1.6547   2.1490   2.2440
     2.6249   2.7071   2.7765   3.0779   3.2143   3.3985   3.4753   3.8029
     4.0079   4.0121   4.1051

          k = 0.0450-0.0259 0.0000 ( 30686 PWs)   bands (ev):

   -72.9408 -72.9088 -72.9073 -72.8764 -72.8354 -72.8028 -37.2824 -37.2656
   -37.2051 -37.0774 -37.0624 -37.0482 -37.0233 -37.0105 -37.0069 -36.9719
   -36.9195 -36.9143 -36.8650 -36.7578 -36.6547 -36.6050 -36.5394 -36.4983
    -6.8201  -4.8020  -4.6369  -4.3768  -4.1957  -4.1687  -4.0730  -3.9344
    -3.9219  -3.5074  -3.4146  -3.3659  -3.0941  -2.7905  -2.7791  -1.9982
    -1.9782  -1.7296  -1.5607  -1.3927  -1.2145  -1.1484  -0.9877  -0.9551
    -0.9145  -0.8600  -0.5343  -0.3542  -0.2868  -0.2539   0.0673   0.2386
     0.3943   0.5319   0.5569   0.7150   0.7618   0.9549   1.0342   1.1924
     1.2279   1.2889   1.5914   1.7971   1.8404   2.0085   2.2490   2.2778
     2.7036   2.8479   3.0984   3.2219   3.4021   3.5932   3.6808   3.8031
     4.0686   4.1068   4.2610

          k = 0.0450-0.0086 0.0000 ( 30714 PWs)   bands (ev):

   -72.9408 -72.9088 -72.9073 -72.8764 -72.8354 -72.8028 -37.2817 -37.2645
   -37.2049 -37.0753 -37.0634 -37.0477 -37.0234 -37.0099 -37.0074 -36.9717
   -36.9187 -36.9132 -36.8647 -36.7578 -36.6546 -36.6049 -36.5394 -36.4983
    -6.9432  -4.9186  -4.5620  -4.4869  -4.4029  -4.1952  -4.1251  -4.0482
    -3.9584  -3.5355  -3.4691  -3.4423  -3.1304  -2.9865  -2.8399  -2.0126
    -1.9526  -1.7273  -1.4927  -1.2654  -1.2346  -1.1124  -1.0762  -1.0074
    -0.8914  -0.7714  -0.6216  -0.3644  -0.2983  -0.1609   0.0892   0.3408
     0.3985   0.5711   0.6185   0.8548   0.8642   0.9747   1.1266   1.1808
     1.3523   1.4485   1.7083   1.8919   2.1565   2.2281   2.3023   2.3217
     2.7392   2.9815   3.0913   3.3336   3.4950   3.7310   3.8902   3.9088
     4.1541   4.4493   4.4548

          k = 0.0450 0.0086 0.0000 ( 30714 PWs)   bands (ev):

   -72.9408 -72.9088 -72.9073 -72.8764 -72.8354 -72.8028 -37.2817 -37.2645
   -37.2049 -37.0753 -37.0634 -37.0477 -37.0234 -37.0099 -37.0074 -36.9717
   -36.9187 -36.9132 -36.8647 -36.7578 -36.6546 -36.6049 -36.5394 -36.4983
    -6.9432  -4.9186  -4.5620  -4.4869  -4.4029  -4.1952  -4.1251  -4.0482
    -3.9584  -3.5355  -3.4691  -3.4423  -3.1304  -2.9865  -2.8399  -2.0126
    -1.9526  -1.7273  -1.4927  -1.2654  -1.2346  -1.1124  -1.0762  -1.0074
    -0.8914  -0.7714  -0.6216  -0.3644  -0.2983  -0.1609   0.0892   0.3408
     0.3985   0.5711   0.6185   0.8548   0.8642   0.9747   1.1265   1.1808
     1.3523   1.4485   1.7083   1.8919   2.1565   2.2281   2.3023   2.3217
     2.7392   2.9815   3.0912   3.3336   3.4950   3.7310   3.8901   3.9088
     4.1541   4.4470   4.4559

          k = 0.0599 0.0346 0.0000 ( 30690 PWs)   bands (ev):

   -72.9358 -72.9121 -72.9041 -72.8812 -72.8306 -72.8076 -37.2578 -37.2152
   -37.2080 -37.0705 -37.0537 -37.0321 -37.0148 -36.9760 -36.9643 -36.9379
   -36.9233 -36.9126 -36.8739 -36.8372 -36.6478 -36.6162 -36.6125 -36.5758
    -6.4104  -4.7737  -4.4358  -4.0105  -3.9887  -3.8807  -3.8311  -3.7241
    -3.7036  -3.3941  -3.1982  -3.1510  -2.8901  -2.4573  -2.4372  -2.0409
    -1.9564  -1.8112  -1.7389  -1.6052  -1.4092  -1.3926  -1.0193  -0.9240
    -0.8550  -0.7717  -0.5642  -0.5194  -0.5130  -0.4198  -0.1457   0.0712
     0.1919   0.3858   0.4094   0.5191   0.5408   0.7149   0.7447   0.8822
     1.0556   1.2434   1.4119   1.4682   1.6322   1.7888   2.0137   2.2547
     2.5246   2.6834   2.8050   3.0036   3.0962   3.3835   3.4630   3.5454
     3.7288   3.8296   4.0013

          k = 0.0599 0.0519 0.0000 ( 30639 PWs)   bands (ev):

   -72.9357 -72.9122 -72.9040 -72.8811 -72.8306 -72.8076 -37.2596 -37.2154
   -37.2090 -37.0732 -37.0529 -37.0312 -37.0145 -36.9767 -36.9642 -36.9387
   -36.9250 -36.9141 -36.8743 -36.8370 -36.6478 -36.6161 -36.6126 -36.5756
    -6.1372  -4.8463  -4.2161  -3.9146  -3.8985  -3.7506  -3.6362  -3.6055
    -3.5141  -3.2745  -3.1434  -2.9700  -2.7339  -2.3850  -2.3138  -2.0614
    -1.8882  -1.8650  -1.8033  -1.7556  -1.5312  -1.4535  -1.1096  -0.9282
    -0.8015  -0.6760  -0.5973  -0.5881  -0.4873  -0.4612  -0.2176  -0.0942
     0.0327   0.1336   0.1472   0.4423   0.4713   0.5379   0.5899   0.8340
     0.8418   1.0563   1.1522   1.5715   1.6393   1.7596   1.8588   2.2463
     2.2621   2.6184   2.6451   2.7773   3.1293   3.2047   3.4338   3.5603
     3.6309   3.6770   3.9728

          k = 0.0599 0.0692 0.0000 ( 30645 PWs)   bands (ev):

   -72.9357 -72.9122 -72.9040 -72.8811 -72.8305 -72.8076 -37.2613 -37.2156
   -37.2100 -37.0755 -37.0526 -37.0301 -37.0145 -36.9774 -36.9639 -36.9395
   -36.9266 -36.9156 -36.8747 -36.8368 -36.6479 -36.6160 -36.6127 -36.5755
    -5.7742  -4.8723  -4.1102  -3.9157  -3.7441  -3.5357  -3.4458  -3.4166
    -3.2911  -3.0608  -3.0564  -2.7823  -2.5425  -2.3574  -2.3528  -2.1398
    -1.9974  -1.9389  -1.8536  -1.7431  -1.5655  -1.4003  -1.1933  -1.0008
    -0.9247  -0.7422  -0.7408  -0.6694  -0.6009  -0.5163  -0.4445  -0.2096
    -0.1098  -0.0986   0.0512   0.2198   0.2985   0.4196   0.6281   0.6914
     0.8165   0.8797   1.3034   1.4498   1.6497   1.7448   1.8965   1.9503
     2.2809   2.5112   2.6923   2.7164   3.1320   3.2443   3.3928   3.4847
     3.6066   3.6982   3.9300

          k = 0.0599 0.0865 0.0000 ( 30657 PWs)   bands (ev):

   -72.9356 -72.9122 -72.9040 -72.8811 -72.8305 -72.8075 -37.2626 -37.2155
   -37.2109 -37.0771 -37.0525 -37.0291 -37.0147 -36.9779 -36.9636 -36.9400
   -36.9277 -36.9168 -36.8751 -36.8367 -36.6480 -36.6160 -36.6128 -36.5754
    -5.3486  -4.8735  -4.4214  -3.6654  -3.5948  -3.4359  -3.2073  -3.1470
    -3.0948  -2.9298  -2.8758  -2.6943  -2.5784  -2.4354  -2.2222  -2.1945
    -2.0948  -2.0422  -1.8383  -1.8375  -1.4710  -1.2846  -1.2433  -1.1860
    -1.1420  -1.0948  -1.0227  -0.8573  -0.6822  -0.6104  -0.4771  -0.3109
    -0.1794  -0.0275   0.0319   0.1995   0.2227   0.2797   0.5591   0.6404
     0.7420   0.9239   1.3180   1.4706   1.5728   1.7290   1.7714   2.0345
     2.3560   2.4983   2.7384   2.9072   3.1280   3.3492   3.3647   3.4656
     3.6106   3.7181   3.9343

          k = 0.0599 0.1038 0.0000 ( 30662 PWs)   bands (ev):

   -72.9356 -72.9122 -72.9040 -72.8811 -72.8305 -72.8075 -37.2631 -37.2155
   -37.2113 -37.0777 -37.0525 -37.0286 -37.0149 -36.9780 -36.9635 -36.9402
   -36.9282 -36.9172 -36.8752 -36.8366 -36.6480 -36.6159 -36.6129 -36.5754
    -4.9918  -4.8710  -4.7476  -3.5539  -3.5314  -3.3901  -3.0640  -3.0216
    -2.9757  -2.8415  -2.7648  -2.7387  -2.6294  -2.6062  -2.2514  -2.2017
    -2.0743  -1.9948  -1.7455  -1.7143  -1.5318  -1.5087  -1.3151  -1.2665
    -1.2447  -1.2053  -1.1342  -0.9181  -0.7558  -0.5329  -0.4395  -0.3268
    -0.1949  -0.1287   0.0700   0.1329   0.2831   0.3599   0.4196   0.6116
     0.7316   0.9685   1.2570   1.4347   1.6124   1.6717   1.7921   2.1565
     2.3093   2.5189   2.7578   3.1052   3.1536   3.2837   3.4505   3.5790
     3.6085   3.7224   3.8449

          k = 0.0599 0.1211 0.0000 ( 30657 PWs)   bands (ev):

   -72.9356 -72.9122 -72.9040 -72.8811 -72.8305 -72.8075 -37.2626 -37.2155
   -37.2109 -37.0771 -37.0525 -37.0291 -37.0147 -36.9779 -36.9636 -36.9400
   -36.9277 -36.9168 -36.8751 -36.8367 -36.6480 -36.6160 -36.6128 -36.5754
    -5.3486  -4.8735  -4.4214  -3.6654  -3.5948  -3.4359  -3.2073  -3.1470
    -3.0948  -2.9298  -2.8758  -2.6943  -2.5784  -2.4354  -2.2222  -2.1945
    -2.0948  -2.0422  -1.8383  -1.8375  -1.4710  -1.2846  -1.2433  -1.1860
    -1.1420  -1.0948  -1.0227  -0.8573  -0.6822  -0.6104  -0.4771  -0.3109
    -0.1794  -0.0275   0.0319   0.1995   0.2227   0.2797   0.5591   0.6404
     0.7420   0.9239   1.3180   1.4706   1.5728   1.7290   1.7714   2.0345
     2.3560   2.4983   2.7384   2.9072   3.1280   3.3492   3.3647   3.4656
     3.6106   3.7182   3.9344

          k = 0.0599-0.0692 0.0000 ( 30645 PWs)   bands (ev):

   -72.9357 -72.9122 -72.9040 -72.8811 -72.8305 -72.8076 -37.2613 -37.2156
   -37.2100 -37.0755 -37.0526 -37.0301 -37.0145 -36.9774 -36.9639 -36.9395
   -36.9266 -36.9156 -36.8747 -36.8368 -36.6479 -36.6160 -36.6127 -36.5755
    -5.7742  -4.8723  -4.1102  -3.9157  -3.7441  -3.5357  -3.4458  -3.4166
    -3.2911  -3.0608  -3.0564  -2.7823  -2.5425  -2.3574  -2.3528  -2.1398
    -1.9974  -1.9389  -1.8536  -1.7431  -1.5655  -1.4003  -1.1933  -1.0008
    -0.9247  -0.7422  -0.7408  -0.6694  -0.6009  -0.5163  -0.4445  -0.2096
    -0.1098  -0.0986   0.0512   0.2198   0.2985   0.4196   0.6281   0.6914
     0.8165   0.8797   1.3034   1.4498   1.6497   1.7448   1.8965   1.9503
     2.2809   2.5112   2.6923   2.7164   3.1320   3.2443   3.3928   3.4847
     3.6066   3.6982   3.9295

          k = 0.0599-0.0519 0.0000 ( 30639 PWs)   bands (ev):

   -72.9357 -72.9122 -72.9040 -72.8811 -72.8306 -72.8076 -37.2596 -37.2154
   -37.2090 -37.0732 -37.0529 -37.0312 -37.0145 -36.9767 -36.9642 -36.9387
   -36.9250 -36.9141 -36.8743 -36.8370 -36.6478 -36.6161 -36.6126 -36.5756
    -6.1372  -4.8463  -4.2161  -3.9146  -3.8985  -3.7506  -3.6362  -3.6055
    -3.5141  -3.2745  -3.1434  -2.9700  -2.7339  -2.3850  -2.3138  -2.0614
    -1.8882  -1.8650  -1.8033  -1.7556  -1.5312  -1.4535  -1.1096  -0.9282
    -0.8015  -0.6760  -0.5973  -0.5881  -0.4873  -0.4612  -0.2176  -0.0942
     0.0327   0.1336   0.1472   0.4423   0.4713   0.5379   0.5899   0.8340
     0.8418   1.0563   1.1522   1.5715   1.6393   1.7596   1.8588   2.2463
     2.2621   2.6184   2.6451   2.7773   3.1293   3.2047   3.4338   3.5604
     3.6309   3.6770   3.9736

          k = 0.0599-0.0346 0.0000 ( 30690 PWs)   bands (ev):

   -72.9358 -72.9121 -72.9041 -72.8812 -72.8306 -72.8076 -37.2578 -37.2152
   -37.2080 -37.0705 -37.0537 -37.0321 -37.0148 -36.9760 -36.9643 -36.9379
   -36.9233 -36.9126 -36.8739 -36.8372 -36.6478 -36.6162 -36.6125 -36.5758
    -6.4104  -4.7737  -4.4358  -4.0105  -3.9887  -3.8807  -3.8311  -3.7241
    -3.7036  -3.3941  -3.1982  -3.1510  -2.8901  -2.4573  -2.4372  -2.0409
    -1.9564  -1.8112  -1.7389  -1.6052  -1.4092  -1.3926  -1.0193  -0.9240
    -0.8550  -0.7717  -0.5642  -0.5194  -0.5130  -0.4198  -0.1457   0.0712
     0.1919   0.3858   0.4094   0.5191   0.5408   0.7149   0.7447   0.8822
     1.0556   1.2434   1.4119   1.4682   1.6322   1.7888   2.0137   2.2547
     2.5246   2.6834   2.8050   3.0036   3.0962   3.3835   3.4630   3.5454
     3.7288   3.8296   4.0014

          k = 0.0599-0.0173 0.0000 ( 30677 PWs)   bands (ev):

   -72.9359 -72.9121 -72.9041 -72.8812 -72.8306 -72.8076 -37.2565 -37.2150
   -37.2074 -37.0681 -37.0548 -37.0326 -37.0151 -36.9755 -36.9643 -36.9372
   -36.9221 -36.9116 -36.8737 -36.8373 -36.6477 -36.6163 -36.6124 -36.5759
    -6.5793  -4.6403  -4.5768  -4.1817  -4.1337  -3.9821  -3.9122  -3.8535
    -3.7286  -3.4295  -3.2935  -3.2271  -2.9449  -2.6768  -2.5166  -2.0582
    -1.9339  -1.7503  -1.7214  -1.4512  -1.3299  -1.3070  -1.0239  -0.9452
    -0.9371  -0.8222  -0.6534  -0.4790  -0.4732  -0.4329  -0.1049   0.1467
     0.2804   0.5104   0.5262   0.5724   0.6268   0.8196   0.9138   0.9503
     1.2775   1.3146   1.5792   1.6452   1.7088   1.8542   2.0582   2.3022
     2.5239   2.8771   2.9932   3.0228   3.2789   3.4840   3.5113   3.6597
     3.9781   4.0848   4.1404

          k = 0.0599 0.0000 0.0000 ( 30685 PWs)   bands (ev):

   -72.9359 -72.9121 -72.9041 -72.8812 -72.8306 -72.8076 -37.2560 -37.2149
   -37.2072 -37.0670 -37.0553 -37.0328 -37.0153 -36.9753 -36.9643 -36.9370
   -36.9217 -36.9112 -36.8737 -36.8373 -36.6477 -36.6163 -36.6123 -36.5759
    -6.6364  -4.6250  -4.4767  -4.3948  -4.1830  -3.9675  -3.9292  -3.9291
    -3.7357  -3.4231  -3.3584  -3.2361  -2.9103  -2.8257  -2.5386  -2.0674
    -1.9169  -1.7274  -1.7234  -1.3484  -1.3151  -1.2667  -1.1342  -0.9553
    -0.8920  -0.8229  -0.7216  -0.4774  -0.4545  -0.4407  -0.0861   0.1626
     0.2920   0.4977   0.5829   0.5886   0.7812   0.8034   0.9639   0.9837
     1.2663   1.3871   1.6269   1.7523   1.8404   1.8688   2.0080   2.3296
     2.5353   2.9796   3.0131   3.1159   3.1706   3.5087   3.6498   3.6965
     4.2099   4.2199   4.3065

          k = 0.0599 0.0173 0.0000 ( 30677 PWs)   bands (ev):

   -72.9359 -72.9121 -72.9041 -72.8812 -72.8306 -72.8076 -37.2565 -37.2150
   -37.2074 -37.0681 -37.0548 -37.0326 -37.0151 -36.9755 -36.9643 -36.9372
   -36.9221 -36.9116 -36.8737 -36.8373 -36.6477 -36.6163 -36.6124 -36.5759
    -6.5793  -4.6403  -4.5768  -4.1817  -4.1337  -3.9821  -3.9122  -3.8535
    -3.7286  -3.4295  -3.2935  -3.2271  -2.9449  -2.6768  -2.5166  -2.0582
    -1.9339  -1.7503  -1.7214  -1.4512  -1.3299  -1.3070  -1.0239  -0.9452
    -0.9371  -0.8222  -0.6534  -0.4790  -0.4732  -0.4328  -0.1049   0.1467
     0.2804   0.5104   0.5262   0.5724   0.6268   0.8196   0.9138   0.9503
     1.2775   1.3146   1.5792   1.6452   1.7088   1.8542   2.0582   2.3022
     2.5239   2.8771   2.9932   3.0228   3.2790   3.4840   3.5115   3.6597
     3.9779   4.1403   4.2323

          k = 0.0749 0.0432 0.0000 ( 30623 PWs)   bands (ev):

   -72.9301 -72.9178 -72.8985 -72.8867 -72.8250 -72.8131 -37.2482 -37.2261
   -37.1209 -37.0620 -37.0440 -37.0419 -37.0237 -36.9553 -36.9341 -36.9289
   -36.9033 -36.8910 -36.8838 -36.8522 -36.7049 -36.6651 -36.6389 -36.6210
    -5.9413  -5.0560  -4.0988  -3.8995  -3.6396  -3.5873  -3.5780  -3.5280
    -3.4994  -3.2961  -2.9794  -2.9288  -2.6551  -2.3074  -2.2956  -2.2070
    -1.9140  -1.8671  -1.7739  -1.7288  -1.6025  -1.5313  -1.0306  -0.9762
    -0.7708  -0.7038  -0.7010  -0.6105  -0.5740  -0.4453  -0.3700  -0.3671
    -0.3298   0.1175   0.2025   0.3317   0.4317   0.4904   0.6246   0.8051
     0.8691   1.0803   1.2215   1.7032   1.7503   1.8832   1.9890   2.1447
     2.3492   2.4868   2.6698   2.7863   2.9941   3.0318   3.1314   3.2728
     3.4718   3.5289   3.7607

          k = 0.0749 0.0605 0.0000 ( 30644 PWs)   bands (ev):

   -72.9300 -72.9179 -72.8985 -72.8867 -72.8250 -72.8131 -37.2496 -37.2257
   -37.1218 -37.0642 -37.0436 -37.0405 -37.0237 -36.9548 -36.9354 -36.9287
   -36.9042 -36.8916 -36.8837 -36.8528 -36.7047 -36.6648 -36.6390 -36.6211
    -5.6580  -5.2020  -3.9469  -3.8356  -3.7121  -3.4989  -3.4529  -3.3975
    -3.3532  -3.1747  -2.9371  -2.7810  -2.5208  -2.3692  -2.3148  -2.2591
    -2.0771  -1.9262  -1.7146  -1.7113  -1.6270  -1.3904  -1.0496  -1.0163
    -0.8949  -0.8023  -0.7654  -0.6696  -0.6285  -0.5010  -0.4426  -0.4232
    -0.1787  -0.0628   0.1069   0.1890   0.2174   0.3910   0.6377   0.7146
     0.8474   1.0299   1.3240   1.5615   1.6519   1.9546   1.9703   2.1435
     2.3807   2.5442   2.6384   2.7020   2.8519   3.0295   3.1181   3.2232
     3.4511   3.5019   3.6860

          k = 0.0749 0.0778 0.0000 ( 30628 PWs)   bands (ev):

   -72.9300 -72.9179 -72.8985 -72.8867 -72.8250 -72.8131 -37.2507 -37.2254
   -37.1225 -37.0659 -37.0436 -37.0390 -37.0240 -36.9542 -36.9364 -36.9285
   -36.9051 -36.8922 -36.8837 -36.8535 -36.7044 -36.6645 -36.6391 -36.6212
    -5.2991  -5.2926  -4.0338  -3.7399  -3.7192  -3.4548  -3.3427  -3.2339
    -3.1706  -3.0133  -2.8713  -2.6478  -2.5044  -2.5011  -2.3419  -2.2679
    -2.1296  -1.9931  -1.7455  -1.6365  -1.6099  -1.2355  -1.2314  -1.1035
    -1.0974  -0.9993  -0.9934  -0.7516  -0.7484  -0.5027  -0.4933  -0.4196
    -0.2778  -0.0596   0.0452   0.0834   0.3233   0.3915   0.6426   0.6477
     0.7778   1.1748   1.3732   1.5028   1.5970   1.7919   1.9298   2.3416
     2.4928   2.5516   2.7178   2.7857   2.9151   2.9724   3.2288   3.2859
     3.5352   3.5493   3.6389

          k = 0.0749 0.0951 0.0000 ( 30657 PWs)   bands (ev):

   -72.9299 -72.9179 -72.8985 -72.8867 -72.8250 -72.8131 -37.2514 -37.2253
   -37.1230 -37.0667 -37.0436 -37.0380 -37.0244 -36.9538 -36.9369 -36.9285
   -36.9056 -36.8925 -36.8837 -36.8539 -36.7043 -36.6644 -36.6391 -36.6212
    -5.3352  -4.8979  -4.4069  -3.6629  -3.5716  -3.4408  -3.2691  -3.1392
    -2.9865  -2.8704  -2.8075  -2.6910  -2.6395  -2.5172  -2.4524  -2.1545
    -2.0440  -1.9405  -1.7970  -1.7390  -1.5097  -1.4227  -1.4058  -1.2086
    -1.1510  -1.1435  -1.0762  -0.8089  -0.7996  -0.5344  -0.5290  -0.3782
    -0.3164  -0.1113   0.0300   0.1134   0.4271   0.4579   0.5880   0.6079
     0.7836   1.2807   1.3216   1.4640   1.6389   1.7481   1.8765   2.4696
     2.5314   2.6059   2.7644   2.7823   2.9496   3.2396   3.2629   3.5366
     3.5716   3.6633   3.6837

          k = 0.0749 0.1124 0.0000 ( 30657 PWs)   bands (ev):

   -72.9299 -72.9179 -72.8985 -72.8867 -72.8250 -72.8131 -37.2514 -37.2253
   -37.1230 -37.0667 -37.0436 -37.0380 -37.0244 -36.9538 -36.9369 -36.9285
   -36.9056 -36.8925 -36.8837 -36.8539 -36.7043 -36.6644 -36.6391 -36.6212
    -5.3352  -4.8979  -4.4069  -3.6629  -3.5716  -3.4408  -3.2691  -3.1392
    -2.9865  -2.8704  -2.8075  -2.6910  -2.6395  -2.5172  -2.4524  -2.1545
    -2.0440  -1.9405  -1.7970  -1.7390  -1.5097  -1.4227  -1.4058  -1.2086
    -1.1510  -1.1435  -1.0762  -0.8089  -0.7996  -0.5344  -0.5290  -0.3782
    -0.3164  -0.1113   0.0300   0.1134   0.4271   0.4579   0.5880   0.6079
     0.7836   1.2807   1.3216   1.4640   1.6389   1.7481   1.8765   2.4696
     2.5314   2.6059   2.7644   2.7823   2.9496   3.2396   3.2630   3.5366
     3.5717   3.6633   3.6838

          k = 0.0749 0.1297 0.0000 ( 30628 PWs)   bands (ev):

   -72.9300 -72.9179 -72.8985 -72.8867 -72.8250 -72.8131 -37.2507 -37.2254
   -37.1225 -37.0659 -37.0436 -37.0390 -37.0240 -36.9542 -36.9364 -36.9285
   -36.9051 -36.8922 -36.8837 -36.8535 -36.7044 -36.6645 -36.6391 -36.6212
    -5.2991  -5.2926  -4.0338  -3.7399  -3.7192  -3.4548  -3.3427  -3.2339
    -3.1706  -3.0133  -2.8713  -2.6478  -2.5044  -2.5011  -2.3419  -2.2679
    -2.1296  -1.9931  -1.7455  -1.6365  -1.6099  -1.2355  -1.2314  -1.1035
    -1.0974  -0.9993  -0.9934  -0.7516  -0.7484  -0.5027  -0.4933  -0.4196
    -0.2778  -0.0596   0.0452   0.0834   0.3233   0.3915   0.6426   0.6477
     0.7778   1.1748   1.3732   1.5028   1.5970   1.7919   1.9298   2.3416
     2.4928   2.5516   2.7178   2.7857   2.9151   2.9724   3.2288   3.2859
     3.5352   3.5493   3.6389

          k = 0.0749-0.0605 0.0000 ( 30644 PWs)   bands (ev):

   -72.9300 -72.9179 -72.8985 -72.8867 -72.8250 -72.8131 -37.2496 -37.2257
   -37.1218 -37.0642 -37.0436 -37.0405 -37.0237 -36.9548 -36.9354 -36.9287
   -36.9042 -36.8916 -36.8837 -36.8528 -36.7047 -36.6648 -36.6390 -36.6211
    -5.6580  -5.2020  -3.9469  -3.8356  -3.7121  -3.4989  -3.4529  -3.3975
    -3.3532  -3.1747  -2.9371  -2.7810  -2.5208  -2.3692  -2.3148  -2.2591
    -2.0771  -1.9262  -1.7146  -1.7113  -1.6270  -1.3905  -1.0496  -1.0163
    -0.8949  -0.8023  -0.7654  -0.6696  -0.6285  -0.5011  -0.4426  -0.4232
    -0.1787  -0.0628   0.1069   0.1890   0.2174   0.3910   0.6377   0.7146
     0.8474   1.0299   1.3240   1.5615   1.6519   1.9546   1.9703   2.1435
     2.3807   2.5442   2.6384   2.7020   2.8519   3.0295   3.1181   3.2232
     3.4510   3.5019   3.6860

          k = 0.0749-0.0432 0.0000 ( 30623 PWs)   bands (ev):

   -72.9301 -72.9178 -72.8985 -72.8867 -72.8250 -72.8131 -37.2482 -37.2261
   -37.1209 -37.0620 -37.0440 -37.0419 -37.0237 -36.9553 -36.9341 -36.9289
   -36.9033 -36.8910 -36.8838 -36.8522 -36.7049 -36.6651 -36.6389 -36.6210
    -5.9413  -5.0560  -4.0988  -3.8995  -3.6396  -3.5873  -3.5780  -3.5280
    -3.4994  -3.2961  -2.9794  -2.9288  -2.6551  -2.3074  -2.2956  -2.2070
    -1.9140  -1.8671  -1.7739  -1.7288  -1.6025  -1.5313  -1.0306  -0.9762
    -0.7708  -0.7038  -0.7010  -0.6105  -0.5740  -0.4453  -0.3700  -0.3671
    -0.3298   0.1175   0.2025   0.3317   0.4317   0.4904   0.6246   0.8051
     0.8691   1.0803   1.2215   1.7032   1.7503   1.8832   1.9890   2.1447
     2.3492   2.4868   2.6698   2.7863   2.9941   3.0318   3.1314   3.2727
     3.4718   3.5289   3.7673

          k = 0.0749-0.0259 0.0000 ( 30633 PWs)   bands (ev):

   -72.9302 -72.9178 -72.8985 -72.8867 -72.8250 -72.8131 -37.2470 -37.2264
   -37.1201 -37.0597 -37.0448 -37.0430 -37.0239 -36.9557 -36.9328 -36.9291
   -36.9025 -36.8905 -36.8839 -36.8516 -36.7052 -36.6654 -36.6388 -36.6209
    -6.1357  -4.8500  -4.2103  -3.9668  -3.8176  -3.7487  -3.6441  -3.6378
    -3.4534  -3.3181  -3.0705  -2.9949  -2.7259  -2.3689  -2.3551  -2.1462
    -1.9231  -1.7879  -1.7840  -1.7251  -1.5285  -1.4998  -1.0540  -1.0331
    -0.8058  -0.6901  -0.6522  -0.6476  -0.5845  -0.5262  -0.4026  -0.3106
    -0.2341   0.1822   0.3544   0.3963   0.6399   0.6663   0.7118   0.9249
     0.9374   1.1693   1.3697   1.6410   1.8193   1.8738   1.9443   2.2691
     2.3983   2.4122   2.7583   2.9316   3.0377   3.1710   3.4286   3.4500
     3.4814   3.6754   3.8175

          k = 0.0749-0.0086 0.0000 ( 30654 PWs)   bands (ev):

   -72.9302 -72.9178 -72.8985 -72.8867 -72.8251 -72.8131 -37.2463 -37.2265
   -37.1197 -37.0580 -37.0456 -37.0435 -37.0242 -36.9558 -36.9320 -36.9292
   -36.9021 -36.8901 -36.8841 -36.8513 -36.7054 -36.6656 -36.6388 -36.6209
    -6.2342  -4.5924  -4.2667  -4.2491  -3.8140  -3.8140  -3.7345  -3.6694
    -3.4336  -3.2965  -3.1778  -2.9953  -2.6922  -2.5315  -2.4036  -2.1210
    -1.9816  -1.8040  -1.7414  -1.5928  -1.4777  -1.4121  -1.1822  -1.0555
    -0.8851  -0.7108  -0.6420  -0.6286  -0.6133  -0.6128  -0.4055  -0.2188
    -0.1810   0.1168   0.4170   0.5056   0.6557   0.7684   0.7893   0.9861
     1.1204   1.2464   1.5243   1.6415   1.8011   1.8541   1.9436   2.2643
     2.3952   2.4593   2.8385   2.9970   3.1281   3.2103   3.4546   3.5983
     3.8040   3.9081   4.1054

          k = 0.0749 0.0086 0.0000 ( 30654 PWs)   bands (ev):

   -72.9302 -72.9178 -72.8985 -72.8867 -72.8251 -72.8131 -37.2463 -37.2265
   -37.1197 -37.0580 -37.0456 -37.0435 -37.0242 -36.9558 -36.9320 -36.9292
   -36.9021 -36.8901 -36.8841 -36.8513 -36.7054 -36.6656 -36.6388 -36.6209
    -6.2342  -4.5924  -4.2667  -4.2491  -3.8140  -3.8140  -3.7345  -3.6694
    -3.4336  -3.2965  -3.1778  -2.9953  -2.6922  -2.5315  -2.4036  -2.1210
    -1.9816  -1.8040  -1.7414  -1.5928  -1.4777  -1.4121  -1.1822  -1.0555
    -0.8851  -0.7108  -0.6420  -0.6286  -0.6133  -0.6128  -0.4055  -0.2188
    -0.1810   0.1168   0.4170   0.5056   0.6557   0.7684   0.7893   0.9861
     1.1204   1.2464   1.5243   1.6415   1.8011   1.8541   1.9436   2.2643
     2.3952   2.4593   2.8385   2.9970   3.1281   3.2103   3.4546   3.5983
     3.8040   3.9081   4.1048

          k = 0.0749 0.0259 0.0000 ( 30633 PWs)   bands (ev):

   -72.9302 -72.9178 -72.8985 -72.8867 -72.8250 -72.8131 -37.2470 -37.2264
   -37.1201 -37.0597 -37.0448 -37.0430 -37.0239 -36.9557 -36.9328 -36.9291
   -36.9025 -36.8905 -36.8839 -36.8516 -36.7052 -36.6654 -36.6388 -36.6209
    -6.1357  -4.8500  -4.2103  -3.9668  -3.8176  -3.7487  -3.6441  -3.6378
    -3.4534  -3.3181  -3.0705  -2.9949  -2.7259  -2.3689  -2.3551  -2.1462
    -1.9231  -1.7879  -1.7840  -1.7251  -1.5285  -1.4998  -1.0540  -1.0331
    -0.8058  -0.6901  -0.6522  -0.6476  -0.5845  -0.5262  -0.4026  -0.3106
    -0.2341   0.1822   0.3544   0.3963   0.6399   0.6663   0.7118   0.9249
     0.9374   1.1693   1.3697   1.6410   1.8193   1.8738   1.9443   2.2691
     2.3983   2.4122   2.7583   2.9317   3.0378   3.1710   3.4286   3.4500
     3.4815   3.6755   3.8109

          k =-0.0899-0.0519 0.0000 ( 30612 PWs)   bands (ev):

   -72.9240 -72.9239 -72.8926 -72.8926 -72.8191 -72.8191 -37.2374 -37.2374
   -37.0526 -37.0525 -37.0351 -37.0351 -37.0239 -37.0239 -36.9447 -36.9447
   -36.8941 -36.8941 -36.7985 -36.7985 -36.7593 -36.7593 -36.6301 -36.6301
    -5.4666  -5.4666  -3.9080  -3.9080  -3.4961  -3.4961  -3.4510  -3.4510
    -3.3024  -3.3023  -2.8228  -2.8228  -2.4245  -2.4245  -2.3691  -2.3691
    -2.0032  -2.0032  -1.7133  -1.7133  -1.4251  -1.4251  -0.9371  -0.9371
    -0.9099  -0.9099  -0.7560  -0.7560  -0.6132  -0.6132  -0.4854  -0.4854
    -0.0850  -0.0850   0.1176   0.1176   0.3467   0.3467   0.6479   0.6479
     0.9594   0.9594   1.4689   1.4689   1.8403   1.8403   2.2802   2.2802
     2.4399   2.4399   2.5894   2.5894   2.7283   2.7283   3.0488   3.0488
     3.4845   3.4846   3.6562

          k =-0.0899-0.0346 0.0000 ( 30643 PWs)   bands (ev):

   -72.9240 -72.9239 -72.8926 -72.8926 -72.8191 -72.8191 -37.2382 -37.2366
   -37.0540 -37.0506 -37.0359 -37.0349 -37.0242 -37.0237 -36.9455 -36.9437
   -36.8946 -36.8936 -36.7990 -36.7981 -36.7598 -36.7588 -36.6301 -36.6301
    -5.6558  -5.2049  -3.9316  -3.8677  -3.6844  -3.4988  -3.4795  -3.4177
    -3.2581  -3.2178  -2.8670  -2.7962  -2.4895  -2.4212  -2.3931  -2.3273
    -2.0093  -1.9173  -1.7240  -1.6908  -1.5380  -1.3960  -1.0368  -1.0221
    -0.9080  -0.8608  -0.8348  -0.7291  -0.6615  -0.6164  -0.5169  -0.4524
    -0.2350   0.0329   0.0620   0.1663   0.4605   0.4915   0.6475   0.6567
     0.8208   1.2055   1.3003   1.6220   1.7811   1.8613   2.2011   2.2671
     2.3430   2.5758   2.5767   2.6885   2.8004   2.9413   2.9641   3.2122
     3.5071   3.5757   3.6250

          k =-0.0899-0.0173 0.0000 ( 30651 PWs)   bands (ev):

   -72.9241 -72.9239 -72.8926 -72.8926 -72.8191 -72.8191 -37.2388 -37.2360
   -37.0549 -37.0487 -37.0370 -37.0349 -37.0243 -37.0234 -36.9460 -36.9429
   -36.8951 -36.8932 -36.7993 -36.7978 -36.7601 -36.7585 -36.6301 -36.6301
    -5.7695  -4.8816  -4.0957  -3.9297  -3.7065  -3.5403  -3.4883  -3.4123
    -3.1784  -3.1276  -2.9423  -2.7741  -2.4869  -2.4837  -2.4134  -2.3049
    -1.9827  -1.8711  -1.7699  -1.6576  -1.5712  -1.3871  -1.2160  -1.1269
    -0.9582  -0.8737  -0.8530  -0.7716  -0.7240  -0.6840  -0.5501  -0.3349
    -0.3189   0.0217   0.0594   0.2305   0.6172   0.6442   0.6827   0.6925
     0.8290   1.2149   1.4487   1.6645   1.7547   1.8344   2.0808   2.2563
     2.2954   2.6512   2.6518   2.8225   2.9266   2.9617   3.3725   3.4654
     3.5061   3.6690   3.6844

          k =-0.0899 0.0000 0.0000 ( 30662 PWs)   bands (ev):

   -72.9241 -72.9239 -72.8926 -72.8926 -72.8191 -72.8191 -37.2390 -37.2357
   -37.0552 -37.0479 -37.0375 -37.0350 -37.0243 -37.0234 -36.9462 -36.9426
   -36.8952 -36.8931 -36.7994 -36.7977 -36.7603 -36.7583 -36.6301 -36.6301
    -5.8074  -4.5893  -4.3979  -3.9249  -3.6262  -3.5957  -3.4929  -3.4092
    -3.1330  -3.0910  -2.9968  -2.7605  -2.5385  -2.4748  -2.3264  -2.3089
    -2.1403  -1.8062  -1.7646  -1.6299  -1.4995  -1.3941  -1.3401  -1.1950
    -0.9866  -0.8797  -0.8693  -0.7860  -0.7435  -0.7237  -0.5622  -0.3426
    -0.1980  -0.0999   0.0606   0.2929   0.6552   0.6645   0.6992   0.7655
     0.8302   1.2593   1.5688   1.5972   1.7332   1.8628   2.0094   2.2562
     2.2841   2.6687   2.7043   2.8872   2.9638   2.9821   3.4474   3.5546
     3.6445   3.7326   4.1994

          k =-0.0899 0.0173 0.0000 ( 30651 PWs)   bands (ev):

   -72.9241 -72.9239 -72.8926 -72.8926 -72.8191 -72.8191 -37.2388 -37.2360
   -37.0549 -37.0487 -37.0370 -37.0349 -37.0243 -37.0234 -36.9460 -36.9429
   -36.8951 -36.8932 -36.7993 -36.7978 -36.7601 -36.7585 -36.6301 -36.6301
    -5.7695  -4.8816  -4.0957  -3.9297  -3.7065  -3.5403  -3.4883  -3.4123
    -3.1784  -3.1276  -2.9423  -2.7741  -2.4869  -2.4837  -2.4134  -2.3049
    -1.9827  -1.8711  -1.7699  -1.6576  -1.5712  -1.3871  -1.2160  -1.1269
    -0.9582  -0.8737  -0.8530  -0.7716  -0.7240  -0.6840  -0.5501  -0.3349
    -0.3189   0.0217   0.0594   0.2305   0.6172   0.6442   0.6827   0.6925
     0.8290   1.2149   1.4487   1.6645   1.7547   1.8344   2.0808   2.2563
     2.2954   2.6512   2.6518   2.8225   2.9266   2.9617   3.3725   3.4654
     3.5061   3.6685   3.6844

          k =-0.0899 0.0346 0.0000 ( 30643 PWs)   bands (ev):

   -72.9240 -72.9239 -72.8926 -72.8926 -72.8191 -72.8191 -37.2382 -37.2366
   -37.0540 -37.0506 -37.0359 -37.0349 -37.0242 -37.0237 -36.9455 -36.9437
   -36.8946 -36.8936 -36.7990 -36.7981 -36.7598 -36.7588 -36.6301 -36.6301
    -5.6558  -5.2049  -3.9316  -3.8677  -3.6844  -3.4988  -3.4795  -3.4177
    -3.2581  -3.2178  -2.8670  -2.7962  -2.4894  -2.4212  -2.3931  -2.3273
    -2.0092  -1.9173  -1.7240  -1.6908  -1.5380  -1.3960  -1.0368  -1.0221
    -0.9080  -0.8608  -0.8348  -0.7291  -0.6615  -0.6164  -0.5169  -0.4524
    -0.2350   0.0329   0.0620   0.1663   0.4605   0.4915   0.6475   0.6567
     0.8208   1.2055   1.3003   1.6220   1.7811   1.8613   2.2011   2.2671
     2.3430   2.5758   2.5767   2.6885   2.8004   2.9413   2.9641   3.2122
     3.5072   3.5756   3.6269

          k =-0.0899-0.1556 0.0000 ( 30612 PWs)   bands (ev):

   -72.9240 -72.9239 -72.8926 -72.8926 -72.8191 -72.8191 -37.2374 -37.2374
   -37.0526 -37.0525 -37.0351 -37.0351 -37.0239 -37.0239 -36.9447 -36.9447
   -36.8941 -36.8941 -36.7985 -36.7985 -36.7593 -36.7593 -36.6301 -36.6301
    -5.4666  -5.4666  -3.9080  -3.9080  -3.4961  -3.4961  -3.4510  -3.4510
    -3.3024  -3.3023  -2.8228  -2.8228  -2.4245  -2.4245  -2.3691  -2.3691
    -2.0032  -2.0032  -1.7133  -1.7133  -1.4251  -1.4251  -0.9371  -0.9371
    -0.9099  -0.9099  -0.7560  -0.7560  -0.6132  -0.6132  -0.4854  -0.4854
    -0.0850  -0.0850   0.1176   0.1176   0.3467   0.3467   0.6479   0.6479
     0.9594   0.9594   1.4689   1.4689   1.8403   1.8403   2.2802   2.2802
     2.4399   2.4399   2.5894   2.5894   2.7283   2.7283   3.0488   3.0488
     3.4845   3.4851   3.6562

     the Fermi energy is     1.8116 ev

!    total energy              =   -1333.62776974 Ry
     estimated scf accuracy    <       0.00000958 Ry
     smearing contrib. (-TS)   =      -0.04931016 Ry
     internal energy E=F+TS    =   -1333.57845958 Ry

     The total energy is F=E-TS. E is the sum of the following terms:
     one-electron contribution =  -10487.10184771 Ry
     hartree contribution      =    5267.13939708 Ry
     xc contribution           =    -442.89080779 Ry
     ewald contribution        =    4329.27479784 Ry
     electric field correction =       0.00000100 Ry

     convergence has been achieved in  15 iterations

     negative rho (up, down):  1.481E-03 0.000E+00

     Forces acting on atoms (cartesian axes, Ry/au):

     atom    1 type  1   force =     0.00000633    0.01138933    0.02626929
     atom    2 type  1   force =     0.00000141    0.01138941    0.02627305
     atom    3 type  2   force =    -0.00000148   -0.02240256    0.01622816
     atom    4 type  2   force =     0.00000042   -0.02239778    0.01622985
     atom    5 type  1   force =    -0.00000394    0.00781684   -0.02493649
     atom    6 type  1   force =     0.00000065    0.00781579   -0.02493632
     atom    7 type  2   force =     0.00000017    0.00256390   -0.01971144
     atom    8 type  2   force =    -0.00000077    0.00256917   -0.01971159
     atom    9 type  1   force =     0.00000474    0.00038831   -0.00199907
     atom   10 type  1   force =    -0.00000427    0.00038234   -0.00199337
     atom   11 type  2   force =    -0.00000501    0.00024277    0.00414523
     atom   12 type  2   force =     0.00000176    0.00024248    0.00414270

     Total force =     0.073273     Total SCF correction =     0.019327
     SCF correction compared to forces is large: reduce conv_thr to get better values

     Writing output data file ./W2Ir2/W2Ir2_beef.save/

     init_run     :    135.98s CPU    136.49s WALL (       1 calls)
     electrons    :   4151.77s CPU   4371.46s WALL (       1 calls)
     forces       :     51.97s CPU     80.74s WALL (       1 calls)

     Called by init_run:
     wfcinit      :    115.36s CPU    115.75s WALL (       1 calls)
     potinit      :     10.51s CPU     10.57s WALL (       1 calls)
     hinit0       :      8.06s CPU      8.07s WALL (       1 calls)

     Called by electrons:
     c_bands      :   3691.62s CPU   3842.07s WALL (      15 calls)
     sum_band     :    423.86s CPU    491.61s WALL (      15 calls)
     v_of_rho     :     26.91s CPU     27.63s WALL (      16 calls)
     newd         :     17.79s CPU     18.46s WALL (      16 calls)
     mix_rho      :      0.57s CPU      0.59s WALL (      15 calls)
     vdW_kernel   :      5.76s CPU      5.77s WALL (       1 calls)

     Called by c_bands:
     init_us_2    :      3.15s CPU      3.25s WALL (    2368 calls)
     cegterg      :   3633.99s CPU   3781.62s WALL (    1110 calls)

     Called by *egterg:
     cdiaghg      :    124.72s CPU    130.06s WALL (    6464 calls)
     h_psi        :   1886.94s CPU   2007.09s WALL (    6538 calls)
     s_psi        :    122.04s CPU    123.51s WALL (    6538 calls)
     g_psi        :      1.01s CPU      1.03s WALL (    5354 calls)

     Called by h_psi:
     h_psi:calbec :    578.87s CPU    587.30s WALL (    6538 calls)
     vloc_psi     :   1185.55s CPU   1296.00s WALL (    6538 calls)
     add_vuspsi   :    121.41s CPU    122.69s WALL (    6538 calls)

     General routines
     calbec       :    823.55s CPU    860.36s WALL (    7944 calls)
     fft          :     39.01s CPU     44.53s WALL (    1067 calls)
     ffts         :      0.09s CPU      0.10s WALL (      31 calls)
     fftw         :   1361.29s CPU   1530.93s WALL (  596114 calls)
     interpolate  :      0.29s CPU      0.30s WALL (      16 calls)

     Parallel routines
     fft_scatt_xy :     32.66s CPU     33.00s WALL (  597212 calls)
     fft_scatt_yz :   1057.50s CPU   1228.97s WALL (  597212 calls)

     PWSCF        :      1h14m CPU      1h21m WALL


   This run was terminated on:  16:30:24  26Jun2022            

=------------------------------------------------------------------------------=
   JOB DONE.
=------------------------------------------------------------------------------=
