
     Program PWSCF v.6.6 starts on 26Jun2022 at 16:30:43 

     This program is part of the open-source Quantum ESPRESSO suite
     for quantum simulation of materials; please cite
         "P. Giannozzi et al., J. Phys.:Condens. Matter 21 395502 (2009);
         "P. Giannozzi et al., J. Phys.:Condens. Matter 29 465901 (2017);
          URL http://www.quantum-espresso.org", 
     in publications or presentations arising from this work. More details at
     http://www.quantum-espresso.org/quote

     Parallel version (MPI), running on    37 processors

     MPI processes distributed on     1 nodes
     R & G space division:  proc/nbgrp/npool/nimage =      37
     Fft bands division:     nmany     =       1
     Reading input from W2Os2.in
Warning: card &CELL ignored
Warning: card / ignored

     Current dimensions of program PWSCF are:
     Max number of different atomic species (ntypx) = 10
     Max number of k-points (npk) =  40000
     Max angular momentum in pseudopotentials (lmaxx) =  3
     Presently stress not available with electric field and gates

     Message from routine cell_base_init:
     DEPRECATED: use true lattice parameter, not A to a.u. conversion factor
     Message from routine emend_upf/check:
     BEWARE !!! Possible out of bounds while fixing pseudo
     Message from routine emend_upf/check:
     BEWARE !!! Possible out of bounds while fixing pseudo
     Message from routine read_upf:
     Pseudo file W.pbe-spn-rrkjus_psl.0.2.3.UPF has been fixed on the fly.
     To avoid this message in the future, permanently fix 
     your pseudo files following these instructions: 
     https://gitlab.com/QEF/q-e/blob/master/upftools/how_to_fix_upf.md

     **************************************************************************
     Initializing libbeef V0.1.2 with the BEEF-vdW functional.
     Citation: Wellendorff et al., PRB 85, 235149 (2012).
     **************************************************************************


     IMPORTANT: XC functional enforced from input :
     Exchange-correlation= BEEF-VDW
                           (   1   4  43  14   2   0   0)
     Any further DFT definition will be discarded
     Please, verify this is what you really want


     Subspace diagonalization in iterative solution of the eigenvalue problem:
     a serial algorithm will be used

     Found symmetry operation: I + ( -0.5000  0.5000  0.0000)
     This is a supercell, fractional translations are disabled

     Parallelization info
     --------------------
     sticks:   dense  smooth     PW     G-vecs:    dense   smooth      PW
     Min         114      45     13                26298     6648    1027
     Max         115      46     14                26312     6655    1034
     Sum        4221    1679    491               973279   246089   38087



     bravais-lattice index     =            0
     lattice parameter (alat)  =       1.8897  a.u.
     unit-cell volume          =    4451.9034 (a.u.)^3
     number of atoms/cell      =           12
     number of atomic types    =            2
     number of electrons       =       180.00
     number of Kohn-Sham states=          108
     kinetic-energy cutoff     =      55.1240  Ry
     charge density cutoff     =     551.2396  Ry
     convergence threshold     =      1.0E-05
     mixing beta               =       0.1000
     number of iterations used =           10  plain     mixing
     Exchange-correlation= BEEF-VDW
                           (   1   4  43  14   2   0   0)

     celldm(1)=   1.889726  celldm(2)=   0.000000  celldm(3)=   0.000000
     celldm(4)=   0.000000  celldm(5)=   0.000000  celldm(6)=   0.000000

     crystal axes: (cart. coord. in units of alat)
               a(1) = (   5.555546   0.000000   0.000000 )  
               a(2) = (   2.732066   4.837345   0.000000 )  
               a(3) = (   0.000000   0.000000  24.547960 )  

     reciprocal axes: (cart. coord. in units 2 pi/alat)
               b(1) = (  0.180000 -0.101662  0.000000 )  
               b(2) = (  0.000000  0.206725  0.000000 )  
               b(3) = (  0.000000  0.000000  0.040737 )  


     PseudoPot. # 1 for W  read from file:
     ../pseudo/W.pbe-spn-rrkjus_psl.0.2.3.UPF
     MD5 check sum: 25b665cf2bbae626ad8d9f1bc024df95
     Pseudo is Ultrasoft + core correction, Zval = 14.0
     Generated using "atomic" code by A. Dal Corso v.5.0.2 svn rev. 10551
     Using radial grid of 1273 points,  6 beta functions with: 
                l(1) =   0
                l(2) =   0
                l(3) =   1
                l(4) =   1
                l(5) =   2
                l(6) =   2
     Q(r) pseudized with 0 coefficients 


     PseudoPot. # 2 for Os read from file:
     ../pseudo/Os.pbe-spn-rrkjus_psl.1.0.0.UPF
     MD5 check sum: 3e7416ed594f6513d36e5cb31ba709d9
     Pseudo is Ultrasoft + core correction, Zval = 16.0
     Generated using "atomic" code by A. Dal Corso v.6.2.2
     Using radial grid of 1275 points,  6 beta functions with: 
                l(1) =   0
                l(2) =   0
                l(3) =   1
                l(4) =   1
                l(5) =   2
                l(6) =   2
     Q(r) pseudized with 0 coefficients 


     atomic species   valence    mass     pseudopotential
        W             14.00   183.84000     W ( 1.00)
        Os            16.00   190.23000     Os( 1.00)

     No symmetry found



   Cartesian axes

     site n.     atom                  positions (alat units)
         1           W   tau(   1) = (   0.0000000   0.0000000  10.0000000  )
         2           W   tau(   2) = (   4.1438061   2.4186723  10.0000000  )
         3           Os  tau(   3) = (   2.7777729   0.0000000  10.0000000  )
         4           Os  tau(   4) = (   1.3660332   2.4186723  10.0000000  )
         5           W   tau(   5) = (   5.5555459   3.2426819  12.2739798  )
         6           W   tau(   6) = (   1.4117398   0.8240096  12.2739798  )
         7           Os  tau(   7) = (   2.7777729   3.2426819  12.2739798  )
         8           Os  tau(   8) = (   4.1895127   0.8240096  12.2739798  )
         9           W   tau(   9) = (   2.8215491   1.6468935  14.4355166  )
        10           W   tau(  10) = (   6.9653542   4.0655633  14.4355150  )
        11           Os  tau(  11) = (   5.5903774   1.6416735  14.4657210  )
        12           Os  tau(  12) = (   4.1786405   4.0603447  14.4657206  )

     number of k points=    74  Fermi-Dirac smearing, width (Ry)=  0.0100
                       cart. coord. in units 2pi/alat
        k(    1) = (   0.0000000   0.0000000   0.0000000), wk =   0.0138889
        k(    2) = (   0.0000000   0.0172271   0.0000000), wk =   0.0277778
        k(    3) = (   0.0000000   0.0344542   0.0000000), wk =   0.0277778
        k(    4) = (   0.0000000   0.0516812   0.0000000), wk =   0.0277778
        k(    5) = (   0.0000000   0.0689083   0.0000000), wk =   0.0277778
        k(    6) = (   0.0000000   0.0861354   0.0000000), wk =   0.0277778
        k(    7) = (   0.0000000  -0.1033625   0.0000000), wk =   0.0138889
        k(    8) = (   0.0150000  -0.0084718   0.0000000), wk =   0.0277778
        k(    9) = (   0.0150000   0.0087553   0.0000000), wk =   0.0277778
        k(   10) = (   0.0150000   0.0259824   0.0000000), wk =   0.0277778
        k(   11) = (   0.0150000   0.0432094   0.0000000), wk =   0.0277778
        k(   12) = (   0.0150000   0.0604365   0.0000000), wk =   0.0277778
        k(   13) = (   0.0150000   0.0776636   0.0000000), wk =   0.0277778
        k(   14) = (   0.0150000  -0.1118343   0.0000000), wk =   0.0277778
        k(   15) = (   0.0150000  -0.0946072   0.0000000), wk =   0.0277778
        k(   16) = (   0.0150000  -0.0773801   0.0000000), wk =   0.0277778
        k(   17) = (   0.0150000  -0.0601531   0.0000000), wk =   0.0277778
        k(   18) = (   0.0150000  -0.0429260   0.0000000), wk =   0.0277778
        k(   19) = (   0.0150000  -0.0256989   0.0000000), wk =   0.0277778
        k(   20) = (   0.0300001  -0.0169436   0.0000000), wk =   0.0277778
        k(   21) = (   0.0300001   0.0002835   0.0000000), wk =   0.0277778
        k(   22) = (   0.0300001   0.0175105   0.0000000), wk =   0.0277778
        k(   23) = (   0.0300001   0.0347376   0.0000000), wk =   0.0277778
        k(   24) = (   0.0300001   0.0519647   0.0000000), wk =   0.0277778
        k(   25) = (   0.0300001   0.0691918   0.0000000), wk =   0.0277778
        k(   26) = (   0.0300001  -0.1203061   0.0000000), wk =   0.0277778
        k(   27) = (   0.0300001  -0.1030790   0.0000000), wk =   0.0277778
        k(   28) = (   0.0300001  -0.0858519   0.0000000), wk =   0.0277778
        k(   29) = (   0.0300001  -0.0686249   0.0000000), wk =   0.0277778
        k(   30) = (   0.0300001  -0.0513978   0.0000000), wk =   0.0277778
        k(   31) = (   0.0300001  -0.0341707   0.0000000), wk =   0.0277778
        k(   32) = (   0.0450001  -0.0254154   0.0000000), wk =   0.0277778
        k(   33) = (   0.0450001  -0.0081883   0.0000000), wk =   0.0277778
        k(   34) = (   0.0450001   0.0090387   0.0000000), wk =   0.0277778
        k(   35) = (   0.0450001   0.0262658   0.0000000), wk =   0.0277778
        k(   36) = (   0.0450001   0.0434929   0.0000000), wk =   0.0277778
        k(   37) = (   0.0450001   0.0607200   0.0000000), wk =   0.0277778
        k(   38) = (   0.0450001  -0.1287779   0.0000000), wk =   0.0277778
        k(   39) = (   0.0450001  -0.1115508   0.0000000), wk =   0.0277778
        k(   40) = (   0.0450001  -0.0943237   0.0000000), wk =   0.0277778
        k(   41) = (   0.0450001  -0.0770967   0.0000000), wk =   0.0277778
        k(   42) = (   0.0450001  -0.0598696   0.0000000), wk =   0.0277778
        k(   43) = (   0.0450001  -0.0426425   0.0000000), wk =   0.0277778
        k(   44) = (   0.0600001  -0.0338872   0.0000000), wk =   0.0277778
        k(   45) = (   0.0600001  -0.0166602   0.0000000), wk =   0.0277778
        k(   46) = (   0.0600001   0.0005669   0.0000000), wk =   0.0277778
        k(   47) = (   0.0600001   0.0177940   0.0000000), wk =   0.0277778
        k(   48) = (   0.0600001   0.0350211   0.0000000), wk =   0.0277778
        k(   49) = (   0.0600001   0.0522482   0.0000000), wk =   0.0277778
        k(   50) = (   0.0600001  -0.1372497   0.0000000), wk =   0.0277778
        k(   51) = (   0.0600001  -0.1200226   0.0000000), wk =   0.0277778
        k(   52) = (   0.0600001  -0.1027956   0.0000000), wk =   0.0277778
        k(   53) = (   0.0600001  -0.0855685   0.0000000), wk =   0.0277778
        k(   54) = (   0.0600001  -0.0683414   0.0000000), wk =   0.0277778
        k(   55) = (   0.0600001  -0.0511143   0.0000000), wk =   0.0277778
        k(   56) = (   0.0750001  -0.0423590   0.0000000), wk =   0.0277778
        k(   57) = (   0.0750001  -0.0251320   0.0000000), wk =   0.0277778
        k(   58) = (   0.0750001  -0.0079049   0.0000000), wk =   0.0277778
        k(   59) = (   0.0750001   0.0093222   0.0000000), wk =   0.0277778
        k(   60) = (   0.0750001   0.0265493   0.0000000), wk =   0.0277778
        k(   61) = (   0.0750001   0.0437764   0.0000000), wk =   0.0277778
        k(   62) = (   0.0750001  -0.1457215   0.0000000), wk =   0.0277778
        k(   63) = (   0.0750001  -0.1284944   0.0000000), wk =   0.0277778
        k(   64) = (   0.0750001  -0.1112674   0.0000000), wk =   0.0277778
        k(   65) = (   0.0750001  -0.0940403   0.0000000), wk =   0.0277778
        k(   66) = (   0.0750001  -0.0768132   0.0000000), wk =   0.0277778
        k(   67) = (   0.0750001  -0.0595861   0.0000000), wk =   0.0277778
        k(   68) = (  -0.0900002   0.0508309   0.0000000), wk =   0.0138889
        k(   69) = (  -0.0900002   0.0680579   0.0000000), wk =   0.0277778
        k(   70) = (  -0.0900002   0.0852850   0.0000000), wk =   0.0277778
        k(   71) = (  -0.0900002   0.1025121   0.0000000), wk =   0.0277778
        k(   72) = (  -0.0900002   0.1197392   0.0000000), wk =   0.0277778
        k(   73) = (  -0.0900002   0.1369663   0.0000000), wk =   0.0277778
        k(   74) = (  -0.0900002  -0.0525316   0.0000000), wk =   0.0138889

     Dense  grid:   973279 G-vectors     FFT dimensions: (  80,  80, 360)

     Smooth grid:   246089 G-vectors     FFT dimensions: (  50,  50, 225)

     Estimated max dynamical RAM per process >     208.13 MB

     Estimated total dynamical RAM >       7.52 GB

     Initial potential from superposition of free atoms

     starting charge  179.99520, renormalised to  180.00000

     negative rho (up, down):  8.650E-04 0.000E+00


     %%%%%%%%%%%%%%%%%%%%%%%%%%%%%%%%%%%%%%%%%%%%%%%%%%%%%%%%%%%%%%%%%%%%%%%%
     %                                                                      %
     % You are using vdW-DF, which was implemented by the Thonhauser group. %
     % Please cite the following two papers that made this development      %
     % possible and the two reviews that describe the various versions:     %
     %                                                                      %
     %   T. Thonhauser et al., PRL 115, 136402 (2015).                      %
     %   T. Thonhauser et al., PRB 76, 125112 (2007).                       %
     %   K. Berland et al., Rep. Prog. Phys. 78, 066501 (2015).             %
     %   D.C. Langreth et al., J. Phys.: Condens. Matter 21, 084203 (2009). %
     %                                                                      %
     %                                                                      %
     % If you are calculating the stress with vdW-DF, please also cite:     %
     %                                                                      %
     %   R. Sabatini et al., J. Phys.: Condens. Matter 24, 424209 (2012).   %
     %                                                                      %
     %%%%%%%%%%%%%%%%%%%%%%%%%%%%%%%%%%%%%%%%%%%%%%%%%%%%%%%%%%%%%%%%%%%%%%%%



     Adding external electric field

     Computed dipole along edir(3) : 
        Dipole               -0.0000 Ry au,         -0.0001 Debye
        Dipole field         -0.0000 Ry au, 

        Potential amp.        0.0000 Ry
        Total length         45.2292 bohr

     Starting wfcs are  138 randomized atomic wfcs

     total cpu time spent up to now is      127.6 secs

     Self-consistent Calculation

     iteration #  1     ecut=    55.12 Ry     beta= 0.10
     Davidson diagonalization with overlap
     ethr =  1.00E-02,  avg # of iterations =  2.1

     negative rho (up, down):  8.187E-04 0.000E+00

     Adding external electric field

     Computed dipole along edir(3) : 
        Dipole               -0.2706 Ry au,         -0.6878 Debye
        Dipole field         -0.0008 Ry au, 

        Potential amp.        0.0691 Ry
        Total length         45.2292 bohr


     total cpu time spent up to now is      648.9 secs

     total energy              =   -2158.59163329 Ry
     estimated scf accuracy    <       2.61250202 Ry

     iteration #  2     ecut=    55.12 Ry     beta= 0.10
     Davidson diagonalization with overlap
     ethr =  1.45E-03,  avg # of iterations =  2.3

     negative rho (up, down):  9.068E-04 0.000E+00

     Adding external electric field

     Computed dipole along edir(3) : 
        Dipole                0.4204 Ry au,          1.0686 Debye
        Dipole field          0.0012 Ry au, 

        Potential amp.       -0.1073 Ry
        Total length         45.2292 bohr


     total cpu time spent up to now is      982.8 secs

     total energy              =   -2158.59630240 Ry
     estimated scf accuracy    <       3.88705596 Ry

     iteration #  3     ecut=    55.12 Ry     beta= 0.10
     Davidson diagonalization with overlap
     ethr =  1.45E-03,  avg # of iterations =  1.4

     negative rho (up, down):  9.815E-04 0.000E+00

     Adding external electric field

     Computed dipole along edir(3) : 
        Dipole               -0.0043 Ry au,         -0.0109 Debye
        Dipole field         -0.0000 Ry au, 

        Potential amp.        0.0011 Ry
        Total length         45.2292 bohr


     total cpu time spent up to now is     1207.0 secs

     total energy              =   -2158.65380737 Ry
     estimated scf accuracy    <       9.33107515 Ry

     iteration #  4     ecut=    55.12 Ry     beta= 0.10
     Davidson diagonalization with overlap
     ethr =  1.45E-03,  avg # of iterations =  1.0

     negative rho (up, down):  8.388E-04 0.000E+00

     Adding external electric field

     Computed dipole along edir(3) : 
        Dipole                0.0113 Ry au,          0.0287 Debye
        Dipole field          0.0000 Ry au, 

        Potential amp.       -0.0029 Ry
        Total length         45.2292 bohr


     total cpu time spent up to now is     1711.1 secs

     total energy              =   -2158.75334689 Ry
     estimated scf accuracy    <       0.27313986 Ry

     iteration #  5     ecut=    55.12 Ry     beta= 0.10
     Davidson diagonalization with overlap
     ethr =  1.52E-04,  avg # of iterations =  2.3

     negative rho (up, down):  1.323E-03 0.000E+00

     Adding external electric field

     Computed dipole along edir(3) : 
        Dipole                0.0411 Ry au,          0.1045 Debye
        Dipole field          0.0001 Ry au, 

        Potential amp.       -0.0105 Ry
        Total length         45.2292 bohr


     total cpu time spent up to now is     1963.3 secs

     total energy              =   -2158.74531066 Ry
     estimated scf accuracy    <       0.11851880 Ry

     iteration #  6     ecut=    55.12 Ry     beta= 0.10
     Davidson diagonalization with overlap
     ethr =  6.58E-05,  avg # of iterations =  4.1

     negative rho (up, down):  2.818E-03 0.000E+00

     Adding external electric field

     Computed dipole along edir(3) : 
        Dipole               -0.0027 Ry au,         -0.0068 Debye
        Dipole field         -0.0000 Ry au, 

        Potential amp.        0.0007 Ry
        Total length         45.2292 bohr


     total cpu time spent up to now is     2248.1 secs

     total energy              =   -2158.74859632 Ry
     estimated scf accuracy    <       0.04502459 Ry

     iteration #  7     ecut=    55.12 Ry     beta= 0.10
     Davidson diagonalization with overlap
     c_bands:  1 eigenvalues not converged
     c_bands:  1 eigenvalues not converged
     c_bands:  1 eigenvalues not converged
     c_bands:  1 eigenvalues not converged
     ethr =  2.50E-05,  avg # of iterations =  6.5

     negative rho (up, down):  4.251E-03 0.000E+00

     Adding external electric field

     Computed dipole along edir(3) : 
        Dipole                0.0188 Ry au,          0.0477 Debye
        Dipole field          0.0001 Ry au, 

        Potential amp.       -0.0048 Ry
        Total length         45.2292 bohr


     total cpu time spent up to now is     2551.9 secs

     total energy              =   -2158.75360930 Ry
     estimated scf accuracy    <       0.01810429 Ry

     iteration #  8     ecut=    55.12 Ry     beta= 0.10
     Davidson diagonalization with overlap
     c_bands:  1 eigenvalues not converged
     ethr =  1.01E-05,  avg # of iterations =  8.2

     negative rho (up, down):  3.864E-03 0.000E+00

     Adding external electric field

     Computed dipole along edir(3) : 
        Dipole                0.0206 Ry au,          0.0525 Debye
        Dipole field          0.0001 Ry au, 

        Potential amp.       -0.0053 Ry
        Total length         45.2292 bohr


     total cpu time spent up to now is     2847.6 secs

     total energy              =   -2158.75524553 Ry
     estimated scf accuracy    <       0.00367007 Ry

     iteration #  9     ecut=    55.12 Ry     beta= 0.10
     Davidson diagonalization with overlap
     ethr =  2.04E-06,  avg # of iterations =  8.0

     negative rho (up, down):  3.604E-03 0.000E+00

     Adding external electric field

     Computed dipole along edir(3) : 
        Dipole                0.0338 Ry au,          0.0859 Debye
        Dipole field          0.0001 Ry au, 

        Potential amp.       -0.0086 Ry
        Total length         45.2292 bohr


     total cpu time spent up to now is     3163.3 secs

     total energy              =   -2158.75536317 Ry
     estimated scf accuracy    <       0.00269144 Ry

     iteration # 10     ecut=    55.12 Ry     beta= 0.10
     Davidson diagonalization with overlap
     ethr =  1.50E-06,  avg # of iterations =  1.8

     negative rho (up, down):  3.839E-03 0.000E+00

     Adding external electric field

     Computed dipole along edir(3) : 
        Dipole                0.0293 Ry au,          0.0744 Debye
        Dipole field          0.0001 Ry au, 

        Potential amp.       -0.0075 Ry
        Total length         45.2292 bohr


     total cpu time spent up to now is     3408.2 secs

     total energy              =   -2158.75560195 Ry
     estimated scf accuracy    <       0.00185953 Ry

     iteration # 11     ecut=    55.12 Ry     beta= 0.10
     Davidson diagonalization with overlap
     ethr =  1.03E-06,  avg # of iterations =  1.6

     negative rho (up, down):  3.627E-03 0.000E+00

     Adding external electric field

     Computed dipole along edir(3) : 
        Dipole                0.0268 Ry au,          0.0682 Debye
        Dipole field          0.0001 Ry au, 

        Potential amp.       -0.0069 Ry
        Total length         45.2292 bohr


     total cpu time spent up to now is     3662.6 secs

     total energy              =   -2158.75567998 Ry
     estimated scf accuracy    <       0.00016118 Ry

     iteration # 12     ecut=    55.12 Ry     beta= 0.10
     Davidson diagonalization with overlap
     ethr =  8.95E-08,  avg # of iterations =  4.8

     negative rho (up, down):  3.467E-03 0.000E+00

     Adding external electric field

     Computed dipole along edir(3) : 
        Dipole                0.0264 Ry au,          0.0671 Debye
        Dipole field          0.0001 Ry au, 

        Potential amp.       -0.0067 Ry
        Total length         45.2292 bohr


     total cpu time spent up to now is     3949.2 secs

     total energy              =   -2158.75570004 Ry
     estimated scf accuracy    <       0.00004687 Ry

     iteration # 13     ecut=    55.12 Ry     beta= 0.10
     Davidson diagonalization with overlap
     ethr =  2.60E-08,  avg # of iterations =  4.0

     negative rho (up, down):  3.330E-03 0.000E+00

     Adding external electric field

     Computed dipole along edir(3) : 
        Dipole                0.0256 Ry au,          0.0650 Debye
        Dipole field          0.0001 Ry au, 

        Potential amp.       -0.0065 Ry
        Total length         45.2292 bohr


     total cpu time spent up to now is     4254.7 secs

     total energy              =   -2158.75570448 Ry
     estimated scf accuracy    <       0.00002157 Ry

     iteration # 14     ecut=    55.12 Ry     beta= 0.10
     Davidson diagonalization with overlap
     ethr =  1.20E-08,  avg # of iterations =  3.4

     negative rho (up, down):  3.198E-03 0.000E+00

     Adding external electric field

     Computed dipole along edir(3) : 
        Dipole                0.0262 Ry au,          0.0666 Debye
        Dipole field          0.0001 Ry au, 

        Potential amp.       -0.0067 Ry
        Total length         45.2292 bohr


     total cpu time spent up to now is     4529.0 secs

     total energy              =   -2158.75570462 Ry
     estimated scf accuracy    <       0.00001039 Ry

     iteration # 15     ecut=    55.12 Ry     beta= 0.10
     Davidson diagonalization with overlap
     ethr =  5.77E-09,  avg # of iterations =  3.6

     negative rho (up, down):  1.987E-03 0.000E+00

     Adding external electric field

     Computed dipole along edir(3) : 
        Dipole                0.0374 Ry au,          0.0950 Debye
        Dipole field          0.0001 Ry au, 

        Potential amp.       -0.0095 Ry
        Total length         45.2292 bohr


     total cpu time spent up to now is     4854.6 secs

     End of self-consistent calculation

          k = 0.0000 0.0000 0.0000 ( 30777 PWs)   bands (ev):

   -83.8170 -83.7964 -83.5173 -83.4971 -83.4918 -83.4716 -71.8320 -71.7898
   -71.7346 -71.6911 -71.6575 -71.6151 -43.3235 -43.2190 -43.1707 -43.1175
   -43.0678 -42.9615 -42.9490 -42.9182 -42.8407 -42.8013 -42.7805 -42.7543
   -42.7373 -42.7368 -42.7078 -42.6885 -42.5685 -42.5536 -36.1778 -36.1147
   -36.0689 -36.0462 -35.9567 -35.9445 -35.8852 -35.8490 -35.8093 -35.7919
   -35.7481 -35.7284 -35.6692 -35.4958 -35.4820 -35.4214 -35.4034 -35.2752
    -6.2455  -4.2694  -3.7245  -3.3597  -3.3524  -3.3381  -3.0466  -3.0343
    -3.0282  -2.4145  -2.3645  -2.3421  -2.1655  -2.1126  -2.0905  -0.7471
    -0.6807  -0.5233   0.2956   0.3074   0.3154   0.3910   0.6668   0.7845
     0.9249   0.9901   1.0728   1.2630   1.2752   1.4788   1.5589   1.6835
     1.7368   1.9064   1.9297   1.9754   2.8154   2.8665   3.0457   3.0508
     3.1684   3.2507   3.2975   3.8969   4.0470   4.2889   4.4024   4.4110
     4.4611   4.5830   4.9402   4.9524   5.1364   5.3278   5.5995   5.9554
     5.9840   6.0173   6.2409   6.2674

          k = 0.0000 0.0172 0.0000 ( 30836 PWs)   bands (ev):

   -83.8166 -83.7967 -83.5169 -83.4975 -83.4915 -83.4719 -71.8313 -71.7906
   -71.7338 -71.6918 -71.6568 -71.6158 -43.3167 -43.2180 -43.1713 -43.1163
   -43.0683 -42.9549 -42.9424 -42.9252 -42.8401 -42.8020 -42.7796 -42.7533
   -42.7379 -42.7357 -42.7083 -42.6890 -42.5752 -42.5604 -36.1672 -36.1143
   -36.0584 -36.0481 -35.9553 -35.9339 -35.8862 -35.8488 -35.8089 -35.7937
   -35.7497 -35.7281 -35.6709 -35.5084 -35.4811 -35.4225 -35.4156 -35.2874
    -6.1776  -4.2007  -3.6547  -3.3481  -3.3017  -3.2829  -3.0195  -2.9914
    -2.9801  -2.3788  -2.3385  -2.3105  -2.1173  -2.0441  -2.0337  -0.7316
    -0.6746  -0.5123   0.3049   0.3188   0.3289   0.3465   0.6382   0.7827
     0.8489   0.9031   1.0859   1.2521   1.3048   1.4521   1.5763   1.6365
     1.7200   1.8901   1.9142   1.9839   2.7006   2.7851   2.9447   3.0649
     3.1031   3.1451   3.2777   3.8227   3.9972   4.0758   4.2228   4.2379
     4.3633   4.5668   4.8454   5.0680   5.0748   5.2918   5.5304   5.8894
     5.9594   6.0415   6.1817   6.2083

          k = 0.0000 0.0345 0.0000 ( 30828 PWs)   bands (ev):

   -83.8156 -83.7978 -83.5159 -83.4985 -83.4904 -83.4729 -71.8292 -71.7927
   -71.7317 -71.6940 -71.6547 -71.6180 -43.2966 -43.2150 -43.1732 -43.1130
   -43.0699 -42.9455 -42.9354 -42.9228 -42.8384 -42.8042 -42.7770 -42.7504
   -42.7396 -42.7325 -42.7100 -42.6906 -42.5949 -42.5803 -36.1357 -36.1130
   -36.0537 -36.0270 -35.9510 -35.9028 -35.8889 -35.8483 -35.8074 -35.7988
   -35.7543 -35.7269 -35.6757 -35.5451 -35.4784 -35.4509 -35.4258 -35.3231
    -5.9779  -4.0005  -3.4507  -3.3426  -3.1485  -3.1233  -2.9477  -2.8542
    -2.8422  -2.2733  -2.2708  -2.2035  -2.0024  -1.8443  -1.8414  -0.6932
    -0.6634  -0.4813   0.1259   0.3382   0.3481   0.4154   0.5563   0.6511
     0.7158   0.7626   1.0533   1.2324   1.3277   1.4383   1.4633   1.6051
     1.7267   1.8086   1.8858   2.0912   2.4867   2.5458   2.5755   2.8343
     2.9925   3.0950   3.1990   3.3916   3.6763   3.7185   3.7341   3.9066
     4.3554   4.5866   4.8478   4.8494   5.1237   5.1489   5.2356   5.5549
     5.6692   5.9552   5.9855   6.0056

          k = 0.0000 0.0517 0.0000 ( 30807 PWs)   bands (ev):

   -83.8139 -83.7994 -83.5143 -83.5001 -83.4888 -83.4745 -71.8258 -71.7961
   -71.7283 -71.6975 -71.6513 -71.6213 -43.2646 -43.2104 -43.1762 -43.1079
   -43.0727 -42.9779 -42.9044 -42.8916 -42.8355 -42.8075 -42.7730 -42.7459
   -42.7425 -42.7276 -42.7129 -42.6933 -42.6263 -42.6119 -36.1103 -36.0852
   -36.0616 -35.9771 -35.9444 -35.8940 -35.8523 -35.8469 -35.8062 -35.8048
   -35.7612 -35.7247 -35.6829 -35.6028 -35.5068 -35.4738 -35.4310 -35.3793
    -5.6591  -3.6892  -3.3916  -3.1304  -2.9406  -2.8791  -2.8037  -2.6469
    -2.6354  -2.1772  -2.0909  -2.0201  -1.8332  -1.5325  -1.5249  -0.6619
    -0.6567  -0.4340  -0.1329   0.1745   0.2988   0.3087   0.4656   0.6069
     0.6383   0.6725   0.9525   1.1591   1.2511   1.2703   1.4644   1.6006
     1.6893   1.8235   1.9346   2.0053   2.0967   2.2667   2.4044   2.5737
     2.6071   2.7875   3.0126   3.0301   3.1039   3.1368   3.6073   3.7732
     4.2421   4.5193   4.5573   4.6567   4.8542   5.0085   5.0576   5.1526
     5.2067   5.6116   5.6803   5.7247

          k = 0.0000 0.0689 0.0000 ( 30743 PWs)   bands (ev):

   -83.8118 -83.8015 -83.5122 -83.5022 -83.4867 -83.4766 -71.8215 -71.8005
   -71.7238 -71.7020 -71.6470 -71.6258 -43.2228 -43.2046 -43.1804 -43.1016
   -43.0766 -43.0200 -42.8640 -42.8510 -42.8317 -42.8117 -42.7680 -42.7464
   -42.7404 -42.7216 -42.7168 -42.6971 -42.6670 -42.6529 -36.1059 -36.0718
   -36.0179 -35.9362 -35.9115 -35.9003 -35.8443 -35.8154 -35.8006 -35.7859
   -35.7695 -35.7211 -35.6913 -35.6767 -35.5783 -35.4685 -35.4510 -35.4376
    -5.2441  -3.5534  -3.3107  -2.7729  -2.7308  -2.5906  -2.5570  -2.4076
    -2.3976  -2.0659  -1.8514  -1.7760  -1.6098  -1.1685  -1.1577  -0.6574
    -0.6144  -0.4145  -0.3969  -0.1117  -0.0047   0.0260   0.3913   0.5219
     0.7588   0.7663   0.9618   1.0085   1.0340   1.1156   1.2523   1.3992
     1.5648   1.7530   1.8041   1.8659   1.9032   1.9484   2.1057   2.2506
     2.3330   2.4643   2.7375   2.7896   3.0089   3.1096   3.4614   3.7057
     3.9162   4.1269   4.2576   4.3839   4.5402   4.7232   4.8867   4.9383
     5.1635   5.1698   5.1912   5.5138

          k = 0.0000 0.0861 0.0000 ( 30732 PWs)   bands (ev):

   -83.8093 -83.8040 -83.5098 -83.5046 -83.4843 -83.4791 -71.8165 -71.8056
   -71.7186 -71.7073 -71.6419 -71.6309 -43.1982 -43.1859 -43.1739 -43.0950
   -43.0816 -43.0687 -42.8272 -42.8198 -42.8143 -42.8030 -42.7625 -42.7511
   -42.7344 -42.7218 -42.7166 -42.7131 -42.7020 -42.7001 -36.0996 -36.0819
   -35.9389 -35.9270 -35.9083 -35.8403 -35.8356 -35.8222 -35.7950 -35.7779
   -35.7609 -35.7159 -35.7106 -35.6974 -35.6603 -35.5345 -35.4606 -35.4451
    -4.7687  -3.8588  -2.9483  -2.6778  -2.3402  -2.3110  -2.3064  -2.2065
    -2.1975  -1.9854  -1.5952  -1.5219  -1.3453  -0.9628  -0.9584  -0.7548
    -0.5071  -0.4849  -0.4239  -0.3427  -0.2481  -0.1690   0.3849   0.4419
     0.7379   0.7412   0.8277   0.9108   0.9807   0.9813   1.0320   1.1015
     1.1676   1.4024   1.5486   1.5866   1.7451   1.8045   2.0031   2.0045
     2.2753   2.5101   2.5965   3.0559   3.1885   3.2095   3.3322   3.4196
     3.7585   3.8378   4.0480   4.1009   4.3806   4.4722   4.4965   4.6180
     4.8264   4.9540   5.1305   5.2341

          k = 0.0000-0.1034 0.0000 ( 30718 PWs)   bands (ev):

   -83.8067 -83.8067 -83.5072 -83.5072 -83.4817 -83.4817 -71.8110 -71.8110
   -71.7129 -71.7129 -71.6364 -71.6364 -43.1918 -43.1918 -43.1218 -43.1218
   -43.0876 -43.0876 -42.8224 -42.8224 -42.7663 -42.7663 -42.7569 -42.7569
   -42.7515 -42.7515 -42.7276 -42.7276 -42.7079 -42.7078 -36.0915 -36.0915
   -35.9177 -35.9177 -35.8537 -35.8537 -35.8304 -35.8304 -35.7880 -35.7880
   -35.7462 -35.7462 -35.7092 -35.7092 -35.6214 -35.6214 -35.4530 -35.4530
    -4.2847  -4.2847  -2.7182  -2.7182  -2.1851  -2.1851  -2.1463  -2.1463
    -2.0384  -2.0384  -1.4188  -1.4188  -1.0658  -1.0658  -0.9351  -0.9351
    -0.6033  -0.6033  -0.3984  -0.3984  -0.0532  -0.0532   0.4823   0.4823
     0.5387   0.5387   0.6723   0.6723   0.8988   0.8988   0.9939   0.9939
     1.3493   1.3493   1.4394   1.4394   1.5329   1.5329   2.0049   2.0049
     2.4633   2.4633   2.8379   2.8379   3.1577   3.1578   3.5183   3.5183
     3.8309   3.8309   3.9378   3.9378   4.1002   4.1002   4.4738   4.4738
     4.8022   4.8022   5.1493   5.1493

          k = 0.0150-0.0085 0.0000 ( 30836 PWs)   bands (ev):

   -83.8166 -83.7967 -83.5169 -83.4975 -83.4915 -83.4719 -71.8313 -71.7906
   -71.7338 -71.6918 -71.6568 -71.6158 -43.3167 -43.2180 -43.1713 -43.1163
   -43.0683 -42.9549 -42.9424 -42.9252 -42.8401 -42.8020 -42.7796 -42.7533
   -42.7379 -42.7357 -42.7083 -42.6890 -42.5752 -42.5604 -36.1672 -36.1143
   -36.0584 -36.0481 -35.9553 -35.9339 -35.8862 -35.8488 -35.8089 -35.7937
   -35.7497 -35.7281 -35.6709 -35.5084 -35.4811 -35.4225 -35.4156 -35.2874
    -6.1776  -4.2007  -3.6547  -3.3481  -3.3017  -3.2829  -3.0195  -2.9914
    -2.9801  -2.3788  -2.3385  -2.3105  -2.1173  -2.0441  -2.0337  -0.7316
    -0.6746  -0.5123   0.3049   0.3188   0.3289   0.3465   0.6382   0.7827
     0.8489   0.9031   1.0859   1.2521   1.3048   1.4521   1.5763   1.6365
     1.7200   1.8901   1.9142   1.9839   2.7006   2.7851   2.9447   3.0649
     3.1031   3.1451   3.2777   3.8227   3.9972   4.0758   4.2228   4.2379
     4.3633   4.5668   4.8454   5.0680   5.0748   5.2918   5.5304   5.8894
     5.9594   6.0415   6.1817   6.2085

          k = 0.0150 0.0088 0.0000 ( 30835 PWs)   bands (ev):

   -83.8170 -83.7964 -83.5173 -83.4971 -83.4918 -83.4716 -71.8320 -71.7898
   -71.7346 -71.6911 -71.6575 -71.6151 -43.3230 -43.2184 -43.1705 -43.1167
   -43.0674 -42.9612 -42.9486 -42.9181 -42.8410 -42.8014 -42.7800 -42.7536
   -42.7372 -42.7359 -42.7075 -42.6882 -42.5684 -42.5536 -36.1792 -36.1168
   -36.0698 -36.0473 -35.9560 -35.9455 -35.8849 -35.8515 -35.8107 -35.7927
   -35.7491 -35.7301 -35.6701 -35.4960 -35.4824 -35.4214 -35.4036 -35.2754
    -6.1763  -4.1994  -3.6568  -3.3251  -3.3053  -3.2965  -3.0075  -2.9927
    -2.9878  -2.3916  -2.3286  -2.3068  -2.0961  -2.0800  -2.0163  -0.7419
    -0.6629  -0.5136   0.3066   0.3086   0.3415   0.3446   0.7192   0.7875
     0.8169   0.9468   1.1638   1.2602   1.2981   1.4499   1.5347   1.5803
     1.6561   1.8573   1.9554   1.9663   2.7585   2.8053   2.9240   2.9902
     3.0503   3.1549   3.2963   3.8554   3.9571   4.1580   4.1980   4.2264
     4.3534   4.6447   4.9001   4.9166   5.0733   5.3412   5.4732   5.9929
     6.0080   6.0674   6.1779   6.2183

          k = 0.0150 0.0260 0.0000 ( 30824 PWs)   bands (ev):

   -83.8166 -83.7967 -83.5169 -83.4975 -83.4915 -83.4719 -71.8313 -71.7906
   -71.7339 -71.6918 -71.6568 -71.6158 -43.3158 -43.2169 -43.1708 -43.1148
   -43.0675 -42.9542 -42.9415 -42.9251 -42.8405 -42.8022 -42.7786 -42.7521
   -42.7378 -42.7340 -42.7078 -42.6885 -42.5751 -42.5604 -36.1697 -36.1182
   -36.0601 -36.0499 -35.9540 -35.9358 -35.8855 -35.8537 -35.8113 -35.7951
   -35.7516 -35.7312 -35.6726 -35.5088 -35.4817 -35.4226 -35.4158 -35.2877
    -6.0413  -4.0635  -3.5234  -3.2881  -3.2597  -3.1559  -2.9414  -2.9388
    -2.8705  -2.3336  -2.2780  -2.2266  -2.0042  -1.9805  -1.8661  -0.7250
    -0.6425  -0.4951   0.2111   0.3190   0.3423   0.3898   0.6674   0.7151
     0.7901   0.8695   1.1607   1.2769   1.3178   1.4044   1.4265   1.5150
     1.7003   1.8123   1.9308   1.9482   2.5987   2.6213   2.7437   2.8783
     2.9591   3.0019   3.2699   3.7006   3.7456   3.7976   3.8506   3.9496
     4.3603   4.6894   4.8352   4.9447   4.9606   5.1801   5.3153   5.8188
     5.8594   5.9866   5.9881   6.1101

          k = 0.0150 0.0432 0.0000 ( 30797 PWs)   bands (ev):

   -83.8156 -83.7978 -83.5159 -83.4985 -83.4904 -83.4729 -71.8292 -71.7927
   -71.7317 -71.6940 -71.6547 -71.6179 -43.2954 -43.2136 -43.1726 -43.1110
   -43.0689 -42.9455 -42.9344 -42.9217 -42.8389 -42.8044 -42.7757 -42.7488
   -42.7396 -42.7302 -42.7095 -42.6900 -42.5949 -42.5803 -36.1391 -36.1180
   -36.0558 -36.0294 -35.9494 -35.9054 -35.8881 -35.8547 -35.8105 -35.8003
   -35.7566 -35.7311 -35.6777 -35.5454 -35.4791 -35.4510 -35.4259 -35.3233
    -5.7807  -3.8057  -3.3023  -3.2679  -3.0944  -2.9559  -2.8175  -2.7822
    -2.6740  -2.2055  -2.1945  -2.0626  -1.8666  -1.7538  -1.5798  -0.6976
    -0.6269  -0.4597  -0.0029   0.2392   0.3621   0.4205   0.5251   0.5448
     0.7317   0.7737   1.0511   1.2669   1.2849   1.3260   1.4187   1.5148
     1.6800   1.8440   1.8475   2.0118   2.2729   2.3579   2.3860   2.6712
     2.7941   2.9202   3.0598   3.1526   3.2096   3.2626   3.6940   3.7808
     4.3154   4.6392   4.6464   4.7594   4.8544   4.9832   5.1621   5.1722
     5.3723   5.7372   5.8881   5.9265

          k = 0.0150 0.0604 0.0000 ( 30774 PWs)   bands (ev):

   -83.8139 -83.7994 -83.5143 -83.5001 -83.4888 -83.4745 -71.8259 -71.7961
   -71.7283 -71.6975 -71.6514 -71.6213 -43.2632 -43.2089 -43.1757 -43.1058
   -43.0718 -42.9780 -42.9033 -42.8903 -42.8361 -42.8077 -42.7715 -42.7442
   -42.7426 -42.7251 -42.7124 -42.6929 -42.6264 -42.6120 -36.1155 -36.0892
   -36.0633 -35.9797 -35.9427 -35.8936 -35.8551 -35.8540 -35.8078 -35.8072
   -35.7634 -35.7292 -35.6846 -35.6028 -35.5066 -35.4747 -35.4309 -35.3791
    -5.4117  -3.4559  -3.4039  -2.9310  -2.8406  -2.7887  -2.5805  -2.5644
    -2.4197  -2.0822  -2.0109  -1.8294  -1.6746  -1.4213  -1.2293  -0.6679
    -0.6297  -0.4175  -0.2705   0.0156   0.1607   0.1906   0.3714   0.5902
     0.6616   0.8110   0.9587   1.1274   1.1405   1.2202   1.3563   1.5442
     1.6474   1.7246   1.8257   1.8501   2.0144   2.0679   2.2586   2.3339
     2.5192   2.5266   2.6545   2.7498   2.9042   3.1174   3.5790   3.6614
     4.0822   4.2329   4.3733   4.4004   4.6125   4.8486   4.9085   5.1491
     5.1841   5.4089   5.5416   5.6703

          k = 0.0150 0.0777 0.0000 ( 30736 PWs)   bands (ev):

   -83.8118 -83.8015 -83.5122 -83.5022 -83.4867 -83.4766 -71.8216 -71.8005
   -71.7238 -71.7020 -71.6470 -71.6257 -43.2216 -43.2033 -43.1801 -43.0997
   -43.0761 -43.0203 -42.8629 -42.8498 -42.8323 -42.8119 -42.7666 -42.7466
   -42.7388 -42.7192 -42.7168 -42.6971 -42.6673 -42.6532 -36.1106 -36.0728
   -36.0215 -35.9347 -35.9139 -35.9002 -35.8510 -35.8153 -35.8031 -35.7885
   -35.7710 -35.7252 -35.6922 -35.6760 -35.5778 -35.4692 -35.4504 -35.4374
    -4.9625  -3.6410  -3.0747  -2.6615  -2.6400  -2.4726  -2.3386  -2.3240
    -2.1508  -1.9662  -1.7635  -1.5673  -1.4369  -1.0641  -1.0141  -0.6449
    -0.5234  -0.5122  -0.4299  -0.2774  -0.1425  -0.0728   0.3088   0.4649
     0.7493   0.8178   0.9174   0.9261   1.0236   1.0602   1.1537   1.2156
     1.3529   1.4795   1.5931   1.7102   1.8636   1.9023   1.9755   2.0655
     2.2564   2.4111   2.5317   2.9384   3.0426   3.1033   3.3907   3.5681
     3.6192   3.9523   4.0795   4.1999   4.5494   4.5826   4.8224   4.8472
     4.9845   5.1353   5.2153   5.4047

          k = 0.0150-0.1118 0.0000 ( 30745 PWs)   bands (ev):

   -83.8093 -83.8040 -83.5098 -83.5046 -83.4843 -83.4791 -71.8165 -71.8055
   -71.7186 -71.7073 -71.6419 -71.6308 -43.1973 -43.1860 -43.1728 -43.0936
   -43.0818 -43.0693 -42.8277 -42.8190 -42.8139 -42.8021 -42.7613 -42.7515
   -42.7332 -42.7222 -42.7159 -42.7125 -42.7027 -42.7005 -36.1030 -36.0815
   -35.9420 -35.9259 -35.9082 -35.8455 -35.8372 -35.8210 -35.7965 -35.7785
   -35.7598 -35.7187 -35.7123 -35.6975 -35.6593 -35.5334 -35.4613 -35.4447
    -4.4759  -4.0166  -2.7691  -2.6245  -2.4565  -2.1888  -2.1334  -2.1083
    -2.0077  -1.9085  -1.5184  -1.3624  -1.1843  -0.9677  -0.9662  -0.8691
    -0.6411  -0.5107  -0.4029  -0.3781  -0.2539   0.0087   0.3728   0.3762
     0.5366   0.6447   0.6754   0.7719   0.8416   0.9046   0.9596   1.0382
     1.3139   1.3661   1.4199   1.4713   1.5980   1.6181   2.0193   2.0421
     2.3968   2.4838   2.6472   3.0165   3.0240   3.2330   3.2768   3.5369
     3.7279   3.7616   4.0542   4.0573   4.2254   4.3756   4.5312   4.6162
     4.7891   4.9048   5.1540   5.1679

          k = 0.0150-0.0946 0.0000 ( 30694 PWs)   bands (ev):

   -83.8067 -83.8066 -83.5072 -83.5072 -83.4817 -83.4817 -71.8110 -71.8110
   -71.7130 -71.7129 -71.6364 -71.6363 -43.1923 -43.1912 -43.1226 -43.1210
   -43.0884 -43.0869 -42.8227 -42.8220 -42.7667 -42.7658 -42.7574 -42.7562
   -42.7524 -42.7506 -42.7285 -42.7267 -42.7091 -42.7067 -36.0933 -36.0896
   -35.9184 -35.9169 -35.8545 -35.8519 -35.8337 -35.8280 -35.7881 -35.7875
   -35.7481 -35.7450 -35.7106 -35.7074 -35.6231 -35.6199 -35.4535 -35.4525
    -4.4823  -4.0113  -2.7618  -2.6475  -2.4372  -2.1920  -2.1541  -2.1115
    -1.9548  -1.9364  -1.4559  -1.4079  -1.1689  -1.0272  -0.9917  -0.8709
    -0.6081  -0.5259  -0.3986  -0.3792  -0.1703  -0.0352   0.3770   0.3875
     0.4708   0.5352   0.6140   0.7332   0.8275   0.9433   0.9827   1.0074
     1.2482   1.3525   1.3968   1.5416   1.6969   1.7102   2.0134   2.0506
     2.2474   2.6511   2.6900   2.9784   3.1388   3.1753   3.4632   3.5001
     3.6988   3.9049   4.0094   4.1033   4.1083   4.3342   4.5023   4.5964
     4.8333   4.9113   5.0793   5.1594

          k = 0.0150-0.0774 0.0000 ( 30754 PWs)   bands (ev):

   -83.8093 -83.8040 -83.5098 -83.5046 -83.4843 -83.4791 -71.8164 -71.8056
   -71.7185 -71.7073 -71.6418 -71.6309 -43.1990 -43.1857 -43.1748 -43.0961
   -43.0816 -43.0684 -42.8268 -42.8204 -42.8147 -42.8037 -42.7635 -42.7506
   -42.7353 -42.7215 -42.7174 -42.7133 -42.7015 -42.6999 -36.0967 -36.0822
   -35.9360 -35.9280 -35.9083 -35.8354 -35.8336 -35.8237 -35.7935 -35.7776
   -35.7623 -35.7134 -35.7079 -35.6984 -35.6613 -35.5355 -35.4601 -35.4454
    -4.9693  -3.6379  -3.0756  -2.7188  -2.5679  -2.4748  -2.3486  -2.3479
    -2.1332  -1.9735  -1.6813  -1.6399  -1.4381  -1.0625  -1.0333  -0.6649
    -0.5556  -0.4765  -0.4301  -0.2773  -0.1410  -0.1339   0.3441   0.3786
     0.7771   0.7777   0.8461   0.8894   0.9222   0.9929   1.0543   1.1386
     1.1945   1.5649   1.6682   1.7680   1.9114   2.0124   2.0799   2.1068
     2.2006   2.4209   2.8033   2.9955   3.1432   3.2208   3.2719   3.5864
     3.7510   3.8910   4.2466   4.3238   4.4492   4.5314   4.7461   4.9269
     4.9709   5.0397   5.0740   5.4078

          k = 0.0150-0.0602 0.0000 ( 30774 PWs)   bands (ev):

   -83.8118 -83.8015 -83.5122 -83.5022 -83.4867 -83.4766 -71.8215 -71.8005
   -71.7238 -71.7020 -71.6469 -71.6258 -43.2237 -43.2056 -43.1806 -43.1030
   -43.0769 -43.0198 -42.8648 -42.8519 -42.8313 -42.8117 -42.7690 -42.7462
   -42.7415 -42.7233 -42.7169 -42.6971 -42.6669 -42.6527 -36.1025 -36.0710
   -36.0153 -35.9373 -35.9099 -35.9001 -35.8394 -35.8157 -35.7987 -35.7839
   -35.7684 -35.7182 -35.6908 -35.6772 -35.5788 -35.4678 -35.4515 -35.4377
    -5.4182  -3.4602  -3.4043  -2.9174  -2.8857  -2.7298  -2.6237  -2.5774
    -2.4093  -2.0846  -1.9356  -1.9010  -1.6793  -1.4136  -1.2440  -0.6916
    -0.6046  -0.4203  -0.3148   0.0237   0.1073   0.1502   0.4239   0.4943
     0.6427   0.7372   0.8756   1.0425   1.1068   1.1157   1.3472   1.4632
     1.6104   1.8604   1.8756   1.9842   2.0248   2.0924   2.1513   2.3227
     2.5491   2.6660   2.8092   2.9721   3.0253   3.0858   3.4171   3.8541
     3.9937   4.2578   4.5028   4.5213   4.7791   4.7954   4.9461   4.9644
     5.2127   5.3933   5.5754   5.6161

          k = 0.0150-0.0429 0.0000 ( 30820 PWs)   bands (ev):

   -83.8139 -83.7994 -83.5143 -83.5001 -83.4888 -83.4745 -71.8258 -71.7961
   -71.7282 -71.6975 -71.6513 -71.6214 -43.2653 -43.2112 -43.1765 -43.1091
   -43.0732 -42.9779 -42.9051 -42.8923 -42.8352 -42.8074 -42.7738 -42.7469
   -42.7425 -42.7291 -42.7131 -42.6935 -42.6262 -42.6118 -36.1072 -36.0828
   -36.0607 -35.9756 -35.9454 -35.8942 -35.8507 -35.8428 -35.8058 -35.8029
   -35.7600 -35.7221 -35.6819 -35.6028 -35.5069 -35.4733 -35.4310 -35.3794
    -5.7861  -3.8106  -3.3066  -3.2512  -3.1321  -2.9047  -2.8631  -2.7957
    -2.6648  -2.1963  -2.1355  -2.1310  -1.8738  -1.7493  -1.5909  -0.6826
    -0.6391  -0.4598  -0.0503   0.2924   0.3171   0.3718   0.5067   0.5081
     0.6673   0.6870   0.9003   1.1566   1.2421   1.3219   1.4873   1.6611
     1.7102   1.8235   1.9405   2.1863   2.2727   2.3625   2.3724   2.6087
     2.7671   2.9739   3.0826   3.1347   3.3522   3.3906   3.5388   3.8994
     4.2678   4.5434   4.7380   4.8307   4.8877   5.0534   5.2152   5.2663
     5.3434   5.7192   5.8484   5.9792

          k = 0.0150-0.0257 0.0000 ( 30847 PWs)   bands (ev):

   -83.8156 -83.7978 -83.5159 -83.4985 -83.4904 -83.4729 -71.8292 -71.7927
   -71.7317 -71.6940 -71.6547 -71.6180 -43.2970 -43.2155 -43.1734 -43.1137
   -43.0703 -42.9456 -42.9358 -42.9232 -42.8382 -42.8041 -42.7775 -42.7510
   -42.7396 -42.7334 -42.7102 -42.6908 -42.5949 -42.5803 -36.1344 -36.1111
   -36.0529 -36.0262 -35.9516 -35.9018 -35.8892 -35.8459 -35.8063 -35.7982
   -35.7535 -35.7254 -35.6750 -35.5449 -35.4781 -35.4508 -35.4258 -35.3231
    -6.0448  -4.0672  -3.5161  -3.3020  -3.2775  -3.1370  -2.9550  -2.9475
    -2.8611  -2.2929  -2.2868  -2.2597  -2.0280  -1.9565  -1.8752  -0.6922
    -0.6769  -0.4925   0.1735   0.3267   0.3876   0.4008   0.5107   0.6426
     0.7547   0.8774   0.9713   1.2119   1.3186   1.4503   1.5142   1.6889
     1.7452   1.8126   1.8861   2.1110   2.5180   2.6373   2.6665   2.9114
     3.0749   3.1628   3.1948   3.4952   3.7204   3.8979   3.9131   3.9673
     4.3664   4.5351   4.8180   4.9315   5.1662   5.2255   5.4362   5.5529
     5.7032   5.9595   6.0580   6.1798

          k = 0.0300-0.0169 0.0000 ( 30828 PWs)   bands (ev):

   -83.8156 -83.7978 -83.5159 -83.4985 -83.4904 -83.4729 -71.8292 -71.7927
   -71.7317 -71.6940 -71.6547 -71.6180 -43.2966 -43.2150 -43.1732 -43.1130
   -43.0699 -42.9455 -42.9354 -42.9228 -42.8384 -42.8042 -42.7770 -42.7504
   -42.7396 -42.7325 -42.7100 -42.6906 -42.5949 -42.5803 -36.1357 -36.1130
   -36.0537 -36.0270 -35.9510 -35.9028 -35.8889 -35.8483 -35.8074 -35.7988
   -35.7543 -35.7269 -35.6757 -35.5451 -35.4784 -35.4509 -35.4258 -35.3231
    -5.9779  -4.0005  -3.4507  -3.3426  -3.1485  -3.1233  -2.9477  -2.8542
    -2.8422  -2.2733  -2.2708  -2.2035  -2.0024  -1.8443  -1.8414  -0.6932
    -0.6634  -0.4813   0.1259   0.3382   0.3481   0.4154   0.5563   0.6511
     0.7158   0.7626   1.0533   1.2324   1.3277   1.4383   1.4633   1.6051
     1.7267   1.8086   1.8858   2.0912   2.4867   2.5458   2.5755   2.8343
     2.9925   3.0950   3.1990   3.3916   3.6763   3.7185   3.7341   3.9066
     4.3554   4.5866   4.8478   4.8494   5.1237   5.1489   5.2356   5.5549
     5.6691   5.9552   5.9839   6.0056

          k = 0.0300 0.0003 0.0000 ( 30824 PWs)   bands (ev):

   -83.8166 -83.7967 -83.5169 -83.4975 -83.4915 -83.4719 -71.8313 -71.7906
   -71.7339 -71.6918 -71.6568 -71.6158 -43.3158 -43.2169 -43.1708 -43.1148
   -43.0675 -42.9542 -42.9415 -42.9251 -42.8405 -42.8022 -42.7786 -42.7521
   -42.7378 -42.7340 -42.7078 -42.6885 -42.5751 -42.5604 -36.1697 -36.1182
   -36.0601 -36.0499 -35.9540 -35.9358 -35.8855 -35.8537 -35.8113 -35.7951
   -35.7516 -35.7312 -35.6726 -35.5088 -35.4817 -35.4226 -35.4158 -35.2877
    -6.0413  -4.0635  -3.5234  -3.2881  -3.2597  -3.1559  -2.9414  -2.9388
    -2.8705  -2.3336  -2.2780  -2.2266  -2.0042  -1.9805  -1.8661  -0.7250
    -0.6425  -0.4951   0.2111   0.3190   0.3423   0.3898   0.6674   0.7151
     0.7901   0.8695   1.1607   1.2769   1.3178   1.4044   1.4265   1.5150
     1.7003   1.8123   1.9308   1.9482   2.5987   2.6213   2.7437   2.8783
     2.9591   3.0019   3.2699   3.7006   3.7456   3.7976   3.8506   3.9496
     4.3603   4.6894   4.8352   4.9447   4.9606   5.1801   5.3153   5.8188
     5.8594   5.9866   5.9885   6.1105

          k = 0.0300 0.0175 0.0000 ( 30809 PWs)   bands (ev):

   -83.8169 -83.7964 -83.5172 -83.4971 -83.4918 -83.4716 -71.8320 -71.7899
   -71.7346 -71.6911 -71.6576 -71.6151 -43.3218 -43.2169 -43.1697 -43.1145
   -43.0662 -42.9601 -42.9474 -42.9180 -42.8415 -42.8016 -42.7785 -42.7519
   -42.7371 -42.7334 -42.7067 -42.6874 -42.5683 -42.5535 -36.1829 -36.1224
   -36.0723 -36.0500 -35.9542 -35.9482 -35.8840 -35.8586 -35.8142 -35.7949
   -35.7518 -35.7347 -35.6726 -35.4967 -35.4832 -35.4216 -35.4039 -35.2757
    -5.9731  -3.9954  -3.4717  -3.2922  -3.1481  -3.1356  -2.9440  -2.8547
    -2.8364  -2.3251  -2.2182  -2.1982  -1.9839  -1.8970  -1.7996  -0.7308
    -0.6149  -0.4944   0.1784   0.3054   0.3409   0.4266   0.5598   0.7671
     0.8714   1.0083   1.1593   1.2029   1.2545   1.2940   1.4003   1.5555
     1.6989   1.7629   1.8646   1.9306   2.4939   2.6188   2.7496   2.7732
     2.7962   2.8727   3.3011   3.5802   3.6018   3.6236   3.8023   3.9022
     4.3229   4.7305   4.8074   4.8831   4.9182   5.0660   5.3339   5.7278
     5.8505   5.8572   5.9152   5.9757

          k = 0.0300 0.0347 0.0000 ( 30812 PWs)   bands (ev):

   -83.8166 -83.7967 -83.5169 -83.4975 -83.4914 -83.4719 -71.8313 -71.7906
   -71.7339 -71.6918 -71.6569 -71.6158 -43.3142 -43.2151 -43.1699 -43.1122
   -43.0661 -42.9528 -42.9401 -42.9249 -42.8412 -42.8025 -42.7769 -42.7500
   -42.7377 -42.7310 -42.7070 -42.6875 -42.5750 -42.5603 -36.1742 -36.1248
   -36.0631 -36.0531 -35.9518 -35.9390 -35.8846 -35.8623 -35.8154 -35.7976
   -35.7547 -35.7368 -35.6755 -35.5095 -35.4827 -35.4227 -35.4161 -35.2881
    -5.7772  -3.8020  -3.3335  -3.1894  -3.1327  -2.9342  -2.8534  -2.7624
    -2.6679  -2.2470  -2.1444  -2.0637  -1.8569  -1.7711  -1.5695  -0.7184
    -0.5900  -0.4814   0.0385   0.2487   0.3552   0.3663   0.5364   0.6845
     0.8125   0.9345   1.0838   1.1855   1.2206   1.2928   1.3950   1.5356
     1.7075   1.7677   1.8418   1.9098   2.2852   2.3694   2.4181   2.6469
     2.7067   2.7803   3.1381   3.1408   3.2538   3.2776   3.6791   3.7927
     4.2478   4.6273   4.6481   4.7489   4.8693   4.9977   5.2139   5.2194
     5.4409   5.6699   5.8339   5.8546

          k = 0.0300 0.0520 0.0000 ( 30778 PWs)   bands (ev):

   -83.8155 -83.7978 -83.5159 -83.4985 -83.4904 -83.4729 -71.8293 -71.7927
   -71.7318 -71.6940 -71.6548 -71.6179 -43.2937 -43.2118 -43.1717 -43.1083
   -43.0676 -42.9454 -42.9330 -42.9201 -42.8396 -42.8047 -42.7739 -42.7466
   -42.7395 -42.7270 -42.7087 -42.6892 -42.5949 -42.5802 -36.1439 -36.1247
   -36.0587 -36.0326 -35.9472 -35.9089 -35.8872 -35.8637 -35.8145 -35.8024
   -35.7596 -35.7369 -35.6804 -35.5459 -35.4801 -35.4512 -35.4259 -35.3235
    -5.4652  -3.5027  -3.1856  -3.1720  -2.9190  -2.7486  -2.6762  -2.5695
    -2.4213  -2.1009  -2.0381  -1.8469  -1.6134  -1.6104  -1.2499  -0.6965
    -0.5891  -0.4597  -0.1737   0.0853   0.1715   0.3420   0.4076   0.5985
     0.6273   0.9199   0.9490   1.1585   1.1734   1.2540   1.3849   1.5751
     1.6374   1.6695   1.7824   1.9163   1.9845   2.0888   2.3536   2.4120
     2.4176   2.6021   2.6356   2.7814   2.7855   3.1899   3.5882   3.6821
     4.0506   4.2100   4.3820   4.6096   4.6355   4.8384   4.9572   5.1264
     5.2667   5.4832   5.7374   5.8028

          k = 0.0300 0.0692 0.0000 ( 30737 PWs)   bands (ev):

   -83.8139 -83.7994 -83.5143 -83.5001 -83.4888 -83.4745 -71.8259 -71.7961
   -71.7284 -71.6975 -71.6514 -71.6213 -43.2617 -43.2073 -43.1751 -43.1033
   -43.0708 -42.9781 -42.9019 -42.8889 -42.8368 -42.8080 -42.7698 -42.7426
   -42.7422 -42.7221 -42.7120 -42.6924 -42.6265 -42.6121 -36.1215 -36.0935
   -36.0654 -35.9827 -35.9408 -35.8930 -35.8623 -35.8583 -35.8112 -35.8083
   -35.7659 -35.7345 -35.6866 -35.6028 -35.5064 -35.4756 -35.4309 -35.3790
    -5.0580  -3.3596  -3.1425  -2.9848  -2.5979  -2.5444  -2.4453  -2.3307
    -2.1248  -1.9000  -1.8925  -1.5862  -1.4110  -1.2690  -1.0667  -0.6351
    -0.5576  -0.4576  -0.4097  -0.1766   0.0021   0.0624   0.2285   0.4120
     0.7344   0.8027   0.9432   1.0144   1.0150   1.0750   1.2411   1.2774
     1.3728   1.6135   1.6475   1.8369   1.8439   1.9318   1.9585   2.1869
     2.2103   2.4144   2.5077   2.7956   2.8808   3.0682   3.5066   3.5839
     3.5858   3.9009   4.0679   4.4169   4.5976   4.7310   4.7652   5.0967
     5.2320   5.2453   5.5687   5.5736

          k = 0.0300-0.1203 0.0000 ( 30753 PWs)   bands (ev):

   -83.8118 -83.8015 -83.5122 -83.5022 -83.4867 -83.4766 -71.8216 -71.8005
   -71.7239 -71.7020 -71.6471 -71.6257 -43.2202 -43.2020 -43.1799 -43.0978
   -43.0757 -43.0206 -42.8617 -42.8485 -42.8329 -42.8120 -42.7652 -42.7469
   -42.7372 -42.7168 -42.7167 -42.6972 -42.6677 -42.6536 -36.1152 -36.0736
   -36.0251 -35.9332 -35.9162 -35.8999 -35.8576 -35.8152 -35.8054 -35.7911
   -35.7727 -35.7294 -35.6932 -35.6754 -35.5773 -35.4698 -35.4500 -35.4372
    -4.5881  -3.6795  -2.8737  -2.7379  -2.4978  -2.2418  -2.1352  -2.1116
    -1.9000  -1.7636  -1.6371  -1.3458  -1.2127  -1.0595  -0.9761  -0.7390
    -0.5983  -0.5293  -0.4619  -0.4148  -0.2018   0.0314   0.2051   0.3262
     0.4750   0.6868   0.7337   0.7623   0.7657   0.8510   0.9663   1.1362
     1.2719   1.4001   1.4870   1.5357   1.6895   1.8027   2.0168   2.0768
     2.2744   2.3777   2.6684   2.8920   3.0292   3.1393   3.2903   3.3738
     3.6199   3.7131   4.0576   4.3063   4.4846   4.6053   4.7640   4.8308
     4.9349   5.1576   5.2079   5.3431

          k = 0.0300-0.1031 0.0000 ( 30750 PWs)   bands (ev):

   -83.8093 -83.8040 -83.5098 -83.5046 -83.4843 -83.4791 -71.8165 -71.8055
   -71.7186 -71.7073 -71.6419 -71.6308 -43.1964 -43.1861 -43.1719 -43.0923
   -43.0820 -43.0699 -42.8281 -42.8180 -42.8138 -42.8013 -42.7602 -42.7520
   -42.7321 -42.7226 -42.7157 -42.7114 -42.7033 -42.7012 -36.1059 -36.0811
   -35.9446 -35.9249 -35.9081 -35.8498 -35.8380 -35.8203 -35.7976 -35.7794
   -35.7592 -35.7211 -35.7130 -35.6985 -35.6586 -35.5324 -35.4619 -35.4445
    -4.1153  -4.1044  -2.7986  -2.5368  -2.5134  -2.1578  -2.0041  -1.8840
    -1.8357  -1.7407  -1.4208  -1.2475  -1.1426  -1.0716  -0.9281  -0.9178
    -0.7404  -0.6188  -0.4384  -0.3013  -0.2178   0.1412   0.1935   0.2596
     0.2769   0.3472   0.4427   0.6123   0.6928   0.7601   0.9737   1.0168
     1.2651   1.3607   1.4818   1.5679   1.5735   1.6674   2.0883   2.1004
     2.2203   2.5577   2.7975   2.8588   2.9826   3.1834   3.2216   3.6285
     3.7253   3.9706   4.0289   4.2513   4.2888   4.3788   4.6825   4.7124
     4.9208   4.9266   5.0637   5.1209

          k = 0.0300-0.0859 0.0000 ( 30737 PWs)   bands (ev):

   -83.8067 -83.8067 -83.5072 -83.5072 -83.4817 -83.4817 -71.8111 -71.8110
   -71.7130 -71.7129 -71.6364 -71.6363 -43.1927 -43.1908 -43.1231 -43.1202
   -43.0891 -43.0865 -42.8229 -42.8218 -42.7670 -42.7654 -42.7578 -42.7556
   -42.7530 -42.7499 -42.7292 -42.7262 -42.7102 -42.7059 -36.0946 -36.0883
   -35.9190 -35.9164 -35.8547 -35.8492 -35.8374 -35.8267 -35.7879 -35.7866
   -35.7499 -35.7445 -35.7116 -35.7060 -35.6245 -35.6189 -35.4538 -35.4522
    -4.6009  -3.6729  -2.8571  -2.7746  -2.4718  -2.2519  -2.1664  -2.1141
    -1.8283  -1.8056  -1.5410  -1.4034  -1.1797  -1.1366  -1.0158  -0.8006
    -0.6107  -0.4922  -0.4474  -0.3440  -0.2090  -0.0231   0.1779   0.2372
     0.4064   0.5198   0.5930   0.7199   0.7366   0.8166   1.0177   1.1031
     1.1598   1.3252   1.4763   1.7009   1.8958   1.8959   2.0410   2.0492
     2.1840   2.5587   2.8370   3.0263   3.0736   3.1910   3.3972   3.4552
     3.6348   4.0775   4.1246   4.1932   4.2719   4.5768   4.8143   4.8806
     4.9093   4.9729   5.0514   5.3857

          k = 0.0300-0.0686 0.0000 ( 30740 PWs)   bands (ev):

   -83.8093 -83.8040 -83.5098 -83.5046 -83.4843 -83.4791 -71.8164 -71.8056
   -71.7185 -71.7073 -71.6418 -71.6309 -43.1995 -43.1856 -43.1754 -43.0966
   -43.0815 -43.0682 -42.8266 -42.8206 -42.8151 -42.8042 -42.7640 -42.7504
   -42.7359 -42.7214 -42.7179 -42.7134 -42.7012 -42.6998 -36.0950 -36.0824
   -35.9343 -35.9286 -35.9083 -35.8325 -35.8321 -35.8251 -35.7926 -35.7776
   -35.7633 -35.7119 -35.7051 -35.7002 -35.6619 -35.5361 -35.4598 -35.4456
    -5.0711  -3.3635  -3.1399  -3.0002  -2.5640  -2.5453  -2.4633  -2.3786
    -2.0987  -1.9219  -1.8062  -1.6566  -1.4163  -1.2529  -1.0893  -0.6455
    -0.6016  -0.4664  -0.4364  -0.1706  -0.0418  -0.0327   0.2651   0.2716
     0.6792   0.8342   0.8371   0.8683   0.9069   0.9362   1.0115   1.2462
     1.3125   1.4822   1.7156   1.9429   2.0202   2.0405   2.1026   2.1436
     2.3839   2.4696   2.8998   3.0164   3.1366   3.1819   3.1986   3.6336
     3.7003   4.0305   4.4324   4.4497   4.5009   4.6644   4.8659   4.9079
     5.0906   5.2460   5.5718   5.6279

          k = 0.0300-0.0514 0.0000 ( 30775 PWs)   bands (ev):

   -83.8118 -83.8015 -83.5122 -83.5022 -83.4867 -83.4766 -71.8215 -71.8005
   -71.7237 -71.7020 -71.6469 -71.6258 -43.2241 -43.2059 -43.1807 -43.1034
   -43.0771 -43.0197 -42.8651 -42.8522 -42.8312 -42.8117 -42.7693 -42.7461
   -42.7419 -42.7239 -42.7169 -42.6971 -42.6668 -42.6526 -36.1012 -36.0707
   -36.0143 -35.9377 -35.9093 -35.8999 -35.8376 -35.8158 -35.7979 -35.7832
   -35.7680 -35.7172 -35.6906 -35.6774 -35.5790 -35.4675 -35.4518 -35.4378
    -5.4770  -3.5111  -3.2346  -3.1278  -2.9381  -2.7002  -2.6836  -2.6423
    -2.4115  -2.0615  -2.0142  -1.9167  -1.6427  -1.5789  -1.2711  -0.7043
    -0.5874  -0.4412  -0.2782   0.0947   0.1475   0.1956   0.4376   0.4439
     0.5997   0.7571   0.8148   1.0562   1.0807   1.1508   1.3891   1.4643
     1.5973   1.8569   1.9235   2.0231   2.1073   2.1515   2.2092   2.3203
     2.6274   2.6394   2.9515   3.0123   3.1038   3.1305   3.3105   3.9382
     4.0079   4.3038   4.5406   4.7000   4.7600   4.7681   4.9287   5.0774
     5.3224   5.5164   5.5765   5.9932

          k = 0.0300-0.0342 0.0000 ( 30820 PWs)   bands (ev):

   -83.8139 -83.7994 -83.5143 -83.5001 -83.4888 -83.4745 -71.8258 -71.7961
   -71.7282 -71.6975 -71.6513 -71.6214 -43.2653 -43.2112 -43.1765 -43.1091
   -43.0732 -42.9779 -42.9051 -42.8923 -42.8352 -42.8074 -42.7738 -42.7469
   -42.7425 -42.7291 -42.7131 -42.6935 -42.6262 -42.6118 -36.1072 -36.0828
   -36.0607 -35.9756 -35.9454 -35.8942 -35.8507 -35.8428 -35.8058 -35.8029
   -35.7600 -35.7221 -35.6819 -35.6028 -35.5069 -35.4733 -35.4310 -35.3794
    -5.7861  -3.8106  -3.3066  -3.2512  -3.1321  -2.9047  -2.8631  -2.7957
    -2.6648  -2.1963  -2.1355  -2.1310  -1.8738  -1.7493  -1.5909  -0.6826
    -0.6391  -0.4598  -0.0503   0.2924   0.3171   0.3718   0.5067   0.5081
     0.6673   0.6870   0.9003   1.1566   1.2421   1.3219   1.4873   1.6611
     1.7102   1.8235   1.9405   2.1863   2.2727   2.3625   2.3724   2.6087
     2.7671   2.9739   3.0826   3.1347   3.3522   3.3906   3.5388   3.8994
     4.2678   4.5434   4.7380   4.8307   4.8877   5.0534   5.2152   5.2663
     5.3434   5.7192   5.8483   5.9788

          k = 0.0450-0.0254 0.0000 ( 30807 PWs)   bands (ev):

   -83.8139 -83.7994 -83.5143 -83.5001 -83.4888 -83.4745 -71.8258 -71.7961
   -71.7283 -71.6975 -71.6513 -71.6213 -43.2646 -43.2104 -43.1762 -43.1079
   -43.0727 -42.9779 -42.9044 -42.8916 -42.8355 -42.8075 -42.7730 -42.7459
   -42.7425 -42.7276 -42.7129 -42.6933 -42.6263 -42.6119 -36.1103 -36.0852
   -36.0616 -35.9771 -35.9444 -35.8940 -35.8523 -35.8469 -35.8062 -35.8048
   -35.7612 -35.7247 -35.6829 -35.6028 -35.5068 -35.4738 -35.4310 -35.3793
    -5.6591  -3.6892  -3.3916  -3.1304  -2.9406  -2.8791  -2.8037  -2.6469
    -2.6354  -2.1772  -2.0909  -2.0201  -1.8332  -1.5325  -1.5249  -0.6619
    -0.6567  -0.4340  -0.1329   0.1745   0.2988   0.3087   0.4656   0.6069
     0.6383   0.6725   0.9525   1.1591   1.2511   1.2703   1.4644   1.6006
     1.6893   1.8235   1.9346   2.0053   2.0967   2.2667   2.4044   2.5737
     2.6071   2.7875   3.0126   3.0301   3.1039   3.1368   3.6073   3.7732
     4.2421   4.5193   4.5573   4.6567   4.8542   5.0085   5.0576   5.1526
     5.2067   5.6116   5.6803   5.7257

          k = 0.0450-0.0082 0.0000 ( 30797 PWs)   bands (ev):

   -83.8156 -83.7978 -83.5159 -83.4985 -83.4904 -83.4729 -71.8292 -71.7927
   -71.7317 -71.6940 -71.6547 -71.6179 -43.2954 -43.2136 -43.1726 -43.1110
   -43.0689 -42.9455 -42.9344 -42.9217 -42.8389 -42.8044 -42.7757 -42.7488
   -42.7396 -42.7302 -42.7095 -42.6900 -42.5949 -42.5803 -36.1391 -36.1180
   -36.0558 -36.0294 -35.9494 -35.9054 -35.8881 -35.8547 -35.8105 -35.8003
   -35.7566 -35.7311 -35.6777 -35.5454 -35.4791 -35.4510 -35.4259 -35.3233
    -5.7807  -3.8057  -3.3023  -3.2679  -3.0944  -2.9559  -2.8175  -2.7822
    -2.6740  -2.2055  -2.1945  -2.0626  -1.8666  -1.7538  -1.5798  -0.6976
    -0.6269  -0.4597  -0.0029   0.2392   0.3621   0.4205   0.5251   0.5448
     0.7317   0.7737   1.0511   1.2669   1.2849   1.3260   1.4187   1.5148
     1.6800   1.8440   1.8475   2.0118   2.2729   2.3579   2.3860   2.6712
     2.7941   2.9202   3.0598   3.1526   3.2096   3.2626   3.6940   3.7808
     4.3154   4.6392   4.6464   4.7594   4.8544   4.9832   5.1621   5.1723
     5.3723   5.7372   5.8883   5.9266

          k = 0.0450 0.0090 0.0000 ( 30812 PWs)   bands (ev):

   -83.8166 -83.7967 -83.5169 -83.4975 -83.4914 -83.4719 -71.8313 -71.7906
   -71.7339 -71.6918 -71.6569 -71.6158 -43.3142 -43.2151 -43.1699 -43.1122
   -43.0661 -42.9528 -42.9401 -42.9249 -42.8412 -42.8025 -42.7769 -42.7500
   -42.7377 -42.7310 -42.7070 -42.6875 -42.5750 -42.5603 -36.1742 -36.1248
   -36.0631 -36.0531 -35.9518 -35.9390 -35.8846 -35.8623 -35.8154 -35.7976
   -35.7547 -35.7368 -35.6755 -35.5095 -35.4827 -35.4227 -35.4161 -35.2881
    -5.7772  -3.8020  -3.3335  -3.1894  -3.1327  -2.9342  -2.8534  -2.7624
    -2.6679  -2.2470  -2.1444  -2.0637  -1.8569  -1.7711  -1.5695  -0.7184
    -0.5900  -0.4814   0.0385   0.2487   0.3552   0.3663   0.5364   0.6845
     0.8125   0.9345   1.0838   1.1855   1.2206   1.2928   1.3950   1.5356
     1.7075   1.7677   1.8418   1.9098   2.2852   2.3694   2.4181   2.6469
     2.7067   2.7803   3.1381   3.1408   3.2538   3.2776   3.6791   3.7927
     4.2478   4.6273   4.6481   4.7489   4.8693   4.9977   5.2139   5.2194
     5.4409   5.6699   5.8337   5.8545

          k = 0.0450 0.0263 0.0000 ( 30789 PWs)   bands (ev):

   -83.8169 -83.7964 -83.5172 -83.4971 -83.4918 -83.4716 -71.8321 -71.7899
   -71.7347 -71.6911 -71.6576 -71.6151 -43.3200 -43.2148 -43.1687 -43.1114
   -43.0645 -42.9585 -42.9458 -42.9178 -42.8424 -42.8021 -42.7765 -42.7495
   -42.7369 -42.7299 -42.7058 -42.6862 -42.5681 -42.5533 -36.1880 -36.1299
   -36.0757 -36.0537 -35.9519 -35.9518 -35.8829 -35.8685 -35.8187 -35.7979
   -35.7554 -35.7412 -35.6761 -35.4976 -35.4843 -35.4217 -35.4044 -35.2763
    -5.6490  -3.6802  -3.3804  -3.0997  -2.9091  -2.8936  -2.8375  -2.6542
    -2.5965  -2.2213  -2.0276  -2.0200  -1.8299  -1.5921  -1.4589  -0.7188
    -0.5591  -0.4974  -0.0193   0.2111   0.2348   0.3584   0.5909   0.6564
     0.8646   0.9832   1.0698   1.1351   1.1776   1.2076   1.4781   1.5536
     1.6650   1.6960   1.7732   1.9597   2.1309   2.1957   2.3628   2.4989
     2.5326   2.7238   2.8967   2.9142   3.0143   3.3295   3.6063   3.7587
     4.1110   4.4452   4.5022   4.6104   4.9451   5.0112   5.1277   5.1584
     5.4223   5.5058   5.6230   5.6523

          k = 0.0450 0.0435 0.0000 ( 30763 PWs)   bands (ev):

   -83.8166 -83.7967 -83.5169 -83.4975 -83.4914 -83.4719 -71.8314 -71.7906
   -71.7340 -71.6919 -71.6569 -71.6158 -43.3124 -43.2130 -43.1689 -43.1091
   -43.0645 -42.9513 -42.9384 -42.9247 -42.8421 -42.8029 -42.7749 -42.7476
   -42.7375 -42.7274 -42.7061 -42.6864 -42.5749 -42.5601 -36.1794 -36.1323
   -36.0665 -36.0567 -35.9495 -35.9428 -35.8835 -35.8723 -35.8198 -35.8005
   -35.7583 -35.7434 -35.6789 -35.5103 -35.4837 -35.4228 -35.4165 -35.2885
    -5.4030  -3.4630  -3.3593  -2.9101  -2.8754  -2.7291  -2.6832  -2.5001
    -2.4048  -2.1269  -1.9392  -1.8306  -1.6822  -1.4376  -1.2024  -0.6988
    -0.5583  -0.5074  -0.1487   0.0803   0.0848   0.3159   0.5210   0.6323
     0.6567   0.8764   1.0596   1.1417   1.1651   1.3030   1.4033   1.5799
     1.5953   1.6416   1.7409   1.8485   1.9103   2.0918   2.2528   2.3046
     2.3505   2.5079   2.5149   2.6693   2.7208   3.3034   3.5350   3.6947
     3.9237   4.1022   4.2822   4.5035   4.6729   4.7924   5.0075   5.2636
     5.2655   5.4376   5.5260   5.5709

          k = 0.0450 0.0607 0.0000 ( 30737 PWs)   bands (ev):

   -83.8155 -83.7978 -83.5159 -83.4985 -83.4904 -83.4729 -71.8293 -71.7927
   -71.7318 -71.6941 -71.6548 -71.6179 -43.2921 -43.2099 -43.1709 -43.1055
   -43.0663 -42.9453 -42.9316 -42.9186 -42.8405 -42.8051 -42.7721 -42.7444
   -42.7394 -42.7238 -42.7080 -42.6883 -42.5948 -42.5802 -36.1485 -36.1313
   -36.0616 -36.0357 -35.9452 -35.9122 -35.8864 -35.8729 -35.8182 -35.8046
   -35.7627 -35.7429 -35.6832 -35.5464 -35.4810 -35.4514 -35.4259 -35.3237
    -5.0532  -3.3358  -3.1097  -3.0276  -2.5656  -2.5269  -2.5214  -2.2846
    -2.1218  -1.9647  -1.8094  -1.5851  -1.4292  -1.2697  -1.0540  -0.6250
    -0.5739  -0.5016  -0.3143  -0.1187  -0.0563   0.1944   0.2750   0.3678
     0.6941   0.8845   0.8891   1.0148   1.0812   1.1223   1.2620   1.3112
     1.4887   1.6563   1.6590   1.7579   1.7768   1.8422   1.9577   2.1635
     2.2315   2.3345   2.4582   2.6963   2.7303   3.1680   3.5006   3.5454
     3.5927   3.8325   4.0043   4.5030   4.5828   4.5879   4.8791   5.1163
     5.2687   5.3121   5.5481   5.5721

          k = 0.0450-0.1288 0.0000 ( 30766 PWs)   bands (ev):

   -83.8139 -83.7994 -83.5143 -83.5001 -83.4888 -83.4745 -71.8260 -71.7961
   -71.7284 -71.6975 -71.6515 -71.6213 -43.2604 -43.2058 -43.1746 -43.1011
   -43.0700 -42.9782 -42.9007 -42.8876 -42.8375 -42.8082 -42.7684 -42.7427
   -42.7404 -42.7195 -42.7117 -42.6920 -42.6266 -42.6122 -36.1266 -36.0971
   -36.0674 -35.9852 -35.9392 -35.8924 -35.8696 -35.8610 -35.8139 -35.8094
   -35.7681 -35.7392 -35.6884 -35.6028 -35.5063 -35.4763 -35.4308 -35.3790
    -4.6224  -3.2914  -3.2546  -2.7549  -2.3832  -2.3284  -2.1547  -2.0706
    -1.8450  -1.7400  -1.6422  -1.3440  -1.2015  -1.0989  -1.0184  -0.7761
    -0.5839  -0.5239  -0.4318  -0.3325  -0.0228   0.0227   0.1104   0.1621
     0.6051   0.6236   0.6867   0.7256   0.8155   0.9245   0.9387   1.1636
     1.2791   1.4070   1.5743   1.6072   1.7685   1.8902   1.9747   2.0143
     2.1338   2.3952   2.6307   2.7676   2.9632   3.1394   3.1616   3.4626
     3.5368   3.6214   4.0398   4.4543   4.5584   4.6528   4.6932   4.9736
     5.1465   5.2280   5.4914   5.5572

          k = 0.0450-0.1116 0.0000 ( 30769 PWs)   bands (ev):

   -83.8118 -83.8015 -83.5122 -83.5022 -83.4867 -83.4766 -71.8216 -71.8005
   -71.7239 -71.7020 -71.6471 -71.6257 -43.2193 -43.2011 -43.1797 -43.0963
   -43.0754 -43.0209 -42.8608 -42.8475 -42.8333 -42.8122 -42.7642 -42.7471
   -42.7359 -42.7167 -42.7149 -42.6973 -42.6679 -42.6539 -36.1185 -36.0742
   -36.0278 -35.9321 -35.9179 -35.8996 -35.8624 -35.8153 -35.8070 -35.7929
   -35.7740 -35.7325 -35.6940 -35.6750 -35.5770 -35.4701 -35.4499 -35.4371
    -4.1473  -3.6893  -3.1981  -2.4533  -2.3314  -2.1721  -1.8845  -1.7627
    -1.7094  -1.5310  -1.4823  -1.3536  -1.1195  -1.0149  -0.8504  -0.8400
    -0.7758  -0.6233  -0.5171  -0.5116  -0.1376   0.0794   0.1305   0.2089
     0.2360   0.2886   0.3020   0.4789   0.6402   0.6909   0.9987   1.0647
     1.3203   1.3983   1.4136   1.5102   1.6509   1.8272   2.0708   2.0710
     2.2599   2.2911   2.6964   2.9250   2.9655   3.1083   3.2222   3.3590
     3.6822   3.8259   4.2790   4.3104   4.5110   4.6875   4.7859   4.8717
     4.9335   5.1527   5.1894   5.3022

          k = 0.0450-0.0943 0.0000 ( 30729 PWs)   bands (ev):

   -83.8093 -83.8040 -83.5098 -83.5046 -83.4843 -83.4791 -71.8165 -71.8055
   -71.7186 -71.7073 -71.6420 -71.6308 -43.1959 -43.1861 -43.1713 -43.0914
   -43.0821 -43.0704 -42.8283 -42.8172 -42.8139 -42.8009 -42.7596 -42.7522
   -42.7314 -42.7229 -42.7157 -42.7105 -42.7037 -42.7017 -36.1076 -36.0809
   -35.9461 -35.9243 -35.9080 -35.8521 -35.8383 -35.8201 -35.7981 -35.7800
   -35.7589 -35.7224 -35.7131 -35.6994 -35.6582 -35.5319 -35.4623 -35.4443
    -4.1620  -3.6852  -3.1921  -2.4649  -2.3172  -2.1811  -1.9262  -1.7808
    -1.5849  -1.5804  -1.3688  -1.3601  -1.1862  -1.1054  -0.9810  -0.8087
    -0.7370  -0.5832  -0.4782  -0.4345  -0.1847  -0.0506  -0.0053   0.1423
     0.2118   0.2985   0.3468   0.5528   0.5827   0.6547   0.8931   1.0838
     1.2137   1.3590   1.5612   1.5839   1.6511   1.8661   2.0433   2.0489
     2.1789   2.6266   2.7608   2.7968   3.0234   3.0721   3.2197   3.8049
     3.8254   3.9666   4.0110   4.2665   4.5088   4.7527   4.7787   4.8976
     4.9212   5.0001   5.0537   5.3566

          k = 0.0450-0.0771 0.0000 ( 30701 PWs)   bands (ev):

   -83.8067 -83.8066 -83.5072 -83.5072 -83.4817 -83.4817 -71.8111 -71.8110
   -71.7130 -71.7129 -71.6364 -71.6363 -43.1928 -43.1907 -43.1232 -43.1200
   -43.0894 -43.0863 -42.8229 -42.8217 -42.7671 -42.7653 -42.7580 -42.7554
   -42.7533 -42.7496 -42.7294 -42.7259 -42.7105 -42.7056 -36.0951 -36.0878
   -35.9192 -35.9162 -35.8547 -35.8473 -35.8396 -35.8263 -35.7878 -35.7862
   -35.7507 -35.7444 -35.7118 -35.7054 -35.6251 -35.6186 -35.4540 -35.4521
    -4.6404  -3.3607  -3.1799  -2.7755  -2.3548  -2.3419  -2.1713  -2.1127
    -1.7747  -1.7228  -1.6164  -1.3999  -1.1986  -1.1225  -1.0170  -0.7957
    -0.7496  -0.5067  -0.3946  -0.3088  -0.1076  -0.0144   0.0360   0.1239
     0.4110   0.5233   0.5652   0.6908   0.7180   0.7508   1.0239   1.1247
     1.2117   1.3175   1.4207   1.8202   1.9642   1.9862   2.0286   2.0331
     2.1589   2.6094   2.9031   2.9285   3.1106   3.1726   3.3466   3.4604
     3.6190   4.1639   4.2194   4.2439   4.3341   4.6207   4.8645   4.9236
     5.0082   5.0414   5.5943   5.6634

          k = 0.0450-0.0599 0.0000 ( 30740 PWs)   bands (ev):

   -83.8093 -83.8040 -83.5098 -83.5046 -83.4843 -83.4791 -71.8164 -71.8056
   -71.7185 -71.7073 -71.6418 -71.6309 -43.1995 -43.1856 -43.1754 -43.0966
   -43.0815 -43.0682 -42.8266 -42.8206 -42.8151 -42.8042 -42.7640 -42.7504
   -42.7359 -42.7214 -42.7179 -42.7134 -42.7012 -42.6998 -36.0950 -36.0824
   -35.9343 -35.9286 -35.9083 -35.8325 -35.8321 -35.8251 -35.7926 -35.7776
   -35.7633 -35.7119 -35.7051 -35.7002 -35.6619 -35.5361 -35.4598 -35.4456
    -5.0711  -3.3635  -3.1399  -3.0002  -2.5640  -2.5453  -2.4633  -2.3786
    -2.0987  -1.9219  -1.8062  -1.6566  -1.4163  -1.2529  -1.0893  -0.6455
    -0.6016  -0.4664  -0.4364  -0.1706  -0.0418  -0.0327   0.2651   0.2716
     0.6792   0.8342   0.8371   0.8683   0.9069   0.9362   1.0115   1.2462
     1.3125   1.4822   1.7156   1.9429   2.0202   2.0405   2.1026   2.1436
     2.3839   2.4696   2.8998   3.0164   3.1366   3.1819   3.1986   3.6336
     3.7003   4.0305   4.4324   4.4497   4.5009   4.6644   4.8659   4.9079
     5.0906   5.2460   5.5720   5.6281

          k = 0.0450-0.0426 0.0000 ( 30774 PWs)   bands (ev):

   -83.8118 -83.8015 -83.5122 -83.5022 -83.4867 -83.4766 -71.8215 -71.8005
   -71.7238 -71.7020 -71.6469 -71.6258 -43.2237 -43.2056 -43.1806 -43.1030
   -43.0769 -43.0198 -42.8648 -42.8519 -42.8313 -42.8117 -42.7690 -42.7462
   -42.7415 -42.7233 -42.7169 -42.6971 -42.6669 -42.6527 -36.1025 -36.0710
   -36.0153 -35.9373 -35.9099 -35.9001 -35.8394 -35.8157 -35.7987 -35.7839
   -35.7684 -35.7182 -35.6908 -35.6772 -35.5788 -35.4678 -35.4515 -35.4377
    -5.4182  -3.4602  -3.4043  -2.9174  -2.8857  -2.7298  -2.6237  -2.5774
    -2.4093  -2.0846  -1.9356  -1.9010  -1.6793  -1.4136  -1.2440  -0.6916
    -0.6046  -0.4203  -0.3148   0.0237   0.1073   0.1502   0.4239   0.4943
     0.6427   0.7372   0.8756   1.0425   1.1068   1.1157   1.3472   1.4632
     1.6104   1.8604   1.8756   1.9842   2.0248   2.0924   2.1513   2.3227
     2.5491   2.6660   2.8092   2.9721   3.0253   3.0858   3.4171   3.8541
     3.9937   4.2578   4.5029   4.5213   4.7791   4.7954   4.9461   4.9644
     5.2127   5.3933   5.5754   5.6161

          k = 0.0600-0.0339 0.0000 ( 30743 PWs)   bands (ev):

   -83.8118 -83.8015 -83.5122 -83.5022 -83.4867 -83.4766 -71.8215 -71.8005
   -71.7238 -71.7020 -71.6470 -71.6258 -43.2228 -43.2046 -43.1804 -43.1016
   -43.0766 -43.0200 -42.8640 -42.8510 -42.8317 -42.8117 -42.7680 -42.7464
   -42.7404 -42.7216 -42.7168 -42.6971 -42.6670 -42.6529 -36.1059 -36.0718
   -36.0179 -35.9362 -35.9115 -35.9003 -35.8443 -35.8154 -35.8006 -35.7859
   -35.7695 -35.7211 -35.6913 -35.6767 -35.5783 -35.4685 -35.4510 -35.4376
    -5.2441  -3.5534  -3.3107  -2.7729  -2.7308  -2.5906  -2.5570  -2.4076
    -2.3976  -2.0659  -1.8514  -1.7760  -1.6098  -1.1685  -1.1577  -0.6574
    -0.6144  -0.4145  -0.3969  -0.1117  -0.0047   0.0260   0.3913   0.5219
     0.7588   0.7663   0.9618   1.0085   1.0340   1.1156   1.2523   1.3992
     1.5648   1.7530   1.8041   1.8659   1.9032   1.9484   2.1057   2.2506
     2.3330   2.4643   2.7375   2.7896   3.0089   3.1096   3.4614   3.7057
     3.9162   4.1269   4.2576   4.3839   4.5402   4.7232   4.8867   4.9383
     5.1635   5.1698   5.1912   5.5138

          k = 0.0600-0.0167 0.0000 ( 30774 PWs)   bands (ev):

   -83.8139 -83.7994 -83.5143 -83.5001 -83.4888 -83.4745 -71.8259 -71.7961
   -71.7283 -71.6975 -71.6514 -71.6213 -43.2632 -43.2089 -43.1757 -43.1058
   -43.0718 -42.9780 -42.9033 -42.8903 -42.8361 -42.8077 -42.7715 -42.7442
   -42.7426 -42.7251 -42.7124 -42.6929 -42.6264 -42.6120 -36.1155 -36.0892
   -36.0633 -35.9797 -35.9427 -35.8936 -35.8551 -35.8540 -35.8078 -35.8072
   -35.7634 -35.7292 -35.6846 -35.6028 -35.5066 -35.4747 -35.4309 -35.3791
    -5.4117  -3.4559  -3.4039  -2.9310  -2.8406  -2.7887  -2.5805  -2.5644
    -2.4197  -2.0822  -2.0109  -1.8294  -1.6746  -1.4213  -1.2293  -0.6679
    -0.6297  -0.4175  -0.2705   0.0156   0.1607   0.1906   0.3714   0.5902
     0.6616   0.8110   0.9587   1.1274   1.1405   1.2202   1.3563   1.5442
     1.6474   1.7246   1.8257   1.8501   2.0144   2.0679   2.2586   2.3339
     2.5192   2.5266   2.6545   2.7498   2.9042   3.1174   3.5790   3.6614
     4.0822   4.2329   4.3733   4.4004   4.6125   4.8486   4.9085   5.1491
     5.1841   5.4087   5.5415   5.6703

          k = 0.0600 0.0006 0.0000 ( 30778 PWs)   bands (ev):

   -83.8155 -83.7978 -83.5159 -83.4985 -83.4904 -83.4729 -71.8293 -71.7927
   -71.7318 -71.6940 -71.6548 -71.6179 -43.2937 -43.2118 -43.1717 -43.1083
   -43.0676 -42.9454 -42.9330 -42.9201 -42.8396 -42.8047 -42.7739 -42.7466
   -42.7395 -42.7270 -42.7087 -42.6892 -42.5949 -42.5802 -36.1438 -36.1247
   -36.0587 -36.0326 -35.9472 -35.9089 -35.8872 -35.8637 -35.8145 -35.8024
   -35.7596 -35.7369 -35.6804 -35.5459 -35.4801 -35.4512 -35.4259 -35.3235
    -5.4652  -3.5027  -3.1856  -3.1720  -2.9190  -2.7486  -2.6762  -2.5695
    -2.4213  -2.1009  -2.0381  -1.8469  -1.6134  -1.6104  -1.2499  -0.6965
    -0.5891  -0.4597  -0.1737   0.0853   0.1715   0.3420   0.4076   0.5985
     0.6273   0.9199   0.9490   1.1585   1.1734   1.2540   1.3849   1.5751
     1.6374   1.6695   1.7824   1.9163   1.9845   2.0888   2.3536   2.4120
     2.4176   2.6021   2.6356   2.7814   2.7855   3.1899   3.5882   3.6821
     4.0506   4.2100   4.3820   4.6096   4.6355   4.8384   4.9572   5.1264
     5.2667   5.4832   5.7372   5.8028

          k = 0.0600 0.0178 0.0000 ( 30763 PWs)   bands (ev):

   -83.8166 -83.7967 -83.5169 -83.4975 -83.4914 -83.4719 -71.8314 -71.7906
   -71.7340 -71.6919 -71.6569 -71.6158 -43.3124 -43.2130 -43.1689 -43.1091
   -43.0645 -42.9513 -42.9384 -42.9247 -42.8421 -42.8029 -42.7749 -42.7476
   -42.7375 -42.7274 -42.7061 -42.6864 -42.5749 -42.5601 -36.1794 -36.1323
   -36.0665 -36.0567 -35.9495 -35.9428 -35.8835 -35.8723 -35.8198 -35.8005
   -35.7583 -35.7434 -35.6789 -35.5103 -35.4837 -35.4228 -35.4165 -35.2885
    -5.4030  -3.4630  -3.3593  -2.9101  -2.8754  -2.7291  -2.6832  -2.5001
    -2.4048  -2.1269  -1.9392  -1.8306  -1.6822  -1.4376  -1.2024  -0.6988
    -0.5583  -0.5074  -0.1487   0.0803   0.0848   0.3159   0.5210   0.6323
     0.6567   0.8764   1.0596   1.1417   1.1651   1.3030   1.4033   1.5799
     1.5953   1.6416   1.7409   1.8485   1.9103   2.0918   2.2528   2.3046
     2.3505   2.5079   2.5149   2.6693   2.7208   3.3034   3.5350   3.6947
     3.9237   4.1022   4.2822   4.5035   4.6729   4.7924   5.0075   5.2636
     5.2655   5.4376   5.5260   5.5708

          k = 0.0600 0.0350 0.0000 ( 30796 PWs)   bands (ev):

   -83.8169 -83.7964 -83.5172 -83.4971 -83.4918 -83.4716 -71.8321 -71.7899
   -71.7348 -71.6911 -71.6577 -71.6150 -43.3183 -43.2128 -43.1676 -43.1084
   -43.0628 -42.9570 -42.9441 -42.9175 -42.8433 -42.8025 -42.7746 -42.7471
   -42.7367 -42.7264 -42.7048 -42.6851 -42.5680 -42.5532 -36.1931 -36.1373
   -36.0791 -36.0574 -35.9556 -35.9496 -35.8818 -35.8785 -35.8229 -35.8008
   -35.7590 -35.7478 -35.6795 -35.4985 -35.4853 -35.4218 -35.4049 -35.2768
    -5.2283  -3.5300  -3.2782  -2.7410  -2.6969  -2.6333  -2.6186  -2.4166
    -2.3088  -2.0923  -1.8025  -1.7512  -1.6313  -1.2406  -1.0584  -0.6704
    -0.5649  -0.5502  -0.1871  -0.0395  -0.0030   0.2374   0.4570   0.6520
     0.7234   0.7861   1.1189   1.1739   1.1791   1.3491   1.4150   1.4744
     1.5084   1.6145   1.7200   1.7340   1.8108   1.9597   2.1065   2.1235
     2.2884   2.3168   2.3810   2.4000   2.6847   3.3897   3.4833   3.6745
     3.7300   3.9165   4.1030   4.3087   4.4462   4.7248   4.9601   5.2227
     5.2962   5.3352   5.4300   5.4573

          k = 0.0600 0.0522 0.0000 ( 30758 PWs)   bands (ev):

   -83.8166 -83.7967 -83.5169 -83.4975 -83.4914 -83.4719 -71.8314 -71.7906
   -71.7340 -71.6919 -71.6570 -71.6157 -43.3109 -43.2113 -43.1681 -43.1064
   -43.0630 -42.9499 -42.9369 -42.9246 -42.8430 -42.8033 -42.7732 -42.7454
   -42.7373 -42.7243 -42.7053 -42.6854 -42.5748 -42.5600 -36.1838 -36.1387
   -36.0694 -36.0599 -35.9476 -35.9460 -35.8826 -35.8812 -35.8234 -35.8030
   -35.7613 -35.7493 -35.6818 -35.5110 -35.4845 -35.4229 -35.4169 -35.2889
    -4.9493  -3.6046  -3.0431  -2.6759  -2.6139  -2.4877  -2.4529  -2.2149
    -2.1191  -1.9874  -1.7018  -1.5426  -1.4803  -1.1018  -0.9564  -0.6342
    -0.5694  -0.5384  -0.2710  -0.1592  -0.1234   0.1064   0.3247   0.5175
     0.7000   0.8202   0.9955   1.0233   1.0863   1.1984   1.3258   1.3327
     1.5752   1.5890   1.6242   1.6296   1.6918   1.7864   1.8344   1.9826
     2.0974   2.2139   2.3911   2.5887   2.7018   3.3153   3.4168   3.4818
     3.6337   3.7269   3.8448   4.2580   4.3401   4.5516   4.9518   5.0933
     5.1296   5.2710   5.3389   5.4132

          k = 0.0600-0.1372 0.0000 ( 30717 PWs)   bands (ev):

   -83.8155 -83.7978 -83.5159 -83.4985 -83.4904 -83.4729 -71.8294 -71.7927
   -71.7319 -71.6941 -71.6549 -71.6179 -43.2909 -43.2086 -43.1703 -43.1034
   -43.0653 -42.9453 -42.9305 -42.9174 -42.8411 -42.8053 -42.7707 -42.7428
   -42.7393 -42.7214 -42.7075 -42.6877 -42.5948 -42.5802 -36.1519 -36.1361
   -36.0638 -36.0380 -35.9437 -35.9146 -35.8859 -35.8797 -35.8209 -35.8062
   -35.7649 -35.7473 -35.6852 -35.5468 -35.4816 -35.4516 -35.4260 -35.3239
    -4.5811  -3.6344  -2.8860  -2.7465  -2.4494  -2.3228  -2.1864  -2.0100
    -1.8594  -1.8046  -1.5737  -1.3144  -1.2601  -1.1364  -0.9158  -0.7701
    -0.5318  -0.4784  -0.4109  -0.3268  -0.0769   0.0491   0.1532   0.2979
     0.5864   0.6989   0.7282   0.7813   0.8381   0.8830   1.0898   1.1630
     1.2956   1.4613   1.4937   1.7072   1.7073   1.8091   1.8904   1.9145
     2.0883   2.3738   2.4254   2.7981   2.9089   3.1091   3.1375   3.4867
     3.4921   3.5555   3.9042   4.3725   4.4028   4.4607   4.8723   4.9729
     5.0660   5.2289   5.2628   5.3955

          k = 0.0600-0.1200 0.0000 ( 30751 PWs)   bands (ev):

   -83.8139 -83.7994 -83.5143 -83.5001 -83.4888 -83.4745 -71.8260 -71.7961
   -71.7284 -71.6975 -71.6515 -71.6213 -43.2596 -43.2050 -43.1743 -43.0998
   -43.0695 -42.9783 -42.9000 -42.8869 -42.8379 -42.8084 -42.7676 -42.7427
   -42.7394 -42.7180 -42.7115 -42.6918 -42.6267 -42.6123 -36.1296 -36.0991
   -36.0686 -35.9866 -35.9383 -35.8921 -35.8738 -35.8626 -35.8154 -35.8101
   -35.7693 -35.7419 -35.6894 -35.6028 -35.5063 -35.4767 -35.4308 -35.3789
    -4.1514  -3.6337  -3.2413  -2.4519  -2.2795  -2.2296  -1.8565  -1.8186
    -1.6614  -1.5410  -1.4302  -1.3684  -1.1261  -1.0593  -0.9244  -0.8401
    -0.6711  -0.6099  -0.4739  -0.3468  -0.0747  -0.0089   0.0742   0.1234
     0.2072   0.3360   0.4293   0.5086   0.7230   0.7702   0.9550   1.1180
     1.2343   1.3083   1.5506   1.5670   1.6721   1.8799   1.9544   2.0539
     2.1494   2.3675   2.4752   2.9336   2.9516   3.0795   3.2351   3.2906
     3.5642   3.6095   4.1952   4.4100   4.5534   4.6616   4.7057   4.8815
     5.0651   5.1045   5.2521   5.4400

          k = 0.0600-0.1028 0.0000 ( 30778 PWs)   bands (ev):

   -83.8118 -83.8015 -83.5122 -83.5022 -83.4867 -83.4766 -71.8216 -71.8005
   -71.7239 -71.7020 -71.6471 -71.6257 -43.2189 -43.2007 -43.1797 -43.0958
   -43.0753 -43.0210 -42.8605 -42.8472 -42.8335 -42.8122 -42.7638 -42.7471
   -42.7355 -42.7168 -42.7142 -42.6973 -42.6680 -42.6540 -36.1197 -36.0744
   -36.0288 -35.9317 -35.9185 -35.8995 -35.8642 -35.8153 -35.8075 -35.7936
   -35.7744 -35.7337 -35.6943 -35.6749 -35.5769 -35.4702 -35.4499 -35.4370
    -3.7604  -3.6899  -3.5574  -2.2769  -2.2571  -2.1844  -1.7136  -1.6149
    -1.5414  -1.5397  -1.3229  -1.3033  -1.2357  -1.1839  -0.9093  -0.8392
    -0.6568  -0.6544  -0.4425  -0.3942  -0.2641  -0.2048   0.0215   0.0851
     0.1245   0.2594   0.2791   0.3428   0.6044   0.7206   1.0434   1.0460
     1.2321   1.3055   1.4063   1.5576   1.8220   1.8487   1.9430   2.0702
     2.2084   2.3683   2.5804   2.9143   2.9979   3.0854   3.1667   3.5715
[...]
   -35.7613 -35.7493 -35.6818 -35.5110 -35.4845 -35.4229 -35.4169 -35.2889
    -4.9493  -3.6046  -3.0431  -2.6759  -2.6139  -2.4877  -2.4529  -2.2149
    -2.1191  -1.9874  -1.7018  -1.5426  -1.4803  -1.1018  -0.9564  -0.6342
    -0.5694  -0.5384  -0.2710  -0.1592  -0.1234   0.1064   0.3247   0.5175
     0.7000   0.8202   0.9955   1.0233   1.0863   1.1984   1.3258   1.3327
     1.5752   1.5890   1.6242   1.6296   1.6918   1.7864   1.8344   1.9826
     2.0974   2.2139   2.3911   2.5887   2.7018   3.3153   3.4168   3.4818
     3.6337   3.7269   3.8448   4.2580   4.3401   4.5516   4.9518   5.0933
     5.1296   5.2710   5.3389   5.4132

          k = 0.0750 0.0438 0.0000 ( 30740 PWs)   bands (ev):

   -83.8169 -83.7964 -83.5172 -83.4971 -83.4918 -83.4716 -71.8322 -71.7899
   -71.7348 -71.6912 -71.6577 -71.6150 -43.3170 -43.2114 -43.1669 -43.1061
   -43.0616 -42.9559 -42.9429 -42.9174 -42.8440 -42.8028 -42.7732 -42.7453
   -42.7365 -42.7237 -42.7042 -42.6842 -42.5679 -42.5531 -36.1968 -36.1426
   -36.0815 -36.0600 -35.9583 -35.9480 -35.8860 -35.8811 -35.8260 -35.8030
   -35.7615 -35.7527 -35.6820 -35.4991 -35.4859 -35.4219 -35.4052 -35.2772
    -4.7509  -3.8155  -2.9111  -2.6213  -2.3985  -2.3902  -2.3769  -2.1974
    -2.0370  -1.9560  -1.6229  -1.4314  -1.4010  -0.9827  -0.9103  -0.6727
    -0.6065  -0.4739  -0.3634  -0.1881  -0.0528  -0.0301   0.3395   0.5759
     0.6944   0.7786   0.9664   1.0181   1.0695   1.2515   1.2913   1.3723
     1.4041   1.4577   1.4869   1.5732   1.6685   1.6723   1.7970   1.8558
     1.9025   2.1610   2.4082   2.5948   2.7155   3.1989   3.4599   3.4716
     3.5116   3.6455   3.7845   3.9781   4.1783   4.3792   4.8244   4.9707
     5.0206   5.1470   5.2730   5.4320

          k = 0.0750-0.1457 0.0000 ( 30740 PWs)   bands (ev):

   -83.8165 -83.7967 -83.5169 -83.4975 -83.4914 -83.4719 -71.8315 -71.7906
   -71.7341 -71.6919 -71.6570 -71.6157 -43.3100 -43.2103 -43.1676 -43.1048
   -43.0622 -42.9492 -42.9361 -42.9245 -42.8434 -42.8036 -42.7722 -42.7442
   -42.7372 -42.7224 -42.7048 -42.6849 -42.5747 -42.5599 -36.1863 -36.1424
   -36.0712 -36.0617 -35.9479 -35.9465 -35.8864 -35.8822 -35.8255 -35.8044
   -35.7630 -35.7526 -35.6835 -35.5114 -35.4850 -35.4230 -35.4171 -35.2892
    -4.4697  -3.9596  -2.7278  -2.5682  -2.5177  -2.3016  -2.2190  -2.0036
    -1.9143  -1.8507  -1.5542  -1.3340  -1.2097  -1.0224  -0.9056  -0.7252
    -0.6827  -0.4879  -0.3372  -0.2693  -0.1302   0.1459   0.3021   0.5046
     0.5964   0.7320   0.7539   0.8103   0.8499   1.0306   1.1901   1.2561
     1.2638   1.3694   1.5178   1.5727   1.6474   1.7503   1.7633   1.7981
     2.0119   2.1997   2.4970   2.7658   2.8203   2.9674   3.2274   3.4996
     3.5367   3.5752   3.6775   4.0700   4.1813   4.3155   4.7521   4.9422
     4.9533   5.0528   5.2785   5.3851

          k = 0.0750-0.1285 0.0000 ( 30728 PWs)   bands (ev):

   -83.8155 -83.7978 -83.5159 -83.4985 -83.4904 -83.4729 -71.8294 -71.7927
   -71.7319 -71.6941 -71.6549 -71.6179 -43.2905 -43.2081 -43.1701 -43.1027
   -43.0649 -42.9453 -42.9301 -42.9170 -42.8413 -42.8054 -42.7703 -42.7422
   -42.7393 -42.7205 -42.7074 -42.6875 -42.5948 -42.5802 -36.1531 -36.1379
   -36.0646 -36.0388 -35.9432 -35.9155 -35.8857 -35.8822 -35.8218 -35.8068
   -35.7657 -35.7489 -35.6860 -35.5469 -35.4819 -35.4517 -35.4260 -35.3240
    -4.1824  -3.9773  -2.8279  -2.5408  -2.4535  -2.2386  -2.0360  -1.8379
    -1.7940  -1.6809  -1.4664  -1.2295  -1.2265  -1.0196  -0.9538  -0.8260
    -0.6623  -0.4970  -0.4326  -0.2379  -0.1615   0.1722   0.2041   0.2730
     0.3052   0.4969   0.5899   0.6692   0.7516   0.8800   0.9700   1.1285
     1.2593   1.2752   1.5788   1.6131   1.6872   1.7895   1.7976   1.9413
     2.1597   2.2968   2.4947   2.8775   2.8994   3.0126   3.1551   3.3935
     3.4291   3.5551   3.9267   4.3218   4.3625   4.3664   4.8514   4.8948
     4.9165   5.0102   5.2610   5.3226

          k = 0.0750-0.1113 0.0000 ( 30751 PWs)   bands (ev):

   -83.8139 -83.7994 -83.5143 -83.5001 -83.4888 -83.4745 -71.8260 -71.7961
   -71.7284 -71.6975 -71.6515 -71.6213 -43.2596 -43.2050 -43.1743 -43.0998
   -43.0695 -42.9783 -42.9000 -42.8869 -42.8379 -42.8084 -42.7676 -42.7427
   -42.7394 -42.7180 -42.7115 -42.6918 -42.6267 -42.6123 -36.1296 -36.0991
   -36.0686 -35.9866 -35.9383 -35.8921 -35.8738 -35.8626 -35.8154 -35.8101
   -35.7693 -35.7419 -35.6894 -35.6028 -35.5063 -35.4767 -35.4308 -35.3789
    -4.1514  -3.6337  -3.2413  -2.4519  -2.2795  -2.2296  -1.8565  -1.8186
    -1.6614  -1.5410  -1.4302  -1.3684  -1.1261  -1.0593  -0.9244  -0.8401
    -0.6711  -0.6099  -0.4739  -0.3468  -0.0747  -0.0089   0.0742   0.1234
     0.2072   0.3360   0.4293   0.5086   0.7230   0.7702   0.9550   1.1180
     1.2343   1.3083   1.5506   1.5670   1.6721   1.8799   1.9544   2.0539
     2.1494   2.3675   2.4752   2.9336   2.9516   3.0795   3.2351   3.2906
     3.5642   3.6095   4.1952   4.4100   4.5534   4.6616   4.7057   4.8814
     5.0650   5.1045   5.2521   5.4399

          k = 0.0750-0.0940 0.0000 ( 30769 PWs)   bands (ev):

   -83.8118 -83.8015 -83.5122 -83.5022 -83.4867 -83.4766 -71.8216 -71.8005
   -71.7239 -71.7020 -71.6471 -71.6257 -43.2193 -43.2011 -43.1797 -43.0963
   -43.0754 -43.0209 -42.8608 -42.8475 -42.8333 -42.8122 -42.7642 -42.7471
   -42.7359 -42.7167 -42.7149 -42.6973 -42.6679 -42.6539 -36.1185 -36.0742
   -36.0278 -35.9321 -35.9179 -35.8996 -35.8624 -35.8153 -35.8070 -35.7929
   -35.7740 -35.7325 -35.6940 -35.6750 -35.5770 -35.4701 -35.4499 -35.4371
    -4.1473  -3.6893  -3.1981  -2.4533  -2.3314  -2.1721  -1.8845  -1.7627
    -1.7094  -1.5310  -1.4823  -1.3536  -1.1195  -1.0149  -0.8504  -0.8400
    -0.7758  -0.6233  -0.5171  -0.5116  -0.1376   0.0794   0.1305   0.2089
     0.2360   0.2886   0.3020   0.4789   0.6402   0.6909   0.9987   1.0647
     1.3203   1.3983   1.4136   1.5102   1.6509   1.8272   2.0708   2.0710
     2.2599   2.2911   2.6964   2.9250   2.9655   3.1083   3.2222   3.3590
     3.6822   3.8259   4.2790   4.3104   4.5110   4.6875   4.7859   4.8717
     4.9335   5.1527   5.1894   5.3022

          k = 0.0750-0.0768 0.0000 ( 30750 PWs)   bands (ev):

   -83.8093 -83.8040 -83.5098 -83.5046 -83.4843 -83.4791 -71.8165 -71.8055
   -71.7186 -71.7073 -71.6419 -71.6308 -43.1964 -43.1861 -43.1719 -43.0923
   -43.0820 -43.0699 -42.8281 -42.8180 -42.8138 -42.8013 -42.7602 -42.7520
   -42.7321 -42.7226 -42.7157 -42.7114 -42.7033 -42.7012 -36.1059 -36.0811
   -35.9446 -35.9249 -35.9081 -35.8498 -35.8380 -35.8203 -35.7976 -35.7794
   -35.7592 -35.7211 -35.7130 -35.6985 -35.6586 -35.5324 -35.4619 -35.4445
    -4.1153  -4.1044  -2.7986  -2.5368  -2.5134  -2.1578  -2.0041  -1.8840
    -1.8357  -1.7407  -1.4208  -1.2475  -1.1426  -1.0716  -0.9281  -0.9178
    -0.7404  -0.6188  -0.4384  -0.3013  -0.2178   0.1412   0.1935   0.2596
     0.2769   0.3472   0.4427   0.6123   0.6928   0.7601   0.9737   1.0168
     1.2651   1.3607   1.4818   1.5679   1.5735   1.6674   2.0883   2.1004
     2.2203   2.5577   2.7975   2.8588   2.9826   3.1834   3.2216   3.6285
     3.7253   3.9706   4.0289   4.2513   4.2888   4.3788   4.6825   4.7124
     4.9208   4.9266   5.0637   5.1209

          k = 0.0750-0.0596 0.0000 ( 30694 PWs)   bands (ev):

   -83.8067 -83.8066 -83.5072 -83.5072 -83.4817 -83.4817 -71.8110 -71.8110
   -71.7130 -71.7129 -71.6364 -71.6363 -43.1923 -43.1912 -43.1226 -43.1210
   -43.0884 -43.0869 -42.8227 -42.8220 -42.7667 -42.7658 -42.7574 -42.7562
   -42.7524 -42.7506 -42.7285 -42.7267 -42.7091 -42.7067 -36.0933 -36.0896
   -35.9184 -35.9169 -35.8545 -35.8519 -35.8337 -35.8281 -35.7881 -35.7875
   -35.7481 -35.7450 -35.7106 -35.7074 -35.6231 -35.6199 -35.4535 -35.4525
    -4.4823  -4.0113  -2.7618  -2.6475  -2.4372  -2.1920  -2.1541  -2.1115
    -1.9548  -1.9364  -1.4559  -1.4079  -1.1689  -1.0272  -0.9917  -0.8709
    -0.6081  -0.5259  -0.3986  -0.3792  -0.1703  -0.0352   0.3770   0.3875
     0.4708   0.5352   0.6140   0.7332   0.8275   0.9433   0.9827   1.0074
     1.2482   1.3525   1.3968   1.5416   1.6969   1.7102   2.0134   2.0506
     2.2474   2.6511   2.6900   2.9784   3.1388   3.1753   3.4632   3.5001
     3.6988   3.9049   4.0094   4.1033   4.1083   4.3342   4.5023   4.5964
     4.8333   4.9113   5.0793   5.1594

          k =-0.0900 0.0508 0.0000 ( 30718 PWs)   bands (ev):

   -83.8067 -83.8067 -83.5072 -83.5072 -83.4817 -83.4817 -71.8110 -71.8110
   -71.7129 -71.7129 -71.6364 -71.6364 -43.1918 -43.1918 -43.1218 -43.1218
   -43.0876 -43.0876 -42.8224 -42.8224 -42.7663 -42.7663 -42.7569 -42.7569
   -42.7515 -42.7515 -42.7276 -42.7276 -42.7079 -42.7078 -36.0915 -36.0915
   -35.9177 -35.9177 -35.8537 -35.8537 -35.8304 -35.8304 -35.7880 -35.7880
   -35.7462 -35.7462 -35.7092 -35.7092 -35.6214 -35.6214 -35.4530 -35.4530
    -4.2847  -4.2847  -2.7182  -2.7182  -2.1851  -2.1851  -2.1463  -2.1463
    -2.0384  -2.0384  -1.4188  -1.4188  -1.0658  -1.0658  -0.9351  -0.9351
    -0.6033  -0.6033  -0.3984  -0.3984  -0.0532  -0.0532   0.4823   0.4823
     0.5387   0.5387   0.6723   0.6723   0.8988   0.8988   0.9939   0.9939
     1.3493   1.3493   1.4394   1.4394   1.5329   1.5329   2.0049   2.0049
     2.4633   2.4633   2.8379   2.8379   3.1577   3.1578   3.5183   3.5183
     3.8309   3.8309   3.9378   3.9378   4.1002   4.1002   4.4738   4.4738
     4.8022   4.8022   5.1493   5.1493

          k =-0.0900 0.0681 0.0000 ( 30745 PWs)   bands (ev):

   -83.8093 -83.8040 -83.5098 -83.5046 -83.4843 -83.4791 -71.8165 -71.8055
   -71.7186 -71.7073 -71.6419 -71.6308 -43.1973 -43.1860 -43.1728 -43.0936
   -43.0818 -43.0693 -42.8277 -42.8190 -42.8139 -42.8021 -42.7613 -42.7515
   -42.7332 -42.7222 -42.7159 -42.7125 -42.7027 -42.7005 -36.1030 -36.0815
   -35.9420 -35.9259 -35.9082 -35.8455 -35.8372 -35.8210 -35.7965 -35.7785
   -35.7598 -35.7187 -35.7123 -35.6975 -35.6593 -35.5334 -35.4613 -35.4447
    -4.4759  -4.0166  -2.7691  -2.6245  -2.4565  -2.1888  -2.1334  -2.1083
    -2.0077  -1.9085  -1.5184  -1.3624  -1.1843  -0.9677  -0.9662  -0.8691
    -0.6411  -0.5107  -0.4029  -0.3781  -0.2539   0.0087   0.3728   0.3762
     0.5366   0.6447   0.6754   0.7719   0.8416   0.9046   0.9596   1.0382
     1.3139   1.3661   1.4199   1.4713   1.5980   1.6181   2.0193   2.0421
     2.3968   2.4838   2.6472   3.0165   3.0240   3.2330   3.2768   3.5369
     3.7279   3.7616   4.0542   4.0573   4.2254   4.3756   4.5312   4.6162
     4.7891   4.9048   5.1540   5.1679

          k =-0.0900 0.0853 0.0000 ( 30753 PWs)   bands (ev):

   -83.8118 -83.8015 -83.5122 -83.5022 -83.4867 -83.4766 -71.8216 -71.8005
   -71.7239 -71.7020 -71.6471 -71.6257 -43.2202 -43.2020 -43.1799 -43.0978
   -43.0757 -43.0206 -42.8617 -42.8485 -42.8329 -42.8120 -42.7652 -42.7469
   -42.7372 -42.7168 -42.7167 -42.6972 -42.6677 -42.6536 -36.1152 -36.0736
   -36.0251 -35.9332 -35.9162 -35.8999 -35.8576 -35.8152 -35.8054 -35.7911
   -35.7727 -35.7294 -35.6932 -35.6754 -35.5773 -35.4698 -35.4500 -35.4372
    -4.5881  -3.6795  -2.8737  -2.7379  -2.4978  -2.2418  -2.1352  -2.1116
    -1.9000  -1.7636  -1.6371  -1.3458  -1.2127  -1.0595  -0.9761  -0.7390
    -0.5983  -0.5293  -0.4619  -0.4148  -0.2018   0.0314   0.2051   0.3262
     0.4750   0.6868   0.7337   0.7623   0.7657   0.8510   0.9663   1.1362
     1.2719   1.4001   1.4870   1.5357   1.6895   1.8027   2.0168   2.0768
     2.2744   2.3777   2.6684   2.8920   3.0292   3.1393   3.2903   3.3738
     3.6199   3.7131   4.0576   4.3063   4.4846   4.6053   4.7640   4.8308
     4.9349   5.1576   5.2079   5.3431

          k =-0.0900 0.1025 0.0000 ( 30766 PWs)   bands (ev):

   -83.8139 -83.7994 -83.5143 -83.5001 -83.4888 -83.4745 -71.8260 -71.7961
   -71.7284 -71.6975 -71.6515 -71.6213 -43.2604 -43.2058 -43.1746 -43.1011
   -43.0700 -42.9782 -42.9007 -42.8876 -42.8375 -42.8082 -42.7684 -42.7427
   -42.7404 -42.7195 -42.7117 -42.6920 -42.6266 -42.6122 -36.1266 -36.0971
   -36.0674 -35.9852 -35.9392 -35.8924 -35.8696 -35.8610 -35.8139 -35.8094
   -35.7681 -35.7392 -35.6884 -35.6028 -35.5063 -35.4763 -35.4308 -35.3790
    -4.6224  -3.2914  -3.2546  -2.7549  -2.3832  -2.3284  -2.1547  -2.0706
    -1.8450  -1.7400  -1.6422  -1.3440  -1.2015  -1.0989  -1.0184  -0.7761
    -0.5839  -0.5239  -0.4318  -0.3325  -0.0228   0.0227   0.1104   0.1621
     0.6051   0.6236   0.6867   0.7256   0.8155   0.9245   0.9387   1.1636
     1.2791   1.4070   1.5743   1.6072   1.7685   1.8902   1.9747   2.0143
     2.1338   2.3952   2.6307   2.7676   2.9632   3.1394   3.1616   3.4626
     3.5368   3.6214   4.0398   4.4543   4.5584   4.6528   4.6932   4.9736
     5.1465   5.2280   5.4914   5.5572

          k =-0.0900 0.1197 0.0000 ( 30717 PWs)   bands (ev):

   -83.8155 -83.7978 -83.5159 -83.4985 -83.4904 -83.4729 -71.8294 -71.7927
   -71.7319 -71.6941 -71.6549 -71.6179 -43.2909 -43.2086 -43.1703 -43.1034
   -43.0653 -42.9453 -42.9305 -42.9174 -42.8411 -42.8053 -42.7707 -42.7428
   -42.7393 -42.7214 -42.7075 -42.6877 -42.5948 -42.5802 -36.1519 -36.1361
   -36.0638 -36.0380 -35.9437 -35.9146 -35.8859 -35.8797 -35.8209 -35.8062
   -35.7649 -35.7473 -35.6852 -35.5468 -35.4816 -35.4516 -35.4260 -35.3239
    -4.5811  -3.6344  -2.8860  -2.7465  -2.4494  -2.3228  -2.1864  -2.0100
    -1.8594  -1.8046  -1.5737  -1.3144  -1.2601  -1.1364  -0.9158  -0.7701
    -0.5318  -0.4784  -0.4109  -0.3268  -0.0769   0.0491   0.1532   0.2979
     0.5864   0.6989   0.7282   0.7813   0.8381   0.8830   1.0898   1.1630
     1.2956   1.4613   1.4937   1.7072   1.7073   1.8091   1.8904   1.9145
     2.0883   2.3738   2.4254   2.7981   2.9089   3.1091   3.1375   3.4867
     3.4921   3.5555   3.9042   4.3725   4.4028   4.4607   4.8723   4.9729
     5.0660   5.2289   5.2628   5.3955

          k =-0.0900 0.1370 0.0000 ( 30740 PWs)   bands (ev):

   -83.8165 -83.7967 -83.5169 -83.4975 -83.4914 -83.4719 -71.8315 -71.7906
   -71.7341 -71.6919 -71.6570 -71.6157 -43.3100 -43.2103 -43.1676 -43.1048
   -43.0622 -42.9492 -42.9361 -42.9245 -42.8434 -42.8036 -42.7722 -42.7442
   -42.7372 -42.7224 -42.7048 -42.6849 -42.5747 -42.5599 -36.1863 -36.1424
   -36.0712 -36.0617 -35.9479 -35.9465 -35.8864 -35.8822 -35.8255 -35.8044
   -35.7630 -35.7526 -35.6835 -35.5114 -35.4850 -35.4230 -35.4171 -35.2892
    -4.4697  -3.9596  -2.7278  -2.5682  -2.5177  -2.3016  -2.2190  -2.0036
    -1.9143  -1.8507  -1.5542  -1.3340  -1.2097  -1.0224  -0.9056  -0.7252
    -0.6827  -0.4879  -0.3372  -0.2693  -0.1302   0.1459   0.3021   0.5046
     0.5964   0.7320   0.7539   0.8103   0.8499   1.0306   1.1901   1.2561
     1.2638   1.3694   1.5178   1.5727   1.6474   1.7503   1.7633   1.7981
     2.0119   2.1997   2.4970   2.7658   2.8203   2.9674   3.2274   3.4996
     3.5367   3.5752   3.6775   4.0700   4.1813   4.3155   4.7521   4.9422
     4.9533   5.0528   5.2785   5.3851

          k =-0.0900-0.0525 0.0000 ( 30786 PWs)   bands (ev):

   -83.8169 -83.7964 -83.5172 -83.4971 -83.4918 -83.4716 -71.8322 -71.7899
   -71.7348 -71.6912 -71.6577 -71.6150 -43.3165 -43.2109 -43.1666 -43.1052
   -43.0611 -42.9555 -42.9424 -42.9173 -42.8443 -42.8029 -42.7727 -42.7446
   -42.7365 -42.7228 -42.7039 -42.6839 -42.5678 -42.5530 -36.1981 -36.1446
   -36.0825 -36.0610 -35.9593 -35.9474 -35.8888 -35.8809 -35.8271 -35.8039
   -35.7624 -35.7545 -35.6829 -35.4994 -35.4861 -35.4219 -35.4053 -35.2773
    -4.3531  -4.1491  -2.7039  -2.6317  -2.3003  -2.2993  -2.2328  -2.1046
    -1.9079  -1.8715  -1.5561  -1.3461  -1.1332  -0.9565  -0.8910  -0.8061
    -0.6872  -0.5680  -0.2817  -0.2204  -0.1945   0.3335   0.3691   0.5832
     0.6285   0.6830   0.7415   0.7575   0.9355   1.1301   1.2372   1.2828
     1.3045   1.3450   1.3687   1.5505   1.6438   1.6742   1.7196   1.7577
     1.9249   2.1821   2.5717   2.6795   2.8185   2.8481   3.3292   3.4823
     3.5025   3.5569   3.7882   3.8284   4.0645   4.2267   4.6385   4.8478
     4.9735   5.0813   5.2734   5.4268

     the Fermi energy is     2.7194 ev

!    total energy              =   -2158.75569109 Ry
     estimated scf accuracy    <       0.00000669 Ry
     smearing contrib. (-TS)   =      -0.05350832 Ry
     internal energy E=F+TS    =   -2158.70218277 Ry

     The total energy is F=E-TS. E is the sum of the following terms:
     one-electron contribution =  -18070.68868590 Ry
     hartree contribution      =    9018.47778137 Ry
     xc contribution           =    -483.75350353 Ry
     ewald contribution        =    7377.26222135 Ry
     electric field correction =       0.00000394 Ry

     convergence has been achieved in  15 iterations

     negative rho (up, down):  1.987E-03 0.000E+00

     Forces acting on atoms (cartesian axes, Ry/au):

     atom    1 type  1   force =    -0.00141707   -0.00082820    0.03108155
     atom    2 type  1   force =    -0.00141855   -0.00082634    0.03107748
     atom    3 type  2   force =     0.00335037    0.00195321    0.01469669
     atom    4 type  2   force =     0.00335121    0.00195705    0.01469529
     atom    5 type  1   force =    -0.00005202   -0.00003022   -0.02088370
     atom    6 type  1   force =    -0.00005304   -0.00003271   -0.02088386
     atom    7 type  2   force =    -0.00090504   -0.00052405   -0.02704492
     atom    8 type  2   force =    -0.00090182   -0.00052971   -0.02704557
     atom    9 type  1   force =    -0.00063420   -0.00036717    0.00066150
     atom   10 type  1   force =    -0.00063031   -0.00037119    0.00066168
     atom   11 type  2   force =    -0.00034166   -0.00019788    0.00149226
     atom   12 type  2   force =    -0.00034787   -0.00020279    0.00149159

     Total force =     0.068872     Total SCF correction =     0.019156
     SCF correction compared to forces is large: reduce conv_thr to get better values

     Writing output data file ./W2Os2/W2Os2_beef.save/

     init_run     :    124.29s CPU    124.99s WALL (       1 calls)
     electrons    :   4702.37s CPU   4727.17s WALL (       1 calls)
     forces       :     77.76s CPU     78.14s WALL (       1 calls)

     Called by init_run:
     wfcinit      :    112.08s CPU    112.48s WALL (       1 calls)
     potinit      :      8.10s CPU      8.21s WALL (       1 calls)
     hinit0       :      2.00s CPU      2.02s WALL (       1 calls)

     Called by electrons:
     c_bands      :   4196.41s CPU   4213.68s WALL (      15 calls)
     sum_band     :    470.36s CPU    474.66s WALL (      15 calls)
     v_of_rho     :     25.30s CPU     26.53s WALL (      16 calls)
     newd         :     17.29s CPU     19.34s WALL (      16 calls)
     mix_rho      :      0.68s CPU      0.71s WALL (      15 calls)
     vdW_kernel   :      5.78s CPU      5.79s WALL (       1 calls)

     Called by c_bands:
     init_us_2    :     11.42s CPU     11.51s WALL (    2368 calls)
     cegterg      :   4153.27s CPU   4167.65s WALL (    1110 calls)

     Called by *egterg:
     cdiaghg      :    176.81s CPU    176.96s WALL (    5184 calls)
     h_psi        :   2241.78s CPU   2254.04s WALL (    5258 calls)
     s_psi        :    559.56s CPU    559.74s WALL (    5258 calls)
     g_psi        :      1.07s CPU      1.08s WALL (    4074 calls)

     Called by h_psi:
     h_psi:calbec :    611.44s CPU    612.66s WALL (    5258 calls)
     vloc_psi     :   1054.86s CPU   1065.59s WALL (    5258 calls)
     add_vuspsi   :    568.75s CPU    569.00s WALL (    5258 calls)

     General routines
     calbec       :    939.69s CPU    941.46s WALL (    6664 calls)
     fft          :     15.22s CPU     15.87s WALL (    1067 calls)
     ffts         :      0.06s CPU      0.06s WALL (      31 calls)
     fftw         :   1189.00s CPU   1200.65s WALL (  674844 calls)
     interpolate  :      0.27s CPU      0.28s WALL (      16 calls)

     Parallel routines
     fft_scatt_xy :     45.10s CPU     45.62s WALL (  675942 calls)
     fft_scatt_yz :    770.27s CPU    777.16s WALL (  675942 calls)

     PWSCF        :      1h26m CPU      1h28m WALL


   This run was terminated on:  17:59: 5  26Jun2022            

=------------------------------------------------------------------------------=
   JOB DONE.
=------------------------------------------------------------------------------=
