
     Program PWSCF v.6.6 starts on 26Jun2022 at 17:59:18 

     This program is part of the open-source Quantum ESPRESSO suite
     for quantum simulation of materials; please cite
         "P. Giannozzi et al., J. Phys.:Condens. Matter 21 395502 (2009);
         "P. Giannozzi et al., J. Phys.:Condens. Matter 29 465901 (2017);
          URL http://www.quantum-espresso.org", 
     in publications or presentations arising from this work. More details at
     http://www.quantum-espresso.org/quote

     Parallel version (MPI), running on    37 processors

     MPI processes distributed on     1 nodes
     R & G space division:  proc/nbgrp/npool/nimage =      37
     Fft bands division:     nmany     =       1
     Reading input from W2Pt2.in
Warning: card &CELL ignored
Warning: card / ignored

     Current dimensions of program PWSCF are:
     Max number of different atomic species (ntypx) = 10
     Max number of k-points (npk) =  40000
     Max angular momentum in pseudopotentials (lmaxx) =  3
     Presently stress not available with electric field and gates

     Message from routine cell_base_init:
     DEPRECATED: use true lattice parameter, not A to a.u. conversion factor
     Message from routine emend_upf/check:
     BEWARE !!! Possible out of bounds while fixing pseudo
     Message from routine emend_upf/check:
     BEWARE !!! Possible out of bounds while fixing pseudo
     Message from routine read_upf:
     Pseudo file W.pbe-spn-rrkjus_psl.0.2.3.UPF has been fixed on the fly.
     To avoid this message in the future, permanently fix 
     your pseudo files following these instructions: 
     https://gitlab.com/QEF/q-e/blob/master/upftools/how_to_fix_upf.md
     file Pt.pbe-n-rrkjus_psl.1.0.0.UPF: wavefunction(s)  6S renormalized

     **************************************************************************
     Initializing libbeef V0.1.2 with the BEEF-vdW functional.
     Citation: Wellendorff et al., PRB 85, 235149 (2012).
     **************************************************************************


     IMPORTANT: XC functional enforced from input :
     Exchange-correlation= BEEF-VDW
                           (   1   4  43  14   2   0   0)
     Any further DFT definition will be discarded
     Please, verify this is what you really want


     Subspace diagonalization in iterative solution of the eigenvalue problem:
     a serial algorithm will be used

     Found symmetry operation: I + (  0.5000  0.0000  0.0000)
     This is a supercell, fractional translations are disabled

     Parallelization info
     --------------------
     sticks:   dense  smooth     PW     G-vecs:    dense   smooth      PW
     Min         115      46     13                26775     6776    1057
     Max         116      47     14                26798     6789    1074
     Sum        4277    1717    499               991051   250927   39369



     bravais-lattice index     =            0
     lattice parameter (alat)  =       1.8897  a.u.
     unit-cell volume          =    4535.3875 (a.u.)^3
     number of atoms/cell      =           12
     number of atomic types    =            2
     number of electrons       =       144.00
     number of Kohn-Sham states=           86
     kinetic-energy cutoff     =      55.1240  Ry
     charge density cutoff     =     551.2396  Ry
     convergence threshold     =      1.0E-05
     mixing beta               =       0.1000
     number of iterations used =           10  plain     mixing
     Exchange-correlation= BEEF-VDW
                           (   1   4  43  14   2   0   0)

     celldm(1)=   1.889726  celldm(2)=   0.000000  celldm(3)=   0.000000
     celldm(4)=   0.000000  celldm(5)=   0.000000  celldm(6)=   0.000000

     crystal axes: (cart. coord. in units of alat)
               a(1) = (   5.488975   0.000000   0.000000 )  
               a(2) = (  -2.744488   4.981185   0.000000 )  
               a(3) = (   0.000000   0.000000  24.580684 )  

     reciprocal axes: (cart. coord. in units 2 pi/alat)
               b(1) = (  0.182183  0.100378 -0.000000 )  
               b(2) = (  0.000000  0.200755  0.000000 )  
               b(3) = (  0.000000 -0.000000  0.040682 )  


     PseudoPot. # 1 for W  read from file:
     ../pseudo/W.pbe-spn-rrkjus_psl.0.2.3.UPF
     MD5 check sum: 25b665cf2bbae626ad8d9f1bc024df95
     Pseudo is Ultrasoft + core correction, Zval = 14.0
     Generated using "atomic" code by A. Dal Corso v.5.0.2 svn rev. 10551
     Using radial grid of 1273 points,  6 beta functions with: 
                l(1) =   0
                l(2) =   0
                l(3) =   1
                l(4) =   1
                l(5) =   2
                l(6) =   2
     Q(r) pseudized with 0 coefficients 


     PseudoPot. # 2 for Pt read from file:
     ../pseudo/Pt.pbe-n-rrkjus_psl.1.0.0.UPF
     MD5 check sum: 6bc887cfe28d63a5fc1f72d35a7d3ef7
     Pseudo is Ultrasoft + core correction, Zval = 10.0
     Generated using "atomic" code by A. Dal Corso v.6.3
     Using radial grid of 1277 points,  6 beta functions with: 
                l(1) =   0
                l(2) =   0
                l(3) =   1
                l(4) =   1
                l(5) =   2
                l(6) =   2
     Q(r) pseudized with 0 coefficients 


     atomic species   valence    mass     pseudopotential
        W             14.00   183.84000     W ( 1.00)
        Pt            10.00   195.08400     Pt( 1.00)

     No symmetry found



   Cartesian axes

     site n.     atom                  positions (alat units)
         1           W   tau(   1) = (   0.0000000   0.0000000  10.0000000  )
         2           W   tau(   2) = (   2.7444875   0.0000000  10.0000000  )
         3           Pt  tau(   3) = (   1.3722438   2.4905923  10.0000000  )
         4           Pt  tau(   4) = (  -1.3722438   2.4905923  10.0000000  )
         5           W   tau(   5) = (   2.7444875   1.5121326  12.2903421  )
         6           W   tau(   6) = (   0.0000000   1.5121326  12.2903421  )
         7           Pt  tau(   7) = (  -1.3722438   4.0027250  12.2903421  )
         8           Pt  tau(   8) = (   1.3722438   4.0027250  12.2903421  )
         9           W   tau(   9) = (  -0.0000190   3.1127508  14.4874036  )
        10           W   tau(  10) = (   2.7444710   3.1127491  14.4874017  )
        11           Pt  tau(  11) = (   4.1167102   0.7216922  14.5456926  )
        12           Pt  tau(  12) = (   1.3722254   0.7216922  14.5456928  )

     number of k points=    74  Fermi-Dirac smearing, width (Ry)=  0.0100
                       cart. coord. in units 2pi/alat
        k(    1) = (   0.0000000   0.0000000   0.0000000), wk =   0.0138889
        k(    2) = (   0.0000000   0.0167296   0.0000000), wk =   0.0277778
        k(    3) = (   0.0000000   0.0334592   0.0000000), wk =   0.0277778
        k(    4) = (   0.0000000   0.0501889   0.0000000), wk =   0.0277778
        k(    5) = (   0.0000000   0.0669185   0.0000000), wk =   0.0277778
        k(    6) = (   0.0000000   0.0836481   0.0000000), wk =   0.0277778
        k(    7) = (   0.0000000  -0.1003777   0.0000000), wk =   0.0138889
        k(    8) = (   0.0151819   0.0083648   0.0000000), wk =   0.0277778
        k(    9) = (   0.0151819   0.0250944   0.0000000), wk =   0.0277778
        k(   10) = (   0.0151819   0.0418241   0.0000000), wk =   0.0277778
        k(   11) = (   0.0151819   0.0585537   0.0000000), wk =   0.0277778
        k(   12) = (   0.0151819   0.0752833   0.0000000), wk =   0.0277778
        k(   13) = (   0.0151819   0.0920129   0.0000000), wk =   0.0277778
        k(   14) = (   0.0151819  -0.0920129   0.0000000), wk =   0.0277778
        k(   15) = (   0.0151819  -0.0752833   0.0000000), wk =   0.0277778
        k(   16) = (   0.0151819  -0.0585537   0.0000000), wk =   0.0277778
        k(   17) = (   0.0151819  -0.0418240   0.0000000), wk =   0.0277778
        k(   18) = (   0.0151819  -0.0250944   0.0000000), wk =   0.0277778
        k(   19) = (   0.0151819  -0.0083648   0.0000000), wk =   0.0277778
        k(   20) = (   0.0303639   0.0167296   0.0000000), wk =   0.0277778
        k(   21) = (   0.0303639   0.0334592   0.0000000), wk =   0.0277778
        k(   22) = (   0.0303639   0.0501889   0.0000000), wk =   0.0277778
        k(   23) = (   0.0303639   0.0669185   0.0000000), wk =   0.0277778
        k(   24) = (   0.0303639   0.0836481   0.0000000), wk =   0.0277778
        k(   25) = (   0.0303639   0.1003777   0.0000000), wk =   0.0277778
        k(   26) = (   0.0303639  -0.0836481   0.0000000), wk =   0.0277778
        k(   27) = (   0.0303639  -0.0669185   0.0000000), wk =   0.0277778
        k(   28) = (   0.0303639  -0.0501889   0.0000000), wk =   0.0277778
        k(   29) = (   0.0303639  -0.0334592   0.0000000), wk =   0.0277778
        k(   30) = (   0.0303639  -0.0167296   0.0000000), wk =   0.0277778
        k(   31) = (   0.0303639   0.0000000   0.0000000), wk =   0.0277778
        k(   32) = (   0.0455458   0.0250944   0.0000000), wk =   0.0277778
        k(   33) = (   0.0455458   0.0418241   0.0000000), wk =   0.0277778
        k(   34) = (   0.0455458   0.0585537   0.0000000), wk =   0.0277778
        k(   35) = (   0.0455458   0.0752833   0.0000000), wk =   0.0277778
        k(   36) = (   0.0455458   0.0920129   0.0000000), wk =   0.0277778
        k(   37) = (   0.0455458   0.1087425   0.0000000), wk =   0.0277778
        k(   38) = (   0.0455458  -0.0752833   0.0000000), wk =   0.0277778
        k(   39) = (   0.0455458  -0.0585537   0.0000000), wk =   0.0277778
        k(   40) = (   0.0455458  -0.0418240   0.0000000), wk =   0.0277778
        k(   41) = (   0.0455458  -0.0250944   0.0000000), wk =   0.0277778
        k(   42) = (   0.0455458  -0.0083648   0.0000000), wk =   0.0277778
        k(   43) = (   0.0455458   0.0083648   0.0000000), wk =   0.0277778
        k(   44) = (   0.0607278   0.0334592   0.0000000), wk =   0.0277778
        k(   45) = (   0.0607278   0.0501889   0.0000000), wk =   0.0277778
        k(   46) = (   0.0607278   0.0669185   0.0000000), wk =   0.0277778
        k(   47) = (   0.0607278   0.0836481   0.0000000), wk =   0.0277778
        k(   48) = (   0.0607278   0.1003777   0.0000000), wk =   0.0277778
        k(   49) = (   0.0607278   0.1171073   0.0000000), wk =   0.0277778
        k(   50) = (   0.0607278  -0.0669185   0.0000000), wk =   0.0277778
        k(   51) = (   0.0607278  -0.0501889   0.0000000), wk =   0.0277778
        k(   52) = (   0.0607278  -0.0334592   0.0000000), wk =   0.0277778
        k(   53) = (   0.0607278  -0.0167296   0.0000000), wk =   0.0277778
        k(   54) = (   0.0607278   0.0000000   0.0000000), wk =   0.0277778
        k(   55) = (   0.0607278   0.0167296   0.0000000), wk =   0.0277778
        k(   56) = (   0.0759097   0.0418241   0.0000000), wk =   0.0277778
        k(   57) = (   0.0759097   0.0585537   0.0000000), wk =   0.0277778
        k(   58) = (   0.0759097   0.0752833   0.0000000), wk =   0.0277778
        k(   59) = (   0.0759097   0.0920129   0.0000000), wk =   0.0277778
        k(   60) = (   0.0759097   0.1087425   0.0000000), wk =   0.0277778
        k(   61) = (   0.0759097   0.1254722   0.0000000), wk =   0.0277778
        k(   62) = (   0.0759097  -0.0585537   0.0000000), wk =   0.0277778
        k(   63) = (   0.0759097  -0.0418240   0.0000000), wk =   0.0277778
        k(   64) = (   0.0759097  -0.0250944   0.0000000), wk =   0.0277778
        k(   65) = (   0.0759097  -0.0083648   0.0000000), wk =   0.0277778
        k(   66) = (   0.0759097   0.0083648   0.0000000), wk =   0.0277778
        k(   67) = (   0.0759097   0.0250944   0.0000000), wk =   0.0277778
        k(   68) = (  -0.0910917  -0.0501889   0.0000000), wk =   0.0138889
        k(   69) = (  -0.0910917  -0.0334592   0.0000000), wk =   0.0277778
        k(   70) = (  -0.0910917  -0.0167296   0.0000000), wk =   0.0277778
        k(   71) = (  -0.0910917  -0.0000000   0.0000000), wk =   0.0277778
        k(   72) = (  -0.0910917   0.0167296   0.0000000), wk =   0.0277778
        k(   73) = (  -0.0910917   0.0334592   0.0000000), wk =   0.0277778
        k(   74) = (  -0.0910917  -0.1505666   0.0000000), wk =   0.0138889

     Dense  grid:   991051 G-vectors     FFT dimensions: (  80,  81, 360)

     Smooth grid:   250927 G-vectors     FFT dimensions: (  50,  54, 225)

     Estimated max dynamical RAM per process >     190.64 MB

     Estimated total dynamical RAM >       6.89 GB

     Initial potential from superposition of free atoms

     starting charge  143.99564, renormalised to  144.00000

     negative rho (up, down):  1.060E-03 0.000E+00


     %%%%%%%%%%%%%%%%%%%%%%%%%%%%%%%%%%%%%%%%%%%%%%%%%%%%%%%%%%%%%%%%%%%%%%%%
     %                                                                      %
     % You are using vdW-DF, which was implemented by the Thonhauser group. %
     % Please cite the following two papers that made this development      %
     % possible and the two reviews that describe the various versions:     %
     %                                                                      %
     %   T. Thonhauser et al., PRL 115, 136402 (2015).                      %
     %   T. Thonhauser et al., PRB 76, 125112 (2007).                       %
     %   K. Berland et al., Rep. Prog. Phys. 78, 066501 (2015).             %
     %   D.C. Langreth et al., J. Phys.: Condens. Matter 21, 084203 (2009). %
     %                                                                      %
     %                                                                      %
     % If you are calculating the stress with vdW-DF, please also cite:     %
     %                                                                      %
     %   R. Sabatini et al., J. Phys.: Condens. Matter 24, 424209 (2012).   %
     %                                                                      %
     %%%%%%%%%%%%%%%%%%%%%%%%%%%%%%%%%%%%%%%%%%%%%%%%%%%%%%%%%%%%%%%%%%%%%%%%



     Adding external electric field

     Computed dipole along edir(3) : 
        Dipole               -0.0000 Ry au,         -0.0001 Debye
        Dipole field         -0.0000 Ry au, 

        Potential amp.        0.0000 Ry
        Total length         45.2895 bohr

     Starting wfcs are  132 randomized atomic wfcs

     total cpu time spent up to now is      230.3 secs

     Self-consistent Calculation

     iteration #  1     ecut=    55.12 Ry     beta= 0.10
     Davidson diagonalization with overlap
     ethr =  1.00E-02,  avg # of iterations =  2.0

     negative rho (up, down):  9.153E-04 0.000E+00

     Adding external electric field

     Computed dipole along edir(3) : 
        Dipole                0.0159 Ry au,          0.0403 Debye
        Dipole field          0.0000 Ry au, 

        Potential amp.       -0.0040 Ry
        Total length         45.2895 bohr


     total cpu time spent up to now is      424.8 secs

     total energy              =   -1351.85224927 Ry
     estimated scf accuracy    <       1.98382075 Ry

     iteration #  2     ecut=    55.12 Ry     beta= 0.10
     Davidson diagonalization with overlap
     ethr =  1.38E-03,  avg # of iterations =  2.3

     negative rho (up, down):  9.950E-04 0.000E+00

     Adding external electric field

     Computed dipole along edir(3) : 
        Dipole                0.0027 Ry au,          0.0069 Debye
        Dipole field          0.0000 Ry au, 

        Potential amp.       -0.0007 Ry
        Total length         45.2895 bohr


     total cpu time spent up to now is      626.8 secs

     total energy              =   -1351.97569400 Ry
     estimated scf accuracy    <       0.53620877 Ry

     iteration #  3     ecut=    55.12 Ry     beta= 0.10
     Davidson diagonalization with overlap
     ethr =  3.72E-04,  avg # of iterations =  4.6

     negative rho (up, down):  1.173E-03 0.000E+00

     Adding external electric field

     Computed dipole along edir(3) : 
        Dipole                0.1833 Ry au,          0.4658 Debye
        Dipole field          0.0005 Ry au, 

        Potential amp.       -0.0460 Ry
        Total length         45.2895 bohr


     total cpu time spent up to now is      883.6 secs

     total energy              =   -1352.01900450 Ry
     estimated scf accuracy    <       0.24237494 Ry

     iteration #  4     ecut=    55.12 Ry     beta= 0.10
     Davidson diagonalization with overlap
     ethr =  1.68E-04,  avg # of iterations =  2.9

     negative rho (up, down):  1.688E-03 0.000E+00

     Adding external electric field

     Computed dipole along edir(3) : 
        Dipole                0.0095 Ry au,          0.0240 Debye
        Dipole field          0.0000 Ry au, 

        Potential amp.       -0.0024 Ry
        Total length         45.2895 bohr


     total cpu time spent up to now is     1078.9 secs

     total energy              =   -1351.99862125 Ry
     estimated scf accuracy    <       0.99609113 Ry

     iteration #  5     ecut=    55.12 Ry     beta= 0.10
     Davidson diagonalization with overlap
     ethr =  1.68E-04,  avg # of iterations =  1.6

     negative rho (up, down):  5.524E-03 0.000E+00

     Adding external electric field

     Computed dipole along edir(3) : 
        Dipole                0.0139 Ry au,          0.0354 Debye
        Dipole field          0.0000 Ry au, 

        Potential amp.       -0.0035 Ry
        Total length         45.2895 bohr


     total cpu time spent up to now is     1292.7 secs

     total energy              =   -1352.00345370 Ry
     estimated scf accuracy    <       0.08335333 Ry

     iteration #  6     ecut=    55.12 Ry     beta= 0.10
     Davidson diagonalization with overlap
     ethr =  5.79E-05,  avg # of iterations =  6.5

     negative rho (up, down):  4.574E-03 0.000E+00

     Adding external electric field

     Computed dipole along edir(3) : 
        Dipole                0.0188 Ry au,          0.0478 Debye
        Dipole field          0.0001 Ry au, 

        Potential amp.       -0.0047 Ry
        Total length         45.2895 bohr


     total cpu time spent up to now is     1563.3 secs

     total energy              =   -1352.01687564 Ry
     estimated scf accuracy    <       0.01996313 Ry

     iteration #  7     ecut=    55.12 Ry     beta= 0.10
     Davidson diagonalization with overlap
     c_bands:  1 eigenvalues not converged
     c_bands:  2 eigenvalues not converged
     c_bands:  1 eigenvalues not converged
     c_bands:  1 eigenvalues not converged
     c_bands:  1 eigenvalues not converged
     c_bands:  1 eigenvalues not converged
     c_bands:  1 eigenvalues not converged
     ethr =  1.39E-05,  avg # of iterations = 10.7

     negative rho (up, down):  3.957E-03 0.000E+00

     Adding external electric field

     Computed dipole along edir(3) : 
        Dipole                0.0199 Ry au,          0.0506 Debye
        Dipole field          0.0001 Ry au, 

        Potential amp.       -0.0050 Ry
        Total length         45.2895 bohr


     total cpu time spent up to now is     1830.0 secs

     total energy              =   -1352.01891656 Ry
     estimated scf accuracy    <       0.01144698 Ry

     iteration #  8     ecut=    55.12 Ry     beta= 0.10
     Davidson diagonalization with overlap
     c_bands:  1 eigenvalues not converged
     ethr =  7.95E-06,  avg # of iterations =  3.4

     negative rho (up, down):  5.435E-03 0.000E+00

     Adding external electric field

     Computed dipole along edir(3) : 
        Dipole                0.0153 Ry au,          0.0389 Debye
        Dipole field          0.0000 Ry au, 

        Potential amp.       -0.0038 Ry
        Total length         45.2895 bohr


     total cpu time spent up to now is     2034.1 secs

     total energy              =   -1352.02056717 Ry
     estimated scf accuracy    <       0.00559214 Ry

     iteration #  9     ecut=    55.12 Ry     beta= 0.10
     Davidson diagonalization with overlap
     c_bands:  1 eigenvalues not converged
     c_bands:  1 eigenvalues not converged
     c_bands:  1 eigenvalues not converged
     ethr =  3.88E-06,  avg # of iterations =  5.3

     negative rho (up, down):  5.290E-03 0.000E+00

     Adding external electric field

     Computed dipole along edir(3) : 
        Dipole                0.0265 Ry au,          0.0673 Debye
        Dipole field          0.0001 Ry au, 

        Potential amp.       -0.0066 Ry
        Total length         45.2895 bohr


     total cpu time spent up to now is     2251.6 secs

     total energy              =   -1352.01965445 Ry
     estimated scf accuracy    <       0.00341690 Ry

     iteration # 10     ecut=    55.12 Ry     beta= 0.10
     Davidson diagonalization with overlap
     c_bands:  1 eigenvalues not converged
     c_bands:  1 eigenvalues not converged
     c_bands:  1 eigenvalues not converged
     c_bands:  1 eigenvalues not converged
     c_bands:  2 eigenvalues not converged
     c_bands:  1 eigenvalues not converged
     ethr =  2.37E-06,  avg # of iterations =  9.0

     negative rho (up, down):  5.332E-03 0.000E+00

     Adding external electric field

     Computed dipole along edir(3) : 
        Dipole                0.0211 Ry au,          0.0537 Debye
        Dipole field          0.0001 Ry au, 

        Potential amp.       -0.0053 Ry
        Total length         45.2895 bohr


     total cpu time spent up to now is     2537.3 secs

     total energy              =   -1352.02009058 Ry
     estimated scf accuracy    <       0.00406323 Ry

     iteration # 11     ecut=    55.12 Ry     beta= 0.10
     Davidson diagonalization with overlap
     c_bands:  1 eigenvalues not converged
     ethr =  2.37E-06,  avg # of iterations =  2.8

     negative rho (up, down):  4.814E-03 0.000E+00

     Adding external electric field

     Computed dipole along edir(3) : 
        Dipole                0.0216 Ry au,          0.0549 Debye
        Dipole field          0.0001 Ry au, 

        Potential amp.       -0.0054 Ry
        Total length         45.2895 bohr


     total cpu time spent up to now is     2744.3 secs

     total energy              =   -1352.02057007 Ry
     estimated scf accuracy    <       0.00016683 Ry

     iteration # 12     ecut=    55.12 Ry     beta= 0.10
     Davidson diagonalization with overlap
     c_bands:  1 eigenvalues not converged
     c_bands:  1 eigenvalues not converged
     ethr =  1.16E-07,  avg # of iterations =  6.1

     negative rho (up, down):  4.493E-03 0.000E+00

     Adding external electric field

     Computed dipole along edir(3) : 
        Dipole                0.0189 Ry au,          0.0479 Debye
        Dipole field          0.0001 Ry au, 

        Potential amp.       -0.0047 Ry
        Total length         45.2895 bohr


     total cpu time spent up to now is     3236.4 secs

     total energy              =   -1352.02060301 Ry
     estimated scf accuracy    <       0.00011714 Ry

     iteration # 13     ecut=    55.12 Ry     beta= 0.10
     Davidson diagonalization with overlap
     c_bands:  1 eigenvalues not converged
     ethr =  8.13E-08,  avg # of iterations =  2.4

     negative rho (up, down):  4.098E-03 0.000E+00

     Adding external electric field

     Computed dipole along edir(3) : 
        Dipole                0.0201 Ry au,          0.0510 Debye
        Dipole field          0.0001 Ry au, 

        Potential amp.       -0.0050 Ry
        Total length         45.2895 bohr


     total cpu time spent up to now is     3455.0 secs

     total energy              =   -1352.02061072 Ry
     estimated scf accuracy    <       0.00006656 Ry

     iteration # 14     ecut=    55.12 Ry     beta= 0.10
     Davidson diagonalization with overlap
     ethr =  4.62E-08,  avg # of iterations =  2.4

     negative rho (up, down):  1.316E-03 0.000E+00

     Adding external electric field

     Computed dipole along edir(3) : 
        Dipole                0.0126 Ry au,          0.0321 Debye
        Dipole field          0.0000 Ry au, 

        Potential amp.       -0.0032 Ry
        Total length         45.2895 bohr


     total cpu time spent up to now is     3701.7 secs

     End of self-consistent calculation

          k = 0.0000 0.0000 0.0000 ( 31411 PWs)   bands (ev):

   -73.1793 -73.1239 -73.0643 -73.0603 -73.0103 -73.0064 -37.6279 -37.4850
   -37.3850 -37.3428 -37.3325 -37.3227 -37.2433 -37.2355 -37.2037 -37.1456
   -37.1307 -37.1138 -37.0427 -36.8584 -36.7986 -36.7801 -36.5291 -36.5143
    -7.5370  -5.6055  -5.2475  -4.9684  -4.9384  -4.7703  -4.7368  -4.6224
    -4.4441  -4.1303  -4.1118  -4.0388  -3.9009  -3.8462  -3.5593  -2.7667
    -2.5424  -2.4557  -2.1811  -2.1411  -1.9809  -1.7725  -1.6272  -1.4478
    -1.3762  -1.3243  -1.1132  -0.8879  -0.8375  -0.6591  -0.6349  -0.5172
     0.0038   0.0950   0.1074   0.3306   0.3347   0.4625   0.4645   0.7534
     1.0300   1.3421   1.6321   1.6978   1.8188   2.0754   2.2279   2.2760
     2.4017   2.6943   2.7967   2.8452   3.0712   3.1852   3.2560   3.4592
     3.7395   3.7569   3.9421   4.2641   4.5463   4.6642

          k = 0.0000 0.0167 0.0000 ( 31411 PWs)   bands (ev):

   -73.1793 -73.1239 -73.0643 -73.0603 -73.0103 -73.0064 -37.6281 -37.4854
   -37.3852 -37.3429 -37.3332 -37.3229 -37.2433 -37.2352 -37.2039 -37.1456
   -37.1310 -37.1142 -37.0428 -36.8585 -36.7986 -36.7801 -36.5291 -36.5144
    -7.4770  -5.5469  -5.2038  -4.9219  -4.9201  -4.7207  -4.7067  -4.6040
    -4.3985  -4.1015  -4.1009  -4.0091  -3.8508  -3.8244  -3.4958  -2.7714
    -2.5516  -2.4318  -2.2551  -2.0452  -1.9735  -1.8488  -1.5891  -1.4328
    -1.4235  -1.3110  -1.1026  -0.8969  -0.8186  -0.6994  -0.6317  -0.5578
    -0.0115  -0.0047   0.0372   0.2948   0.3381   0.3803   0.4476   0.7187
     0.9663   1.2502   1.5724   1.5981   1.8064   1.9360   2.1652   2.2494
     2.2836   2.6022   2.6858   2.8166   2.8619   2.8792   3.4515   3.4975
     3.6511   3.8545   4.0139   4.1404   4.4524   4.5055

          k = 0.0000 0.0335 0.0000 ( 31396 PWs)   bands (ev):

   -73.1793 -73.1239 -73.0643 -73.0602 -73.0103 -73.0064 -37.6287 -37.4865
   -37.3857 -37.3433 -37.3349 -37.3235 -37.2432 -37.2345 -37.2046 -37.1454
   -37.1319 -37.1152 -37.0433 -36.8586 -36.7987 -36.7802 -36.5292 -36.5145
    -7.3004  -5.3794  -5.1061  -4.8466  -4.7864  -4.6230  -4.5776  -4.5509
    -4.2670  -4.0680  -4.0174  -3.9184  -3.7615  -3.7061  -3.3084  -2.7874
    -2.5678  -2.3833  -2.3406  -1.9957  -1.9519  -1.9185  -1.5512  -1.5451
    -1.3599  -1.2689  -1.1062  -0.9296  -0.8855  -0.7651  -0.6649  -0.5541
    -0.2853  -0.1249  -0.0280   0.1799   0.1905   0.3477   0.3766   0.5698
     0.7203   1.1215   1.2563   1.4579   1.5323   1.7042   1.7966   2.0206
     2.0848   2.2963   2.3496   2.6382   2.6953   2.8894   3.4164   3.4580
     3.6045   3.6503   3.8562   4.0822   4.1090   4.1880

          k = 0.0000 0.0502 0.0000 ( 31374 PWs)   bands (ev):

   -73.1792 -73.1239 -73.0643 -73.0602 -73.0103 -73.0064 -37.6295 -37.4879
   -37.3863 -37.3437 -37.3373 -37.3242 -37.2431 -37.2336 -37.2054 -37.1451
   -37.1332 -37.1167 -37.0439 -36.8588 -36.7989 -36.7803 -36.5293 -36.5146
    -7.0187  -5.1634  -5.0246  -4.6658  -4.5756  -4.5035  -4.4696  -4.3626
    -4.0662  -4.0087  -3.8898  -3.7606  -3.6659  -3.4858  -3.0115  -2.8141
    -2.5959  -2.4469  -2.3565  -2.1322  -1.9194  -1.8790  -1.5692  -1.5656
    -1.2909  -1.1860  -1.1453  -1.1436  -0.9942  -0.8020  -0.6878  -0.6603
    -0.4407  -0.3326  -0.0815  -0.0598   0.0553   0.2480   0.2993   0.3612
     0.3946   0.7924   0.8487   1.0897   1.0929   1.2476   1.5397   1.6562
     1.6971   2.0384   2.1682   2.4382   2.6516   2.9125   3.1583   3.2385
     3.3206   3.6218   3.6934   3.9995   4.0324   4.2703

          k = 0.0000 0.0669 0.0000 ( 31328 PWs)   bands (ev):

   -73.1792 -73.1239 -73.0643 -73.0601 -73.0103 -73.0063 -37.6304 -37.4894
   -37.3870 -37.3442 -37.3396 -37.3249 -37.2430 -37.2329 -37.2062 -37.1448
   -37.1344 -37.1182 -37.0445 -36.8591 -36.7990 -36.7805 -36.5294 -36.5147
    -6.6538  -5.1914  -4.7768  -4.4352  -4.3890  -4.3667  -4.3015  -4.1228
    -3.8980  -3.8266  -3.7574  -3.5540  -3.5205  -3.2341  -2.8324  -2.7354
    -2.6843  -2.4930  -2.3797  -2.1642  -2.0225  -1.8843  -1.6650  -1.4393
    -1.3733  -1.2410  -1.1641  -1.1489  -1.0719  -1.0652  -0.9106  -0.6082
    -0.5835  -0.3808  -0.3174  -0.0936  -0.0896  -0.0281   0.0872   0.1380
     0.3457   0.3753   0.4499   0.4548   0.6834   0.9639   1.0099   1.3250
     1.6166   1.9313   2.0948   2.2733   2.3397   2.7657   3.0249   3.1277
     3.3435   3.5434   3.8551   3.8661   4.1269   4.2641

          k = 0.0000 0.0836 0.0000 ( 31286 PWs)   bands (ev):

   -73.1792 -73.1238 -73.0643 -73.0601 -73.0103 -73.0063 -37.6309 -37.4905
   -37.3874 -37.3445 -37.3412 -37.3255 -37.2429 -37.2324 -37.2067 -37.1446
   -37.1353 -37.1193 -37.0449 -36.8592 -36.7991 -36.7805 -36.5294 -36.5148
    -6.2461  -5.4048  -4.5202  -4.3135  -4.2922  -4.2456  -4.0273  -3.9338
    -3.7015  -3.6959  -3.5888  -3.4479  -3.1961  -3.0466  -2.8678  -2.8608
    -2.7890  -2.4024  -2.3267  -2.1364  -1.9812  -1.8527  -1.7913  -1.5680
    -1.4199  -1.4078  -1.3696  -1.2092  -1.0691  -0.9724  -0.9596  -0.8004
    -0.6558  -0.5531  -0.4543  -0.2403  -0.2205  -0.1053  -0.0937   0.0063
     0.0259   0.1019   0.2098   0.3653   0.3859   0.5375   0.8470   1.0009
     1.6171   1.9033   1.9423   2.0711   2.3271   2.6957   2.8636   2.9475
     3.5411   3.5430   3.6916   3.7788   3.8170   3.9711

          k = 0.0000-0.1004 0.0000 ( 31278 PWs)   bands (ev):

   -73.1791 -73.1238 -73.0643 -73.0601 -73.0103 -73.0063 -37.6312 -37.4908
   -37.3876 -37.3446 -37.3418 -37.3257 -37.2429 -37.2322 -37.2069 -37.1446
   -37.1357 -37.1197 -37.0451 -36.8592 -36.7991 -36.7806 -36.5295 -36.5149
    -5.9512  -5.6335  -4.4165  -4.2723  -4.2557  -4.2084  -3.8627  -3.8337
    -3.7675  -3.5609  -3.4569  -3.3640  -3.0185  -3.0049  -2.9907  -2.8758
    -2.7334  -2.6545  -2.2780  -2.0452  -1.8502  -1.8286  -1.7569  -1.6057
    -1.5616  -1.5481  -1.4812  -1.1979  -0.9833  -0.9819  -0.9320  -0.8664
    -0.7816  -0.7322  -0.5355  -0.2969  -0.1908  -0.1846  -0.1415  -0.1072
    -0.0114   0.0588   0.1495   0.2361   0.3712   0.3898   0.8043   0.8613
     1.6245   1.8211   1.8981   2.0706   2.3279   2.6718   2.8028   2.8749
     3.5486   3.6218   3.6273   3.7453   3.8325   3.9081

          k = 0.0152 0.0084 0.0000 ( 31372 PWs)   bands (ev):

   -73.1784 -73.1248 -73.0634 -73.0594 -73.0112 -73.0073 -37.6146 -37.4835
   -37.3869 -37.3312 -37.3296 -37.3096 -37.2450 -37.2339 -37.2023 -37.1471
   -37.1293 -37.1155 -37.0443 -36.8571 -36.8135 -36.7814 -36.5437 -36.5289
    -7.4714  -5.5395  -5.1831  -4.9382  -4.8859  -4.7466  -4.7027  -4.5785
    -4.4136  -4.1022  -4.0839  -4.0211  -3.8519  -3.7868  -3.5187  -2.7497
    -2.5326  -2.4423  -2.2145  -2.1078  -1.9489  -1.8121  -1.6148  -1.5133
    -1.3913  -1.3720  -1.1328  -0.8910  -0.8426  -0.6941  -0.6018  -0.4722
    -0.1027   0.0398   0.1183   0.3030   0.3048   0.3521   0.4556   0.7289
     1.0290   1.3515   1.4300   1.5360   1.7825   1.9751   2.2002   2.2199
     2.3140   2.5460   2.7489   2.8119   2.8559   2.9924   3.3807   3.5616
     3.7129   3.8782   4.0205   4.1299   4.1494   4.5338

          k = 0.0152 0.0251 0.0000 ( 31375 PWs)   bands (ev):

   -73.1784 -73.1248 -73.0634 -73.0593 -73.0112 -73.0073 -37.6150 -37.4842
   -37.3873 -37.3324 -37.3298 -37.3100 -37.2449 -37.2334 -37.2028 -37.1470
   -37.1300 -37.1162 -37.0446 -36.8572 -36.8136 -36.7815 -36.5438 -36.5290
    -7.3529  -5.4249  -5.1024  -4.8609  -4.8474  -4.6595  -4.6261  -4.5419
    -4.3259  -4.0623  -4.0446  -3.9591  -3.7592  -3.7454  -3.3900  -2.7603
    -2.5496  -2.4033  -2.3005  -1.9936  -1.9333  -1.9271  -1.5710  -1.4905
    -1.4781  -1.3506  -1.1186  -0.8962  -0.8283  -0.7340  -0.6483  -0.5354
    -0.1770  -0.1264   0.0192   0.2705   0.2784   0.3142   0.3168   0.6473
     0.8982   1.2123   1.2357   1.4680   1.7289   1.7360   1.9413   2.1036
     2.1815   2.3738   2.5200   2.5425   2.8269   2.8609   3.3386   3.5454
     3.6231   3.7493   3.9361   3.9825   4.1840   4.2649

          k = 0.0152 0.0418 0.0000 ( 31367 PWs)   bands (ev):

   -73.1783 -73.1248 -73.0634 -73.0593 -73.0112 -73.0073 -37.6157 -37.4855
   -37.3878 -37.3345 -37.3302 -37.3107 -37.2448 -37.2326 -37.2035 -37.1468
   -37.1311 -37.1175 -37.0451 -36.8574 -36.8137 -36.7816 -36.5438 -36.5291
    -7.1230  -5.2160  -5.0113  -4.7275  -4.7068  -4.5518  -4.4730  -4.4386
    -4.1625  -4.0184  -3.9339  -3.8330  -3.6678  -3.5810  -3.1449  -2.7836
    -2.5738  -2.3944  -2.3619  -2.0846  -1.9252  -1.8690  -1.5794  -1.5653
    -1.4406  -1.3021  -1.1372  -0.9707  -0.9047  -0.7840  -0.6764  -0.5576
    -0.5125  -0.1911  -0.1207   0.0476   0.1909   0.2259   0.2902   0.4428
     0.6358   0.9121   0.9994   1.2635   1.3171   1.4168   1.6645   1.7451
     1.7699   2.1616   2.2163   2.5710   2.6924   2.8541   3.1366   3.3459
     3.4268   3.6246   3.7187   4.0672   4.0701   4.3014

          k = 0.0152 0.0586 0.0000 ( 31320 PWs)   bands (ev):

   -73.1783 -73.1248 -73.0634 -73.0593 -73.0112 -73.0073 -37.6165 -37.4870
   -37.3884 -37.3368 -37.3307 -37.3114 -37.2447 -37.2317 -37.2043 -37.1465
   -37.1323 -37.1190 -37.0457 -36.8576 -36.8138 -36.7817 -36.5439 -36.5292
    -6.7975  -5.0888  -4.8715  -4.5028  -4.4885  -4.4268  -4.3802  -4.2010
    -3.9456  -3.9411  -3.7873  -3.6369  -3.5661  -3.3413  -2.8528  -2.7868
    -2.6292  -2.5016  -2.3733  -2.1721  -1.9495  -1.8821  -1.6373  -1.5020
    -1.4591  -1.2520  -1.1774  -1.1077  -1.0161  -0.9026  -0.8228  -0.7107
    -0.5104  -0.3844  -0.2560  -0.1915   0.0759   0.1192   0.1854   0.2412
     0.4004   0.5389   0.6250   0.7358   0.9173   0.9892   1.2165   1.5088
     1.6477   1.9377   2.1230   2.3878   2.4567   2.7915   3.0235   3.2451
     3.3080   3.5276   3.7110   3.9275   4.0049   4.2070

          k = 0.0152 0.0753 0.0000 ( 31332 PWs)   bands (ev):

   -73.1782 -73.1248 -73.0634 -73.0592 -73.0112 -73.0072 -37.6172 -37.4882
   -37.3890 -37.3388 -37.3311 -37.3121 -37.2445 -37.2311 -37.2049 -37.1463
   -37.1334 -37.1203 -37.0462 -36.8578 -36.8139 -36.7818 -36.5440 -36.5293
    -6.4050  -5.2301  -4.5889  -4.3129  -4.3099  -4.2607  -4.2406  -3.9801
    -3.7876  -3.7200  -3.6477  -3.4616  -3.3610  -3.1067  -2.8464  -2.7739
    -2.7420  -2.3719  -2.3674  -2.1693  -2.1059  -1.8482  -1.7672  -1.5631
    -1.3986  -1.3160  -1.2661  -1.2312  -1.1457  -1.0513  -0.9200  -0.7129
    -0.6308  -0.5625  -0.4396  -0.2593  -0.2429  -0.0150   0.0810   0.1464
     0.1621   0.2551   0.2677   0.4393   0.5869   0.5978   0.9429   1.1565
     1.6487   1.8724   2.0812   2.0853   2.3452   2.7192   2.8873   3.0521
     3.4730   3.4960   3.7184   3.8096   3.8664   4.0412

          k = 0.0152 0.0920 0.0000 ( 31342 PWs)   bands (ev):

   -73.1782 -73.1248 -73.0634 -73.0592 -73.0112 -73.0072 -37.6176 -37.4890
   -37.3893 -37.3400 -37.3314 -37.3125 -37.2445 -37.2308 -37.2053 -37.1461
   -37.1340 -37.1210 -37.0465 -36.8579 -36.8140 -36.7819 -36.5440 -36.5294
    -6.0081  -5.4986  -4.3959  -4.2426  -4.2311  -4.1734  -4.0476  -3.8320
    -3.6571  -3.5761  -3.4779  -3.3631  -3.0847  -2.9898  -2.9825  -2.8917
    -2.7255  -2.5407  -2.2911  -2.1097  -1.8654  -1.8539  -1.7572  -1.7106
    -1.6195  -1.5490  -1.4085  -1.2480  -1.0183  -1.0178  -0.9544  -0.8467
    -0.7702  -0.6459  -0.6265  -0.4180  -0.3167  -0.1989  -0.0897   0.0593
     0.1040   0.1335   0.2317   0.3275   0.3572   0.4468   0.8196   0.9175
     1.6785   1.8618   1.8626   2.0707   2.3426   2.6900   2.7690   2.9160
     3.4992   3.5690   3.6856   3.7172   3.8663   3.9149

          k = 0.0152-0.0920 0.0000 ( 31342 PWs)   bands (ev):

   -73.1782 -73.1248 -73.0634 -73.0592 -73.0112 -73.0072 -37.6176 -37.4890
   -37.3893 -37.3400 -37.3314 -37.3125 -37.2445 -37.2308 -37.2053 -37.1461
   -37.1340 -37.1210 -37.0465 -36.8579 -36.8140 -36.7819 -36.5440 -36.5294
    -6.0081  -5.4986  -4.3959  -4.2426  -4.2311  -4.1734  -4.0476  -3.8320
    -3.6571  -3.5761  -3.4779  -3.3631  -3.0847  -2.9897  -2.9825  -2.8917
    -2.7255  -2.5407  -2.2911  -2.1097  -1.8654  -1.8539  -1.7572  -1.7106
    -1.6195  -1.5490  -1.4085  -1.2480  -1.0183  -1.0178  -0.9544  -0.8467
    -0.7702  -0.6459  -0.6265  -0.4180  -0.3167  -0.1989  -0.0897   0.0593
     0.1040   0.1335   0.2317   0.3275   0.3572   0.4468   0.8196   0.9175
     1.6785   1.8618   1.8626   2.0707   2.3426   2.6900   2.7690   2.9160
     3.4992   3.5691   3.6856   3.7172   3.8665   3.9150

          k = 0.0152-0.0753 0.0000 ( 31332 PWs)   bands (ev):

   -73.1782 -73.1248 -73.0634 -73.0592 -73.0112 -73.0072 -37.6172 -37.4882
   -37.3890 -37.3388 -37.3311 -37.3121 -37.2445 -37.2311 -37.2049 -37.1463
   -37.1334 -37.1203 -37.0462 -36.8578 -36.8139 -36.7818 -36.5440 -36.5293
    -6.4050  -5.2301  -4.5889  -4.3129  -4.3099  -4.2607  -4.2406  -3.9801
    -3.7876  -3.7200  -3.6477  -3.4616  -3.3610  -3.1067  -2.8464  -2.7739
    -2.7420  -2.3719  -2.3674  -2.1693  -2.1059  -1.8482  -1.7672  -1.5630
    -1.3986  -1.3160  -1.2661  -1.2312  -1.1458  -1.0513  -0.9200  -0.7129
    -0.6308  -0.5625  -0.4396  -0.2593  -0.2429  -0.0150   0.0810   0.1463
     0.1621   0.2551   0.2677   0.4393   0.5869   0.5978   0.9429   1.1566
     1.6487   1.8724   2.0812   2.0853   2.3452   2.7192   2.8873   3.0520
     3.4740   3.4960   3.7178   3.8108   3.8659   4.0412

          k = 0.0152-0.0586 0.0000 ( 31320 PWs)   bands (ev):

   -73.1783 -73.1248 -73.0634 -73.0593 -73.0112 -73.0073 -37.6165 -37.4870
   -37.3884 -37.3368 -37.3307 -37.3114 -37.2447 -37.2317 -37.2043 -37.1465
   -37.1323 -37.1190 -37.0457 -36.8576 -36.8138 -36.7817 -36.5439 -36.5292
    -6.7975  -5.0888  -4.8715  -4.5028  -4.4885  -4.4268  -4.3802  -4.2010
    -3.9456  -3.9411  -3.7873  -3.6369  -3.5661  -3.3413  -2.8528  -2.7868
    -2.6292  -2.5016  -2.3733  -2.1721  -1.9495  -1.8821  -1.6373  -1.5020
    -1.4591  -1.2520  -1.1774  -1.1078  -1.0161  -0.9026  -0.8228  -0.7107
    -0.5104  -0.3844  -0.2560  -0.1915   0.0759   0.1192   0.1854   0.2412
     0.4004   0.5389   0.6250   0.7358   0.9174   0.9892   1.2165   1.5088
     1.6477   1.9377   2.1230   2.3878   2.4567   2.7915   3.0235   3.2451
     3.3080   3.5276   3.7111   3.9275   4.0049   4.2071

          k = 0.0152-0.0418 0.0000 ( 31367 PWs)   bands (ev):

   -73.1783 -73.1248 -73.0634 -73.0593 -73.0112 -73.0073 -37.6157 -37.4855
   -37.3878 -37.3345 -37.3302 -37.3107 -37.2448 -37.2326 -37.2035 -37.1468
   -37.1311 -37.1175 -37.0451 -36.8574 -36.8137 -36.7816 -36.5438 -36.5291
    -7.1230  -5.2160  -5.0113  -4.7275  -4.7068  -4.5518  -4.4730  -4.4386
    -4.1625  -4.0184  -3.9339  -3.8330  -3.6678  -3.5810  -3.1449  -2.7836
    -2.5738  -2.3944  -2.3619  -2.0846  -1.9252  -1.8690  -1.5794  -1.5653
    -1.4406  -1.3021  -1.1372  -0.9707  -0.9047  -0.7840  -0.6764  -0.5576
    -0.5126  -0.1911  -0.1207   0.0476   0.1909   0.2259   0.2902   0.4428
     0.6358   0.9121   0.9994   1.2635   1.3171   1.4168   1.6645   1.7451
     1.7699   2.1616   2.2163   2.5710   2.6924   2.8541   3.1366   3.3459
     3.4267   3.6246   3.7187   4.0671   4.0702   4.3009

          k = 0.0152-0.0251 0.0000 ( 31375 PWs)   bands (ev):

   -73.1784 -73.1248 -73.0634 -73.0593 -73.0112 -73.0073 -37.6150 -37.4842
   -37.3873 -37.3324 -37.3298 -37.3100 -37.2449 -37.2334 -37.2028 -37.1470
   -37.1300 -37.1162 -37.0446 -36.8572 -36.8136 -36.7815 -36.5438 -36.5290
    -7.3529  -5.4249  -5.1024  -4.8609  -4.8474  -4.6595  -4.6261  -4.5419
    -4.3259  -4.0623  -4.0446  -3.9591  -3.7592  -3.7454  -3.3900  -2.7603
    -2.5496  -2.4033  -2.3005  -1.9936  -1.9333  -1.9271  -1.5710  -1.4905
    -1.4781  -1.3506  -1.1186  -0.8962  -0.8283  -0.7341  -0.6483  -0.5354
    -0.1770  -0.1264   0.0192   0.2705   0.2784   0.3142   0.3168   0.6473
     0.8982   1.2123   1.2357   1.4680   1.7289   1.7360   1.9413   2.1036
     2.1815   2.3738   2.5200   2.5425   2.8269   2.8609   3.3386   3.5455
     3.6231   3.7495   3.9361   3.9825   4.1841   4.2649

          k = 0.0152-0.0084 0.0000 ( 31372 PWs)   bands (ev):

   -73.1784 -73.1248 -73.0634 -73.0594 -73.0112 -73.0073 -37.6146 -37.4835
   -37.3869 -37.3312 -37.3296 -37.3096 -37.2450 -37.2339 -37.2023 -37.1471
   -37.1293 -37.1155 -37.0443 -36.8571 -36.8135 -36.7814 -36.5437 -36.5289
    -7.4714  -5.5395  -5.1831  -4.9382  -4.8859  -4.7466  -4.7027  -4.5785
    -4.4136  -4.1022  -4.0839  -4.0211  -3.8519  -3.7868  -3.5187  -2.7497
    -2.5326  -2.4423  -2.2145  -2.1078  -1.9489  -1.8121  -1.6148  -1.5133
    -1.3913  -1.3720  -1.1328  -0.8910  -0.8426  -0.6941  -0.6018  -0.4722
    -0.1027   0.0398   0.1183   0.3030   0.3048   0.3521   0.4556   0.7289
     1.0290   1.3515   1.4300   1.5360   1.7825   1.9751   2.2002   2.2199
     2.3140   2.5460   2.7489   2.8119   2.8559   2.9924   3.3807   3.5616
     3.7129   3.8782   4.0205   4.1299   4.1496   4.7444

          k = 0.0304 0.0167 0.0000 ( 31341 PWs)   bands (ev):

   -73.1756 -73.1276 -73.0607 -73.0567 -73.0139 -73.0100 -37.5752 -37.4789
   -37.3924 -37.3272 -37.2908 -37.2712 -37.2499 -37.2292 -37.1983 -37.1514
   -37.1253 -37.1204 -37.0491 -36.8572 -36.8533 -36.7854 -36.5864 -36.5714
    -7.2781  -5.3470  -4.9944  -4.8799  -4.7349  -4.6656  -4.6005  -4.4538
    -4.3251  -4.0213  -3.9996  -3.9590  -3.7221  -3.6141  -3.3932  -2.7036
    -2.5221  -2.3966  -2.2648  -2.0603  -1.9249  -1.8586  -1.6970  -1.5879
    -1.4938  -1.4409  -1.1807  -0.9990  -0.8731  -0.6848  -0.5286  -0.3489
    -0.3040  -0.2659   0.0672   0.0721   0.2890   0.3736   0.4167   0.6251
     0.8514   1.0194   1.1717   1.3492   1.6557   1.7208   1.9645   2.0261
     2.1758   2.3505   2.3842   2.6975   2.7077   3.0144   3.2361   3.4294
     3.5920   3.6686   3.8651   3.9542   4.2618   4.4381

          k = 0.0304 0.0335 0.0000 ( 31367 PWs)   bands (ev):

   -73.1756 -73.1276 -73.0607 -73.0566 -73.0139 -73.0100 -37.5758 -37.4799
   -37.3928 -37.3288 -37.2912 -37.2717 -37.2497 -37.2285 -37.1988 -37.1513
   -37.1262 -37.1214 -37.0494 -36.8572 -36.8534 -36.7855 -36.5865 -36.5714
    -7.1059  -5.1841  -4.8899  -4.8184  -4.6755  -4.5534  -4.4557  -4.3994
    -4.2074  -3.9702  -3.9369  -3.8579  -3.6047  -3.5596  -3.1985  -2.7239
    -2.5449  -2.3707  -2.3544  -2.0586  -1.9582  -1.8308  -1.7146  -1.5478
    -1.5352  -1.4722  -1.1687  -0.9962  -0.8874  -0.7069  -0.6515  -0.5291
    -0.4493  -0.3306   0.0331   0.0658   0.1689   0.1830   0.3578   0.4942
     0.6703   0.8487   1.0379   1.1537   1.5048   1.5199   1.6929   1.7123
     1.8509   2.1471   2.3639   2.5841   2.7037   2.7494   3.0657   3.2499
     3.4923   3.5352   3.7641   3.9931   4.0999   4.4723

          k = 0.0304 0.0502 0.0000 ( 31325 PWs)   bands (ev):

   -73.1756 -73.1276 -73.0607 -73.0566 -73.0139 -73.0100 -37.5765 -37.4812
   -37.3933 -37.3310 -37.2916 -37.2724 -37.2495 -37.2277 -37.1995 -37.1511
   -37.1273 -37.1227 -37.0499 -36.8573 -36.8536 -36.7856 -36.5865 -36.5715
    -6.8302  -4.9615  -4.8214  -4.6904  -4.5032  -4.4344  -4.3144  -4.2277
    -4.0295  -3.9185  -3.7978  -3.6944  -3.4784  -3.4096  -2.9304  -2.7480
    -2.5906  -2.4526  -2.3711  -2.1819  -1.9311  -1.8354  -1.7851  -1.5378
    -1.5209  -1.4339  -1.1970  -1.0477  -0.9386  -0.8598  -0.8420  -0.6686
    -0.5973  -0.3545  -0.1586  -0.1155   0.0210   0.0880   0.2847   0.3481
     0.4159   0.6317   0.7700   0.8760   0.9731   1.1663   1.3179   1.6438
     1.6515   1.9787   2.1375   2.4959   2.5398   2.7502   2.8417   3.2751
     3.3903   3.4897   3.6192   3.9722   4.0266   4.3292

          k = 0.0304 0.0669 0.0000 ( 31328 PWs)   bands (ev):

   -73.1755 -73.1276 -73.0607 -73.0566 -73.0139 -73.0100 -37.5773 -37.4825
   -37.3938 -37.3331 -37.2921 -37.2731 -37.2492 -37.2270 -37.2001 -37.1509
   -37.1284 -37.1240 -37.0504 -36.8574 -36.8538 -36.7857 -36.5866 -36.5716
    -6.4708  -4.9843  -4.5945  -4.5181  -4.3067  -4.2611  -4.2099  -3.9999
    -3.8204  -3.8085  -3.6256  -3.4772  -3.3896  -3.1664  -2.8639  -2.6990
    -2.6518  -2.4527  -2.4132  -2.2206  -2.0702  -1.8860  -1.8194  -1.5785
    -1.4252  -1.4246  -1.2351  -1.1761  -1.1570  -1.0474  -0.9764  -0.8291
    -0.5796  -0.4995  -0.3909  -0.3626  -0.1531   0.0537   0.0707   0.1610
     0.3204   0.3626   0.4822   0.4861   0.7147   0.8718   1.0647   1.3400
     1.6929   1.8119   2.1037   2.2240   2.4031   2.6922   2.8752   3.1826
     3.4033   3.4041   3.5985   3.8918   3.9971   4.0660

          k = 0.0304 0.0836 0.0000 ( 31335 PWs)   bands (ev):

   -73.1755 -73.1276 -73.0607 -73.0565 -73.0139 -73.0099 -37.5778 -37.4835
   -37.3942 -37.3347 -37.2924 -37.2736 -37.2490 -37.2266 -37.2006 -37.1507
   -37.1292 -37.1250 -37.0507 -36.8574 -36.8539 -36.7858 -36.5866 -36.5716
    -6.0647  -5.2136  -4.3550  -4.3401  -4.2064  -4.1206  -4.0846  -3.8144
    -3.6199  -3.5984  -3.4983  -3.3174  -3.2155  -3.0365  -2.8996  -2.8528
    -2.6817  -2.3889  -2.3716  -2.2179  -2.0690  -1.9383  -1.7805  -1.7190
    -1.5359  -1.5256  -1.4043  -1.3821  -1.1798  -1.1114  -1.0765  -0.8132
    -0.7437  -0.6166  -0.5051  -0.4690  -0.3748  -0.1990  -0.0533   0.0108
     0.0842   0.2125   0.3758   0.4553   0.6609   0.7064   0.8777   1.0463
     1.7589   1.7859   1.9951   2.0858   2.3827   2.6456   2.7962   3.0190
     3.3825   3.5091   3.5728   3.8357   3.8717   3.9028

          k = 0.0304 0.1004 0.0000 ( 31364 PWs)   bands (ev):

   -73.1755 -73.1276 -73.0607 -73.0565 -73.0139 -73.0099 -37.5780 -37.4838
   -37.3943 -37.3353 -37.2925 -37.2738 -37.2490 -37.2264 -37.2007 -37.1507
   -37.1295 -37.1254 -37.0508 -36.8574 -36.8540 -36.7858 -36.5866 -36.5717
    -5.7629  -5.4570  -4.2836  -4.2410  -4.1690  -4.0704  -4.0404  -3.7227
    -3.5536  -3.4616  -3.3944  -3.2351  -3.1535  -3.0975  -3.0080  -2.7576
    -2.6490  -2.5743  -2.3336  -2.1273  -1.9379  -1.8916  -1.8288  -1.7793
    -1.7670  -1.6026  -1.4984  -1.4507  -1.2261  -1.0881  -1.0035  -0.8446
    -0.7757  -0.6546  -0.6539  -0.5314  -0.3664  -0.3359  -0.1218  -0.0131
     0.0268   0.1134   0.3661   0.4674   0.6408   0.6743   0.8113   0.9311
     1.7850   1.8127   1.8925   2.0829   2.3829   2.6185   2.7621   2.9449
     3.3807   3.5232   3.5563   3.8014   3.8445   3.8720

          k = 0.0304-0.0836 0.0000 ( 31335 PWs)   bands (ev):

   -73.1755 -73.1276 -73.0607 -73.0565 -73.0139 -73.0099 -37.5778 -37.4835
   -37.3942 -37.3347 -37.2924 -37.2736 -37.2490 -37.2266 -37.2006 -37.1507
   -37.1292 -37.1250 -37.0507 -36.8574 -36.8539 -36.7858 -36.5866 -36.5716
    -6.0647  -5.2136  -4.3550  -4.3401  -4.2064  -4.1206  -4.0846  -3.8144
    -3.6199  -3.5984  -3.4983  -3.3174  -3.2155  -3.0365  -2.8996  -2.8528
    -2.6817  -2.3889  -2.3716  -2.2179  -2.0690  -1.9383  -1.7805  -1.7190
    -1.5359  -1.5256  -1.4043  -1.3821  -1.1798  -1.1114  -1.0765  -0.8133
    -0.7437  -0.6165  -0.5051  -0.4690  -0.3748  -0.1990  -0.0533   0.0108
     0.0842   0.2125   0.3758   0.4553   0.6609   0.7064   0.8777   1.0463
     1.7589   1.7859   1.9951   2.0858   2.3827   2.6456   2.7962   3.0190
     3.3825   3.5091   3.5728   3.8357   3.8718   3.9029

          k = 0.0304-0.0669 0.0000 ( 31328 PWs)   bands (ev):

   -73.1755 -73.1276 -73.0607 -73.0566 -73.0139 -73.0100 -37.5773 -37.4825
   -37.3938 -37.3331 -37.2921 -37.2731 -37.2492 -37.2270 -37.2001 -37.1509
   -37.1284 -37.1240 -37.0504 -36.8574 -36.8538 -36.7857 -36.5866 -36.5716
    -6.4708  -4.9843  -4.5945  -4.5181  -4.3067  -4.2611  -4.2099  -3.9999
    -3.8204  -3.8085  -3.6256  -3.4772  -3.3896  -3.1664  -2.8639  -2.6990
    -2.6518  -2.4527  -2.4132  -2.2206  -2.0702  -1.8861  -1.8194  -1.5785
    -1.4252  -1.4246  -1.2351  -1.1761  -1.1570  -1.0474  -0.9764  -0.8291
    -0.5797  -0.4995  -0.3909  -0.3626  -0.1531   0.0537   0.0707   0.1610
     0.3204   0.3626   0.4822   0.4861   0.7147   0.8718   1.0647   1.3400
     1.6929   1.8119   2.1037   2.2240   2.4031   2.6922   2.8752   3.1826
     3.4033   3.4041   3.5985   3.8918   3.9972   4.0659

          k = 0.0304-0.0502 0.0000 ( 31325 PWs)   bands (ev):

   -73.1756 -73.1276 -73.0607 -73.0566 -73.0139 -73.0100 -37.5765 -37.4812
   -37.3933 -37.3310 -37.2916 -37.2724 -37.2495 -37.2277 -37.1995 -37.1511
   -37.1273 -37.1227 -37.0499 -36.8573 -36.8536 -36.7856 -36.5865 -36.5715
    -6.8302  -4.9615  -4.8214  -4.6904  -4.5032  -4.4344  -4.3144  -4.2277
    -4.0295  -3.9185  -3.7978  -3.6944  -3.4784  -3.4096  -2.9304  -2.7480
    -2.5906  -2.4525  -2.3711  -2.1819  -1.9311  -1.8354  -1.7851  -1.5378
    -1.5209  -1.4339  -1.1970  -1.0477  -0.9387  -0.8598  -0.8420  -0.6686
    -0.5974  -0.3544  -0.1586  -0.1155   0.0210   0.0880   0.2847   0.3481
     0.4160   0.6317   0.7700   0.8760   0.9731   1.1663   1.3179   1.6438
     1.6515   1.9787   2.1375   2.4959   2.5398   2.7502   2.8417   3.2751
     3.3903   3.4897   3.6192   3.9722   4.0268   4.3296

          k = 0.0304-0.0335 0.0000 ( 31367 PWs)   bands (ev):

   -73.1756 -73.1276 -73.0607 -73.0566 -73.0139 -73.0100 -37.5758 -37.4799
   -37.3928 -37.3288 -37.2912 -37.2717 -37.2497 -37.2285 -37.1988 -37.1513
   -37.1262 -37.1214 -37.0494 -36.8572 -36.8534 -36.7855 -36.5865 -36.5714
    -7.1059  -5.1841  -4.8899  -4.8184  -4.6755  -4.5534  -4.4557  -4.3994
    -4.2074  -3.9701  -3.9369  -3.8579  -3.6047  -3.5596  -3.1985  -2.7239
    -2.5449  -2.3707  -2.3544  -2.0586  -1.9582  -1.8308  -1.7146  -1.5479
    -1.5352  -1.4722  -1.1687  -0.9962  -0.8874  -0.7069  -0.6515  -0.5291
    -0.4493  -0.3306   0.0331   0.0658   0.1689   0.1830   0.3578   0.4942
     0.6703   0.8487   1.0379   1.1537   1.5048   1.5199   1.6929   1.7123
     1.8509   2.1472   2.3639   2.5841   2.7037   2.7495   3.0658   3.2499
     3.4924   3.5352   3.7639   3.9932   4.1000   4.4710

          k = 0.0304-0.0167 0.0000 ( 31341 PWs)   bands (ev):

   -73.1756 -73.1276 -73.0607 -73.0567 -73.0139 -73.0100 -37.5752 -37.4789
   -37.3924 -37.3272 -37.2908 -37.2712 -37.2499 -37.2292 -37.1983 -37.1514
   -37.1253 -37.1204 -37.0491 -36.8571 -36.8533 -36.7854 -36.5864 -36.5714
    -7.2781  -5.3470  -4.9944  -4.8799  -4.7349  -4.6656  -4.6005  -4.4538
    -4.3251  -4.0213  -3.9996  -3.9590  -3.7221  -3.6141  -3.3932  -2.7036
    -2.5221  -2.3966  -2.2648  -2.0603  -1.9249  -1.8586  -1.6970  -1.5879
    -1.4938  -1.4409  -1.1807  -0.9990  -0.8731  -0.6848  -0.5286  -0.3489
    -0.3040  -0.2659   0.0672   0.0721   0.2891   0.3736   0.4166   0.6251
     0.8514   1.0194   1.1717   1.3492   1.6557   1.7208   1.9645   2.0261
     2.1758   2.3505   2.3842   2.6975   2.7078   3.0144   3.2361   3.4294
     3.5919   3.6690   3.8647   3.9548   4.2617   4.4381

          k = 0.0304 0.0000 0.0000 ( 31359 PWs)   bands (ev):

   -73.1756 -73.1276 -73.0607 -73.0567 -73.0139 -73.0100 -37.5750 -37.4786
   -37.3923 -37.3266 -37.2907 -37.2710 -37.2500 -37.2294 -37.1981 -37.1515
   -37.1250 -37.1201 -37.0489 -36.8571 -36.8533 -36.7854 -36.5864 -36.5714
    -7.3366  -5.4037  -5.0395  -4.8890  -4.7495  -4.7339  -4.6336  -4.4724
    -4.3673  -4.0494  -4.0096  -3.9925  -3.7602  -3.6332  -3.4632  -2.6975
    -2.5137  -2.4098  -2.1740  -2.1649  -1.8682  -1.8593  -1.7003  -1.6232
    -1.4987  -1.3736  -1.2069  -1.0049  -0.8715  -0.6920  -0.4586  -0.3359
    -0.2775  -0.1465   0.0484   0.0763   0.3419   0.3805   0.5131   0.6572
     0.9176   1.0681   1.2031   1.4614   1.6996   1.7436   2.0737   2.0952
     2.2188   2.3685   2.6501   2.6882   2.8705   2.9685   3.3183   3.6039
     3.6830   3.6939   3.9463   3.9777   4.3883   4.4437

          k = 0.0455 0.0251 0.0000 ( 31336 PWs)   bands (ev):

   -73.1712 -73.1320 -73.0564 -73.0524 -73.0183 -73.0143 -37.5122 -37.4716
   -37.4010 -37.3207 -37.2576 -37.2288 -37.2218 -37.2097 -37.1918 -37.1583
   -37.1282 -37.1189 -37.0565 -36.9260 -36.8472 -36.7918 -36.6539 -36.6385
    -6.9691  -5.0477  -4.8757  -4.6960  -4.5156  -4.5059  -4.4288  -4.2708
    -4.1890  -3.9086  -3.8580  -3.8344  -3.5428  -3.3471  -3.1784  -2.6456
    -2.5410  -2.3381  -2.3171  -2.1153  -2.0272  -1.9221  -1.7303  -1.6395
    -1.5798  -1.5122  -1.2368  -1.1670  -1.0486  -0.8090  -0.7080  -0.4869
    -0.3668  -0.1660  -0.0654  -0.0621   0.0892   0.2755   0.2984   0.4256
     0.5059   0.6759   0.9286   1.2877   1.4736   1.4831   1.6137   1.6950
     1.8889   2.1267   2.3781   2.4980   2.6004   2.9028   2.9383   3.1260
     3.2374   3.6060   3.6667   3.9440   3.9779   4.2193

          k = 0.0455 0.0418 0.0000 ( 31318 PWs)   bands (ev):

   -73.1712 -73.1320 -73.0564 -73.0524 -73.0182 -73.0143 -37.5128 -37.4726
   -37.4013 -37.3225 -37.2572 -37.2292 -37.2211 -37.2103 -37.1923 -37.1582
   -37.1292 -37.1198 -37.0568 -36.9260 -36.8474 -36.7918 -36.6539 -36.6385
    -6.7515  -4.8619  -4.8523  -4.5918  -4.4276  -4.4063  -4.2200  -4.2002
    -4.0578  -3.8277  -3.8026  -3.6949  -3.4140  -3.2893  -2.9487  -2.6746
    -2.5633  -2.4027  -2.3796  -2.2220  -1.9961  -1.9722  -1.7491  -1.6100
    -1.5378  -1.5345  -1.2332  -1.1939  -1.0734  -1.0081  -0.7360  -0.6928
    -0.4005  -0.3051  -0.1780  -0.0959  -0.0613   0.1220   0.1463   0.2213
     0.4974   0.5288   0.7290   1.0937   1.1060   1.3161   1.3436   1.5882
     1.7754   2.0048   2.1665   2.4945   2.5609   2.6272   2.7202   3.1475
     3.2576   3.5024   3.5525   3.9193   3.9315   4.1350

          k = 0.0455 0.0586 0.0000 ( 31340 PWs)   bands (ev):

   -73.1711 -73.1320 -73.0564 -73.0523 -73.0182 -73.0143 -37.5136 -37.4738
   -37.4016 -37.3246 -37.2568 -37.2296 -37.2204 -37.2110 -37.1928 -37.1580
   -37.1304 -37.1208 -37.0572 -36.9259 -36.8475 -36.7919 -36.6539 -36.6385
    -6.4408  -4.7952  -4.6905  -4.5296  -4.2835  -4.2093  -4.0986  -3.9957
    -3.8739  -3.7746  -3.6293  -3.5227  -3.2221  -3.2126  -2.8515  -2.6381
    -2.5803  -2.4725  -2.4535  -2.3064  -2.0787  -2.0312  -1.7890  -1.6081
    -1.5192  -1.4422  -1.2771  -1.2749  -1.2198  -1.1627  -0.8981  -0.7589
    -0.6496  -0.4785  -0.2803  -0.2258  -0.2012  -0.0468  -0.0352   0.0352
     0.2577   0.5431   0.5647   0.6600   0.9910   1.1209   1.1343   1.5150
     1.6800   1.7911   2.1246   2.2901   2.4934   2.6370   2.7123   3.1524
     3.3002   3.3938   3.4303   3.8932   3.9014   4.0717

          k = 0.0455 0.0753 0.0000 ( 31336 PWs)   bands (ev):

   -73.1711 -73.1320 -73.0564 -73.0523 -73.0182 -73.0143 -37.5142 -37.4748
   -37.4019 -37.3264 -37.2564 -37.2300 -37.2199 -37.2115 -37.1932 -37.1579
   -37.1314 -37.1217 -37.0575 -36.9259 -36.8477 -36.7920 -36.6539 -36.6385
    -6.0601  -4.8572  -4.7065  -4.2709  -4.1629  -3.9838  -3.9789  -3.7942
    -3.6607  -3.6535  -3.4610  -3.3288  -3.1771  -3.0408  -2.8666  -2.7980
    -2.5980  -2.5087  -2.3553  -2.3155  -2.1656  -2.0846  -1.8033  -1.6684
    -1.5816  -1.5048  -1.4147  -1.3869  -1.3009  -1.2206  -1.2001  -0.7809
    -0.7246  -0.7184  -0.4503  -0.3574  -0.2886  -0.2636  -0.1331  -0.0924
     0.0951   0.1774   0.5904   0.6799   0.9344   0.9560   1.0509   1.2044
     1.7371   1.7693   2.1217   2.1544   2.4407   2.6111   2.7649   3.0917
     3.2589   3.3331   3.4239   3.7995   3.8631   4.0124

          k = 0.0455 0.0920 0.0000 ( 31337 PWs)   bands (ev):

   -73.1711 -73.1320 -73.0564 -73.0523 -73.0182 -73.0142 -37.5145 -37.4754
   -37.4021 -37.3274 -37.2562 -37.2302 -37.2196 -37.2119 -37.1934 -37.1579
   -37.1320 -37.1222 -37.0576 -36.9259 -36.8477 -36.7920 -36.6539 -36.6385
    -5.6620  -5.1587  -4.6421  -4.0958  -4.0877  -3.8891  -3.8615  -3.6260
    -3.4797  -3.4174  -3.4066  -3.2014  -3.1774  -3.0858  -3.0227  -2.6954
    -2.5907  -2.5351  -2.4312  -2.2673  -2.0536  -2.0390  -1.8640  -1.8069
    -1.7472  -1.6992  -1.6250  -1.4470  -1.4400  -1.2908  -1.0663  -0.8574
    -0.7901  -0.6308  -0.5840  -0.4752  -0.4366  -0.3287  -0.2832  -0.0916
    -0.0399   0.0937   0.5374   0.7626   0.8199   0.9509   1.0132   1.0588
     1.7315   1.8104   2.1258   2.1365   2.4307   2.5791   2.7821   2.9847
     3.2365   3.3260   3.4500   3.6289   3.8306   3.8427

          k = 0.0455 0.1087 0.0000 ( 31337 PWs)   bands (ev):

   -73.1711 -73.1320 -73.0564 -73.0523 -73.0182 -73.0142 -37.5145 -37.4754
   -37.4021 -37.3274 -37.2562 -37.2302 -37.2196 -37.2119 -37.1934 -37.1579
   -37.1320 -37.1222 -37.0576 -36.9259 -36.8477 -36.7920 -36.6539 -36.6385
    -5.6620  -5.1587  -4.6421  -4.0958  -4.0877  -3.8891  -3.8615  -3.6260
    -3.4797  -3.4174  -3.4066  -3.2014  -3.1774  -3.0858  -3.0227  -2.6954
    -2.5907  -2.5351  -2.4312  -2.2673  -2.0536  -2.0390  -1.8640  -1.8069
    -1.7472  -1.6992  -1.6250  -1.4470  -1.4400  -1.2908  -1.0663  -0.8574
    -0.7901  -0.6308  -0.5840  -0.4752  -0.4366  -0.3287  -0.2832  -0.0916
    -0.0399   0.0937   0.5374   0.7626   0.8199   0.9509   1.0132   1.0588
     1.7315   1.8104   2.1258   2.1365   2.4306   2.5791   2.7821   2.9847
     3.2363   3.3260   3.4500   3.6289   3.8278   3.8824

          k = 0.0455-0.0753 0.0000 ( 31336 PWs)   bands (ev):

   -73.1711 -73.1320 -73.0564 -73.0523 -73.0182 -73.0143 -37.5142 -37.4748
   -37.4019 -37.3264 -37.2564 -37.2300 -37.2199 -37.2115 -37.1932 -37.1579
   -37.1314 -37.1217 -37.0575 -36.9259 -36.8477 -36.7920 -36.6539 -36.6385
    -6.0601  -4.8572  -4.7065  -4.2709  -4.1629  -3.9838  -3.9789  -3.7942
    -3.6607  -3.6535  -3.4610  -3.3288  -3.1771  -3.0408  -2.8666  -2.7981
    -2.5980  -2.5087  -2.3553  -2.3155  -2.1656  -2.0846  -1.8033  -1.6684
    -1.5816  -1.5048  -1.4147  -1.3869  -1.3009  -1.2206  -1.2001  -0.7809
    -0.7246  -0.7184  -0.4503  -0.3574  -0.2886  -0.2636  -0.1331  -0.0924
     0.0950   0.1774   0.5904   0.6799   0.9344   0.9560   1.0509   1.2044
     1.7371   1.7693   2.1217   2.1544   2.4407   2.6111   2.7649   3.0918
     3.2588   3.3331   3.4239   3.7980   3.8635   4.0097

          k = 0.0455-0.0586 0.0000 ( 31340 PWs)   bands (ev):

   -73.1711 -73.1320 -73.0564 -73.0523 -73.0182 -73.0143 -37.5136 -37.4738
   -37.4016 -37.3246 -37.2568 -37.2296 -37.2204 -37.2110 -37.1928 -37.1580
   -37.1304 -37.1208 -37.0572 -36.9259 -36.8475 -36.7919 -36.6539 -36.6385
    -6.4408  -4.7952  -4.6905  -4.5296  -4.2835  -4.2093  -4.0986  -3.9957
    -3.8739  -3.7746  -3.6293  -3.5227  -3.2221  -3.2126  -2.8515  -2.6381
    -2.5803  -2.4725  -2.4535  -2.3064  -2.0787  -2.0312  -1.7890  -1.6081
    -1.5192  -1.4422  -1.2771  -1.2749  -1.2198  -1.1627  -0.8981  -0.7589
    -0.6496  -0.4785  -0.2803  -0.2258  -0.2012  -0.0468  -0.0352   0.0352
     0.2577   0.5431   0.5648   0.6600   0.9910   1.1209   1.1343   1.5150
     1.6800   1.7911   2.1246   2.2901   2.4934   2.6370   2.7123   3.1524
     3.3002   3.3940   3.4302   3.8933   3.9009   4.0717

          k = 0.0455-0.0418 0.0000 ( 31318 PWs)   bands (ev):

   -73.1712 -73.1320 -73.0564 -73.0524 -73.0182 -73.0143 -37.5128 -37.4726
   -37.4013 -37.3225 -37.2572 -37.2292 -37.2211 -37.2103 -37.1923 -37.1582
   -37.1292 -37.1198 -37.0568 -36.9260 -36.8474 -36.7918 -36.6539 -36.6385
    -6.7515  -4.8619  -4.8523  -4.5918  -4.4276  -4.4063  -4.2199  -4.2002
    -4.0578  -3.8277  -3.8026  -3.6949  -3.4140  -3.2893  -2.9487  -2.6746
    -2.5633  -2.4027  -2.3796  -2.2220  -1.9962  -1.9722  -1.7491  -1.6100
    -1.5378  -1.5345  -1.2332  -1.1939  -1.0734  -1.0081  -0.7360  -0.6928
    -0.4005  -0.3051  -0.1780  -0.0959  -0.0613   0.1220   0.1463   0.2213
     0.4974   0.5288   0.7290   1.0937   1.1060   1.3161   1.3436   1.5882
     1.7754   2.0048   2.1665   2.4945   2.5608   2.6272   2.7202   3.1475
     3.2576   3.5025   3.5525   3.9193   3.9319   4.1350

          k = 0.0455-0.0251 0.0000 ( 31336 PWs)   bands (ev):

   -73.1712 -73.1320 -73.0564 -73.0524 -73.0183 -73.0143 -37.5122 -37.4716
   -37.4010 -37.3207 -37.2576 -37.2288 -37.2218 -37.2097 -37.1918 -37.1583
   -37.1282 -37.1189 -37.0565 -36.9260 -36.8472 -36.7918 -36.6539 -36.6385
    -6.9691  -5.0477  -4.8757  -4.6960  -4.5156  -4.5059  -4.4288  -4.2708
    -4.1890  -3.9086  -3.8580  -3.8344  -3.5428  -3.3471  -3.1784  -2.6456
    -2.5410  -2.3381  -2.3171  -2.1153  -2.0272  -1.9222  -1.7303  -1.6394
    -1.5798  -1.5122  -1.2368  -1.1670  -1.0486  -0.8090  -0.7080  -0.4869
    -0.3668  -0.1660  -0.0654  -0.0621   0.0892   0.2755   0.2984   0.4256
     0.5059   0.6759   0.9286   1.2877   1.4736   1.4831   1.6137   1.6950
     1.8889   2.1267   2.3781   2.4980   2.6003   2.9028   2.9383   3.1260
     3.2374   3.6059   3.6666   3.9439   3.9778   4.2191

          k = 0.0455-0.0084 0.0000 ( 31334 PWs)   bands (ev):

   -73.1712 -73.1320 -73.0564 -73.0524 -73.0183 -73.0143 -37.5119 -37.4710
   -37.4008 -37.3196 -37.2578 -37.2286 -37.2222 -37.2094 -37.1915 -37.1584
   -37.1276 -37.1184 -37.0564 -36.9260 -36.8472 -36.7917 -36.6539 -36.6385
    -7.0807  -5.1521  -4.8273  -4.7836  -4.6666  -4.5254  -4.5031  -4.3060
    -4.2627  -3.9541  -3.9126  -3.8733  -3.5964  -3.3792  -3.3258  -2.6277
    -2.5391  -2.3152  -2.2288  -2.1261  -2.0428  -1.8921  -1.7405  -1.6524
    -1.6229  -1.4137  -1.2813  -1.1658  -1.0451  -0.6961  -0.6944  -0.4004
    -0.3198  -0.0827  -0.0485  -0.0377   0.1879   0.3403   0.3819   0.4788
     0.5968   0.7502   1.0954   1.4050   1.5007   1.5706   1.7281   1.8687
     2.0843   2.2375   2.3478   2.5395   2.8202   3.0253   3.1333   3.1731
     3.5437   3.6731   3.7662   3.9611   4.0631   4.2336

          k = 0.0455 0.0084 0.0000 ( 31334 PWs)   bands (ev):

   -73.1712 -73.1320 -73.0564 -73.0524 -73.0183 -73.0143 -37.5119 -37.4710
   -37.4008 -37.3196 -37.2578 -37.2286 -37.2222 -37.2094 -37.1915 -37.1584
   -37.1276 -37.1184 -37.0564 -36.9260 -36.8472 -36.7917 -36.6539 -36.6385
    -7.0807  -5.1521  -4.8273  -4.7836  -4.6666  -4.5254  -4.5030  -4.3060
    -4.2627  -3.9541  -3.9126  -3.8733  -3.5964  -3.3792  -3.3258  -2.6277
    -2.5391  -2.3152  -2.2288  -2.1261  -2.0428  -1.8921  -1.7405  -1.6524
    -1.6229  -1.4137  -1.2813  -1.1658  -1.0451  -0.6961  -0.6944  -0.4004
    -0.3198  -0.0827  -0.0485  -0.0377   0.1879   0.3403   0.3819   0.4788
     0.5968   0.7502   1.0954   1.4050   1.5007   1.5706   1.7281   1.8687
     2.0843   2.2375   2.3478   2.5395   2.8202   3.0254   3.1332   3.1731
     3.5437   3.6731   3.7662   3.9609   4.0630   4.2318

          k = 0.0607 0.0335 0.0000 ( 31329 PWs)   bands (ev):

   -73.1655 -73.1378 -73.0509 -73.0468 -73.0239 -73.0199 -37.4618 -37.4294
   -37.4119 -37.3121 -37.2675 -37.2123 -37.1831 -37.1674 -37.1474 -37.1382
   -37.1286 -37.1105 -37.0661 -37.0145 -36.8393 -36.8000 -36.7409 -36.7250
    -6.5660  -4.9867  -4.6869  -4.3457  -4.3234  -4.2340  -4.1941  -4.0680
    -4.0269  -3.7914  -3.6632  -3.6500  -3.3378  -3.0357  -2.9064  -2.6095
    -2.5922  -2.3719  -2.3687  -2.3364  -2.1025  -2.0638  -1.7190  -1.6628
    -1.6229  -1.5102  -1.3423  -1.2939  -1.2741  -1.2480  -0.9421  -0.6066
    -0.5144  -0.3837  -0.3233  -0.1871  -0.1654  -0.0058   0.2313   0.3386
     0.4912   0.6836   0.8033   1.0645   1.2266   1.2863   1.4173   1.5334
     1.8162   2.0016   2.1964   2.2677   2.4687   2.6776   2.7150   2.8725
     3.0389   3.2850   3.4453   3.6399   3.8132   4.0040

          k = 0.0607 0.0502 0.0000 ( 31345 PWs)   bands (ev):

   -73.1655 -73.1378 -73.0509 -73.0468 -73.0239 -73.0199 -37.4628 -37.4300
   -37.4120 -37.3139 -37.2668 -37.2117 -37.1834 -37.1674 -37.1478 -37.1391
   -37.1292 -37.1113 -37.0662 -37.0144 -36.8394 -36.8000 -36.7408 -36.7249
    -6.3171  -5.0424  -4.4947  -4.2797  -4.2527  -4.1238  -3.9929  -3.9772
    -3.8950  -3.6619  -3.6395  -3.5052  -3.2063  -2.9978  -2.8045  -2.6315
    -2.5122  -2.4773  -2.4584  -2.4229  -2.1931  -2.0682  -1.7532  -1.6784
    -1.5990  -1.4467  -1.4032  -1.3622  -1.3426  -1.2508  -0.9662  -0.7427
    -0.7158  -0.5364  -0.4020  -0.3160  -0.2534  -0.0849  -0.0238   0.1923
     0.3412   0.6167   0.6335   0.8681   1.1179   1.2249   1.3063   1.6516
     1.6636   1.7961   2.1266   2.2770   2.4173   2.5566   2.6393   2.8741
     3.0196   3.1820   3.4398   3.5587   3.7542   3.9789

          k = 0.0607 0.0669 0.0000 ( 31338 PWs)   bands (ev):

   -73.1654 -73.1378 -73.0509 -73.0468 -73.0239 -73.0199 -37.4637 -37.4306
   -37.4121 -37.3156 -37.2661 -37.2111 -37.1836 -37.1675 -37.1481 -37.1400
   -37.1297 -37.1121 -37.0664 -37.0143 -36.8395 -36.8001 -36.7407 -36.7248
    -5.9871  -5.0570  -4.4778  -4.2099  -4.1392  -3.8962  -3.8836  -3.7967
    -3.7288  -3.5933  -3.4772  -3.3649  -3.0460  -2.9853  -2.8412  -2.7153
    -2.5858  -2.5630  -2.4901  -2.3168  -2.2131  -2.1242  -1.8396  -1.6964
    -1.6529  -1.5381  -1.4962  -1.4408  -1.3688  -1.2449  -1.0184  -0.9566
    -0.8843  -0.6930  -0.4941  -0.4737  -0.4461  -0.1173  -0.1019   0.1195
     0.1859   0.2565   0.7635   0.8305   0.9516   1.2240   1.3437   1.3539
     1.7493   1.7554   2.1493   2.2256   2.4702   2.5429   2.6155   2.8952
     3.0054   3.1051   3.4551   3.4822   3.7023   3.9235

          k = 0.0607 0.0836 0.0000 ( 31319 PWs)   bands (ev):

   -73.1654 -73.1378 -73.0508 -73.0467 -73.0239 -73.0198 -37.4644 -37.4310
   -37.4122 -37.3169 -37.2656 -37.2108 -37.1838 -37.1676 -37.1483 -37.1406
   -37.1302 -37.1127 -37.0665 -37.0142 -36.8396 -36.8001 -36.7407 -36.7247
    -5.6025  -5.0513  -4.7535  -4.0383  -4.0117  -3.7762  -3.6969  -3.6176
    -3.5622  -3.4859  -3.3764  -3.2532  -3.0674  -3.0422  -2.8293  -2.6956
    -2.6720  -2.6286  -2.4612  -2.3063  -2.1656  -2.1184  -1.9101  -1.8726
    -1.7600  -1.7094  -1.7092  -1.4747  -1.3415  -1.2261  -1.1818  -1.0078
    -0.9854  -0.7843  -0.6260  -0.5022  -0.4426  -0.2208  -0.1863   0.0441
     0.1227   0.1501   0.7289   0.8288   0.9588   1.1264   1.2088   1.4623
     1.7392   1.7877   2.1834   2.3224   2.4352   2.6022   2.6999   2.9103
     2.9158   3.0947   3.4056   3.4796   3.6190   3.8804

          k = 0.0607 0.1004 0.0000 ( 31328 PWs)   bands (ev):

   -73.1654 -73.1378 -73.0509 -73.0467 -73.0239 -73.0198 -37.4647 -37.4311
   -37.4122 -37.3173 -37.2655 -37.2107 -37.1838 -37.1676 -37.1483 -37.1408
   -37.1303 -37.1129 -37.0665 -37.0142 -36.8396 -36.8001 -36.7407 -36.7247
    -5.2927  -5.0465  -5.0331  -3.9976  -3.9392  -3.7070  -3.6412  -3.4834
    -3.4724  -3.4059  -3.3473  -3.2163  -3.1571  -3.1311  -2.8685  -2.7107
    -2.6576  -2.5353  -2.3549  -2.3274  -2.1621  -2.1135  -2.0467  -1.9988
    -1.8237  -1.8122  -1.7742  -1.4864  -1.3193  -1.2957  -1.0840  -1.0532
    -1.0167  -0.8724  -0.6211  -0.4922  -0.3832  -0.3165  -0.2514  -0.0095
     0.1065   0.1746   0.6868   0.7892   1.0336   1.0542   1.1995   1.5213
     1.7402   1.7707   2.2014   2.4057   2.4326   2.6434   2.7727   2.8577
     2.9162   3.0975   3.3689   3.4918   3.5042   3.7756

          k = 0.0607 0.1171 0.0000 ( 31319 PWs)   bands (ev):

   -73.1654 -73.1378 -73.0508 -73.0467 -73.0239 -73.0198 -37.4644 -37.4310
   -37.4122 -37.3169 -37.2656 -37.2108 -37.1838 -37.1676 -37.1483 -37.1406
   -37.1302 -37.1127 -37.0665 -37.0142 -36.8396 -36.8001 -36.7407 -36.7247
    -5.6025  -5.0513  -4.7535  -4.0383  -4.0117  -3.7762  -3.6969  -3.6176
    -3.5622  -3.4859  -3.3764  -3.2532  -3.0674  -3.0422  -2.8293  -2.6956
    -2.6720  -2.6286  -2.4612  -2.3063  -2.1656  -2.1184  -1.9101  -1.8726
    -1.7600  -1.7094  -1.7092  -1.4747  -1.3415  -1.2261  -1.1818  -1.0078
    -0.9854  -0.7843  -0.6260  -0.5022  -0.4426  -0.2208  -0.1863   0.0441
     0.1227   0.1501   0.7289   0.8288   0.9588   1.1264   1.2088   1.4623
     1.7392   1.7877   2.1834   2.3224   2.4352   2.6023   2.6999   2.9102
     2.9157   3.0947   3.4055   3.4793   3.6191   3.8704

          k = 0.0607-0.0669 0.0000 ( 31338 PWs)   bands (ev):

   -73.1654 -73.1378 -73.0509 -73.0468 -73.0239 -73.0199 -37.4637 -37.4306
   -37.4121 -37.3156 -37.2661 -37.2111 -37.1836 -37.1675 -37.1481 -37.1400
   -37.1297 -37.1121 -37.0664 -37.0143 -36.8395 -36.8001 -36.7407 -36.7248
    -5.9871  -5.0570  -4.4778  -4.2099  -4.1392  -3.8962  -3.8836  -3.7967
    -3.7288  -3.5933  -3.4772  -3.3649  -3.0460  -2.9853  -2.8412  -2.7154
    -2.5858  -2.5630  -2.4901  -2.3168  -2.2131  -2.1242  -1.8396  -1.6964
    -1.6529  -1.5381  -1.4962  -1.4408  -1.3688  -1.2449  -1.0184  -0.9566
    -0.8843  -0.6930  -0.4941  -0.4737  -0.4461  -0.1173  -0.1019   0.1195
     0.1859   0.2565   0.7635   0.8305   0.9516   1.2240   1.3437   1.3539
     1.7493   1.7554   2.1493   2.2256   2.4702   2.5429   2.6155   2.8952
     3.0054   3.1051   3.4551   3.4822   3.7023   3.9234

          k = 0.0607-0.0502 0.0000 ( 31345 PWs)   bands (ev):

   -73.1655 -73.1378 -73.0509 -73.0468 -73.0239 -73.0199 -37.4628 -37.4300
   -37.4120 -37.3139 -37.2668 -37.2117 -37.1834 -37.1674 -37.1478 -37.1391
   -37.1292 -37.1113 -37.0662 -37.0144 -36.8394 -36.8000 -36.7408 -36.7249
    -6.3171  -5.0424  -4.4947  -4.2797  -4.2527  -4.1238  -3.9929  -3.9772
    -3.8950  -3.6618  -3.6395  -3.5052  -3.2063  -2.9978  -2.8045  -2.6315
    -2.5122  -2.4773  -2.4584  -2.4229  -2.1931  -2.0682  -1.7532  -1.6784
    -1.5990  -1.4467  -1.4032  -1.3622  -1.3426  -1.2508  -0.9662  -0.7427
    -0.7158  -0.5364  -0.4020  -0.3160  -0.2534  -0.0849  -0.0238   0.1923
     0.3412   0.6167   0.6335   0.8681   1.1179   1.2249   1.3063   1.6517
     1.6637   1.7961   2.1266   2.2770   2.4173   2.5566   2.6393   2.8741
     3.0196   3.1820   3.4398   3.5587   3.7542   3.9789

          k = 0.0607-0.0335 0.0000 ( 31329 PWs)   bands (ev):

   -73.1655 -73.1378 -73.0509 -73.0468 -73.0239 -73.0199 -37.4618 -37.4294
   -37.4119 -37.3121 -37.2675 -37.2123 -37.1831 -37.1674 -37.1474 -37.1382
   -37.1286 -37.1105 -37.0661 -37.0145 -36.8393 -36.8000 -36.7409 -36.7250
    -6.5660  -4.9867  -4.6869  -4.3457  -4.3234  -4.2340  -4.1941  -4.0680
    -4.0269  -3.7914  -3.6632  -3.6500  -3.3378  -3.0357  -2.9064  -2.6095
    -2.5922  -2.3719  -2.3687  -2.3364  -2.1025  -2.0638  -1.7190  -1.6628
    -1.6229  -1.5102  -1.3423  -1.2939  -1.2741  -1.2480  -0.9421  -0.6066
    -0.5144  -0.3837  -0.3233  -0.1871  -0.1654  -0.0058   0.2313   0.3386
     0.4912   0.6836   0.8033   1.0645   1.2266   1.2862   1.4173   1.5334
     1.8162   2.0016   2.1964   2.2677   2.4687   2.6776   2.7150   2.8725
     3.0389   3.2850   3.4453   3.6398   3.8133   4.0039

          k = 0.0607-0.0167 0.0000 ( 31334 PWs)   bands (ev):

   -73.1655 -73.1378 -73.0509 -73.0468 -73.0239 -73.0199 -37.4611 -37.4289
   -37.4118 -37.3108 -37.2679 -37.2128 -37.1829 -37.1674 -37.1471 -37.1375
   -37.1283 -37.1099 -37.0660 -37.0146 -36.8392 -36.8000 -36.7409 -36.7250
    -6.7201  -4.8760  -4.8157  -4.4965  -4.4462  -4.3287  -4.2386  -4.1135
    -4.1070  -3.8480  -3.7644  -3.6757  -3.3945  -3.0977  -3.0692  -2.6159
    -2.5703  -2.3029  -2.2934  -2.2263  -2.1152  -2.0448  -1.7676  -1.6718
    -1.6083  -1.5070  -1.3255  -1.3118  -1.2539  -1.2026  -0.9252  -0.5251
    -0.4030  -0.2918  -0.2278  -0.1740  -0.1557   0.1781   0.3649   0.4836
     0.6109   0.6945   0.9611   1.2965   1.3830   1.3926   1.4422   1.5124
     1.7573   2.1665   2.2438   2.4654   2.4984   2.8171   2.8381   2.9859
     3.2116   3.4269   3.5232   3.7229   3.8923   4.0107

          k = 0.0607 0.0000 0.0000 ( 31328 PWs)   bands (ev):

   -73.1655 -73.1378 -73.0509 -73.0468 -73.0239 -73.0199 -37.4609 -37.4288
   -37.4118 -37.3103 -37.2681 -37.2129 -37.1828 -37.1674 -37.1470 -37.1373
   -37.1282 -37.1097 -37.0660 -37.0147 -36.8392 -36.8000 -36.7409 -36.7251
    -6.7721  -4.8601  -4.7153  -4.6994  -4.4885  -4.3435  -4.2458  -4.1481
    -4.1179  -3.8582  -3.8119  -3.6798  -3.3971  -3.1887  -3.0821  -2.6208
    -2.5592  -2.2785  -2.2303  -2.1772  -2.1614  -2.0496  -1.7811  -1.6994
    -1.5995  -1.4693  -1.3428  -1.3255  -1.2500  -1.1813  -0.9185  -0.5007
    -0.3804  -0.2619  -0.2050  -0.1673  -0.1184   0.2629   0.3675   0.5522
     0.6372   0.6956   1.1728   1.2332   1.3739   1.4498   1.4984   1.5530
     1.7125   2.2263   2.2965   2.4366   2.5722   2.9026   2.9185   3.0275
     3.4745   3.5436   3.7485   3.7538   3.9060   3.9931

          k = 0.0607 0.0167 0.0000 ( 31334 PWs)   bands (ev):

   -73.1655 -73.1378 -73.0509 -73.0468 -73.0239 -73.0199 -37.4611 -37.4289
   -37.4118 -37.3108 -37.2679 -37.2128 -37.1829 -37.1674 -37.1471 -37.1375
   -37.1283 -37.1099 -37.0660 -37.0146 -36.8392 -36.8000 -36.7409 -36.7250
    -6.7201  -4.8760  -4.8157  -4.4965  -4.4462  -4.3287  -4.2386  -4.1135
    -4.1070  -3.8480  -3.7644  -3.6757  -3.3945  -3.0977  -3.0692  -2.6159
    -2.5703  -2.3028  -2.2935  -2.2263  -2.1151  -2.0448  -1.7676  -1.6718
    -1.6083  -1.5070  -1.3255  -1.3118  -1.2539  -1.2026  -0.9252  -0.5251
    -0.4030  -0.2918  -0.2278  -0.1740  -0.1557   0.1781   0.3649   0.4836
     0.6109   0.6945   0.9611   1.2965   1.3830   1.3926   1.4422   1.5124
     1.7573   2.1665   2.2438   2.4654   2.4984   2.8171   2.8381   2.9859
     3.2116   3.4269   3.5232   3.7226   3.8925   4.0105

          k = 0.0759 0.0418 0.0000 ( 31377 PWs)   bands (ev):

   -73.1588 -73.1445 -73.0444 -73.0403 -73.0304 -73.0264 -37.4502 -37.4244
   -37.3317 -37.3018 -37.2786 -37.2013 -37.1780 -37.1728 -37.1495 -37.1189
   -37.0980 -37.0771 -37.0513 -37.0334 -36.8415 -36.8302 -36.8236 -36.8095
    -6.1048  -5.2465  -4.3608  -4.2135  -4.0266  -3.9711  -3.9200  -3.8796
    -3.8702  -3.6881  -3.4485  -3.4449  -3.1237  -2.8948  -2.7924  -2.7663
    -2.5250  -2.4853  -2.4182  -2.3524  -2.1780  -2.1378  -1.7400  -1.7020
    -1.6757  -1.5405  -1.5389  -1.4473  -1.3615  -1.2678  -1.1600  -1.1416
    -1.0575  -0.6340  -0.5028  -0.3502  -0.0389   0.0245   0.0575   0.3472
     0.4155   0.5375   0.7098   1.1044   1.1957   1.3400   1.5137   1.6405
     1.6817   1.8324   2.0868   2.1426   2.2884   2.4224   2.4839   2.6449
     2.6738   2.8979   3.1558   3.4978   3.7810   3.9301

          k = 0.0759 0.0586 0.0000 ( 31378 PWs)   bands (ev):

   -73.1588 -73.1445 -73.0444 -73.0403 -73.0304 -73.0264 -37.4509 -37.4243
   -37.3322 -37.3033 -37.2777 -37.2009 -37.1781 -37.1728 -37.1501 -37.1188
   -37.0984 -37.0770 -37.0516 -37.0339 -36.8413 -36.8302 -36.8235 -36.8095
    -5.8464  -5.3744  -4.2421  -4.1569  -4.0716  -3.8548  -3.8249  -3.7904
    -3.7813  -3.5544  -3.4359  -3.3184  -3.0261  -2.9748  -2.8065  -2.7870
    -2.6469  -2.5396  -2.3505  -2.2633  -2.2503  -2.1081  -1.7946  -1.7639
    -1.6801  -1.6454  -1.5608  -1.4636  -1.3636  -1.3279  -1.2106  -1.1835
    -0.9950  -0.7347  -0.6628  -0.4201  -0.1340  -0.0818   0.0061   0.2514
     0.3404   0.3451   0.8217   0.9468   1.1034   1.4393   1.5032   1.5484
     1.7934   1.8029   2.1294   2.2036   2.2716   2.3230   2.4421   2.5673
     2.6405   2.9223   3.1408   3.4662   3.6955   3.9538

          k = 0.0759 0.0753 0.0000 ( 31334 PWs)   bands (ev):

   -73.1588 -73.1445 -73.0444 -73.0403 -73.0304 -73.0264 -37.4516 -37.4241
   -37.3326 -37.3047 -37.2768 -37.2005 -37.1782 -37.1727 -37.1507 -37.1188
   -37.0988 -37.0769 -37.0518 -37.0343 -36.8412 -36.8302 -36.8234 -36.8095
    -5.5208  -5.4539  -4.3820  -4.0826  -4.0127  -3.8058  -3.7261  -3.6812
    -3.6311  -3.4160  -3.4051  -3.2088  -3.0887  -3.0137  -2.8338  -2.7921
    -2.6629  -2.5742  -2.3481  -2.2583  -2.2317  -2.0314  -1.9660  -1.8293
    -1.8242  -1.6918  -1.6871  -1.4738  -1.4313  -1.3298  -1.2204  -1.2085
    -0.9527  -0.9328  -0.6898  -0.5509  -0.1500  -0.0588  -0.0223   0.1325
     0.2335   0.4498   0.8259   0.9809   1.0198   1.2367   1.4567   1.7703
     1.7920   1.8557   2.1716   2.2291   2.3314   2.4334   2.5138   2.5235
     2.6807   2.9417   3.1650   3.4339   3.6203   3.9252

          k = 0.0759 0.0920 0.0000 ( 31356 PWs)   bands (ev):

   -73.1587 -73.1445 -73.0444 -73.0403 -73.0304 -73.0264 -37.4519 -37.4240
   -37.3328 -37.3054 -37.2764 -37.2003 -37.1784 -37.1727 -37.1509 -37.1187
   -37.0990 -37.0768 -37.0520 -37.0345 -36.8411 -36.8302 -36.8233 -36.8095
    -5.4913  -5.1605  -4.7110  -4.0261  -3.9001  -3.7703  -3.6574  -3.6095
    -3.5124  -3.3712  -3.2962  -3.1942  -3.1808  -3.1100  -2.8761  -2.7384
    -2.5685  -2.5079  -2.4202  -2.2378  -2.2286  -2.1524  -2.0499  -1.9304
    -1.8921  -1.7721  -1.7556  -1.4825  -1.4677  -1.3212  -1.2221  -1.1600
    -1.0296  -0.9912  -0.6985  -0.6122  -0.1302  -0.0540   0.0256   0.0958
     0.1507   0.5535   0.7864   0.8846   1.0857   1.2244   1.4083   1.7527
     1.7958   1.9746   2.1551   2.3086   2.4089   2.4494   2.4889   2.7827
     2.8927   2.9427   3.1999   3.3389   3.5501   3.7530

          k = 0.0759 0.1087 0.0000 ( 31356 PWs)   bands (ev):

   -73.1587 -73.1445 -73.0444 -73.0403 -73.0304 -73.0264 -37.4519 -37.4240
   -37.3328 -37.3054 -37.2764 -37.2003 -37.1784 -37.1727 -37.1509 -37.1187
   -37.0990 -37.0768 -37.0520 -37.0345 -36.8411 -36.8302 -36.8233 -36.8095
    -5.4913  -5.1605  -4.7110  -4.0261  -3.9001  -3.7703  -3.6574  -3.6095
    -3.5124  -3.3712  -3.2962  -3.1942  -3.1808  -3.1100  -2.8761  -2.7384
    -2.5685  -2.5080  -2.4202  -2.2378  -2.2286  -2.1524  -2.0499  -1.9304
    -1.8921  -1.7721  -1.7556  -1.4825  -1.4677  -1.3212  -1.2221  -1.1600
    -1.0296  -0.9912  -0.6985  -0.6122  -0.1302  -0.0540   0.0256   0.0958
     0.1507   0.5535   0.7864   0.8846   1.0857   1.2244   1.4083   1.7528
     1.7958   1.9746   2.1551   2.3086   2.4089   2.4494   2.4892   2.7826
     2.8926   2.9427   3.2000   3.3385   3.5498   3.7509

          k = 0.0759 0.1255 0.0000 ( 31334 PWs)   bands (ev):

   -73.1588 -73.1445 -73.0444 -73.0403 -73.0304 -73.0264 -37.4516 -37.4241
   -37.3326 -37.3047 -37.2768 -37.2005 -37.1782 -37.1727 -37.1507 -37.1188
   -37.0988 -37.0769 -37.0518 -37.0343 -36.8412 -36.8302 -36.8234 -36.8095
    -5.5208  -5.4539  -4.3820  -4.0826  -4.0127  -3.8058  -3.7261  -3.6812
    -3.6310  -3.4160  -3.4051  -3.2088  -3.0887  -3.0137  -2.8338  -2.7921
    -2.6629  -2.5742  -2.3481  -2.2583  -2.2317  -2.0314  -1.9661  -1.8293
    -1.8242  -1.6918  -1.6871  -1.4739  -1.4313  -1.3298  -1.2204  -1.2085
    -0.9527  -0.9328  -0.6898  -0.5509  -0.1501  -0.0588  -0.0223   0.1325
     0.2335   0.4498   0.8259   0.9809   1.0198   1.2367   1.4568   1.7703
     1.7920   1.8557   2.1716   2.2291   2.3314   2.4334   2.5138   2.5235
     2.6807   2.9417   3.1650   3.4342   3.6205   3.9253

          k = 0.0759-0.0586 0.0000 ( 31378 PWs)   bands (ev):

   -73.1588 -73.1445 -73.0444 -73.0403 -73.0304 -73.0264 -37.4509 -37.4243
   -37.3322 -37.3033 -37.2777 -37.2009 -37.1781 -37.1728 -37.1501 -37.1188
   -37.0984 -37.0770 -37.0516 -37.0339 -36.8413 -36.8302 -36.8235 -36.8095
    -5.8464  -5.3744  -4.2421  -4.1569  -4.0716  -3.8548  -3.8249  -3.7903
    -3.7813  -3.5543  -3.4359  -3.3184  -3.0261  -2.9748  -2.8065  -2.7870
    -2.6469  -2.5396  -2.3505  -2.2633  -2.2503  -2.1081  -1.7946  -1.7639
    -1.6801  -1.6454  -1.5608  -1.4636  -1.3636  -1.3279  -1.2106  -1.1835
    -0.9950  -0.7347  -0.6628  -0.4201  -0.1340  -0.0818   0.0061   0.2514
     0.3404   0.3451   0.8217   0.9468   1.1034   1.4393   1.5032   1.5484
     1.7934   1.8029   2.1294   2.2036   2.2716   2.3230   2.4421   2.5673
     2.6405   2.9223   3.1406   3.4658   3.6957   3.9534

          k = 0.0759-0.0418 0.0000 ( 31377 PWs)   bands (ev):

   -73.1588 -73.1445 -73.0444 -73.0403 -73.0304 -73.0264 -37.4502 -37.4244
   -37.3317 -37.3018 -37.2786 -37.2013 -37.1780 -37.1728 -37.1495 -37.1189
   -37.0980 -37.0771 -37.0513 -37.0334 -36.8415 -36.8302 -36.8236 -36.8095
    -6.1048  -5.2465  -4.3608  -4.2135  -4.0266  -3.9711  -3.9200  -3.8796
    -3.8702  -3.6881  -3.4485  -3.4449  -3.1237  -2.8948  -2.7924  -2.7663
    -2.5250  -2.4853  -2.4182  -2.3524  -2.1780  -2.1378  -1.7400  -1.7021
    -1.6757  -1.5405  -1.5389  -1.4473  -1.3615  -1.2677  -1.1600  -1.1416
    -1.0575  -0.6340  -0.5028  -0.3502  -0.0389   0.0245   0.0575   0.3472
     0.4155   0.5375   0.7097   1.1044   1.1957   1.3400   1.5137   1.6405
     1.6817   1.8324   2.0868   2.1426   2.2885   2.4224   2.4839   2.6449
     2.6738   2.8979   3.1558   3.4977   3.7809   3.9298

          k = 0.0759-0.0251 0.0000 ( 31322 PWs)   bands (ev):

   -73.1588 -73.1444 -73.0444 -73.0403 -73.0304 -73.0264 -37.4496 -37.4245
   -37.3312 -37.3004 -37.2795 -37.2018 -37.1779 -37.1728 -37.1489 -37.1189
   -37.0976 -37.0772 -37.0510 -37.0330 -36.8417 -36.8302 -36.8236 -36.8095
    -6.2826  -5.0663  -4.4626  -4.3038  -4.1431  -4.1052  -3.9570  -3.9527
    -3.8576  -3.7457  -3.5641  -3.4465  -3.1816  -2.8896  -2.8484  -2.7491
    -2.5532  -2.4109  -2.3994  -2.3298  -2.1630  -2.0749  -1.7707  -1.7448
    -1.6545  -1.5486  -1.4999  -1.4313  -1.3644  -1.2464  -1.1641  -1.1309
    -1.0192  -0.6053  -0.3579  -0.3394   0.0175   0.1161   0.2579   0.5191
     0.5277   0.6752   0.8305   1.1524   1.2554   1.2620   1.5212   1.5775
     1.6800   1.9160   2.0614   2.0995   2.4083   2.5716   2.6951   2.7320
     2.7911   2.9682   3.2245   3.5721   3.8446   3.8707

          k = 0.0759-0.0084 0.0000 ( 31327 PWs)   bands (ev):

   -73.1588 -73.1444 -73.0444 -73.0403 -73.0304 -73.0264 -37.4492 -37.4246
   -37.3309 -37.2996 -37.2800 -37.2021 -37.1778 -37.1728 -37.1486 -37.1190
   -37.0973 -37.0772 -37.0509 -37.0328 -36.8418 -36.8302 -36.8237 -36.8095
    -6.3729  -4.8386  -4.5568  -4.5159  -4.1577  -4.1528  -4.0038  -3.9808
    -3.8456  -3.7546  -3.6478  -3.4411  -3.1713  -2.9705  -2.9131  -2.7354
    -2.5876  -2.3849  -2.3234  -2.2300  -2.2092  -1.9940  -1.8560  -1.8075
    -1.6301  -1.5450  -1.5015  -1.4259  -1.3605  -1.2798  -1.1662  -1.1006
    -0.9852  -0.6049  -0.3381  -0.2835   0.0144   0.2354   0.3731   0.6052
     0.6461   0.7303   1.0630   1.0815   1.2560   1.3064   1.4876   1.5388
     1.6149   1.9715   2.0472   2.1197   2.4720   2.6429   2.7376   2.9800
     3.0136   3.3001   3.4396   3.6647   3.7486   3.8142

          k = 0.0759 0.0084 0.0000 ( 31327 PWs)   bands (ev):

   -73.1588 -73.1444 -73.0444 -73.0403 -73.0304 -73.0264 -37.4492 -37.4246
   -37.3309 -37.2996 -37.2800 -37.2021 -37.1778 -37.1728 -37.1486 -37.1190
   -37.0973 -37.0772 -37.0509 -37.0328 -36.8418 -36.8302 -36.8237 -36.8095
    -6.3729  -4.8386  -4.5568  -4.5159  -4.1577  -4.1528  -4.0038  -3.9808
    -3.8456  -3.7547  -3.6478  -3.4411  -3.1713  -2.9705  -2.9131  -2.7354
    -2.5876  -2.3849  -2.3234  -2.2300  -2.2092  -1.9940  -1.8560  -1.8075
    -1.6301  -1.5450  -1.5015  -1.4259  -1.3605  -1.2798  -1.1662  -1.1006
    -0.9852  -0.6049  -0.3381  -0.2835   0.0144   0.2354   0.3731   0.6052
     0.6461   0.7303   1.0630   1.0815   1.2560   1.3064   1.4876   1.5388
     1.6149   1.9715   2.0472   2.1197   2.4720   2.6429   2.7376   2.9801
     3.0136   3.3001   3.4398   3.6649   3.7492   3.8783

          k = 0.0759 0.0251 0.0000 ( 31322 PWs)   bands (ev):

   -73.1588 -73.1444 -73.0444 -73.0403 -73.0304 -73.0264 -37.4496 -37.4245
   -37.3312 -37.3004 -37.2795 -37.2018 -37.1779 -37.1728 -37.1489 -37.1189
   -37.0976 -37.0772 -37.0510 -37.0330 -36.8417 -36.8302 -36.8236 -36.8095
    -6.2826  -5.0663  -4.4626  -4.3038  -4.1431  -4.1052  -3.9570  -3.9527
    -3.8576  -3.7457  -3.5641  -3.4465  -3.1816  -2.8896  -2.8485  -2.7491
    -2.5532  -2.4109  -2.3994  -2.3298  -2.1630  -2.0749  -1.7707  -1.7448
    -1.6545  -1.5486  -1.4999  -1.4313  -1.3644  -1.2464  -1.1641  -1.1309
    -1.0192  -0.6053  -0.3579  -0.3394   0.0175   0.1161   0.2579   0.5190
     0.5277   0.6752   0.8305   1.1524   1.2554   1.2620   1.5212   1.5775
     1.6800   1.9160   2.0614   2.0995   2.4083   2.5716   2.6951   2.7320
     2.7911   2.9682   3.2245   3.5720   3.8443   3.8707

          k =-0.0911-0.0502 0.0000 ( 31376 PWs)   bands (ev):

   -73.1516 -73.1516 -73.0374 -73.0374 -73.0333 -73.0333 -37.4375 -37.4375
   -37.2904 -37.2904 -37.2256 -37.2256 -37.1893 -37.1893 -37.1613 -37.1613
   -37.0884 -37.0884 -36.9469 -36.9469 -36.9297 -36.9297 -36.8196 -36.8196
    -5.6407  -5.6407  -4.1944  -4.1944  -3.8981  -3.8981  -3.8235  -3.8235
    -3.6612  -3.6612  -3.2854  -3.2853  -2.9891  -2.9891  -2.9319  -2.9319
    -2.5689  -2.5689  -2.2468  -2.2468  -2.0926  -2.0926  -1.7235  -1.7235
    -1.6927  -1.6927  -1.5915  -1.5915  -1.4876  -1.4876  -1.2862  -1.2862
    -0.8920  -0.8920  -0.4921  -0.4921  -0.0166  -0.0166   0.1693   0.1694
     0.3742   0.3742   0.9151   0.9151   1.3763   1.3763   1.7794   1.7794
     1.8304   1.8304   1.9944   1.9944   2.1333   2.1334   2.2501   2.2501
     2.7514   2.7514   3.2604   3.2604   3.8603   3.8605

          k =-0.0911-0.0335 0.0000 ( 31370 PWs)   bands (ev):

   -73.1516 -73.1516 -73.0374 -73.0374 -73.0333 -73.0333 -37.4379 -37.4371
   -37.2916 -37.2892 -37.2260 -37.2252 -37.1895 -37.1891 -37.1616 -37.1609
   -37.0888 -37.0881 -36.9471 -36.9467 -36.9301 -36.9294 -36.8197 -36.8196
    -5.8125  -5.4046  -4.2134  -4.1916  -4.0218  -3.8666  -3.8426  -3.8061
    -3.6782  -3.5839  -3.3533  -3.2370  -3.0116  -2.9630  -2.9618  -2.9228
    -2.5578  -2.5161  -2.3323  -2.1968  -2.1662  -2.0376  -1.7608  -1.7588
    -1.6941  -1.6867  -1.6053  -1.5868  -1.5169  -1.4895  -1.3122  -1.2484
    -0.9920  -0.8270  -0.5453  -0.4538  -0.0262   0.0743   0.1345   0.2276
     0.3597   0.5248   0.7986   1.0675   1.3012   1.3590   1.7193   1.7314
     1.7996   1.9102   1.9143   2.0752   2.1094   2.2750   2.3358   2.4106
     2.7428   2.7765   3.2811   3.2847   3.7759   3.9162

          k =-0.0911-0.0167 0.0000 ( 31341 PWs)   bands (ev):

   -73.1517 -73.1516 -73.0374 -73.0374 -73.0334 -73.0333 -37.4382 -37.4367
   -37.2925 -37.2883 -37.2263 -37.2249 -37.1897 -37.1889 -37.1618 -37.1607
   -37.0890 -37.0879 -36.9473 -36.9465 -36.9303 -36.9292 -36.8197 -36.8196
    -5.9163  -5.1150  -4.4237  -4.2143  -4.0059  -3.8703  -3.8693  -3.7911
    -3.6514  -3.5182  -3.4315  -3.2064  -3.0255  -2.9931  -2.9364  -2.9172
    -2.5834  -2.4459  -2.3652  -2.2204  -2.1793  -1.9992  -1.8709  -1.7841
    -1.7087  -1.6801  -1.6393  -1.6012  -1.5637  -1.5011  -1.3348  -1.1822
    -1.0630  -0.8231  -0.5659  -0.4671   0.0718   0.1465   0.1552   0.2426
     0.3975   0.7597   0.7790   1.1606   1.1724   1.3440   1.6384   1.6818
     1.7868   1.8588   1.8768   2.0666   2.3483   2.3790   2.4760   2.7732
     2.8140   2.8991   3.3260   3.3436   3.6880   3.8421

          k =-0.0911-0.0000 0.0000 ( 31342 PWs)   bands (ev):

   -73.1517 -73.1516 -73.0374 -73.0374 -73.0334 -73.0333 -37.4383 -37.4366
   -37.2928 -37.2879 -37.2265 -37.2248 -37.1898 -37.1889 -37.1618 -37.1606
   -37.0891 -37.0878 -36.9473 -36.9465 -36.9304 -36.9291 -36.8197 -36.8195
    -5.9510  -4.8530  -4.6904  -4.2116  -3.9491  -3.9015  -3.8730  -3.7855
    -3.6353  -3.4915  -3.4736  -3.1928  -3.0287  -3.0276  -2.9372  -2.8257
    -2.7182  -2.3610  -2.3430  -2.2412  -2.1829  -2.0007  -1.9273  -1.7909
    -1.7187  -1.6772  -1.6585  -1.6150  -1.5900  -1.5024  -1.3444  -1.1385
    -1.0843  -0.8437  -0.5710  -0.4685   0.1057   0.1800   0.1851   0.2366
     0.4184   0.7895   0.9712   1.0657   1.0779   1.4595   1.5456   1.6693
     1.7837   1.8099   1.8727   2.0711   2.3946   2.4291   2.6177   2.7687
     3.0144   3.2853   3.3578   3.3774   3.4988   3.6969

          k =-0.0911 0.0167 0.0000 ( 31341 PWs)   bands (ev):

   -73.1517 -73.1516 -73.0374 -73.0374 -73.0334 -73.0333 -37.4382 -37.4367
   -37.2925 -37.2883 -37.2263 -37.2249 -37.1897 -37.1889 -37.1618 -37.1607
   -37.0890 -37.0879 -36.9473 -36.9465 -36.9303 -36.9292 -36.8197 -36.8196
    -5.9163  -5.1150  -4.4237  -4.2143  -4.0059  -3.8703  -3.8693  -3.7911
    -3.6514  -3.5182  -3.4315  -3.2064  -3.0255  -2.9931  -2.9364  -2.9171
    -2.5834  -2.4459  -2.3652  -2.2204  -2.1793  -1.9991  -1.8709  -1.7841
    -1.7087  -1.6801  -1.6393  -1.6012  -1.5637  -1.5011  -1.3348  -1.1822
    -1.0630  -0.8231  -0.5659  -0.4671   0.0718   0.1465   0.1552   0.2426
     0.3975   0.7597   0.7790   1.1606   1.1724   1.3440   1.6384   1.6818
     1.7868   1.8588   1.8768   2.0666   2.3483   2.3790   2.4760   2.7732
     2.8140   2.8992   3.3260   3.3438   3.6884   3.8424

          k =-0.0911 0.0335 0.0000 ( 31370 PWs)   bands (ev):

   -73.1516 -73.1516 -73.0374 -73.0374 -73.0333 -73.0333 -37.4379 -37.4371
   -37.2916 -37.2892 -37.2260 -37.2252 -37.1895 -37.1891 -37.1616 -37.1609
   -37.0888 -37.0881 -36.9471 -36.9467 -36.9301 -36.9294 -36.8197 -36.8196
    -5.8125  -5.4046  -4.2134  -4.1916  -4.0218  -3.8665  -3.8426  -3.8061
    -3.6782  -3.5839  -3.3533  -3.2370  -3.0116  -2.9630  -2.9618  -2.9228
    -2.5578  -2.5161  -2.3323  -2.1968  -2.1662  -2.0376  -1.7608  -1.7588
    -1.6941  -1.6867  -1.6053  -1.5868  -1.5169  -1.4895  -1.3122  -1.2484
    -0.9920  -0.8270  -0.5453  -0.4538  -0.0262   0.0743   0.1345   0.2276
     0.3597   0.5248   0.7986   1.0675   1.3012   1.3590   1.7193   1.7314
     1.7996   1.9102   1.9143   2.0752   2.1094   2.2750   2.3358   2.4106
     2.7428   2.7765   3.2811   3.2847   3.7759   3.9162

          k =-0.0911-0.1506 0.0000 ( 31376 PWs)   bands (ev):

   -73.1516 -73.1516 -73.0374 -73.0374 -73.0333 -73.0333 -37.4375 -37.4375
   -37.2904 -37.2904 -37.2256 -37.2256 -37.1893 -37.1893 -37.1613 -37.1613
   -37.0884 -37.0884 -36.9469 -36.9469 -36.9297 -36.9297 -36.8196 -36.8196
    -5.6407  -5.6407  -4.1944  -4.1944  -3.8981  -3.8980  -3.8235  -3.8235
    -3.6612  -3.6612  -3.2854  -3.2853  -2.9891  -2.9891  -2.9319  -2.9319
    -2.5689  -2.5689  -2.2468  -2.2468  -2.0926  -2.0925  -1.7235  -1.7235
    -1.6927  -1.6927  -1.5915  -1.5915  -1.4876  -1.4876  -1.2862  -1.2862
    -0.8920  -0.8920  -0.4921  -0.4921  -0.0166  -0.0166   0.1693   0.1693
     0.3742   0.3742   0.9151   0.9151   1.3763   1.3763   1.7794   1.7794
     1.8304   1.8304   1.9944   1.9944   2.1334   2.1334   2.2501   2.2501
     2.7514   2.7514   3.2604   3.2604   3.8604   3.8605

     the Fermi energy is     1.7467 ev

!    total energy              =   -1352.02057386 Ry
     estimated scf accuracy    <       0.00000670 Ry
     smearing contrib. (-TS)   =      -0.05389499 Ry
     internal energy E=F+TS    =   -1351.96667887 Ry

     The total energy is F=E-TS. E is the sum of the following terms:
     one-electron contribution =  -11130.53776788 Ry
     hartree contribution      =    5591.82099930 Ry
     xc contribution           =    -395.87451835 Ry
     ewald contribution        =    4582.62460762 Ry
     electric field correction =       0.00000044 Ry

     convergence has been achieved in  14 iterations

     negative rho (up, down):  1.316E-03 0.000E+00

     Forces acting on atoms (cartesian axes, Ry/au):

     atom    1 type  1   force =    -0.00000206    0.01668931    0.01952453
     atom    2 type  1   force =     0.00000952    0.01670190    0.01952356
     atom    3 type  2   force =    -0.00000788   -0.03560193    0.00050442
     atom    4 type  2   force =     0.00000301   -0.03561076    0.00050120
     atom    5 type  1   force =     0.00000006    0.00711318   -0.02132875
     atom    6 type  1   force =     0.00000037    0.00711371   -0.02132571
     atom    7 type  2   force =     0.00000495    0.01085153   -0.00401799
     atom    8 type  2   force =     0.00000533    0.01084046   -0.00401095
     atom    9 type  1   force =     0.00000982   -0.00003089    0.00158020
     atom   10 type  1   force =     0.00000997   -0.00003177    0.00158355
     atom   11 type  2   force =     0.00000094    0.00098863    0.00372909
     atom   12 type  2   force =    -0.00003402    0.00097663    0.00373684

     Total force =     0.071897     Total SCF correction =     0.007798
     SCF correction compared to forces is large: reduce conv_thr to get better values

     Writing output data file ./W2Pt2/W2Pt2_beef.save/

     init_run     :    210.87s CPU    211.49s WALL (       1 calls)
     electrons    :   3433.76s CPU   3471.56s WALL (       1 calls)
     forces       :     63.03s CPU     63.29s WALL (       1 calls)

     Called by init_run:
     wfcinit      :    180.73s CPU    181.14s WALL (       1 calls)
     potinit      :     23.79s CPU     23.83s WALL (       1 calls)
     hinit0       :      3.54s CPU      3.54s WALL (       1 calls)

     Called by electrons:
     c_bands      :   3082.22s CPU   3113.28s WALL (      14 calls)
     sum_band     :    316.66s CPU    320.15s WALL (      14 calls)
     v_of_rho     :     39.44s CPU     40.63s WALL (      15 calls)
     newd         :     16.71s CPU     18.74s WALL (      15 calls)
     mix_rho      :      1.22s CPU      1.25s WALL (      14 calls)
     vdW_kernel   :     10.90s CPU     10.90s WALL (       1 calls)

     Called by c_bands:
     init_us_2    :     10.79s CPU     10.93s WALL (    2220 calls)
     cegterg      :   3056.78s CPU   3084.91s WALL (    1036 calls)

     Called by *egterg:
     cdiaghg      :    118.36s CPU    118.87s WALL (    5619 calls)
     h_psi        :   1842.90s CPU   1866.13s WALL (    5693 calls)
     s_psi        :    451.74s CPU    452.20s WALL (    5693 calls)
     g_psi        :      0.98s CPU      1.00s WALL (    4583 calls)

     Called by h_psi:
     h_psi:calbec :    501.45s CPU    503.44s WALL (    5693 calls)
     vloc_psi     :    881.19s CPU    902.02s WALL (    5693 calls)
     add_vuspsi   :    455.22s CPU    455.57s WALL (    5693 calls)

     General routines
     calbec       :    751.03s CPU    753.37s WALL (    7025 calls)
     fft          :     24.56s CPU     25.13s WALL (    1004 calls)
     ffts         :      0.24s CPU      0.24s WALL (      29 calls)
     fftw         :    933.14s CPU    954.62s WALL (  537090 calls)
     interpolate  :      0.60s CPU      0.61s WALL (      15 calls)

     Parallel routines
     fft_scatt_xy :     39.06s CPU     39.46s WALL (  538123 calls)
     fft_scatt_yz :    581.29s CPU    598.94s WALL (  538123 calls)

     PWSCF        :      1h 6m CPU      1h 7m WALL


   This run was terminated on:  19: 7:17  26Jun2022            

=------------------------------------------------------------------------------=
   JOB DONE.
=------------------------------------------------------------------------------=
