
     Program PWSCF v.6.6 starts on 26Jun2022 at 19: 7:23 

     This program is part of the open-source Quantum ESPRESSO suite
     for quantum simulation of materials; please cite
         "P. Giannozzi et al., J. Phys.:Condens. Matter 21 395502 (2009);
         "P. Giannozzi et al., J. Phys.:Condens. Matter 29 465901 (2017);
          URL http://www.quantum-espresso.org", 
     in publications or presentations arising from this work. More details at
     http://www.quantum-espresso.org/quote

     Parallel version (MPI), running on    37 processors

     MPI processes distributed on     1 nodes
     R & G space division:  proc/nbgrp/npool/nimage =      37
     Fft bands division:     nmany     =       1
     Reading input from W2Re2.in
Warning: card &CELL ignored
Warning: card / ignored

     Current dimensions of program PWSCF are:
     Max number of different atomic species (ntypx) = 10
     Max number of k-points (npk) =  40000
     Max angular momentum in pseudopotentials (lmaxx) =  3
     Presently stress not available with electric field and gates

     Message from routine cell_base_init:
     DEPRECATED: use true lattice parameter, not A to a.u. conversion factor
     Message from routine emend_upf/check:
     BEWARE !!! Possible out of bounds while fixing pseudo
     Message from routine emend_upf/check:
     BEWARE !!! Possible out of bounds while fixing pseudo
     Message from routine read_upf:
     Pseudo file W.pbe-spn-rrkjus_psl.0.2.3.UPF has been fixed on the fly.
     To avoid this message in the future, permanently fix 
     your pseudo files following these instructions: 
     https://gitlab.com/QEF/q-e/blob/master/upftools/how_to_fix_upf.md

     **************************************************************************
     Initializing libbeef V0.1.2 with the BEEF-vdW functional.
     Citation: Wellendorff et al., PRB 85, 235149 (2012).
     **************************************************************************


     IMPORTANT: XC functional enforced from input :
     Exchange-correlation= BEEF-VDW
                           (   1   4  43  14   2   0   0)
     Any further DFT definition will be discarded
     Please, verify this is what you really want


     Subspace diagonalization in iterative solution of the eigenvalue problem:
     a serial algorithm will be used

     Found symmetry operation: I + ( -0.5000 -0.5000  0.0000)
     This is a supercell, fractional translations are disabled

     Parallelization info
     --------------------
     sticks:   dense  smooth     PW     G-vecs:    dense   smooth      PW
     Min         115      46     13                26767     6766    1041
     Max         116      47     14                26784     6781    1058
     Sum        4275    1707    499               990677   250525   38803



     bravais-lattice index     =            0
     lattice parameter (alat)  =       1.8897  a.u.
     unit-cell volume          =    4533.1742 (a.u.)^3
     number of atoms/cell      =           12
     number of atomic types    =            2
     number of electrons       =       174.00
     number of Kohn-Sham states=          104
     kinetic-energy cutoff     =      55.1240  Ry
     charge density cutoff     =     551.2396  Ry
     convergence threshold     =      1.0E-05
     mixing beta               =       0.1000
     number of iterations used =           10  plain     mixing
     Exchange-correlation= BEEF-VDW
                           (   1   4  43  14   2   0   0)

     celldm(1)=   1.889726  celldm(2)=   0.000000  celldm(3)=   0.000000
     celldm(4)=   0.000000  celldm(5)=   0.000000  celldm(6)=   0.000000

     crystal axes: (cart. coord. in units of alat)
               a(1) = (   5.598665   0.000000   0.000000 )  
               a(2) = (   2.743781   4.880237   0.000000 )  
               a(3) = (   0.000000   0.000000  24.585582 )  

     reciprocal axes: (cart. coord. in units 2 pi/alat)
               b(1) = (  0.178614 -0.100421  0.000000 )  
               b(2) = (  0.000000  0.204908  0.000000 )  
               b(3) = (  0.000000  0.000000  0.040674 )  


     PseudoPot. # 1 for W  read from file:
     ../pseudo/W.pbe-spn-rrkjus_psl.0.2.3.UPF
     MD5 check sum: 25b665cf2bbae626ad8d9f1bc024df95
     Pseudo is Ultrasoft + core correction, Zval = 14.0
     Generated using "atomic" code by A. Dal Corso v.5.0.2 svn rev. 10551
     Using radial grid of 1273 points,  6 beta functions with: 
                l(1) =   0
                l(2) =   0
                l(3) =   1
                l(4) =   1
                l(5) =   2
                l(6) =   2
     Q(r) pseudized with 0 coefficients 


     PseudoPot. # 2 for Re read from file:
     ../pseudo/Re.pbe-spn-rrkjus_psl.1.0.0.UPF
     MD5 check sum: 1282f1ec51ad523723a04c61ae80a9e6
     Pseudo is Ultrasoft + core correction, Zval = 15.0
     Generated using "atomic" code by A. Dal Corso v.6.2.2
     Using radial grid of 1275 points,  6 beta functions with: 
                l(1) =   0
                l(2) =   0
                l(3) =   1
                l(4) =   1
                l(5) =   2
                l(6) =   2
     Q(r) pseudized with 0 coefficients 


     atomic species   valence    mass     pseudopotential
        W             14.00   183.84000     W ( 1.00)
        Re            15.00   186.20700     Re( 1.00)

     No symmetry found



   Cartesian axes

     site n.     atom                  positions (alat units)
         1           W   tau(   1) = (   0.0000000   0.0000000  10.0000000  )
         2           W   tau(   2) = (   4.1712234   2.4401186  10.0000000  )
         3           Re  tau(   3) = (   2.7993326   0.0000000  10.0000000  )
         4           Re  tau(   4) = (   1.3718907   2.4401186  10.0000000  )
         5           W   tau(   5) = (   5.5986653   3.2751561  12.2927912  )
         6           W   tau(   6) = (   1.4274419   0.8350374  12.2927912  )
         7           Re  tau(   7) = (   2.7993326   3.2751561  12.2927912  )
         8           Re  tau(   8) = (   4.2267745   0.8350374  12.2927912  )
         9           W   tau(   9) = (   2.8634858   1.6751083  14.5185559  )
        10           W   tau(  10) = (   7.0347032   4.1152238  14.5185548  )
        11           Re  tau(  11) = (   5.6491309   1.6670944  14.5165612  )
        12           Re  tau(  12) = (   4.2216843   4.1072120  14.5165597  )

     number of k points=    74  Fermi-Dirac smearing, width (Ry)=  0.0100
                       cart. coord. in units 2pi/alat
        k(    1) = (   0.0000000   0.0000000   0.0000000), wk =   0.0138889
        k(    2) = (   0.0000000   0.0170757   0.0000000), wk =   0.0277778
        k(    3) = (   0.0000000   0.0341513   0.0000000), wk =   0.0277778
        k(    4) = (   0.0000000   0.0512270   0.0000000), wk =   0.0277778
        k(    5) = (   0.0000000   0.0683027   0.0000000), wk =   0.0277778
        k(    6) = (   0.0000000   0.0853784   0.0000000), wk =   0.0277778
        k(    7) = (   0.0000000  -0.1024540   0.0000000), wk =   0.0138889
        k(    8) = (   0.0148845  -0.0083684   0.0000000), wk =   0.0277778
        k(    9) = (   0.0148845   0.0087073   0.0000000), wk =   0.0277778
        k(   10) = (   0.0148845   0.0257829   0.0000000), wk =   0.0277778
        k(   11) = (   0.0148845   0.0428586   0.0000000), wk =   0.0277778
        k(   12) = (   0.0148845   0.0599343   0.0000000), wk =   0.0277778
        k(   13) = (   0.0148845   0.0770100   0.0000000), wk =   0.0277778
        k(   14) = (   0.0148845  -0.1108224   0.0000000), wk =   0.0277778
        k(   15) = (   0.0148845  -0.0937468   0.0000000), wk =   0.0277778
        k(   16) = (   0.0148845  -0.0766711   0.0000000), wk =   0.0277778
        k(   17) = (   0.0148845  -0.0595954   0.0000000), wk =   0.0277778
        k(   18) = (   0.0148845  -0.0425198   0.0000000), wk =   0.0277778
        k(   19) = (   0.0148845  -0.0254441   0.0000000), wk =   0.0277778
        k(   20) = (   0.0297690  -0.0167368   0.0000000), wk =   0.0277778
        k(   21) = (   0.0297690   0.0003389   0.0000000), wk =   0.0277778
        k(   22) = (   0.0297690   0.0174145   0.0000000), wk =   0.0277778
        k(   23) = (   0.0297690   0.0344902   0.0000000), wk =   0.0277778
        k(   24) = (   0.0297690   0.0515659   0.0000000), wk =   0.0277778
        k(   25) = (   0.0297690   0.0686416   0.0000000), wk =   0.0277778
        k(   26) = (   0.0297690  -0.1191909   0.0000000), wk =   0.0277778
        k(   27) = (   0.0297690  -0.1021152   0.0000000), wk =   0.0277778
        k(   28) = (   0.0297690  -0.0850395   0.0000000), wk =   0.0277778
        k(   29) = (   0.0297690  -0.0679638   0.0000000), wk =   0.0277778
        k(   30) = (   0.0297690  -0.0508882   0.0000000), wk =   0.0277778
        k(   31) = (   0.0297690  -0.0338125   0.0000000), wk =   0.0277778
        k(   32) = (   0.0446535  -0.0251052   0.0000000), wk =   0.0277778
        k(   33) = (   0.0446535  -0.0080295   0.0000000), wk =   0.0277778
        k(   34) = (   0.0446535   0.0090461   0.0000000), wk =   0.0277778
        k(   35) = (   0.0446535   0.0261218   0.0000000), wk =   0.0277778
        k(   36) = (   0.0446535   0.0431975   0.0000000), wk =   0.0277778
        k(   37) = (   0.0446535   0.0602731   0.0000000), wk =   0.0277778
        k(   38) = (   0.0446535  -0.1275593   0.0000000), wk =   0.0277778
        k(   39) = (   0.0446535  -0.1104836   0.0000000), wk =   0.0277778
        k(   40) = (   0.0446535  -0.0934079   0.0000000), wk =   0.0277778
        k(   41) = (   0.0446535  -0.0763322   0.0000000), wk =   0.0277778
        k(   42) = (   0.0446535  -0.0592566   0.0000000), wk =   0.0277778
        k(   43) = (   0.0446535  -0.0421809   0.0000000), wk =   0.0277778
        k(   44) = (   0.0595380  -0.0334736   0.0000000), wk =   0.0277778
        k(   45) = (   0.0595380  -0.0163980   0.0000000), wk =   0.0277778
        k(   46) = (   0.0595380   0.0006777   0.0000000), wk =   0.0277778
        k(   47) = (   0.0595380   0.0177534   0.0000000), wk =   0.0277778
        k(   48) = (   0.0595380   0.0348291   0.0000000), wk =   0.0277778
        k(   49) = (   0.0595380   0.0519047   0.0000000), wk =   0.0277778
        k(   50) = (   0.0595380  -0.1359277   0.0000000), wk =   0.0277778
        k(   51) = (   0.0595380  -0.1188520   0.0000000), wk =   0.0277778
        k(   52) = (   0.0595380  -0.1017763   0.0000000), wk =   0.0277778
        k(   53) = (   0.0595380  -0.0847006   0.0000000), wk =   0.0277778
        k(   54) = (   0.0595380  -0.0676250   0.0000000), wk =   0.0277778
        k(   55) = (   0.0595380  -0.0505493   0.0000000), wk =   0.0277778
        k(   56) = (   0.0744225  -0.0418420   0.0000000), wk =   0.0277778
        k(   57) = (   0.0744225  -0.0247664   0.0000000), wk =   0.0277778
        k(   58) = (   0.0744225  -0.0076907   0.0000000), wk =   0.0277778
        k(   59) = (   0.0744225   0.0093850   0.0000000), wk =   0.0277778
        k(   60) = (   0.0744225   0.0264607   0.0000000), wk =   0.0277778
        k(   61) = (   0.0744225   0.0435363   0.0000000), wk =   0.0277778
        k(   62) = (   0.0744225  -0.1442961   0.0000000), wk =   0.0277778
        k(   63) = (   0.0744225  -0.1272204   0.0000000), wk =   0.0277778
        k(   64) = (   0.0744225  -0.1101447   0.0000000), wk =   0.0277778
        k(   65) = (   0.0744225  -0.0930691   0.0000000), wk =   0.0277778
        k(   66) = (   0.0744225  -0.0759934   0.0000000), wk =   0.0277778
        k(   67) = (   0.0744225  -0.0589177   0.0000000), wk =   0.0277778
        k(   68) = (  -0.0893070   0.0502104   0.0000000), wk =   0.0138889
        k(   69) = (  -0.0893070   0.0672861   0.0000000), wk =   0.0277778
        k(   70) = (  -0.0893070   0.0843618   0.0000000), wk =   0.0277778
        k(   71) = (  -0.0893070   0.1014375   0.0000000), wk =   0.0277778
        k(   72) = (  -0.0893070   0.1185131   0.0000000), wk =   0.0277778
        k(   73) = (  -0.0893070   0.1355888   0.0000000), wk =   0.0277778
        k(   74) = (  -0.0893070  -0.0522436   0.0000000), wk =   0.0138889

     Dense  grid:   990677 G-vectors     FFT dimensions: (  80,  80, 360)

     Smooth grid:   250525 G-vectors     FFT dimensions: (  54,  54, 225)

     Estimated max dynamical RAM per process >     207.81 MB

     Estimated total dynamical RAM >       7.51 GB

     Initial potential from superposition of free atoms

     starting charge  173.99486, renormalised to  174.00000

     negative rho (up, down):  8.195E-04 0.000E+00


     %%%%%%%%%%%%%%%%%%%%%%%%%%%%%%%%%%%%%%%%%%%%%%%%%%%%%%%%%%%%%%%%%%%%%%%%
     %                                                                      %
     % You are using vdW-DF, which was implemented by the Thonhauser group. %
     % Please cite the following two papers that made this development      %
     % possible and the two reviews that describe the various versions:     %
     %                                                                      %
     %   T. Thonhauser et al., PRL 115, 136402 (2015).                      %
     %   T. Thonhauser et al., PRB 76, 125112 (2007).                       %
     %   K. Berland et al., Rep. Prog. Phys. 78, 066501 (2015).             %
     %   D.C. Langreth et al., J. Phys.: Condens. Matter 21, 084203 (2009). %
     %                                                                      %
     %                                                                      %
     % If you are calculating the stress with vdW-DF, please also cite:     %
     %                                                                      %
     %   R. Sabatini et al., J. Phys.: Condens. Matter 24, 424209 (2012).   %
     %                                                                      %
     %%%%%%%%%%%%%%%%%%%%%%%%%%%%%%%%%%%%%%%%%%%%%%%%%%%%%%%%%%%%%%%%%%%%%%%%



     Adding external electric field

     Computed dipole along edir(3) : 
        Dipole                0.0000 Ry au,          0.0000 Debye
        Dipole field          0.0000 Ry au, 

        Potential amp.       -0.0000 Ry
        Total length         45.2985 bohr

     Starting wfcs are  138 randomized atomic wfcs

     total cpu time spent up to now is      137.0 secs

     Self-consistent Calculation

     iteration #  1     ecut=    55.12 Ry     beta= 0.10
     Davidson diagonalization with overlap
     ethr =  1.00E-02,  avg # of iterations =  2.1

     negative rho (up, down):  7.790E-04 0.000E+00

     Adding external electric field

     Computed dipole along edir(3) : 
        Dipole               -0.2861 Ry au,         -0.7271 Debye
        Dipole field         -0.0008 Ry au, 

        Potential amp.        0.0718 Ry
        Total length         45.2985 bohr


     total cpu time spent up to now is      425.2 secs

     total energy              =   -2030.43475822 Ry
     estimated scf accuracy    <       3.38409383 Ry

     iteration #  2     ecut=    55.12 Ry     beta= 0.10
     Davidson diagonalization with overlap
     ethr =  1.94E-03,  avg # of iterations =  2.2

     negative rho (up, down):  8.692E-04 0.000E+00

     Adding external electric field

     Computed dipole along edir(3) : 
        Dipole                0.5057 Ry au,          1.2854 Debye
        Dipole field          0.0014 Ry au, 

        Potential amp.       -0.1270 Ry
        Total length         45.2985 bohr


     total cpu time spent up to now is      695.1 secs

     total energy              =   -2030.48280351 Ry
     estimated scf accuracy    <       4.97488252 Ry

     iteration #  3     ecut=    55.12 Ry     beta= 0.10
     Davidson diagonalization with overlap
     ethr =  1.94E-03,  avg # of iterations =  1.4

     negative rho (up, down):  9.585E-04 0.000E+00

     Adding external electric field

     Computed dipole along edir(3) : 
        Dipole               -0.0174 Ry au,         -0.0443 Debye
        Dipole field         -0.0000 Ry au, 

        Potential amp.        0.0044 Ry
        Total length         45.2985 bohr


     total cpu time spent up to now is      913.3 secs

     total energy              =   -2030.53597009 Ry
     estimated scf accuracy    <      14.26991517 Ry

     iteration #  4     ecut=    55.12 Ry     beta= 0.10
     Davidson diagonalization with overlap
     ethr =  1.94E-03,  avg # of iterations =  1.0

     negative rho (up, down):  8.058E-04 0.000E+00

     Adding external electric field

     Computed dipole along edir(3) : 
        Dipole                0.0094 Ry au,          0.0238 Debye
        Dipole field          0.0000 Ry au, 

        Potential amp.       -0.0024 Ry
        Total length         45.2985 bohr


     total cpu time spent up to now is     1140.5 secs

     total energy              =   -2030.67641463 Ry
     estimated scf accuracy    <       0.33584914 Ry

     iteration #  5     ecut=    55.12 Ry     beta= 0.10
     Davidson diagonalization with overlap
     ethr =  1.93E-04,  avg # of iterations =  2.3

     negative rho (up, down):  1.049E-03 0.000E+00

     Adding external electric field

     Computed dipole along edir(3) : 
        Dipole                0.0358 Ry au,          0.0910 Debye
        Dipole field          0.0001 Ry au, 

        Potential amp.       -0.0090 Ry
        Total length         45.2985 bohr


     total cpu time spent up to now is     1389.9 secs

     total energy              =   -2030.68557898 Ry
     estimated scf accuracy    <       0.12330520 Ry

     iteration #  6     ecut=    55.12 Ry     beta= 0.10
     Davidson diagonalization with overlap
     ethr =  7.09E-05,  avg # of iterations =  5.0

     negative rho (up, down):  1.951E-03 0.000E+00

     Adding external electric field

     Computed dipole along edir(3) : 
        Dipole               -0.0274 Ry au,         -0.0695 Debye
        Dipole field         -0.0001 Ry au, 

        Potential amp.        0.0069 Ry
        Total length         45.2985 bohr


     total cpu time spent up to now is     1684.9 secs

     total energy              =   -2030.68268229 Ry
     estimated scf accuracy    <       0.06932834 Ry

     iteration #  7     ecut=    55.12 Ry     beta= 0.10
     Davidson diagonalization with overlap
     c_bands:  1 eigenvalues not converged
     ethr =  3.98E-05,  avg # of iterations =  3.2

     negative rho (up, down):  3.771E-03 0.000E+00

     Adding external electric field

     Computed dipole along edir(3) : 
        Dipole                0.0112 Ry au,          0.0286 Debye
        Dipole field          0.0000 Ry au, 

        Potential amp.       -0.0028 Ry
        Total length         45.2985 bohr


     total cpu time spent up to now is     1972.3 secs

     total energy              =   -2030.68963249 Ry
     estimated scf accuracy    <       0.07858234 Ry

     iteration #  8     ecut=    55.12 Ry     beta= 0.10
     Davidson diagonalization with overlap
     ethr =  3.98E-05,  avg # of iterations =  2.2

     negative rho (up, down):  2.678E-03 0.000E+00

     Adding external electric field

     Computed dipole along edir(3) : 
        Dipole                0.0096 Ry au,          0.0243 Debye
        Dipole field          0.0000 Ry au, 

        Potential amp.       -0.0024 Ry
        Total length         45.2985 bohr


     total cpu time spent up to now is     2236.5 secs

     total energy              =   -2030.69446131 Ry
     estimated scf accuracy    <       0.00447887 Ry

     iteration #  9     ecut=    55.12 Ry     beta= 0.10
     Davidson diagonalization with overlap
     c_bands:  1 eigenvalues not converged
     c_bands:  1 eigenvalues not converged
     c_bands:  1 eigenvalues not converged
     c_bands:  1 eigenvalues not converged
     c_bands:  1 eigenvalues not converged
     c_bands:  1 eigenvalues not converged
     c_bands:  1 eigenvalues not converged
     c_bands:  1 eigenvalues not converged
     c_bands:  1 eigenvalues not converged
     c_bands:  1 eigenvalues not converged
     c_bands:  1 eigenvalues not converged
     c_bands:  1 eigenvalues not converged
     c_bands:  2 eigenvalues not converged
     c_bands:  1 eigenvalues not converged
     c_bands:  1 eigenvalues not converged
     c_bands:  1 eigenvalues not converged
     c_bands:  1 eigenvalues not converged
     c_bands:  3 eigenvalues not converged
     c_bands:  3 eigenvalues not converged
     c_bands:  1 eigenvalues not converged
     c_bands:  1 eigenvalues not converged
     c_bands:  1 eigenvalues not converged
     c_bands:  1 eigenvalues not converged
     c_bands:  1 eigenvalues not converged
     c_bands:  1 eigenvalues not converged
     c_bands:  1 eigenvalues not converged
     c_bands:  2 eigenvalues not converged
     c_bands:  2 eigenvalues not converged
     c_bands:  2 eigenvalues not converged
     c_bands:  1 eigenvalues not converged
     c_bands:  1 eigenvalues not converged
     c_bands:  1 eigenvalues not converged
     c_bands:  2 eigenvalues not converged
     c_bands:  1 eigenvalues not converged
     c_bands:  2 eigenvalues not converged
     c_bands:  1 eigenvalues not converged
     c_bands:  1 eigenvalues not converged
     c_bands:  1 eigenvalues not converged
     c_bands:  1 eigenvalues not converged
     ethr =  2.57E-06,  avg # of iterations = 17.3

     negative rho (up, down):  2.281E-03 0.000E+00

     Adding external electric field

     Computed dipole along edir(3) : 
        Dipole                0.0157 Ry au,          0.0399 Debye
        Dipole field          0.0000 Ry au, 

        Potential amp.       -0.0039 Ry
        Total length         45.2985 bohr


     total cpu time spent up to now is     2721.4 secs

     total energy              =   -2030.69527493 Ry
     estimated scf accuracy    <       0.00397792 Ry

     iteration # 10     ecut=    55.12 Ry     beta= 0.10
     Davidson diagonalization with overlap
     c_bands:  1 eigenvalues not converged
     c_bands:  1 eigenvalues not converged
     ethr =  2.29E-06,  avg # of iterations =  3.9

     negative rho (up, down):  2.360E-03 0.000E+00

     Adding external electric field

     Computed dipole along edir(3) : 
        Dipole                0.0200 Ry au,          0.0507 Debye
        Dipole field          0.0001 Ry au, 

        Potential amp.       -0.0050 Ry
        Total length         45.2985 bohr


     total cpu time spent up to now is     2968.9 secs

     total energy              =   -2030.69537524 Ry
     estimated scf accuracy    <       0.00150783 Ry

     iteration # 11     ecut=    55.12 Ry     beta= 0.10
     Davidson diagonalization with overlap
     c_bands:  1 eigenvalues not converged
     ethr =  8.67E-07,  avg # of iterations =  2.7

     negative rho (up, down):  2.274E-03 0.000E+00

     Adding external electric field

     Computed dipole along edir(3) : 
        Dipole                0.0185 Ry au,          0.0470 Debye
        Dipole field          0.0001 Ry au, 

        Potential amp.       -0.0046 Ry
        Total length         45.2985 bohr


     total cpu time spent up to now is     3253.0 secs

     total energy              =   -2030.69552655 Ry
     estimated scf accuracy    <       0.00025636 Ry

     iteration # 12     ecut=    55.12 Ry     beta= 0.10
     Davidson diagonalization with overlap
     ethr =  1.47E-07,  avg # of iterations =  2.9

     negative rho (up, down):  2.540E-03 0.000E+00

     Adding external electric field

     Computed dipole along edir(3) : 
        Dipole                0.0161 Ry au,          0.0410 Debye
        Dipole field          0.0000 Ry au, 

        Potential amp.       -0.0040 Ry
        Total length         45.2985 bohr


     total cpu time spent up to now is     3511.1 secs

     total energy              =   -2030.69556881 Ry
     estimated scf accuracy    <       0.00011205 Ry

     iteration # 13     ecut=    55.12 Ry     beta= 0.10
     Davidson diagonalization with overlap
     ethr =  6.44E-08,  avg # of iterations =  2.4

     negative rho (up, down):  2.451E-03 0.000E+00

     Adding external electric field

     Computed dipole along edir(3) : 
        Dipole                0.0165 Ry au,          0.0421 Debye
        Dipole field          0.0000 Ry au, 

        Potential amp.       -0.0042 Ry
        Total length         45.2985 bohr


     total cpu time spent up to now is     3828.6 secs

     total energy              =   -2030.69556163 Ry
     estimated scf accuracy    <       0.00013599 Ry

     iteration # 14     ecut=    55.12 Ry     beta= 0.10
     Davidson diagonalization with overlap
     ethr =  6.44E-08,  avg # of iterations =  1.6

     negative rho (up, down):  2.474E-03 0.000E+00

     Adding external electric field

     Computed dipole along edir(3) : 
        Dipole                0.0174 Ry au,          0.0443 Debye
        Dipole field          0.0000 Ry au, 

        Potential amp.       -0.0044 Ry
        Total length         45.2985 bohr


     total cpu time spent up to now is     4074.7 secs

     total energy              =   -2030.69556442 Ry
     estimated scf accuracy    <       0.00002628 Ry

     iteration # 15     ecut=    55.12 Ry     beta= 0.10
     Davidson diagonalization with overlap
     ethr =  1.51E-08,  avg # of iterations =  4.9

     negative rho (up, down):  2.039E-03 0.000E+00

     Adding external electric field

     Computed dipole along edir(3) : 
        Dipole                0.0127 Ry au,          0.0323 Debye
        Dipole field          0.0000 Ry au, 

        Potential amp.       -0.0032 Ry
        Total length         45.2985 bohr


     total cpu time spent up to now is     4366.8 secs

     End of self-consistent calculation

          k = 0.0000 0.0000 0.0000 ( 31397 PWs)   bands (ev):

   -77.6213 -77.5944 -77.5810 -77.5550 -77.4821 -77.4560 -71.7091 -71.6717
   -71.6004 -71.5736 -71.5626 -71.5354 -39.6273 -39.5853 -39.5166 -39.4881
   -39.4111 -39.4030 -39.3661 -39.3360 -39.3156 -39.2919 -39.2329 -39.2143
   -39.1650 -39.1255 -39.1196 -39.0638 -39.0015 -38.9197 -35.9767 -35.9468
   -35.9435 -35.8946 -35.8547 -35.8257 -35.7633 -35.6774 -35.6427 -35.6413
   -35.6069 -35.6025 -35.5663 -35.4298 -35.3819 -35.3747 -35.3479 -35.2584
    -6.0029  -4.1132  -3.4219  -2.9803  -2.9786  -2.9611  -2.7150  -2.6931
    -2.6823  -2.0034  -1.9447  -1.9337  -1.8589  -1.8285  -1.8262  -0.3914
    -0.3668  -0.2606   0.7518   0.7608   0.7752   0.9171   1.2288   1.2526
     1.5174   1.6221   1.6710   1.6714   1.7290   1.9042   1.9191   1.9658
     1.9678   2.0102   2.1915   2.3047   3.1347   3.1628   3.2519   3.2537
     3.5263   3.6326   4.0995   4.1212   4.4165   4.4472   4.4809   4.6199
     4.8685   4.9770   5.0526   5.2100   5.4133   5.8836   6.2797   6.3719

          k = 0.0000 0.0171 0.0000 ( 31394 PWs)   bands (ev):

   -77.6208 -77.5949 -77.5805 -77.5555 -77.4817 -77.4564 -71.7084 -71.6723
   -71.5998 -71.5729 -71.5633 -71.5361 -39.6186 -39.5833 -39.5169 -39.4798
   -39.4028 -39.4011 -39.3655 -39.3364 -39.3166 -39.2898 -39.2311 -39.2149
   -39.1655 -39.1283 -39.1242 -39.0646 -39.0098 -38.9280 -35.9679 -35.9439
   -35.9374 -35.8966 -35.8456 -35.8240 -35.7638 -35.6785 -35.6434 -35.6430
   -35.6084 -35.6031 -35.5681 -35.4291 -35.3863 -35.3829 -35.3589 -35.2695
    -5.9353  -4.0446  -3.3511  -2.9756  -2.9254  -2.9074  -2.6865  -2.6432
    -2.6426  -1.9665  -1.9261  -1.9003  -1.8072  -1.7622  -1.7580  -0.3750
    -0.3575  -0.2463   0.6948   0.7867   0.7987   0.9348   1.1923   1.2486
     1.4142   1.4843   1.6386   1.6978   1.7228   1.8681   1.8988   1.9594
     1.9901   2.0369   2.1997   2.3442   3.0489   3.0661   3.1240   3.1266
     3.5381   3.6120   4.0491   4.0658   4.1915   4.2536   4.2949   4.5385
     4.8780   4.9992   5.0754   5.2729   5.4015   5.8124   6.1601   6.2260

          k = 0.0000 0.0342 0.0000 ( 31385 PWs)   bands (ev):

   -77.6194 -77.5962 -77.5792 -77.5568 -77.4804 -77.4577 -71.7066 -71.6742
   -71.5980 -71.5710 -71.5652 -71.5380 -39.5932 -39.5775 -39.5177 -39.4556
   -39.3958 -39.3786 -39.3637 -39.3376 -39.3194 -39.2839 -39.2260 -39.2167
   -39.1671 -39.1532 -39.1205 -39.0668 -39.0339 -38.9524 -35.9449 -35.9419
   -35.9100 -35.9021 -35.8193 -35.8188 -35.7652 -35.6813 -35.6494 -35.6437
   -35.6125 -35.6044 -35.5732 -35.4277 -35.4194 -35.3910 -35.3856 -35.3020
    -5.7368  -3.8446  -3.1439  -2.9857  -2.7712  -2.7522  -2.6223  -2.5030
    -2.5000  -1.8740  -1.8534  -1.7860  -1.6843  -1.5563  -1.5533  -0.3358
    -0.3351  -0.2032   0.5343   0.8327   0.8794   0.9373   1.0710   1.1766
     1.1858   1.2333   1.4794   1.7043   1.7713   1.8424   1.8597   1.9153
     2.0051   2.1290   2.1905   2.4804   2.7678   2.8005   2.8068   2.8934
     3.4800   3.4983   3.6168   3.7789   3.8243   3.9376   3.9829   4.3689
     4.8261   5.0308   5.1781   5.3443   5.3573   5.5583   5.6905   5.7834

          k = 0.0000 0.0512 0.0000 ( 31370 PWs)   bands (ev):

   -77.6173 -77.5984 -77.5771 -77.5588 -77.4783 -77.4598 -71.7037 -71.6772
   -71.5950 -71.5683 -71.5680 -71.5410 -39.5688 -39.5530 -39.5195 -39.4172
   -39.3877 -39.3608 -39.3428 -39.3383 -39.3226 -39.2749 -39.2199 -39.2185
   -39.1928 -39.1700 -39.1147 -39.0724 -39.0705 -38.9913 -35.9456 -35.9116
   -35.8984 -35.8654 -35.8123 -35.7782 -35.7654 -35.6849 -35.6579 -35.6442
   -35.6185 -35.6061 -35.5806 -35.4728 -35.4419 -35.4235 -35.3898 -35.3529
    -5.4195  -3.5324  -3.0632  -2.8187  -2.5653  -2.5149  -2.4919  -2.2868
    -2.2843  -1.7876  -1.6633  -1.5928  -1.4995  -1.2331  -1.2290  -0.3153
    -0.2970  -0.1311   0.2973   0.7195   0.7907   0.8055   0.8501   1.0493
     1.0527   1.1992   1.3410   1.6128   1.7229   1.7548   1.7983   1.9701
     2.0904   2.1729   2.2709   2.2722   2.4272   2.4701   2.6420   2.7963
     2.8951   3.0896   3.1883   3.3767   3.3796   3.7967   3.9299   4.2010
     4.6410   5.0041   5.0087   5.0605   5.1717   5.3218   5.3306   5.3896

          k = 0.0000 0.0683 0.0000 ( 31365 PWs)   bands (ev):

   -77.6145 -77.6011 -77.5745 -77.5615 -77.4756 -77.4625 -71.6998 -71.6811
   -71.5911 -71.5722 -71.5641 -71.5450 -39.5583 -39.5241 -39.4995 -39.3780
   -39.3675 -39.3567 -39.3443 -39.3305 -39.2876 -39.2647 -39.2450 -39.2248
   -39.2086 -39.1745 -39.1226 -39.1073 -39.0757 -39.0418 -35.9450 -35.9204
   -35.8424 -35.8072 -35.8040 -35.7735 -35.7172 -35.6879 -35.6666 -35.6441
   -35.6250 -35.6073 -35.5887 -35.5393 -35.5066 -35.4222 -35.4150 -35.3951
    -5.0055  -3.2597  -3.1474  -2.4371  -2.4132  -2.2349  -2.2318  -2.0393
    -2.0363  -1.6867  -1.4083  -1.3365  -1.2547  -0.8503  -0.8418  -0.2801
    -0.2516  -0.0552   0.0164   0.3770   0.4372   0.4652   0.7626   0.8946
     1.2133   1.3022   1.4000   1.4349   1.4839   1.5192   1.5979   1.7055
     1.9750   2.1076   2.1174   2.1439   2.2618   2.3549   2.4531   2.4803
     2.5020   2.6349   3.1617   3.1937   3.3031   3.7018   3.8537   4.1025
     4.2150   4.5078   4.5804   4.6234   4.9467   4.9846   5.1716   5.2234

          k = 0.0000 0.0854 0.0000 ( 31323 PWs)   bands (ev):

   -77.6113 -77.6043 -77.5713 -77.5646 -77.4724 -77.4656 -71.6953 -71.6857
   -71.5866 -71.5768 -71.5595 -71.5496 -39.5475 -39.5296 -39.4389 -39.3683
   -39.3518 -39.3505 -39.3376 -39.3079 -39.3056 -39.2532 -39.2334 -39.2273
   -39.1991 -39.1805 -39.1804 -39.1053 -39.0944 -39.0822 -35.9422 -35.9294
   -35.7952 -35.7805 -35.7741 -35.7381 -35.6900 -35.6748 -35.6490 -35.6443
   -35.6307 -35.6128 -35.6064 -35.5949 -35.5802 -35.4923 -35.4134 -35.4011
    -4.5287  -3.5943  -2.7624  -2.3864  -2.0015  -1.9782  -1.9759  -1.8366
    -1.8313  -1.6241  -1.1366  -1.0756  -0.9597  -0.5880  -0.5826  -0.2950
    -0.1094  -0.1083  -0.0481   0.0762   0.1543   0.2127   0.7454   0.8179
     1.1209   1.1522   1.2648   1.3039   1.3103   1.4121   1.4872   1.5015
     1.5825   1.6372   1.6943   1.9270   2.0377   2.0970   2.3838   2.4764
     2.6924   2.8590   3.1357   3.3754   3.6241   3.6251   3.6809   3.7007
     4.1194   4.1359   4.2719   4.2772   4.7363   4.7753   4.7774   4.9231

          k = 0.0000-0.1025 0.0000 ( 31304 PWs)   bands (ev):

   -77.6078 -77.6078 -77.5680 -77.5679 -77.4690 -77.4690 -71.6905 -71.6905
   -71.5818 -71.5817 -71.5545 -71.5545 -39.5376 -39.5376 -39.3760 -39.3760
   -39.3566 -39.3566 -39.3429 -39.3429 -39.2523 -39.2523 -39.2338 -39.2338
   -39.1905 -39.1905 -39.1640 -39.1640 -39.0897 -39.0897 -35.9370 -35.9370
   -35.7870 -35.7870 -35.7062 -35.7062 -35.6803 -35.6803 -35.6556 -35.6556
   -35.6355 -35.6354 -35.6061 -35.6061 -35.5675 -35.5675 -35.4074 -35.4074
    -4.0376  -4.0376  -2.4839  -2.4839  -1.8516  -1.8516  -1.7704  -1.7704
    -1.7050  -1.7050  -0.9699  -0.9698  -0.6368  -0.6368  -0.5140  -0.5140
    -0.1509  -0.1509  -0.0504  -0.0504   0.3069   0.3069   0.8279   0.8279
     0.9691   0.9691   1.0861   1.0862   1.2361   1.2361   1.2969   1.2969
     1.6543   1.6544   1.7790   1.7790   1.8625   1.8625   2.4634   2.4634
     3.0204   3.0204   3.1994   3.1994   3.4993   3.4994   3.7652   3.7652
     4.1103   4.1103   4.2527   4.2528   4.4198   4.4202   4.7029   4.7039

          k = 0.0149-0.0084 0.0000 ( 31394 PWs)   bands (ev):

   -77.6208 -77.5949 -77.5805 -77.5555 -77.4817 -77.4564 -71.7084 -71.6723
   -71.5998 -71.5729 -71.5633 -71.5361 -39.6186 -39.5833 -39.5169 -39.4798
   -39.4028 -39.4011 -39.3655 -39.3364 -39.3166 -39.2898 -39.2311 -39.2149
   -39.1655 -39.1283 -39.1242 -39.0646 -39.0098 -38.9280 -35.9679 -35.9439
   -35.9374 -35.8966 -35.8456 -35.8240 -35.7638 -35.6785 -35.6434 -35.6430
   -35.6084 -35.6031 -35.5681 -35.4291 -35.3863 -35.3829 -35.3589 -35.2695
    -5.9353  -4.0446  -3.3511  -2.9756  -2.9254  -2.9074  -2.6865  -2.6432
    -2.6426  -1.9665  -1.9261  -1.9003  -1.8072  -1.7622  -1.7580  -0.3750
    -0.3575  -0.2463   0.6948   0.7867   0.7987   0.9348   1.1923   1.2486
     1.4142   1.4843   1.6386   1.6978   1.7228   1.8681   1.8988   1.9594
     1.9901   2.0369   2.1997   2.3442   3.0489   3.0661   3.1240   3.1266
     3.5381   3.6120   4.0491   4.0658   4.1915   4.2536   4.2949   4.5385
     4.8780   4.9992   5.0754   5.2729   5.4015   5.8124   6.1595   6.2248

          k = 0.0149 0.0087 0.0000 ( 31379 PWs)   bands (ev):

   -77.6212 -77.5944 -77.5810 -77.5550 -77.4821 -77.4560 -71.7091 -71.6717
   -71.6005 -71.5736 -71.5626 -71.5354 -39.6259 -39.5832 -39.5153 -39.4870
   -39.4100 -39.4014 -39.3669 -39.3352 -39.3154 -39.2893 -39.2310 -39.2139
   -39.1642 -39.1246 -39.1194 -39.0637 -39.0014 -38.9196 -35.9798 -35.9480
   -35.9472 -35.8964 -35.8565 -35.8239 -35.7626 -35.6821 -35.6453 -35.6434
   -35.6081 -35.6055 -35.5678 -35.4304 -35.3819 -35.3752 -35.3480 -35.2586
    -5.9338  -4.0431  -3.3506  -2.9547  -2.9254  -2.9247  -2.6742  -2.6614
    -2.6320  -1.9809  -1.9104  -1.8991  -1.7912  -1.7857  -1.7493  -0.3827
    -0.3471  -0.2470   0.7053   0.7779   0.8043   0.9271   1.2304   1.3101
     1.3609   1.6141   1.6472   1.7353   1.7664   1.7790   1.8183   1.9308
     1.9816   2.0289   2.2123   2.2722   3.0357   3.0616   3.1495   3.1714
     3.5237   3.5562   4.0339   4.0993   4.2427   4.2438   4.2647   4.5213
     4.9213   5.0405   5.0585   5.1655   5.4494   5.7633   6.2529   6.2614

          k = 0.0149 0.0258 0.0000 ( 31397 PWs)   bands (ev):

   -77.6208 -77.5949 -77.5805 -77.5555 -77.4817 -77.4564 -71.7085 -71.6723
   -71.5999 -71.5729 -71.5633 -71.5360 -39.6161 -39.5792 -39.5145 -39.4779
   -39.4008 -39.3980 -39.3671 -39.3349 -39.3162 -39.2849 -39.2275 -39.2141
   -39.1641 -39.1279 -39.1223 -39.0643 -39.0096 -38.9278 -35.9737 -35.9507
   -35.9397 -35.8998 -35.8491 -35.8208 -35.7625 -35.6873 -35.6479 -35.6472
   -35.6106 -35.6088 -35.5708 -35.4303 -35.3872 -35.3827 -35.3590 -35.2699
    -5.7993  -3.9073  -3.2113  -2.9222  -2.8996  -2.7759  -2.6090  -2.6049
    -2.5148  -1.9202  -1.8705  -1.8111  -1.6937  -1.6867  -1.5869  -0.3622
    -0.3213  -0.2196   0.6047   0.8108   0.8556   0.9331   1.1842   1.1912
     1.2916   1.4675   1.5837   1.6505   1.7784   1.7916   1.8260   1.8841
     2.0075   2.0596   2.1952   2.3191   2.8616   2.8861   2.9263   2.9918
     3.4693   3.4996   3.8267   3.9061   3.9306   4.0033   4.0341   4.3897
     4.9175   5.0258   5.1378   5.1781   5.4651   5.5660   5.8948   6.0237

          k = 0.0149 0.0429 0.0000 ( 31386 PWs)   bands (ev):

   -77.6194 -77.5963 -77.5792 -77.5568 -77.4803 -77.4578 -71.7067 -71.6742
   -71.5980 -71.5711 -71.5653 -71.5379 -39.5899 -39.5722 -39.5148 -39.4530
   -39.3917 -39.3758 -39.3659 -39.3359 -39.3187 -39.2774 -39.2213 -39.2160
   -39.1654 -39.1530 -39.1179 -39.0666 -39.0339 -38.9523 -35.9536 -35.9495
   -35.9132 -35.9058 -35.8236 -35.8154 -35.7637 -35.6928 -35.6539 -35.6501
   -35.6150 -35.6123 -35.5765 -35.4297 -35.4197 -35.3910 -35.3853 -35.3021
    -5.5397  -3.6491  -2.9597  -2.9446  -2.7519  -2.5712  -2.4988  -2.4435
    -2.3050  -1.7965  -1.7821  -1.6395  -1.5458  -1.4544  -1.2890  -0.3311
    -0.2928  -0.1632   0.4101   0.8290   0.8336   0.9015   0.9794   0.9928
     1.1305   1.3158   1.3983   1.6964   1.7595   1.7724   1.8092   1.9267
     2.0334   2.1400   2.1502   2.4533   2.4906   2.5892   2.6476   2.7558
     3.1975   3.2913   3.3216   3.4472   3.4500   3.9022   3.9185   4.2196
     4.7885   5.0007   5.1385   5.1491   5.2829   5.3640   5.3838   5.5234

          k = 0.0149 0.0599 0.0000 ( 31341 PWs)   bands (ev):

   -77.6172 -77.5984 -77.5771 -77.5588 -77.4782 -77.4598 -71.7037 -71.6772
   -71.5951 -71.5683 -71.5680 -71.5410 -39.5631 -39.5494 -39.5167 -39.4143
   -39.3834 -39.3632 -39.3402 -39.3365 -39.3216 -39.2679 -39.2196 -39.2134
   -39.1931 -39.1687 -39.1116 -39.0726 -39.0706 -38.9915 -35.9546 -35.9162
   -35.9053 -35.8692 -35.8084 -35.7827 -35.7650 -35.6971 -35.6615 -35.6510
   -35.6204 -35.6148 -35.5833 -35.4730 -35.4414 -35.4248 -35.3893 -35.3525
    -5.1718  -3.2960  -3.0948  -2.5826  -2.5320  -2.4374  -2.2408  -2.2170
    -2.0391  -1.6943  -1.5713  -1.3948  -1.3366  -1.1113  -0.9219  -0.2973
    -0.2742  -0.0882   0.1541   0.5421   0.6075   0.6393   0.7621   0.9435
     1.0989   1.3570   1.3674   1.5439   1.5988   1.6283   1.7095   1.8948
     1.9996   2.1333   2.2086   2.2268   2.2791   2.3526   2.4923   2.5397
     2.6970   2.8121   2.9682   3.1829   3.3231   3.7512   3.8640   4.0913
     4.4245   4.6236   4.6556   4.9214   4.9880   5.1688   5.1853   5.4595

          k = 0.0149 0.0770 0.0000 ( 31303 PWs)   bands (ev):

   -77.6144 -77.6011 -77.5744 -77.5615 -77.4755 -77.4625 -71.6999 -71.6811
   -71.5912 -71.5722 -71.5641 -71.5449 -39.5532 -39.5228 -39.4956 -39.3744
   -39.3645 -39.3590 -39.3434 -39.3296 -39.2848 -39.2583 -39.2452 -39.2254
   -39.2044 -39.1741 -39.1233 -39.1042 -39.0763 -39.0425 -35.9528 -35.9222
   -35.8499 -35.8108 -35.8007 -35.7732 -35.7222 -35.6988 -35.6681 -35.6502
   -35.6258 -35.6153 -35.5897 -35.5381 -35.5056 -35.4226 -35.4147 -35.3944
    -4.7226  -3.3650  -2.9014  -2.3458  -2.3198  -2.1475  -1.9801  -1.9632
    -1.7713  -1.5963  -1.3035  -1.1213  -1.0715  -0.7257  -0.6622  -0.2302
    -0.1600  -0.1254  -0.0512   0.1934   0.2848   0.3270   0.6822   0.8010
     1.1932   1.2497   1.3396   1.3675   1.3827   1.4152   1.5266   1.5758
     1.6853   1.7620   1.9550   1.9877   2.1947   2.2184   2.3663   2.4447
     2.5741   2.7308   3.0803   3.3006   3.4362   3.6241   3.7611   3.8488
     3.9887   4.2954   4.3038   4.5407   4.8154   4.9430   5.1018   5.1315

          k = 0.0149-0.1108 0.0000 ( 31258 PWs)   bands (ev):

   -77.6112 -77.6043 -77.5713 -77.5646 -77.4724 -77.4656 -71.6954 -71.6856
   -71.5867 -71.5768 -71.5595 -71.5495 -39.5438 -39.5298 -39.4357 -39.3657
   -39.3540 -39.3503 -39.3367 -39.3068 -39.3057 -39.2478 -39.2350 -39.2251
   -39.1960 -39.1816 -39.1813 -39.1056 -39.0928 -39.0835 -35.9479 -35.9289
   -35.7929 -35.7835 -35.7771 -35.7412 -35.6975 -35.6743 -35.6523 -35.6483
   -35.6301 -35.6158 -35.6075 -35.5940 -35.5787 -35.4904 -35.4146 -35.4003
    -4.2321  -3.7639  -2.5574  -2.3608  -2.1639  -1.8207  -1.7704  -1.7457
    -1.6277  -1.5808  -1.0460  -0.9185  -0.7723  -0.5845  -0.5489  -0.4373
    -0.1621  -0.0796  -0.0766  -0.0163   0.1339   0.3771   0.7304   0.7522
     0.8611   1.0309   1.1056   1.1514   1.1517   1.2197   1.3123   1.4329
     1.5819   1.7208   1.7779   1.8314   1.8502   2.0023   2.4625   2.5167
     2.8469   3.0112   3.0978   3.3715   3.3956   3.5696   3.6401   3.8760
     3.9445   4.0410   4.2413   4.3805   4.6131   4.6917   4.7351   4.8845

          k = 0.0149-0.0937 0.0000 ( 31319 PWs)   bands (ev):

   -77.6078 -77.6078 -77.5680 -77.5679 -77.4690 -77.4690 -71.6906 -71.6905
   -71.5818 -71.5817 -71.5546 -71.5545 -39.5395 -39.5356 -39.3778 -39.3734
   -39.3572 -39.3563 -39.3440 -39.3426 -39.2525 -39.2510 -39.2354 -39.2332
   -39.1922 -39.1885 -39.1661 -39.1622 -39.0919 -39.0878 -35.9399 -35.9340
   -35.7884 -35.7857 -35.7064 -35.7032 -35.6813 -35.6793 -35.6577 -35.6552
   -35.6381 -35.6337 -35.6082 -35.6026 -35.5705 -35.5659 -35.4084 -35.4064
    -4.2411  -3.7557  -2.5557  -2.3701  -2.1620  -1.8238  -1.7776  -1.7546
    -1.6118  -1.5762  -1.0056  -0.9586  -0.7694  -0.6051  -0.5530  -0.4380
    -0.1441  -0.1131  -0.0432  -0.0389   0.1968   0.3244   0.7363   0.7483
     0.8044   0.9439   1.0462   1.1574   1.1788   1.2912   1.3027   1.4254
     1.6087   1.6142   1.7522   1.8697   1.9494   2.0182   2.4643   2.5294
     2.7431   3.0652   3.1932   3.3131   3.5137   3.5650   3.6493   3.7856
     4.0485   4.1331   4.1819   4.4332   4.5159   4.6663   4.7883   4.8746

          k = 0.0149-0.0767 0.0000 ( 31327 PWs)   bands (ev):

   -77.6113 -77.6043 -77.5713 -77.5646 -77.4724 -77.4656 -71.6953 -71.6857
   -71.5866 -71.5769 -71.5594 -71.5496 -39.5507 -39.5293 -39.4417 -39.3701
   -39.3504 -39.3500 -39.3389 -39.3096 -39.3050 -39.2574 -39.2326 -39.2284
   -39.2019 -39.1801 -39.1795 -39.1043 -39.0966 -39.0811 -35.9373 -35.9298
   -35.7974 -35.7803 -35.7680 -35.7347 -35.6821 -35.6764 -35.6456 -35.6397
   -35.6314 -35.6163 -35.6011 -35.5965 -35.5819 -35.4944 -35.4124 -35.4019
    -4.7316  -3.3584  -2.9047  -2.3783  -2.2972  -2.1511  -1.9884  -1.9747
    -1.7639  -1.5879  -1.2362  -1.1931  -1.0765  -0.7244  -0.6735  -0.1883
    -0.1881  -0.1307  -0.0690   0.1766   0.2755   0.2891   0.6999   0.7531
     1.1463   1.2503   1.2805   1.3537   1.3538   1.3811   1.4959   1.4980
     1.6002   1.8301   1.9316   2.0452   2.2233   2.3243   2.3867   2.4551
     2.5709   2.7571   3.2394   3.3472   3.4836   3.6222   3.6676   3.8633
     4.0872   4.2904   4.4842   4.5240   4.7712   4.9647   5.0482   5.1547

          k = 0.0149-0.0596 0.0000 ( 31363 PWs)   bands (ev):

   -77.6145 -77.6011 -77.5745 -77.5615 -77.4756 -77.4625 -71.6998 -71.6811
   -71.5911 -71.5722 -71.5640 -71.5450 -39.5620 -39.5247 -39.5025 -39.3805
   -39.3696 -39.3550 -39.3447 -39.3314 -39.2897 -39.2692 -39.2451 -39.2242
   -39.2115 -39.1750 -39.1221 -39.1094 -39.0752 -39.0414 -35.9391 -35.9189
   -35.8366 -35.8065 -35.8045 -35.7734 -35.7133 -35.6794 -35.6661 -35.6394
   -35.6246 -35.6017 -35.5880 -35.5404 -35.5075 -35.4216 -35.4157 -35.3957
    -5.1801  -3.3017  -3.0908  -2.5738  -2.5659  -2.4254  -2.2520  -2.2275
    -2.0401  -1.6864  -1.5030  -1.4690  -1.3422  -1.1101  -0.9351  -0.3175
    -0.2440  -0.1066   0.1314   0.5166   0.5660   0.6249   0.7831   0.8832
     1.1644   1.1948   1.3136   1.4932   1.5476   1.5995   1.7510   1.8031
     1.9346   2.2479   2.2525   2.2992   2.3436   2.3470   2.4825   2.5192
     2.6518   2.9557   3.0528   3.3347   3.3767   3.6389   3.7814   4.2865
     4.3934   4.5475   4.8173   4.9323   5.0689   5.1314   5.3032   5.3314

          k = 0.0149-0.0425 0.0000 ( 31382 PWs)   bands (ev):

   -77.6173 -77.5983 -77.5772 -77.5588 -77.4783 -77.4598 -71.7036 -71.6772
   -71.5950 -71.5683 -71.5680 -71.5410 -39.5720 -39.5549 -39.5212 -39.4188
   -39.3901 -39.3594 -39.3443 -39.3392 -39.3233 -39.2789 -39.2214 -39.2200
   -39.1927 -39.1709 -39.1164 -39.0723 -39.0704 -38.9912 -35.9403 -35.9089
   -35.8943 -35.8633 -35.8147 -35.7756 -35.7655 -35.6776 -35.6559 -35.6402
   -35.6173 -35.6013 -35.5791 -35.4726 -35.4422 -35.4228 -35.3901 -35.3532
    -5.5465  -3.6549  -2.9592  -2.9448  -2.7743  -2.5374  -2.5301  -2.4539
    -2.3081  -1.7897  -1.7178  -1.7098  -1.5524  -1.4569  -1.2962  -0.3376
    -0.2815  -0.1744   0.3818   0.8297   0.8354   0.8836   0.9088   1.0442
     1.0966   1.1298   1.2984   1.6413   1.7406   1.7717   1.8297   1.9978
     2.0522   2.1466   2.2956   2.4711   2.5785   2.5871   2.6896   2.7237
     3.0826   3.2711   3.4318   3.5429   3.5787   3.7733   3.8417   4.3682
     4.7367   4.9915   5.1430   5.2079   5.2620   5.3700   5.4791   5.5426

          k = 0.0149-0.0254 0.0000 ( 31391 PWs)   bands (ev):

   -77.6195 -77.5962 -77.5792 -77.5568 -77.4804 -77.4578 -71.7066 -71.6742
   -71.5979 -71.5710 -71.5652 -71.5380 -39.5944 -39.5794 -39.5188 -39.4566
   -39.3972 -39.3796 -39.3629 -39.3382 -39.3196 -39.2862 -39.2277 -39.2169
   -39.1678 -39.1533 -39.1215 -39.0669 -39.0340 -38.9524 -35.9417 -35.9389
   -35.9089 -35.9007 -35.8208 -35.8171 -35.7658 -35.6771 -35.6478 -35.6413
   -35.6116 -35.6017 -35.5721 -35.4267 -35.4196 -35.3911 -35.3857 -35.3020
    -5.8037  -3.9115  -3.2123  -2.9319  -2.9127  -2.7603  -2.6251  -2.6031
    -2.5165  -1.8777  -1.8719  -1.8544  -1.7107  -1.6781  -1.5869  -0.3508
    -0.3360  -0.2211   0.5793   0.8230   0.8525   0.9768   1.0597   1.1944
     1.2143   1.3157   1.4677   1.6940   1.7719   1.8597   1.8719   1.9105
     2.0477   2.1339   2.1963   2.4833   2.8718   2.8859   2.8890   2.9214
     3.5262   3.5989   3.7459   3.9220   3.9332   3.9596   4.0211   4.4691
     4.8563   4.9785   5.1592   5.3030   5.4184   5.7239   5.8819   5.8839

          k = 0.0298-0.0167 0.0000 ( 31385 PWs)   bands (ev):

   -77.6194 -77.5962 -77.5792 -77.5568 -77.4804 -77.4577 -71.7066 -71.6742
   -71.5980 -71.5710 -71.5652 -71.5380 -39.5932 -39.5775 -39.5177 -39.4556
   -39.3958 -39.3786 -39.3637 -39.3376 -39.3194 -39.2839 -39.2260 -39.2167
   -39.1671 -39.1532 -39.1205 -39.0668 -39.0339 -38.9524 -35.9449 -35.9419
   -35.9100 -35.9021 -35.8193 -35.8188 -35.7652 -35.6813 -35.6494 -35.6437
   -35.6125 -35.6044 -35.5732 -35.4277 -35.4194 -35.3910 -35.3856 -35.3020
    -5.7368  -3.8446  -3.1439  -2.9857  -2.7712  -2.7522  -2.6223  -2.5030
    -2.5000  -1.8740  -1.8534  -1.7860  -1.6843  -1.5563  -1.5533  -0.3358
    -0.3351  -0.2032   0.5343   0.8327   0.8794   0.9373   1.0710   1.1766
     1.1858   1.2333   1.4794   1.7043   1.7713   1.8424   1.8597   1.9153
     2.0051   2.1290   2.1905   2.4804   2.7678   2.8005   2.8068   2.8934
     3.4800   3.4983   3.6168   3.7789   3.8243   3.9376   3.9829   4.3689
     4.8261   5.0309   5.1781   5.3443   5.3573   5.5582   5.6906   5.7838

          k = 0.0298 0.0003 0.0000 ( 31397 PWs)   bands (ev):

   -77.6208 -77.5949 -77.5805 -77.5555 -77.4817 -77.4564 -71.7085 -71.6723
   -71.5999 -71.5729 -71.5633 -71.5360 -39.6161 -39.5792 -39.5145 -39.4779
   -39.4008 -39.3980 -39.3671 -39.3349 -39.3162 -39.2849 -39.2275 -39.2141
   -39.1641 -39.1279 -39.1223 -39.0643 -39.0096 -38.9278 -35.9737 -35.9507
   -35.9397 -35.8998 -35.8491 -35.8208 -35.7625 -35.6873 -35.6479 -35.6472
   -35.6106 -35.6088 -35.5708 -35.4303 -35.3872 -35.3827 -35.3590 -35.2699
    -5.7993  -3.9073  -3.2113  -2.9222  -2.8996  -2.7759  -2.6090  -2.6049
    -2.5148  -1.9202  -1.8705  -1.8111  -1.6937  -1.6867  -1.5869  -0.3622
    -0.3213  -0.2196   0.6047   0.8108   0.8556   0.9331   1.1842   1.1912
     1.2916   1.4675   1.5837   1.6505   1.7784   1.7916   1.8260   1.8841
     2.0075   2.0596   2.1952   2.3191   2.8616   2.8861   2.9263   2.9918
     3.4693   3.4996   3.8267   3.9061   3.9306   4.0033   4.0341   4.3897
     4.9176   5.0258   5.1378   5.1781   5.4651   5.5660   5.8948   6.0236

          k = 0.0298 0.0174 0.0000 ( 31401 PWs)   bands (ev):

   -77.6212 -77.5945 -77.5809 -77.5550 -77.4821 -77.4560 -71.7092 -71.6717
   -71.6006 -71.5736 -71.5627 -71.5354 -39.6223 -39.5773 -39.5117 -39.4843
   -39.4071 -39.3968 -39.3693 -39.3330 -39.3149 -39.2823 -39.2259 -39.2127
   -39.1621 -39.1218 -39.1188 -39.0633 -39.0011 -38.9192 -35.9879 -35.9569
   -35.9514 -35.9011 -35.8615 -35.8196 -35.7607 -35.6948 -35.6524 -35.6491
   -35.6141 -35.6114 -35.5719 -35.4319 -35.3817 -35.3768 -35.3482 -35.2591
    -5.7308  -3.8386  -3.1441  -2.9560  -2.7692  -2.7675  -2.6130  -2.5068
    -2.4878  -1.9152  -1.7994  -1.7872  -1.6817  -1.5793  -1.5308  -0.3623
    -0.2913  -0.2137   0.5716   0.8168   0.8709   0.9288   1.0959   1.1928
     1.4248   1.4786   1.5212   1.6516   1.7155   1.7539   1.8137   1.8782
     1.9458   2.1644   2.1735   2.2100   2.7653   2.8158   2.8752   2.9074
     3.3623   3.5097   3.7231   3.7297   3.7502   3.9315   4.0534   4.3452
     4.9690   4.9856   4.9968   5.2509   5.4344   5.4941   5.7834   6.1282

          k = 0.0298 0.0345 0.0000 ( 31357 PWs)   bands (ev):

   -77.6207 -77.5949 -77.5805 -77.5555 -77.4816 -77.4564 -71.7086 -71.6724
   -71.6000 -71.5730 -71.5634 -71.5360 -39.6117 -39.5722 -39.5103 -39.4745
   -39.3972 -39.3926 -39.3699 -39.3324 -39.3155 -39.2765 -39.2215 -39.2127
   -39.1616 -39.1273 -39.1188 -39.0638 -39.0093 -38.9275 -35.9832 -35.9621
   -35.9441 -35.9053 -35.8551 -35.8160 -35.7604 -35.7025 -35.6563 -35.6539
   -35.6193 -35.6143 -35.5757 -35.4320 -35.3889 -35.3825 -35.3592 -35.2704
    -5.5352  -3.6444  -2.9655  -2.9042  -2.7771  -2.5466  -2.5213  -2.4328
    -2.3011  -1.8320  -1.7320  -1.6426  -1.5474  -1.4581  -1.2848  -0.3443
    -0.2556  -0.1828   0.4382   0.8079   0.8535   0.8632   1.0019   1.0884
     1.1932   1.3733   1.4787   1.6748   1.7360   1.7609   1.8243   1.8696
     2.0316   2.0807   2.0943   2.4022   2.5285   2.6002   2.6181   2.7177
     3.2350   3.2707   3.2734   3.4437   3.4779   3.8236   3.9771   4.2387
     4.8810   4.8847   4.9962   5.0956   5.3423   5.4246   5.4700   5.5404

          k = 0.0298 0.0516 0.0000 ( 31335 PWs)   bands (ev):

   -77.6193 -77.5963 -77.5792 -77.5568 -77.4803 -77.4577 -71.7067 -71.6742
   -71.5982 -71.5711 -71.5653 -71.5379 -39.5852 -39.5648 -39.5108 -39.4494
   -39.3861 -39.3719 -39.3689 -39.3336 -39.3180 -39.2685 -39.2152 -39.2147
   -39.1633 -39.1526 -39.1139 -39.0662 -39.0338 -38.9522 -35.9651 -35.9593
   -35.9181 -35.9107 -35.8299 -35.8108 -35.7618 -35.7084 -35.6601 -35.6587
   -35.6233 -35.6183 -35.5810 -35.4315 -35.4207 -35.3910 -35.3849 -35.3024
    -5.2240  -3.3421  -2.8609  -2.8317  -2.6183  -2.3663  -2.3408  -2.2432
    -2.0328  -1.6702  -1.6318  -1.4148  -1.2948  -1.2931  -0.9482  -0.3179
    -0.2338  -0.1303   0.2320   0.6219   0.6415   0.7461   0.8277   0.9317
     1.0582   1.3336   1.4468   1.5800   1.6517   1.6666   1.7921   1.8791
     1.9696   2.1171   2.1647   2.2546   2.2961   2.3154   2.5374   2.6162
     2.6948   2.8504   2.9861   3.1505   3.3806   3.7594   3.7976   4.1532
     4.4968   4.5889   4.7363   4.9407   5.0784   5.1574   5.3281   5.4358

          k = 0.0298 0.0686 0.0000 ( 31297 PWs)   bands (ev):

   -77.6171 -77.5984 -77.5771 -77.5588 -77.4782 -77.4598 -71.7038 -71.6772
   -71.5952 -71.5683 -71.5681 -71.5409 -39.5564 -39.5450 -39.5138 -39.4108
   -39.3785 -39.3661 -39.3373 -39.3339 -39.3211 -39.2596 -39.2191 -39.2079
   -39.1933 -39.1674 -39.1078 -39.0729 -39.0706 -38.9919 -35.9647 -35.9213
   -35.9129 -35.8736 -35.8044 -35.7877 -35.7645 -35.7110 -35.6661 -35.6587
   -35.6250 -35.6227 -35.5866 -35.4733 -35.4409 -35.4263 -35.3888 -35.3522
    -4.8170  -3.0703  -2.9683  -2.6849  -2.2483  -2.2187  -2.1067  -1.9779
    -1.7228  -1.5097  -1.4391  -1.1379  -1.0731  -0.9389  -0.7222  -0.2433
    -0.1943  -0.0901  -0.0102   0.3165   0.4152   0.4844   0.5960   0.7114
     1.1455   1.2642   1.3629   1.3853   1.4339   1.4478   1.5623   1.6252
     1.7773   1.8431   2.0431   2.0466   2.2396   2.3292   2.4015   2.4653
     2.4752   2.7048   3.0577   3.2652   3.3269   3.5945   3.7148   3.9268
     3.9461   4.3390   4.4250   4.8178   4.8280   5.0914   5.1473   5.3929

          k = 0.0298-0.1192 0.0000 ( 31251 PWs)   bands (ev):

   -77.6144 -77.6011 -77.5744 -77.5615 -77.4755 -77.4625 -71.6999 -71.6811
   -71.5913 -71.5722 -71.5641 -71.5449 -39.5480 -39.5212 -39.4920 -39.3705
   -39.3615 -39.3613 -39.3421 -39.3294 -39.2819 -39.2520 -39.2454 -39.2260
   -39.2002 -39.1739 -39.1242 -39.1008 -39.0769 -39.0435 -35.9605 -35.9239
   -35.8570 -35.8144 -35.7977 -35.7725 -35.7270 -35.7091 -35.6703 -35.6560
   -35.6267 -35.6234 -35.5911 -35.5372 -35.5047 -35.4229 -35.4149 -35.3938
    -4.3453  -3.4189  -2.6104  -2.5330  -2.1964  -1.8958  -1.7917  -1.7295
    -1.4808  -1.4124  -1.1562  -0.8905  -0.8181  -0.7089  -0.5942  -0.2963
    -0.1700  -0.1642  -0.0715  -0.0208   0.2037   0.4191   0.5661   0.6000
     0.8312   1.0593   1.0828   1.1060   1.1264   1.2026   1.3664   1.3912
     1.6567   1.7871   1.8052   1.9424   1.9694   2.1857   2.4603   2.5585
     2.5951   2.9921   3.0902   3.3439   3.4146   3.4507   3.6419   3.7254
     3.9359   4.0240   4.4166   4.5167   4.7666   4.9576   5.1344   5.1366

          k = 0.0298-0.1021 0.0000 ( 31278 PWs)   bands (ev):

   -77.6112 -77.6044 -77.5713 -77.5646 -77.4724 -77.4656 -71.6954 -71.6856
   -71.5867 -71.5768 -71.5595 -71.5495 -39.5405 -39.5298 -39.4327 -39.3630
   -39.3561 -39.3498 -39.3365 -39.3084 -39.3034 -39.2425 -39.2368 -39.2228
   -39.1938 -39.1826 -39.1824 -39.1056 -39.0919 -39.0848 -35.9527 -35.9284
   -35.7910 -35.7881 -35.7768 -35.7434 -35.7029 -35.6749 -35.6548 -35.6510
   -35.6297 -35.6209 -35.6067 -35.5939 -35.5777 -35.4890 -35.4157 -35.3996
    -3.8712  -3.8540  -2.5175  -2.3002  -2.2949  -1.8109  -1.5950  -1.4922
    -1.4702  -1.4088  -0.9348  -0.7975  -0.7299  -0.6026  -0.5210  -0.5189
    -0.2642  -0.2339  -0.1192   0.0577   0.1654   0.5205   0.5653   0.5942
     0.6002   0.6478   0.8800   0.9862   0.9943   1.0372   1.3520   1.3937
     1.5979   1.7582   1.7702   1.8780   1.9667   2.0594   2.5659   2.5828
     2.7406   2.9097   3.2490   3.2678   3.3871   3.5048   3.6497   3.8177
     3.9061   4.1705   4.4095   4.5817   4.5955   4.8171   4.8950   5.0605

          k = 0.0298-0.0850 0.0000 ( 31315 PWs)   bands (ev):

   -77.6078 -77.6077 -77.5680 -77.5680 -77.4690 -77.4690 -71.6906 -71.6904
   -71.5818 -71.5817 -71.5546 -71.5544 -39.5408 -39.5342 -39.3788 -39.3701
   -39.3588 -39.3556 -39.3456 -39.3426 -39.2516 -39.2494 -39.2375 -39.2334
   -39.1932 -39.1866 -39.1680 -39.1610 -39.0936 -39.0865 -35.9421 -35.9317
   -35.7894 -35.7848 -35.7050 -35.6978 -35.6841 -35.6779 -35.6609 -35.6554
   -35.6409 -35.6328 -35.6089 -35.5984 -35.5743 -35.5653 -35.4092 -35.4058
    -4.3633  -3.4042  -2.5893  -2.5720  -2.2001  -1.9086  -1.7983  -1.7480
    -1.4586  -1.4017  -1.0927  -0.9537  -0.8130  -0.7362  -0.6056  -0.3006
    -0.2097  -0.1305  -0.0759  -0.0037   0.1999   0.3461   0.5328   0.5812
     0.7639   0.9369   1.0156   1.0738   1.1514   1.2381   1.3052   1.4515
     1.5532   1.7145   1.8084   2.0438   2.0866   2.2440   2.4478   2.4741
     2.6423   3.0291   3.2370   3.3706   3.4710   3.5728   3.6076   3.6836
     3.9836   4.3248   4.3357   4.5937   4.6208   5.0606   5.0631   5.1784

          k = 0.0298-0.0680 0.0000 ( 31330 PWs)   bands (ev):

   -77.6113 -77.6043 -77.5713 -77.5646 -77.4724 -77.4656 -71.6953 -71.6857
   -71.5865 -71.5769 -71.5594 -71.5496 -39.5525 -39.5291 -39.4432 -39.3710
   -39.3501 -39.3490 -39.3400 -39.3104 -39.3048 -39.2598 -39.2328 -39.2284
   -39.2035 -39.1800 -39.1791 -39.1030 -39.0986 -39.0805 -35.9343 -35.9301
   -35.7987 -35.7804 -35.7637 -35.7325 -35.6780 -35.6766 -35.6434 -35.6360
   -35.6316 -35.6204 -35.5979 -35.5974 -35.5831 -35.4958 -35.4119 -35.4024
    -4.8344  -3.0608  -2.9766  -2.7034  -2.2528  -2.2235  -2.1270  -1.9999
    -1.7177  -1.4989  -1.3717  -1.2166  -1.0813  -0.9374  -0.7342  -0.2152
    -0.2049  -0.1201  -0.0596   0.2841   0.3750   0.4338   0.6082   0.6314
     1.1524   1.2225   1.2570   1.3165   1.3514   1.3694   1.4510   1.6573
     1.6602   1.8993   1.9131   2.1653   2.3266   2.3694   2.4237   2.5351
     2.6048   2.7854   3.3523   3.3889   3.3992   3.5559   3.5651   3.9463
     4.0198   4.4599   4.6848   4.7424   4.8375   5.0844   5.2389   5.2698

          k = 0.0298-0.0509 0.0000 ( 31345 PWs)   bands (ev):

   -77.6146 -77.6011 -77.5744 -77.5615 -77.4756 -77.4625 -71.6997 -71.6812
   -71.5911 -71.5722 -71.5640 -71.5450 -39.5633 -39.5249 -39.5037 -39.3814
   -39.3703 -39.3544 -39.3448 -39.3318 -39.2905 -39.2708 -39.2451 -39.2240
   -39.2126 -39.1752 -39.1219 -39.1101 -39.0751 -39.0413 -35.9369 -35.9184
   -35.8345 -35.8075 -35.8035 -35.7734 -35.7118 -35.6762 -35.6660 -35.6376
   -35.6244 -35.5997 -35.5879 -35.5408 -35.5079 -35.4212 -35.4161 -35.3959
    -5.2391  -3.3541  -2.8827  -2.8238  -2.6277  -2.3629  -2.3592  -2.2677
    -2.0377  -1.6354  -1.5981  -1.4885  -1.3156  -1.2812  -0.9648  -0.3297
    -0.2197  -0.1453   0.1742   0.5864   0.6141   0.7002   0.7730   0.8451
     1.1109   1.2253   1.2450   1.5079   1.5483   1.6683   1.7885   1.8131
     1.8792   2.2765   2.2835   2.3609   2.3772   2.3950   2.4928   2.5344
     2.7140   3.0192   3.1177   3.3641   3.5601   3.6049   3.6251   4.3940
     4.4297   4.5711   4.9538   4.9594   5.0540   5.2539   5.3676   5.4023

          k = 0.0298-0.0338 0.0000 ( 31382 PWs)   bands (ev):

   -77.6173 -77.5983 -77.5772 -77.5588 -77.4783 -77.4598 -71.7036 -71.6772
   -71.5950 -71.5683 -71.5680 -71.5410 -39.5720 -39.5549 -39.5212 -39.4188
   -39.3901 -39.3594 -39.3443 -39.3392 -39.3233 -39.2789 -39.2214 -39.2200
   -39.1927 -39.1709 -39.1164 -39.0723 -39.0704 -38.9912 -35.9403 -35.9089
   -35.8943 -35.8633 -35.8147 -35.7756 -35.7656 -35.6776 -35.6559 -35.6402
   -35.6173 -35.6013 -35.5791 -35.4726 -35.4422 -35.4228 -35.3901 -35.3532
    -5.5465  -3.6549  -2.9592  -2.9448  -2.7743  -2.5374  -2.5301  -2.4539
    -2.3081  -1.7897  -1.7178  -1.7098  -1.5524  -1.4569  -1.2962  -0.3376
    -0.2815  -0.1744   0.3818   0.8297   0.8354   0.8836   0.9088   1.0442
     1.0966   1.1298   1.2984   1.6413   1.7406   1.7717   1.8297   1.9978
     2.0522   2.1466   2.2956   2.4711   2.5785   2.5871   2.6896   2.7237
     3.0826   3.2711   3.4318   3.5429   3.5787   3.7733   3.8417   4.3682
     4.7367   4.9916   5.1430   5.2080   5.2626   5.3696   5.4808   5.5426

          k = 0.0447-0.0251 0.0000 ( 31370 PWs)   bands (ev):

   -77.6173 -77.5984 -77.5771 -77.5588 -77.4783 -77.4598 -71.7037 -71.6772
   -71.5950 -71.5683 -71.5680 -71.5410 -39.5688 -39.5530 -39.5195 -39.4172
   -39.3877 -39.3608 -39.3428 -39.3383 -39.3226 -39.2749 -39.2199 -39.2185
   -39.1928 -39.1700 -39.1147 -39.0724 -39.0705 -38.9913 -35.9456 -35.9116
   -35.8984 -35.8654 -35.8123 -35.7782 -35.7654 -35.6849 -35.6579 -35.6442
   -35.6185 -35.6061 -35.5806 -35.4728 -35.4419 -35.4235 -35.3898 -35.3529
    -5.4195  -3.5324  -3.0632  -2.8187  -2.5653  -2.5149  -2.4919  -2.2868
    -2.2843  -1.7876  -1.6633  -1.5928  -1.4995  -1.2331  -1.2290  -0.3153
    -0.2970  -0.1311   0.2973   0.7195   0.7907   0.8055   0.8501   1.0493
     1.0527   1.1992   1.3410   1.6128   1.7229   1.7548   1.7983   1.9701
     2.0904   2.1729   2.2709   2.2722   2.4272   2.4701   2.6420   2.7963
     2.8950   3.0897   3.1883   3.3767   3.3796   3.7967   3.9299   4.2010
     4.6410   5.0041   5.0087   5.0605   5.1729   5.3218   5.3358   5.4630

          k = 0.0447-0.0080 0.0000 ( 31386 PWs)   bands (ev):

   -77.6194 -77.5963 -77.5792 -77.5568 -77.4803 -77.4578 -71.7067 -71.6742
   -71.5980 -71.5711 -71.5653 -71.5379 -39.5899 -39.5722 -39.5148 -39.4530
   -39.3917 -39.3758 -39.3659 -39.3359 -39.3187 -39.2774 -39.2213 -39.2160
   -39.1654 -39.1530 -39.1179 -39.0666 -39.0339 -38.9523 -35.9536 -35.9495
   -35.9132 -35.9058 -35.8236 -35.8154 -35.7637 -35.6928 -35.6539 -35.6501
   -35.6150 -35.6123 -35.5765 -35.4297 -35.4197 -35.3910 -35.3853 -35.3021
    -5.5397  -3.6491  -2.9597  -2.9446  -2.7519  -2.5712  -2.4988  -2.4435
    -2.3050  -1.7965  -1.7821  -1.6395  -1.5458  -1.4544  -1.2890  -0.3311
    -0.2928  -0.1632   0.4101   0.8290   0.8336   0.9015   0.9794   0.9928
     1.1305   1.3158   1.3983   1.6964   1.7595   1.7724   1.8092   1.9267
     2.0334   2.1400   2.1502   2.4533   2.4906   2.5892   2.6476   2.7558
     3.1975   3.2913   3.3216   3.4472   3.4500   3.9022   3.9185   4.2196
     4.7885   5.0007   5.1385   5.1491   5.2828   5.3641   5.3836   5.5236

          k = 0.0447 0.0090 0.0000 ( 31357 PWs)   bands (ev):

   -77.6207 -77.5949 -77.5805 -77.5555 -77.4816 -77.4564 -71.7086 -71.6724
   -71.6000 -71.5730 -71.5634 -71.5360 -39.6117 -39.5722 -39.5103 -39.4745
   -39.3972 -39.3926 -39.3699 -39.3324 -39.3155 -39.2765 -39.2215 -39.2127
   -39.1616 -39.1273 -39.1188 -39.0638 -39.0093 -38.9275 -35.9832 -35.9621
   -35.9441 -35.9053 -35.8551 -35.8160 -35.7604 -35.7025 -35.6563 -35.6539
   -35.6193 -35.6143 -35.5757 -35.4320 -35.3889 -35.3825 -35.3592 -35.2704
    -5.5352  -3.6444  -2.9655  -2.9042  -2.7771  -2.5466  -2.5213  -2.4328
    -2.3011  -1.8320  -1.7320  -1.6426  -1.5474  -1.4581  -1.2848  -0.3443
    -0.2556  -0.1828   0.4382   0.8079   0.8535   0.8632   1.0019   1.0884
     1.1932   1.3733   1.4787   1.6748   1.7360   1.7609   1.8243   1.8696
     2.0316   2.0807   2.0943   2.4022   2.5285   2.6002   2.6181   2.7177
     3.2350   3.2707   3.2734   3.4437   3.4779   3.8236   3.9771   4.2387
     4.8810   4.8847   4.9962   5.0956   5.3423   5.4246   5.4701   5.5405

          k = 0.0447 0.0261 0.0000 ( 31350 PWs)   bands (ev):

   -77.6211 -77.5945 -77.5809 -77.5550 -77.4821 -77.4560 -71.7092 -71.6717
   -71.6007 -71.5737 -71.5627 -71.5353 -39.6174 -39.5691 -39.5068 -39.4805
   -39.4030 -39.3906 -39.3725 -39.3302 -39.3142 -39.2726 -39.2192 -39.2107
   -39.1593 -39.1179 -39.1176 -39.0625 -39.0007 -38.9188 -35.9986 -35.9697
   -35.9565 -35.9075 -35.8683 -35.8145 -35.7583 -35.7121 -35.6620 -35.6569
   -35.6263 -35.6156 -35.5777 -35.4336 -35.3814 -35.3789 -35.3485 -35.2599
    -5.4066  -3.5197  -3.0339  -2.8072  -2.5322  -2.5288  -2.5088  -2.2715
    -2.2712  -1.8141  -1.6058  -1.5986  -1.5050  -1.2611  -1.1910  -0.3390
    -0.2123  -0.1824   0.3684   0.7074   0.8033   0.8083   1.0255   1.0505
     1.1840   1.2816   1.5646   1.6887   1.7315   1.7547   1.8314   1.8597
     1.9961   2.0322   2.0461   2.3923   2.3964   2.5043   2.5272   2.6190
     3.0400   3.0975   3.1338   3.1417   3.4738   3.7190   4.0298   4.1722
     4.7183   4.7979   4.8974   4.9644   5.2102   5.3203   5.5055   5.5525

          k = 0.0447 0.0432 0.0000 ( 31323 PWs)   bands (ev):

   -77.6206 -77.5949 -77.5804 -77.5555 -77.4816 -77.4564 -71.7086 -71.6724
   -71.6001 -71.5730 -71.5634 -71.5360 -39.6066 -39.5639 -39.5054 -39.4707
   -39.3930 -39.3863 -39.3734 -39.3297 -39.3148 -39.2666 -39.2149 -39.2106
   -39.1591 -39.1265 -39.1143 -39.0631 -39.0089 -38.9271 -35.9939 -35.9748
   -35.9494 -35.9115 -35.8620 -35.8112 -35.7580 -35.7198 -35.6660 -35.6616
   -35.6318 -35.6183 -35.5815 -35.4336 -35.3908 -35.3821 -35.3595 -35.2711
    -5.1605  -3.2861  -3.0550  -2.5689  -2.5655  -2.4033  -2.2765  -2.1772
    -2.0307  -1.7156  -1.5176  -1.3986  -1.3457  -1.1130  -0.9114  -0.3158
    -0.1843  -0.1608   0.2240   0.5283   0.6215   0.6988   0.8785   1.0014
     1.0934   1.2768   1.5376   1.6069   1.6243   1.7113   1.8023   1.8354
     1.9785   2.0645   2.1089   2.1795   2.2292   2.2982   2.4964   2.5954
     2.6051   2.7944   2.8574   3.0505   3.4229   3.6477   3.9156   4.1506
     4.4704   4.4734   4.7008   4.8053   4.9013   5.1229   5.3520   5.5344

          k = 0.0447 0.0603 0.0000 ( 31306 PWs)   bands (ev):

   -77.6192 -77.5963 -77.5791 -77.5567 -77.4803 -77.4577 -71.7068 -71.6742
   -71.5983 -71.5711 -71.5653 -71.5379 -39.5805 -39.5574 -39.5068 -39.4458
   -39.3806 -39.3721 -39.3680 -39.3313 -39.3177 -39.2595 -39.2131 -39.2094
   -39.1615 -39.1522 -39.1096 -39.0658 -39.0337 -38.9522 -35.9762 -35.9688
   -35.9233 -35.9157 -35.8360 -35.8066 -35.7600 -35.7238 -35.6673 -35.6665
   -35.6346 -35.6215 -35.5858 -35.4324 -35.4224 -35.3910 -35.3845 -35.3027
    -4.8102  -3.0443  -2.9415  -2.7230  -2.2364  -2.2038  -2.1213  -1.9610
    -1.7202  -1.5361  -1.3938  -1.1365  -1.0824  -0.9372  -0.7167  -0.2091
    -0.2057  -0.1264   0.0447   0.3591   0.3641   0.5338   0.6446   0.7173
     1.1151   1.2958   1.3463   1.4158   1.4202   1.4774   1.5963   1.6768
     1.8165   1.8598   2.0208   2.0882   2.1861   2.3006   2.3368   2.4279
     2.4976   2.6313   3.0205   3.1994   3.3373   3.6297   3.6905   3.9218
     3.9500   4.3210   4.4584   4.7129   4.9133   4.9196   5.2292   5.4886

          k = 0.0447-0.1276 0.0000 ( 31260 PWs)   bands (ev):

   -77.6171 -77.5984 -77.5771 -77.5588 -77.4782 -77.4598 -71.7039 -71.6772
   -71.5953 -71.5683 -71.5681 -71.5409 -39.5506 -39.5409 -39.5114 -39.4077
   -39.3742 -39.3686 -39.3349 -39.3307 -39.3215 -39.2523 -39.2184 -39.2034
   -39.1935 -39.1666 -39.1041 -39.0733 -39.0706 -38.9923 -35.9733 -35.9257
   -35.9192 -35.8776 -35.8012 -35.7919 -35.7640 -35.7227 -35.6703 -35.6654
   -35.6338 -35.6247 -35.5896 -35.4735 -35.4406 -35.4276 -35.3884 -35.3521
    -4.3778  -3.0201  -2.9816  -2.5791  -2.0250  -2.0132  -1.7959  -1.7155
    -1.4147  -1.2860  -1.2478  -0.8759  -0.8038  -0.7278  -0.7008  -0.3319
    -0.2016  -0.1467  -0.0511   0.0944   0.3589   0.4058   0.4372   0.4779
     0.9454   0.9543   1.0581   1.0794   1.1580   1.2650   1.3215   1.4061
     1.6572   1.8122   1.8286   2.0430   2.1303   2.2995   2.3902   2.4005
     2.5321   3.0077   3.0750   3.2586   3.4163   3.4858   3.5206   3.6837
     3.8639   4.1377   4.4180   4.7044   4.7536   5.0031   5.1698   5.2953

          k = 0.0447-0.1105 0.0000 ( 31292 PWs)   bands (ev):

   -77.6144 -77.6012 -77.5744 -77.5615 -77.4755 -77.4625 -71.7000 -71.6811
   -71.5914 -71.5723 -71.5642 -71.5448 -39.5442 -39.5198 -39.4895 -39.3676
   -39.3634 -39.3588 -39.3407 -39.3298 -39.2798 -39.2489 -39.2439 -39.2264
   -39.1973 -39.1740 -39.1250 -39.0981 -39.0775 -39.0444 -35.9661 -35.9250
   -35.8621 -35.8169 -35.7956 -35.7716 -35.7304 -35.7164 -35.6723 -35.6601
   -35.6292 -35.6275 -35.5923 -35.5369 -35.5042 -35.4229 -35.4153 -35.3934
    -3.8968  -3.4398  -2.9425  -2.2435  -2.0431  -1.8652  -1.4869  -1.3729
    -1.2731  -1.1596  -0.9808  -0.9516  -0.6388  -0.5843  -0.4647  -0.4312
    -0.3982  -0.2003  -0.1656  -0.1626   0.2089   0.3463   0.3927   0.5696
     0.6516   0.6688   0.7098   0.8385   0.8970   0.9999   1.3400   1.4126
     1.6031   1.6603   1.8697   1.9379   2.0761   2.2527   2.5133   2.5193
     2.6859   2.8118   3.1045   3.3417   3.3657   3.4344   3.6933   3.7219
     3.8425   4.2980   4.4243   4.5702   4.9781   5.0478   5.1888   5.2048

          k = 0.0447-0.0934 0.0000 ( 31311 PWs)   bands (ev):

   -77.6112 -77.6044 -77.5713 -77.5646 -77.4724 -77.4657 -71.6955 -71.6856
   -71.5868 -71.5768 -71.5596 -71.5495 -39.5386 -39.5299 -39.4309 -39.3610
   -39.3574 -39.3495 -39.3366 -39.3095 -39.3019 -39.2391 -39.2380 -39.2213
   -39.1931 -39.1832 -39.1830 -39.1054 -39.0916 -39.0857 -35.9554 -35.9280
   -35.7908 -35.7899 -35.7763 -35.7445 -35.7056 -35.6755 -35.6561 -35.6524
   -35.6296 -35.6240 -35.6065 -35.5941 -35.5773 -35.4883 -35.4164 -35.3993
    -3.9225  -3.4173  -2.9461  -2.2486  -2.0526  -1.8756  -1.5077  -1.3888
    -1.2341  -1.1538  -0.9497  -0.9121  -0.6796  -0.6467  -0.4644  -0.4617
    -0.4034  -0.1970  -0.1690  -0.1056   0.1874   0.2765   0.3992   0.5009
     0.5986   0.6875   0.7587   0.8175   0.8757   0.9416   1.2611   1.4362
     1.6498   1.7438   1.7850   1.9700   2.0555   2.3048   2.4658   2.4994
     2.6581   2.9903   3.1396   3.2862   3.4017   3.4622   3.5193   3.9526
     4.1153   4.1576   4.4109   4.5786   5.0070   5.1193   5.1713   5.2021

          k = 0.0447-0.0763 0.0000 ( 31311 PWs)   bands (ev):

   -77.6079 -77.6077 -77.5680 -77.5680 -77.4690 -77.4690 -71.6906 -71.6904
   -71.5818 -71.5817 -71.5546 -71.5544 -39.5413 -39.5336 -39.3791 -39.3682
   -39.3601 -39.3552 -39.3465 -39.3426 -39.2510 -39.2486 -39.2385 -39.2336
   -39.1936 -39.1857 -39.1688 -39.1606 -39.0942 -39.0861 -35.9428 -35.9309
   -35.7899 -35.7845 -35.7041 -35.6931 -35.6877 -35.6770 -35.6628 -35.6553
   -35.6422 -35.6326 -35.6091 -35.5962 -35.5763 -35.5652 -35.4095 -35.4056
    -4.4040  -3.0375  -2.9573  -2.5983  -2.0443  -2.0330  -1.8006  -1.7480
    -1.3945  -1.2685  -1.1907  -0.9485  -0.8071  -0.7417  -0.6994  -0.3028
    -0.2782  -0.1987  -0.0245   0.0740   0.3259   0.3572   0.3828   0.4420
     0.8081   0.9183   0.9889   1.0306   1.1560   1.1641   1.2917   1.5263
     1.5309   1.7019   1.8235   2.1883   2.2311   2.2422   2.3995   2.4145
     2.6533   3.0745   3.2577   3.3810   3.3957   3.5662   3.6016   3.6264
     3.9692   4.4273   4.4714   4.6191   4.7321   5.0816   5.2259   5.2657

          k = 0.0447-0.0593 0.0000 ( 31330 PWs)   bands (ev):

   -77.6113 -77.6043 -77.5713 -77.5646 -77.4724 -77.4656 -71.6953 -71.6857
   -71.5865 -71.5769 -71.5594 -71.5496 -39.5525 -39.5291 -39.4432 -39.3710
   -39.3501 -39.3490 -39.3400 -39.3104 -39.3048 -39.2598 -39.2328 -39.2284
   -39.2035 -39.1800 -39.1791 -39.1030 -39.0986 -39.0805 -35.9343 -35.9301
   -35.7987 -35.7804 -35.7637 -35.7325 -35.6780 -35.6766 -35.6434 -35.6360
   -35.6316 -35.6204 -35.5979 -35.5974 -35.5831 -35.4958 -35.4119 -35.4024
    -4.8344  -3.0608  -2.9766  -2.7034  -2.2528  -2.2235  -2.1270  -1.9999
    -1.7177  -1.4989  -1.3717  -1.2166  -1.0813  -0.9374  -0.7342  -0.2152
    -0.2049  -0.1201  -0.0596   0.2841   0.3750   0.4338   0.6082   0.6314
     1.1524   1.2225   1.2570   1.3165   1.3514   1.3694   1.4510   1.6573
     1.6602   1.8993   1.9131   2.1653   2.3266   2.3694   2.4237   2.5351
     2.6048   2.7854   3.3523   3.3889   3.3992   3.5559   3.5651   3.9463
     4.0198   4.4599   4.6848   4.7424   4.8375   5.0844   5.2388   5.2697

          k = 0.0447-0.0422 0.0000 ( 31363 PWs)   bands (ev):

   -77.6145 -77.6011 -77.5745 -77.5615 -77.4756 -77.4625 -71.6998 -71.6811
   -71.5911 -71.5722 -71.5640 -71.5450 -39.5620 -39.5247 -39.5025 -39.3805
   -39.3696 -39.3550 -39.3447 -39.3314 -39.2897 -39.2692 -39.2451 -39.2242
   -39.2115 -39.1750 -39.1221 -39.1094 -39.0752 -39.0414 -35.9391 -35.9189
   -35.8366 -35.8065 -35.8045 -35.7734 -35.7133 -35.6794 -35.6661 -35.6394
   -35.6246 -35.6017 -35.5880 -35.5404 -35.5075 -35.4216 -35.4157 -35.3957
    -5.1801  -3.3017  -3.0908  -2.5738  -2.5659  -2.4254  -2.2520  -2.2275
    -2.0401  -1.6864  -1.5029  -1.4690  -1.3422  -1.1101  -0.9351  -0.3175
    -0.2440  -0.1066   0.1314   0.5166   0.5660   0.6249   0.7831   0.8832
     1.1644   1.1948   1.3136   1.4931   1.5476   1.5995   1.7510   1.8031
     1.9346   2.2479   2.2525   2.2992   2.3436   2.3470   2.4825   2.5192
     2.6518   2.9557   3.0528   3.3347   3.3767   3.6389   3.7814   4.2865
     4.3934   4.5475   4.8173   4.9323   5.0689   5.1314   5.3035   5.3315

          k = 0.0595-0.0335 0.0000 ( 31365 PWs)   bands (ev):

   -77.6145 -77.6011 -77.5745 -77.5615 -77.4756 -77.4625 -71.6998 -71.6811
   -71.5911 -71.5722 -71.5641 -71.5450 -39.5583 -39.5241 -39.4995 -39.3780
   -39.3675 -39.3567 -39.3443 -39.3305 -39.2876 -39.2647 -39.2450 -39.2248
   -39.2086 -39.1745 -39.1226 -39.1073 -39.0757 -39.0418 -35.9450 -35.9204
   -35.8424 -35.8072 -35.8040 -35.7735 -35.7172 -35.6879 -35.6666 -35.6441
   -35.6250 -35.6073 -35.5887 -35.5393 -35.5066 -35.4222 -35.4150 -35.3951
    -5.0055  -3.2597  -3.1474  -2.4371  -2.4132  -2.2349  -2.2318  -2.0393
    -2.0363  -1.6867  -1.4083  -1.3365  -1.2547  -0.8503  -0.8418  -0.2801
    -0.2516  -0.0552   0.0164   0.3770   0.4372   0.4652   0.7626   0.8946
     1.2133   1.3022   1.4000   1.4349   1.4839   1.5192   1.5979   1.7055
     1.9750   2.1076   2.1174   2.1439   2.2618   2.3549   2.4531   2.4803
     2.5020   2.6349   3.1617   3.1937   3.3031   3.7018   3.8537   4.1025
     4.2150   4.5078   4.5804   4.6234   4.9467   4.9846   5.1716   5.2234

          k = 0.0595-0.0164 0.0000 ( 31341 PWs)   bands (ev):

   -77.6172 -77.5984 -77.5771 -77.5588 -77.4782 -77.4598 -71.7037 -71.6772
   -71.5951 -71.5683 -71.5680 -71.5410 -39.5631 -39.5494 -39.5167 -39.4143
   -39.3834 -39.3632 -39.3402 -39.3365 -39.3216 -39.2679 -39.2196 -39.2134
   -39.1931 -39.1687 -39.1116 -39.0726 -39.0706 -38.9915 -35.9546 -35.9162
   -35.9053 -35.8692 -35.8084 -35.7827 -35.7650 -35.6971 -35.6615 -35.6510
   -35.6204 -35.6148 -35.5833 -35.4730 -35.4414 -35.4248 -35.3893 -35.3525
    -5.1718  -3.2960  -3.0948  -2.5826  -2.5320  -2.4374  -2.2408  -2.2170
    -2.0391  -1.6943  -1.5713  -1.3948  -1.3366  -1.1113  -0.9219  -0.2973
    -0.2742  -0.0882   0.1541   0.5421   0.6075   0.6393   0.7621   0.9435
     1.0989   1.3570   1.3674   1.5439   1.5988   1.6283   1.7095   1.8948
     1.9996   2.1333   2.2086   2.2268   2.2791   2.3527   2.4923   2.5397
     2.6970   2.8121   2.9682   3.1829   3.3231   3.7511   3.8640   4.0913
     4.4245   4.6237   4.6556   4.9214   4.9886   5.1690   5.1853   5.4596

          k = 0.0595 0.0007 0.0000 ( 31335 PWs)   bands (ev):

   -77.6193 -77.5963 -77.5792 -77.5568 -77.4803 -77.4577 -71.7067 -71.6742
   -71.5982 -71.5711 -71.5653 -71.5379 -39.5852 -39.5648 -39.5108 -39.4494
   -39.3861 -39.3719 -39.3689 -39.3336 -39.3180 -39.2685 -39.2152 -39.2147
   -39.1633 -39.1526 -39.1139 -39.0662 -39.0338 -38.9522 -35.9651 -35.9593
   -35.9181 -35.9107 -35.8299 -35.8108 -35.7618 -35.7084 -35.6601 -35.6587
   -35.6233 -35.6183 -35.5810 -35.4315 -35.4207 -35.3910 -35.3849 -35.3024
    -5.2240  -3.3421  -2.8609  -2.8317  -2.6183  -2.3663  -2.3408  -2.2432
    -2.0328  -1.6702  -1.6318  -1.4148  -1.2948  -1.2931  -0.9482  -0.3179
    -0.2338  -0.1303   0.2320   0.6219   0.6415   0.7461   0.8277   0.9317
     1.0582   1.3336   1.4468   1.5800   1.6517   1.6666   1.7921   1.8791
     1.9696   2.1171   2.1647   2.2546   2.2961   2.3154   2.5374   2.6162
     2.6948   2.8504   2.9861   3.1505   3.3806   3.7594   3.7976   4.1532
     4.4968   4.5888   4.7361   4.9405   5.0782   5.1568   5.3269   5.4347

          k = 0.0595 0.0178 0.0000 ( 31323 PWs)   bands (ev):

   -77.6206 -77.5949 -77.5804 -77.5555 -77.4816 -77.4564 -71.7086 -71.6724
   -71.6001 -71.5730 -71.5634 -71.5360 -39.6066 -39.5639 -39.5054 -39.4707
   -39.3930 -39.3863 -39.3734 -39.3297 -39.3148 -39.2666 -39.2149 -39.2106
   -39.1591 -39.1265 -39.1143 -39.0631 -39.0089 -38.9271 -35.9939 -35.9748
   -35.9494 -35.9115 -35.8620 -35.8112 -35.7580 -35.7198 -35.6660 -35.6616
   -35.6318 -35.6183 -35.5815 -35.4336 -35.3908 -35.3821 -35.3595 -35.2711
    -5.1605  -3.2861  -3.0550  -2.5689  -2.5655  -2.4033  -2.2765  -2.1772
    -2.0307  -1.7156  -1.5176  -1.3986  -1.3457  -1.1130  -0.9114  -0.3158
    -0.1843  -0.1608   0.2240   0.5283   0.6215   0.6988   0.8785   1.0014
     1.0934   1.2768   1.5376   1.6069   1.6243   1.7113   1.8023   1.8354
     1.9785   2.0645   2.1089   2.1795   2.2292   2.2982   2.4964   2.5954
     2.6051   2.7944   2.8574   3.0505   3.4229   3.6477   3.9156   4.1506
     4.4704   4.4734   4.7008   4.8053   4.9013   5.1229   5.3520   5.5344

          k = 0.0595 0.0348 0.0000 ( 31308 PWs)   bands (ev):

   -77.6210 -77.5945 -77.5809 -77.5550 -77.4820 -77.4560 -71.7093 -71.6717
   -71.6008 -71.5737 -71.5628 -71.5353 -39.6123 -39.5609 -39.5018 -39.4768
   -39.3989 -39.3844 -39.3760 -39.3276 -39.3134 -39.2628 -39.2127 -39.2083
   -39.1569 -39.1171 -39.1130 -39.0616 -39.0003 -38.9183 -36.0090 -35.9821
   -35.9620 -35.9138 -35.8751 -35.8099 -35.7560 -35.7293 -35.6717 -35.6649
   -35.6387 -35.6196 -35.5838 -35.4350 -35.3811 -35.3809 -35.3488 -35.2607
    -4.9842  -3.2322  -3.1116  -2.4187  -2.3795  -2.2540  -2.2521  -2.0269
    -1.9940  -1.7000  -1.3522  -1.3327  -1.2683  -0.8858  -0.7832  -0.2869
    -0.1672  -0.1554   0.1409   0.3858   0.4790   0.5768   0.8428   1.0191
     1.1733   1.2403   1.5163   1.5392   1.6366   1.6796   1.7049   1.8573
     1.9062   2.0336   2.0827   2.0999   2.1587   2.2423   2.3274   2.3893
     2.5031   2.5433   2.8963   2.9743   3.4302   3.5772   4.0445   4.0612
     4.2597   4.3168   4.5638   4.6410   4.6894   4.8441   5.3309   5.3849

          k = 0.0595 0.0519 0.0000 ( 31321 PWs)   bands (ev):

   -77.6205 -77.5949 -77.5804 -77.5555 -77.4816 -77.4564 -71.7087 -71.6724
   -71.6002 -71.5731 -71.5635 -71.5359 -39.6022 -39.5566 -39.5011 -39.4673
   -39.3894 -39.3811 -39.3762 -39.3275 -39.3144 -39.2580 -39.2094 -39.2084
   -39.1573 -39.1258 -39.1101 -39.0623 -39.0087 -38.9268 -36.0029 -35.9855
   -35.9543 -35.9169 -35.8679 -35.8073 -35.7562 -35.7349 -35.6746 -35.6684
   -35.6427 -35.6216 -35.5867 -35.4347 -35.3925 -35.3818 -35.3597 -35.2717
    -4.7030  -3.3246  -2.8718  -2.3508  -2.3088  -2.1431  -2.0139  -1.8991
    -1.7589  -1.6047  -1.2474  -1.1106  -1.0922  -0.7373  -0.6280  -0.1942
    -0.1871  -0.1357   0.0361   0.2616   0.2668   0.4238   0.7201   0.8885
     1.1326   1.2680   1.3584   1.3803   1.4488   1.5126   1.5825   1.7360
     1.7422   1.8755   1.9149   2.0836   2.1206   2.1355   2.2711   2.3197
     2.4424   2.5393   2.9853   3.2035   3.3864   3.5743   3.8191   3.9182
     3.9391   4.2090   4.3648   4.5099   4.6446   4.7200   5.2012   5.2527

          k = 0.0595-0.1359 0.0000 ( 31301 PWs)   bands (ev):

   -77.6192 -77.5963 -77.5791 -77.5567 -77.4803 -77.4577 -71.7069 -71.6742
   -71.5984 -71.5712 -71.5653 -71.5378 -39.5770 -39.5519 -39.5039 -39.4431
   -39.3771 -39.3739 -39.3650 -39.3294 -39.3178 -39.2528 -39.2116 -39.2053
   -39.1604 -39.1519 -39.1063 -39.0653 -39.0337 -38.9522 -35.9843 -35.9755
   -35.9270 -35.9195 -35.8404 -35.8037 -35.7588 -35.7351 -35.6738 -35.6712
   -35.6429 -35.6238 -35.5894 -35.4327 -35.4239 -35.3911 -35.3842 -35.3030
    -4.3309  -3.3756  -2.5989  -2.5601  -2.1655  -1.8959  -1.7983  -1.6932
    -1.4726  -1.4277  -1.1082  -0.8693  -0.8402  -0.7319  -0.5689  -0.3122
    -0.1263  -0.0948  -0.0818   0.0283   0.2373   0.4354   0.5219   0.6628
     0.8733   1.0367   1.0793   1.1399   1.1905   1.3076   1.3739   1.3776
     1.6669   1.7542   1.8627   1.9436   2.1880   2.2349   2.2528   2.4340
     2.4579   2.9070   3.0510   3.2927   3.4384   3.5218   3.6197   3.6457
     3.7904   4.1210   4.2878   4.6178   4.6695   4.7567   5.1644   5.2359

          k = 0.0595-0.1189 0.0000 ( 31288 PWs)   bands (ev):

   -77.6171 -77.5984 -77.5771 -77.5588 -77.4782 -77.4598 -71.7039 -71.6772
   -71.5954 -71.5684 -71.5681 -71.5409 -39.5472 -39.5383 -39.5101 -39.4058
   -39.3722 -39.3697 -39.3334 -39.3282 -39.3227 -39.2479 -39.2178 -39.2011
   -39.1934 -39.1662 -39.1019 -39.0736 -39.0707 -38.9926 -35.9782 -35.9283
   -35.9227 -35.8799 -35.7995 -35.7942 -35.7637 -35.7294 -35.6728 -35.6692
   -35.6389 -35.6258 -35.5914 -35.4736 -35.4405 -35.4283 -35.3881 -35.3521
    -3.8904  -3.3968  -2.9812  -2.2332  -2.0246  -1.8611  -1.4648  -1.3938
    -1.2592  -1.1816  -0.9723  -0.9284  -0.6526  -0.5863  -0.5052  -0.4545
    -0.2866  -0.1996  -0.1576  -0.0942   0.2285   0.2865   0.4065   0.5332
     0.5821   0.7425   0.8146   0.8624   0.9191   1.0563   1.3460   1.3921
     1.5688   1.6045   1.8713   2.0297   2.1717   2.3246   2.3380   2.4600
     2.6233   2.9010   2.9628   3.3519   3.3693   3.4609   3.6403   3.7125
     3.8867   4.0505   4.5221   4.5778   4.9045   5.0125   5.1804   5.2635

          k = 0.0595-0.1018 0.0000 ( 31268 PWs)   bands (ev):

   -77.6143 -77.6012 -77.5744 -77.5615 -77.4755 -77.4625 -71.7000 -71.6811
   -71.5914 -71.5723 -71.5642 -71.5448 -39.5428 -39.5192 -39.4886 -39.3664
   -39.3642 -39.3579 -39.3400 -39.3301 -39.2790 -39.2486 -39.2425 -39.2265
   -39.1962 -39.1741 -39.1253 -39.0970 -39.0777 -39.0449 -35.9681 -35.9254
   -35.8639 -35.8178 -35.7948 -35.7712 -35.7317 -35.7189 -35.6732 -35.6616
   -35.6313 -35.6277 -35.5928 -35.5368 -35.5041 -35.4230 -35.4154 -35.3932
    -3.4503  -3.4444  -3.3700  -2.0004  -1.9748  -1.9510  -1.2827  -1.1853
    -1.1641  -1.0163  -0.9560  -0.9289  -0.7514  -0.6623  -0.5362  -0.4203
    -0.3148  -0.1969  -0.1087  -0.0668   0.0250   0.0861   0.2080   0.5198
     0.5372   0.6537   0.6669   0.7103   0.8737   1.0145   1.3743   1.4291
     1.4850   1.5228   1.9519   1.9808   2.1939   2.3498   2.3915   2.4661
     2.7325   2.8060   2.9121   3.3545   3.3839   3.4655   3.6061   3.8933
     4.0249   4.1296   4.3611   5.0346   5.1103   5.1320   5.1945   5.2305

          k = 0.0595-0.0847 0.0000 ( 31311 PWs)   bands (ev):

   -77.6112 -77.6044 -77.5713 -77.5646 -77.4724 -77.4657 -71.6955 -71.6856
   -71.5868 -71.5768 -71.5596 -71.5495 -39.5386 -39.5299 -39.4309 -39.3610
   -39.3574 -39.3495 -39.3366 -39.3095 -39.3019 -39.2391 -39.2380 -39.2213
[...]
     2.4976   2.6313   3.0205   3.1994   3.3373   3.6297   3.6905   3.9218
     3.9500   4.3210   4.4584   4.7129   4.9133   4.9196   5.2292   5.4886

          k = 0.0744 0.0265 0.0000 ( 31321 PWs)   bands (ev):

   -77.6205 -77.5949 -77.5804 -77.5555 -77.4816 -77.4564 -71.7087 -71.6724
   -71.6002 -71.5731 -71.5635 -71.5359 -39.6022 -39.5566 -39.5011 -39.4673
   -39.3894 -39.3811 -39.3762 -39.3275 -39.3144 -39.2580 -39.2094 -39.2084
   -39.1573 -39.1258 -39.1101 -39.0623 -39.0087 -38.9268 -36.0029 -35.9855
   -35.9543 -35.9169 -35.8679 -35.8073 -35.7562 -35.7349 -35.6746 -35.6684
   -35.6427 -35.6216 -35.5867 -35.4347 -35.3925 -35.3818 -35.3597 -35.2717
    -4.7030  -3.3246  -2.8718  -2.3508  -2.3088  -2.1431  -2.0139  -1.8991
    -1.7589  -1.6047  -1.2474  -1.1106  -1.0922  -0.7373  -0.6280  -0.1942
    -0.1871  -0.1357   0.0361   0.2616   0.2668   0.4238   0.7201   0.8885
     1.1326   1.2680   1.3584   1.3803   1.4488   1.5126   1.5825   1.7360
     1.7422   1.8755   1.9149   2.0836   2.1206   2.1355   2.2711   2.3197
     2.4424   2.5393   2.9853   3.2035   3.3864   3.5743   3.8191   3.9182
     3.9391   4.2090   4.3648   4.5099   4.6446   4.7199   5.2016   5.2527

          k = 0.0744 0.0435 0.0000 ( 31326 PWs)   bands (ev):

   -77.6209 -77.5945 -77.5809 -77.5550 -77.4820 -77.4560 -71.7094 -71.6717
   -71.6009 -71.5737 -71.5628 -71.5352 -39.6087 -39.5547 -39.4981 -39.4740
   -39.3959 -39.3809 -39.3776 -39.3258 -39.3130 -39.2556 -39.2082 -39.2061
   -39.1554 -39.1165 -39.1093 -39.0608 -39.0000 -38.9180 -36.0165 -35.9910
   -35.9661 -35.9183 -35.8801 -35.8068 -35.7544 -35.7421 -35.6790 -35.6707
   -35.6478 -35.6225 -35.5883 -35.4359 -35.3824 -35.3808 -35.3491 -35.2612
    -4.4992  -3.5532  -2.7244  -2.3385  -2.0186  -2.0009  -1.9903  -1.8373
    -1.7446  -1.6240  -1.1118  -1.0110  -0.9909  -0.6041  -0.5240  -0.2559
    -0.1618  -0.0907  -0.0207   0.1707   0.2657   0.2793   0.7468   0.9659
     1.1228   1.1610   1.3076   1.3655   1.3738   1.5219   1.5512   1.6392
     1.6821   1.7433   1.8293   1.8565   2.0243   2.1101   2.1332   2.2565
     2.5646   2.5770   3.0241   3.3156   3.4286   3.5790   3.6820   3.7693
     4.0258   4.1118   4.3172   4.3512   4.4060   4.4219   4.9214   5.1187

          k = 0.0744-0.1443 0.0000 ( 31283 PWs)   bands (ev):

   -77.6205 -77.5949 -77.5804 -77.5554 -77.4815 -77.4564 -71.7088 -71.6724
   -71.6003 -71.5731 -71.5635 -71.5359 -39.5996 -39.5524 -39.4986 -39.4654
   -39.3872 -39.3798 -39.3763 -39.3262 -39.3142 -39.2530 -39.2069 -39.2063
   -39.1564 -39.1254 -39.1074 -39.0618 -39.0085 -38.9267 -36.0081 -35.9917
   -35.9572 -35.9199 -35.8713 -35.8052 -35.7551 -35.7437 -35.6796 -35.6724
   -35.6489 -35.6235 -35.5898 -35.4352 -35.3934 -35.3816 -35.3599 -35.2720
    -4.2062  -3.7189  -2.5170  -2.3155  -2.2038  -1.8289  -1.7890  -1.6835
    -1.6086  -1.5703  -1.0198  -0.8341  -0.8335  -0.5963  -0.5188  -0.3428
    -0.2083  -0.1297   0.0267   0.0609   0.1996   0.4528   0.6858   0.8758
     0.9003   1.0328   1.1431   1.1782   1.2085   1.3311   1.4660   1.4780
     1.5194   1.7035   1.7859   1.9129   2.0235   2.0737   2.1873   2.3184
     2.6343   2.7992   3.1448   3.3283   3.4329   3.4845   3.6353   3.6902
     3.8351   4.0955   4.1648   4.3358   4.4505   4.5192   4.7993   5.0457

          k = 0.0744-0.1272 0.0000 ( 31290 PWs)   bands (ev):

   -77.6192 -77.5963 -77.5791 -77.5567 -77.4803 -77.4577 -71.7069 -71.6742
   -71.5984 -71.5712 -71.5654 -71.5378 -39.5757 -39.5498 -39.5029 -39.4421
   -39.3768 -39.3736 -39.3639 -39.3285 -39.3180 -39.2504 -39.2110 -39.2038
   -39.1601 -39.1518 -39.1050 -39.0652 -39.0337 -38.9522 -35.9872 -35.9779
   -35.9283 -35.9210 -35.8420 -35.8027 -35.7584 -35.7392 -35.6762 -35.6730
   -35.6458 -35.6246 -35.5908 -35.4327 -35.4246 -35.3911 -35.3841 -35.3031
    -3.8688  -3.7926  -2.5481  -2.2909  -2.2434  -1.7983  -1.5477  -1.5282
    -1.4335  -1.4268  -0.9240  -0.7751  -0.7006  -0.6493  -0.5809  -0.3354
    -0.2641  -0.2017  -0.1037   0.1079   0.1751   0.5210   0.5387   0.5767
     0.6785   0.8321   0.9244   0.9700   1.0730   1.2183   1.3270   1.4183
     1.5219   1.5993   1.8524   2.0342   2.0735   2.1255   2.3443   2.4084
     2.6856   2.8073   3.1611   3.2645   3.3361   3.6057   3.6327   3.6920
     3.7906   3.9280   4.3482   4.5465   4.6028   4.7163   4.9713   5.1496

          k = 0.0744-0.1101 0.0000 ( 31288 PWs)   bands (ev):

   -77.6171 -77.5984 -77.5771 -77.5588 -77.4782 -77.4598 -71.7039 -71.6772
   -71.5954 -71.5684 -71.5681 -71.5409 -39.5472 -39.5383 -39.5101 -39.4058
   -39.3722 -39.3697 -39.3334 -39.3282 -39.3227 -39.2479 -39.2178 -39.2011
   -39.1934 -39.1662 -39.1019 -39.0736 -39.0707 -38.9926 -35.9782 -35.9283
   -35.9227 -35.8799 -35.7995 -35.7942 -35.7637 -35.7294 -35.6728 -35.6692
   -35.6389 -35.6258 -35.5914 -35.4736 -35.4405 -35.4283 -35.3881 -35.3521
    -3.8904  -3.3968  -2.9812  -2.2332  -2.0246  -1.8611  -1.4648  -1.3938
    -1.2592  -1.1816  -0.9723  -0.9284  -0.6526  -0.5863  -0.5052  -0.4545
    -0.2866  -0.1996  -0.1576  -0.0942   0.2285   0.2865   0.4065   0.5332
     0.5821   0.7425   0.8146   0.8624   0.9191   1.0563   1.3460   1.3921
     1.5688   1.6045   1.8713   2.0297   2.1717   2.3246   2.3380   2.4600
     2.6233   2.9010   2.9628   3.3519   3.3693   3.4609   3.6403   3.7125
     3.8867   4.0505   4.5221   4.5779   4.9045   5.0125   5.1806   5.2635

          k = 0.0744-0.0931 0.0000 ( 31292 PWs)   bands (ev):

   -77.6144 -77.6012 -77.5744 -77.5615 -77.4755 -77.4625 -71.7000 -71.6811
   -71.5914 -71.5723 -71.5642 -71.5448 -39.5442 -39.5198 -39.4895 -39.3676
   -39.3634 -39.3588 -39.3407 -39.3298 -39.2798 -39.2489 -39.2439 -39.2264
   -39.1973 -39.1740 -39.1250 -39.0981 -39.0775 -39.0444 -35.9661 -35.9250
   -35.8621 -35.8169 -35.7956 -35.7716 -35.7304 -35.7164 -35.6723 -35.6601
   -35.6292 -35.6275 -35.5923 -35.5369 -35.5042 -35.4229 -35.4153 -35.3934
    -3.8968  -3.4398  -2.9425  -2.2435  -2.0431  -1.8652  -1.4869  -1.3729
    -1.2731  -1.1596  -0.9808  -0.9516  -0.6388  -0.5843  -0.4647  -0.4312
    -0.3982  -0.2003  -0.1656  -0.1626   0.2089   0.3463   0.3927   0.5696
     0.6516   0.6688   0.7098   0.8385   0.8970   0.9999   1.3400   1.4126
     1.6031   1.6603   1.8697   1.9379   2.0761   2.2527   2.5133   2.5193
     2.6859   2.8118   3.1045   3.3417   3.3657   3.4344   3.6933   3.7219
     3.8425   4.2980   4.4243   4.5702   4.9781   5.0476   5.1864   5.2045

          k = 0.0744-0.0760 0.0000 ( 31278 PWs)   bands (ev):

   -77.6112 -77.6044 -77.5713 -77.5646 -77.4724 -77.4656 -71.6954 -71.6856
   -71.5867 -71.5768 -71.5595 -71.5495 -39.5405 -39.5298 -39.4327 -39.3630
   -39.3561 -39.3498 -39.3365 -39.3084 -39.3034 -39.2425 -39.2368 -39.2228
   -39.1938 -39.1826 -39.1824 -39.1056 -39.0919 -39.0848 -35.9527 -35.9284
   -35.7910 -35.7881 -35.7768 -35.7434 -35.7029 -35.6749 -35.6548 -35.6510
   -35.6297 -35.6209 -35.6067 -35.5939 -35.5777 -35.4890 -35.4157 -35.3996
    -3.8712  -3.8540  -2.5175  -2.3002  -2.2949  -1.8109  -1.5950  -1.4922
    -1.4702  -1.4088  -0.9348  -0.7975  -0.7299  -0.6026  -0.5210  -0.5189
    -0.2642  -0.2339  -0.1192   0.0577   0.1654   0.5205   0.5653   0.5942
     0.6002   0.6478   0.8800   0.9862   0.9943   1.0372   1.3520   1.3937
     1.5979   1.7582   1.7702   1.8780   1.9667   2.0594   2.5659   2.5828
     2.7406   2.9097   3.2490   3.2678   3.3871   3.5048   3.6497   3.8177
     3.9061   4.1705   4.4095   4.5817   4.5955   4.8171   4.8950   5.0606

          k = 0.0744-0.0589 0.0000 ( 31319 PWs)   bands (ev):

   -77.6078 -77.6078 -77.5680 -77.5679 -77.4690 -77.4690 -71.6906 -71.6905
   -71.5818 -71.5817 -71.5546 -71.5545 -39.5395 -39.5356 -39.3778 -39.3734
   -39.3572 -39.3563 -39.3440 -39.3426 -39.2525 -39.2510 -39.2354 -39.2332
   -39.1922 -39.1885 -39.1661 -39.1622 -39.0919 -39.0878 -35.9399 -35.9340
   -35.7884 -35.7857 -35.7064 -35.7032 -35.6813 -35.6793 -35.6577 -35.6552
   -35.6381 -35.6337 -35.6082 -35.6026 -35.5705 -35.5659 -35.4084 -35.4064
    -4.2411  -3.7557  -2.5557  -2.3701  -2.1620  -1.8238  -1.7776  -1.7546
    -1.6118  -1.5762  -1.0056  -0.9586  -0.7694  -0.6051  -0.5530  -0.4381
    -0.1441  -0.1131  -0.0432  -0.0389   0.1968   0.3244   0.7363   0.7483
     0.8044   0.9439   1.0462   1.1574   1.1788   1.2912   1.3027   1.4254
     1.6087   1.6142   1.7522   1.8697   1.9494   2.0182   2.4643   2.5294
     2.7431   3.0652   3.1932   3.3131   3.5137   3.5650   3.6493   3.7856
     4.0485   4.1331   4.1819   4.4332   4.5160   4.6663   4.7888   4.8747

          k =-0.0893 0.0502 0.0000 ( 31304 PWs)   bands (ev):

   -77.6078 -77.6078 -77.5680 -77.5679 -77.4690 -77.4690 -71.6905 -71.6905
   -71.5818 -71.5817 -71.5545 -71.5545 -39.5376 -39.5376 -39.3760 -39.3760
   -39.3566 -39.3566 -39.3429 -39.3429 -39.2523 -39.2523 -39.2338 -39.2338
   -39.1905 -39.1905 -39.1640 -39.1640 -39.0897 -39.0897 -35.9370 -35.9370
   -35.7870 -35.7870 -35.7062 -35.7062 -35.6803 -35.6803 -35.6556 -35.6556
   -35.6355 -35.6354 -35.6061 -35.6061 -35.5675 -35.5675 -35.4074 -35.4074
    -4.0376  -4.0376  -2.4840  -2.4839  -1.8516  -1.8516  -1.7704  -1.7704
    -1.7050  -1.7050  -0.9699  -0.9698  -0.6368  -0.6368  -0.5140  -0.5140
    -0.1509  -0.1509  -0.0504  -0.0504   0.3069   0.3069   0.8279   0.8279
     0.9691   0.9691   1.0861   1.0862   1.2361   1.2361   1.2969   1.2969
     1.6543   1.6543   1.7790   1.7790   1.8625   1.8625   2.4634   2.4634
     3.0204   3.0204   3.1994   3.1994   3.4993   3.4993   3.7652   3.7652
     4.1103   4.1103   4.2527   4.2528   4.4198   4.4198   4.7029   4.7029

          k =-0.0893 0.0673 0.0000 ( 31258 PWs)   bands (ev):

   -77.6112 -77.6043 -77.5713 -77.5646 -77.4724 -77.4656 -71.6954 -71.6856
   -71.5867 -71.5768 -71.5595 -71.5495 -39.5438 -39.5298 -39.4357 -39.3657
   -39.3540 -39.3503 -39.3367 -39.3068 -39.3057 -39.2478 -39.2350 -39.2251
   -39.1960 -39.1816 -39.1813 -39.1056 -39.0928 -39.0835 -35.9479 -35.9289
   -35.7929 -35.7835 -35.7771 -35.7412 -35.6975 -35.6743 -35.6523 -35.6483
   -35.6301 -35.6158 -35.6075 -35.5940 -35.5787 -35.4904 -35.4146 -35.4003
    -4.2321  -3.7639  -2.5574  -2.3608  -2.1639  -1.8207  -1.7704  -1.7457
    -1.6277  -1.5808  -1.0460  -0.9185  -0.7723  -0.5845  -0.5489  -0.4373
    -0.1621  -0.0796  -0.0766  -0.0163   0.1339   0.3771   0.7304   0.7522
     0.8611   1.0309   1.1056   1.1514   1.1517   1.2197   1.3123   1.4329
     1.5819   1.7208   1.7779   1.8314   1.8502   2.0023   2.4625   2.5167
     2.8469   3.0112   3.0978   3.3715   3.3956   3.5696   3.6401   3.8760
     3.9445   4.0410   4.2413   4.3805   4.6131   4.6918   4.7351   4.8844

          k =-0.0893 0.0844 0.0000 ( 31251 PWs)   bands (ev):

   -77.6144 -77.6011 -77.5744 -77.5615 -77.4755 -77.4625 -71.6999 -71.6811
   -71.5913 -71.5722 -71.5641 -71.5449 -39.5480 -39.5212 -39.4920 -39.3705
   -39.3615 -39.3613 -39.3421 -39.3294 -39.2819 -39.2520 -39.2454 -39.2260
   -39.2002 -39.1739 -39.1242 -39.1008 -39.0769 -39.0435 -35.9605 -35.9239
   -35.8570 -35.8144 -35.7977 -35.7725 -35.7270 -35.7091 -35.6703 -35.6560
   -35.6267 -35.6234 -35.5911 -35.5372 -35.5047 -35.4229 -35.4149 -35.3938
    -4.3453  -3.4189  -2.6104  -2.5330  -2.1964  -1.8958  -1.7917  -1.7295
    -1.4808  -1.4124  -1.1562  -0.8905  -0.8181  -0.7089  -0.5942  -0.2963
    -0.1700  -0.1642  -0.0715  -0.0208   0.2037   0.4191   0.5661   0.5999
     0.8312   1.0593   1.0828   1.1060   1.1264   1.2026   1.3664   1.3912
     1.6567   1.7871   1.8052   1.9424   1.9694   2.1857   2.4603   2.5585
     2.5951   2.9921   3.0902   3.3439   3.4146   3.4507   3.6419   3.7254
     3.9359   4.0241   4.4166   4.5167   4.7665   4.9576   5.1345   5.1362

          k =-0.0893 0.1014 0.0000 ( 31260 PWs)   bands (ev):

   -77.6171 -77.5984 -77.5771 -77.5588 -77.4782 -77.4598 -71.7039 -71.6772
   -71.5953 -71.5683 -71.5681 -71.5409 -39.5506 -39.5409 -39.5114 -39.4077
   -39.3742 -39.3686 -39.3349 -39.3307 -39.3215 -39.2523 -39.2184 -39.2034
   -39.1935 -39.1666 -39.1041 -39.0733 -39.0706 -38.9923 -35.9733 -35.9257
   -35.9192 -35.8776 -35.8012 -35.7919 -35.7640 -35.7227 -35.6703 -35.6654
   -35.6338 -35.6247 -35.5896 -35.4735 -35.4406 -35.4276 -35.3884 -35.3521
    -4.3778  -3.0201  -2.9816  -2.5791  -2.0250  -2.0132  -1.7959  -1.7155
    -1.4147  -1.2860  -1.2478  -0.8759  -0.8038  -0.7278  -0.7008  -0.3319
    -0.2016  -0.1467  -0.0511   0.0944   0.3589   0.4058   0.4372   0.4779
     0.9454   0.9543   1.0581   1.0794   1.1580   1.2650   1.3215   1.4061
     1.6572   1.8122   1.8286   2.0430   2.1303   2.2995   2.3902   2.4005
     2.5321   3.0077   3.0750   3.2586   3.4163   3.4858   3.5206   3.6837
     3.8639   4.1377   4.4180   4.7044   4.7537   5.0031   5.1698   5.2954

          k =-0.0893 0.1185 0.0000 ( 31301 PWs)   bands (ev):

   -77.6192 -77.5963 -77.5791 -77.5567 -77.4803 -77.4577 -71.7069 -71.6742
   -71.5984 -71.5712 -71.5653 -71.5378 -39.5770 -39.5519 -39.5039 -39.4431
   -39.3771 -39.3739 -39.3650 -39.3294 -39.3178 -39.2528 -39.2116 -39.2053
   -39.1604 -39.1519 -39.1063 -39.0653 -39.0337 -38.9522 -35.9843 -35.9755
   -35.9270 -35.9195 -35.8404 -35.8037 -35.7588 -35.7351 -35.6738 -35.6712
   -35.6429 -35.6238 -35.5894 -35.4327 -35.4239 -35.3911 -35.3842 -35.3030
    -4.3309  -3.3756  -2.5989  -2.5601  -2.1655  -1.8959  -1.7983  -1.6932
    -1.4726  -1.4277  -1.1082  -0.8693  -0.8402  -0.7319  -0.5689  -0.3122
    -0.1263  -0.0948  -0.0818   0.0283   0.2373   0.4354   0.5219   0.6628
     0.8733   1.0367   1.0793   1.1399   1.1905   1.3076   1.3739   1.3776
     1.6669   1.7542   1.8627   1.9436   2.1880   2.2349   2.2528   2.4340
     2.4579   2.9070   3.0510   3.2927   3.4384   3.5218   3.6197   3.6457
     3.7904   4.1210   4.2878   4.6178   4.6696   4.7567   5.1644   5.2351

          k =-0.0893 0.1356 0.0000 ( 31283 PWs)   bands (ev):

   -77.6205 -77.5949 -77.5804 -77.5554 -77.4815 -77.4564 -71.7088 -71.6724
   -71.6003 -71.5731 -71.5635 -71.5359 -39.5996 -39.5524 -39.4986 -39.4654
   -39.3872 -39.3798 -39.3763 -39.3262 -39.3142 -39.2530 -39.2069 -39.2063
   -39.1564 -39.1254 -39.1074 -39.0618 -39.0085 -38.9267 -36.0081 -35.9917
   -35.9572 -35.9199 -35.8713 -35.8052 -35.7551 -35.7437 -35.6796 -35.6724
   -35.6489 -35.6235 -35.5898 -35.4352 -35.3934 -35.3816 -35.3599 -35.2720
    -4.2062  -3.7189  -2.5170  -2.3155  -2.2038  -1.8289  -1.7890  -1.6835
    -1.6086  -1.5703  -1.0198  -0.8341  -0.8335  -0.5963  -0.5188  -0.3428
    -0.2083  -0.1297   0.0267   0.0609   0.1996   0.4528   0.6858   0.8758
     0.9003   1.0328   1.1431   1.1782   1.2085   1.3311   1.4660   1.4780
     1.5194   1.7035   1.7859   1.9129   2.0235   2.0737   2.1873   2.3184
     2.6343   2.7992   3.1448   3.3283   3.4329   3.4845   3.6353   3.6902
     3.8351   4.0955   4.1648   4.3358   4.4505   4.5192   4.7992   5.0456

          k =-0.0893-0.0522 0.0000 ( 31250 PWs)   bands (ev):

   -77.6209 -77.5945 -77.5808 -77.5550 -77.4820 -77.4560 -71.7094 -71.6717
   -71.6009 -71.5737 -71.5628 -71.5352 -39.6073 -39.5525 -39.4967 -39.4730
   -39.3948 -39.3810 -39.3768 -39.3252 -39.3129 -39.2529 -39.2066 -39.2053
   -39.1549 -39.1162 -39.1078 -39.0605 -38.9998 -38.9179 -36.0192 -35.9943
   -35.9677 -35.9200 -35.8819 -35.8057 -35.7538 -35.7468 -35.6817 -35.6728
   -35.6511 -35.6235 -35.5900 -35.4361 -35.3829 -35.3807 -35.3493 -35.2614
    -4.0369  -3.9626  -2.4570  -2.4163  -1.9215  -1.8454  -1.7992  -1.7708
    -1.6430  -1.6358  -1.0012  -0.8040  -0.7994  -0.5074  -0.5052  -0.4048
    -0.2852  -0.1335   0.0204   0.0955   0.2199   0.5494   0.7476   1.0027
     1.0219   1.0383   1.0869   1.1560   1.1800   1.2849   1.4351   1.5214
     1.5706   1.6786   1.8114   1.8461   1.9677   2.0057   2.0812   2.2763
     2.7333   2.7859   3.2775   3.3401   3.3460   3.3838   3.6412   3.6581
     4.0595   4.0601   4.2117   4.2167   4.2300   4.3253   4.6329   4.9135

     the Fermi energy is     2.5706 ev

!    total energy              =   -2030.69556149 Ry
     estimated scf accuracy    <       0.00000422 Ry
     smearing contrib. (-TS)   =      -0.06127897 Ry
     internal energy E=F+TS    =   -2030.63428251 Ry

     The total energy is F=E-TS. E is the sum of the following terms:
     one-electron contribution =  -16461.65947092 Ry
     hartree contribution      =    8214.78534994 Ry
     xc contribution           =    -493.35987762 Ry
     ewald contribution        =    6709.59971563 Ry
     electric field correction =       0.00000045 Ry

     convergence has been achieved in  15 iterations

     negative rho (up, down):  2.039E-03 0.000E+00

     Forces acting on atoms (cartesian axes, Ry/au):

     atom    1 type  1   force =    -0.00490788   -0.00286990    0.02299692
     atom    2 type  1   force =    -0.00491232   -0.00287464    0.02299505
     atom    3 type  2   force =     0.00513810    0.00300876    0.02121805
     atom    4 type  2   force =     0.00514129    0.00300381    0.02121899
     atom    5 type  1   force =    -0.00045801   -0.00026622   -0.01927946
     atom    6 type  1   force =    -0.00045613   -0.00026788   -0.01928181
     atom    7 type  2   force =     0.00001265    0.00000626   -0.01934266
     atom    8 type  2   force =     0.00000882    0.00000587   -0.01933901
     atom    9 type  1   force =     0.00115941    0.00067715   -0.00317927
     atom   10 type  1   force =     0.00115930    0.00068038   -0.00317453
     atom   11 type  2   force =    -0.00094314   -0.00055297   -0.00241551
     atom   12 type  2   force =    -0.00094207   -0.00055063   -0.00241676

     Total force =     0.060198     Total SCF correction =     0.012716
     SCF correction compared to forces is large: reduce conv_thr to get better values

     Writing output data file ./W2Re2/W2Re2_beef.save/

     init_run     :    133.85s CPU    134.62s WALL (       1 calls)
     electrons    :   4204.59s CPU   4230.02s WALL (       1 calls)
     forces       :     87.06s CPU     87.32s WALL (       1 calls)

     Called by init_run:
     wfcinit      :    120.21s CPU    120.71s WALL (       1 calls)
     potinit      :      9.03s CPU      9.13s WALL (       1 calls)
     hinit0       :      1.99s CPU      2.01s WALL (       1 calls)

     Called by electrons:
     c_bands      :   3746.52s CPU   3758.18s WALL (      15 calls)
     sum_band     :    423.91s CPU    434.30s WALL (      15 calls)
     v_of_rho     :     25.35s CPU     26.66s WALL (      16 calls)
     newd         :     16.86s CPU     18.96s WALL (      16 calls)
     mix_rho      :      0.62s CPU      0.65s WALL (      15 calls)
     vdW_kernel   :      5.80s CPU      5.81s WALL (       1 calls)

     Called by c_bands:
     init_us_2    :     11.70s CPU     11.81s WALL (    2368 calls)
     cegterg      :   3714.21s CPU   3723.09s WALL (    1110 calls)

     Called by *egterg:
     cdiaghg      :    169.00s CPU    169.10s WALL (    5185 calls)
     h_psi        :   1867.05s CPU   1874.57s WALL (    5259 calls)
     s_psi        :    561.42s CPU    561.62s WALL (    5259 calls)
     g_psi        :      1.13s CPU      1.14s WALL (    4075 calls)

     Called by h_psi:
     h_psi:calbec :    602.73s CPU    603.54s WALL (    5259 calls)
     vloc_psi     :    688.81s CPU    695.26s WALL (    5259 calls)
     add_vuspsi   :    568.73s CPU    568.91s WALL (    5259 calls)

     General routines
     calbec       :    923.49s CPU    925.61s WALL (    6665 calls)
     fft          :     24.82s CPU     25.41s WALL (    1067 calls)
     ffts         :      0.06s CPU      0.07s WALL (      31 calls)
     fftw         :    770.75s CPU    783.49s WALL (  661676 calls)
     interpolate  :      0.25s CPU      0.27s WALL (      16 calls)

     Parallel routines
     fft_scatt_xy :     51.62s CPU     52.21s WALL (  662774 calls)
     fft_scatt_yz :    318.60s CPU    326.34s WALL (  662774 calls)

     PWSCF        :      1h16m CPU      1h17m WALL


   This run was terminated on:  20:25:16  26Jun2022            

=------------------------------------------------------------------------------=
   JOB DONE.
=------------------------------------------------------------------------------=
