
     Program PWSCF v.6.6 starts on 25Jun2022 at 12:33:51 

     This program is part of the open-source Quantum ESPRESSO suite
     for quantum simulation of materials; please cite
         "P. Giannozzi et al., J. Phys.:Condens. Matter 21 395502 (2009);
         "P. Giannozzi et al., J. Phys.:Condens. Matter 29 465901 (2017);
          URL http://www.quantum-espresso.org", 
     in publications or presentations arising from this work. More details at
     http://www.quantum-espresso.org/quote

     Parallel version (MPI), running on    37 processors

     MPI processes distributed on     1 nodes
     R & G space division:  proc/nbgrp/npool/nimage =      37
     Fft bands division:     nmany     =       1
     Reading input from Y2Ir2.in
Warning: card &CELL ignored
Warning: card / ignored

     Current dimensions of program PWSCF are:
     Max number of different atomic species (ntypx) = 10
     Max number of k-points (npk) =  40000
     Max angular momentum in pseudopotentials (lmaxx) =  3
     Presently stress not available with electric field and gates

     Message from routine cell_base_init:
     DEPRECATED: use true lattice parameter, not A to a.u. conversion factor
     file Y.pbe-spn-rrkjus_psl.1.0.0.UPF: wavefunction(s)  4S renormalized
     file Ir.pbe-n-rrkjus_psl.0.2.3.UPF: wavefunction(s)  5D renormalized

     **************************************************************************
     Initializing libbeef V0.1.2 with the BEEF-vdW functional.
     Citation: Wellendorff et al., PRB 85, 235149 (2012).
     **************************************************************************


     IMPORTANT: XC functional enforced from input :
     Exchange-correlation= BEEF-VDW
                           (   1   4  43  14   2   0   0)
     Any further DFT definition will be discarded
     Please, verify this is what you really want


     Subspace diagonalization in iterative solution of the eigenvalue problem:
     a serial algorithm will be used

     Found symmetry operation: I + (  0.5000  0.5000  0.0000)
     This is a supercell, fractional translations are disabled

     Parallelization info
     --------------------
     sticks:   dense  smooth     PW     G-vecs:    dense   smooth      PW
     Min         141      56     15                33167     8382    1237
     Max         142      57     16                33180     8405    1256
     Sum        5245    2093    587              1227475   310491   46103



     bravais-lattice index     =            0
     lattice parameter (alat)  =       1.8897  a.u.
     unit-cell volume          =    5616.4859 (a.u.)^3
     number of atoms/cell      =           12
     number of atomic types    =            2
     number of electrons       =       120.00
     number of Kohn-Sham states=           72
     kinetic-energy cutoff     =      55.1240  Ry
     charge density cutoff     =     551.2396  Ry
     convergence threshold     =      1.0E-05
     mixing beta               =       0.1000
     number of iterations used =           10  plain     mixing
     Exchange-correlation= BEEF-VDW
                           (   1   4  43  14   2   0   0)

     celldm(1)=   1.889726  celldm(2)=   0.000000  celldm(3)=   0.000000
     celldm(4)=   0.000000  celldm(5)=   0.000000  celldm(6)=   0.000000

     crystal axes: (cart. coord. in units of alat)
               a(1) = (   5.958243   0.000000   0.000000 )  
               a(2) = (   1.985100   5.617832   0.000000 )  
               a(3) = (   0.000000   0.000000  24.864584 )  

     reciprocal axes: (cart. coord. in units 2 pi/alat)
               b(1) = (  0.167835 -0.059306  0.000000 )  
               b(2) = (  0.000000  0.178005  0.000000 )  
               b(3) = (  0.000000  0.000000  0.040218 )  


     PseudoPot. # 1 for Y  read from file:
     ../pseudo/Y.pbe-spn-rrkjus_psl.1.0.0.UPF
     MD5 check sum: 5fe32e6a006803c2ec2edff47948a3c8
     Pseudo is Ultrasoft + core correction, Zval = 11.0
     Generated using "atomic" code by A. Dal Corso v.6.2.2
     Using radial grid of 1223 points,  6 beta functions with: 
                l(1) =   0
                l(2) =   0
                l(3) =   1
                l(4) =   1
                l(5) =   2
                l(6) =   2
     Q(r) pseudized with 0 coefficients 


     PseudoPot. # 2 for Ir read from file:
     ../pseudo/Ir.pbe-n-rrkjus_psl.0.2.3.UPF
     MD5 check sum: a93e608e8ddc29ee62145620b5f41564
     Pseudo is Ultrasoft + core correction, Zval =  9.0
     Generated using "atomic" code by A. Dal Corso v.5.0.2 svn rev. 9415
     Using radial grid of 1277 points,  6 beta functions with: 
                l(1) =   0
                l(2) =   0
                l(3) =   1
                l(4) =   1
                l(5) =   2
                l(6) =   2
     Q(r) pseudized with 0 coefficients 


     atomic species   valence    mass     pseudopotential
        Y             11.00    88.90584     Y ( 1.00)
        Ir             9.00   192.21700     Ir( 1.00)

     No symmetry found



   Cartesian axes

     site n.     atom                  positions (alat units)
         1           Y   tau(   1) = (   0.0000000   0.0000000  10.0000000  )
         2           Y   tau(   2) = (   3.9716714   2.8089158  10.0000000  )
         3           Ir  tau(   3) = (   2.9791213   0.0000000  10.0000000  )
         4           Ir  tau(   4) = (   0.9925501   2.8089158  10.0000000  )
         5           Y   tau(   5) = (   5.9582427   4.2138940  12.4322921  )
         6           Y   tau(   6) = (   1.9865712   1.4049781  12.4322921  )
         7           Ir  tau(   7) = (   2.9791213   4.2138940  12.4322921  )
         8           Ir  tau(   8) = (   4.9656926   1.4049781  12.4322921  )
         9           Y   tau(   9) = (   3.9726986   2.8096537  14.9195147  )
        10           Y   tau(  10) = (   0.0010394   0.0007328  14.9195223  )
        11           Ir  tau(  11) = (   0.9937916   2.8098038  14.7211718  )
        12           Ir  tau(  12) = (   2.9803655   0.0008768  14.7211672  )

     number of k points=    74  Fermi-Dirac smearing, width (Ry)=  0.0100
                       cart. coord. in units 2pi/alat
        k(    1) = (   0.0000000   0.0000000   0.0000000), wk =   0.0138889
        k(    2) = (   0.0000000   0.0148337   0.0000000), wk =   0.0277778
        k(    3) = (   0.0000000   0.0296674   0.0000000), wk =   0.0277778
        k(    4) = (   0.0000000   0.0445012   0.0000000), wk =   0.0277778
        k(    5) = (   0.0000000   0.0593349   0.0000000), wk =   0.0277778
        k(    6) = (   0.0000000   0.0741686   0.0000000), wk =   0.0277778
        k(    7) = (   0.0000000  -0.0890023   0.0000000), wk =   0.0138889
        k(    8) = (   0.0139862  -0.0049421   0.0000000), wk =   0.0277778
        k(    9) = (   0.0139862   0.0098916   0.0000000), wk =   0.0277778
        k(   10) = (   0.0139862   0.0247253   0.0000000), wk =   0.0277778
        k(   11) = (   0.0139862   0.0395590   0.0000000), wk =   0.0277778
        k(   12) = (   0.0139862   0.0543927   0.0000000), wk =   0.0277778
        k(   13) = (   0.0139862   0.0692265   0.0000000), wk =   0.0277778
        k(   14) = (   0.0139862  -0.0939444   0.0000000), wk =   0.0277778
        k(   15) = (   0.0139862  -0.0791107   0.0000000), wk =   0.0277778
        k(   16) = (   0.0139862  -0.0642770   0.0000000), wk =   0.0277778
        k(   17) = (   0.0139862  -0.0494433   0.0000000), wk =   0.0277778
        k(   18) = (   0.0139862  -0.0346096   0.0000000), wk =   0.0277778
        k(   19) = (   0.0139862  -0.0197758   0.0000000), wk =   0.0277778
        k(   20) = (   0.0279725  -0.0098843   0.0000000), wk =   0.0277778
        k(   21) = (   0.0279725   0.0049495   0.0000000), wk =   0.0277778
        k(   22) = (   0.0279725   0.0197832   0.0000000), wk =   0.0277778
        k(   23) = (   0.0279725   0.0346169   0.0000000), wk =   0.0277778
        k(   24) = (   0.0279725   0.0494506   0.0000000), wk =   0.0277778
        k(   25) = (   0.0279725   0.0642843   0.0000000), wk =   0.0277778
        k(   26) = (   0.0279725  -0.0988866   0.0000000), wk =   0.0277778
        k(   27) = (   0.0279725  -0.0840528   0.0000000), wk =   0.0277778
        k(   28) = (   0.0279725  -0.0692191   0.0000000), wk =   0.0277778
        k(   29) = (   0.0279725  -0.0543854   0.0000000), wk =   0.0277778
        k(   30) = (   0.0279725  -0.0395517   0.0000000), wk =   0.0277778
        k(   31) = (   0.0279725  -0.0247180   0.0000000), wk =   0.0277778
        k(   32) = (   0.0419587  -0.0148264   0.0000000), wk =   0.0277778
        k(   33) = (   0.0419587   0.0000073   0.0000000), wk =   0.0277778
        k(   34) = (   0.0419587   0.0148410   0.0000000), wk =   0.0277778
        k(   35) = (   0.0419587   0.0296748   0.0000000), wk =   0.0277778
        k(   36) = (   0.0419587   0.0445085   0.0000000), wk =   0.0277778
        k(   37) = (   0.0419587   0.0593422   0.0000000), wk =   0.0277778
        k(   38) = (   0.0419587  -0.1038287   0.0000000), wk =   0.0277778
        k(   39) = (   0.0419587  -0.0889950   0.0000000), wk =   0.0277778
        k(   40) = (   0.0419587  -0.0741613   0.0000000), wk =   0.0277778
        k(   41) = (   0.0419587  -0.0593275   0.0000000), wk =   0.0277778
        k(   42) = (   0.0419587  -0.0444938   0.0000000), wk =   0.0277778
        k(   43) = (   0.0419587  -0.0296601   0.0000000), wk =   0.0277778
        k(   44) = (   0.0559449  -0.0197685   0.0000000), wk =   0.0277778
        k(   45) = (   0.0559449  -0.0049348   0.0000000), wk =   0.0277778
        k(   46) = (   0.0559449   0.0098989   0.0000000), wk =   0.0277778
        k(   47) = (   0.0559449   0.0247326   0.0000000), wk =   0.0277778
        k(   48) = (   0.0559449   0.0395663   0.0000000), wk =   0.0277778
        k(   49) = (   0.0559449   0.0544001   0.0000000), wk =   0.0277778
        k(   50) = (   0.0559449  -0.1087708   0.0000000), wk =   0.0277778
        k(   51) = (   0.0559449  -0.0939371   0.0000000), wk =   0.0277778
        k(   52) = (   0.0559449  -0.0791034   0.0000000), wk =   0.0277778
        k(   53) = (   0.0559449  -0.0642697   0.0000000), wk =   0.0277778
        k(   54) = (   0.0559449  -0.0494360   0.0000000), wk =   0.0277778
        k(   55) = (   0.0559449  -0.0346022   0.0000000), wk =   0.0277778
        k(   56) = (   0.0699311  -0.0247107   0.0000000), wk =   0.0277778
        k(   57) = (   0.0699311  -0.0098769   0.0000000), wk =   0.0277778
        k(   58) = (   0.0699311   0.0049568   0.0000000), wk =   0.0277778
        k(   59) = (   0.0699311   0.0197905   0.0000000), wk =   0.0277778
        k(   60) = (   0.0699311   0.0346242   0.0000000), wk =   0.0277778
        k(   61) = (   0.0699311   0.0494579   0.0000000), wk =   0.0277778
        k(   62) = (   0.0699311  -0.1137130   0.0000000), wk =   0.0277778
        k(   63) = (   0.0699311  -0.0988792   0.0000000), wk =   0.0277778
        k(   64) = (   0.0699311  -0.0840455   0.0000000), wk =   0.0277778
        k(   65) = (   0.0699311  -0.0692118   0.0000000), wk =   0.0277778
        k(   66) = (   0.0699311  -0.0543781   0.0000000), wk =   0.0277778
        k(   67) = (   0.0699311  -0.0395444   0.0000000), wk =   0.0277778
        k(   68) = (  -0.0839174   0.0296528   0.0000000), wk =   0.0138889
        k(   69) = (  -0.0839174   0.0444865   0.0000000), wk =   0.0277778
        k(   70) = (  -0.0839174   0.0593202   0.0000000), wk =   0.0277778
        k(   71) = (  -0.0839174   0.0741539   0.0000000), wk =   0.0277778
        k(   72) = (  -0.0839174   0.0889877   0.0000000), wk =   0.0277778
        k(   73) = (  -0.0839174   0.1038214   0.0000000), wk =   0.0277778
        k(   74) = (  -0.0839174  -0.0593495   0.0000000), wk =   0.0138889

     Dense  grid:  1227475 G-vectors     FFT dimensions: (  90,  90, 360)

     Smooth grid:   310491 G-vectors     FFT dimensions: (  54,  54, 225)

     Estimated max dynamical RAM per process >     218.39 MB

     Estimated total dynamical RAM >       7.89 GB

     Initial potential from superposition of free atoms

     starting charge  119.97460, renormalised to  120.00000

     negative rho (up, down):  3.996E-04 0.000E+00


     %%%%%%%%%%%%%%%%%%%%%%%%%%%%%%%%%%%%%%%%%%%%%%%%%%%%%%%%%%%%%%%%%%%%%%%%
     %                                                                      %
     % You are using vdW-DF, which was implemented by the Thonhauser group. %
     % Please cite the following two papers that made this development      %
     % possible and the two reviews that describe the various versions:     %
     %                                                                      %
     %   T. Thonhauser et al., PRL 115, 136402 (2015).                      %
     %   T. Thonhauser et al., PRB 76, 125112 (2007).                       %
     %   K. Berland et al., Rep. Prog. Phys. 78, 066501 (2015).             %
     %   D.C. Langreth et al., J. Phys.: Condens. Matter 21, 084203 (2009). %
     %                                                                      %
     %                                                                      %
     % If you are calculating the stress with vdW-DF, please also cite:     %
     %                                                                      %
     %   R. Sabatini et al., J. Phys.: Condens. Matter 24, 424209 (2012).   %
     %                                                                      %
     %%%%%%%%%%%%%%%%%%%%%%%%%%%%%%%%%%%%%%%%%%%%%%%%%%%%%%%%%%%%%%%%%%%%%%%%



     Adding external electric field

     Computed dipole along edir(3) : 
        Dipole                0.0013 Ry au,          0.0033 Debye
        Dipole field          0.0000 Ry au, 

        Potential amp.       -0.0003 Ry
        Total length         45.8126 bohr

     Starting wfcs are  132 randomized atomic wfcs

     total cpu time spent up to now is      145.8 secs

     Self-consistent Calculation

     iteration #  1     ecut=    55.12 Ry     beta= 0.10
     Davidson diagonalization with overlap
     ethr =  1.00E-02,  avg # of iterations =  2.0

     negative rho (up, down):  3.421E-04 0.000E+00

     Adding external electric field

     Computed dipole along edir(3) : 
        Dipole                0.1183 Ry au,          0.3006 Debye
        Dipole field          0.0003 Ry au, 

        Potential amp.       -0.0242 Ry
        Total length         45.8126 bohr


     total cpu time spent up to now is      322.6 secs

     total energy              =    -883.61330775 Ry
     estimated scf accuracy    <       5.01746608 Ry

     iteration #  2     ecut=    55.12 Ry     beta= 0.10
     Davidson diagonalization with overlap
     ethr =  4.18E-03,  avg # of iterations =  1.2

     negative rho (up, down):  3.214E-04 0.000E+00

     Adding external electric field

     Computed dipole along edir(3) : 
        Dipole               -0.1497 Ry au,         -0.3805 Debye
        Dipole field         -0.0003 Ry au, 

        Potential amp.        0.0307 Ry
        Total length         45.8126 bohr


     total cpu time spent up to now is      475.4 secs

     total energy              =    -883.37530527 Ry
     estimated scf accuracy    <       1.63251297 Ry

     iteration #  3     ecut=    55.12 Ry     beta= 0.10
     Davidson diagonalization with overlap
     ethr =  1.36E-03,  avg # of iterations =  5.4

     negative rho (up, down):  3.112E-04 0.000E+00

     Adding external electric field

     Computed dipole along edir(3) : 
        Dipole                0.3115 Ry au,          0.7918 Debye
        Dipole field          0.0007 Ry au, 

        Potential amp.       -0.0639 Ry
        Total length         45.8126 bohr


     total cpu time spent up to now is      685.7 secs

     total energy              =    -883.65857733 Ry
     estimated scf accuracy    <       1.45772495 Ry

     iteration #  4     ecut=    55.12 Ry     beta= 0.10
     Davidson diagonalization with overlap
     ethr =  1.21E-03,  avg # of iterations =  2.2

     negative rho (up, down):  3.124E-04 0.000E+00

     Adding external electric field

     Computed dipole along edir(3) : 
        Dipole                0.0620 Ry au,          0.1575 Debye
        Dipole field          0.0001 Ry au, 

        Potential amp.       -0.0127 Ry
        Total length         45.8126 bohr


     total cpu time spent up to now is      849.4 secs

     total energy              =    -883.69123329 Ry
     estimated scf accuracy    <       1.04574565 Ry

     iteration #  5     ecut=    55.12 Ry     beta= 0.10
     Davidson diagonalization with overlap
     ethr =  8.71E-04,  avg # of iterations =  1.0

     negative rho (up, down):  3.082E-04 0.000E+00

     Adding external electric field

     Computed dipole along edir(3) : 
        Dipole                0.0765 Ry au,          0.1945 Debye
        Dipole field          0.0002 Ry au, 

        Potential amp.       -0.0157 Ry
        Total length         45.8126 bohr


     total cpu time spent up to now is      999.5 secs

     total energy              =    -883.73525111 Ry
     estimated scf accuracy    <       0.11031786 Ry

     iteration #  6     ecut=    55.12 Ry     beta= 0.10
     Davidson diagonalization with overlap
     c_bands:  1 eigenvalues not converged
     ethr =  9.19E-05,  avg # of iterations =  9.9

     negative rho (up, down):  6.040E-04 0.000E+00

     Adding external electric field

     Computed dipole along edir(3) : 
        Dipole                0.0926 Ry au,          0.2353 Debye
        Dipole field          0.0002 Ry au, 

        Potential amp.       -0.0190 Ry
        Total length         45.8126 bohr


     total cpu time spent up to now is     1211.3 secs

     total energy              =    -883.73263179 Ry
     estimated scf accuracy    <       0.05705805 Ry

     iteration #  7     ecut=    55.12 Ry     beta= 0.10
     Davidson diagonalization with overlap
     c_bands:  2 eigenvalues not converged
     c_bands:  2 eigenvalues not converged
     c_bands:  1 eigenvalues not converged
     ethr =  4.75E-05,  avg # of iterations =  8.5

     negative rho (up, down):  5.595E-04 0.000E+00

     Adding external electric field

     Computed dipole along edir(3) : 
        Dipole                0.0984 Ry au,          0.2502 Debye
        Dipole field          0.0002 Ry au, 

        Potential amp.       -0.0202 Ry
        Total length         45.8126 bohr


     total cpu time spent up to now is     1442.4 secs

     total energy              =    -883.74263495 Ry
     estimated scf accuracy    <       0.01276116 Ry

     iteration #  8     ecut=    55.12 Ry     beta= 0.10
     Davidson diagonalization with overlap
     c_bands:  1 eigenvalues not converged
     c_bands:  2 eigenvalues not converged
     c_bands:  1 eigenvalues not converged
     ethr =  1.06E-05,  avg # of iterations =  9.5

     negative rho (up, down):  5.000E-04 0.000E+00

     Adding external electric field

     Computed dipole along edir(3) : 
        Dipole                0.1142 Ry au,          0.2902 Debye
        Dipole field          0.0003 Ry au, 

        Potential amp.       -0.0234 Ry
        Total length         45.8126 bohr


     total cpu time spent up to now is     1656.3 secs

     total energy              =    -883.74299786 Ry
     estimated scf accuracy    <       0.00657396 Ry

     iteration #  9     ecut=    55.12 Ry     beta= 0.10
     Davidson diagonalization with overlap
     c_bands:  1 eigenvalues not converged
     c_bands:  1 eigenvalues not converged
     c_bands:  1 eigenvalues not converged
     c_bands:  1 eigenvalues not converged
     ethr =  5.48E-06,  avg # of iterations =  6.6

     negative rho (up, down):  5.946E-04 0.000E+00

     Adding external electric field

     Computed dipole along edir(3) : 
        Dipole                0.1128 Ry au,          0.2866 Debye
        Dipole field          0.0003 Ry au, 

        Potential amp.       -0.0231 Ry
        Total length         45.8126 bohr


     total cpu time spent up to now is     1850.0 secs

     total energy              =    -883.74399969 Ry
     estimated scf accuracy    <       0.00286845 Ry

     iteration # 10     ecut=    55.12 Ry     beta= 0.10
     Davidson diagonalization with overlap
     ethr =  2.39E-06,  avg # of iterations =  5.9

     negative rho (up, down):  6.165E-04 0.000E+00

     Adding external electric field

     Computed dipole along edir(3) : 
        Dipole                0.1066 Ry au,          0.2709 Debye
        Dipole field          0.0002 Ry au, 

        Potential amp.       -0.0218 Ry
        Total length         45.8126 bohr


     total cpu time spent up to now is     2051.3 secs

     total energy              =    -883.74426510 Ry
     estimated scf accuracy    <       0.00099420 Ry

     iteration # 11     ecut=    55.12 Ry     beta= 0.10
     Davidson diagonalization with overlap
     c_bands:  1 eigenvalues not converged
     c_bands:  1 eigenvalues not converged
     ethr =  8.28E-07,  avg # of iterations =  8.1

     negative rho (up, down):  5.690E-04 0.000E+00

     Adding external electric field

     Computed dipole along edir(3) : 
        Dipole                0.1047 Ry au,          0.2662 Debye
        Dipole field          0.0002 Ry au, 

        Potential amp.       -0.0215 Ry
        Total length         45.8126 bohr


     total cpu time spent up to now is     2287.6 secs

     total energy              =    -883.74435305 Ry
     estimated scf accuracy    <       0.00046472 Ry

     iteration # 12     ecut=    55.12 Ry     beta= 0.10
     Davidson diagonalization with overlap
     c_bands:  1 eigenvalues not converged
     ethr =  3.87E-07,  avg # of iterations =  4.8

     negative rho (up, down):  5.367E-04 0.000E+00

     Adding external electric field

     Computed dipole along edir(3) : 
        Dipole                0.1042 Ry au,          0.2647 Debye
        Dipole field          0.0002 Ry au, 

        Potential amp.       -0.0214 Ry
        Total length         45.8126 bohr


     total cpu time spent up to now is     2489.5 secs

     total energy              =    -883.74443208 Ry
     estimated scf accuracy    <       0.00030562 Ry

     iteration # 13     ecut=    55.12 Ry     beta= 0.10
     Davidson diagonalization with overlap
     ethr =  2.55E-07,  avg # of iterations =  2.3

     negative rho (up, down):  4.989E-04 0.000E+00

     Adding external electric field

     Computed dipole along edir(3) : 
        Dipole                0.1024 Ry au,          0.2603 Debye
        Dipole field          0.0002 Ry au, 

        Potential amp.       -0.0210 Ry
        Total length         45.8126 bohr


     total cpu time spent up to now is     2662.1 secs

     total energy              =    -883.74441644 Ry
     estimated scf accuracy    <       0.00017002 Ry

     iteration # 14     ecut=    55.12 Ry     beta= 0.10
     Davidson diagonalization with overlap
     ethr =  1.42E-07,  avg # of iterations =  2.1

     negative rho (up, down):  3.096E-04 0.000E+00

     Adding external electric field

     Computed dipole along edir(3) : 
        Dipole                0.1008 Ry au,          0.2562 Debye
        Dipole field          0.0002 Ry au, 

        Potential amp.       -0.0207 Ry
        Total length         45.8126 bohr


     total cpu time spent up to now is     2849.1 secs

     End of self-consistent calculation

          k = 0.0000 0.0000 0.0000 ( 38845 PWs)   bands (ev):

   -41.6745 -41.6391 -41.5957 -41.5599 -40.6012 -40.5648 -21.8027 -21.7454
   -21.7261 -21.6814 -21.6397 -21.5947 -21.5310 -21.4973 -21.4673 -21.4317
   -21.3808 -21.3209 -20.8317 -20.6346 -20.6093 -20.5891 -20.5441 -20.3797
    -4.6801  -3.2778  -2.9164  -2.7232  -2.6007  -2.2141  -2.0962  -2.0710
    -2.0548  -2.0543  -1.8146  -1.6734  -1.4567  -1.0785  -1.0325  -1.0109
    -0.8380  -0.7688  -0.7395  -0.7072  -0.6741  -0.5146  -0.4833  -0.1142
    -0.0363   0.0406   0.0577   0.3174   0.5314   0.5596   0.7197   0.7535
     0.9505   1.4356   1.4933   1.6942   1.8436   2.2640   2.3374   2.4534
     2.9118   3.0075   3.2233   3.3657   3.4369   3.5283   3.5862   3.6334

          k = 0.0000 0.0148 0.0000 ( 38890 PWs)   bands (ev):

   -41.6738 -41.6396 -41.5950 -41.5605 -40.6006 -40.5654 -21.7962 -21.7388
   -21.7254 -21.6823 -21.6391 -21.5956 -21.5310 -21.4985 -21.4676 -21.4332
   -21.3887 -21.3288 -20.8248 -20.6347 -20.6081 -20.5906 -20.5451 -20.3882
    -4.6326  -3.2320  -2.8724  -2.7101  -2.5754  -2.1835  -2.0660  -2.0511
    -2.0438  -2.0307  -1.7794  -1.6390  -1.4315  -1.0651  -1.0167  -1.0030
    -0.8228  -0.7615  -0.7530  -0.7078  -0.6643  -0.4947  -0.4759  -0.1134
    -0.0563   0.0344   0.0367   0.3293   0.4853   0.5823   0.6855   0.7379
     0.9367   0.9979   1.4390   1.5902   1.9188   2.3334   2.4388   2.5898
     2.8292   2.9833   3.2792   3.3334   3.4121   3.4378   3.5026   3.6909

          k = 0.0000 0.0297 0.0000 ( 38869 PWs)   bands (ev):

   -41.6720 -41.6413 -41.5932 -41.5622 -40.5987 -40.5672 -21.7769 -21.7234
   -21.7196 -21.6846 -21.6373 -21.5982 -21.5309 -21.5019 -21.4684 -21.4374
   -21.4116 -21.3520 -20.8043 -20.6346 -20.6045 -20.5951 -20.5482 -20.4130
    -4.4933  -3.1001  -2.7436  -2.6872  -2.5070  -2.0945  -2.0007  -1.9966
    -1.9715  -1.9656  -1.7049  -1.5380  -1.3381  -1.0283  -0.9809  -0.9740
    -0.7917  -0.7815  -0.7299  -0.7129  -0.6526  -0.4559  -0.4249  -0.1346
    -0.1111  -0.0203   0.0439   0.3309   0.4050   0.4173   0.6060   0.6984
     0.7500   0.8859   0.9559   1.2262   2.3012   2.3064   2.3684   2.5897
     2.9254   2.9329   3.1898   3.2274   3.3171   3.3907   3.5253   3.7369

          k = 0.0000 0.0445 0.0000 ( 38790 PWs)   bands (ev):

   -41.6691 -41.6440 -41.5902 -41.5650 -40.5957 -40.5699 -21.7460 -21.7201
   -21.6912 -21.6858 -21.6344 -21.6023 -21.5306 -21.5068 -21.4692 -21.4475
   -21.4435 -21.3883 -20.7713 -20.6340 -20.6015 -20.5990 -20.5531 -20.4518
    -4.2715  -2.8993  -2.7013  -2.5393  -2.4161  -1.9568  -1.9154  -1.9018
    -1.8658  -1.8342  -1.6423  -1.3776  -1.1578  -0.9801  -0.9487  -0.9262
    -0.8505  -0.7305  -0.7212  -0.6708  -0.6407  -0.4253  -0.3059  -0.2156
    -0.1617  -0.0917  -0.0364   0.0655   0.2560   0.3905   0.4732   0.6042
     0.6756   0.6891   0.7105   0.9177   2.1361   2.2574   2.2742   2.5429
     2.7763   2.8965   3.0711   3.1046   3.3855   3.4423   3.6819   3.7586

          k = 0.0000 0.0593 0.0000 ( 38809 PWs)   bands (ev):

   -41.6653 -41.6476 -41.5864 -41.5685 -40.5918 -40.5736 -21.7158 -21.7056
   -21.6929 -21.6472 -21.6304 -21.6074 -21.5301 -21.5123 -21.4929 -21.4697
   -21.4504 -21.4340 -20.7276 -20.6325 -20.6090 -20.5919 -20.5596 -20.5013
    -3.9835  -2.8050  -2.6638  -2.3313  -2.2757  -1.8091  -1.7901  -1.7717
    -1.7474  -1.6707  -1.6024  -1.1714  -0.9658  -0.9462  -0.9236  -0.9157
    -0.9054  -0.7660  -0.6692  -0.6188  -0.5812  -0.3811  -0.3771  -0.3126
    -0.2228  -0.1748  -0.1109   0.0169   0.0739   0.2042   0.2695   0.3344
     0.5686   0.6696   0.7635   0.7849   1.8073   1.9827   2.1807   2.2349
     2.8612   2.8694   2.9563   3.0354   3.3949   3.5682   3.6646   3.7928

          k = 0.0000 0.0742 0.0000 ( 38802 PWs)   bands (ev):

   -41.6610 -41.6518 -41.5820 -41.5728 -40.5873 -40.5779 -21.7107 -21.6994
   -21.6558 -21.6255 -21.6140 -21.5975 -21.5489 -21.5242 -21.5177 -21.4905
   -21.4644 -21.4570 -20.6761 -20.6298 -20.6159 -20.5839 -20.5672 -20.5572
    -3.6539  -3.0185  -2.4496  -2.2860  -1.9822  -1.6988  -1.6686  -1.6464
    -1.6348  -1.5792  -1.5065  -1.0772  -1.0059  -0.9826  -0.9139  -0.8856
    -0.8646  -0.7971  -0.6714  -0.5615  -0.5127  -0.4107  -0.4075  -0.3226
    -0.2883  -0.1875  -0.1391  -0.0904  -0.0732   0.0332   0.1513   0.2467
     0.5466   0.6464   0.6948   0.8487   1.5175   1.8242   1.8703   2.0493
     2.7917   2.8297   2.9957   3.0455   3.4372   3.5369   3.6774   3.6858

          k = 0.0000-0.0890 0.0000 ( 38830 PWs)   bands (ev):

   -41.6564 -41.6563 -41.5774 -41.5773 -40.5826 -40.5825 -21.7051 -21.7050
   -21.6202 -21.6201 -21.6021 -21.6020 -21.5444 -21.5443 -21.5223 -21.5221
   -21.4622 -21.4621 -20.6300 -20.6299 -20.6112 -20.6111 -20.5755 -20.5754
    -3.3172  -3.3171  -2.3169  -2.3169  -1.7333  -1.7333  -1.6306  -1.6306
    -1.5573  -1.5573  -1.3284  -1.3284  -1.0190  -1.0190  -0.8733  -0.8733
    -0.7439  -0.7439  -0.6520  -0.6520  -0.4910  -0.4910  -0.3570  -0.3570
    -0.2764  -0.2764  -0.1720  -0.1720   0.0321   0.0321   0.1521   0.1521
     0.5554   0.5554   0.7953   0.7953   1.5345   1.5345   1.9099   1.9099
     2.7674   2.7674   3.0510   3.0510   3.4997   3.4998   3.6492   3.6495

          k = 0.0140-0.0049 0.0000 ( 38890 PWs)   bands (ev):

   -41.6738 -41.6396 -41.5950 -41.5605 -40.6006 -40.5654 -21.7962 -21.7388
   -21.7254 -21.6823 -21.6391 -21.5956 -21.5310 -21.4985 -21.4676 -21.4332
   -21.3887 -21.3288 -20.8248 -20.6347 -20.6081 -20.5906 -20.5451 -20.3882
    -4.6326  -3.2320  -2.8724  -2.7101  -2.5754  -2.1835  -2.0660  -2.0511
    -2.0438  -2.0307  -1.7794  -1.6390  -1.4315  -1.0651  -1.0167  -1.0030
    -0.8228  -0.7615  -0.7530  -0.7078  -0.6643  -0.4947  -0.4759  -0.1134
    -0.0563   0.0344   0.0367   0.3293   0.4853   0.5823   0.6855   0.7379
     0.9367   0.9979   1.4390   1.5902   1.9188   2.3333   2.4387   2.5898
     2.8292   2.9832   3.2792   3.3331   3.4121   3.4378   3.5026   3.6908

          k = 0.0140 0.0099 0.0000 ( 38849 PWs)   bands (ev):

   -41.6744 -41.6390 -41.5956 -41.5599 -40.6011 -40.5648 -21.8039 -21.7466
   -21.7265 -21.6812 -21.6405 -21.5949 -21.5330 -21.4970 -21.4705 -21.4325
   -21.3812 -21.3212 -20.8329 -20.6367 -20.6081 -20.5902 -20.5449 -20.3802
    -4.6154  -3.2166  -2.8740  -2.6994  -2.5504  -2.1857  -2.0685  -2.0365
    -2.0269  -2.0098  -1.7583  -1.6426  -1.4229  -1.0584  -1.0249  -0.9681
    -0.8232  -0.7709  -0.7325  -0.7223  -0.6416  -0.4907  -0.4384  -0.0876
    -0.0337   0.0405   0.0444   0.3065   0.5372   0.5683   0.6950   0.7353
     0.9138   1.4148   1.4320   1.6995   1.8380   2.1809   2.3184   2.3912
     2.7734   2.8765   3.0546   3.2156   3.3494   3.3582   3.4264   3.7462

          k = 0.0140 0.0247 0.0000 ( 38873 PWs)   bands (ev):

   -41.6736 -41.6396 -41.5948 -41.5605 -40.6004 -40.5653 -21.7984 -21.7411
   -21.7263 -21.6817 -21.6405 -21.5960 -21.5350 -21.4978 -21.4736 -21.4346
   -21.3894 -21.3295 -20.8270 -20.6386 -20.6057 -20.5926 -20.5467 -20.3891
    -4.5055  -3.1137  -2.7921  -2.6719  -2.4805  -2.1292  -2.0119  -1.9820
    -1.9746  -1.9514  -1.6879  -1.5789  -1.3524  -1.0281  -1.0027  -0.9204
    -0.7952  -0.7555  -0.7428  -0.7340  -0.6207  -0.4379  -0.3908  -0.0821
    -0.0515   0.0155   0.0460   0.3091   0.4909   0.5851   0.6543   0.7046
     0.8627   0.9463   1.3871   1.5726   1.8525   2.1579   2.4023   2.4285
     2.5869   2.7625   2.9757   3.1048   3.1584   3.2569   3.3813   3.7471

          k = 0.0140 0.0396 0.0000 ( 38836 PWs)   bands (ev):

   -41.6717 -41.6413 -41.5929 -41.5622 -40.5985 -40.5670 -21.7798 -21.7247
   -21.7227 -21.6838 -21.6390 -21.5986 -21.5366 -21.5007 -21.4762 -21.4388
   -21.4123 -21.3527 -20.8073 -20.6397 -20.6013 -20.5974 -20.5505 -20.4140
    -4.3107  -2.9380  -2.6671  -2.6358  -2.3846  -2.0206  -1.9172  -1.8820
    -1.8785  -1.8523  -1.6271  -1.4528  -1.1947  -0.9879  -0.9602  -0.8691
    -0.7753  -0.7574  -0.7460  -0.7045  -0.6154  -0.3397  -0.3278  -0.1392
    -0.1054  -0.0338   0.0843   0.3045   0.3451   0.4083   0.5353   0.7002
     0.7598   0.8109   0.8808   1.1630   1.9113   2.1881   2.3201   2.3356
     2.5142   2.7236   2.9397   3.0406   3.0991   3.1830   3.4276   3.7044

          k = 0.0140 0.0544 0.0000 ( 38812 PWs)   bands (ev):

   -41.6688 -41.6440 -41.5899 -41.5650 -40.5955 -40.5697 -21.7492 -21.7218
   -21.6929 -21.6864 -21.6361 -21.6024 -21.5373 -21.5049 -21.4775 -21.4478
   -21.4441 -21.3886 -20.7746 -20.6395 -20.6036 -20.5953 -20.5560 -20.4526
    -4.0448  -2.7352  -2.7181  -2.4184  -2.2885  -1.8747  -1.8076  -1.7682
    -1.7276  -1.7145  -1.5882  -1.2767  -1.0225  -0.9716  -0.8933  -0.8357
    -0.8222  -0.7927  -0.6766  -0.6393  -0.5874  -0.2902  -0.2301  -0.1951
    -0.1746  -0.0962  -0.0560   0.0926   0.2395   0.3237   0.3887   0.5101
     0.5970   0.7599   0.7849   0.7865   1.6031   2.0820   2.1340   2.1572
     2.5341   2.7631   2.8456   3.0366   3.1550   3.2783   3.5661   3.6305

          k = 0.0140 0.0692 0.0000 ( 38808 PWs)   bands (ev):

   -41.6650 -41.6477 -41.5861 -41.5686 -40.5917 -40.5734 -21.7177 -21.7085
   -21.6918 -21.6505 -21.6318 -21.6071 -21.5371 -21.5097 -21.4927 -21.4772
   -21.4496 -21.4337 -20.7307 -20.6373 -20.6100 -20.5880 -20.5628 -20.5014
    -3.7284  -2.9072  -2.5009  -2.2221  -2.1594  -1.7200  -1.6914  -1.6658
    -1.5888  -1.5636  -1.5493  -1.0755  -1.0318  -0.9612  -0.8755  -0.8520
    -0.8421  -0.7944  -0.6421  -0.5815  -0.5171  -0.3572  -0.3381  -0.2560
    -0.2293  -0.0937  -0.0180   0.0173   0.0307   0.1379   0.1597   0.2463
     0.5137   0.6358   0.7895   0.8309   1.3835   1.7964   1.9001   1.9632
     2.7368   2.7513   2.8143   3.0786   3.1895   3.4436   3.5485   3.6151

          k = 0.0140-0.0939 0.0000 ( 38844 PWs)   bands (ev):

   -41.6607 -41.6519 -41.5818 -41.5729 -40.5873 -40.5778 -21.7126 -21.6982
   -21.6581 -21.6263 -21.6134 -21.5998 -21.5490 -21.5298 -21.5144 -21.4903
   -21.4693 -21.4544 -20.6784 -20.6331 -20.6157 -20.5801 -20.5707 -20.5567
    -3.3907  -3.1761  -2.3453  -2.2213  -1.9028  -1.6186  -1.6086  -1.6066
    -1.5966  -1.4772  -1.4181  -1.1487  -1.0854  -0.9514  -0.8856  -0.8636
    -0.8175  -0.7638  -0.6524  -0.5340  -0.5245  -0.4311  -0.3766  -0.3397
    -0.2427  -0.2289  -0.1818  -0.0956   0.0320   0.0367   0.1416   0.1445
     0.5330   0.5629   0.6938   0.8506   1.5005   1.5561   1.6902   1.9536
     2.7411   2.8657   2.8725   3.1448   3.2797   3.4568   3.5534   3.6542

          k = 0.0140-0.0791 0.0000 ( 38801 PWs)   bands (ev):

   -41.6565 -41.6562 -41.5776 -41.5772 -40.5826 -40.5825 -21.7068 -21.7037
   -21.6204 -21.6189 -21.6032 -21.6003 -21.5458 -21.5425 -21.5278 -21.5185
   -21.4659 -21.4579 -20.6297 -20.6282 -20.6126 -20.6117 -20.5791 -20.5719
    -3.5023  -3.0721  -2.3223  -2.2872  -1.7825  -1.7733  -1.6674  -1.6096
    -1.5228  -1.5192  -1.3853  -1.2561  -1.0830  -0.9135  -0.9120  -0.8508
    -0.7465  -0.7384  -0.7189  -0.5619  -0.5177  -0.4722  -0.4282  -0.3831
    -0.3076  -0.3069  -0.2113  -0.1897  -0.0860   0.0304   0.1353   0.2440
     0.5676   0.5689   0.6382   0.8309   1.5978   1.6221   1.8319   2.0004
     2.8616   2.9288   2.9513   3.1684   3.3515   3.5234   3.5871   3.6959

          k = 0.0140-0.0643 0.0000 ( 38773 PWs)   bands (ev):

   -41.6612 -41.6517 -41.5823 -41.5727 -40.5873 -40.5780 -21.7094 -21.7008
   -21.6537 -21.6238 -21.6137 -21.5953 -21.5483 -21.5221 -21.5213 -21.4900
   -21.4599 -21.4587 -20.6736 -20.6264 -20.6166 -20.5874 -20.5641 -20.5582
    -3.8380  -2.8239  -2.5251  -2.3145  -2.0647  -1.8453  -1.7742  -1.6999
    -1.6699  -1.5600  -1.5071  -1.0428  -1.0357  -0.9987  -0.9648  -0.8936
    -0.8495  -0.7123  -0.7033  -0.5981  -0.5498  -0.5279  -0.4642  -0.3744
    -0.2483  -0.2332  -0.1377  -0.1238  -0.0959  -0.0452   0.1547   0.3420
     0.5472   0.6129   0.7306   0.8011   1.6942   1.9488   2.0582   2.2516
     2.9242   3.0545   3.0788   3.1005   3.4759   3.5398   3.6650   3.6712

          k = 0.0140-0.0494 0.0000 ( 38771 PWs)   bands (ev):

   -41.6655 -41.6476 -41.5866 -41.5685 -40.5919 -40.5737 -21.7147 -21.7035
   -21.6938 -21.6447 -21.6287 -21.6070 -21.5255 -21.5152 -21.4936 -21.4630
   -21.4506 -21.4348 -20.7252 -20.6288 -20.6084 -20.5949 -20.5572 -20.5014
    -4.1430  -2.7718  -2.6896  -2.3913  -2.3628  -1.9493  -1.8819  -1.8464
    -1.8193  -1.7297  -1.5486  -1.2449  -1.1267  -1.0064  -0.9459  -0.9383
    -0.8494  -0.6911  -0.6845  -0.6382  -0.6242  -0.4925  -0.4051  -0.2908
    -0.2816  -0.1921  -0.1713   0.0042   0.1239   0.1553   0.3294   0.4052
     0.5867   0.6280   0.6953   0.9154   1.9823   2.1158   2.3253   2.6730
     2.9362   3.0012   3.1185   3.2385   3.5919   3.5933   3.6696   3.7093

          k = 0.0140-0.0346 0.0000 ( 38847 PWs)   bands (ev):

   -41.6692 -41.6440 -41.5904 -41.5649 -40.5957 -40.5700 -21.7441 -21.7193
   -21.6910 -21.6846 -21.6330 -21.6019 -21.5272 -21.5083 -21.4639 -21.4474
   -21.4429 -21.3882 -20.7693 -20.6308 -20.6012 -20.6004 -20.5515 -20.4514
    -4.3885  -2.9960  -2.6652  -2.6101  -2.4804  -2.0194  -2.0052  -1.9697
    -1.9265  -1.8848  -1.6260  -1.4336  -1.3040  -1.0225  -1.0003  -0.9105
    -0.8615  -0.7450  -0.6865  -0.6862  -0.6524  -0.5030  -0.3999  -0.2016
    -0.1494  -0.0922  -0.0106   0.0226   0.2422   0.4197   0.5175   0.5992
     0.6530   0.7343   0.7399   0.9915   2.1964   2.3550   2.5185   2.6688
     3.0615   3.1145   3.2163   3.3549   3.5340   3.5585   3.6449   3.7009

          k = 0.0140-0.0198 0.0000 ( 38863 PWs)   bands (ev):

   -41.6721 -41.6413 -41.5933 -41.5622 -40.5987 -40.5672 -21.7758 -21.7229
   -21.7185 -21.6849 -21.6366 -21.5980 -21.5291 -21.5025 -21.4654 -21.4368
   -21.4114 -21.3518 -20.8031 -20.6327 -20.6057 -20.5942 -20.5474 -20.4126
    -4.5555  -3.1563  -2.7836  -2.6914  -2.5492  -2.1216  -2.0461  -2.0284
    -2.0018  -2.0004  -1.7233  -1.5679  -1.3978  -1.0444  -1.0213  -0.9763
    -0.7974  -0.7941  -0.7351  -0.6943  -0.6633  -0.4978  -0.4679  -0.1294
    -0.1182  -0.0115   0.0240   0.3333   0.4216   0.4230   0.5891   0.7412
     0.7521   0.9223   0.9797   1.2438   2.2725   2.3436   2.5121   2.6864
     3.0484   3.0817   3.3277   3.3752   3.4496   3.5254   3.5377   3.6994

          k = 0.0280-0.0099 0.0000 ( 38869 PWs)   bands (ev):

   -41.6720 -41.6413 -41.5932 -41.5622 -40.5987 -40.5672 -21.7769 -21.7234
   -21.7196 -21.6846 -21.6373 -21.5982 -21.5309 -21.5019 -21.4684 -21.4374
   -21.4116 -21.3520 -20.8043 -20.6346 -20.6045 -20.5951 -20.5482 -20.4130
    -4.4933  -3.1001  -2.7436  -2.6872  -2.5070  -2.0945  -2.0007  -1.9966
    -1.9715  -1.9656  -1.7049  -1.5380  -1.3381  -1.0283  -0.9809  -0.9740
    -0.7917  -0.7815  -0.7299  -0.7129  -0.6526  -0.4559  -0.4249  -0.1346
    -0.1111  -0.0203   0.0439   0.3309   0.4050   0.4173   0.6060   0.6984
     0.7500   0.8859   0.9559   1.2262   2.3012   2.3065   2.3685   2.5897
     2.9254   2.9330   3.1898   3.2273   3.3170   3.3909   3.5261   3.7374

          k = 0.0280 0.0049 0.0000 ( 38873 PWs)   bands (ev):

   -41.6736 -41.6396 -41.5948 -41.5605 -40.6004 -40.5653 -21.7984 -21.7411
   -21.7263 -21.6817 -21.6405 -21.5960 -21.5350 -21.4978 -21.4736 -21.4346
   -21.3894 -21.3295 -20.8270 -20.6386 -20.6057 -20.5926 -20.5467 -20.3891
    -4.5055  -3.1137  -2.7921  -2.6719  -2.4805  -2.1292  -2.0119  -1.9820
    -1.9746  -1.9514  -1.6879  -1.5789  -1.3524  -1.0281  -1.0027  -0.9204
    -0.7952  -0.7555  -0.7427  -0.7340  -0.6207  -0.4379  -0.3908  -0.0821
    -0.0515   0.0155   0.0460   0.3091   0.4909   0.5851   0.6543   0.7046
     0.8627   0.9463   1.3871   1.5726   1.8525   2.1579   2.4023   2.4285
     2.5869   2.7625   2.9757   3.1048   3.1584   3.2569   3.3813   3.7471

          k = 0.0280 0.0198 0.0000 ( 38820 PWs)   bands (ev):

   -41.6741 -41.6390 -41.5953 -41.5599 -40.6010 -40.5646 -21.8070 -21.7499
   -21.7280 -21.6805 -21.6422 -21.5952 -21.5392 -21.4964 -21.4788 -21.4345
   -21.3822 -21.3223 -20.8362 -20.6424 -20.6048 -20.5932 -20.5471 -20.3817
    -4.4258  -3.0398  -2.7609  -2.6305  -2.4056  -2.1080  -1.9802  -1.9351
    -1.9297  -1.8979  -1.5968  -1.5542  -1.3264  -1.0015  -0.9993  -0.8455
    -0.7804  -0.7623  -0.7587  -0.7062  -0.5771  -0.4247  -0.3155  -0.0360
    -0.0162   0.0167   0.0324   0.2753   0.5116   0.5560   0.6340   0.7613
     0.8315   1.2001   1.4231   1.7139   1.8155   1.9227   1.9539   2.3677
     2.4388   2.6452   2.6572   2.9464   2.9942   3.1245   3.3427   3.7196

          k = 0.0280 0.0346 0.0000 ( 38808 PWs)   bands (ev):

   -41.6733 -41.6396 -41.5945 -41.5604 -40.6002 -40.5650 -21.8022 -21.7452
   -21.7283 -21.6810 -21.6422 -21.5960 -21.5429 -21.4975 -21.4831 -21.4366
   -21.3905 -21.3307 -20.8309 -20.6453 -20.6018 -20.5961 -20.5495 -20.3908
    -4.2604  -2.8912  -2.6598  -2.5989  -2.3001  -2.0350  -1.8938  -1.8489
    -1.8475  -1.8073  -1.5107  -1.4668  -1.2141  -0.9786  -0.9517  -0.7923
    -0.7694  -0.7472  -0.7245  -0.6984  -0.5630  -0.3475  -0.2418  -0.0766
    -0.0364  -0.0057   0.0740   0.2587   0.4392   0.5126   0.6865   0.6938
     0.7478   0.8666   1.2729   1.5261   1.6479   1.7573   2.1358   2.1651
     2.2216   2.5771   2.6916   2.8050   2.9194   3.0257   3.2851   3.6463

          k = 0.0280 0.0495 0.0000 ( 38806 PWs)   bands (ev):

   -41.6714 -41.6413 -41.5925 -41.5622 -40.5983 -40.5667 -21.7838 -21.7270
   -21.7269 -21.6831 -21.6404 -21.5981 -21.5456 -21.5004 -21.4857 -21.4402
   -21.4132 -21.3536 -20.8114 -20.6466 -20.6008 -20.5972 -20.5536 -20.4155
    -4.0212  -2.6925  -2.6256  -2.5018  -2.1887  -1.9196  -1.7738  -1.7422
    -1.7213  -1.6813  -1.4604  -1.3270  -1.0571  -0.9717  -0.8749  -0.8336
    -0.7419  -0.6916  -0.6903  -0.6576  -0.5558  -0.2250  -0.2012  -0.1391
    -0.1088  -0.0279   0.1169   0.1908   0.2323   0.4188   0.4311   0.6715
     0.7485   0.7801   0.8335   1.0223   1.3654   1.9027   1.9749   2.0138
     2.1377   2.6545   2.7658   2.9023   2.9272   2.9836   3.2872   3.5519

          k = 0.0280 0.0643 0.0000 ( 38816 PWs)   bands (ev):

   -41.6685 -41.6440 -41.5896 -41.5650 -40.5953 -40.5695 -21.7529 -21.7242
   -21.6962 -21.6861 -21.6369 -21.6015 -21.5465 -21.5043 -21.4858 -21.4483
   -21.4442 -21.3891 -20.7783 -20.6455 -20.6061 -20.5911 -20.5593 -20.4535
    -3.7254  -2.7492  -2.4831  -2.3044  -2.0986  -1.7791  -1.6473  -1.6389
    -1.5594  -1.5580  -1.4083  -1.1593  -1.0432  -0.9641  -0.8834  -0.7737
    -0.7682  -0.6810  -0.6196  -0.6057  -0.5093  -0.2688  -0.2090  -0.1913
    -0.1152  -0.1019   0.0205   0.0849   0.0878   0.2551   0.3168   0.4550
     0.4608   0.6237   0.7563   0.8442   1.2486   1.6258   1.7191   1.8873
     2.4008   2.6871   2.8527   2.9386   3.0023   3.1636   3.3590   3.4474

          k = 0.0280-0.0989 0.0000 ( 38792 PWs)   bands (ev):

   -41.6648 -41.6477 -41.5858 -41.5687 -40.5916 -40.5733 -21.7200 -21.7114
   -21.6909 -21.6536 -21.6320 -21.6056 -21.5452 -21.5088 -21.4930 -21.4832
   -21.4481 -21.4340 -20.7335 -20.6418 -20.6113 -20.5842 -20.5662 -20.5018
    -3.3971  -2.9777  -2.3164  -2.1019  -2.0628  -1.6348  -1.5733  -1.5418
    -1.5039  -1.4021  -1.3507  -1.1256  -1.0030  -0.9952  -0.9052  -0.8153
    -0.7834  -0.7116  -0.6019  -0.5580  -0.4787  -0.3748  -0.3544  -0.3122
    -0.1603  -0.1347  -0.0404  -0.0162   0.0270   0.0470   0.1142   0.1788
     0.4777   0.5689   0.5713   0.8658   1.3885   1.4454   1.5443   1.8377
     2.6268   2.7484   2.9621   2.9908   3.0816   3.3473   3.4129   3.4183

          k = 0.0280-0.0841 0.0000 ( 38801 PWs)   bands (ev):

   -41.6605 -41.6520 -41.5816 -41.5730 -40.5872 -40.5777 -21.7146 -21.6974
   -21.6600 -21.6261 -21.6121 -21.6014 -21.5484 -21.5367 -21.5131 -21.4887
   -21.4742 -21.4515 -20.6799 -20.6355 -20.6160 -20.5768 -20.5738 -20.5566
    -3.2827  -3.0711  -2.2378  -2.1246  -1.9738  -1.6010  -1.5597  -1.5254
    -1.4699  -1.3704  -1.3014  -1.2067  -1.1586  -0.9257  -0.8819  -0.8351
    -0.7773  -0.6768  -0.6364  -0.5695  -0.5274  -0.4446  -0.4190  -0.3836
    -0.3351  -0.3192  -0.2306  -0.2221   0.0048   0.0316   0.1019   0.1998
     0.4416   0.5862   0.5896   0.8076   1.2682   1.6554   1.7845   1.8360
     2.7597   2.9160   3.0345   3.1040   3.2200   3.2968   3.5214   3.8351

          k = 0.0280-0.0692 0.0000 ( 38796 PWs)   bands (ev):

   -41.6566 -41.6561 -41.5777 -41.5771 -40.5826 -40.5825 -21.7083 -21.7030
   -21.6200 -21.6175 -21.6037 -21.5987 -21.5466 -21.5409 -21.5333 -21.5170
   -21.4685 -21.4544 -20.6282 -20.6247 -20.6158 -20.6134 -20.5818 -20.5694
    -3.6161  -2.7993  -2.3083  -2.2507  -1.9761  -1.7892  -1.7056  -1.6067
    -1.5145  -1.4082  -1.3341  -1.1997  -1.1107  -1.0090  -0.8447  -0.8106
    -0.7609  -0.7435  -0.6590  -0.6212  -0.5396  -0.5252  -0.5132  -0.4147
    -0.3963  -0.2932  -0.2585  -0.2042  -0.1135  -0.1050   0.0987   0.3030
     0.4230   0.6479   0.7101   0.7931   1.3119   1.8683   1.9900   2.1989
     2.7921   3.0811   3.1544   3.1967   3.3173   3.4521   3.5462   3.7029

          k = 0.0280-0.0544 0.0000 ( 38811 PWs)   bands (ev):

   -41.6613 -41.6517 -41.5824 -41.5726 -40.5874 -40.5780 -21.7088 -21.7018
   -21.6524 -21.6224 -21.6130 -21.5939 -21.5477 -21.5253 -21.5205 -21.4895
   -21.4596 -21.4571 -20.6718 -20.6242 -20.6172 -20.5894 -20.5624 -20.5590
    -3.9322  -2.6465  -2.5632  -2.3222  -2.1068  -2.0212  -1.8153  -1.7300
    -1.6962  -1.5818  -1.3679  -1.1274  -1.0638  -1.0436  -1.0269  -0.8742
    -0.7725  -0.7092  -0.6606  -0.6391  -0.6043  -0.5882  -0.5307  -0.3568
    -0.2733  -0.2358  -0.2006  -0.1200  -0.1008  -0.0342   0.0754   0.3837
     0.4710   0.6296   0.7152   0.9250   1.5807   1.9451   2.3926   2.6506
     2.7553   3.0352   3.2913   3.3214   3.4162   3.4976   3.6148   3.7957

          k = 0.0280-0.0396 0.0000 ( 38847 PWs)   bands (ev):

   -41.6656 -41.6476 -41.5867 -41.5685 -40.5919 -40.5737 -21.7143 -21.7028
   -21.6942 -21.6438 -21.6279 -21.6068 -21.5238 -21.5165 -21.4940 -21.4602
   -21.4506 -21.4353 -20.7242 -20.6274 -20.6082 -20.5960 -20.5563 -20.5015
    -4.1971  -2.8092  -2.6279  -2.4107  -2.3936  -2.0328  -1.9064  -1.8677
    -1.8445  -1.7485  -1.4835  -1.2716  -1.2440  -1.0448  -0.9454  -0.9426
    -0.8204  -0.6938  -0.6668  -0.6348  -0.6316  -0.5269  -0.4102  -0.3496
    -0.2817  -0.1840  -0.1668  -0.0168   0.1251   0.1441   0.3497   0.4207
     0.5555   0.5999   0.7419   0.9654   1.9795   2.0633   2.6318   2.8125
     2.8910   3.1144   3.2042   3.3869   3.5132   3.5686   3.6610   3.6852

          k = 0.0280-0.0247 0.0000 ( 38847 PWs)   bands (ev):

   -41.6692 -41.6440 -41.5904 -41.5649 -40.5957 -40.5700 -21.7441 -21.7193
   -21.6910 -21.6846 -21.6330 -21.6019 -21.5272 -21.5083 -21.4639 -21.4474
   -21.4429 -21.3882 -20.7693 -20.6308 -20.6012 -20.6004 -20.5515 -20.4514
    -4.3885  -2.9960  -2.6652  -2.6101  -2.4804  -2.0194  -2.0052  -1.9697
    -1.9265  -1.8848  -1.6260  -1.4336  -1.3040  -1.0225  -1.0003  -0.9105
    -0.8615  -0.7450  -0.6865  -0.6862  -0.6524  -0.5030  -0.3999  -0.2016
    -0.1494  -0.0922  -0.0106   0.0226   0.2422   0.4197   0.5175   0.5992
     0.6530   0.7343   0.7399   0.9915   2.1964   2.3551   2.5185   2.6689
     3.0615   3.1145   3.2163   3.3549   3.5339   3.5582   3.6447   3.7005

          k = 0.0420-0.0148 0.0000 ( 38790 PWs)   bands (ev):

   -41.6691 -41.6440 -41.5902 -41.5650 -40.5957 -40.5699 -21.7460 -21.7201
   -21.6912 -21.6858 -21.6344 -21.6023 -21.5306 -21.5068 -21.4692 -21.4475
   -21.4435 -21.3883 -20.7713 -20.6340 -20.6016 -20.5990 -20.5531 -20.4518
    -4.2715  -2.8993  -2.7013  -2.5393  -2.4161  -1.9568  -1.9154  -1.9018
    -1.8658  -1.8342  -1.6423  -1.3776  -1.1578  -0.9801  -0.9487  -0.9262
    -0.8505  -0.7305  -0.7212  -0.6708  -0.6407  -0.4253  -0.3059  -0.2156
    -0.1617  -0.0917  -0.0364   0.0655   0.2560   0.3905   0.4732   0.6042
     0.6756   0.6891   0.7105   0.9177   2.1362   2.2574   2.2743   2.5428
     2.7762   2.8965   3.0710   3.1046   3.3851   3.4422   3.6822   3.7505

          k = 0.0420 0.0000 0.0000 ( 38836 PWs)   bands (ev):

   -41.6717 -41.6413 -41.5929 -41.5622 -40.5985 -40.5670 -21.7798 -21.7247
   -21.7227 -21.6838 -21.6390 -21.5986 -21.5366 -21.5007 -21.4762 -21.4388
   -21.4123 -21.3527 -20.8073 -20.6397 -20.6013 -20.5974 -20.5505 -20.4140
    -4.3107  -2.9380  -2.6671  -2.6358  -2.3846  -2.0206  -1.9172  -1.8820
    -1.8785  -1.8523  -1.6271  -1.4528  -1.1947  -0.9879  -0.9602  -0.8691
    -0.7753  -0.7574  -0.7460  -0.7045  -0.6154  -0.3397  -0.3278  -0.1392
    -0.1054  -0.0338   0.0843   0.3045   0.3451   0.4083   0.5353   0.7002
     0.7598   0.8109   0.8808   1.1630   1.9113   2.1881   2.3201   2.3356
     2.5142   2.7235   2.9397   3.0404   3.0991   3.1829   3.4279   3.7051

          k = 0.0420 0.0148 0.0000 ( 38808 PWs)   bands (ev):

   -41.6733 -41.6396 -41.5945 -41.5604 -40.6002 -40.5650 -21.8022 -21.7452
   -21.7283 -21.6810 -21.6422 -21.5960 -21.5429 -21.4975 -21.4831 -21.4366
   -21.3905 -21.3307 -20.8309 -20.6453 -20.6018 -20.5961 -20.5495 -20.3908
    -4.2604  -2.8912  -2.6598  -2.5989  -2.3001  -2.0350  -1.8938  -1.8489
    -1.8475  -1.8073  -1.5107  -1.4668  -1.2141  -0.9786  -0.9517  -0.7923
    -0.7694  -0.7472  -0.7245  -0.6984  -0.5630  -0.3475  -0.2418  -0.0766
    -0.0364  -0.0057   0.0740   0.2587   0.4392   0.5126   0.6865   0.6938
     0.7478   0.8666   1.2729   1.5261   1.6479   1.7573   2.1358   2.1651
     2.2216   2.5772   2.6918   2.8050   2.9194   3.0258   3.2854   3.6476

          k = 0.0420 0.0297 0.0000 ( 38838 PWs)   bands (ev):

   -41.6737 -41.6389 -41.5948 -41.5598 -40.6007 -40.5643 -21.8113 -21.7545
   -21.7305 -21.6798 -21.6436 -21.5948 -21.5489 -21.4969 -21.4891 -21.4367
   -21.3836 -21.3237 -20.8406 -20.6500 -20.6005 -20.5973 -20.5502 -20.3836
    -4.1261  -2.7716  -2.6226  -2.5295  -2.1795  -2.0007  -1.8240  -1.7782
    -1.7703  -1.7315  -1.4197  -1.3560  -1.1874  -0.9469  -0.9165  -0.8160
    -0.7403  -0.7099  -0.6856  -0.6314  -0.5163  -0.3340  -0.1426  -0.0762
    -0.0019  -0.0010   0.0750   0.2321   0.3426   0.5889   0.6835   0.6978
     0.8269   0.8961   1.3660   1.4129   1.6405   1.6917   1.7914   1.8979
     2.0419   2.1505   2.5649   2.6904   2.8338   2.9277   3.2024   3.4807

          k = 0.0420 0.0445 0.0000 ( 38821 PWs)   bands (ev):

   -41.6729 -41.6395 -41.5940 -41.5604 -40.6000 -40.5648 -21.8065 -21.7498
   -21.7310 -21.6804 -21.6430 -21.5950 -21.5537 -21.4985 -21.4930 -21.4383
   -21.3918 -21.3320 -20.8354 -20.6529 -20.6002 -20.5975 -20.5527 -20.3927
    -3.9179  -2.6024  -2.5361  -2.5060  -2.0477  -1.9223  -1.7081  -1.6858
    -1.6576  -1.6211  -1.3194  -1.2739  -1.0701  -0.9284  -0.8510  -0.8500
    -0.7245  -0.6635  -0.6482  -0.5529  -0.4998  -0.2557  -0.1491  -0.0716
    -0.0446  -0.0067   0.1238   0.1674   0.3289   0.5108   0.5445   0.6526
     0.7362   0.8472   1.1015   1.1180   1.3837   1.6059   1.6656   1.7706
     1.8722   2.2629   2.5650   2.6267   2.8604   2.8967   3.1171   3.3415

          k = 0.0420 0.0593 0.0000 ( 38826 PWs)   bands (ev):

   -41.6710 -41.6412 -41.5921 -41.5622 -40.5981 -40.5665 -21.7878 -21.7310
   -21.7298 -21.6826 -21.6406 -21.5967 -21.5562 -21.5015 -21.4942 -21.4408
   -21.4142 -21.3547 -20.8154 -20.6532 -20.6041 -20.5932 -20.5567 -20.4170
    -3.6509  -2.5717  -2.4374  -2.3966  -1.9312  -1.8098  -1.5899  -1.5697
    -1.5129  -1.4992  -1.2273  -1.1901  -1.0203  -0.9549  -0.8943  -0.7508
    -0.6777  -0.6660  -0.5689  -0.5266  -0.4728  -0.2266  -0.1636  -0.1515
    -0.0293  -0.0152   0.0832   0.0958   0.1220   0.3672   0.4467   0.5554
     0.6093   0.6321   0.7997   0.8690   1.1146   1.3197   1.5852   1.7338
     2.0107   2.5120   2.6200   2.8180   2.8456   2.9836   3.0910   3.3136

          k = 0.0420-0.1038 0.0000 ( 38780 PWs)   bands (ev):

   -41.6682 -41.6440 -41.5892 -41.5650 -40.5952 -40.5694 -21.7560 -21.7267
   -21.6994 -21.6859 -21.6366 -21.5997 -21.5558 -21.5052 -21.4921 -21.4489
   -21.4437 -21.3897 -20.7814 -20.6506 -20.6083 -20.5877 -20.5622 -20.4545
    -3.3452  -2.7469  -2.3135  -2.2382  -1.8592  -1.6768  -1.5130  -1.4449
    -1.4119  -1.3428  -1.1854  -1.1248  -1.0783  -0.9601  -0.9309  -0.6954
    -0.6898  -0.6002  -0.5787  -0.5471  -0.4421  -0.2866  -0.2816  -0.2789
    -0.1272  -0.0593   0.0023   0.0736   0.0875   0.0975   0.2663   0.2983
     0.3858   0.4542   0.5818   0.8650   1.0834   1.3470   1.4711   1.6662
     2.3136   2.6992   2.7035   2.8533   3.0815   3.1167   3.1799   3.3418

          k = 0.0420-0.0890 0.0000 ( 38831 PWs)   bands (ev):

   -41.6646 -41.6477 -41.5856 -41.5687 -40.5915 -40.5732 -21.7219 -21.7135
   -21.6905 -21.6558 -21.6314 -21.6039 -21.5520 -21.5091 -21.4933 -21.4869
   -21.4466 -21.4344 -20.7355 -20.6449 -20.6124 -20.5815 -20.5686 -20.5022
    -3.0308  -3.0165  -2.2300  -2.1481  -1.8770  -1.5275  -1.5119  -1.3985
    -1.3985  -1.2226  -1.1849  -1.1753  -1.0259  -0.9827  -0.9033  -0.8461
    -0.6966  -0.6570  -0.6137  -0.5431  -0.4937  -0.3997  -0.3598  -0.3388
    -0.2914  -0.2323  -0.2019  -0.1478   0.0529   0.0569   0.1316   0.1512
     0.3401   0.4672   0.6072   0.8006   0.9677   1.5869   1.6535   1.6698
     2.5470   2.8179   2.8844   2.9344   3.1636   3.3032   3.3159   3.4764

          k = 0.0420-0.0742 0.0000 ( 38785 PWs)   bands (ev):

   -41.6604 -41.6521 -41.5814 -41.5731 -40.5872 -40.5777 -21.7158 -21.6971
   -21.6610 -21.6255 -21.6111 -21.6020 -21.5466 -21.5426 -21.5129 -21.4863
   -21.4783 -21.4497 -20.6805 -20.6368 -20.6163 -20.5757 -20.5750 -20.5567
    -3.3359  -2.7621  -2.2042  -2.1402  -2.0364  -1.6138  -1.5116  -1.4785
    -1.3488  -1.2824  -1.2314  -1.1921  -1.1029  -1.0360  -0.8754  -0.8278
    -0.7191  -0.6515  -0.6354  -0.5913  -0.5572  -0.5318  -0.4876  -0.4170
    -0.3959  -0.3395  -0.3149  -0.2287  -0.0767   0.0055   0.0481   0.2239
     0.3262   0.6658   0.7162   0.7201   0.9530   1.6873   1.8803   2.0414
     2.6667   2.8861   3.0870   3.1514   3.2488   3.3137   3.5201   3.8499

          k = 0.0420-0.0593 0.0000 ( 38829 PWs)   bands (ev):

   -41.6567 -41.6560 -41.5778 -41.5770 -40.5826 -40.5825 -21.7089 -21.7028
   -21.6197 -21.6169 -21.6038 -21.5979 -21.5469 -21.5401 -21.5356 -21.5167
   -21.4694 -21.4531 -20.6271 -20.6203 -20.6201 -20.6145 -20.5828 -20.5685
    -3.6544  -2.6328  -2.2985  -2.2390  -2.1145  -1.7912  -1.7230  -1.6081
    -1.5137  -1.4072  -1.1840  -1.1460  -1.1171  -1.0638  -0.9598  -0.8342
    -0.7372  -0.7226  -0.6570  -0.6563  -0.5541  -0.5330  -0.5049  -0.4239
    -0.4076  -0.3298  -0.2192  -0.2076  -0.1862  -0.1166   0.0334   0.3204
     0.3763   0.6554   0.7096   0.9135   1.1568   1.7904   2.2030   2.4107
     2.6946   2.9395   3.2899   3.3228   3.3457   3.4273   3.4800   3.7729

          k = 0.0420-0.0445 0.0000 ( 38811 PWs)   bands (ev):

   -41.6613 -41.6517 -41.5824 -41.5726 -40.5874 -40.5780 -21.7088 -21.7018
   -21.6524 -21.6224 -21.6130 -21.5939 -21.5477 -21.5253 -21.5205 -21.4895
   -21.4596 -21.4571 -20.6718 -20.6242 -20.6172 -20.5894 -20.5624 -20.5590
    -3.9322  -2.6465  -2.5632  -2.3222  -2.1068  -2.0212  -1.8153  -1.7300
    -1.6962  -1.5818  -1.3679  -1.1274  -1.0638  -1.0436  -1.0269  -0.8742
    -0.7725  -0.7092  -0.6606  -0.6391  -0.6043  -0.5882  -0.5307  -0.3568
    -0.2733  -0.2358  -0.2006  -0.1200  -0.1008  -0.0342   0.0754   0.3837
     0.4710   0.6296   0.7152   0.9250   1.5807   1.9452   2.3926   2.6507
     2.7551   3.0352   3.2917   3.3214   3.4162   3.4978   3.6149   3.7949

          k = 0.0420-0.0297 0.0000 ( 38771 PWs)   bands (ev):

   -41.6655 -41.6476 -41.5866 -41.5685 -40.5919 -40.5737 -21.7147 -21.7035
   -21.6938 -21.6447 -21.6287 -21.6070 -21.5255 -21.5152 -21.4936 -21.4630
   -21.4506 -21.4348 -20.7252 -20.6288 -20.6084 -20.5949 -20.5572 -20.5014
    -4.1430  -2.7718  -2.6896  -2.3913  -2.3628  -1.9493  -1.8819  -1.8464
    -1.8193  -1.7297  -1.5486  -1.2449  -1.1267  -1.0064  -0.9459  -0.9383
    -0.8494  -0.6911  -0.6845  -0.6382  -0.6242  -0.4925  -0.4051  -0.2908
    -0.2816  -0.1921  -0.1713   0.0042   0.1239   0.1553   0.3294   0.4052
     0.5867   0.6280   0.6953   0.9154   1.9823   2.1158   2.3253   2.6729
     2.9362   3.0012   3.1186   3.2385   3.5919   3.5931   3.6700   3.7088

          k = 0.0559-0.0198 0.0000 ( 38809 PWs)   bands (ev):

   -41.6653 -41.6476 -41.5864 -41.5685 -40.5918 -40.5736 -21.7158 -21.7056
   -21.6929 -21.6472 -21.6304 -21.6074 -21.5301 -21.5123 -21.4929 -21.4697
   -21.4504 -21.4340 -20.7276 -20.6325 -20.6090 -20.5919 -20.5596 -20.5013
    -3.9835  -2.8050  -2.6639  -2.3313  -2.2757  -1.8091  -1.7901  -1.7717
    -1.7474  -1.6707  -1.6024  -1.1714  -0.9658  -0.9462  -0.9236  -0.9157
    -0.9054  -0.7660  -0.6692  -0.6187  -0.5812  -0.3811  -0.3772  -0.3126
    -0.2228  -0.1748  -0.1109   0.0169   0.0739   0.2042   0.2695   0.3344
     0.5686   0.6696   0.7635   0.7849   1.8073   1.9827   2.1807   2.2349
     2.8612   2.8693   2.9559   3.0353   3.3946   3.5666   3.6601   3.7930

          k = 0.0559-0.0049 0.0000 ( 38812 PWs)   bands (ev):

   -41.6688 -41.6440 -41.5899 -41.5650 -40.5955 -40.5697 -21.7492 -21.7218
   -21.6929 -21.6864 -21.6361 -21.6024 -21.5373 -21.5049 -21.4775 -21.4478
   -21.4441 -21.3886 -20.7746 -20.6395 -20.6036 -20.5953 -20.5560 -20.4526
    -4.0448  -2.7352  -2.7181  -2.4184  -2.2885  -1.8747  -1.8076  -1.7682
    -1.7276  -1.7145  -1.5882  -1.2767  -1.0225  -0.9716  -0.8933  -0.8357
    -0.8222  -0.7927  -0.6766  -0.6393  -0.5874  -0.2902  -0.2301  -0.1951
    -0.1746  -0.0962  -0.0560   0.0926   0.2395   0.3237   0.3887   0.5101
     0.5970   0.7599   0.7849   0.7865   1.6031   2.0820   2.1340   2.1572
     2.5340   2.7631   2.8455   3.0366   3.1549   3.2783   3.5662   3.6300

          k = 0.0559 0.0099 0.0000 ( 38806 PWs)   bands (ev):

   -41.6714 -41.6413 -41.5925 -41.5622 -40.5983 -40.5667 -21.7838 -21.7270
   -21.7269 -21.6831 -21.6404 -21.5981 -21.5456 -21.5004 -21.4857 -21.4402
   -21.4132 -21.3536 -20.8114 -20.6466 -20.6008 -20.5972 -20.5536 -20.4155
    -4.0212  -2.6925  -2.6256  -2.5018  -2.1887  -1.9196  -1.7738  -1.7422
    -1.7213  -1.6813  -1.4604  -1.3270  -1.0571  -0.9717  -0.8749  -0.8336
    -0.7419  -0.6916  -0.6903  -0.6576  -0.5558  -0.2250  -0.2012  -0.1391
    -0.1088  -0.0279   0.1169   0.1908   0.2323   0.4188   0.4311   0.6715
     0.7485   0.7801   0.8335   1.0223   1.3654   1.9027   1.9749   2.0138
     2.1376   2.6545   2.7658   2.9023   2.9272   2.9836   3.2874   3.5520

          k = 0.0559 0.0247 0.0000 ( 38821 PWs)   bands (ev):

   -41.6729 -41.6395 -41.5940 -41.5604 -40.6000 -40.5648 -21.8065 -21.7498
   -21.7310 -21.6804 -21.6430 -21.5950 -21.5537 -21.4985 -21.4930 -21.4383
   -21.3918 -21.3320 -20.8354 -20.6529 -20.6002 -20.5975 -20.5527 -20.3927
    -3.9179  -2.6024  -2.5361  -2.5060  -2.0477  -1.9223  -1.7081  -1.6858
    -1.6576  -1.6211  -1.3194  -1.2739  -1.0701  -0.9284  -0.8510  -0.8500
    -0.7245  -0.6635  -0.6482  -0.5529  -0.4998  -0.2557  -0.1491  -0.0716
    -0.0446  -0.0067   0.1238   0.1674   0.3289   0.5108   0.5445   0.6526
     0.7362   0.8472   1.1015   1.1180   1.3837   1.6059   1.6656   1.7706
     1.8722   2.2630   2.5650   2.6267   2.8605   2.8968   3.1171   3.3414

          k = 0.0559 0.0396 0.0000 ( 38808 PWs)   bands (ev):

   -41.6733 -41.6389 -41.5944 -41.5598 -40.6005 -40.5640 -21.8156 -21.7590
   -21.7334 -21.6795 -21.6437 -21.5934 -21.5604 -21.4988 -21.4983 -21.4381
   -21.3850 -21.3251 -20.8451 -20.6574 -20.6014 -20.5965 -20.5533 -20.3856
    -3.7448  -2.5449  -2.4577  -2.4216  -1.8906  -1.8840  -1.6126  -1.6048
    -1.5600  -1.5269  -1.2574  -1.0994  -1.0563  -0.8684  -0.8544  -0.8040
    -0.7858  -0.6157  -0.5962  -0.4482  -0.4195  -0.2494  -0.1953  -0.0715
     0.0016   0.0165   0.1507   0.2163   0.2280   0.5533   0.6269   0.6287
     0.6495   0.8496   0.9320   1.3041   1.3139   1.4022   1.5201   1.6474
     1.6827   1.8727   2.3222   2.4734   2.7786   2.9420   3.0003   3.1490

          k = 0.0559 0.0544 0.0000 ( 38819 PWs)   bands (ev):

   -41.6726 -41.6394 -41.5937 -41.5604 -40.5998 -40.5645 -21.8103 -21.7537
   -21.7338 -21.6802 -21.6426 -21.5933 -21.5645 -21.5008 -21.5006 -21.4391
   -21.3929 -21.3332 -20.8393 -20.6593 -20.6038 -20.5940 -20.5554 -20.3944
    -3.5160  -2.5227  -2.4185  -2.3053  -1.8102  -1.7446  -1.5371  -1.4703
    -1.4470  -1.4137  -1.1632  -1.0590  -0.9920  -0.9153  -0.8921  -0.7371
    -0.7143  -0.6035  -0.5076  -0.4153  -0.3523  -0.2637  -0.1949  -0.1428
     0.0103   0.0153   0.1597   0.1821   0.2477   0.2717   0.4815   0.5816
     0.5985   0.8341   0.9183   0.9711   1.0437   1.1353   1.4174   1.5615
     1.6370   2.1812   2.4074   2.4404   2.7190   2.9048   3.0132   3.0655

          k = 0.0559-0.1088 0.0000 ( 38803 PWs)   bands (ev):

   -41.6708 -41.6412 -41.5918 -41.5621 -40.5980 -40.5663 -21.7906 -21.7340
   -21.7320 -21.6824 -21.6399 -21.5949 -21.5651 -21.5033 -21.4998 -21.4408
   -21.4150 -21.3554 -20.8183 -20.6580 -20.6066 -20.5904 -20.5590 -20.4182
    -3.2505  -2.5253  -2.4939  -2.1706  -1.7112  -1.6389  -1.4672  -1.3340
    -1.3200  -1.3154  -1.1008  -1.0957  -1.0502  -0.9386  -0.9145  -0.6791
    -0.6141  -0.6116  -0.4433  -0.3974  -0.3958  -0.2791  -0.2413  -0.1286
    -0.1209  -0.0880   0.0495   0.0540   0.1974   0.2579   0.3360   0.3720
     0.4757   0.5763   0.6011   0.8201   0.8683   1.2065   1.3478   1.5017
     1.9495   2.4483   2.5612   2.6954   2.7706   2.9032   3.0909   3.1048

          k = 0.0559-0.0939 0.0000 ( 38807 PWs)   bands (ev):

   -41.6680 -41.6440 -41.5891 -41.5650 -40.5951 -40.5693 -21.7578 -21.7282
   -21.7012 -21.6858 -21.6359 -21.5983 -21.5618 -21.5063 -21.4954 -21.4493
   -21.4431 -21.3901 -20.7832 -20.6534 -20.6097 -20.5858 -20.5638 -20.4551
    -2.9811  -2.7407  -2.4636  -2.0929  -1.6192  -1.5980  -1.4292  -1.3033
    -1.2538  -1.2413  -1.1693  -1.0658  -1.0626  -0.9535  -0.9272  -0.6706
    -0.6169  -0.5614  -0.5279  -0.5115  -0.4499  -0.3785  -0.2896  -0.2254
    -0.2005  -0.1583  -0.1512  -0.0345   0.1048   0.1189   0.1558   0.2408
     0.3161   0.3364   0.6026   0.7608   0.8170   1.4467   1.4850   1.4962
     2.2678   2.5822   2.7326   2.8063   3.0829   3.1613   3.1862   3.2448

          k = 0.0559-0.0791 0.0000 ( 38812 PWs)   bands (ev):

   -41.6645 -41.6477 -41.5855 -41.5687 -40.5914 -40.5731 -21.7227 -21.7143
   -21.6904 -21.6566 -21.6310 -21.6030 -21.5547 -21.5095 -21.4934 -21.4881
   -21.4460 -21.4345 -20.7362 -20.6460 -20.6129 -20.5806 -20.5695 -20.5023
    -3.0286  -2.7912  -2.3824  -2.0939  -1.7655  -1.5132  -1.4767  -1.3478
    -1.3355  -1.2610  -1.0645  -1.0585  -1.0257  -0.9460  -0.9263  -0.8973
    -0.7135  -0.6652  -0.6212  -0.5190  -0.4963  -0.4692  -0.4008  -0.3418
    -0.3074  -0.2339  -0.2336  -0.2292  -0.0140   0.0394   0.1316   0.1632
     0.2725   0.4810   0.6471   0.7559   0.8013   1.5514   1.6691   1.7831
     2.5116   2.7357   2.8859   2.9489   3.2302   3.3139   3.3229   3.5044

          k = 0.0559-0.0643 0.0000 ( 38785 PWs)   bands (ev):

   -41.6604 -41.6521 -41.5814 -41.5731 -40.5872 -40.5777 -21.7158 -21.6971
   -21.6610 -21.6255 -21.6111 -21.6020 -21.5466 -21.5426 -21.5129 -21.4863
   -21.4783 -21.4497 -20.6805 -20.6368 -20.6163 -20.5757 -20.5750 -20.5567
    -3.3359  -2.7621  -2.2042  -2.1402  -2.0364  -1.6138  -1.5116  -1.4785
    -1.3488  -1.2824  -1.2314  -1.1921  -1.1029  -1.0360  -0.8754  -0.8278
    -0.7191  -0.6515  -0.6354  -0.5913  -0.5572  -0.5318  -0.4876  -0.4170
    -0.3959  -0.3395  -0.3149  -0.2287  -0.0767   0.0055   0.0481   0.2239
     0.3262   0.6658   0.7162   0.7201   0.9530   1.6873   1.8803   2.0414
     2.6666   2.8861   3.0870   3.1515   3.2487   3.3137   3.5198   3.6669

          k = 0.0559-0.0494 0.0000 ( 38796 PWs)   bands (ev):

   -41.6566 -41.6561 -41.5777 -41.5771 -40.5826 -40.5825 -21.7083 -21.7030
   -21.6200 -21.6175 -21.6037 -21.5987 -21.5466 -21.5409 -21.5333 -21.5170
   -21.4685 -21.4544 -20.6282 -20.6247 -20.6158 -20.6134 -20.5818 -20.5694
    -3.6161  -2.7993  -2.3083  -2.2507  -1.9761  -1.7892  -1.7056  -1.6067
    -1.5145  -1.4082  -1.3341  -1.1997  -1.1107  -1.0090  -0.8447  -0.8106
    -0.7609  -0.7435  -0.6590  -0.6212  -0.5396  -0.5252  -0.5132  -0.4147
    -0.3963  -0.2932  -0.2585  -0.2042  -0.1136  -0.1050   0.0987   0.3030
     0.4230   0.6479   0.7101   0.7931   1.3119   1.8683   1.9900   2.1989
     2.7922   3.0811   3.1544   3.1969   3.3174   3.4526   3.5464   3.7028

          k = 0.0559-0.0346 0.0000 ( 38773 PWs)   bands (ev):

   -41.6612 -41.6517 -41.5823 -41.5727 -40.5873 -40.5780 -21.7094 -21.7008
   -21.6537 -21.6238 -21.6137 -21.5953 -21.5483 -21.5221 -21.5213 -21.4900
   -21.4599 -21.4587 -20.6736 -20.6264 -20.6166 -20.5874 -20.5641 -20.5582
    -3.8380  -2.8239  -2.5251  -2.3145  -2.0647  -1.8453  -1.7742  -1.6999
    -1.6699  -1.5600  -1.5071  -1.0428  -1.0357  -0.9987  -0.9648  -0.8936
    -0.8495  -0.7123  -0.7033  -0.5981  -0.5498  -0.5279  -0.4642  -0.3744
    -0.2483  -0.2332  -0.1377  -0.1238  -0.0959  -0.0452   0.1547   0.3420
     0.5472   0.6129   0.7306   0.8011   1.6942   1.9488   2.0582   2.2516
     2.9241   3.0546   3.0788   3.1005   3.4759   3.5397   3.6656   3.6708

          k = 0.0699-0.0247 0.0000 ( 38802 PWs)   bands (ev):

   -41.6610 -41.6518 -41.5820 -41.5728 -40.5873 -40.5779 -21.7107 -21.6994
   -21.6558 -21.6255 -21.6140 -21.5975 -21.5489 -21.5243 -21.5177 -21.4905
   -21.4644 -21.4570 -20.6761 -20.6298 -20.6159 -20.5839 -20.5672 -20.5572
    -3.6539  -3.0185  -2.4496  -2.2860  -1.9822  -1.6988  -1.6686  -1.6464
    -1.6348  -1.5792  -1.5065  -1.0772  -1.0059  -0.9826  -0.9139  -0.8856
    -0.8646  -0.7971  -0.6714  -0.5615  -0.5127  -0.4107  -0.4075  -0.3226
    -0.2883  -0.1875  -0.1391  -0.0904  -0.0732   0.0332   0.1513   0.2467
     0.5466   0.6464   0.6948   0.8487   1.5175   1.8242   1.8703   2.0494
     2.7917   2.8298   2.9957   3.0455   3.4372   3.5362   3.6773   3.6854

          k = 0.0699-0.0099 0.0000 ( 38808 PWs)   bands (ev):

   -41.6650 -41.6477 -41.5861 -41.5686 -40.5917 -40.5734 -21.7177 -21.7085
   -21.6918 -21.6504 -21.6318 -21.6071 -21.5371 -21.5097 -21.4927 -21.4772
   -21.4496 -21.4337 -20.7307 -20.6373 -20.6101 -20.5880 -20.5628 -20.5014
    -3.7284  -2.9072  -2.5009  -2.2221  -2.1594  -1.7200  -1.6914  -1.6658
    -1.5888  -1.5636  -1.5493  -1.0755  -1.0318  -0.9612  -0.8755  -0.8520
    -0.8421  -0.7944  -0.6421  -0.5815  -0.5172  -0.3572  -0.3381  -0.2560
    -0.2293  -0.0937  -0.0180   0.0173   0.0307   0.1379   0.1597   0.2463
     0.5137   0.6358   0.7895   0.8309   1.3835   1.7964   1.9001   1.9632
     2.7368   2.7513   2.8143   3.0786   3.1895   3.4439   3.5476   3.6150

          k = 0.0699 0.0050 0.0000 ( 38816 PWs)   bands (ev):

   -41.6685 -41.6440 -41.5896 -41.5650 -40.5953 -40.5695 -21.7529 -21.7242
   -21.6962 -21.6861 -21.6369 -21.6015 -21.5465 -21.5043 -21.4858 -21.4483
   -21.4442 -21.3891 -20.7783 -20.6455 -20.6061 -20.5911 -20.5593 -20.4535
    -3.7254  -2.7492  -2.4831  -2.3044  -2.0986  -1.7791  -1.6473  -1.6389
    -1.5594  -1.5580  -1.4083  -1.1593  -1.0432  -0.9641  -0.8833  -0.7737
    -0.7682  -0.6810  -0.6196  -0.6057  -0.5093  -0.2688  -0.2090  -0.1913
    -0.1152  -0.1019   0.0205   0.0849   0.0878   0.2551   0.3168   0.4550
     0.4608   0.6237   0.7563   0.8442   1.2486   1.6258   1.7191   1.8873
     2.4008   2.6870   2.8527   2.9384   3.0022   3.1630   3.3590   3.4469

          k = 0.0699 0.0198 0.0000 ( 38826 PWs)   bands (ev):

   -41.6710 -41.6412 -41.5921 -41.5622 -40.5981 -40.5665 -21.7878 -21.7310
   -21.7298 -21.6826 -21.6406 -21.5967 -21.5562 -21.5015 -21.4942 -21.4408
   -21.4142 -21.3547 -20.8154 -20.6532 -20.6041 -20.5932 -20.5567 -20.4170
    -3.6509  -2.5717  -2.4374  -2.3966  -1.9312  -1.8098  -1.5899  -1.5697
    -1.5129  -1.4992  -1.2273  -1.1901  -1.0203  -0.9549  -0.8943  -0.7508
    -0.6777  -0.6660  -0.5689  -0.5266  -0.4728  -0.2266  -0.1636  -0.1515
    -0.0294  -0.0152   0.0832   0.0958   0.1220   0.3672   0.4466   0.5554
     0.6093   0.6321   0.7997   0.8690   1.1146   1.3197   1.5852   1.7338
     2.0107   2.5120   2.6200   2.8180   2.8456   2.9831   3.0910   3.3136

          k = 0.0699 0.0346 0.0000 ( 38819 PWs)   bands (ev):

   -41.6726 -41.6394 -41.5937 -41.5604 -40.5998 -40.5645 -21.8103 -21.7537
   -21.7338 -21.6802 -21.6426 -21.5933 -21.5645 -21.5008 -21.5006 -21.4391
   -21.3929 -21.3332 -20.8393 -20.6593 -20.6038 -20.5940 -20.5554 -20.3944
    -3.5160  -2.5227  -2.4185  -2.3053  -1.8102  -1.7446  -1.5371  -1.4703
    -1.4470  -1.4137  -1.1632  -1.0590  -0.9920  -0.9153  -0.8921  -0.7371
    -0.7143  -0.6035  -0.5076  -0.4153  -0.3523  -0.2637  -0.1949  -0.1428
     0.0103   0.0153   0.1597   0.1821   0.2477   0.2717   0.4815   0.5816
     0.5985   0.8341   0.9183   0.9711   1.0437   1.1353   1.4174   1.5615
     1.6370   2.1812   2.4074   2.4404   2.7188   2.9048   3.0124   3.0655

          k = 0.0699 0.0495 0.0000 ( 38832 PWs)   bands (ev):

   -41.6730 -41.6388 -41.5941 -41.5597 -40.6003 -40.5638 -21.8188 -21.7623
   -21.7357 -21.6794 -21.6430 -21.5916 -21.5700 -21.5045 -21.5012 -21.4387
   -21.3860 -21.3262 -20.8483 -20.6628 -20.6045 -20.5936 -20.5555 -20.3871
    -3.3365  -2.5989  -2.3380  -2.2011  -1.7821  -1.5660  -1.4918  -1.3939
    -1.3486  -1.3124  -1.0971  -1.0091  -0.9795  -0.9248  -0.8832  -0.7264
    -0.6405  -0.5646  -0.4132  -0.3675  -0.3310  -0.2152  -0.2091  -0.1697
     0.0345   0.0467   0.1561   0.1958   0.2195   0.2958   0.3311   0.5765
     0.6560   0.7636   0.8708   0.9518   1.0555   1.2702   1.3380   1.3804
     1.4209   1.9612   2.2202   2.2831   2.6281   2.7888   2.9187   3.0404

          k = 0.0699-0.1137 0.0000 ( 38832 PWs)   bands (ev):

   -41.6724 -41.6394 -41.5934 -41.5603 -40.5997 -40.5644 -21.8125 -21.7560
   -21.7355 -21.6802 -21.6418 -21.5919 -21.5715 -21.5049 -21.5025 -21.4393
   -21.3936 -21.3339 -20.8416 -20.6630 -20.6058 -20.5921 -20.5570 -20.3954
    -3.1386  -2.6525  -2.3648  -2.1176  -1.7318  -1.4624  -1.4139  -1.3287
    -1.2451  -1.2296  -1.1214  -1.0596  -1.0294  -0.9079  -0.8752  -0.6693
    -0.5654  -0.5644  -0.3660  -0.3253  -0.3108  -0.2428  -0.2035  -0.1869
    -0.0159  -0.0130   0.0576   0.1174   0.1491   0.2606   0.3083   0.5552
     0.5918   0.6404   0.7207   0.8806   0.9556   1.0582   1.2325   1.3691
     1.6016   2.2422   2.2745   2.3926   2.5902   2.7282   2.8956   3.0988

          k = 0.0699-0.0989 0.0000 ( 38816 PWs)   bands (ev):

   -41.6707 -41.6412 -41.5917 -41.5621 -40.5979 -40.5663 -21.7917 -21.7351
   -21.7329 -21.6824 -21.6394 -21.5942 -21.5686 -21.5042 -21.5017 -21.4408
   -21.4152 -21.3557 -20.8194 -20.6597 -20.6075 -20.5894 -20.5599 -20.4186
    -2.9911  -2.6329  -2.5069  -2.0769  -1.6681  -1.4585  -1.3336  -1.3133
    -1.2550  -1.1959  -1.1568  -1.1124  -1.0507  -0.9078  -0.8877  -0.6602
    -0.5866  -0.5259  -0.4023  -0.3452  -0.3154  -0.3043  -0.2387  -0.2172
    -0.1296  -0.1106  -0.0428   0.0067   0.1114   0.2484   0.2800   0.3078
     0.4779   0.5210   0.5716   0.6447   0.8507   1.2628   1.3101   1.3882
     1.9300   2.3835   2.6227   2.6971   2.7404   2.7837   2.9739   3.1626

          k = 0.0699-0.0840 0.0000 ( 38807 PWs)   bands (ev):

   -41.6680 -41.6440 -41.5891 -41.5650 -40.5951 -40.5693 -21.7578 -21.7282
   -21.7012 -21.6858 -21.6359 -21.5983 -21.5618 -21.5063 -21.4954 -21.4493
   -21.4431 -21.3901 -20.7832 -20.6534 -20.6097 -20.5858 -20.5638 -20.4551
    -2.9811  -2.7407  -2.4636  -2.0929  -1.6192  -1.5980  -1.4292  -1.3033
    -1.2538  -1.2413  -1.1693  -1.0658  -1.0626  -0.9535  -0.9272  -0.6706
    -0.6169  -0.5614  -0.5279  -0.5115  -0.4499  -0.3785  -0.2896  -0.2254
    -0.2005  -0.1583  -0.1512  -0.0345   0.1048   0.1189   0.1558   0.2408
     0.3161   0.3364   0.6026   0.7608   0.8170   1.4467   1.4850   1.4962
     2.2677   2.5822   2.7326   2.8063   3.0828   3.1613   3.1856   3.2447

          k = 0.0699-0.0692 0.0000 ( 38831 PWs)   bands (ev):

   -41.6646 -41.6477 -41.5856 -41.5687 -40.5915 -40.5732 -21.7219 -21.7135
   -21.6905 -21.6558 -21.6314 -21.6039 -21.5520 -21.5091 -21.4933 -21.4868
   -21.4466 -21.4344 -20.7355 -20.6449 -20.6124 -20.5815 -20.5686 -20.5022
    -3.0308  -3.0165  -2.2300  -2.1481  -1.8771  -1.5275  -1.5119  -1.3985
    -1.3985  -1.2226  -1.1849  -1.1753  -1.0259  -0.9827  -0.9033  -0.8461
    -0.6966  -0.6570  -0.6137  -0.5431  -0.4937  -0.3997  -0.3598  -0.3388
    -0.2914  -0.2323  -0.2019  -0.1478   0.0529   0.0569   0.1316   0.1512
     0.3401   0.4672   0.6072   0.8006   0.9677   1.5869   1.6535   1.6698
     2.5470   2.8179   2.8844   2.9344   3.1636   3.3032   3.3159   3.4763

          k = 0.0699-0.0544 0.0000 ( 38801 PWs)   bands (ev):

   -41.6605 -41.6520 -41.5816 -41.5730 -40.5872 -40.5777 -21.7146 -21.6974
   -21.6600 -21.6261 -21.6121 -21.6014 -21.5483 -21.5367 -21.5131 -21.4887
   -21.4743 -21.4515 -20.6798 -20.6355 -20.6160 -20.5768 -20.5738 -20.5566
    -3.2827  -3.0711  -2.2378  -2.1246  -1.9738  -1.6010  -1.5597  -1.5254
    -1.4699  -1.3704  -1.3014  -1.2067  -1.1586  -0.9257  -0.8819  -0.8351
    -0.7773  -0.6768  -0.6364  -0.5695  -0.5274  -0.4446  -0.4190  -0.3836
    -0.3351  -0.3192  -0.2306  -0.2221   0.0048   0.0316   0.1019   0.1998
     0.4416   0.5862   0.5896   0.8076   1.2682   1.6554   1.7845   1.8360
     2.7598   2.9159   3.0345   3.1040   3.2200   3.2968   3.5207   3.8364

          k = 0.0699-0.0395 0.0000 ( 38801 PWs)   bands (ev):

   -41.6565 -41.6562 -41.5776 -41.5772 -40.5826 -40.5825 -21.7068 -21.7037
   -21.6204 -21.6189 -21.6032 -21.6003 -21.5458 -21.5425 -21.5278 -21.5185
   -21.4659 -21.4579 -20.6297 -20.6282 -20.6126 -20.6117 -20.5791 -20.5719
    -3.5023  -3.0721  -2.3223  -2.2872  -1.7825  -1.7733  -1.6674  -1.6096
    -1.5228  -1.5192  -1.3853  -1.2561  -1.0830  -0.9135  -0.9120  -0.8508
    -0.7465  -0.7384  -0.7189  -0.5619  -0.5177  -0.4722  -0.4282  -0.3831
    -0.3076  -0.3069  -0.2113  -0.1897  -0.0860   0.0304   0.1353   0.2440
     0.5676   0.5689   0.6382   0.8309   1.5978   1.6221   1.8319   2.0004
     2.8616   2.9290   2.9516   3.1684   3.3516   3.5238   3.5870   3.6957

          k =-0.0839 0.0297 0.0000 ( 38830 PWs)   bands (ev):

   -41.6564 -41.6563 -41.5774 -41.5773 -40.5826 -40.5825 -21.7051 -21.7050
   -21.6202 -21.6201 -21.6021 -21.6020 -21.5444 -21.5443 -21.5223 -21.5222
   -21.4622 -21.4622 -20.6300 -20.6299 -20.6112 -20.6111 -20.5755 -20.5754
    -3.3172  -3.3171  -2.3169  -2.3169  -1.7333  -1.7333  -1.6306  -1.6306
    -1.5573  -1.5573  -1.3284  -1.3284  -1.0190  -1.0190  -0.8733  -0.8733
    -0.7439  -0.7439  -0.6520  -0.6520  -0.4910  -0.4910  -0.3570  -0.3570
    -0.2764  -0.2764  -0.1720  -0.1720   0.0321   0.0321   0.1521   0.1521
     0.5554   0.5554   0.7953   0.7953   1.5345   1.5345   1.9099   1.9099
     2.7675   2.7675   3.0510   3.0510   3.4999   3.5000   3.6492   3.6493

          k =-0.0839 0.0445 0.0000 ( 38844 PWs)   bands (ev):

   -41.6607 -41.6519 -41.5818 -41.5729 -40.5873 -40.5778 -21.7126 -21.6982
   -21.6581 -21.6263 -21.6134 -21.5998 -21.5490 -21.5298 -21.5144 -21.4903
   -21.4693 -21.4544 -20.6784 -20.6331 -20.6157 -20.5801 -20.5707 -20.5567
    -3.3907  -3.1761  -2.3453  -2.2213  -1.9028  -1.6186  -1.6086  -1.6066
    -1.5966  -1.4772  -1.4181  -1.1487  -1.0854  -0.9514  -0.8856  -0.8636
    -0.8175  -0.7638  -0.6524  -0.5340  -0.5245  -0.4311  -0.3766  -0.3397
    -0.2427  -0.2289  -0.1818  -0.0956   0.0320   0.0367   0.1416   0.1445
     0.5330   0.5629   0.6938   0.8506   1.5005   1.5561   1.6902   1.9536
     2.7411   2.8657   2.8727   3.1447   3.2797   3.4563   3.5535   3.6523

          k =-0.0839 0.0593 0.0000 ( 38792 PWs)   bands (ev):

   -41.6648 -41.6477 -41.5858 -41.5687 -40.5916 -40.5733 -21.7200 -21.7114
   -21.6909 -21.6536 -21.6320 -21.6056 -21.5452 -21.5088 -21.4930 -21.4832
   -21.4481 -21.4340 -20.7335 -20.6418 -20.6113 -20.5842 -20.5662 -20.5018
    -3.3971  -2.9777  -2.3164  -2.1019  -2.0628  -1.6348  -1.5733  -1.5418
    -1.5039  -1.4021  -1.3507  -1.1256  -1.0030  -0.9952  -0.9052  -0.8153
    -0.7834  -0.7116  -0.6019  -0.5580  -0.4787  -0.3748  -0.3544  -0.3122
    -0.1603  -0.1347  -0.0404  -0.0162   0.0270   0.0470   0.1142   0.1788
     0.4777   0.5689   0.5713   0.8658   1.3885   1.4454   1.5443   1.8377
     2.6269   2.7483   2.9622   2.9909   3.0818   3.3473   3.4126   3.4174

          k =-0.0839 0.0742 0.0000 ( 38780 PWs)   bands (ev):

   -41.6682 -41.6440 -41.5892 -41.5650 -40.5952 -40.5694 -21.7560 -21.7267
   -21.6994 -21.6859 -21.6366 -21.5997 -21.5558 -21.5052 -21.4921 -21.4489
   -21.4437 -21.3897 -20.7814 -20.6506 -20.6083 -20.5877 -20.5622 -20.4545
    -3.3452  -2.7469  -2.3136  -2.2382  -1.8592  -1.6768  -1.5130  -1.4449
    -1.4119  -1.3428  -1.1854  -1.1248  -1.0783  -0.9601  -0.9309  -0.6954
    -0.6898  -0.6002  -0.5787  -0.5471  -0.4421  -0.2866  -0.2816  -0.2789
    -0.1272  -0.0593   0.0023   0.0736   0.0875   0.0975   0.2663   0.2983
     0.3858   0.4542   0.5818   0.8650   1.0834   1.3470   1.4711   1.6662
     2.3136   2.6992   2.7035   2.8533   3.0814   3.1156   3.1799   3.4203

          k =-0.0839 0.0890 0.0000 ( 38803 PWs)   bands (ev):

   -41.6708 -41.6412 -41.5918 -41.5621 -40.5980 -40.5663 -21.7906 -21.7340
   -21.7320 -21.6824 -21.6399 -21.5949 -21.5651 -21.5033 -21.4998 -21.4408
   -21.4150 -21.3554 -20.8183 -20.6580 -20.6066 -20.5904 -20.5590 -20.4182
    -3.2505  -2.5253  -2.4939  -2.1706  -1.7112  -1.6389  -1.4672  -1.3340
    -1.3200  -1.3154  -1.1008  -1.0957  -1.0502  -0.9386  -0.9145  -0.6791
    -0.6141  -0.6116  -0.4433  -0.3974  -0.3958  -0.2791  -0.2413  -0.1286
    -0.1209  -0.0880   0.0495   0.0540   0.1974   0.2579   0.3360   0.3720
     0.4757   0.5763   0.6011   0.8201   0.8683   1.2065   1.3478   1.5017
     1.9495   2.4483   2.5612   2.6954   2.7706   2.9032   3.0909   3.1056

          k =-0.0839 0.1038 0.0000 ( 38832 PWs)   bands (ev):

   -41.6724 -41.6394 -41.5934 -41.5603 -40.5997 -40.5644 -21.8125 -21.7560
   -21.7355 -21.6802 -21.6418 -21.5919 -21.5715 -21.5049 -21.5025 -21.4393
   -21.3936 -21.3339 -20.8416 -20.6630 -20.6058 -20.5921 -20.5570 -20.3954
    -3.1386  -2.6525  -2.3648  -2.1176  -1.7318  -1.4624  -1.4139  -1.3287
    -1.2451  -1.2296  -1.1214  -1.0596  -1.0294  -0.9079  -0.8752  -0.6693
    -0.5654  -0.5644  -0.3660  -0.3253  -0.3109  -0.2428  -0.2035  -0.1869
    -0.0159  -0.0130   0.0576   0.1174   0.1491   0.2606   0.3083   0.5552
     0.5918   0.6404   0.7207   0.8806   0.9556   1.0582   1.2325   1.3691
     1.6016   2.2422   2.2745   2.3926   2.5901   2.7282   2.8956   3.0981

          k =-0.0839-0.0593 0.0000 ( 38774 PWs)   bands (ev):

   -41.6729 -41.6388 -41.5940 -41.5597 -40.6003 -40.5637 -21.8199 -21.7635
   -21.7366 -21.6794 -21.6425 -21.5908 -21.5737 -21.5067 -21.5023 -21.4388
   -21.3863 -21.3266 -20.8495 -20.6647 -20.6056 -20.5926 -20.5563 -20.3876
    -3.0747  -2.7305  -2.3064  -2.0988  -1.7384  -1.4499  -1.3366  -1.2586
    -1.2264  -1.2166  -1.1806  -1.0431  -1.0318  -0.8970  -0.8541  -0.6492
    -0.5434  -0.5410  -0.3613  -0.3438  -0.2365  -0.2357  -0.2246  -0.1259
     0.0071   0.0407   0.0790   0.0887   0.1852   0.1998   0.3515   0.5344
     0.5571   0.6624   0.8821   0.9519   0.9833   1.1844   1.2103   1.2703
     1.4120   2.0161   2.1960   2.2111   2.5520   2.6844   2.8350   3.0981

     the Fermi energy is     1.1977 ev

!    total energy              =    -883.74443365 Ry
     estimated scf accuracy    <       0.00000440 Ry
     smearing contrib. (-TS)   =      -0.03234298 Ry
     internal energy E=F+TS    =    -883.71209067 Ry

     The total energy is F=E-TS. E is the sum of the following terms:
     one-electron contribution =   -6095.63048945 Ry
     hartree contribution      =    3081.75371059 Ry
     xc contribution           =    -306.88600436 Ry
     ewald contribution        =    2437.05066982 Ry
     electric field correction =       0.00002273 Ry

     convergence has been achieved in  14 iterations

     negative rho (up, down):  3.096E-04 0.000E+00

     Forces acting on atoms (cartesian axes, Ry/au):

     atom    1 type  1   force =     0.00006343    0.00004458   -0.01313159
     atom    2 type  1   force =     0.00005652    0.00003698   -0.01313215
     atom    3 type  2   force =    -0.00003218    0.00000141    0.02305261
     atom    4 type  2   force =    -0.00001060    0.00000811    0.02302889
     atom    5 type  1   force =    -0.00003681   -0.00002759   -0.01351736
     atom    6 type  1   force =    -0.00003345   -0.00002120   -0.01351779
     atom    7 type  2   force =     0.00000387   -0.00002138    0.00359029
     atom    8 type  2   force =    -0.00001425   -0.00002052    0.00357992
     atom    9 type  1   force =    -0.00000151    0.00000544   -0.00043957
     atom   10 type  1   force =     0.00000691   -0.00001116   -0.00043601
     atom   11 type  2   force =     0.00001699   -0.00000971    0.00046203
     atom   12 type  2   force =    -0.00001892    0.00001506    0.00046072

     Total force =     0.042410     Total SCF correction =     0.004258
     SCF correction compared to forces is large: reduce conv_thr to get better values

     Writing output data file ./Y2Ir2/Y2Ir2_beef.save/

     init_run     :    142.85s CPU    143.48s WALL (       1 calls)
     electrons    :   2684.98s CPU   2703.46s WALL (       1 calls)
     forces       :     64.00s CPU     64.32s WALL (       1 calls)

     Called by init_run:
     wfcinit      :    129.68s CPU    130.01s WALL (       1 calls)
     potinit      :      8.43s CPU      8.54s WALL (       1 calls)
     hinit0       :      2.41s CPU      2.42s WALL (       1 calls)

     Called by electrons:
     c_bands      :   2347.69s CPU   2358.37s WALL (      14 calls)
     sum_band     :    296.17s CPU    300.10s WALL (      14 calls)
     v_of_rho     :     28.44s CPU     29.84s WALL (      15 calls)
     newd         :     19.83s CPU     22.41s WALL (      15 calls)
     mix_rho      :      0.81s CPU      0.83s WALL (      14 calls)
     vdW_kernel   :      5.69s CPU      5.71s WALL (       1 calls)

     Called by c_bands:
     init_us_2    :     13.39s CPU     13.52s WALL (    2220 calls)
     cegterg      :   2320.23s CPU   2329.60s WALL (    1036 calls)

     Called by *egterg:
     cdiaghg      :     79.11s CPU     79.21s WALL (    6183 calls)
     h_psi        :   1261.99s CPU   1268.65s WALL (    6257 calls)
     s_psi        :    463.79s CPU    464.98s WALL (    6257 calls)
     g_psi        :      0.98s CPU      0.99s WALL (    5147 calls)

     Called by h_psi:
     h_psi:calbec :    458.90s CPU    460.32s WALL (    6257 calls)
     vloc_psi     :    333.23s CPU    337.27s WALL (    6257 calls)
     add_vuspsi   :    465.12s CPU    466.27s WALL (    6257 calls)

     General routines
     calbec       :    699.02s CPU    701.22s WALL (    7589 calls)
     fft          :     17.91s CPU     18.50s WALL (    1004 calls)
     ffts         :      0.06s CPU      0.06s WALL (      29 calls)
     fftw         :    379.64s CPU    384.42s WALL (  445298 calls)
     interpolate  :      0.31s CPU      0.32s WALL (      15 calls)

     Parallel routines
     fft_scatt_xy :     34.14s CPU     34.53s WALL (  446331 calls)
     fft_scatt_yz :     66.64s CPU     67.95s WALL (  446331 calls)

     PWSCF        :  48m20.71s CPU  48m56.66s WALL


   This run was terminated on:  13:22:48  25Jun2022            

=------------------------------------------------------------------------------=
   JOB DONE.
=------------------------------------------------------------------------------=
