
     Program PWSCF v.6.6 starts on 25Jun2022 at 19:29:31 

     This program is part of the open-source Quantum ESPRESSO suite
     for quantum simulation of materials; please cite
         "P. Giannozzi et al., J. Phys.:Condens. Matter 21 395502 (2009);
         "P. Giannozzi et al., J. Phys.:Condens. Matter 29 465901 (2017);
          URL http://www.quantum-espresso.org", 
     in publications or presentations arising from this work. More details at
     http://www.quantum-espresso.org/quote

     Parallel version (MPI), running on    37 processors

     MPI processes distributed on     1 nodes
     R & G space division:  proc/nbgrp/npool/nimage =      37
     Fft bands division:     nmany     =       1
     Reading input from Y2Pt2.in
Warning: card &CELL ignored
Warning: card / ignored

     Current dimensions of program PWSCF are:
     Max number of different atomic species (ntypx) = 10
     Max number of k-points (npk) =  40000
     Max angular momentum in pseudopotentials (lmaxx) =  3
     Presently stress not available with electric field and gates

     Message from routine cell_base_init:
     DEPRECATED: use true lattice parameter, not A to a.u. conversion factor
     file Y.pbe-spn-rrkjus_psl.1.0.0.UPF: wavefunction(s)  4S renormalized
     file Pt.pbe-n-rrkjus_psl.1.0.0.UPF: wavefunction(s)  6S renormalized

     **************************************************************************
     Initializing libbeef V0.1.2 with the BEEF-vdW functional.
     Citation: Wellendorff et al., PRB 85, 235149 (2012).
     **************************************************************************


     IMPORTANT: XC functional enforced from input :
     Exchange-correlation= BEEF-VDW
                           (   1   4  43  14   2   0   0)
     Any further DFT definition will be discarded
     Please, verify this is what you really want


     Subspace diagonalization in iterative solution of the eigenvalue problem:
     a serial algorithm will be used

     Found symmetry operation: I + (  0.5000  0.5000  0.0000)
     This is a supercell, fractional translations are disabled

     Parallelization info
     --------------------
     sticks:   dense  smooth     PW     G-vecs:    dense   smooth      PW
     Min         147      59     16                34685     8769    1294
     Max         148      59     17                34700     8781    1315
     Sum        5451    2183    619              1283555   324741   48321



     bravais-lattice index     =            0
     lattice parameter (alat)  =       1.8897  a.u.
     unit-cell volume          =    5873.9058 (a.u.)^3
     number of atoms/cell      =           12
     number of atomic types    =            2
     number of electrons       =       126.00
     number of Kohn-Sham states=           76
     kinetic-energy cutoff     =      55.1240  Ry
     charge density cutoff     =     551.2396  Ry
     convergence threshold     =      1.0E-05
     mixing beta               =       0.1000
     number of iterations used =           10  plain     mixing
     Exchange-correlation= BEEF-VDW
                           (   1   4  43  14   2   0   0)

     celldm(1)=   1.889726  celldm(2)=   0.000000  celldm(3)=   0.000000
     celldm(4)=   0.000000  celldm(5)=   0.000000  celldm(6)=   0.000000

     crystal axes: (cart. coord. in units of alat)
               a(1) = (   6.081118   0.000000   0.000000 )  
               a(2) = (   2.026825   5.733409   0.000000 )  
               a(3) = (   0.000000   0.000000  24.965146 )  

     reciprocal axes: (cart. coord. in units 2 pi/alat)
               b(1) = (  0.164443 -0.058133  0.000000 )  
               b(2) = (  0.000000  0.174416  0.000000 )  
               b(3) = (  0.000000  0.000000  0.040056 )  


     PseudoPot. # 1 for Y  read from file:
     ../pseudo/Y.pbe-spn-rrkjus_psl.1.0.0.UPF
     MD5 check sum: 5fe32e6a006803c2ec2edff47948a3c8
     Pseudo is Ultrasoft + core correction, Zval = 11.0
     Generated using "atomic" code by A. Dal Corso v.6.2.2
     Using radial grid of 1223 points,  6 beta functions with: 
                l(1) =   0
                l(2) =   0
                l(3) =   1
                l(4) =   1
                l(5) =   2
                l(6) =   2
     Q(r) pseudized with 0 coefficients 


     PseudoPot. # 2 for Pt read from file:
     ../pseudo/Pt.pbe-n-rrkjus_psl.1.0.0.UPF
     MD5 check sum: 6bc887cfe28d63a5fc1f72d35a7d3ef7
     Pseudo is Ultrasoft + core correction, Zval = 10.0
     Generated using "atomic" code by A. Dal Corso v.6.3
     Using radial grid of 1277 points,  6 beta functions with: 
                l(1) =   0
                l(2) =   0
                l(3) =   1
                l(4) =   1
                l(5) =   2
                l(6) =   2
     Q(r) pseudized with 0 coefficients 


     atomic species   valence    mass     pseudopotential
        Y             11.00    88.90584     Y ( 1.00)
        Pt            10.00   195.08400     Pt( 1.00)

     No symmetry found



   Cartesian axes

     site n.     atom                  positions (alat units)
         1           Y   tau(   1) = (   0.0000000   0.0000000  10.0000000  )
         2           Y   tau(   2) = (   4.0539713   2.8667044  10.0000000  )
         3           Pt  tau(   3) = (   3.0405589   0.0000000  10.0000000  )
         4           Pt  tau(   4) = (   1.0134123   2.8667044  10.0000000  )
         5           Y   tau(   5) = (   6.0811179   4.3001704  12.4825731  )
         6           Y   tau(   6) = (   2.0271466   1.4334660  12.4825731  )
         7           Pt  tau(   7) = (   3.0405589   4.3001704  12.4825731  )
         8           Pt  tau(   8) = (   5.0677055   1.4334660  12.4825731  )
         9           Y   tau(   9) = (   4.0542000   2.8668872  14.9633652  )
        10           Y   tau(  10) = (   0.0002322   0.0001388  14.9633724  )
        11           Pt  tau(  11) = (   1.0136783   2.8668747  14.7519795  )
        12           Pt  tau(  12) = (   3.0407932   0.0001770  14.7519711  )

     number of k points=    74  Fermi-Dirac smearing, width (Ry)=  0.0100
                       cart. coord. in units 2pi/alat
        k(    1) = (   0.0000000   0.0000000   0.0000000), wk =   0.0138889
        k(    2) = (   0.0000000   0.0145347   0.0000000), wk =   0.0277778
        k(    3) = (   0.0000000   0.0290694   0.0000000), wk =   0.0277778
        k(    4) = (   0.0000000   0.0436041   0.0000000), wk =   0.0277778
        k(    5) = (   0.0000000   0.0581388   0.0000000), wk =   0.0277778
        k(    6) = (   0.0000000   0.0726735   0.0000000), wk =   0.0277778
        k(    7) = (   0.0000000  -0.0872082   0.0000000), wk =   0.0138889
        k(    8) = (   0.0137036  -0.0048444   0.0000000), wk =   0.0277778
        k(    9) = (   0.0137036   0.0096903   0.0000000), wk =   0.0277778
        k(   10) = (   0.0137036   0.0242250   0.0000000), wk =   0.0277778
        k(   11) = (   0.0137036   0.0387597   0.0000000), wk =   0.0277778
        k(   12) = (   0.0137036   0.0532944   0.0000000), wk =   0.0277778
        k(   13) = (   0.0137036   0.0678291   0.0000000), wk =   0.0277778
        k(   14) = (   0.0137036  -0.0920525   0.0000000), wk =   0.0277778
        k(   15) = (   0.0137036  -0.0775178   0.0000000), wk =   0.0277778
        k(   16) = (   0.0137036  -0.0629832   0.0000000), wk =   0.0277778
        k(   17) = (   0.0137036  -0.0484485   0.0000000), wk =   0.0277778
        k(   18) = (   0.0137036  -0.0339138   0.0000000), wk =   0.0277778
        k(   19) = (   0.0137036  -0.0193791   0.0000000), wk =   0.0277778
        k(   20) = (   0.0274072  -0.0096888   0.0000000), wk =   0.0277778
        k(   21) = (   0.0274072   0.0048459   0.0000000), wk =   0.0277778
        k(   22) = (   0.0274072   0.0193806   0.0000000), wk =   0.0277778
        k(   23) = (   0.0274072   0.0339153   0.0000000), wk =   0.0277778
        k(   24) = (   0.0274072   0.0484500   0.0000000), wk =   0.0277778
        k(   25) = (   0.0274072   0.0629847   0.0000000), wk =   0.0277778
        k(   26) = (   0.0274072  -0.0968969   0.0000000), wk =   0.0277778
        k(   27) = (   0.0274072  -0.0823622   0.0000000), wk =   0.0277778
        k(   28) = (   0.0274072  -0.0678275   0.0000000), wk =   0.0277778
        k(   29) = (   0.0274072  -0.0532928   0.0000000), wk =   0.0277778
        k(   30) = (   0.0274072  -0.0387582   0.0000000), wk =   0.0277778
        k(   31) = (   0.0274072  -0.0242235   0.0000000), wk =   0.0277778
        k(   32) = (   0.0411109  -0.0145332   0.0000000), wk =   0.0277778
        k(   33) = (   0.0411109   0.0000015   0.0000000), wk =   0.0277778
        k(   34) = (   0.0411109   0.0145362   0.0000000), wk =   0.0277778
        k(   35) = (   0.0411109   0.0290709   0.0000000), wk =   0.0277778
        k(   36) = (   0.0411109   0.0436056   0.0000000), wk =   0.0277778
        k(   37) = (   0.0411109   0.0581403   0.0000000), wk =   0.0277778
        k(   38) = (   0.0411109  -0.1017413   0.0000000), wk =   0.0277778
        k(   39) = (   0.0411109  -0.0872066   0.0000000), wk =   0.0277778
        k(   40) = (   0.0411109  -0.0726719   0.0000000), wk =   0.0277778
        k(   41) = (   0.0411109  -0.0581372   0.0000000), wk =   0.0277778
        k(   42) = (   0.0411109  -0.0436025   0.0000000), wk =   0.0277778
        k(   43) = (   0.0411109  -0.0290678   0.0000000), wk =   0.0277778
        k(   44) = (   0.0548145  -0.0193775   0.0000000), wk =   0.0277778
        k(   45) = (   0.0548145  -0.0048428   0.0000000), wk =   0.0277778
        k(   46) = (   0.0548145   0.0096918   0.0000000), wk =   0.0277778
        k(   47) = (   0.0548145   0.0242265   0.0000000), wk =   0.0277778
        k(   48) = (   0.0548145   0.0387612   0.0000000), wk =   0.0277778
        k(   49) = (   0.0548145   0.0532959   0.0000000), wk =   0.0277778
        k(   50) = (   0.0548145  -0.1065857   0.0000000), wk =   0.0277778
        k(   51) = (   0.0548145  -0.0920510   0.0000000), wk =   0.0277778
        k(   52) = (   0.0548145  -0.0775163   0.0000000), wk =   0.0277778
        k(   53) = (   0.0548145  -0.0629816   0.0000000), wk =   0.0277778
        k(   54) = (   0.0548145  -0.0484469   0.0000000), wk =   0.0277778
        k(   55) = (   0.0548145  -0.0339122   0.0000000), wk =   0.0277778
        k(   56) = (   0.0685181  -0.0242219   0.0000000), wk =   0.0277778
        k(   57) = (   0.0685181  -0.0096872   0.0000000), wk =   0.0277778
        k(   58) = (   0.0685181   0.0048475   0.0000000), wk =   0.0277778
        k(   59) = (   0.0685181   0.0193822   0.0000000), wk =   0.0277778
        k(   60) = (   0.0685181   0.0339168   0.0000000), wk =   0.0277778
        k(   61) = (   0.0685181   0.0484515   0.0000000), wk =   0.0277778
        k(   62) = (   0.0685181  -0.1114301   0.0000000), wk =   0.0277778
        k(   63) = (   0.0685181  -0.0968954   0.0000000), wk =   0.0277778
        k(   64) = (   0.0685181  -0.0823607   0.0000000), wk =   0.0277778
        k(   65) = (   0.0685181  -0.0678260   0.0000000), wk =   0.0277778
        k(   66) = (   0.0685181  -0.0532913   0.0000000), wk =   0.0277778
        k(   67) = (   0.0685181  -0.0387566   0.0000000), wk =   0.0277778
        k(   68) = (  -0.0822217   0.0290663   0.0000000), wk =   0.0138889
        k(   69) = (  -0.0822217   0.0436010   0.0000000), wk =   0.0277778
        k(   70) = (  -0.0822217   0.0581357   0.0000000), wk =   0.0277778
        k(   71) = (  -0.0822217   0.0726704   0.0000000), wk =   0.0277778
        k(   72) = (  -0.0822217   0.0872051   0.0000000), wk =   0.0277778
        k(   73) = (  -0.0822217   0.1017398   0.0000000), wk =   0.0277778
        k(   74) = (  -0.0822217  -0.0581418   0.0000000), wk =   0.0138889

     Dense  grid:  1283555 G-vectors     FFT dimensions: (  90,  90, 360)

     Smooth grid:   324741 G-vectors     FFT dimensions: (  60,  60, 225)

     Estimated max dynamical RAM per process >     233.00 MB

     Estimated total dynamical RAM >       8.42 GB

     Initial potential from superposition of free atoms

     starting charge  125.97448, renormalised to  126.00000

     negative rho (up, down):  7.225E-04 0.000E+00


     %%%%%%%%%%%%%%%%%%%%%%%%%%%%%%%%%%%%%%%%%%%%%%%%%%%%%%%%%%%%%%%%%%%%%%%%
     %                                                                      %
     % You are using vdW-DF, which was implemented by the Thonhauser group. %
     % Please cite the following two papers that made this development      %
     % possible and the two reviews that describe the various versions:     %
     %                                                                      %
     %   T. Thonhauser et al., PRL 115, 136402 (2015).                      %
     %   T. Thonhauser et al., PRB 76, 125112 (2007).                       %
     %   K. Berland et al., Rep. Prog. Phys. 78, 066501 (2015).             %
     %   D.C. Langreth et al., J. Phys.: Condens. Matter 21, 084203 (2009). %
     %                                                                      %
     %                                                                      %
     % If you are calculating the stress with vdW-DF, please also cite:     %
     %                                                                      %
     %   R. Sabatini et al., J. Phys.: Condens. Matter 24, 424209 (2012).   %
     %                                                                      %
     %%%%%%%%%%%%%%%%%%%%%%%%%%%%%%%%%%%%%%%%%%%%%%%%%%%%%%%%%%%%%%%%%%%%%%%%



     Adding external electric field

     Computed dipole along edir(3) : 
        Dipole                0.0015 Ry au,          0.0038 Debye
        Dipole field          0.0000 Ry au, 

        Potential amp.       -0.0003 Ry
        Total length         45.9979 bohr

     Starting wfcs are  132 randomized atomic wfcs

     total cpu time spent up to now is      110.5 secs

     Self-consistent Calculation

     iteration #  1     ecut=    55.12 Ry     beta= 0.10
     Davidson diagonalization with overlap
     ethr =  1.00E-02,  avg # of iterations =  2.0

     negative rho (up, down):  6.186E-04 0.000E+00

     Adding external electric field

     Computed dipole along edir(3) : 
        Dipole                0.0391 Ry au,          0.0993 Debye
        Dipole field          0.0001 Ry au, 

        Potential amp.       -0.0077 Ry
        Total length         45.9979 bohr


     total cpu time spent up to now is      259.5 secs

     total energy              =    -902.50612852 Ry
     estimated scf accuracy    <       1.41378452 Ry

     iteration #  2     ecut=    55.12 Ry     beta= 0.10
     Davidson diagonalization with overlap
     ethr =  1.12E-03,  avg # of iterations =  2.5

     negative rho (up, down):  5.934E-04 0.000E+00

     Adding external electric field

     Computed dipole along edir(3) : 
        Dipole                0.0840 Ry au,          0.2136 Debye
        Dipole field          0.0002 Ry au, 

        Potential amp.       -0.0165 Ry
        Total length         45.9979 bohr


     total cpu time spent up to now is      408.1 secs

     total energy              =    -902.56562523 Ry
     estimated scf accuracy    <       0.41397265 Ry

     iteration #  3     ecut=    55.12 Ry     beta= 0.10
     Davidson diagonalization with overlap
     ethr =  3.29E-04,  avg # of iterations =  6.0

     negative rho (up, down):  5.874E-04 0.000E+00

     Adding external electric field

     Computed dipole along edir(3) : 
        Dipole                0.0063 Ry au,          0.0160 Debye
        Dipole field          0.0000 Ry au, 

        Potential amp.       -0.0012 Ry
        Total length         45.9979 bohr


     total cpu time spent up to now is      573.8 secs

     total energy              =    -902.58122680 Ry
     estimated scf accuracy    <       0.18181647 Ry

     iteration #  4     ecut=    55.12 Ry     beta= 0.10
     Davidson diagonalization with overlap
     ethr =  1.44E-04,  avg # of iterations =  4.4

     negative rho (up, down):  5.826E-04 0.000E+00

     Adding external electric field

     Computed dipole along edir(3) : 
        Dipole                0.1142 Ry au,          0.2901 Debye
        Dipole field          0.0002 Ry au, 

        Potential amp.       -0.0225 Ry
        Total length         45.9979 bohr


     total cpu time spent up to now is      728.4 secs

     total energy              =    -902.59190352 Ry
     estimated scf accuracy    <       0.14836351 Ry

     iteration #  5     ecut=    55.12 Ry     beta= 0.10
     Davidson diagonalization with overlap
     ethr =  1.18E-04,  avg # of iterations =  3.0

     negative rho (up, down):  6.902E-04 0.000E+00

     Adding external electric field

     Computed dipole along edir(3) : 
        Dipole                0.1869 Ry au,          0.4751 Debye
        Dipole field          0.0004 Ry au, 

        Potential amp.       -0.0368 Ry
        Total length         45.9979 bohr


     total cpu time spent up to now is      869.4 secs

     total energy              =    -902.57687045 Ry
     estimated scf accuracy    <       0.07265075 Ry

     iteration #  6     ecut=    55.12 Ry     beta= 0.10
     Davidson diagonalization with overlap
     c_bands:  1 eigenvalues not converged
     c_bands:  2 eigenvalues not converged
     c_bands:  1 eigenvalues not converged
     c_bands:  1 eigenvalues not converged
     c_bands:  1 eigenvalues not converged
     c_bands:  1 eigenvalues not converged
     ethr =  5.77E-05,  avg # of iterations = 14.7

     negative rho (up, down):  6.048E-04 0.000E+00

     Adding external electric field

     Computed dipole along edir(3) : 
        Dipole                0.1301 Ry au,          0.3307 Debye
        Dipole field          0.0003 Ry au, 

        Potential amp.       -0.0256 Ry
        Total length         45.9979 bohr


     total cpu time spent up to now is     1173.6 secs

     total energy              =    -902.59712226 Ry
     estimated scf accuracy    <       0.52132779 Ry

     iteration #  7     ecut=    55.12 Ry     beta= 0.10
     Davidson diagonalization with overlap
     ethr =  5.77E-05,  avg # of iterations =  4.0

     negative rho (up, down):  5.946E-04 0.000E+00

     Adding external electric field

     Computed dipole along edir(3) : 
        Dipole                0.1368 Ry au,          0.3477 Debye
        Dipole field          0.0003 Ry au, 

        Potential amp.       -0.0269 Ry
        Total length         45.9979 bohr


     total cpu time spent up to now is     1326.9 secs

     total energy              =    -902.60066941 Ry
     estimated scf accuracy    <       0.16286578 Ry

     iteration #  8     ecut=    55.12 Ry     beta= 0.10
     Davidson diagonalization with overlap
     ethr =  5.77E-05,  avg # of iterations =  1.7

     negative rho (up, down):  6.301E-04 0.000E+00

     Adding external electric field

     Computed dipole along edir(3) : 
        Dipole                0.1270 Ry au,          0.3227 Debye
        Dipole field          0.0003 Ry au, 

        Potential amp.       -0.0250 Ry
        Total length         45.9979 bohr


     total cpu time spent up to now is     1463.7 secs

     total energy              =    -902.58058133 Ry
     estimated scf accuracy    <       0.10235937 Ry

     iteration #  9     ecut=    55.12 Ry     beta= 0.10
     Davidson diagonalization with overlap
     ethr =  5.77E-05,  avg # of iterations =  7.2

     negative rho (up, down):  6.189E-04 0.000E+00

     Adding external electric field

     Computed dipole along edir(3) : 
        Dipole                0.1351 Ry au,          0.3433 Debye
        Dipole field          0.0003 Ry au, 

        Potential amp.       -0.0266 Ry
        Total length         45.9979 bohr


     total cpu time spent up to now is     1648.5 secs

     total energy              =    -902.59349134 Ry
     estimated scf accuracy    <       0.00518990 Ry

     iteration # 10     ecut=    55.12 Ry     beta= 0.10
     Davidson diagonalization with overlap
     c_bands:  1 eigenvalues not converged
     c_bands:  1 eigenvalues not converged
     c_bands:  1 eigenvalues not converged
     c_bands:  1 eigenvalues not converged
     ethr =  4.12E-06,  avg # of iterations = 10.8

     negative rho (up, down):  6.069E-04 0.000E+00

     Adding external electric field

     Computed dipole along edir(3) : 
        Dipole                0.1339 Ry au,          0.3404 Debye
        Dipole field          0.0003 Ry au, 

        Potential amp.       -0.0264 Ry
        Total length         45.9979 bohr


     total cpu time spent up to now is     1871.9 secs

     total energy              =    -902.59475176 Ry
     estimated scf accuracy    <       0.00541123 Ry

     iteration # 11     ecut=    55.12 Ry     beta= 0.10
     Davidson diagonalization with overlap
     ethr =  4.12E-06,  avg # of iterations =  1.6

     negative rho (up, down):  6.145E-04 0.000E+00

     Adding external electric field

     Computed dipole along edir(3) : 
        Dipole                0.1155 Ry au,          0.2935 Debye
        Dipole field          0.0002 Ry au, 

        Potential amp.       -0.0227 Ry
        Total length         45.9979 bohr


     total cpu time spent up to now is     2001.5 secs

     total energy              =    -902.59355881 Ry
     estimated scf accuracy    <       0.00647586 Ry

     iteration # 12     ecut=    55.12 Ry     beta= 0.10
     Davidson diagonalization with overlap
     c_bands:  1 eigenvalues not converged
     ethr =  4.12E-06,  avg # of iterations =  8.0

     negative rho (up, down):  6.068E-04 0.000E+00

     Adding external electric field

     Computed dipole along edir(3) : 
        Dipole                0.1126 Ry au,          0.2862 Debye
        Dipole field          0.0002 Ry au, 

        Potential amp.       -0.0222 Ry
        Total length         45.9979 bohr


     total cpu time spent up to now is     2178.7 secs

     total energy              =    -902.59377740 Ry
     estimated scf accuracy    <       0.00640011 Ry

     iteration # 13     ecut=    55.12 Ry     beta= 0.10
     Davidson diagonalization with overlap
     ethr =  4.12E-06,  avg # of iterations =  2.1

     negative rho (up, down):  5.820E-04 0.000E+00

     Adding external electric field

     Computed dipole along edir(3) : 
        Dipole                0.1063 Ry au,          0.2703 Debye
        Dipole field          0.0002 Ry au, 

        Potential amp.       -0.0209 Ry
        Total length         45.9979 bohr


     total cpu time spent up to now is     2317.7 secs

     total energy              =    -902.59337687 Ry
     estimated scf accuracy    <       0.00285435 Ry

     iteration # 14     ecut=    55.12 Ry     beta= 0.10
     Davidson diagonalization with overlap
     c_bands:  1 eigenvalues not converged
     ethr =  2.27E-06,  avg # of iterations =  6.6

     negative rho (up, down):  5.668E-04 0.000E+00

     Adding external electric field

     Computed dipole along edir(3) : 
        Dipole                0.0988 Ry au,          0.2512 Debye
        Dipole field          0.0002 Ry au, 

        Potential amp.       -0.0195 Ry
        Total length         45.9979 bohr


     total cpu time spent up to now is     2471.4 secs

     total energy              =    -902.59362969 Ry
     estimated scf accuracy    <       0.00026716 Ry

     iteration # 15     ecut=    55.12 Ry     beta= 0.10
     Davidson diagonalization with overlap
     ethr =  2.12E-07,  avg # of iterations =  7.6

     negative rho (up, down):  5.604E-04 0.000E+00

     Adding external electric field

     Computed dipole along edir(3) : 
        Dipole                0.0988 Ry au,          0.2510 Debye
        Dipole field          0.0002 Ry au, 

        Potential amp.       -0.0194 Ry
        Total length         45.9979 bohr


     total cpu time spent up to now is     2672.8 secs

     total energy              =    -902.59369545 Ry
     estimated scf accuracy    <       0.00004067 Ry

     iteration # 16     ecut=    55.12 Ry     beta= 0.10
     Davidson diagonalization with overlap
     ethr =  3.23E-08,  avg # of iterations =  6.3

     negative rho (up, down):  5.548E-04 0.000E+00

     Adding external electric field

     Computed dipole along edir(3) : 
        Dipole                0.0989 Ry au,          0.2514 Debye
        Dipole field          0.0002 Ry au, 

        Potential amp.       -0.0195 Ry
        Total length         45.9979 bohr


     total cpu time spent up to now is     2929.7 secs

     total energy              =    -902.59371879 Ry
     estimated scf accuracy    <       0.00016425 Ry

     iteration # 17     ecut=    55.12 Ry     beta= 0.10
     Davidson diagonalization with overlap
     ethr =  3.23E-08,  avg # of iterations =  2.1

     negative rho (up, down):  5.483E-04 0.000E+00

     Adding external electric field

     Computed dipole along edir(3) : 
        Dipole                0.0992 Ry au,          0.2520 Debye
        Dipole field          0.0002 Ry au, 

        Potential amp.       -0.0195 Ry
        Total length         45.9979 bohr


     total cpu time spent up to now is     3081.5 secs

     total energy              =    -902.59370142 Ry
     estimated scf accuracy    <       0.00008692 Ry

     iteration # 18     ecut=    55.12 Ry     beta= 0.10
     Davidson diagonalization with overlap
     ethr =  3.23E-08,  avg # of iterations =  5.8

     negative rho (up, down):  5.427E-04 0.000E+00

     Adding external electric field

     Computed dipole along edir(3) : 
        Dipole                0.0992 Ry au,          0.2522 Debye
        Dipole field          0.0002 Ry au, 

        Potential amp.       -0.0195 Ry
        Total length         45.9979 bohr


     total cpu time spent up to now is     3272.7 secs

     total energy              =    -902.59371795 Ry
     estimated scf accuracy    <       0.00001440 Ry

     iteration # 19     ecut=    55.12 Ry     beta= 0.10
     Davidson diagonalization with overlap
     ethr =  1.14E-08,  avg # of iterations =  2.1

     negative rho (up, down):  5.289E-04 0.000E+00

     Adding external electric field

     Computed dipole along edir(3) : 
        Dipole                0.0927 Ry au,          0.2355 Debye
        Dipole field          0.0002 Ry au, 

        Potential amp.       -0.0182 Ry
        Total length         45.9979 bohr


     total cpu time spent up to now is     3421.7 secs

     End of self-consistent calculation

          k = 0.0000 0.0000 0.0000 ( 40611 PWs)   bands (ev):

   -42.1160 -42.1070 -42.0890 -42.0800 -41.3306 -41.3031 -22.1536 -22.1465
   -22.1365 -22.1147 -22.1043 -22.0765 -21.9778 -21.9586 -21.9540 -21.9280
   -21.8104 -21.8062 -21.4710 -21.3053 -21.2896 -21.2532 -21.2513 -21.1061
    -4.9035  -3.5392  -3.2094  -3.1135  -3.0098  -2.7403  -2.6830  -2.6716
    -2.6654  -2.6500  -2.2528  -2.2004  -2.1606  -1.9072  -1.8584  -1.8157
    -1.6741  -1.6584  -1.6251  -1.5056  -1.4212  -1.3933  -1.3770  -1.1279
    -1.0481  -0.9852  -0.9648  -0.9341  -0.6085  -0.4494  -0.4223  -0.2408
    -0.1857   0.2611   0.3389   0.5803   1.1616   1.7859   1.8684   2.0687
     2.2497   2.4260   2.7594   2.8027   2.8147   2.9256   2.9269   2.9831
     3.1256   3.5889   3.8230   3.8379

          k = 0.0000 0.0145 0.0000 ( 40641 PWs)   bands (ev):

   -42.1155 -42.1065 -42.0895 -42.0805 -41.3301 -41.3036 -22.1482 -22.1412
   -22.1359 -22.1142 -22.1049 -22.0773 -21.9775 -21.9590 -21.9547 -21.9293
   -21.8167 -21.8125 -21.4652 -21.3043 -21.2895 -21.2543 -21.2521 -21.1128
    -4.8599  -3.4983  -3.1709  -3.1036  -2.9894  -2.7141  -2.6613  -2.6565
    -2.6455  -2.6344  -2.2346  -2.1739  -2.1369  -1.8957  -1.8531  -1.8039
    -1.6672  -1.6670  -1.6135  -1.5069  -1.4201  -1.3886  -1.3614  -1.1283
    -1.0472  -1.0257  -1.0006  -0.8898  -0.6235  -0.4576  -0.4469  -0.2551
    -0.1811   0.0963   0.2205   0.4567   1.3103   1.8351   1.9308   2.0663
     2.1918   2.3987   2.6809   2.7848   2.8277   2.8882   2.9149   2.9503
     3.1222   3.5846   3.5849   3.6769

          k = 0.0000 0.0291 0.0000 ( 40676 PWs)   bands (ev):

   -42.1141 -42.1051 -42.0908 -42.0818 -41.3287 -41.3049 -22.1344 -22.1324
   -22.1255 -22.1128 -22.1064 -22.0795 -21.9764 -21.9600 -21.9565 -21.9329
   -21.8350 -21.8309 -21.4483 -21.3014 -21.2891 -21.2575 -21.2547 -21.1325
    -4.7321  -3.3809  -3.0887  -3.0583  -2.9346  -2.6381  -2.6066  -2.6013
    -2.5866  -2.5863  -2.2168  -2.0965  -2.0380  -1.8627  -1.8385  -1.7713
    -1.6923  -1.6458  -1.5788  -1.5122  -1.4269  -1.3756  -1.3068  -1.1406
    -1.1103  -1.0428  -1.0351  -0.8605  -0.6622  -0.5668  -0.4794  -0.3210
    -0.1690  -0.1648  -0.0693   0.2116   1.5833   1.7177   2.0111   2.0476
     2.1906   2.3278   2.5767   2.6142   2.7101   2.8157   2.9537   2.9946
     3.1071   3.3805   3.4575   3.5560

          k = 0.0000 0.0436 0.0000 ( 40625 PWs)   bands (ev):

   -42.1119 -42.1029 -42.0929 -42.0839 -41.3265 -41.3070 -22.1319 -22.1114
   -22.1103 -22.1048 -22.1001 -22.0829 -21.9746 -21.9613 -21.9590 -21.9382
   -21.8638 -21.8598 -21.4212 -21.2968 -21.2881 -21.2622 -21.2587 -21.1633
    -4.5284  -3.2049  -3.1069  -2.8806  -2.8625  -2.5259  -2.5203  -2.5176
    -2.4966  -2.4900  -2.2114  -1.9766  -1.8958  -1.8168  -1.7973  -1.7305
    -1.7291  -1.6085  -1.5253  -1.5249  -1.4358  -1.3559  -1.2218  -1.1986
    -1.1712  -1.0982  -1.0186  -0.8706  -0.8591  -0.7094  -0.5504  -0.5057
    -0.3562  -0.2701  -0.1327  -0.0373   1.5031   1.7324   1.8497   1.9805
     2.1640   2.2441   2.4500   2.5084   2.6162   2.8189   3.0283   3.0530
     3.0899   3.2498   3.3040   3.4602

          k = 0.0000 0.0581 0.0000 ( 40597 PWs)   bands (ev):

   -42.1091 -42.1001 -42.0956 -42.0866 -41.3236 -41.3098 -22.1287 -22.1132
   -22.1069 -22.0878 -22.0722 -22.0668 -21.9722 -21.9621 -21.9618 -21.9445
   -21.9007 -21.8967 -21.3854 -21.2909 -21.2864 -21.2677 -21.2640 -21.2029
    -4.2639  -3.1996  -3.0067  -2.7941  -2.6544  -2.4296  -2.4182  -2.3893
    -2.3674  -2.3646  -2.2078  -1.8447  -1.8313  -1.7834  -1.7593  -1.7188
    -1.6547  -1.5588  -1.5464  -1.4666  -1.4252  -1.3299  -1.2785  -1.2155
    -1.1938  -1.1395  -1.1156  -1.0268  -0.9106  -0.8745  -0.7613  -0.6330
    -0.5214  -0.2900  -0.2102  -0.0913   1.2484   1.5131   1.7417   1.8448
     2.1059   2.1634   2.2937   2.4744   2.7292   2.8514   3.0517   3.0997
     3.1035   3.1734   3.2379   3.2987

          k = 0.0000 0.0727 0.0000 ( 40585 PWs)   bands (ev):

   -42.1058 -42.0988 -42.0968 -42.0898 -41.3202 -41.3131 -22.1250 -22.1170
   -22.1027 -22.0927 -22.0324 -22.0275 -21.9700 -21.9642 -21.9618 -21.9509
   -21.9426 -21.9382 -21.3431 -21.2844 -21.2837 -21.2732 -21.2703 -21.2476
    -3.9616  -3.3873  -2.8432  -2.7511  -2.4208  -2.3337  -2.3307  -2.2649
    -2.2624  -2.2155  -2.1941  -1.8358  -1.8192  -1.7730  -1.7526  -1.6702
    -1.6343  -1.5544  -1.5217  -1.4416  -1.3790  -1.3539  -1.3249  -1.2919
    -1.2581  -1.1698  -1.0954  -1.0755  -1.0231  -0.9582  -0.9149  -0.8262
    -0.5111  -0.3465  -0.2436  -0.0816   1.0823   1.3846   1.4174   1.6550
     2.1074   2.1746   2.2653   2.4466   2.7887   2.8991   3.0408   3.0535
     3.1204   3.1723   3.1730   3.2294

          k = 0.0000-0.0872 0.0000 ( 40588 PWs)   bands (ev):

   -42.1023 -42.1023 -42.0933 -42.0933 -41.3166 -41.3166 -22.1210 -22.1210
   -22.0978 -22.0978 -21.9893 -21.9893 -21.9849 -21.9849 -21.9655 -21.9655
   -21.9561 -21.9560 -21.2978 -21.2978 -21.2773 -21.2773 -21.2770 -21.2770
    -3.6550  -3.6550  -2.7588  -2.7588  -2.2945  -2.2945  -2.2830  -2.2830
    -2.1709  -2.1709  -2.0127  -2.0127  -1.8099  -1.8099  -1.7429  -1.7429
    -1.5525  -1.5524  -1.4632  -1.4632  -1.3700  -1.3700  -1.3113  -1.3113
    -1.2457  -1.2457  -1.1156  -1.1156  -1.0249  -1.0249  -0.9008  -0.9008
    -0.4558  -0.4558  -0.1504  -0.1504   1.1316   1.1316   1.4806   1.4806
     2.1096   2.1096   2.3869   2.3869   2.8538   2.8538   3.0097   3.0097
     3.1338   3.1339   3.2167   3.2167

          k = 0.0137-0.0048 0.0000 ( 40641 PWs)   bands (ev):

   -42.1155 -42.1065 -42.0895 -42.0805 -41.3301 -41.3036 -22.1482 -22.1412
   -22.1359 -22.1142 -22.1049 -22.0773 -21.9775 -21.9590 -21.9547 -21.9293
   -21.8167 -21.8125 -21.4652 -21.3043 -21.2895 -21.2543 -21.2521 -21.1128
    -4.8599  -3.4983  -3.1709  -3.1036  -2.9894  -2.7141  -2.6613  -2.6565
    -2.6455  -2.6344  -2.2346  -2.1739  -2.1369  -1.8957  -1.8531  -1.8039
    -1.6672  -1.6670  -1.6135  -1.5069  -1.4201  -1.3886  -1.3614  -1.1283
    -1.0472  -1.0257  -1.0006  -0.8898  -0.6235  -0.4576  -0.4469  -0.2551
    -0.1811   0.0963   0.2205   0.4567   1.3103   1.8351   1.9308   2.0663
     2.1918   2.3987   2.6809   2.7848   2.8277   2.8881   2.9149   2.9503
     3.1222   3.5845   3.5849   3.6765

          k = 0.0137 0.0097 0.0000 ( 40651 PWs)   bands (ev):

   -42.1159 -42.1069 -42.0890 -42.0800 -41.3306 -41.3031 -22.1544 -22.1473
   -22.1369 -22.1153 -22.1036 -22.0772 -21.9782 -21.9619 -21.9526 -21.9293
   -21.8107 -21.8064 -21.4717 -21.3041 -21.2910 -21.2538 -21.2521 -21.1064
    -4.8440  -3.4863  -3.1742  -3.0966  -2.9664  -2.7134  -2.6651  -2.6496
    -2.6265  -2.6204  -2.2183  -2.1764  -2.1329  -1.8828  -1.8268  -1.8121
    -1.6633  -1.6529  -1.6191  -1.5184  -1.4095  -1.3617  -1.3614  -1.1118
    -1.0508  -0.9971  -0.9712  -0.9391  -0.6062  -0.4812  -0.4070  -0.2586
    -0.1689   0.2600   0.3439   0.5816   1.0579   1.6945   1.7143   2.0964
     2.1270   2.2734   2.6249   2.6290   2.7704   2.7908   2.9104   2.9782
     3.1667   3.4922   3.5604   3.8983

          k = 0.0137 0.0242 0.0000 ( 40643 PWs)   bands (ev):

   -42.1154 -42.1064 -42.0895 -42.0805 -41.3301 -41.3035 -22.1498 -22.1426
   -22.1369 -22.1151 -22.1035 -22.0785 -21.9784 -21.9652 -21.9520 -21.9317
   -21.8171 -21.8129 -21.4666 -21.3021 -21.2921 -21.2555 -21.2537 -21.1135
    -4.7430  -3.3970  -3.1046  -3.0776  -2.9085  -2.6616  -2.6257  -2.6061
    -2.5762  -2.5730  -2.1960  -2.1272  -2.0613  -1.8458  -1.7974  -1.7924
    -1.6552  -1.6467  -1.5993  -1.5324  -1.4111  -1.3286  -1.3200  -1.1105
    -1.0457  -1.0355  -1.0205  -0.9013  -0.6199  -0.5153  -0.4202  -0.2896
    -0.1475   0.0742   0.2166   0.4503   1.1538   1.4972   1.7774   1.9835
     2.0933   2.1360   2.4568   2.5719   2.6175   2.6982   2.8442   2.9934
     3.1782   3.3768   3.3954   3.7327

          k = 0.0137 0.0388 0.0000 ( 40653 PWs)   bands (ev):

   -42.1140 -42.1049 -42.0908 -42.0818 -41.3287 -41.3048 -22.1360 -22.1345
   -22.1274 -22.1136 -22.1046 -22.0810 -21.9781 -21.9681 -21.9525 -21.9359
   -21.8354 -21.8313 -21.4502 -21.2983 -21.2924 -21.2589 -21.2570 -21.1332
    -4.5638  -3.2455  -3.0798  -2.9702  -2.8314  -2.5648  -2.5485  -2.5286
    -2.5043  -2.4813  -2.1892  -2.0326  -1.9426  -1.7764  -1.7649  -1.7564
    -1.6723  -1.6162  -1.5530  -1.5522  -1.4253  -1.2939  -1.2407  -1.1462
    -1.1200  -1.0599  -1.0188  -0.8801  -0.6635  -0.5629  -0.5473  -0.3711
    -0.2056  -0.1143  -0.0680   0.1754   1.2562   1.4142   1.7921   1.8865
     1.8904   2.1632   2.2779   2.4492   2.5441   2.6510   2.8377   2.9808
     3.1606   3.2088   3.2923   3.5749

          k = 0.0137 0.0533 0.0000 ( 40636 PWs)   bands (ev):

   -42.1117 -42.1027 -42.0929 -42.0839 -41.3264 -41.3069 -22.1343 -22.1111
   -22.1107 -22.1052 -22.1022 -22.0843 -21.9777 -21.9692 -21.9539 -21.9413
   -21.8639 -21.8600 -21.4232 -21.2932 -21.2916 -21.2634 -21.2616 -21.1639
    -4.3191  -3.1426  -3.0618  -2.7825  -2.7541  -2.4490  -2.4337  -2.4305
    -2.4107  -2.3643  -2.1736  -1.9097  -1.8709  -1.7577  -1.7263  -1.6964
    -1.6414  -1.5800  -1.5655  -1.4879  -1.4290  -1.2678  -1.2124  -1.1811
    -1.1484  -1.0891  -1.0086  -0.9004  -0.8993  -0.7274  -0.6060  -0.5588
    -0.4125  -0.1925  -0.1420  -0.0836   1.0244   1.6008   1.6357   1.6413
     1.7770   2.1431   2.1930   2.4822   2.5396   2.6524   2.9089   2.9507
     3.0910   3.1313   3.1926   3.4565

          k = 0.0137 0.0678 0.0000 ( 40607 PWs)   bands (ev):

   -42.1089 -42.0999 -42.0957 -42.0867 -41.3235 -41.3097 -22.1317 -22.1108
   -22.1066 -22.0890 -22.0742 -22.0688 -21.9777 -21.9674 -21.9560 -21.9467
   -21.9005 -21.8966 -21.3872 -21.2895 -21.2870 -21.2683 -21.2673 -21.2030
    -4.0281  -3.2929  -2.8931  -2.6955  -2.5579  -2.3468  -2.3380  -2.3130
    -2.2844  -2.2752  -2.1292  -1.8550  -1.8098  -1.7783  -1.7113  -1.6799
    -1.6047  -1.5570  -1.5244  -1.4198  -1.4068  -1.3092  -1.2536  -1.2122
    -1.2074  -1.0967  -1.0429  -1.0363  -0.9494  -0.9294  -0.8020  -0.6984
    -0.5371  -0.3551  -0.1660  -0.1119   0.9182   1.3724   1.3873   1.5611
     1.9551   2.0411   2.2195   2.5483   2.6288   2.7058   2.8727   2.9674
     3.0596   3.1064   3.1574   3.3833

          k = 0.0137-0.0921 0.0000 ( 40590 PWs)   bands (ev):

   -42.1056 -42.0989 -42.0966 -42.0899 -41.3202 -41.3130 -22.1283 -22.1146
   -22.1017 -22.0932 -22.0341 -22.0290 -21.9774 -21.9636 -21.9591 -21.9507
   -21.9420 -21.9378 -21.3444 -21.2861 -21.2804 -21.2739 -21.2730 -21.2473
    -3.7189  -3.5308  -2.7871  -2.6784  -2.3409  -2.2990  -2.2615  -2.2598
    -2.2430  -2.1395  -2.0802  -1.8882  -1.8377  -1.7684  -1.7165  -1.6847
    -1.6208  -1.5273  -1.4936  -1.4262  -1.3757  -1.3715  -1.3128  -1.3064
    -1.2264  -1.1769  -1.0985  -1.0675  -1.0139  -1.0006  -0.9134  -0.8830
    -0.4659  -0.4566  -0.2278  -0.1040   1.0329   1.1817   1.1844   1.5967
     2.0233   2.1443   2.2602   2.5656   2.6963   2.7933   2.8411   2.9862
     3.1015   3.1147   3.2317   3.3510

          k = 0.0137-0.0775 0.0000 ( 40580 PWs)   bands (ev):

   -42.1024 -42.1021 -42.0934 -42.0931 -41.3167 -41.3166 -22.1243 -22.1190
   -22.0976 -22.0962 -21.9901 -21.9882 -21.9854 -21.9841 -21.9728 -21.9629
   -21.9558 -21.9526 -21.2981 -21.2967 -21.2807 -21.2786 -21.2764 -21.2737
    -3.8253  -3.4309  -2.7579  -2.7327  -2.3271  -2.3209  -2.3084  -2.2621
    -2.1873  -2.1207  -2.0761  -1.9347  -1.8730  -1.7966  -1.7502  -1.6718
    -1.5623  -1.5289  -1.4842  -1.4601  -1.3820  -1.3590  -1.3482  -1.3381
    -1.2814  -1.2662  -1.1437  -1.1268  -1.0798  -0.9671  -0.9606  -0.8417
    -0.4965  -0.3521  -0.3264  -0.0784   1.0996   1.1984   1.3364   1.6745
     2.1353   2.2635   2.3366   2.4980   2.6882   2.9529   2.9650   3.0619
     3.0991   3.1451   3.3215   3.3308

          k = 0.0137-0.0630 0.0000 ( 40596 PWs)   bands (ev):

   -42.1059 -42.0987 -42.0969 -42.0897 -41.3202 -41.3131 -22.1234 -22.1199
   -22.1019 -22.0908 -22.0308 -22.0259 -21.9711 -21.9683 -21.9552 -21.9494
   -21.9435 -21.9389 -21.3417 -21.2876 -21.2816 -21.2737 -21.2673 -21.2482
    -4.1316  -3.2112  -2.8794  -2.7874  -2.4897  -2.4103  -2.3991  -2.3544
    -2.2893  -2.2563  -2.1585  -1.8524  -1.8403  -1.7900  -1.7139  -1.6873
    -1.6374  -1.5411  -1.5033  -1.4862  -1.4039  -1.3902  -1.3898  -1.3385
    -1.2315  -1.2208  -1.1283  -1.0744  -1.0514  -0.9448  -0.8864  -0.7739
    -0.4957  -0.3885  -0.2045  -0.1109   1.2077   1.4145   1.7313   1.7563
     2.3142   2.3350   2.3753   2.4552   2.7738   2.9622   3.0471   3.1039
     3.1352   3.1455   3.3241   3.3960

          k = 0.0137-0.0484 0.0000 ( 40608 PWs)   bands (ev):

   -42.1092 -42.1002 -42.0956 -42.0866 -41.3236 -41.3099 -22.1275 -22.1155
   -22.1058 -22.0860 -22.0705 -22.0653 -21.9714 -21.9670 -21.9550 -21.9425
   -21.9010 -21.8970 -21.3840 -21.2938 -21.2839 -21.2674 -21.2617 -21.2028
    -4.4112  -3.0930  -3.0857  -2.8495  -2.7261  -2.5120  -2.5023  -2.4634
    -2.4367  -2.4078  -2.1527  -1.8820  -1.8568  -1.8402  -1.8109  -1.7889
    -1.6630  -1.5870  -1.4964  -1.4945  -1.4271  -1.4068  -1.2682  -1.2119
    -1.1910  -1.1833  -1.1441  -1.0345  -0.9180  -0.8407  -0.7277  -0.5960
    -0.4770  -0.3742  -0.1538  -0.1068   1.4812   1.6982   1.8541   2.0940
     2.2987   2.3468   2.4841   2.5998   2.8350   2.9187   3.0350   3.0539
     3.0889   3.1193   3.4040   3.5272

          k = 0.0137-0.0339 0.0000 ( 40625 PWs)   bands (ev):

   -42.1120 -42.1030 -42.0928 -42.0838 -41.3265 -41.3071 -22.1312 -22.1124
   -22.1093 -22.1040 -22.0988 -22.0816 -21.9741 -21.9623 -21.9556 -21.9363
   -21.8637 -21.8597 -21.4200 -21.2989 -21.2860 -21.2615 -21.2571 -21.1631
    -4.6364  -3.2842  -3.0676  -2.9390  -2.9190  -2.5957  -2.5731  -2.5661
    -2.5586  -2.5283  -2.1582  -2.0160  -2.0158  -1.8722  -1.8523  -1.7407
    -1.7192  -1.6298  -1.5420  -1.4943  -1.4222  -1.4107  -1.2903  -1.1878
    -1.1584  -1.0904  -1.0378  -0.8701  -0.8465  -0.6972  -0.5196  -0.4578
    -0.3253  -0.3105  -0.1791   0.0096   1.8126   1.8800   1.9629   1.9640
     2.4366   2.5171   2.5800   2.7139   2.7461   2.9248   3.0082   3.0133
     3.0555   3.0795   3.4217   3.7084

          k = 0.0137-0.0194 0.0000 ( 40635 PWs)   bands (ev):

   -42.1142 -42.1052 -42.0908 -42.0818 -41.3287 -41.3049 -22.1340 -22.1316
   -22.1248 -22.1122 -22.1072 -22.0788 -21.9761 -21.9580 -21.9568 -21.9317
   -21.8348 -21.8308 -21.4477 -21.3025 -21.2878 -21.2570 -21.2538 -21.1322
    -4.7894  -3.4288  -3.0914  -3.0874  -2.9715  -2.6634  -2.6381  -2.6240
    -2.6179  -2.6142  -2.1953  -2.1190  -2.1141  -1.8844  -1.8684  -1.7715
    -1.6976  -1.6560  -1.5864  -1.4980  -1.4193  -1.4053  -1.3419  -1.1407
    -1.1052  -1.0440  -1.0336  -0.8568  -0.6612  -0.5731  -0.4496  -0.3013
    -0.1859  -0.1630  -0.0632   0.2212   1.6509   1.9105   2.0271   2.1034
     2.2969   2.4794   2.6033   2.7893   2.8732   2.9051   2.9740   2.9866
     3.0575   3.2590   3.5233   3.6722

          k = 0.0274-0.0097 0.0000 ( 40676 PWs)   bands (ev):

   -42.1141 -42.1051 -42.0908 -42.0818 -41.3287 -41.3049 -22.1344 -22.1324
   -22.1255 -22.1128 -22.1064 -22.0795 -21.9764 -21.9600 -21.9565 -21.9329
   -21.8350 -21.8309 -21.4483 -21.3014 -21.2891 -21.2575 -21.2547 -21.1325
    -4.7321  -3.3809  -3.0887  -3.0583  -2.9346  -2.6381  -2.6066  -2.6013
    -2.5866  -2.5863  -2.2168  -2.0965  -2.0380  -1.8627  -1.8385  -1.7713
    -1.6923  -1.6458  -1.5788  -1.5122  -1.4269  -1.3756  -1.3068  -1.1406
    -1.1103  -1.0428  -1.0351  -0.8605  -0.6622  -0.5668  -0.4794  -0.3210
    -0.1690  -0.1648  -0.0693   0.2116   1.5833   1.7177   2.0111   2.0476
     2.1906   2.3278   2.5767   2.6142   2.7101   2.8157   2.9537   2.9946
     3.1071   3.3804   3.4575   3.5561

          k = 0.0274 0.0048 0.0000 ( 40643 PWs)   bands (ev):

   -42.1154 -42.1064 -42.0895 -42.0805 -41.3301 -41.3035 -22.1498 -22.1426
   -22.1369 -22.1151 -22.1035 -22.0785 -21.9784 -21.9652 -21.9520 -21.9317
   -21.8171 -21.8129 -21.4666 -21.3021 -21.2921 -21.2555 -21.2537 -21.1135
    -4.7430  -3.3970  -3.1046  -3.0776  -2.9085  -2.6616  -2.6257  -2.6061
    -2.5762  -2.5730  -2.1960  -2.1272  -2.0613  -1.8458  -1.7974  -1.7924
    -1.6552  -1.6467  -1.5993  -1.5324  -1.4111  -1.3286  -1.3200  -1.1105
    -1.0457  -1.0355  -1.0205  -0.9013  -0.6199  -0.5153  -0.4202  -0.2896
    -0.1475   0.0742   0.2166   0.4503   1.1538   1.4972   1.7774   1.9835
     2.0933   2.1360   2.4568   2.5719   2.6175   2.6982   2.8442   2.9934
     3.1782   3.3767   3.3955   3.7320

          k = 0.0274 0.0194 0.0000 ( 40642 PWs)   bands (ev):

   -42.1157 -42.1067 -42.0890 -42.0800 -41.3305 -41.3029 -22.1567 -22.1494
   -22.1387 -22.1160 -22.1018 -22.0786 -21.9803 -21.9703 -21.9491 -21.9327
   -21.8113 -21.8071 -21.4737 -21.3010 -21.2946 -21.2556 -21.2544 -21.1074
    -4.6694  -3.3361  -3.0819  -3.0454  -2.8447  -2.6371  -2.6060  -2.5723
    -2.5338  -2.5294  -2.1295  -2.1065  -2.0556  -1.8065  -1.7974  -1.7382
    -1.6329  -1.6320  -1.5976  -1.5525  -1.3869  -1.3187  -1.2763  -1.0720
    -1.0666  -1.0232  -0.9947  -0.9508  -0.5981  -0.5594  -0.3713  -0.3031
    -0.1274   0.2585   0.3565   0.5852   0.7873   1.2463   1.5159   1.8484
     1.8645   2.1767   2.2121   2.4455   2.5204   2.5826   2.7848   2.9924
     3.1990   3.2383   3.2604   3.8693

          k = 0.0274 0.0339 0.0000 ( 40619 PWs)   bands (ev):

   -42.1152 -42.1062 -42.0895 -42.0805 -41.3300 -41.3033 -22.1525 -22.1451
   -22.1397 -22.1152 -22.1016 -22.0797 -21.9824 -21.9739 -21.9479 -21.9356
   -21.8178 -21.8136 -21.4690 -21.2983 -21.2964 -21.2576 -21.2565 -21.1146
    -4.5170  -3.2124  -3.0238  -2.9985  -2.7588  -2.5737  -2.5365  -2.5050
    -2.4633  -2.4509  -2.1071  -2.0385  -1.9675  -1.7793  -1.7360  -1.6872
    -1.6217  -1.6070  -1.5756  -1.5660  -1.3970  -1.2629  -1.2269  -1.1106
    -1.0624  -1.0429  -1.0268  -0.9278  -0.6120  -0.5968  -0.3857  -0.3429
    -0.1036   0.0070   0.2157   0.4295   0.9200   0.9897   1.5122   1.6013
     1.6968   2.0243   2.2250   2.2682   2.4771   2.4959   2.6992   2.9641
     3.0848   3.1260   3.2084   3.7533

          k = 0.0274 0.0484 0.0000 ( 40623 PWs)   bands (ev):

   -42.1137 -42.1047 -42.0908 -42.0818 -41.3286 -41.3046 -22.1396 -22.1374
   -22.1300 -22.1129 -22.1029 -22.0816 -21.9852 -21.9746 -21.9484 -21.9393
   -21.8360 -21.8319 -21.4526 -21.2969 -21.2942 -21.2608 -21.2601 -21.1342
    -4.2964  -3.0514  -3.0512  -2.8650  -2.6697  -2.4822  -2.4233  -2.4173
    -2.3696  -2.3469  -2.0876  -1.9385  -1.8937  -1.7670  -1.6623  -1.6332
    -1.6145  -1.6030  -1.5527  -1.5086  -1.4150  -1.2038  -1.1785  -1.1690
    -1.1228  -1.0612  -1.0066  -0.9287  -0.6613  -0.6076  -0.5984  -0.4296
    -0.2883  -0.1002  -0.0379   0.0962   0.7872   1.2116   1.3221   1.4893
     1.5813   1.9415   2.2305   2.2744   2.4403   2.4723   2.6701   2.9098
     2.9749   3.0556   3.1690   3.6093

          k = 0.0274 0.0630 0.0000 ( 40591 PWs)   bands (ev):

   -42.1115 -42.1025 -42.0929 -42.0839 -41.3264 -41.3067 -22.1383 -22.1128
   -22.1093 -22.1051 -22.1044 -22.0841 -21.9873 -21.9726 -21.9509 -21.9426
   -21.8642 -21.8603 -21.4254 -21.2956 -21.2891 -21.2649 -21.2648 -21.1646
    -4.0236  -3.1589  -2.8904  -2.6972  -2.5942  -2.3719  -2.3314  -2.2872
    -2.2625  -2.2554  -2.0430  -1.8707  -1.8456  -1.7854  -1.6598  -1.6208
    -1.6129  -1.5560  -1.4750  -1.4491  -1.4058  -1.2626  -1.2235  -1.1370
    -1.0970  -1.0446  -1.0219  -0.9784  -0.9567  -0.7364  -0.6789  -0.5800
    -0.4781  -0.3075  -0.1827  -0.0919   0.7497   1.0480   1.2690   1.4853
     1.5844   1.9462   2.3256   2.3747   2.4200   2.5060   2.7294   2.8291
     2.9342   3.0293   3.1563   3.5087

          k = 0.0274-0.0969 0.0000 ( 40569 PWs)   bands (ev):

   -42.1087 -42.0997 -42.0957 -42.0867 -41.3235 -41.3096 -22.1357 -22.1097
   -22.1047 -22.0885 -22.0760 -22.0707 -21.9877 -21.9685 -21.9551 -21.9446
   -21.9004 -21.8965 -21.3890 -21.2925 -21.2833 -21.2707 -21.2689 -21.2033
    -3.7218  -3.3575  -2.7734  -2.5512  -2.5282  -2.2726  -2.2522  -2.2136
    -2.1761  -2.1577  -1.9984  -1.8855  -1.8296  -1.7964  -1.6568  -1.6174
    -1.5802  -1.5186  -1.4919  -1.4187  -1.3685  -1.3405  -1.2854  -1.2638
    -1.1830  -1.0821  -1.0679  -1.0096  -0.9915  -0.9494  -0.8293  -0.8026
    -0.4968  -0.4602  -0.3349  -0.0750   0.8059   0.9386   1.1559   1.4842
     1.8361   2.0306   2.3727   2.4162   2.5932   2.6001   2.7413   2.8150
     2.9869   3.0582   3.2242   3.4784

          k = 0.0274-0.0824 0.0000 ( 40568 PWs)   bands (ev):

   -42.1055 -42.0990 -42.0965 -42.0900 -41.3202 -41.3129 -22.1318 -22.1139
   -22.0995 -22.0918 -22.0355 -22.0302 -21.9858 -21.9631 -21.9598 -21.9462
   -21.9418 -21.9377 -21.3454 -21.2876 -21.2772 -21.2770 -21.2729 -21.2474
    -3.6287  -3.4250  -2.7274  -2.5689  -2.4404  -2.2790  -2.2345  -2.1816
    -2.1021  -2.0589  -2.0114  -1.9229  -1.9041  -1.7238  -1.7144  -1.6727
    -1.5764  -1.4708  -1.4646  -1.4414  -1.4217  -1.4129  -1.3367  -1.2996
    -1.2930  -1.2319  -1.1925  -1.1191  -1.0444  -0.9718  -0.9268  -0.8750
    -0.4879  -0.4592  -0.3337  -0.0844   0.7098   1.2235   1.2447   1.5094
     2.0374   2.2134   2.3816   2.4843   2.6860   2.7494   2.8393   2.9274
     3.0742   3.1358   3.3571   3.3716

          k = 0.0274-0.0678 0.0000 ( 40600 PWs)   bands (ev):

   -42.1025 -42.1021 -42.0935 -42.0931 -41.3167 -41.3165 -22.1271 -22.1185
   -22.0960 -22.0942 -21.9905 -21.9869 -21.9857 -21.9834 -21.9793 -21.9642
   -21.9555 -21.9476 -21.2979 -21.2952 -21.2834 -21.2804 -21.2763 -21.2712
    -3.9304  -3.1825  -2.7460  -2.6857  -2.4727  -2.3664  -2.3258  -2.2703
    -2.1396  -2.0786  -2.0386  -1.9070  -1.8733  -1.8693  -1.7187  -1.5785
    -1.5469  -1.5412  -1.4992  -1.4817  -1.4742  -1.4314  -1.3681  -1.3651
    -1.3386  -1.2355  -1.1796  -1.1403  -1.1135  -1.0034  -0.9675  -0.8027
    -0.4909  -0.4800  -0.1874  -0.1284   0.8026   1.4677   1.5759   1.6410
     2.1337   2.3911   2.4478   2.5866   2.6867   2.9146   2.9988   3.0784
     3.1095   3.2115   3.2691   3.3813

          k = 0.0274-0.0533 0.0000 ( 40637 PWs)   bands (ev):

   -42.1060 -42.0987 -42.0970 -42.0897 -41.3202 -41.3132 -22.1231 -22.1218
   -22.1005 -22.0893 -22.0298 -22.0249 -21.9756 -21.9683 -21.9498 -21.9485
   -21.9443 -21.9399 -21.3408 -21.2896 -21.2800 -21.2740 -21.2656 -21.2487
    -4.2188  -3.0492  -2.8945  -2.8036  -2.5400  -2.5182  -2.4575  -2.3837
    -2.3162  -2.2711  -2.0226  -1.8991  -1.8584  -1.8510  -1.7469  -1.7222
    -1.5727  -1.5556  -1.5020  -1.4906  -1.4612  -1.4265  -1.4073  -1.3288
    -1.2357  -1.2002  -1.1965  -1.0777  -1.0499  -0.9710  -0.8702  -0.7483
    -0.4642  -0.4627  -0.1675  -0.1117   1.0930   1.6746   1.8054   2.0748
     2.1362   2.3601   2.6574   2.6653   2.7794   2.8730   2.9898   3.1269
     3.1862   3.2119   3.3584   3.3682

          k = 0.0274-0.0388 0.0000 ( 40616 PWs)   bands (ev):

   -42.1093 -42.1003 -42.0955 -42.0865 -41.3236 -41.3099 -22.1274 -22.1165
   -22.1051 -22.0852 -22.0699 -22.0647 -21.9714 -21.9690 -21.9521 -21.9418
   -21.9011 -21.8971 -21.3835 -21.2949 -21.2830 -21.2673 -21.2608 -21.2029
    -4.4612  -3.1137  -3.0334  -2.8698  -2.7508  -2.5802  -2.5270  -2.4860
    -2.4548  -2.4207  -2.0355  -1.9988  -1.8929  -1.8910  -1.8103  -1.7955
    -1.6458  -1.5996  -1.5018  -1.4885  -1.4255  -1.4133  -1.2628  -1.2569
    -1.1751  -1.1736  -1.1538  -1.0461  -0.9281  -0.8301  -0.7174  -0.5834
    -0.4528  -0.4020  -0.1834  -0.0719   1.4740   1.8044   2.0299   2.1765
     2.2040   2.5246   2.6763   2.7203   2.8619   2.8662   2.9653   2.9876
     3.0570   3.1444   3.5133   3.5327

          k = 0.0274-0.0242 0.0000 ( 40625 PWs)   bands (ev):

   -42.1120 -42.1030 -42.0928 -42.0838 -41.3265 -41.3071 -22.1312 -22.1124
   -22.1093 -22.1040 -22.0988 -22.0816 -21.9741 -21.9623 -21.9556 -21.9363
   -21.8637 -21.8597 -21.4200 -21.2989 -21.2860 -21.2615 -21.2571 -21.1631
    -4.6364  -3.2842  -3.0676  -2.9390  -2.9190  -2.5957  -2.5731  -2.5661
    -2.5586  -2.5283  -2.1582  -2.0160  -2.0158  -1.8722  -1.8523  -1.7407
    -1.7192  -1.6298  -1.5420  -1.4943  -1.4222  -1.4107  -1.2903  -1.1878
    -1.1584  -1.0904  -1.0378  -0.8701  -0.8465  -0.6972  -0.5196  -0.4578
    -0.3253  -0.3105  -0.1791   0.0096   1.8126   1.8800   1.9629   1.9640
     2.4366   2.5171   2.5800   2.7139   2.7461   2.9248   3.0082   3.0133
     3.0555   3.0795   3.4219   3.7097

          k = 0.0411-0.0145 0.0000 ( 40625 PWs)   bands (ev):

   -42.1119 -42.1029 -42.0929 -42.0839 -41.3265 -41.3070 -22.1319 -22.1114
   -22.1103 -22.1048 -22.1001 -22.0829 -21.9746 -21.9613 -21.9590 -21.9382
   -21.8638 -21.8598 -21.4212 -21.2968 -21.2881 -21.2622 -21.2587 -21.1633
    -4.5284  -3.2049  -3.1069  -2.8806  -2.8625  -2.5259  -2.5203  -2.5176
    -2.4966  -2.4900  -2.2114  -1.9766  -1.8958  -1.8168  -1.7973  -1.7305
    -1.7291  -1.6085  -1.5253  -1.5249  -1.4358  -1.3559  -1.2218  -1.1986
    -1.1712  -1.0982  -1.0186  -0.8706  -0.8591  -0.7094  -0.5504  -0.5057
    -0.3562  -0.2701  -0.1327  -0.0373   1.5031   1.7324   1.8497   1.9805
     2.1640   2.2441   2.4500   2.5084   2.6162   2.8189   3.0284   3.0529
     3.0900   3.2497   3.3040   3.4598

          k = 0.0411 0.0000 0.0000 ( 40653 PWs)   bands (ev):

   -42.1140 -42.1049 -42.0908 -42.0818 -41.3287 -41.3048 -22.1360 -22.1345
   -22.1274 -22.1136 -22.1046 -22.0810 -21.9781 -21.9681 -21.9525 -21.9359
   -21.8354 -21.8313 -21.4502 -21.2983 -21.2924 -21.2589 -21.2570 -21.1332
    -4.5638  -3.2455  -3.0798  -2.9702  -2.8314  -2.5648  -2.5485  -2.5286
    -2.5043  -2.4813  -2.1892  -2.0326  -1.9426  -1.7764  -1.7649  -1.7564
    -1.6723  -1.6162  -1.5530  -1.5522  -1.4253  -1.2939  -1.2407  -1.1462
    -1.1200  -1.0599  -1.0188  -0.8801  -0.6635  -0.5629  -0.5473  -0.3711
    -0.2056  -0.1143  -0.0680   0.1754   1.2562   1.4142   1.7921   1.8865
     1.8904   2.1632   2.2779   2.4492   2.5440   2.6510   2.8377   2.9808
     3.1606   3.2088   3.2923   3.5748

          k = 0.0411 0.0145 0.0000 ( 40619 PWs)   bands (ev):

   -42.1152 -42.1062 -42.0895 -42.0805 -41.3300 -41.3033 -22.1525 -22.1451
   -22.1397 -22.1152 -22.1016 -22.0797 -21.9824 -21.9739 -21.9479 -21.9356
   -21.8178 -21.8136 -21.4690 -21.2983 -21.2964 -21.2576 -21.2565 -21.1146
    -4.5170  -3.2124  -3.0238  -2.9985  -2.7588  -2.5737  -2.5365  -2.5050
    -2.4633  -2.4509  -2.1071  -2.0385  -1.9675  -1.7793  -1.7360  -1.6872
    -1.6217  -1.6070  -1.5756  -1.5660  -1.3970  -1.2629  -1.2269  -1.1106
    -1.0624  -1.0429  -1.0268  -0.9278  -0.6120  -0.5968  -0.3857  -0.3429
    -0.1036   0.0070   0.2157   0.4295   0.9200   0.9897   1.5122   1.6013
     1.6968   2.0243   2.2250   2.2682   2.4771   2.4959   2.6992   2.9641
     3.0848   3.1260   3.2084   3.7533

          k = 0.0411 0.0291 0.0000 ( 40598 PWs)   bands (ev):

   -42.1155 -42.1065 -42.0890 -42.0800 -41.3304 -41.3027 -22.1599 -22.1522
   -22.1425 -22.1152 -22.1003 -22.0790 -21.9880 -21.9772 -21.9456 -21.9366
   -21.8122 -21.8079 -21.4764 -21.2996 -21.2968 -21.2581 -21.2574 -21.1087
    -4.3926  -3.1207  -2.9723  -2.9687  -2.6596  -2.5455  -2.4730  -2.4501
    -2.3941  -2.3898  -2.0251  -1.9949  -1.9495  -1.7626  -1.6823  -1.6313
    -1.5997  -1.5816  -1.5694  -1.5553  -1.3782  -1.2615  -1.1635  -1.1074
    -1.0479  -1.0424  -1.0380  -0.9482  -0.6444  -0.5833  -0.3786  -0.3104
    -0.1068   0.2539   0.3782   0.4285   0.5878   0.7417   1.2433   1.2964
     1.5580   1.7366   2.0601   2.2726   2.3555   2.4077   2.5891   2.9234
     2.9290   3.0229   3.2144   3.6433

          k = 0.0411 0.0436 0.0000 ( 40615 PWs)   bands (ev):

   -42.1149 -42.1059 -42.0895 -42.0805 -41.3299 -41.3031 -22.1557 -22.1480
   -22.1441 -22.1136 -22.1007 -22.0792 -21.9933 -21.9781 -21.9461 -21.9378
   -21.8187 -21.8145 -21.4717 -21.3013 -21.2941 -21.2600 -21.2597 -21.1159
    -4.2000  -2.9981  -2.9533  -2.8966  -2.5550  -2.4825  -2.3737  -2.3676
    -2.3028  -2.3011  -1.9927  -1.9137  -1.8907  -1.7441  -1.6331  -1.6136
    -1.6034  -1.5280  -1.5168  -1.5137  -1.3915  -1.2089  -1.1579  -1.1366
    -1.0851  -1.0448  -1.0231  -0.9349  -0.6650  -0.5959  -0.4153  -0.3501
    -0.1577  -0.1340   0.2267   0.3732   0.5880   0.7133   0.9904   1.2098
     1.4401   1.6349   1.9434   2.2450   2.3349   2.3464   2.4906   2.8101
     2.8600   2.9813   3.1876   3.4936

          k = 0.0411 0.0581 0.0000 ( 40582 PWs)   bands (ev):

   -42.1135 -42.1045 -42.0908 -42.0818 -41.3285 -41.3044 -22.1441 -22.1403
   -22.1326 -22.1107 -22.1025 -22.0802 -21.9968 -21.9770 -21.9491 -21.9385
   -21.8366 -21.8325 -21.4551 -21.3012 -21.2903 -21.2633 -21.2628 -21.1352
    -3.9530  -3.0108  -2.8775  -2.7824  -2.4622  -2.3924  -2.2944  -2.2369
    -2.2109  -2.1944  -1.9566  -1.8644  -1.8367  -1.7598  -1.6700  -1.5803
    -1.5528  -1.4985  -1.4805  -1.4393  -1.3891  -1.2316  -1.1850  -1.1355
    -1.0905  -1.0281  -1.0280  -0.9354  -0.7051  -0.6566  -0.6363  -0.4734
    -0.3851  -0.2975  -0.0753   0.0500   0.6022   0.7146   1.0204   1.1829
     1.3585   1.7628   2.0608   2.1977   2.3030   2.3949   2.4686   2.7539
     2.8264   2.9626   3.1579   3.3638

          k = 0.0411-0.1017 0.0000 ( 40547 PWs)   bands (ev):

   -42.1113 -42.1023 -42.0930 -42.0839 -41.3263 -41.3066 -22.1423 -22.1148
   -22.1069 -22.1068 -22.1050 -22.0821 -21.9977 -21.9739 -21.9532 -21.9394
   -21.8645 -21.8606 -21.4273 -21.2989 -21.2857 -21.2678 -21.2660 -21.1652
    -3.6708  -3.1594  -2.7751  -2.6730  -2.3962  -2.2850  -2.2303  -2.1523
    -2.1050  -2.0813  -1.9382  -1.8698  -1.8240  -1.7981  -1.6824  -1.5375
    -1.5241  -1.4951  -1.4749  -1.4038  -1.3561  -1.3167  -1.2356  -1.1453
    -1.1009  -1.0717  -1.0508  -0.9891  -0.9571  -0.7590  -0.7399  -0.5601
    -0.5419  -0.4535  -0.4520  -0.0375   0.4442   0.8270   1.0511   1.3052
     1.4611   1.9764   2.1494   2.3127   2.3562   2.4567   2.5631   2.7735
     2.8248   2.9640   3.1917   3.3654

          k = 0.0411-0.0872 0.0000 ( 40544 PWs)   bands (ev):

   -42.1086 -42.0995 -42.0958 -42.0867 -41.3235 -41.3095 -22.1389 -22.1098
   -22.1024 -22.0872 -22.0770 -22.0720 -21.9957 -21.9689 -21.9574 -21.9407
   -21.9004 -21.8965 -21.3902 -21.2945 -21.2807 -21.2731 -21.2695 -21.2036
    -3.3934  -3.3823  -2.7156  -2.6107  -2.3788  -2.2153  -2.1613  -2.1405
    -2.0593  -1.9767  -1.9754  -1.9072  -1.8324  -1.8085  -1.6354  -1.5693
    -1.5055  -1.4878  -1.4707  -1.4556  -1.4083  -1.3644  -1.2891  -1.2786
    -1.2644  -1.1732  -1.1356  -1.0137  -0.9735  -0.9497  -0.8939  -0.8433
    -0.5732  -0.4855  -0.3490  -0.0810   0.3084   1.1251   1.1448   1.3267
     1.7569   2.1298   2.1999   2.4910   2.5354   2.6067   2.7346   2.8116
     2.8870   3.0286   3.3251   3.4701

          k = 0.0411-0.0727 0.0000 ( 40563 PWs)   bands (ev):

   -42.1054 -42.0990 -42.0964 -42.0900 -41.3202 -41.3129 -22.1340 -22.1140
   -22.0978 -22.0903 -22.0362 -22.0309 -21.9909 -21.9625 -21.9614 -21.9427
   -21.9418 -21.9378 -21.3459 -21.2884 -21.2788 -21.2754 -21.2729 -21.2476
    -3.6778  -3.1393  -2.7158  -2.6014  -2.4501  -2.3037  -2.1944  -2.1498
    -2.0156  -2.0020  -1.9382  -1.9294  -1.8875  -1.7569  -1.7166  -1.6560
    -1.5154  -1.4959  -1.4793  -1.4641  -1.4591  -1.4269  -1.4085  -1.3231
    -1.2759  -1.2670  -1.2382  -1.1764  -1.0900  -0.9750  -0.9470  -0.8540
    -0.5840  -0.4755  -0.1669  -0.1298   0.3695   1.3725   1.3981   1.4792
     1.9555   2.1649   2.4109   2.6268   2.6842   2.7811   2.8857   2.9344
     3.0523   3.1533   3.2733   3.3799

          k = 0.0411-0.0581 0.0000 ( 40634 PWs)   bands (ev):

   -42.1025 -42.1020 -42.0935 -42.0930 -41.3167 -41.3165 -22.1282 -22.1185
   -22.0952 -22.0934 -21.9905 -21.9859 -21.9858 -21.9839 -21.9815 -21.9649
   -21.9554 -21.9456 -21.2977 -21.2944 -21.2844 -21.2813 -21.2763 -21.2703
    -3.9658  -3.0287  -2.7505  -2.6570  -2.5874  -2.3932  -2.3183  -2.2726
    -2.1541  -2.0659  -1.9277  -1.9196  -1.9162  -1.8138  -1.7510  -1.6032
    -1.5651  -1.5522  -1.5283  -1.5118  -1.4827  -1.4148  -1.3761  -1.3623
    -1.3530  -1.2128  -1.1871  -1.1465  -1.1459  -1.0152  -0.9867  -0.7907
    -0.5398  -0.4634  -0.1617  -0.1127   0.6820   1.5198   1.6490   1.8330
     2.0400   2.2502   2.5883   2.7062   2.7374   2.9010   2.9818   3.0848
     3.1522   3.2500   3.2572   3.2713

          k = 0.0411-0.0436 0.0000 ( 40637 PWs)   bands (ev):

   -42.1060 -42.0987 -42.0970 -42.0897 -41.3202 -41.3132 -22.1231 -22.1218
   -22.1005 -22.0893 -22.0298 -22.0249 -21.9756 -21.9683 -21.9498 -21.9485
   -21.9443 -21.9399 -21.3408 -21.2896 -21.2800 -21.2740 -21.2656 -21.2487
    -4.2188  -3.0492  -2.8945  -2.8036  -2.5400  -2.5182  -2.4575  -2.3837
    -2.3162  -2.2711  -2.0226  -1.8991  -1.8584  -1.8510  -1.7469  -1.7222
    -1.5727  -1.5556  -1.5020  -1.4906  -1.4612  -1.4265  -1.4073  -1.3288
    -1.2357  -1.2002  -1.1965  -1.0777  -1.0499  -0.9710  -0.8702  -0.7483
    -0.4642  -0.4627  -0.1675  -0.1117   1.0930   1.6746   1.8054   2.0748
     2.1362   2.3601   2.6574   2.6653   2.7794   2.8730   2.9900   3.1269
     3.1862   3.2119   3.3584   3.3681

          k = 0.0411-0.0291 0.0000 ( 40608 PWs)   bands (ev):

   -42.1092 -42.1002 -42.0956 -42.0866 -41.3236 -41.3099 -22.1275 -22.1155
   -22.1058 -22.0860 -22.0705 -22.0653 -21.9714 -21.9670 -21.9550 -21.9425
   -21.9010 -21.8970 -21.3840 -21.2938 -21.2839 -21.2674 -21.2617 -21.2028
    -4.4112  -3.0930  -3.0857  -2.8495  -2.7260  -2.5120  -2.5023  -2.4634
    -2.4367  -2.4078  -2.1527  -1.8820  -1.8568  -1.8402  -1.8109  -1.7889
    -1.6630  -1.5870  -1.4964  -1.4945  -1.4271  -1.4068  -1.2682  -1.2119
    -1.1910  -1.1833  -1.1441  -1.0345  -0.9180  -0.8407  -0.7277  -0.5960
    -0.4770  -0.3742  -0.1538  -0.1068   1.4812   1.6982   1.8541   2.0940
     2.2987   2.3468   2.4841   2.5998   2.8351   2.9187   3.0350   3.0538
     3.0889   3.1194   3.4039   3.5269

          k = 0.0548-0.0194 0.0000 ( 40597 PWs)   bands (ev):

   -42.1091 -42.1001 -42.0956 -42.0866 -41.3236 -41.3098 -22.1287 -22.1132
   -22.1069 -22.0878 -22.0722 -22.0668 -21.9722 -21.9621 -21.9618 -21.9445
   -21.9007 -21.8967 -21.3854 -21.2909 -21.2864 -21.2677 -21.2640 -21.2029
    -4.2639  -3.1996  -3.0067  -2.7941  -2.6544  -2.4296  -2.4182  -2.3893
    -2.3674  -2.3646  -2.2078  -1.8447  -1.8313  -1.7834  -1.7593  -1.7188
    -1.6547  -1.5588  -1.5464  -1.4666  -1.4252  -1.3299  -1.2785  -1.2155
    -1.1938  -1.1395  -1.1156  -1.0268  -0.9106  -0.8745  -0.7613  -0.6330
    -0.5214  -0.2900  -0.2102  -0.0913   1.2484   1.5131   1.7417   1.8448
     2.1059   2.1634   2.2937   2.4744   2.7292   2.8514   3.0517   3.0997
     3.1035   3.1734   3.2378   3.2986

          k = 0.0548-0.0048 0.0000 ( 40636 PWs)   bands (ev):

   -42.1117 -42.1027 -42.0929 -42.0839 -41.3264 -41.3069 -22.1343 -22.1111
   -22.1107 -22.1052 -22.1022 -22.0843 -21.9777 -21.9692 -21.9539 -21.9413
   -21.8639 -21.8600 -21.4232 -21.2932 -21.2916 -21.2634 -21.2616 -21.1639
    -4.3191  -3.1426  -3.0618  -2.7825  -2.7541  -2.4490  -2.4337  -2.4305
    -2.4107  -2.3643  -2.1736  -1.9097  -1.8709  -1.7577  -1.7263  -1.6964
    -1.6414  -1.5800  -1.5655  -1.4879  -1.4290  -1.2678  -1.2124  -1.1811
    -1.1484  -1.0891  -1.0086  -0.9004  -0.8993  -0.7274  -0.6060  -0.5588
    -0.4125  -0.1925  -0.1420  -0.0836   1.0244   1.6008   1.6357   1.6413
     1.7770   2.1431   2.1930   2.4822   2.5396   2.6524   2.9089   2.9507
     3.0910   3.1313   3.1926   3.4565

          k = 0.0548 0.0097 0.0000 ( 40623 PWs)   bands (ev):

   -42.1137 -42.1047 -42.0908 -42.0818 -41.3286 -41.3046 -22.1396 -22.1374
   -22.1300 -22.1129 -22.1029 -22.0816 -21.9852 -21.9746 -21.9484 -21.9393
   -21.8360 -21.8319 -21.4526 -21.2969 -21.2942 -21.2608 -21.2601 -21.1342
    -4.2964  -3.0514  -3.0512  -2.8650  -2.6697  -2.4822  -2.4233  -2.4173
    -2.3696  -2.3469  -2.0876  -1.9385  -1.8937  -1.7670  -1.6623  -1.6332
    -1.6145  -1.6030  -1.5527  -1.5086  -1.4150  -1.2038  -1.1785  -1.1690
    -1.1228  -1.0612  -1.0066  -0.9287  -0.6613  -0.6076  -0.5984  -0.4296
    -0.2883  -0.1002  -0.0379   0.0962   0.7872   1.2116   1.3221   1.4893
     1.5813   1.9415   2.2305   2.2744   2.4403   2.4723   2.6701   2.9098
     2.9749   3.0557   3.1691   3.6090

          k = 0.0548 0.0242 0.0000 ( 40615 PWs)   bands (ev):

   -42.1149 -42.1059 -42.0895 -42.0805 -41.3299 -41.3031 -22.1557 -22.1480
   -22.1441 -22.1136 -22.1007 -22.0792 -21.9933 -21.9781 -21.9461 -21.9378
   -21.8187 -21.8145 -21.4717 -21.3013 -21.2941 -21.2600 -21.2597 -21.1159
    -4.2000  -2.9981  -2.9533  -2.8966  -2.5550  -2.4825  -2.3737  -2.3676
    -2.3028  -2.3011  -1.9927  -1.9137  -1.8907  -1.7441  -1.6331  -1.6136
    -1.6034  -1.5280  -1.5168  -1.5137  -1.3915  -1.2089  -1.1579  -1.1366
    -1.0851  -1.0448  -1.0231  -0.9349  -0.6650  -0.5959  -0.4153  -0.3501
    -0.1577  -0.1340   0.2267   0.3732   0.5880   0.7133   0.9904   1.2098
     1.4401   1.6349   1.9434   2.2450   2.3349   2.3464   2.4906   2.8101
     2.8600   2.9813   3.1876   3.4938

          k = 0.0548 0.0388 0.0000 ( 40614 PWs)   bands (ev):

   -42.1152 -42.1062 -42.0890 -42.0800 -41.3303 -41.3026 -22.1630 -22.1550
   -22.1472 -22.1129 -22.1002 -22.0775 -22.0002 -21.9801 -21.9469 -21.9362
   -21.8131 -21.8088 -21.4791 -21.3044 -21.2929 -21.2606 -21.2605 -21.1100
    -4.0390  -2.9608  -2.8865  -2.8462  -2.4492  -2.4321  -2.3140  -2.2786
    -2.2281  -2.2187  -1.9383  -1.8601  -1.8389  -1.7025  -1.6541  -1.5934
    -1.5767  -1.4904  -1.4840  -1.4263  -1.3747  -1.2098  -1.1707  -1.1272
    -1.0900  -1.0315  -1.0139  -0.9043  -0.7068  -0.5650  -0.4372  -0.2779
    -0.2718   0.0538   0.2384   0.4075   0.4897   0.5895   0.6737   0.9691
     1.3060   1.3734   1.6852   2.1055   2.2136   2.3471   2.3790   2.6710
     2.7919   2.9624   3.1871   3.3537

          k = 0.0548 0.0533 0.0000 ( 40564 PWs)   bands (ev):

   -42.1147 -42.1057 -42.0895 -42.0805 -41.3298 -41.3030 -22.1585 -22.1505
   -22.1484 -22.1111 -22.1011 -22.0770 -22.0047 -21.9803 -21.9493 -21.9354
   -21.8194 -21.8152 -21.4741 -21.3055 -21.2906 -21.2625 -21.2621 -21.1170
    -3.8262  -2.9410  -2.8863  -2.7460  -2.3880  -2.3225  -2.2519  -2.1796
    -2.1439  -2.1155  -1.9084  -1.8422  -1.7608  -1.7011  -1.6852  -1.5706
    -1.5479  -1.4644  -1.4088  -1.3799  -1.3596  -1.2202  -1.1728  -1.1607
    -1.0920  -1.0058  -1.0040  -0.8840  -0.7114  -0.5824  -0.4687  -0.4424
    -0.4220  -0.2625   0.2010   0.3132   0.3495   0.5705   0.6046   0.9531
     1.1807   1.4872   1.6695   2.0020   2.1412   2.2538   2.4155   2.5942
     2.7668   2.9508   3.1755   3.2258

          k = 0.0548-0.1066 0.0000 ( 40542 PWs)   bands (ev):

   -42.1133 -42.1043 -42.0908 -42.0818 -41.3285 -41.3043 -22.1476 -22.1424
   -22.1345 -22.1084 -22.1031 -22.0780 -22.0061 -21.9784 -21.9524 -21.9356
   -21.8371 -21.8330 -21.4568 -21.3042 -21.2876 -21.2656 -21.2642 -21.1360
    -3.5792  -2.9746  -2.9182  -2.6560  -2.3090  -2.2431  -2.1971  -2.0857
    -2.0790  -1.9920  -1.9069  -1.8480  -1.7628  -1.7458  -1.7219  -1.5373
    -1.4924  -1.4452  -1.4038  -1.3630  -1.3329  -1.2869  -1.1730  -1.1187
    -1.1142  -1.0507  -0.9726  -0.9056  -0.8524  -0.6666  -0.6468  -0.5512
    -0.4977  -0.4588  -0.2015   0.0664   0.1150   0.7381   0.8914   1.0171
     1.1631   1.8028   1.9283   1.9462   2.1612   2.2509   2.4638   2.5865
     2.7915   2.9509   3.1609   3.2291

          k = 0.0548-0.0921 0.0000 ( 40535 PWs)   bands (ev):

   -42.1112 -42.1022 -42.0930 -42.0840 -41.3263 -41.3065 -22.1448 -22.1160
   -22.1080 -22.1056 -22.1051 -22.0803 -22.0041 -21.9745 -21.9555 -21.9368
   -21.8647 -21.8608 -21.4284 -21.3007 -21.2839 -21.2695 -21.2668 -21.1656
    -3.3281  -3.1552  -2.8960  -2.6075  -2.2214  -2.2134  -2.1636  -2.0549
    -1.9818  -1.9483  -1.9143  -1.9045  -1.8224  -1.7535  -1.7212  -1.5436
    -1.4743  -1.4554  -1.4175  -1.3799  -1.3663  -1.2928  -1.2213  -1.2008
    -1.1999  -1.1031  -1.0494  -0.9887  -0.9654  -0.8115  -0.7393  -0.6705
    -0.6193  -0.4919  -0.3920  -0.0476  -0.0395   0.9838   1.0043   1.1703
     1.3985   1.9153   2.1291   2.2749   2.2814   2.4214   2.5234   2.6477
     2.8656   2.9266   3.2405   3.4495

          k = 0.0548-0.0775 0.0000 ( 40560 PWs)   bands (ev):

   -42.1085 -42.0995 -42.0958 -42.0868 -41.3235 -41.3095 -22.1401 -22.1100
   -22.1015 -22.0866 -22.0771 -22.0725 -21.9988 -21.9690 -21.9585 -21.9391
   -21.9005 -21.8966 -21.3906 -21.2952 -21.2797 -21.2741 -21.2697 -21.2037
    -3.4046  -3.1539  -2.8326  -2.6100  -2.2445  -2.2320  -2.1255  -2.0966
    -2.0123  -2.0009  -1.9379  -1.8480  -1.8180  -1.8154  -1.6423  -1.5456
    -1.5374  -1.4658  -1.4534  -1.4452  -1.4217  -1.3945  -1.3557  -1.2819
    -1.2443  -1.1837  -1.1802  -1.0541  -0.9991  -0.9509  -0.9039  -0.8455
    -0.6503  -0.4827  -0.1456  -0.1045  -0.0275   1.1836   1.2489   1.2586
     1.7242   1.9920   2.2969   2.4613   2.5853   2.6187   2.7703   2.7731
     2.8539   3.0088   3.3710   3.4394

          k = 0.0548-0.0630 0.0000 ( 40563 PWs)   bands (ev):

   -42.1054 -42.0990 -42.0964 -42.0900 -41.3202 -41.3129 -22.1340 -22.1140
   -22.0978 -22.0903 -22.0362 -22.0309 -21.9909 -21.9625 -21.9614 -21.9427
   -21.9418 -21.9378 -21.3459 -21.2884 -21.2788 -21.2754 -21.2729 -21.2476
    -3.6778  -3.1393  -2.7158  -2.6014  -2.4501  -2.3037  -2.1944  -2.1498
    -2.0156  -2.0020  -1.9382  -1.9294  -1.8875  -1.7569  -1.7166  -1.6560
    -1.5154  -1.4959  -1.4793  -1.4641  -1.4591  -1.4269  -1.4085  -1.3231
    -1.2759  -1.2670  -1.2382  -1.1764  -1.0900  -0.9750  -0.9470  -0.8540
    -0.5840  -0.4755  -0.1669  -0.1298   0.3695   1.3725   1.3981   1.4792
     1.9555   2.1649   2.4109   2.6268   2.6842   2.7811   2.8857   2.9344
     3.0523   3.1538   3.2734   3.3802

          k = 0.0548-0.0484 0.0000 ( 40600 PWs)   bands (ev):

   -42.1025 -42.1021 -42.0935 -42.0931 -41.3167 -41.3165 -22.1271 -22.1185
   -22.0960 -22.0942 -21.9905 -21.9869 -21.9857 -21.9834 -21.9793 -21.9642
   -21.9555 -21.9476 -21.2979 -21.2952 -21.2834 -21.2804 -21.2763 -21.2712
    -3.9304  -3.1825  -2.7460  -2.6857  -2.4727  -2.3664  -2.3258  -2.2703
    -2.1396  -2.0786  -2.0386  -1.9070  -1.8733  -1.8693  -1.7187  -1.5785
    -1.5469  -1.5412  -1.4992  -1.4817  -1.4742  -1.4314  -1.3681  -1.3651
    -1.3386  -1.2355  -1.1796  -1.1403  -1.1135  -1.0034  -0.9675  -0.8027
    -0.4909  -0.4800  -0.1874  -0.1284   0.8026   1.4677   1.5759   1.6410
     2.1337   2.3911   2.4478   2.5866   2.6866   2.9147   2.9989   3.0786
     3.1095   3.2116   3.2695   3.3824

          k = 0.0548-0.0339 0.0000 ( 40596 PWs)   bands (ev):

   -42.1059 -42.0987 -42.0969 -42.0897 -41.3202 -41.3131 -22.1234 -22.1199
   -22.1019 -22.0908 -22.0308 -22.0259 -21.9711 -21.9683 -21.9552 -21.9494
   -21.9435 -21.9389 -21.3417 -21.2876 -21.2816 -21.2737 -21.2673 -21.2482
    -4.1316  -3.2112  -2.8794  -2.7874  -2.4897  -2.4103  -2.3991  -2.3544
    -2.2893  -2.2563  -2.1585  -1.8524  -1.8403  -1.7900  -1.7139  -1.6873
    -1.6374  -1.5411  -1.5033  -1.4862  -1.4039  -1.3902  -1.3898  -1.3385
    -1.2315  -1.2208  -1.1283  -1.0744  -1.0514  -0.9448  -0.8864  -0.7739
    -0.4957  -0.3885  -0.2045  -0.1109   1.2077   1.4145   1.7313   1.7563
     2.3142   2.3350   2.3753   2.4552   2.7738   2.9623   3.0472   3.1041
     3.1352   3.1456   3.3246   3.3960

          k = 0.0685-0.0242 0.0000 ( 40585 PWs)   bands (ev):

   -42.1058 -42.0988 -42.0968 -42.0898 -41.3202 -41.3131 -22.1250 -22.1170
   -22.1027 -22.0927 -22.0324 -22.0275 -21.9700 -21.9642 -21.9618 -21.9509
   -21.9426 -21.9382 -21.3431 -21.2844 -21.2837 -21.2732 -21.2703 -21.2476
    -3.9616  -3.3873  -2.8432  -2.7511  -2.4208  -2.3337  -2.3307  -2.2649
    -2.2624  -2.2155  -2.1941  -1.8358  -1.8192  -1.7730  -1.7526  -1.6702
    -1.6343  -1.5544  -1.5217  -1.4416  -1.3790  -1.3539  -1.3249  -1.2919
    -1.2581  -1.1698  -1.0954  -1.0755  -1.0231  -0.9582  -0.9149  -0.8262
    -0.5111  -0.3465  -0.2436  -0.0816   1.0823   1.3846   1.4174   1.6550
     2.1074   2.1746   2.2653   2.4466   2.7887   2.8991   3.0408   3.0537
     3.1204   3.1726   3.1730   3.2293

          k = 0.0685-0.0097 0.0000 ( 40607 PWs)   bands (ev):

   -42.1089 -42.0999 -42.0957 -42.0867 -41.3235 -41.3097 -22.1317 -22.1108
   -22.1066 -22.0890 -22.0742 -22.0688 -21.9777 -21.9674 -21.9560 -21.9467
   -21.9005 -21.8966 -21.3872 -21.2895 -21.2870 -21.2683 -21.2673 -21.2030
    -4.0281  -3.2929  -2.8931  -2.6955  -2.5579  -2.3468  -2.3380  -2.3130
    -2.2844  -2.2752  -2.1292  -1.8550  -1.8098  -1.7783  -1.7113  -1.6799
    -1.6047  -1.5570  -1.5244  -1.4198  -1.4068  -1.3092  -1.2536  -1.2122
    -1.2074  -1.0967  -1.0429  -1.0363  -0.9494  -0.9294  -0.8020  -0.6984
    -0.5371  -0.3551  -0.1660  -0.1119   0.9182   1.3724   1.3873   1.5611
     1.9551   2.0411   2.2195   2.5483   2.6288   2.7058   2.8728   2.9674
     3.0596   3.1064   3.1579   3.3833

          k = 0.0685 0.0048 0.0000 ( 40591 PWs)   bands (ev):

   -42.1115 -42.1025 -42.0929 -42.0839 -41.3264 -41.3067 -22.1383 -22.1128
   -22.1093 -22.1051 -22.1044 -22.0841 -21.9873 -21.9726 -21.9509 -21.9426
   -21.8642 -21.8603 -21.4254 -21.2956 -21.2891 -21.2649 -21.2648 -21.1646
    -4.0236  -3.1588  -2.8904  -2.6972  -2.5942  -2.3719  -2.3314  -2.2872
    -2.2625  -2.2554  -2.0430  -1.8707  -1.8456  -1.7854  -1.6598  -1.6208
    -1.6129  -1.5560  -1.4750  -1.4491  -1.4058  -1.2626  -1.2235  -1.1370
    -1.0970  -1.0446  -1.0219  -0.9784  -0.9567  -0.7364  -0.6789  -0.5800
    -0.4781  -0.3075  -0.1827  -0.0919   0.7497   1.0480   1.2690   1.4853
     1.5844   1.9462   2.3256   2.3747   2.4200   2.5060   2.7295   2.8291
     2.9342   3.0293   3.1565   3.5079

          k = 0.0685 0.0194 0.0000 ( 40582 PWs)   bands (ev):

   -42.1135 -42.1045 -42.0908 -42.0818 -41.3285 -41.3044 -22.1441 -22.1403
   -22.1326 -22.1107 -22.1025 -22.0802 -21.9968 -21.9770 -21.9491 -21.9385
   -21.8366 -21.8325 -21.4551 -21.3012 -21.2903 -21.2633 -21.2628 -21.1352
    -3.9530  -3.0108  -2.8775  -2.7824  -2.4622  -2.3924  -2.2944  -2.2369
    -2.2109  -2.1944  -1.9566  -1.8644  -1.8367  -1.7598  -1.6700  -1.5803
    -1.5528  -1.4985  -1.4805  -1.4393  -1.3891  -1.2316  -1.1850  -1.1355
    -1.0905  -1.0281  -1.0280  -0.9354  -0.7051  -0.6566  -0.6363  -0.4734
    -0.3851  -0.2975  -0.0753   0.0500   0.6022   0.7146   1.0204   1.1829
     1.3585   1.7628   2.0608   2.1977   2.3030   2.3949   2.4686   2.7539
     2.8264   2.9626   3.1580   3.3637

          k = 0.0685 0.0339 0.0000 ( 40564 PWs)   bands (ev):

   -42.1147 -42.1057 -42.0895 -42.0805 -41.3298 -41.3030 -22.1585 -22.1505
   -22.1484 -22.1111 -22.1011 -22.0770 -22.0047 -21.9803 -21.9493 -21.9354
   -21.8194 -21.8152 -21.4741 -21.3055 -21.2906 -21.2625 -21.2621 -21.1170
    -3.8262  -2.9410  -2.8863  -2.7460  -2.3880  -2.3225  -2.2519  -2.1796
    -2.1439  -2.1155  -1.9084  -1.8422  -1.7608  -1.7011  -1.6852  -1.5706
    -1.5479  -1.4644  -1.4088  -1.3799  -1.3596  -1.2202  -1.1728  -1.1607
    -1.0920  -1.0058  -1.0040  -0.8840  -0.7114  -0.5824  -0.4687  -0.4424
    -0.4220  -0.2625   0.2010   0.3132   0.3495   0.5705   0.6046   0.9531
     1.1807   1.4872   1.6695   2.0020   2.1412   2.2538   2.4155   2.5942
     2.7668   2.9509   3.1755   3.2259

          k = 0.0685 0.0485 0.0000 ( 40538 PWs)   bands (ev):

   -42.1150 -42.1060 -42.0890 -42.0800 -41.3303 -41.3024 -22.1653 -22.1571
   -22.1508 -22.1105 -22.1009 -22.0752 -22.0099 -21.9819 -21.9505 -21.9337
   -21.8137 -21.8094 -21.4810 -21.3078 -21.2901 -21.2628 -21.2623 -21.1110
    -3.6573  -3.0121  -2.8232  -2.6801  -2.3604  -2.2152  -2.1998  -2.1369
    -2.0645  -2.0246  -1.8834  -1.8433  -1.7336  -1.6426  -1.6246  -1.6238
    -1.5385  -1.4198  -1.3544  -1.3377  -1.2968  -1.2336  -1.1854  -1.1434
    -1.0887  -0.9803  -0.9736  -0.8410  -0.7746  -0.5847  -0.5517  -0.4892
    -0.2632  -0.2458   0.0711   0.2171   0.3906   0.5831   0.6631   0.7649
     0.9999   1.3323   1.3576   1.8518   2.0413   2.1168   2.4233   2.4982
     2.7364   2.9289   3.0973   3.2154

          k = 0.0685-0.1114 0.0000 ( 40545 PWs)   bands (ev):

   -42.1145 -42.1055 -42.0895 -42.0804 -41.3298 -41.3029 -22.1601 -22.1519
   -22.1510 -22.1092 -22.1017 -22.0752 -22.0117 -21.9815 -21.9521 -21.9333
   -21.8199 -21.8156 -21.4754 -21.3078 -21.2887 -21.2641 -21.2633 -21.1176
    -3.4690  -3.0659  -2.8452  -2.6249  -2.3183  -2.1852  -2.1200  -2.0981
    -1.9976  -1.9268  -1.8931  -1.8544  -1.7669  -1.7079  -1.6304  -1.5795
    -1.4880  -1.3979  -1.3417  -1.3063  -1.2908  -1.2530  -1.1687  -1.1094
    -1.0672  -1.0092  -0.9453  -0.8650  -0.7808  -0.6511  -0.5860  -0.5726
    -0.5052  -0.2807  -0.1244   0.1263   0.2939   0.6012   0.6815   0.8086
     1.0031   1.4745   1.5345   1.7691   2.0290   2.0609   2.4444   2.4746
     2.7448   2.9272   3.0658   3.2267

          k = 0.0685-0.0969 0.0000 ( 40496 PWs)   bands (ev):

   -42.1132 -42.1042 -42.0908 -42.0818 -41.3284 -41.3043 -22.1489 -22.1431
   -22.1351 -22.1074 -22.1034 -22.0769 -22.0096 -21.9789 -21.9538 -21.9343
   -21.8373 -21.8332 -21.4575 -21.3054 -21.2866 -21.2664 -21.2648 -21.1363
    -3.3273  -3.0549  -2.9601  -2.5978  -2.2716  -2.1631  -2.1203  -2.0456
    -1.9650  -1.9469  -1.8853  -1.8306  -1.8097  -1.7285  -1.7262  -1.5696
    -1.4544  -1.3849  -1.3811  -1.3656  -1.2918  -1.2611  -1.1569  -1.1351
    -1.1078  -1.0030  -0.9709  -0.9611  -0.9160  -0.7421  -0.6407  -0.5318
    -0.5038  -0.4890  -0.2561  -0.1893   0.0600   0.8286   0.8716   0.9570
     1.0851   1.7870   1.8660   1.9560   2.0847   2.1111   2.4846   2.5237
     2.7891   2.9448   3.1348   3.2630

          k = 0.0685-0.0824 0.0000 ( 40535 PWs)   bands (ev):

   -42.1112 -42.1022 -42.0930 -42.0840 -41.3263 -41.3065 -22.1448 -22.1160
   -22.1080 -22.1056 -22.1051 -22.0803 -22.0041 -21.9745 -21.9555 -21.9368
   -21.8647 -21.8608 -21.4284 -21.3007 -21.2839 -21.2695 -21.2668 -21.1656
    -3.3281  -3.1552  -2.8960  -2.6075  -2.2214  -2.2134  -2.1636  -2.0549
    -1.9818  -1.9483  -1.9143  -1.9045  -1.8224  -1.7535  -1.7212  -1.5436
    -1.4743  -1.4554  -1.4175  -1.3799  -1.3663  -1.2928  -1.2213  -1.2008
    -1.1999  -1.1031  -1.0494  -0.9887  -0.9654  -0.8115  -0.7393  -0.6705
    -0.6193  -0.4919  -0.3920  -0.0476  -0.0395   0.9838   1.0043   1.1703
     1.3985   1.9153   2.1291   2.2749   2.2814   2.4214   2.5234   2.6477
     2.8655   2.9267   3.2404   3.4496

          k = 0.0685-0.0678 0.0000 ( 40544 PWs)   bands (ev):

   -42.1086 -42.0995 -42.0958 -42.0867 -41.3235 -41.3095 -22.1389 -22.1098
   -22.1024 -22.0872 -22.0770 -22.0720 -21.9957 -21.9689 -21.9574 -21.9407
   -21.9004 -21.8965 -21.3902 -21.2945 -21.2807 -21.2731 -21.2695 -21.2036
    -3.3934  -3.3823  -2.7156  -2.6108  -2.3788  -2.2153  -2.1613  -2.1405
    -2.0593  -1.9767  -1.9754  -1.9072  -1.8324  -1.8085  -1.6354  -1.5693
    -1.5055  -1.4878  -1.4707  -1.4556  -1.4083  -1.3644  -1.2891  -1.2786
    -1.2644  -1.1732  -1.1356  -1.0137  -0.9735  -0.9496  -0.8939  -0.8433
    -0.5732  -0.4855  -0.3490  -0.0810   0.3084   1.1251   1.1448   1.3267
     1.7569   2.1298   2.2000   2.4910   2.5354   2.6067   2.7346   2.8116
     2.8870   3.0286   3.3250   3.4701

          k = 0.0685-0.0533 0.0000 ( 40568 PWs)   bands (ev):

   -42.1055 -42.0990 -42.0965 -42.0900 -41.3202 -41.3129 -22.1318 -22.1139
   -22.0995 -22.0918 -22.0355 -22.0302 -21.9858 -21.9631 -21.9598 -21.9462
   -21.9418 -21.9377 -21.3454 -21.2876 -21.2772 -21.2770 -21.2729 -21.2474
    -3.6287  -3.4250  -2.7274  -2.5689  -2.4404  -2.2790  -2.2345  -2.1816
    -2.1021  -2.0589  -2.0114  -1.9229  -1.9041  -1.7238  -1.7144  -1.6727
    -1.5764  -1.4708  -1.4646  -1.4414  -1.4217  -1.4129  -1.3367  -1.2996
    -1.2930  -1.2319  -1.1925  -1.1191  -1.0444  -0.9718  -0.9268  -0.8750
    -0.4879  -0.4592  -0.3337  -0.0844   0.7098   1.2235   1.2447   1.5094
     2.0374   2.2134   2.3816   2.4843   2.6860   2.7494   2.8394   2.9275
     3.0743   3.1358   3.3552   3.3729

          k = 0.0685-0.0388 0.0000 ( 40580 PWs)   bands (ev):

   -42.1024 -42.1021 -42.0934 -42.0931 -41.3167 -41.3166 -22.1243 -22.1190
   -22.0976 -22.0962 -21.9901 -21.9882 -21.9854 -21.9841 -21.9728 -21.9629
   -21.9558 -21.9526 -21.2981 -21.2967 -21.2807 -21.2786 -21.2764 -21.2737
    -3.8253  -3.4309  -2.7579  -2.7327  -2.3271  -2.3209  -2.3084  -2.2621
    -2.1873  -2.1207  -2.0761  -1.9347  -1.8730  -1.7966  -1.7502  -1.6718
    -1.5623  -1.5289  -1.4842  -1.4601  -1.3820  -1.3590  -1.3482  -1.3381
    -1.2814  -1.2662  -1.1437  -1.1268  -1.0798  -0.9671  -0.9606  -0.8417
    -0.4965  -0.3521  -0.3264  -0.0784   1.0996   1.1984   1.3364   1.6745
     2.1353   2.2635   2.3366   2.4980   2.6882   2.9529   2.9650   3.0619
     3.0991   3.1451   3.3215   3.3302

          k =-0.0822 0.0291 0.0000 ( 40588 PWs)   bands (ev):

   -42.1023 -42.1023 -42.0933 -42.0933 -41.3166 -41.3166 -22.1210 -22.1210
   -22.0978 -22.0978 -21.9893 -21.9893 -21.9849 -21.9849 -21.9655 -21.9655
   -21.9561 -21.9560 -21.2978 -21.2978 -21.2773 -21.2773 -21.2770 -21.2770
    -3.6550  -3.6550  -2.7588  -2.7588  -2.2945  -2.2945  -2.2830  -2.2830
    -2.1710  -2.1709  -2.0127  -2.0127  -1.8099  -1.8099  -1.7429  -1.7429
    -1.5525  -1.5524  -1.4632  -1.4632  -1.3700  -1.3700  -1.3113  -1.3113
    -1.2457  -1.2456  -1.1156  -1.1156  -1.0249  -1.0249  -0.9008  -0.9008
    -0.4558  -0.4558  -0.1504  -0.1504   1.1316   1.1316   1.4806   1.4806
     2.1096   2.1096   2.3869   2.3869   2.8538   2.8538   3.0097   3.0097
     3.1338   3.1338   3.2165   3.2165

          k =-0.0822 0.0436 0.0000 ( 40590 PWs)   bands (ev):

   -42.1056 -42.0989 -42.0966 -42.0899 -41.3202 -41.3130 -22.1283 -22.1146
   -22.1017 -22.0932 -22.0341 -22.0290 -21.9774 -21.9636 -21.9591 -21.9507
   -21.9420 -21.9378 -21.3444 -21.2861 -21.2804 -21.2739 -21.2730 -21.2473
    -3.7189  -3.5308  -2.7871  -2.6784  -2.3409  -2.2990  -2.2615  -2.2598
    -2.2430  -2.1395  -2.0802  -1.8882  -1.8377  -1.7684  -1.7165  -1.6847
    -1.6208  -1.5273  -1.4936  -1.4262  -1.3757  -1.3715  -1.3128  -1.3064
    -1.2264  -1.1769  -1.0985  -1.0675  -1.0139  -1.0006  -0.9134  -0.8830
    -0.4659  -0.4566  -0.2278  -0.1040   1.0329   1.1817   1.1844   1.5967
     2.0233   2.1443   2.2602   2.5656   2.6963   2.7933   2.8411   2.9862
     3.1015   3.1148   3.2323   3.3502

          k =-0.0822 0.0581 0.0000 ( 40569 PWs)   bands (ev):

   -42.1087 -42.0997 -42.0957 -42.0867 -41.3235 -41.3096 -22.1357 -22.1097
   -22.1047 -22.0885 -22.0760 -22.0707 -21.9877 -21.9685 -21.9551 -21.9446
   -21.9004 -21.8965 -21.3890 -21.2925 -21.2833 -21.2707 -21.2689 -21.2033
    -3.7218  -3.3575  -2.7734  -2.5512  -2.5282  -2.2726  -2.2522  -2.2136
    -2.1761  -2.1577  -1.9984  -1.8855  -1.8296  -1.7964  -1.6568  -1.6174
    -1.5802  -1.5186  -1.4919  -1.4187  -1.3685  -1.3405  -1.2854  -1.2638
    -1.1830  -1.0821  -1.0679  -1.0096  -0.9915  -0.9494  -0.8293  -0.8026
    -0.4968  -0.4602  -0.3349  -0.0750   0.8059   0.9386   1.1559   1.4842
     1.8361   2.0306   2.3727   2.4162   2.5932   2.6001   2.7413   2.8150
     2.9869   3.0582   3.2237   3.4781

          k =-0.0822 0.0727 0.0000 ( 40547 PWs)   bands (ev):

   -42.1113 -42.1023 -42.0930 -42.0839 -41.3263 -41.3066 -22.1423 -22.1148
   -22.1069 -22.1068 -22.1050 -22.0821 -21.9977 -21.9739 -21.9532 -21.9394
   -21.8645 -21.8606 -21.4273 -21.2989 -21.2857 -21.2678 -21.2660 -21.1652
    -3.6708  -3.1594  -2.7751  -2.6730  -2.3962  -2.2850  -2.2303  -2.1523
    -2.1050  -2.0813  -1.9382  -1.8698  -1.8240  -1.7981  -1.6824  -1.5375
    -1.5241  -1.4951  -1.4749  -1.4038  -1.3561  -1.3167  -1.2356  -1.1453
    -1.1009  -1.0717  -1.0508  -0.9891  -0.9571  -0.7590  -0.7399  -0.5601
    -0.5419  -0.4535  -0.4520  -0.0375   0.4442   0.8270   1.0511   1.3052
     1.4611   1.9764   2.1494   2.3127   2.3562   2.4567   2.5631   2.7735
     2.8248   2.9640   3.1916   3.3654

          k =-0.0822 0.0872 0.0000 ( 40542 PWs)   bands (ev):

   -42.1133 -42.1043 -42.0908 -42.0818 -41.3285 -41.3043 -22.1476 -22.1424
   -22.1345 -22.1084 -22.1031 -22.0780 -22.0061 -21.9784 -21.9524 -21.9356
   -21.8371 -21.8330 -21.4568 -21.3042 -21.2876 -21.2656 -21.2642 -21.1360
    -3.5792  -2.9746  -2.9182  -2.6560  -2.3090  -2.2431  -2.1971  -2.0857
    -2.0790  -1.9920  -1.9069  -1.8480  -1.7628  -1.7458  -1.7219  -1.5373
    -1.4924  -1.4452  -1.4038  -1.3630  -1.3329  -1.2869  -1.1730  -1.1187
    -1.1142  -1.0507  -0.9726  -0.9056  -0.8524  -0.6666  -0.6468  -0.5512
    -0.4977  -0.4588  -0.2015   0.0664   0.1150   0.7381   0.8914   1.0171
     1.1631   1.8028   1.9283   1.9462   2.1612   2.2509   2.4638   2.5865
     2.7915   2.9508   3.1608   3.2293

          k =-0.0822 0.1017 0.0000 ( 40545 PWs)   bands (ev):

   -42.1145 -42.1055 -42.0895 -42.0804 -41.3298 -41.3029 -22.1601 -22.1519
   -22.1510 -22.1092 -22.1017 -22.0752 -22.0117 -21.9815 -21.9521 -21.9333
   -21.8199 -21.8156 -21.4754 -21.3078 -21.2887 -21.2641 -21.2633 -21.1176
    -3.4690  -3.0659  -2.8452  -2.6249  -2.3183  -2.1852  -2.1200  -2.0981
    -1.9976  -1.9268  -1.8931  -1.8544  -1.7669  -1.7079  -1.6304  -1.5795
    -1.4880  -1.3979  -1.3417  -1.3063  -1.2908  -1.2530  -1.1687  -1.1094
    -1.0672  -1.0092  -0.9453  -0.8650  -0.7808  -0.6511  -0.5860  -0.5726
    -0.5052  -0.2807  -0.1244   0.1263   0.2939   0.6012   0.6815   0.8086
     1.0031   1.4745   1.5345   1.7691   2.0290   2.0609   2.4444   2.4746
     2.7448   2.9272   3.0658   3.2268

          k =-0.0822-0.0581 0.0000 ( 40530 PWs)   bands (ev):

   -42.1150 -42.1060 -42.0890 -42.0800 -41.3302 -41.3024 -22.1662 -22.1578
   -22.1521 -22.1095 -22.1012 -22.0742 -22.0136 -21.9825 -21.9521 -21.9326
   -21.8140 -21.8097 -21.4818 -21.3091 -21.2891 -21.2636 -21.2630 -21.1114
    -3.4016  -3.1446  -2.7994  -2.6136  -2.3197  -2.1820  -2.1060  -2.0685
    -1.9509  -1.8968  -1.8929  -1.8689  -1.7889  -1.7129  -1.5788  -1.5378
    -1.5228  -1.3835  -1.3352  -1.2655  -1.2620  -1.2493  -1.1921  -1.0812
    -1.0081  -0.9800  -0.9294  -0.8904  -0.8098  -0.7137  -0.5477  -0.5134
    -0.4031  -0.2379  -0.2117   0.2067   0.3651   0.6629   0.6885   0.7620
     0.8874   1.1593   1.3684   1.7087   1.9821   2.0090   2.4324   2.4371
     2.7315   2.9034   3.0106   3.2646

     the Fermi energy is     1.5162 ev

!    total energy              =    -902.59371373 Ry
     estimated scf accuracy    <       0.00000681 Ry
     smearing contrib. (-TS)   =      -0.03436934 Ry
     internal energy E=F+TS    =    -902.55934439 Ry

     The total energy is F=E-TS. E is the sum of the following terms:
     one-electron contribution =   -6499.94488959 Ry
     hartree contribution      =    3285.94557230 Ry
     xc contribution           =    -259.70366898 Ry
     ewald contribution        =    2571.14362352 Ry
     electric field correction =       0.00001837 Ry

     convergence has been achieved in  19 iterations

     negative rho (up, down):  5.289E-04 0.000E+00

     Forces acting on atoms (cartesian axes, Ry/au):

     atom    1 type  1   force =     0.00001059    0.00000553   -0.00673325
     atom    2 type  1   force =     0.00001158    0.00000905   -0.00673421
     atom    3 type  2   force =     0.00000381    0.00000268    0.02938272
     atom    4 type  2   force =     0.00000117    0.00000573    0.02936573
     atom    5 type  1   force =    -0.00000591   -0.00000844   -0.02210076
     atom    6 type  1   force =    -0.00000836   -0.00000534   -0.02210239
     atom    7 type  2   force =    -0.00000071    0.00000461   -0.00001748
     atom    8 type  2   force =    -0.00000562   -0.00000540   -0.00001015
     atom    9 type  1   force =     0.00000368   -0.00000658   -0.00044061
     atom   10 type  1   force =    -0.00000439    0.00000501   -0.00043949
     atom   11 type  2   force =    -0.00001035    0.00000053   -0.00008501
     atom   12 type  2   force =     0.00000451   -0.00000738   -0.00008509

     Total force =     0.052856     Total SCF correction =     0.013910
     SCF correction compared to forces is large: reduce conv_thr to get better values

     Writing output data file ./Y2Pt2/Y2Pt2_beef.save/

     init_run     :    107.49s CPU    108.01s WALL (       1 calls)
     electrons    :   3297.82s CPU   3312.90s WALL (       1 calls)
     forces       :     51.64s CPU     51.87s WALL (       1 calls)

     Called by init_run:
     wfcinit      :     95.19s CPU     95.50s WALL (       1 calls)
     potinit      :      8.10s CPU      8.18s WALL (       1 calls)
     hinit0       :      2.51s CPU      2.52s WALL (       1 calls)

     Called by electrons:
     c_bands      :   2917.59s CPU   2925.63s WALL (      19 calls)
     sum_band     :    337.83s CPU    341.43s WALL (      19 calls)
     v_of_rho     :     27.98s CPU     29.24s WALL (      20 calls)
     newd         :     19.49s CPU     21.64s WALL (      20 calls)
     mix_rho      :      0.81s CPU      0.82s WALL (      19 calls)
     vdW_kernel   :      5.69s CPU      5.70s WALL (       1 calls)

     Called by c_bands:
     init_us_2    :     13.77s CPU     13.82s WALL (    2960 calls)
     cegterg      :   2884.12s CPU   2890.88s WALL (    1406 calls)

     Called by *egterg:
     cdiaghg      :    125.41s CPU    125.46s WALL (    8696 calls)
     h_psi        :   1580.10s CPU   1586.23s WALL (    8770 calls)
     s_psi        :    506.48s CPU    506.56s WALL (    8770 calls)
     g_psi        :      1.57s CPU      1.59s WALL (    7290 calls)

     Called by h_psi:
     h_psi:calbec :    514.95s CPU    515.70s WALL (    8770 calls)
     vloc_psi     :    541.40s CPU    546.67s WALL (    8770 calls)
     add_vuspsi   :    518.66s CPU    518.73s WALL (    8770 calls)

     General routines
     calbec       :    752.81s CPU    753.98s WALL (   10472 calls)
     fft          :     16.02s CPU     16.50s WALL (    1319 calls)
     ffts         :      0.07s CPU      0.08s WALL (      39 calls)
     fftw         :    613.41s CPU    619.64s WALL (  666392 calls)
     interpolate  :      0.27s CPU      0.28s WALL (      20 calls)

     Parallel routines
     fft_scatt_xy :     45.59s CPU     45.94s WALL (  667750 calls)
     fft_scatt_yz :     97.22s CPU     98.38s WALL (  667750 calls)

     PWSCF        :  58m 2.60s CPU  58m34.87s WALL


   This run was terminated on:  20:28: 6  25Jun2022            

=------------------------------------------------------------------------------=
   JOB DONE.
=------------------------------------------------------------------------------=
