
     Program PWSCF v.6.6 starts on 10Jul2022 at  3:22:47 

     This program is part of the open-source Quantum ESPRESSO suite
     for quantum simulation of materials; please cite
         "P. Giannozzi et al., J. Phys.:Condens. Matter 21 395502 (2009);
         "P. Giannozzi et al., J. Phys.:Condens. Matter 29 465901 (2017);
          URL http://www.quantum-espresso.org", 
     in publications or presentations arising from this work. More details at
     http://www.quantum-espresso.org/quote

     Parallel version (MPI), running on    37 processors

     MPI processes distributed on     1 nodes
     R & G space division:  proc/nbgrp/npool/nimage =      37
     Fft bands division:     nmany     =       1
     Reading input from Zn2Ag2.in
Warning: card &CELL ignored
Warning: card / ignored

     Current dimensions of program PWSCF are:
     Max number of different atomic species (ntypx) = 10
     Max number of k-points (npk) =  40000
     Max angular momentum in pseudopotentials (lmaxx) =  3
     Presently stress not available with electric field and gates

     Message from routine cell_base_init:
     DEPRECATED: use true lattice parameter, not A to a.u. conversion factor
     file Zn.pbe-dnl-rrkjus_psl.1.0.0.UPF: wavefunction(s)  3D renormalized

     **************************************************************************
     Initializing libbeef V0.1.2 with the BEEF-vdW functional.
     Citation: Wellendorff et al., PRB 85, 235149 (2012).
     **************************************************************************


     IMPORTANT: XC functional enforced from input :
     Exchange-correlation= BEEF-VDW
                           (   1   4  43  14   2   0   0)
     Any further DFT definition will be discarded
     Please, verify this is what you really want


     Subspace diagonalization in iterative solution of the eigenvalue problem:
     a serial algorithm will be used

     Found symmetry operation: I + ( -0.5000  0.5000  0.0000)
     This is a supercell, fractional translations are disabled

     Parallelization info
     --------------------
     sticks:   dense  smooth     PW     G-vecs:    dense   smooth      PW
     Min         123      49     13                28524     7200    1075
     Max         125      50     14                28536     7219    1094
     Sum        4569    1817    515              1055535   266787   40247



     bravais-lattice index     =            0
     lattice parameter (alat)  =       1.8897  a.u.
     unit-cell volume          =    4829.1857 (a.u.)^3
     number of atoms/cell      =           12
     number of atomic types    =            2
     number of electrons       =       138.00
     number of Kohn-Sham states=           83
     kinetic-energy cutoff     =      55.1240  Ry
     charge density cutoff     =     551.2396  Ry
     convergence threshold     =      1.0E-05
     mixing beta               =       0.1000
     number of iterations used =           10  plain     mixing
     Exchange-correlation= BEEF-VDW
                           (   1   4  43  14   2   0   0)

     celldm(1)=   1.889726  celldm(2)=   0.000000  celldm(3)=   0.000000
     celldm(4)=   0.000000  celldm(5)=   0.000000  celldm(6)=   0.000000

     crystal axes: (cart. coord. in units of alat)
               a(1) = (   5.583832   0.000000   0.000000 )  
               a(2) = (   2.007434   5.210508   0.000000 )  
               a(3) = (   0.000000   0.000000  24.596028 )  

     reciprocal axes: (cart. coord. in units 2 pi/alat)
               b(1) = (  0.179088 -0.068997  0.000000 )  
               b(2) = (  0.000000  0.191920  0.000000 )  
               b(3) = (  0.000000  0.000000  0.040657 )  


     PseudoPot. # 1 for Zn read from file:
     ../pseudo/Zn.pbe-dnl-rrkjus_psl.1.0.0.UPF
     MD5 check sum: 7f56cabf9682ed8c977c2f7d0c5985c5
     Pseudo is Ultrasoft + core correction, Zval = 12.0
     Generated using "atomic" code by A. Dal Corso v.6.2.2
     Using radial grid of 1201 points,  6 beta functions with: 
                l(1) =   0
                l(2) =   0
                l(3) =   1
                l(4) =   1
                l(5) =   2
                l(6) =   2
     Q(r) pseudized with 0 coefficients 


     PseudoPot. # 2 for Ag read from file:
     ../pseudo/Ag.pbe-n-rrkjus_psl.1.0.0.UPF
     MD5 check sum: d841cbfac2b0861aec33b46768a516bf
     Pseudo is Ultrasoft + core correction, Zval = 11.0
     Generated using "atomic" code by A. Dal Corso v.6.2.2
     Using radial grid of 1237 points,  6 beta functions with: 
                l(1) =   0
                l(2) =   0
                l(3) =   1
                l(4) =   1
                l(5) =   2
                l(6) =   2
     Q(r) pseudized with 0 coefficients 


     atomic species   valence    mass     pseudopotential
        Zn            12.00    65.38000     Zn( 1.00)
        Ag            11.00   107.86820     Ag( 1.00)

     No symmetry found



   Cartesian axes

     site n.     atom                  positions (alat units)
         1           Zn  tau(   1) = (   0.0000000   0.0000000  10.0000000  )
         2           Zn  tau(   2) = (   3.7956330   2.6052538  10.0000000  )
         3           Ag  tau(   3) = (   2.7919161   0.0000000  10.0000000  )
         4           Ag  tau(   4) = (   1.0037169   2.6052538  10.0000000  )
         5           Zn  tau(   5) = (   5.5838321   3.8326414  12.2980138  )
         6           Zn  tau(   6) = (   1.7881991   1.2273875  12.2980138  )
         7           Ag  tau(   7) = (   2.7919161   3.8326414  12.2980138  )
         8           Ag  tau(   8) = (   4.5801152   1.2273875  12.2980138  )
         9           Zn  tau(   9) = (   3.5760007   2.4544903  14.7845929  )
        10           Zn  tau(  10) = (   7.3716474   5.0597748  14.7845915  )
        11           Ag  tau(  11) = (   6.3736427   2.4584310  14.6901113  )
        12           Ag  tau(  12) = (   4.5854402   5.0636847  14.6901103  )

     number of k points=    74  Fermi-Dirac smearing, width (Ry)=  0.0100
                       cart. coord. in units 2pi/alat
        k(    1) = (   0.0000000   0.0000000   0.0000000), wk =   0.0138889
        k(    2) = (   0.0000000   0.0159933   0.0000000), wk =   0.0277778
        k(    3) = (   0.0000000   0.0319866   0.0000000), wk =   0.0277778
        k(    4) = (   0.0000000   0.0479800   0.0000000), wk =   0.0277778
        k(    5) = (   0.0000000   0.0639733   0.0000000), wk =   0.0277778
        k(    6) = (   0.0000000   0.0799666   0.0000000), wk =   0.0277778
        k(    7) = (   0.0000000  -0.0959599   0.0000000), wk =   0.0138889
        k(    8) = (   0.0149240  -0.0057497   0.0000000), wk =   0.0277778
        k(    9) = (   0.0149240   0.0102436   0.0000000), wk =   0.0277778
        k(   10) = (   0.0149240   0.0262369   0.0000000), wk =   0.0277778
        k(   11) = (   0.0149240   0.0422302   0.0000000), wk =   0.0277778
        k(   12) = (   0.0149240   0.0582236   0.0000000), wk =   0.0277778
        k(   13) = (   0.0149240   0.0742169   0.0000000), wk =   0.0277778
        k(   14) = (   0.0149240  -0.1017097   0.0000000), wk =   0.0277778
        k(   15) = (   0.0149240  -0.0857163   0.0000000), wk =   0.0277778
        k(   16) = (   0.0149240  -0.0697230   0.0000000), wk =   0.0277778
        k(   17) = (   0.0149240  -0.0537297   0.0000000), wk =   0.0277778
        k(   18) = (   0.0149240  -0.0377364   0.0000000), wk =   0.0277778
        k(   19) = (   0.0149240  -0.0217431   0.0000000), wk =   0.0277778
        k(   20) = (   0.0298481  -0.0114995   0.0000000), wk =   0.0277778
        k(   21) = (   0.0298481   0.0044939   0.0000000), wk =   0.0277778
        k(   22) = (   0.0298481   0.0204872   0.0000000), wk =   0.0277778
        k(   23) = (   0.0298481   0.0364805   0.0000000), wk =   0.0277778
        k(   24) = (   0.0298481   0.0524738   0.0000000), wk =   0.0277778
        k(   25) = (   0.0298481   0.0684671   0.0000000), wk =   0.0277778
        k(   26) = (   0.0298481  -0.1074594   0.0000000), wk =   0.0277778
        k(   27) = (   0.0298481  -0.0914661   0.0000000), wk =   0.0277778
        k(   28) = (   0.0298481  -0.0754728   0.0000000), wk =   0.0277778
        k(   29) = (   0.0298481  -0.0594794   0.0000000), wk =   0.0277778
        k(   30) = (   0.0298481  -0.0434861   0.0000000), wk =   0.0277778
        k(   31) = (   0.0298481  -0.0274928   0.0000000), wk =   0.0277778
        k(   32) = (   0.0447721  -0.0172492   0.0000000), wk =   0.0277778
        k(   33) = (   0.0447721  -0.0012559   0.0000000), wk =   0.0277778
        k(   34) = (   0.0447721   0.0147374   0.0000000), wk =   0.0277778
        k(   35) = (   0.0447721   0.0307308   0.0000000), wk =   0.0277778
        k(   36) = (   0.0447721   0.0467241   0.0000000), wk =   0.0277778
        k(   37) = (   0.0447721   0.0627174   0.0000000), wk =   0.0277778
        k(   38) = (   0.0447721  -0.1132091   0.0000000), wk =   0.0277778
        k(   39) = (   0.0447721  -0.0972158   0.0000000), wk =   0.0277778
        k(   40) = (   0.0447721  -0.0812225   0.0000000), wk =   0.0277778
        k(   41) = (   0.0447721  -0.0652292   0.0000000), wk =   0.0277778
        k(   42) = (   0.0447721  -0.0492358   0.0000000), wk =   0.0277778
        k(   43) = (   0.0447721  -0.0332425   0.0000000), wk =   0.0277778
        k(   44) = (   0.0596962  -0.0229989   0.0000000), wk =   0.0277778
        k(   45) = (   0.0596962  -0.0070056   0.0000000), wk =   0.0277778
        k(   46) = (   0.0596962   0.0089877   0.0000000), wk =   0.0277778
        k(   47) = (   0.0596962   0.0249810   0.0000000), wk =   0.0277778
        k(   48) = (   0.0596962   0.0409744   0.0000000), wk =   0.0277778
        k(   49) = (   0.0596962   0.0569677   0.0000000), wk =   0.0277778
        k(   50) = (   0.0596962  -0.1189589   0.0000000), wk =   0.0277778
        k(   51) = (   0.0596962  -0.1029655   0.0000000), wk =   0.0277778
        k(   52) = (   0.0596962  -0.0869722   0.0000000), wk =   0.0277778
        k(   53) = (   0.0596962  -0.0709789   0.0000000), wk =   0.0277778
        k(   54) = (   0.0596962  -0.0549856   0.0000000), wk =   0.0277778
        k(   55) = (   0.0596962  -0.0389923   0.0000000), wk =   0.0277778
        k(   56) = (   0.0746202  -0.0287487   0.0000000), wk =   0.0277778
        k(   57) = (   0.0746202  -0.0127553   0.0000000), wk =   0.0277778
        k(   58) = (   0.0746202   0.0032380   0.0000000), wk =   0.0277778
        k(   59) = (   0.0746202   0.0192313   0.0000000), wk =   0.0277778
        k(   60) = (   0.0746202   0.0352246   0.0000000), wk =   0.0277778
        k(   61) = (   0.0746202   0.0512179   0.0000000), wk =   0.0277778
        k(   62) = (   0.0746202  -0.1247086   0.0000000), wk =   0.0277778
        k(   63) = (   0.0746202  -0.1087153   0.0000000), wk =   0.0277778
        k(   64) = (   0.0746202  -0.0927219   0.0000000), wk =   0.0277778
        k(   65) = (   0.0746202  -0.0767286   0.0000000), wk =   0.0277778
        k(   66) = (   0.0746202  -0.0607353   0.0000000), wk =   0.0277778
        k(   67) = (   0.0746202  -0.0447420   0.0000000), wk =   0.0277778
        k(   68) = (  -0.0895442   0.0344984   0.0000000), wk =   0.0138889
        k(   69) = (  -0.0895442   0.0504917   0.0000000), wk =   0.0277778
        k(   70) = (  -0.0895442   0.0664850   0.0000000), wk =   0.0277778
        k(   71) = (  -0.0895442   0.0824784   0.0000000), wk =   0.0277778
        k(   72) = (  -0.0895442   0.0984717   0.0000000), wk =   0.0277778
        k(   73) = (  -0.0895442   0.1144650   0.0000000), wk =   0.0277778
        k(   74) = (  -0.0895442  -0.0614615   0.0000000), wk =   0.0138889

     Dense  grid:  1055535 G-vectors     FFT dimensions: (  80,  80, 360)

     Smooth grid:   266787 G-vectors     FFT dimensions: (  50,  50, 225)

     Estimated max dynamical RAM per process >     199.32 MB

     Estimated total dynamical RAM >       7.20 GB

     Initial potential from superposition of free atoms

     starting charge  137.97526, renormalised to  138.00000

     negative rho (up, down):  1.673E-04 0.000E+00


     %%%%%%%%%%%%%%%%%%%%%%%%%%%%%%%%%%%%%%%%%%%%%%%%%%%%%%%%%%%%%%%%%%%%%%%%
     %                                                                      %
     % You are using vdW-DF, which was implemented by the Thonhauser group. %
     % Please cite the following two papers that made this development      %
     % possible and the two reviews that describe the various versions:     %
     %                                                                      %
     %   T. Thonhauser et al., PRL 115, 136402 (2015).                      %
     %   T. Thonhauser et al., PRB 76, 125112 (2007).                       %
     %   K. Berland et al., Rep. Prog. Phys. 78, 066501 (2015).             %
     %   D.C. Langreth et al., J. Phys.: Condens. Matter 21, 084203 (2009). %
     %                                                                      %
     %                                                                      %
     % If you are calculating the stress with vdW-DF, please also cite:     %
     %                                                                      %
     %   R. Sabatini et al., J. Phys.: Condens. Matter 24, 424209 (2012).   %
     %                                                                      %
     %%%%%%%%%%%%%%%%%%%%%%%%%%%%%%%%%%%%%%%%%%%%%%%%%%%%%%%%%%%%%%%%%%%%%%%%



     Adding external electric field

     Computed dipole along edir(3) : 
        Dipole                0.0006 Ry au,          0.0014 Debye
        Dipole field          0.0000 Ry au, 

        Potential amp.       -0.0001 Ry
        Total length         45.3178 bohr

     Starting wfcs are  108 randomized atomic wfcs

     total cpu time spent up to now is      114.7 secs

     Self-consistent Calculation

     iteration #  1     ecut=    55.12 Ry     beta= 0.10
     Davidson diagonalization with overlap
     ethr =  1.00E-02,  avg # of iterations =  3.9

     Threshold (ethr) on eigenvalues was too large:
     Diagonalizing with lowered threshold

     Davidson diagonalization with overlap
     ethr =  2.19E-04,  avg # of iterations =  7.6

     negative rho (up, down):  1.639E-04 0.000E+00

     Adding external electric field

     Computed dipole along edir(3) : 
        Dipole                0.0089 Ry au,          0.0226 Debye
        Dipole field          0.0000 Ry au, 

        Potential amp.       -0.0021 Ry
        Total length         45.3178 bohr


     total cpu time spent up to now is      521.3 secs

     total energy              =   -1408.12326173 Ry
     estimated scf accuracy    <       0.28254280 Ry

     iteration #  2     ecut=    55.12 Ry     beta= 0.10
     Davidson diagonalization with overlap
     ethr =  2.05E-04,  avg # of iterations =  1.6

     negative rho (up, down):  1.595E-04 0.000E+00

     Adding external electric field

     Computed dipole along edir(3) : 
        Dipole               -0.0296 Ry au,         -0.0753 Debye
        Dipole field         -0.0001 Ry au, 

        Potential amp.        0.0070 Ry
        Total length         45.3178 bohr


     total cpu time spent up to now is      674.8 secs

     total energy              =   -1408.09476278 Ry
     estimated scf accuracy    <       0.11449456 Ry

     iteration #  3     ecut=    55.12 Ry     beta= 0.10
     Davidson diagonalization with overlap
     c_bands:  1 eigenvalues not converged
     ethr =  8.30E-05,  avg # of iterations =  6.1

     negative rho (up, down):  1.543E-04 0.000E+00

     Adding external electric field

     Computed dipole along edir(3) : 
        Dipole                0.0387 Ry au,          0.0983 Debye
        Dipole field          0.0001 Ry au, 

        Potential amp.       -0.0091 Ry
        Total length         45.3178 bohr


     total cpu time spent up to now is      841.7 secs

     total energy              =   -1408.10482212 Ry
     estimated scf accuracy    <       0.02293920 Ry

     iteration #  4     ecut=    55.12 Ry     beta= 0.10
     Davidson diagonalization with overlap
     c_bands:  1 eigenvalues not converged
     c_bands:  1 eigenvalues not converged
     c_bands:  1 eigenvalues not converged
     ethr =  1.66E-05,  avg # of iterations = 10.4

     negative rho (up, down):  1.546E-04 0.000E+00

     Adding external electric field

     Computed dipole along edir(3) : 
        Dipole               -0.0017 Ry au,         -0.0043 Debye
        Dipole field         -0.0000 Ry au, 

        Potential amp.        0.0004 Ry
        Total length         45.3178 bohr


     total cpu time spent up to now is     1045.4 secs

     total energy              =   -1408.10482200 Ry
     estimated scf accuracy    <       0.01773562 Ry

     iteration #  5     ecut=    55.12 Ry     beta= 0.10
     Davidson diagonalization with overlap
     ethr =  1.29E-05,  avg # of iterations =  2.1

     negative rho (up, down):  1.569E-04 0.000E+00

     Adding external electric field

     Computed dipole along edir(3) : 
        Dipole                0.0015 Ry au,          0.0039 Debye
        Dipole field          0.0000 Ry au, 

        Potential amp.       -0.0004 Ry
        Total length         45.3178 bohr


     total cpu time spent up to now is     1200.4 secs

     total energy              =   -1408.10632864 Ry
     estimated scf accuracy    <       0.00368033 Ry

     iteration #  6     ecut=    55.12 Ry     beta= 0.10
     Davidson diagonalization with overlap
     c_bands:  1 eigenvalues not converged
     c_bands:  1 eigenvalues not converged
     ethr =  2.67E-06,  avg # of iterations = 11.2

     negative rho (up, down):  1.818E-04 0.000E+00

     Adding external electric field

     Computed dipole along edir(3) : 
        Dipole                0.0083 Ry au,          0.0211 Debye
        Dipole field          0.0000 Ry au, 

        Potential amp.       -0.0020 Ry
        Total length         45.3178 bohr


     total cpu time spent up to now is     1421.5 secs

     total energy              =   -1408.10708592 Ry
     estimated scf accuracy    <       0.00225185 Ry

     iteration #  7     ecut=    55.12 Ry     beta= 0.10
     Davidson diagonalization with overlap
     c_bands:  1 eigenvalues not converged
     c_bands:  1 eigenvalues not converged
     ethr =  1.63E-06,  avg # of iterations =  3.1

     negative rho (up, down):  1.938E-04 0.000E+00

     Adding external electric field

     Computed dipole along edir(3) : 
        Dipole                0.0087 Ry au,          0.0221 Debye
        Dipole field          0.0000 Ry au, 

        Potential amp.       -0.0020 Ry
        Total length         45.3178 bohr


     total cpu time spent up to now is     1604.8 secs

     total energy              =   -1408.10747595 Ry
     estimated scf accuracy    <       0.00036415 Ry

     iteration #  8     ecut=    55.12 Ry     beta= 0.10
     Davidson diagonalization with overlap
     ethr =  2.64E-07,  avg # of iterations =  4.9

     negative rho (up, down):  1.846E-04 0.000E+00

     Adding external electric field

     Computed dipole along edir(3) : 
        Dipole                0.0077 Ry au,          0.0196 Debye
        Dipole field          0.0000 Ry au, 

        Potential amp.       -0.0018 Ry
        Total length         45.3178 bohr


     total cpu time spent up to now is     1798.4 secs

     total energy              =   -1408.10753473 Ry
     estimated scf accuracy    <       0.00039267 Ry

     iteration #  9     ecut=    55.12 Ry     beta= 0.10
     Davidson diagonalization with overlap
     ethr =  2.64E-07,  avg # of iterations =  1.9

     negative rho (up, down):  1.766E-04 0.000E+00

     Adding external electric field

     Computed dipole along edir(3) : 
        Dipole                0.0079 Ry au,          0.0201 Debye
        Dipole field          0.0000 Ry au, 

        Potential amp.       -0.0019 Ry
        Total length         45.3178 bohr


     total cpu time spent up to now is     1941.1 secs

     total energy              =   -1408.10755897 Ry
     estimated scf accuracy    <       0.00006966 Ry

     iteration # 10     ecut=    55.12 Ry     beta= 0.10
     Davidson diagonalization with overlap
     ethr =  5.05E-08,  avg # of iterations =  2.5

     negative rho (up, down):  1.697E-04 0.000E+00

     Adding external electric field

     Computed dipole along edir(3) : 
        Dipole                0.0072 Ry au,          0.0183 Debye
        Dipole field          0.0000 Ry au, 

        Potential amp.       -0.0017 Ry
        Total length         45.3178 bohr


     total cpu time spent up to now is     2091.8 secs

     total energy              =   -1408.10755762 Ry
     estimated scf accuracy    <       0.00002784 Ry

     iteration # 11     ecut=    55.12 Ry     beta= 0.10
     Davidson diagonalization with overlap
     ethr =  2.02E-08,  avg # of iterations =  4.6

     negative rho (up, down):  1.349E-04 0.000E+00

     Adding external electric field

     Computed dipole along edir(3) : 
        Dipole                0.0079 Ry au,          0.0201 Debye
        Dipole field          0.0000 Ry au, 

        Potential amp.       -0.0019 Ry
        Total length         45.3178 bohr


     total cpu time spent up to now is     2252.4 secs

     End of self-consistent calculation

          k = 0.0000 0.0000 0.0000 ( 33407 PWs)   bands (ev):

    -8.2397  -7.8857  -7.8684  -7.8128  -7.8034  -7.7599  -7.7350  -7.7150
    -7.6564  -7.6246  -7.6208  -7.6144  -7.5790  -7.5488  -7.5421  -7.5182
    -7.4992  -7.4958  -7.4218  -7.4036  -7.3891  -7.3837  -7.3687  -7.3334
    -7.3177  -7.2963  -7.2468  -7.2434  -7.2037  -7.1982  -7.1240  -6.4517
    -6.0433  -6.0287  -5.8786  -5.5063  -5.4330  -5.1895  -5.1385  -5.0518
    -4.9929  -4.9509  -4.8942  -4.7623  -4.6816  -4.6762  -4.6453  -4.5967
    -4.5843  -4.5096  -4.5004  -4.4591  -4.4174  -4.3259  -4.3002  -4.2209
    -4.2096  -4.1631  -4.1510  -4.1478  -4.1199  -3.8942  -2.6025  -1.4632
    -1.2435  -1.0283  -0.8514  -0.5856  -0.5540  -0.4629  -0.3070   0.6865
     1.2790   1.7469   1.7600   2.1737   2.5365   2.9336   3.0405   3.3463
     3.5481   3.7963   3.8089

          k = 0.0000 0.0160 0.0000 ( 33436 PWs)   bands (ev):

    -8.2007  -7.8780  -7.8592  -7.8074  -7.7951  -7.7558  -7.7297  -7.7115
    -7.6469  -7.6241  -7.6200  -7.6070  -7.5685  -7.5440  -7.5427  -7.5137
    -7.4947  -7.4894  -7.4168  -7.4002  -7.3882  -7.3828  -7.3668  -7.3333
    -7.3171  -7.2984  -7.2491  -7.2478  -7.2065  -7.2008  -7.1282  -6.4310
    -6.0326  -6.0325  -5.8750  -5.5175  -5.4225  -5.1910  -5.1269  -5.0391
    -5.0129  -4.9435  -4.8978  -4.7598  -4.7530  -4.6639  -4.6231  -4.6207
    -4.5843  -4.5205  -4.5049  -4.4503  -4.4116  -4.3399  -4.3099  -4.2536
    -4.2091  -4.2045  -4.1775  -4.1652  -4.1048  -3.9215  -2.5686  -2.0961
    -1.4803  -0.9394  -0.6989  -0.5879  -0.4682  -0.3890  -0.1635   0.9962
     1.1656   1.5478   1.8565   2.4486   2.5984   2.7757   3.0801   3.4638
     3.6739   3.8174   4.2161

          k = 0.0000 0.0320 0.0000 ( 33408 PWs)   bands (ev):

    -8.0882  -7.8567  -7.8329  -7.7919  -7.7725  -7.7440  -7.7149  -7.7019
    -7.6213  -7.6212  -7.6157  -7.5878  -7.5610  -7.5284  -7.5265  -7.5006
    -7.4814  -7.4731  -7.4023  -7.3903  -7.3862  -7.3797  -7.3620  -7.3336
    -7.3154  -7.3027  -7.2639  -7.2508  -7.2164  -7.2076  -7.1410  -6.3669
    -6.0449  -5.9998  -5.8640  -5.5502  -5.3911  -5.1948  -5.0921  -5.0524
    -5.0013  -4.9537  -4.9038  -4.8374  -4.7461  -4.7286  -4.6801  -4.5953
    -4.5678  -4.5674  -4.4931  -4.4470  -4.3984  -4.3816  -4.3390  -4.3196
    -4.2947  -4.2649  -4.2038  -4.1711  -4.1325  -3.9967  -2.9009  -2.4692
    -1.6618  -1.6049  -0.8072  -0.4133  -0.2838  -0.2483   0.4491   0.8558
     1.3875   1.4737   2.2766   2.3581   2.9361   3.1596   3.1961   3.5936
     3.9705   4.0440   4.3150

          k = 0.0000 0.0480 0.0000 ( 33410 PWs)   bands (ev):

    -7.9232  -7.8274  -7.7936  -7.7681  -7.7396  -7.7239  -7.6952  -7.6884
    -7.6167  -7.6109  -7.5853  -7.5660  -7.5622  -7.5051  -7.4861  -7.4808
    -7.4604  -7.4530  -7.3842  -7.3811  -7.3747  -7.3732  -7.3581  -7.3369
    -7.3116  -7.3010  -7.2820  -7.2560  -7.2355  -7.2146  -7.1631  -6.2560
    -6.0749  -5.9442  -5.8469  -5.6004  -5.3397  -5.1989  -5.1003  -5.0357
    -5.0229  -4.9449  -4.9241  -4.8783  -4.8393  -4.7472  -4.7223  -4.6088
    -4.6001  -4.5381  -4.4857  -4.4772  -4.4414  -4.4396  -4.3870  -4.3870
    -4.3654  -4.3412  -4.2457  -4.2137  -4.1349  -4.1055  -3.5838  -2.3289
    -2.3104  -1.7194  -1.0380  -0.3760   0.0088   0.0950   0.2724   0.5508
     1.9204   2.1356   2.3409   2.6127   2.9382   3.4237   3.4852   3.9742
     4.3653   4.3991   4.5751

          k = 0.0000 0.0640 0.0000 ( 33395 PWs)   bands (ev):

    -7.7966  -7.7887  -7.7463  -7.7389  -7.7120  -7.6809  -7.6773  -7.6704
    -7.6138  -7.6056  -7.5681  -7.5365  -7.5202  -7.4826  -7.4585  -7.4568
    -7.4348  -7.4194  -7.3837  -7.3713  -7.3619  -7.3618  -7.3497  -7.3450
    -7.3003  -7.2953  -7.2831  -7.2633  -7.2622  -7.1951  -7.1949  -6.1666
    -6.1055  -5.8671  -5.8294  -5.6498  -5.2728  -5.1993  -5.1589  -5.1241
    -5.0320  -4.9617  -4.9426  -4.8697  -4.8331  -4.7980  -4.6980  -4.6320
    -4.6215  -4.5726  -4.5559  -4.5349  -4.5096  -4.4624  -4.4526  -4.4262
    -4.4034  -4.3762  -4.3363  -4.2842  -4.2317  -4.0762  -4.0563  -2.9320
    -2.1022  -1.7439  -1.2245  -0.4671  -0.2827   0.2001   0.4968   0.8725
     2.1584   2.3978   2.4314   2.8722   3.3326   3.3353   4.0279   4.0594
     4.2888   4.9064   4.9330

          k = 0.0000 0.0800 0.0000 ( 33379 PWs)   bands (ev):

    -7.7703  -7.7539  -7.7085  -7.7007  -7.6866  -7.6734  -7.6551  -7.6531
    -7.6287  -7.6198  -7.5152  -7.5070  -7.4671  -7.4612  -7.4434  -7.4386
    -7.4110  -7.3979  -7.3754  -7.3698  -7.3668  -7.3604  -7.3373  -7.3227
    -7.3177  -7.2974  -7.2804  -7.2791  -7.2655  -7.2342  -7.0231  -6.3882
    -5.9488  -5.8186  -5.7775  -5.6723  -5.2408  -5.2361  -5.1789  -5.1754
    -5.1422  -5.0026  -4.8858  -4.8463  -4.7934  -4.7299  -4.7209  -4.6736
    -4.6713  -4.6345  -4.6195  -4.5842  -4.5547  -4.5033  -4.4718  -4.4669
    -4.4462  -4.4275  -4.4059  -4.3515  -4.3130  -4.3109  -3.9269  -3.4008
    -1.8715  -1.7290  -1.3309  -0.9105  -0.2241   0.0345   0.9380   1.5196
     2.0594   2.2106   2.2446   3.2028   3.2042   3.6922   4.2299   4.5613
     4.6813   4.7525   4.8016

          k = 0.0000-0.0960 0.0000 ( 33358 PWs)   bands (ev):

    -7.7539  -7.7539  -7.6908  -7.6908  -7.6643  -7.6643  -7.6482  -7.6482
    -7.6405  -7.6405  -7.5013  -7.5013  -7.4458  -7.4458  -7.4297  -7.4296
    -7.4006  -7.4006  -7.3777  -7.3777  -7.3579  -7.3579  -7.3270  -7.3270
    -7.3044  -7.3044  -7.2832  -7.2832  -7.2646  -7.2646  -6.7103  -6.7103
    -5.8447  -5.8447  -5.7030  -5.7029  -5.2678  -5.2678  -5.1999  -5.1999
    -5.0693  -5.0693  -4.8429  -4.8429  -4.7777  -4.7777  -4.7004  -4.7004
    -4.6388  -4.6388  -4.6216  -4.6216  -4.5522  -4.5522  -4.5164  -4.5164
    -4.4546  -4.4546  -4.4151  -4.4151  -4.3306  -4.3306  -3.7225  -3.7225
    -1.7293  -1.7293  -1.2450  -1.2450  -0.1145  -0.1145   1.4781   1.4781
     2.0375   2.0375   2.4938   2.4938   3.8973   3.8973   4.0621   4.0621
     5.0945   5.0946   5.2034

          k = 0.0149-0.0057 0.0000 ( 33436 PWs)   bands (ev):

    -8.2007  -7.8780  -7.8592  -7.8074  -7.7951  -7.7558  -7.7297  -7.7115
    -7.6469  -7.6241  -7.6200  -7.6070  -7.5685  -7.5440  -7.5427  -7.5137
    -7.4947  -7.4894  -7.4168  -7.4002  -7.3882  -7.3828  -7.3668  -7.3333
    -7.3171  -7.2984  -7.2491  -7.2478  -7.2065  -7.2008  -7.1282  -6.4310
    -6.0326  -6.0325  -5.8750  -5.5175  -5.4225  -5.1910  -5.1269  -5.0391
    -5.0129  -4.9435  -4.8978  -4.7598  -4.7530  -4.6639  -4.6231  -4.6207
    -4.5843  -4.5205  -4.5049  -4.4503  -4.4116  -4.3399  -4.3099  -4.2536
    -4.2091  -4.2045  -4.1775  -4.1652  -4.1048  -3.9215  -2.5686  -2.0961
    -1.4803  -0.9394  -0.6989  -0.5879  -0.4682  -0.3890  -0.1635   0.9962
     1.1656   1.5478   1.8565   2.4486   2.5984   2.7757   3.0801   3.4638
     3.6739   3.8174   4.2161

          k = 0.0149 0.0102 0.0000 ( 33469 PWs)   bands (ev):

    -8.1897  -7.8751  -7.8596  -7.8081  -7.7912  -7.7543  -7.7275  -7.7075
    -7.6497  -7.6217  -7.6123  -7.6066  -7.5679  -7.5427  -7.5411  -7.5135
    -7.4911  -7.4866  -7.4137  -7.4011  -7.3888  -7.3763  -7.3649  -7.3297
    -7.3112  -7.2957  -7.2528  -7.2499  -7.1985  -7.1979  -7.1249  -6.4149
    -6.0253  -6.0189  -5.8761  -5.5001  -5.4395  -5.1980  -5.1443  -5.0612
    -5.0125  -4.9703  -4.9343  -4.8161  -4.7652  -4.6696  -4.6056  -4.6012
    -4.5635  -4.5245  -4.4828  -4.4773  -4.4309  -4.3589  -4.2931  -4.2519
    -4.2343  -4.2154  -4.1750  -4.1543  -4.0533  -3.9107  -2.5692  -1.9409
    -1.5256  -1.0102  -0.6541  -0.5995  -0.4658  -0.4592  -0.3822   0.6887
     1.0494   1.5012   2.2035   2.3497   2.7823   3.0657   3.1020   3.2695
     3.4937   3.8608   4.2245

          k = 0.0149 0.0262 0.0000 ( 33384 PWs)   bands (ev):

    -8.1043  -7.8582  -7.8415  -7.7986  -7.7724  -7.7447  -7.7157  -7.6973
    -7.6344  -7.6177  -7.6033  -7.5924  -7.5517  -7.5391  -7.5325  -7.5037
    -7.4793  -7.4728  -7.4010  -7.3952  -7.3868  -7.3685  -7.3597  -7.3263
    -7.3065  -7.2946  -7.2592  -7.2592  -7.2000  -7.1985  -7.1301  -6.3557
    -6.0132  -5.9965  -5.8699  -5.5060  -5.4349  -5.2056  -5.1389  -5.0575
    -5.0469  -5.0009  -4.9721  -4.8774  -4.7654  -4.7073  -4.6349  -4.6271
    -4.5694  -4.5254  -4.4805  -4.4603  -4.4416  -4.4017  -4.3232  -4.3008
    -4.2757  -4.2303  -4.1910  -4.1648  -4.0514  -3.9457  -2.6184  -2.5114
    -1.3962  -1.3193  -1.2489  -0.6139  -0.3224  -0.2492   0.2350   0.4095
     1.1980   1.3222   2.3443   2.7608   2.8275   2.9671   3.2913   3.5010
     3.7688   4.1756   4.4359

          k = 0.0149 0.0422 0.0000 ( 33383 PWs)   bands (ev):

    -7.9611  -7.8323  -7.8066  -7.7807  -7.7430  -7.7268  -7.6976  -7.6842
    -7.6120  -7.6043  -7.5910  -7.5698  -7.5562  -7.5166  -7.5075  -7.4861
    -7.4603  -7.4556  -7.3852  -7.3834  -7.3783  -7.3617  -7.3511  -7.3248
    -7.3057  -7.2876  -7.2728  -7.2666  -7.2087  -7.2056  -7.1443  -6.2486
    -6.0223  -5.9461  -5.8572  -5.5383  -5.4071  -5.2112  -5.1109  -5.1019
    -5.0863  -5.0291  -4.9749  -4.9277  -4.7860  -4.7581  -4.7013  -4.6474
    -4.6288  -4.5195  -4.4889  -4.4759  -4.4534  -4.4200  -4.3936  -4.3556
    -4.3249  -4.2963  -4.2095  -4.1530  -4.1023  -4.0147  -3.3280  -2.4131
    -2.0286  -1.6796  -0.9315  -0.5557  -0.2258   0.0149   0.1178   0.3165
     1.4079   1.7891   2.0268   2.9624   3.0901   3.5186   3.7706   3.7927
     3.9783   4.2223   4.5863

          k = 0.0149 0.0582 0.0000 ( 33353 PWs)   bands (ev):

    -7.8168  -7.8034  -7.7623  -7.7563  -7.7164  -7.6840  -7.6791  -7.6716
    -7.6062  -7.5831  -7.5617  -7.5527  -7.5451  -7.4978  -7.4649  -7.4643
    -7.4406  -7.4369  -7.3811  -7.3690  -7.3610  -7.3522  -7.3471  -7.3301
    -7.2940  -7.2838  -7.2757  -7.2686  -7.2298  -7.2009  -7.1684  -6.0968
    -6.0791  -5.8763  -5.8406  -5.5944  -5.3558  -5.2150  -5.2116  -5.1353
    -5.0658  -4.9905  -4.9877  -4.9475  -4.8881  -4.7696  -4.7495  -4.6679
    -4.6614  -4.5886  -4.5389  -4.5037  -4.4990  -4.4309  -4.4110  -4.4033
    -4.3944  -4.3401  -4.2567  -4.2014  -4.1102  -4.0906  -3.8743  -2.6730
    -2.3302  -1.8032  -0.9136  -0.4913  -0.1939  -0.0566   0.3409   0.4279
     1.6634   1.7448   2.6772   2.9552   3.1418   3.3571   4.2312   4.3743
     4.4323   4.7449   4.8893

          k = 0.0149 0.0742 0.0000 ( 33375 PWs)   bands (ev):

    -7.7768  -7.7446  -7.7281  -7.7235  -7.6975  -7.6684  -7.6605  -7.6455
    -7.6067  -7.6027  -7.5227  -7.5065  -7.5024  -7.4777  -7.4443  -7.4424
    -7.4144  -7.4073  -7.3796  -7.3687  -7.3546  -7.3529  -7.3422  -7.3263
    -7.2939  -7.2903  -7.2804  -7.2576  -7.2561  -7.2023  -7.0780  -6.2616
    -5.9321  -5.8299  -5.7938  -5.6394  -5.3096  -5.2850  -5.2203  -5.1734
    -5.0998  -5.0064  -4.9543  -4.9262  -4.8556  -4.8097  -4.7747  -4.7113
    -4.6688  -4.6198  -4.6133  -4.5783  -4.5494  -4.4543  -4.4373  -4.4301
    -4.4064  -4.3774  -4.3498  -4.3112  -4.2228  -4.1755  -3.9816  -3.1999
    -2.3464  -1.7000  -1.0161  -0.7182  -0.5664   0.5762   0.6253   0.7882
     1.5240   2.0525   2.5256   2.9145   3.6306   3.6525   4.3455   4.5456
     4.5909   4.7966   5.0712

          k = 0.0149-0.1017 0.0000 ( 33378 PWs)   bands (ev):

    -7.7567  -7.7333  -7.7003  -7.6905  -7.6696  -7.6675  -7.6533  -7.6438
    -7.6287  -7.6224  -7.5050  -7.4865  -7.4584  -7.4553  -7.4304  -7.4275
    -7.3991  -7.3973  -7.3754  -7.3686  -7.3628  -7.3469  -7.3342  -7.3231
    -7.3085  -7.3008  -7.2835  -7.2707  -7.2704  -7.2388  -6.7976  -6.5755
    -5.8559  -5.8347  -5.7068  -5.6714  -5.3446  -5.2462  -5.1974  -5.1909
    -5.1477  -5.0207  -4.8935  -4.8578  -4.8361  -4.7873  -4.7490  -4.7382
    -4.6945  -4.6412  -4.6110  -4.6028  -4.5839  -4.4875  -4.4824  -4.4680
    -4.4639  -4.4146  -4.4107  -4.3615  -4.3611  -4.2505  -3.8058  -3.5878
    -2.4179  -1.4318  -1.3133  -0.8840  -0.6404   0.7339   1.2947   1.3203
     1.3737   1.7281   2.8929   2.9742   3.5644   4.0028   4.0065   4.4292
     4.7114   4.9476   5.1687

          k = 0.0149-0.0857 0.0000 ( 33392 PWs)   bands (ev):

    -7.7483  -7.7448  -7.6897  -7.6896  -7.6668  -7.6653  -7.6554  -7.6461
    -7.6459  -7.6322  -7.4982  -7.4954  -7.4463  -7.4417  -7.4273  -7.4267
    -7.4095  -7.3931  -7.3853  -7.3812  -7.3568  -7.3521  -7.3304  -7.3265
    -7.3178  -7.3034  -7.2891  -7.2871  -7.2677  -7.2507  -6.9175  -6.4810
    -5.9483  -5.8267  -5.7452  -5.6653  -5.2783  -5.2223  -5.2002  -5.1552
    -5.0727  -5.0675  -4.9207  -4.7928  -4.7826  -4.7180  -4.7073  -4.6682
    -4.6521  -4.6247  -4.6214  -4.6074  -4.5459  -4.5354  -4.5158  -4.5116
    -4.4613  -4.4592  -4.4303  -4.3986  -4.3940  -4.2540  -3.8462  -3.5249
    -2.4858  -1.6518  -1.1069  -0.9542  -0.5639   0.8378   1.2179   1.2282
     1.8936   2.1101   2.8518   3.0551   3.6317   3.7139   4.0934   4.4064
     4.5040   4.6765   4.8383

          k = 0.0149-0.0697 0.0000 ( 33382 PWs)   bands (ev):

    -7.7706  -7.7607  -7.7140  -7.7114  -7.6972  -7.6801  -7.6615  -7.6602
    -7.6295  -7.6183  -7.5424  -7.5145  -7.4787  -7.4600  -7.4473  -7.4404
    -7.4291  -7.3949  -7.3817  -7.3770  -7.3718  -7.3622  -7.3473  -7.3355
    -7.3136  -7.3088  -7.2933  -7.2924  -7.2489  -7.2277  -7.1613  -6.2381
    -6.0886  -5.8400  -5.8368  -5.6723  -5.2260  -5.1748  -5.1576  -5.1093
    -5.0649  -4.9871  -4.9269  -4.7943  -4.7525  -4.6947  -4.6611  -4.6492
    -4.6242  -4.6094  -4.5991  -4.5709  -4.5412  -4.5115  -4.4851  -4.4836
    -4.4297  -4.4236  -4.3978  -4.3770  -4.2430  -4.2053  -4.0126  -3.1022
    -2.5302  -1.9480  -1.0996  -0.5768  -0.4305   0.6102   1.1091   1.1249
     2.2484   2.4984   2.9506   3.0653   3.3311   3.5291   3.8729   3.9021
     4.2724   4.5366   4.5758

          k = 0.0149-0.0537 0.0000 ( 33409 PWs)   bands (ev):

    -7.8332  -7.8044  -7.7621  -7.7464  -7.7232  -7.7050  -7.6909  -7.6818
    -7.6260  -7.6172  -7.5996  -7.5411  -7.5317  -7.4837  -7.4641  -7.4616
    -7.4554  -7.4285  -7.3915  -7.3784  -7.3742  -7.3619  -7.3597  -7.3517
    -7.3199  -7.3093  -7.2950  -7.2684  -7.2462  -7.2206  -7.1897  -6.2305
    -6.1225  -5.9225  -5.8371  -5.6588  -5.2656  -5.1891  -5.1227  -4.9778
    -4.9681  -4.9329  -4.9134  -4.8206  -4.8068  -4.7709  -4.6907  -4.6184
    -4.5865  -4.5372  -4.5327  -4.5197  -4.4957  -4.4479  -4.4416  -4.4267
    -4.3978  -4.3689  -4.3366  -4.2437  -4.2337  -4.1186  -3.7526  -2.5544
    -2.5208  -2.1906  -1.1151  -0.2751  -0.0619   0.2050   0.9152   1.3198
     1.8481   2.5005   2.7164   2.7659   3.3506   3.3718   3.4804   3.7944
     3.9241   4.3017   4.4868

          k = 0.0149-0.0377 0.0000 ( 33445 PWs)   bands (ev):

    -7.9987  -7.8384  -7.8077  -7.7751  -7.7576  -7.7348  -7.7062  -7.6991
    -7.6304  -7.6205  -7.5928  -7.5712  -7.5701  -7.5087  -7.4980  -7.4874
    -7.4766  -7.4601  -7.3958  -7.3929  -7.3796  -7.3790  -7.3611  -7.3427
    -7.3248  -7.3110  -7.2767  -7.2441  -7.2409  -7.2176  -7.1602  -6.3400
    -6.0787  -5.9823  -5.8508  -5.6079  -5.3313  -5.1902  -5.0748  -5.0248
    -4.9313  -4.9195  -4.8331  -4.8054  -4.8004  -4.7320  -4.7275  -4.6501
    -4.5602  -4.5470  -4.5217  -4.4490  -4.4152  -4.3833  -4.3810  -4.3607
    -4.3213  -4.3209  -4.2398  -4.2281  -4.1697  -4.0999  -3.1101  -2.4762
    -2.3771  -1.8881  -1.0563  -0.1781  -0.1146   0.3863   0.6079   1.4964
     1.6204   1.8602   1.9870   2.2098   3.0101   3.2691   3.5998   3.7283
     4.0381   4.1123   4.5343

          k = 0.0149-0.0217 0.0000 ( 33458 PWs)   bands (ev):

    -8.1347  -7.8650  -7.8410  -7.7962  -7.7831  -7.7492  -7.7220  -7.7084
    -7.6280  -7.6240  -7.6235  -7.5940  -7.5634  -7.5358  -7.5305  -7.5048
    -7.4898  -7.4796  -7.4107  -7.3927  -7.3896  -7.3835  -7.3653  -7.3372
    -7.3221  -7.3046  -7.2586  -7.2448  -7.2208  -7.2081  -7.1398  -6.4066
    -6.0528  -6.0185  -5.8663  -5.5554  -5.3856  -5.1888  -5.0859  -5.0367
    -4.9913  -4.9248  -4.8646  -4.7491  -4.7097  -4.7077  -4.6868  -4.6725
    -4.5653  -4.5366  -4.5185  -4.4397  -4.3797  -4.3480  -4.3419  -4.3114
    -4.2496  -4.2184  -4.2000  -4.1800  -4.1777  -3.9865  -2.5043  -2.3467
    -2.3132  -1.2900  -0.8209  -0.3702  -0.2360   0.1573   0.1914   1.3924
     1.4234   1.5715   1.8549   2.0183   2.6335   2.9293   3.1325   3.6936
     3.9180   4.3924   4.4413

          k = 0.0298-0.0115 0.0000 ( 33408 PWs)   bands (ev):

    -8.0882  -7.8567  -7.8329  -7.7919  -7.7725  -7.7440  -7.7149  -7.7019
    -7.6213  -7.6212  -7.6157  -7.5878  -7.5610  -7.5284  -7.5265  -7.5006
    -7.4814  -7.4731  -7.4023  -7.3903  -7.3862  -7.3797  -7.3620  -7.3336
    -7.3154  -7.3027  -7.2639  -7.2508  -7.2164  -7.2076  -7.1410  -6.3669
    -6.0449  -5.9998  -5.8640  -5.5502  -5.3911  -5.1948  -5.0921  -5.0524
    -5.0013  -4.9537  -4.9038  -4.8374  -4.7461  -4.7286  -4.6801  -4.5953
    -4.5678  -4.5674  -4.4931  -4.4470  -4.3984  -4.3816  -4.3390  -4.3196
    -4.2947  -4.2649  -4.2038  -4.1711  -4.1325  -3.9967  -2.9009  -2.4692
    -1.6618  -1.6049  -0.8072  -0.4133  -0.2838  -0.2483   0.4491   0.8558
     1.3875   1.4737   2.2766   2.3581   2.9361   3.1596   3.1961   3.5936
     3.9705   4.0439   4.3150

          k = 0.0298 0.0045 0.0000 ( 33384 PWs)   bands (ev):

    -8.1043  -7.8582  -7.8415  -7.7986  -7.7724  -7.7447  -7.7157  -7.6973
    -7.6344  -7.6177  -7.6033  -7.5924  -7.5517  -7.5391  -7.5325  -7.5037
    -7.4793  -7.4728  -7.4010  -7.3952  -7.3868  -7.3685  -7.3597  -7.3263
    -7.3065  -7.2946  -7.2592  -7.2592  -7.2000  -7.1985  -7.1301  -6.3557
    -6.0132  -5.9965  -5.8699  -5.5060  -5.4349  -5.2056  -5.1389  -5.0575
    -5.0469  -5.0009  -4.9721  -4.8774  -4.7654  -4.7073  -4.6349  -4.6271
    -4.5694  -4.5254  -4.4805  -4.4603  -4.4416  -4.4017  -4.3232  -4.3008
    -4.2757  -4.2303  -4.1910  -4.1648  -4.0514  -3.9457  -2.6184  -2.5114
    -1.3962  -1.3193  -1.2489  -0.6139  -0.3224  -0.2492   0.2350   0.4095
     1.1980   1.3222   2.3443   2.7608   2.8275   2.9671   3.2913   3.5010
     3.7688   4.1756   4.4359

          k = 0.0298 0.0205 0.0000 ( 33397 PWs)   bands (ev):

    -8.0490  -7.8447  -7.8306  -7.7957  -7.7582  -7.7370  -7.7081  -7.6869
    -7.6319  -7.6106  -7.5886  -7.5842  -7.5408  -7.5380  -7.5290  -7.4961
    -7.4701  -7.4613  -7.3941  -7.3910  -7.3837  -7.3557  -7.3543  -7.3197
    -7.3018  -7.2852  -7.2683  -7.2619  -7.1970  -7.1894  -7.1272  -6.3036
    -5.9879  -5.9728  -5.8682  -5.4824  -5.4583  -5.2204  -5.1614  -5.0863
    -5.0748  -5.0624  -5.0191  -4.9261  -4.7820  -4.7298  -4.6662  -4.6155
    -4.5837  -4.5290  -4.5056  -4.4793  -4.4601  -4.4074  -4.3700  -4.2875
    -4.2634  -4.2270  -4.2124  -4.1569  -4.0195  -3.9375  -2.5378  -2.5001
    -1.8452  -1.8014  -1.0368  -0.7107  -0.3787  -0.1567   0.2867   0.3193
     1.0562   1.7669   1.8850   2.7092   2.9190   3.0076   3.6738   3.8734
     3.9350   4.4656   4.5248

          k = 0.0298 0.0365 0.0000 ( 33392 PWs)   bands (ev):

    -7.9406  -7.8214  -7.7960  -7.7842  -7.7343  -7.7185  -7.6943  -7.6734
    -7.6131  -7.6018  -7.5732  -7.5656  -7.5414  -7.5191  -7.5164  -7.4796
    -7.4545  -7.4456  -7.3871  -7.3773  -7.3729  -7.3484  -7.3396  -7.3152
    -7.3016  -7.2774  -7.2728  -7.2690  -7.1986  -7.1908  -7.1329  -6.2051
    -5.9734  -5.9292  -5.8594  -5.4872  -5.4582  -5.2307  -5.1722  -5.1627
    -5.1021  -5.0878  -5.0360  -4.9815  -4.7944  -4.7783  -4.7011  -4.6626
    -4.6346  -4.5552  -4.5421  -4.5073  -4.4790  -4.4076  -4.3763  -4.3258
    -4.2906  -4.2633  -4.2017  -4.1659  -4.0391  -3.9630  -3.0432  -2.6427
    -2.0343  -1.6544  -1.5294  -0.7809  -0.3086   0.0171   0.1512   0.6038
     1.3539   1.4753   1.9047   2.9123   3.1862   3.4805   4.0210   4.0738
     4.2253   4.3873   4.5153

          k = 0.0298 0.0525 0.0000 ( 33335 PWs)   bands (ev):

    -7.8340  -7.7941  -7.7660  -7.7423  -7.7125  -7.6787  -7.6691  -7.6609
    -7.5929  -7.5814  -7.5545  -7.5462  -7.5429  -7.5048  -7.4804  -7.4591
    -7.4348  -7.4347  -7.3748  -7.3708  -7.3498  -7.3460  -7.3292  -7.3172
    -7.2929  -7.2796  -7.2744  -7.2535  -7.2033  -7.1978  -7.1485  -6.0607
    -5.9910  -5.8693  -5.8456  -5.5353  -5.4319  -5.2781  -5.2337  -5.1448
    -5.1440  -5.0657  -5.0473  -5.0201  -4.8642  -4.8057  -4.7311  -4.7284
    -4.6837  -4.6389  -4.5616  -4.5335  -4.5090  -4.4132  -4.3957  -4.3654
    -4.3506  -4.2933  -4.2138  -4.1354  -4.0980  -4.0250  -3.6234  -2.8216
    -2.3223  -1.9664  -1.1191  -1.0142  -0.1310   0.2719   0.3339   0.3430
     1.1445   1.8495   2.1769   3.3916   3.3947   3.5225   4.1214   4.2175
     4.2458   4.7819   4.7954

          k = 0.0298 0.0685 0.0000 ( 33354 PWs)   bands (ev):

    -7.7675  -7.7627  -7.7428  -7.7100  -7.6945  -7.6662  -7.6533  -7.6237
    -7.5894  -7.5757  -7.5338  -7.5207  -7.4968  -7.4876  -7.4389  -7.4388
    -7.4284  -7.4152  -7.3687  -7.3587  -7.3518  -7.3365  -7.3307  -7.3242
    -7.2973  -7.2771  -7.2710  -7.2370  -7.2254  -7.1750  -7.0958  -6.1155
    -5.9036  -5.8350  -5.7937  -5.6004  -5.3786  -5.3724  -5.2373  -5.1771
    -5.1199  -5.0601  -5.0377  -5.0074  -4.9356  -4.8311  -4.7782  -4.7758
    -4.6960  -4.6759  -4.6053  -4.5721  -4.5404  -4.4706  -4.4222  -4.4147
    -4.3375  -4.3303  -4.2617  -4.2061  -4.1190  -4.0417  -4.0162  -2.9701
    -2.9008  -1.7744  -1.3659  -0.6584  -0.3155   0.2543   0.7426   0.8927
     0.9391   1.8078   2.7973   2.8951   3.6503   3.8336   4.0242   4.5399
     4.7295   5.0903   5.1085

          k = 0.0298-0.1075 0.0000 ( 33355 PWs)   bands (ev):

    -7.7451  -7.7167  -7.7082  -7.6952  -7.6798  -7.6605  -7.6528  -7.6233
    -7.6020  -7.5995  -7.5008  -7.4868  -7.4690  -7.4663  -7.4301  -7.4213
    -7.3993  -7.3914  -7.3704  -7.3626  -7.3515  -7.3452  -7.3365  -7.3119
    -7.3052  -7.2942  -7.2788  -7.2519  -7.2456  -7.2101  -6.8352  -6.3980
    -5.8546  -5.8463  -5.6712  -5.6294  -5.4273  -5.3014  -5.2478  -5.1987
    -5.1270  -5.0426  -4.9927  -4.9655  -4.8949  -4.8866  -4.7992  -4.7656
    -4.7024  -4.6536  -4.6319  -4.5940  -4.5676  -4.5225  -4.4566  -4.4418
    -4.3782  -4.3632  -4.3512  -4.3165  -4.2339  -4.1647  -3.8815  -3.3611
    -3.0752  -1.6153  -1.4233  -1.0508   0.2081   0.4006   0.7002   1.2380
     1.5464   1.7971   2.3346   3.4705   3.8278   3.8544   4.0049   4.7120
     4.7681   4.9120   5.3468

          k = 0.0298-0.0915 0.0000 ( 33392 PWs)   bands (ev):

    -7.7307  -7.7036  -7.6906  -7.6801  -7.6652  -7.6559  -7.6540  -7.6401
    -7.6306  -7.6264  -7.4857  -7.4684  -7.4511  -7.4463  -7.4250  -7.4099
    -7.3897  -7.3880  -7.3800  -7.3682  -7.3586  -7.3364  -7.3348  -7.3227
    -7.3153  -7.3088  -7.2915  -7.2733  -7.2691  -7.2341  -6.7494  -6.5287
    -5.9292  -5.8732  -5.6975  -5.6024  -5.3733  -5.2571  -5.2065  -5.1868
    -5.0991  -5.0367  -4.9588  -4.8793  -4.8718  -4.7818  -4.7778  -4.7156
    -4.6969  -4.6470  -4.6205  -4.5843  -4.5680  -4.5073  -4.5003  -4.4638
    -4.4507  -4.4283  -4.3883  -4.3733  -4.3676  -4.1911  -3.6968  -3.6202
    -3.1518  -1.7062  -1.4323  -1.0942   0.3346   0.5737   1.1141   1.4087
     1.7907   1.8735   2.6857   3.5230   3.7218   3.8994   4.0275   4.3870
     4.4566   4.9400   5.0525

          k = 0.0298-0.0755 0.0000 ( 33408 PWs)   bands (ev):

    -7.7314  -7.7276  -7.6884  -7.6857  -7.6716  -7.6693  -7.6587  -7.6511
    -7.6509  -7.6253  -7.4887  -7.4814  -7.4407  -7.4384  -7.4291  -7.4263
    -7.4063  -7.3981  -7.3968  -7.3782  -7.3508  -7.3485  -7.3355  -7.3348
    -7.3224  -7.3186  -7.3002  -7.2976  -7.2636  -7.2363  -7.0596  -6.2778
    -6.0472  -5.8987  -5.7941  -5.6286  -5.2547  -5.2158  -5.1959  -5.0787
    -5.0745  -5.0055  -4.9671  -4.7670  -4.7666  -4.7048  -4.6958  -4.6729
    -4.6419  -4.6176  -4.5958  -4.5937  -4.5689  -4.5407  -4.5228  -4.5133
    -4.4846  -4.4624  -4.4138  -4.3935  -4.2373  -4.1874  -3.9242  -3.2365
    -3.1975  -1.7726  -1.7561  -0.6578   0.4565   0.5020   0.9330   1.9255
     2.0197   2.3863   2.8822   3.3320   3.4639   3.6729   3.9564   4.0478
     4.4750   4.4769   4.7851

          k = 0.0298-0.0595 0.0000 ( 33399 PWs)   bands (ev):

    -7.7653  -7.7581  -7.7180  -7.7166  -7.7012  -7.6844  -7.6690  -7.6551
    -7.6342  -7.6174  -7.5868  -7.5075  -7.4837  -7.4586  -7.4470  -7.4397
    -7.4337  -7.4059  -7.3855  -7.3814  -7.3729  -7.3627  -7.3549  -7.3386
    -7.3313  -7.3090  -7.3077  -7.3023  -7.2377  -7.2237  -7.2071  -6.1727
    -6.1544  -5.8798  -5.8685  -5.6709  -5.2221  -5.1620  -5.1533  -5.0754
    -4.9879  -4.9447  -4.8853  -4.7403  -4.7258  -4.6992  -4.6751  -4.6697
    -4.6384  -4.5857  -4.5763  -4.5616  -4.5354  -4.5144  -4.4971  -4.4559
    -4.4406  -4.4388  -4.4013  -4.3960  -4.1789  -4.0765  -3.8251  -3.2356
    -2.7144  -2.0209  -1.7683  -0.1588   0.4850   0.4924   0.5566   2.0453
     2.3073   2.7199   2.8236   2.9455   3.2914   3.4277   3.6482   3.6622
     4.1685   4.2240   4.4687

          k = 0.0298-0.0435 0.0000 ( 33402 PWs)   bands (ev):

    -7.8541  -7.8056  -7.7678  -7.7491  -7.7289  -7.7134  -7.6947  -7.6873
    -7.6407  -7.6180  -7.6015  -7.5411  -7.5358  -7.4832  -7.4654  -7.4644
    -7.4609  -7.4313  -7.4023  -7.3826  -7.3755  -7.3637  -7.3572  -7.3547
    -7.3320  -7.3154  -7.2939  -7.2708  -7.2401  -7.2244  -7.1879  -6.2748
    -6.1109  -5.9428  -5.8409  -5.6627  -5.2632  -5.1861  -5.1126  -4.9683
    -4.9418  -4.9161  -4.8175  -4.7904  -4.7652  -4.7599  -4.7219  -4.7047
    -4.5588  -4.5393  -4.5150  -4.5113  -4.4877  -4.4497  -4.4319  -4.4053
    -4.4016  -4.3674  -4.3428  -4.2470  -4.1817  -4.1709  -3.2565  -3.1818
    -2.2279  -2.2006  -1.5905   0.1310   0.2640   0.3835   0.6253   1.7196
     2.1779   2.2098   2.2445   2.9054   2.9104   3.4083   3.7518   3.8517
     3.9038   4.0936   4.3085

          k = 0.0298-0.0275 0.0000 ( 33445 PWs)   bands (ev):

    -7.9987  -7.8384  -7.8077  -7.7751  -7.7576  -7.7348  -7.7062  -7.6991
    -7.6304  -7.6205  -7.5928  -7.5712  -7.5701  -7.5087  -7.4980  -7.4874
    -7.4766  -7.4601  -7.3958  -7.3929  -7.3796  -7.3790  -7.3611  -7.3427
    -7.3248  -7.3110  -7.2767  -7.2441  -7.2409  -7.2176  -7.1602  -6.3400
    -6.0787  -5.9823  -5.8508  -5.6079  -5.3313  -5.1902  -5.0748  -5.0248
    -4.9313  -4.9195  -4.8331  -4.8054  -4.8004  -4.7320  -4.7275  -4.6501
    -4.5602  -4.5470  -4.5217  -4.4490  -4.4152  -4.3833  -4.3810  -4.3607
    -4.3213  -4.3209  -4.2398  -4.2281  -4.1697  -4.0999  -3.1101  -2.4762
    -2.3771  -1.8881  -1.0563  -0.1781  -0.1146   0.3863   0.6079   1.4964
     1.6204   1.8602   1.9870   2.2098   3.0101   3.2691   3.5998   3.7283
     4.0379   4.1123   4.5342

          k = 0.0448-0.0172 0.0000 ( 33410 PWs)   bands (ev):

    -7.9232  -7.8274  -7.7936  -7.7681  -7.7396  -7.7239  -7.6952  -7.6884
    -7.6167  -7.6109  -7.5853  -7.5660  -7.5622  -7.5051  -7.4861  -7.4808
    -7.4604  -7.4530  -7.3842  -7.3811  -7.3747  -7.3732  -7.3581  -7.3369
    -7.3116  -7.3010  -7.2820  -7.2560  -7.2355  -7.2146  -7.1631  -6.2560
    -6.0749  -5.9442  -5.8469  -5.6004  -5.3397  -5.1989  -5.1003  -5.0357
    -5.0229  -4.9449  -4.9241  -4.8783  -4.8393  -4.7472  -4.7223  -4.6088
    -4.6001  -4.5381  -4.4857  -4.4772  -4.4414  -4.4396  -4.3870  -4.3870
    -4.3654  -4.3412  -4.2457  -4.2137  -4.1349  -4.1055  -3.5838  -2.3289
    -2.3104  -1.7194  -1.0380  -0.3760   0.0088   0.0950   0.2724   0.5508
     1.9204   2.1356   2.3409   2.6127   2.9382   3.4237   3.4852   3.9742
     4.3653   4.3991   4.5751

          k = 0.0448-0.0013 0.0000 ( 33383 PWs)   bands (ev):

    -7.9611  -7.8323  -7.8066  -7.7807  -7.7430  -7.7268  -7.6976  -7.6842
    -7.6120  -7.6043  -7.5910  -7.5698  -7.5562  -7.5166  -7.5075  -7.4861
    -7.4603  -7.4556  -7.3852  -7.3834  -7.3783  -7.3617  -7.3511  -7.3248
    -7.3057  -7.2876  -7.2728  -7.2666  -7.2087  -7.2056  -7.1443  -6.2486
    -6.0223  -5.9461  -5.8572  -5.5383  -5.4071  -5.2112  -5.1109  -5.1019
    -5.0863  -5.0291  -4.9749  -4.9277  -4.7860  -4.7581  -4.7013  -4.6474
    -4.6288  -4.5195  -4.4889  -4.4759  -4.4534  -4.4200  -4.3936  -4.3556
    -4.3249  -4.2963  -4.2095  -4.1530  -4.1023  -4.0147  -3.3280  -2.4131
    -2.0286  -1.6796  -0.9315  -0.5557  -0.2258   0.0149   0.1178   0.3165
     1.4079   1.7891   2.0268   2.9624   3.0901   3.5186   3.7706   3.7927
     3.9783   4.2223   4.5862

          k = 0.0448 0.0147 0.0000 ( 33392 PWs)   bands (ev):

    -7.9406  -7.8214  -7.7960  -7.7842  -7.7343  -7.7185  -7.6943  -7.6734
    -7.6131  -7.6018  -7.5732  -7.5656  -7.5414  -7.5191  -7.5164  -7.4796
    -7.4545  -7.4456  -7.3871  -7.3773  -7.3729  -7.3484  -7.3396  -7.3152
    -7.3016  -7.2774  -7.2728  -7.2690  -7.1986  -7.1908  -7.1329  -6.2051
    -5.9734  -5.9292  -5.8594  -5.4872  -5.4582  -5.2307  -5.1722  -5.1627
    -5.1021  -5.0878  -5.0360  -4.9815  -4.7944  -4.7783  -4.7011  -4.6626
    -4.6346  -4.5552  -4.5421  -4.5073  -4.4790  -4.4076  -4.3763  -4.3258
    -4.2906  -4.2633  -4.2017  -4.1659  -4.0391  -3.9630  -3.0432  -2.6427
    -2.0343  -1.6544  -1.5294  -0.7809  -0.3086   0.0171   0.1512   0.6038
     1.3539   1.4753   1.9047   2.9123   3.1862   3.4804   4.0210   4.0738
     4.2253   4.3873   4.5155

          k = 0.0448 0.0307 0.0000 ( 33365 PWs)   bands (ev):

    -7.8872  -7.8001  -7.7798  -7.7524  -7.7192  -7.6909  -7.6857  -7.6595
    -7.6073  -7.5885  -7.5553  -7.5524  -7.5336  -7.5144  -7.5100  -7.4634
    -7.4433  -7.4318  -7.3844  -7.3669  -7.3594  -7.3285  -7.3278  -7.3092
    -7.3006  -7.2834  -7.2683  -7.2579  -7.1956  -7.1837  -7.1293  -6.1204
    -5.9343  -5.8953  -5.8534  -5.4871  -5.4567  -5.2584  -5.2512  -5.1907
    -5.1294  -5.1135  -5.0805  -5.0452  -4.8315  -4.8064  -4.7472  -4.6625
    -4.6346  -4.6245  -4.6042  -4.5623  -4.4957  -4.4061  -4.3371  -4.3288
    -4.2758  -4.2484  -4.2462  -4.1607  -4.0303  -3.9425  -3.0221  -2.9697
    -2.0560  -1.9649  -1.4196  -1.2622  -0.7801   0.1738   0.6770   0.9533
     1.0122   1.1837   2.5521   2.7100   3.3039   3.6153   4.0914   4.1381
     4.5688   4.6832   4.8274

          k = 0.0448 0.0467 0.0000 ( 33350 PWs)   bands (ev):

    -7.8354  -7.7748  -7.7683  -7.7089  -7.7010  -7.6748  -7.6464  -7.6209
    -7.5868  -7.5758  -7.5375  -7.5351  -7.5323  -7.5031  -7.4883  -7.4436
    -7.4283  -7.4227  -7.3768  -7.3563  -7.3409  -7.3232  -7.3147  -7.3100
    -7.2991  -7.2660  -7.2593  -7.2360  -7.1937  -7.1879  -7.1350  -5.9948
    -5.9160  -5.8498  -5.8406  -5.4892  -5.4804  -5.3439  -5.2607  -5.1992
    -5.1704  -5.1106  -5.1104  -5.0874  -4.8686  -4.8636  -4.7797  -4.7125
    -4.7046  -4.6836  -4.6188  -4.5949  -4.5161  -4.4032  -4.3782  -4.3342
    -4.3034  -4.2620  -4.2178  -4.1706  -4.0577  -3.9630  -3.3756  -3.3326
    -1.9503  -1.9218  -1.7176  -1.6226  -0.4116   0.2546   0.4411   0.6407
     1.1658   1.7200   2.6908   3.1734   3.4715   3.7768   3.8734   4.3280
     4.6124   4.8704   4.8885

          k = 0.0448 0.0627 0.0000 ( 33356 PWs)   bands (ev):

    -7.7864  -7.7535  -7.7477  -7.6890  -7.6795  -7.6653  -7.6380  -7.5804
    -7.5686  -7.5584  -7.5475  -7.5178  -7.4889  -7.4871  -7.4554  -7.4254
    -7.4211  -7.4119  -7.3647  -7.3505  -7.3301  -7.3240  -7.3169  -7.3162
    -7.3035  -7.2621  -7.2483  -7.2157  -7.2025  -7.1522  -7.0757  -5.9705
    -5.8800  -5.8268  -5.7741  -5.5758  -5.4601  -5.4078  -5.2561  -5.1944
    -5.1874  -5.1326  -5.0959  -5.0814  -4.9462  -4.8992  -4.8368  -4.7516
    -4.7392  -4.7181  -4.6382  -4.6188  -4.5322  -4.4579  -4.4049  -4.3979
    -4.2858  -4.2803  -4.2166  -4.1292  -4.1110  -4.0322  -3.8166  -3.5212
    -2.5185  -1.9564  -1.6879  -1.2032  -0.2447   0.2115   0.3500   0.8094
     1.2218   2.2539   2.6210   3.3067   3.4759   3.7265   4.1028   4.5952
     4.8798   5.1507   5.4212

          k = 0.0448-0.1132 0.0000 ( 33361 PWs)   bands (ev):

    -7.7355  -7.7326  -7.7254  -7.6763  -7.6636  -7.6609  -7.6379  -7.5880
    -7.5741  -7.5728  -7.5146  -7.5007  -7.4691  -7.4610  -7.4238  -7.4145
    -7.4120  -7.3962  -7.3541  -7.3504  -7.3404  -7.3289  -7.3274  -7.3102
    -7.3100  -7.2670  -7.2586  -7.2305  -7.2212  -7.1816  -6.8176  -6.1907
    -5.8888  -5.8386  -5.6191  -5.6030  -5.4831  -5.3982  -5.2541  -5.2065
    -5.1542  -5.1031  -5.0887  -5.0454  -4.9811  -4.9410  -4.8829  -4.7523
    -4.7209  -4.7192  -4.6515  -4.6246  -4.5432  -4.5263  -4.4385  -4.4171
    -4.3257  -4.2817  -4.2625  -4.2289  -4.1398  -4.0628  -3.9871  -3.6243
    -3.0345  -2.1224  -1.4356  -0.8064  -0.4736   0.1382   0.9121   1.2507
     1.2575   2.3799   2.8293   2.9269   3.2632   4.0217   4.3915   4.9391
     5.0857   5.2191   5.7122

          k = 0.0448-0.0972 0.0000 ( 33368 PWs)   bands (ev):

    -7.7107  -7.7061  -7.6887  -7.6691  -7.6631  -7.6559  -7.6470  -7.6140
    -7.6041  -7.5957  -7.4839  -7.4714  -7.4540  -7.4510  -7.4253  -7.4061
    -7.3812  -7.3766  -7.3655  -7.3519  -7.3464  -7.3402  -7.3317  -7.3168
    -7.3108  -7.2965  -7.2821  -7.2524  -7.2344  -7.2167  -6.5216  -6.5215
    -5.9593  -5.8939  -5.6373  -5.5065  -5.4732  -5.3131  -5.2835  -5.2126
    -5.0893  -5.0605  -5.0292  -4.9932  -4.9651  -4.9182  -4.8639  -4.7422
    -4.6952  -4.6769  -4.6652  -4.6188  -4.5515  -4.4927  -4.4697  -4.4482
    -4.3792  -4.3571  -4.3353  -4.3141  -4.2380  -4.1431  -3.7475  -3.6815
    -3.4458  -2.2337  -1.1644  -1.0924  -0.0059   0.1965   1.3138   1.5917
     1.7741   1.9854   2.8711   3.1171   3.2179   4.0305   4.3888   4.6419
     5.0105   5.1973   5.2698

          k = 0.0448-0.0812 0.0000 ( 33417 PWs)   bands (ev):

    -7.7031  -7.6828  -7.6792  -7.6687  -7.6673  -7.6621  -7.6474  -7.6427
    -7.6362  -7.6297  -7.4707  -7.4556  -7.4364  -7.4342  -7.4280  -7.4100
    -7.3963  -7.3714  -7.3687  -7.3619  -7.3586  -7.3368  -7.3286  -7.3274
    -7.3231  -7.3182  -7.3045  -7.2750  -7.2725  -7.2263  -6.8560  -6.2722
    -6.0147  -5.9849  -5.7294  -5.5340  -5.3627  -5.2732  -5.2102  -5.1896
    -5.0530  -4.9931  -4.9866  -4.8957  -4.8735  -4.8142  -4.7928  -4.7190
    -4.6817  -4.6706  -4.6279  -4.5926  -4.5613  -4.5264  -4.5110  -4.4419
    -4.4376  -4.3904  -4.3718  -4.3689  -4.2362  -4.1538  -3.7493  -3.7322
    -3.3818  -2.2705  -1.5088  -0.6748  -0.0812   0.9938   1.3141   1.4155
     2.3331   2.5430   2.6326   2.9913   3.0595   4.0971   4.2302   4.5548
     4.5560   4.8151   5.0374

          k = 0.0448-0.0652 0.0000 ( 33366 PWs)   bands (ev):

    -7.7206  -7.7175  -7.6882  -7.6813  -7.6761  -7.6710  -7.6591  -7.6559
    -7.6540  -7.6228  -7.4825  -7.4701  -7.4412  -7.4336  -7.4330  -7.4233
    -7.4157  -7.4063  -7.3934  -7.3568  -7.3543  -7.3536  -7.3394  -7.3374
    -7.3359  -7.3164  -7.3114  -7.3017  -7.2616  -7.2304  -7.1080  -6.1732
    -6.0863  -5.9616  -5.8147  -5.6163  -5.2432  -5.2148  -5.1912  -5.0826
    -5.0736  -4.9812  -4.8876  -4.7901  -4.7576  -4.7209  -4.6892  -4.6883
    -4.6544  -4.6153  -4.5956  -4.5671  -4.5598  -4.5449  -4.5321  -4.5314
    -4.4986  -4.4571  -4.4147  -4.3936  -4.1573  -3.9554  -3.9186  -3.6983
    -2.9862  -2.1654  -1.7944  -0.2740   0.0009   0.8711   1.2757   1.8688
     2.0433   2.8000   3.0039   3.2051   3.2157   3.6319   3.8657   3.8713
     3.9342   4.6813   4.9607

          k = 0.0448-0.0492 0.0000 ( 33399 PWs)   bands (ev):

    -7.7653  -7.7581  -7.7180  -7.7166  -7.7012  -7.6844  -7.6690  -7.6551
    -7.6342  -7.6174  -7.5868  -7.5075  -7.4837  -7.4586  -7.4470  -7.4397
    -7.4337  -7.4059  -7.3855  -7.3814  -7.3729  -7.3627  -7.3549  -7.3386
    -7.3313  -7.3090  -7.3077  -7.3023  -7.2377  -7.2237  -7.2071  -6.1727
    -6.1544  -5.8798  -5.8685  -5.6709  -5.2221  -5.1620  -5.1533  -5.0754
    -4.9879  -4.9447  -4.8853  -4.7403  -4.7258  -4.6992  -4.6751  -4.6697
    -4.6384  -4.5857  -4.5763  -4.5616  -4.5354  -4.5144  -4.4971  -4.4559
    -4.4406  -4.4388  -4.4013  -4.3960  -4.1789  -4.0765  -3.8251  -3.2356
    -2.7144  -2.0209  -1.7683  -0.1588   0.4850   0.4924   0.5566   2.0453
     2.3073   2.7199   2.8236   2.9455   3.2914   3.4277   3.6482   3.6622
     4.1685   4.2240   4.4687

          k = 0.0448-0.0332 0.0000 ( 33409 PWs)   bands (ev):

    -7.8332  -7.8043  -7.7621  -7.7464  -7.7232  -7.7050  -7.6909  -7.6819
    -7.6260  -7.6172  -7.5996  -7.5411  -7.5317  -7.4837  -7.4641  -7.4616
    -7.4554  -7.4285  -7.3915  -7.3784  -7.3742  -7.3619  -7.3597  -7.3517
    -7.3199  -7.3093  -7.2950  -7.2684  -7.2462  -7.2206  -7.1897  -6.2305
    -6.1225  -5.9225  -5.8371  -5.6588  -5.2656  -5.1891  -5.1227  -4.9778
    -4.9681  -4.9329  -4.9134  -4.8206  -4.8068  -4.7709  -4.6907  -4.6184
    -4.5865  -4.5372  -4.5327  -4.5197  -4.4957  -4.4479  -4.4416  -4.4267
    -4.3978  -4.3689  -4.3366  -4.2437  -4.2337  -4.1186  -3.7526  -2.5544
    -2.5208  -2.1906  -1.1151  -0.2751  -0.0619   0.2050   0.9152   1.3198
     1.8481   2.5005   2.7164   2.7659   3.3506   3.3718   3.4804   3.7944
     3.9242   4.3017   4.4870

          k = 0.0597-0.0230 0.0000 ( 33395 PWs)   bands (ev):

    -7.7966  -7.7887  -7.7463  -7.7389  -7.7120  -7.6809  -7.6773  -7.6704
    -7.6138  -7.6056  -7.5681  -7.5365  -7.5202  -7.4826  -7.4585  -7.4568
    -7.4348  -7.4194  -7.3837  -7.3713  -7.3619  -7.3618  -7.3497  -7.3450
    -7.3003  -7.2953  -7.2831  -7.2633  -7.2622  -7.1951  -7.1949  -6.1666
    -6.1055  -5.8671  -5.8294  -5.6498  -5.2728  -5.1993  -5.1589  -5.1241
    -5.0320  -4.9617  -4.9426  -4.8697  -4.8331  -4.7980  -4.6980  -4.6320
    -4.6215  -4.5726  -4.5559  -4.5349  -4.5096  -4.4624  -4.4526  -4.4262
    -4.4034  -4.3762  -4.3363  -4.2842  -4.2317  -4.0762  -4.0563  -2.9320
    -2.1022  -1.7439  -1.2245  -0.4671  -0.2827   0.2001   0.4968   0.8725
     2.1584   2.3978   2.4314   2.8722   3.3326   3.3353   4.0279   4.0594
     4.2888   4.9065   4.9330

          k = 0.0597-0.0070 0.0000 ( 33353 PWs)   bands (ev):

    -7.8168  -7.8034  -7.7623  -7.7563  -7.7164  -7.6840  -7.6791  -7.6716
    -7.6062  -7.5831  -7.5617  -7.5527  -7.5451  -7.4978  -7.4649  -7.4643
    -7.4406  -7.4369  -7.3811  -7.3690  -7.3610  -7.3522  -7.3471  -7.3301
    -7.2940  -7.2838  -7.2757  -7.2686  -7.2298  -7.2009  -7.1684  -6.0968
    -6.0791  -5.8763  -5.8406  -5.5944  -5.3558  -5.2150  -5.2116  -5.1353
    -5.0658  -4.9905  -4.9877  -4.9475  -4.8881  -4.7696  -4.7495  -4.6679
    -4.6614  -4.5886  -4.5389  -4.5037  -4.4990  -4.4309  -4.4110  -4.4033
    -4.3944  -4.3401  -4.2567  -4.2014  -4.1102  -4.0906  -3.8743  -2.6730
    -2.3302  -1.8032  -0.9136  -0.4913  -0.1939  -0.0566   0.3409   0.4279
     1.6634   1.7448   2.6772   2.9552   3.1418   3.3571   4.2312   4.3743
     4.4323   4.7448   4.8893

          k = 0.0597 0.0090 0.0000 ( 33335 PWs)   bands (ev):

    -7.8340  -7.7941  -7.7660  -7.7423  -7.7125  -7.6787  -7.6691  -7.6609
    -7.5929  -7.5814  -7.5545  -7.5462  -7.5429  -7.5048  -7.4804  -7.4591
    -7.4348  -7.4347  -7.3748  -7.3708  -7.3498  -7.3460  -7.3292  -7.3172
    -7.2929  -7.2796  -7.2744  -7.2535  -7.2033  -7.1978  -7.1485  -6.0607
    -5.9910  -5.8693  -5.8456  -5.5353  -5.4319  -5.2781  -5.2337  -5.1448
    -5.1440  -5.0657  -5.0473  -5.0201  -4.8642  -4.8057  -4.7311  -4.7284
    -4.6837  -4.6389  -4.5616  -4.5335  -4.5090  -4.4132  -4.3957  -4.3654
    -4.3506  -4.2933  -4.2138  -4.1354  -4.0980  -4.0250  -3.6234  -2.8216
    -2.3223  -1.9664  -1.1191  -1.0142  -0.1310   0.2719   0.3339   0.3430
     1.1445   1.8495   2.1769   3.3916   3.3947   3.5225   4.1215   4.2175
     4.2458   4.7818   4.7955

          k = 0.0597 0.0250 0.0000 ( 33350 PWs)   bands (ev):

    -7.8354  -7.7748  -7.7683  -7.7089  -7.7010  -7.6748  -7.6464  -7.6209
    -7.5868  -7.5758  -7.5375  -7.5351  -7.5323  -7.5031  -7.4883  -7.4436
    -7.4283  -7.4227  -7.3768  -7.3563  -7.3409  -7.3232  -7.3147  -7.3100
    -7.2991  -7.2660  -7.2593  -7.2360  -7.1937  -7.1879  -7.1350  -5.9948
    -5.9160  -5.8498  -5.8406  -5.4892  -5.4804  -5.3439  -5.2607  -5.1992
    -5.1704  -5.1106  -5.1104  -5.0874  -4.8686  -4.8636  -4.7797  -4.7125
    -4.7046  -4.6836  -4.6188  -4.5949  -4.5161  -4.4032  -4.3782  -4.3342
    -4.3034  -4.2620  -4.2178  -4.1706  -4.0577  -3.9630  -3.3756  -3.3326
    -1.9503  -1.9218  -1.7176  -1.6226  -0.4116   0.2546   0.4411   0.6407
     1.1658   1.7200   2.6908   3.1734   3.4715   3.7768   3.8734   4.3280
     4.6124   4.8704   4.8885

          k = 0.0597 0.0410 0.0000 ( 33350 PWs)   bands (ev):

    -7.8229  -7.7658  -7.7502  -7.6911  -7.6796  -7.6682  -7.6324  -7.5872
    -7.5589  -7.5417  -7.5294  -7.5270  -7.5206  -7.4920  -7.4833  -7.4241
    -7.4189  -7.4162  -7.3746  -7.3418  -7.3273  -7.3181  -7.3095  -7.3075
    -7.2923  -7.2564  -7.2282  -7.1941  -7.1847  -7.1686  -7.1296  -5.9110
    -5.8684  -5.8226  -5.8201  -5.5188  -5.4324  -5.4295  -5.2846  -5.2297
    -5.2275  -5.1423  -5.1398  -5.1112  -4.9318  -4.8958  -4.8101  -4.7802
    -4.7330  -4.6804  -4.6644  -4.6482  -4.5223  -4.4002  -4.3835  -4.3079
    -4.3075  -4.2635  -4.2460  -4.1648  -4.0597  -3.9382  -3.7243  -3.3255
    -2.0768  -2.0488  -1.7749  -1.7023  -0.8345   0.2289   0.3923   0.6593
     1.3405   2.0871   3.1530   3.3254   3.3509   3.6341   4.4180   4.4891
     4.6467   4.7516   5.0490

          k = 0.0597 0.0570 0.0000 ( 33312 PWs)   bands (ev):

    -7.7979  -7.7568  -7.7277  -7.6772  -7.6619  -7.6608  -7.6229  -7.5687
    -7.5480  -7.5335  -7.5247  -7.5185  -7.4830  -7.4762  -7.4657  -7.4173
    -7.4112  -7.4037  -7.3680  -7.3352  -7.3220  -7.3176  -7.3099  -7.3068
    -7.2878  -7.2472  -7.2215  -7.1989  -7.1922  -7.1353  -6.9896  -5.8997
    -5.8667  -5.7962  -5.7283  -5.5593  -5.5115  -5.4174  -5.2865  -5.2547
    -5.2307  -5.1764  -5.1421  -5.0967  -4.9771  -4.9578  -4.8711  -4.8052
    -4.7540  -4.7274  -4.6726  -4.6652  -4.5270  -4.4351  -4.4026  -4.3848
    -4.2702  -4.2477  -4.2333  -4.1769  -4.0873  -3.9611  -3.9495  -3.6101
    -2.3334  -2.1033  -1.8212  -1.6063  -0.4958  -0.0902   0.0752   0.9727
     1.6696   2.2561   3.0109   3.3703   3.8379   3.8900   4.0173   4.7268
     5.1309   5.3291   5.5320

          k = 0.0597-0.1190 0.0000 ( 33313 PWs)   bands (ev):

    -7.7625  -7.7432  -7.7083  -7.6667  -7.6597  -7.6472  -7.6216  -7.5504
    -7.5494  -7.5437  -7.5320  -7.5076  -7.4604  -7.4602  -7.4380  -7.4208
    -7.4056  -7.3872  -7.3580  -7.3368  -7.3286  -7.3218  -7.3085  -7.3036
    -7.2967  -7.2441  -7.2300  -7.2109  -7.2068  -7.1545  -6.7350  -5.9827
    -5.9810  -5.8065  -5.6299  -5.5891  -5.4724  -5.4696  -5.2578  -5.2250
    -5.1942  -5.1739  -5.1173  -5.1159  -5.0262  -4.9941  -4.9429  -4.7845
    -4.7672  -4.7351  -4.6827  -4.6434  -4.5297  -4.5123  -4.4229  -4.4102
    -4.2819  -4.2198  -4.2173  -4.1467  -4.1339  -4.0486  -4.0350  -3.9206
    -2.6300  -2.4980  -1.3544  -1.3147  -0.3661  -0.3284   0.1294   1.3727
     2.1960   2.2816   2.7401   2.9405   3.8454   4.1116   4.3470   5.0406
     5.2118   5.2997   5.5803

          k = 0.0597-0.1030 0.0000 ( 33340 PWs)   bands (ev):

    -7.7256  -7.7209  -7.6921  -7.6649  -7.6617  -7.6397  -7.6295  -7.5750
    -7.5689  -7.5660  -7.5004  -7.4942  -7.4567  -7.4459  -7.4219  -7.4048
    -7.4024  -7.3738  -7.3471  -7.3448  -7.3379  -7.3262  -7.3239  -7.3086
    -7.3058  -7.2605  -7.2542  -7.2297  -7.2167  -7.1867  -6.4549  -6.2555
    -6.1025  -5.8495  -5.5842  -5.5491  -5.4546  -5.4023  -5.2625  -5.2198
    -5.1687  -5.1123  -5.0986  -5.0619  -5.0322  -5.0069  -4.9531  -4.7765
    -4.7429  -4.7022  -4.6843  -4.6297  -4.5307  -4.4893  -4.4385  -4.4302
    -4.3234  -4.2606  -4.2574  -4.2442  -4.1543  -4.0716  -4.0655  -3.9279
    -3.0958  -2.5690  -1.0285  -0.8957  -0.5519  -0.4923   0.8442   1.8411
     2.2801   2.3897   2.5550   2.8268   3.6020   3.8738   4.4438   4.9408
     5.0598   5.0665   5.4314

          k = 0.0597-0.0870 0.0000 ( 33386 PWs)   bands (ev):

    -7.7050  -7.6823  -7.6800  -7.6778  -7.6614  -7.6450  -7.6386  -7.6138
    -7.6070  -7.5949  -7.4799  -7.4614  -7.4569  -7.4347  -7.4235  -7.4091
    -7.3711  -7.3647  -7.3642  -7.3500  -7.3408  -7.3392  -7.3300  -7.3178
    -7.3155  -7.2981  -7.2869  -7.2534  -7.2287  -7.2199  -6.5715  -6.2305
    -6.1806  -5.9131  -5.6494  -5.4759  -5.4076  -5.3454  -5.3064  -5.2164
    -5.0707  -5.0566  -5.0205  -5.0068  -4.9759  -4.9449  -4.8885  -4.7608
    -4.7042  -4.6863  -4.6785  -4.6167  -4.5324  -4.4917  -4.4861  -4.3812
    -4.3608  -4.3340  -4.3276  -4.2900  -4.2379  -4.1340  -4.0169  -3.6387
    -3.4721  -2.5207  -1.2048  -0.6900  -0.5221   0.1487   1.5304   1.9608
     2.2681   2.3735   2.4293   2.5585   3.7349   3.9763   4.0295   4.5865
     4.7526   5.0589   5.4493

          k = 0.0597-0.0710 0.0000 ( 33417 PWs)   bands (ev):

    -7.7031  -7.6828  -7.6792  -7.6687  -7.6673  -7.6621  -7.6474  -7.6427
    -7.6362  -7.6297  -7.4707  -7.4556  -7.4364  -7.4342  -7.4280  -7.4100
    -7.3963  -7.3714  -7.3687  -7.3619  -7.3586  -7.3368  -7.3286  -7.3274
    -7.3231  -7.3182  -7.3045  -7.2750  -7.2725  -7.2263  -6.8560  -6.2722
    -6.0147  -5.9849  -5.7294  -5.5340  -5.3627  -5.2732  -5.2102  -5.1896
    -5.0530  -4.9931  -4.9866  -4.8957  -4.8735  -4.8142  -4.7928  -4.7190
    -4.6817  -4.6706  -4.6279  -4.5926  -4.5613  -4.5264  -4.5110  -4.4419
    -4.4376  -4.3904  -4.3718  -4.3689  -4.2362  -4.1538  -3.7493  -3.7322
    -3.3818  -2.2705  -1.5088  -0.6748  -0.0812   0.9938   1.3141   1.4155
     2.3331   2.5430   2.6326   2.9913   3.0595   4.0971   4.2302   4.5548
     4.5559   4.8150   5.0375

          k = 0.0597-0.0550 0.0000 ( 33408 PWs)   bands (ev):

    -7.7314  -7.7276  -7.6884  -7.6857  -7.6716  -7.6693  -7.6587  -7.6511
    -7.6509  -7.6253  -7.4887  -7.4814  -7.4407  -7.4384  -7.4291  -7.4263
    -7.4063  -7.3981  -7.3968  -7.3782  -7.3508  -7.3485  -7.3355  -7.3348
    -7.3224  -7.3186  -7.3002  -7.2976  -7.2636  -7.2363  -7.0596  -6.2778
    -6.0472  -5.8987  -5.7941  -5.6286  -5.2547  -5.2158  -5.1959  -5.0787
    -5.0745  -5.0055  -4.9671  -4.7670  -4.7666  -4.7048  -4.6958  -4.6729
    -4.6419  -4.6176  -4.5958  -4.5937  -4.5689  -4.5407  -4.5228  -4.5133
    -4.4846  -4.4624  -4.4138  -4.3935  -4.2373  -4.1874  -3.9242  -3.2365
    -3.1975  -1.7726  -1.7561  -0.6578   0.4565   0.5020   0.9330   1.9255
     2.0197   2.3863   2.8822   3.3320   3.4639   3.6729   3.9564   4.0478
     4.4750   4.4769   4.7851

          k = 0.0597-0.0390 0.0000 ( 33382 PWs)   bands (ev):

    -7.7706  -7.7607  -7.7140  -7.7114  -7.6972  -7.6801  -7.6615  -7.6602
    -7.6295  -7.6183  -7.5424  -7.5145  -7.4787  -7.4600  -7.4473  -7.4404
    -7.4291  -7.3949  -7.3817  -7.3770  -7.3718  -7.3622  -7.3473  -7.3355
    -7.3136  -7.3088  -7.2933  -7.2924  -7.2489  -7.2277  -7.1613  -6.2381
    -6.0886  -5.8400  -5.8368  -5.6723  -5.2260  -5.1748  -5.1576  -5.1093
    -5.0649  -4.9871  -4.9269  -4.7943  -4.7525  -4.6947  -4.6611  -4.6492
    -4.6242  -4.6094  -4.5991  -4.5709  -4.5412  -4.5115  -4.4851  -4.4836
    -4.4297  -4.4236  -4.3978  -4.3770  -4.2430  -4.2053  -4.0126  -3.1022
    -2.5302  -1.9480  -1.0996  -0.5768  -0.4305   0.6102   1.1091   1.1249
     2.2484   2.4984   2.9506   3.0653   3.3311   3.5291   3.8729   3.9021
     4.2724   4.5366   4.5758

          k = 0.0746-0.0287 0.0000 ( 33379 PWs)   bands (ev):

    -7.7703  -7.7539  -7.7085  -7.7007  -7.6866  -7.6734  -7.6551  -7.6531
    -7.6287  -7.6198  -7.5152  -7.5070  -7.4671  -7.4612  -7.4434  -7.4386
    -7.4110  -7.3979  -7.3754  -7.3698  -7.3668  -7.3604  -7.3373  -7.3227
    -7.3177  -7.2974  -7.2804  -7.2791  -7.2655  -7.2342  -7.0231  -6.3882
    -5.9488  -5.8186  -5.7775  -5.6723  -5.2408  -5.2361  -5.1789  -5.1754
    -5.1422  -5.0026  -4.8858  -4.8463  -4.7934  -4.7299  -4.7209  -4.6736
    -4.6713  -4.6345  -4.6195  -4.5842  -4.5547  -4.5033  -4.4718  -4.4669
    -4.4462  -4.4275  -4.4059  -4.3515  -4.3130  -4.3109  -3.9269  -3.4008
    -1.8715  -1.7290  -1.3309  -0.9105  -0.2241   0.0345   0.9380   1.5196
     2.0594   2.2106   2.2446   3.2028   3.2042   3.6922   4.2299   4.5613
     4.6813   4.7525   4.8016

          k = 0.0746-0.0128 0.0000 ( 33375 PWs)   bands (ev):

    -7.7768  -7.7446  -7.7281  -7.7235  -7.6975  -7.6684  -7.6605  -7.6455
    -7.6067  -7.6027  -7.5227  -7.5065  -7.5024  -7.4777  -7.4443  -7.4424
    -7.4144  -7.4073  -7.3796  -7.3687  -7.3546  -7.3529  -7.3422  -7.3263
    -7.2939  -7.2903  -7.2804  -7.2576  -7.2561  -7.2023  -7.0780  -6.2616
    -5.9321  -5.8299  -5.7938  -5.6394  -5.3096  -5.2850  -5.2203  -5.1734
    -5.0998  -5.0064  -4.9543  -4.9262  -4.8556  -4.8097  -4.7747  -4.7113
    -4.6688  -4.6198  -4.6133  -4.5783  -4.5494  -4.4543  -4.4373  -4.4301
    -4.4064  -4.3774  -4.3498  -4.3112  -4.2228  -4.1755  -3.9816  -3.1999
    -2.3464  -1.7000  -1.0161  -0.7182  -0.5664   0.5762   0.6253   0.7882
     1.5240   2.0525   2.5256   2.9145   3.6306   3.6525   4.3455   4.5457
     4.5909   4.7966   5.0713

          k = 0.0746 0.0032 0.0000 ( 33354 PWs)   bands (ev):

    -7.7675  -7.7627  -7.7428  -7.7100  -7.6945  -7.6662  -7.6533  -7.6237
    -7.5894  -7.5757  -7.5338  -7.5207  -7.4968  -7.4876  -7.4389  -7.4388
    -7.4284  -7.4152  -7.3687  -7.3587  -7.3518  -7.3365  -7.3307  -7.3242
    -7.2973  -7.2771  -7.2710  -7.2370  -7.2254  -7.1750  -7.0958  -6.1155
    -5.9036  -5.8350  -5.7937  -5.6004  -5.3786  -5.3724  -5.2373  -5.1771
    -5.1199  -5.0601  -5.0377  -5.0074  -4.9356  -4.8311  -4.7782  -4.7758
    -4.6960  -4.6759  -4.6053  -4.5721  -4.5404  -4.4706  -4.4222  -4.4147
    -4.3375  -4.3303  -4.2617  -4.2061  -4.1190  -4.0417  -4.0162  -2.9701
    -2.9008  -1.7744  -1.3659  -0.6584  -0.3155   0.2543   0.7426   0.8927
     0.9391   1.8078   2.7973   2.8951   3.6503   3.8336   4.0242   4.5399
     4.7295   5.0903   5.1085

          k = 0.0746 0.0192 0.0000 ( 33356 PWs)   bands (ev):

    -7.7864  -7.7535  -7.7477  -7.6890  -7.6795  -7.6653  -7.6380  -7.5804
    -7.5686  -7.5584  -7.5475  -7.5178  -7.4889  -7.4871  -7.4554  -7.4254
    -7.4211  -7.4119  -7.3647  -7.3505  -7.3301  -7.3240  -7.3169  -7.3162
    -7.3035  -7.2621  -7.2483  -7.2157  -7.2025  -7.1522  -7.0757  -5.9705
    -5.8800  -5.8268  -5.7741  -5.5758  -5.4601  -5.4078  -5.2561  -5.1944
    -5.1874  -5.1326  -5.0959  -5.0814  -4.9462  -4.8992  -4.8368  -4.7516
    -4.7392  -4.7181  -4.6382  -4.6188  -4.5322  -4.4579  -4.4049  -4.3979
    -4.2858  -4.2803  -4.2166  -4.1292  -4.1110  -4.0322  -3.8166  -3.5212
    -2.5185  -1.9564  -1.6879  -1.2032  -0.2447   0.2115   0.3500   0.8094
     1.2218   2.2539   2.6210   3.3067   3.4759   3.7265   4.1028   4.5952
     4.8797   5.1506   5.4212

          k = 0.0746 0.0352 0.0000 ( 33312 PWs)   bands (ev):

    -7.7979  -7.7568  -7.7277  -7.6772  -7.6619  -7.6608  -7.6229  -7.5687
    -7.5480  -7.5335  -7.5247  -7.5185  -7.4830  -7.4762  -7.4657  -7.4173
    -7.4112  -7.4037  -7.3680  -7.3352  -7.3220  -7.3176  -7.3099  -7.3068
    -7.2878  -7.2472  -7.2215  -7.1989  -7.1922  -7.1353  -6.9896  -5.8997
    -5.8667  -5.7962  -5.7283  -5.5593  -5.5115  -5.4174  -5.2865  -5.2547
    -5.2307  -5.1764  -5.1421  -5.0967  -4.9771  -4.9578  -4.8711  -4.8052
    -4.7540  -4.7274  -4.6726  -4.6652  -4.5270  -4.4351  -4.4026  -4.3848
    -4.2702  -4.2477  -4.2333  -4.1769  -4.0873  -3.9611  -3.9495  -3.6101
    -2.3334  -2.1033  -1.8212  -1.6063  -0.4958  -0.0902   0.0752   0.9727
     1.6696   2.2561   3.0109   3.3703   3.8379   3.8900   4.0173   4.7268
     5.1309   5.2668   5.3291

          k = 0.0746 0.0512 0.0000 ( 33290 PWs)   bands (ev):

    -7.7957  -7.7559  -7.7101  -7.6665  -7.6577  -7.6475  -7.6122  -7.5675
    -7.5332  -7.5258  -7.5183  -7.4949  -7.4727  -7.4649  -7.4637  -7.4212
    -7.4028  -7.3914  -7.3678  -7.3356  -7.3176  -7.3110  -7.3055  -7.3009
    -7.2728  -7.2338  -7.2056  -7.1935  -7.1927  -7.1282  -6.8181  -5.9917
    -5.8364  -5.7470  -5.6627  -5.5527  -5.5242  -5.4270  -5.3287  -5.3023
    -5.2426  -5.1841  -5.1840  -5.0864  -5.0362  -4.9472  -4.8978  -4.8511
    -4.7842  -4.7210  -4.6895  -4.6790  -4.5242  -4.4464  -4.4264  -4.4044
    -4.3299  -4.2428  -4.2281  -4.1972  -4.1679  -4.0956  -3.9354  -3.5487
    -2.5833  -2.0861  -1.8736  -1.4425  -0.8677  -0.4383   0.2159   1.2327
     1.4333   2.6090   2.9725   3.8244   4.0187   4.0566   4.3861   4.9340
     4.9731   5.1141   5.4064

          k = 0.0746-0.1247 0.0000 ( 33273 PWs)   bands (ev):

    -7.7805  -7.7501  -7.6975  -7.6593  -7.6562  -7.6392  -7.6093  -7.5555
    -7.5308  -7.5307  -7.5138  -7.4992  -7.4570  -7.4537  -7.4531  -7.4260
    -7.4000  -7.3803  -7.3636  -7.3378  -7.3203  -7.3131  -7.3019  -7.2956
    -7.2740  -7.2255  -7.2061  -7.2035  -7.1971  -7.1346  -6.5886  -6.1399
    -5.8510  -5.7253  -5.6547  -5.5871  -5.5072  -5.4436  -5.2999  -5.2906
    -5.2083  -5.2035  -5.1704  -5.1221  -5.0563  -4.9526  -4.9485  -4.8402
    -4.7950  -4.7333  -4.7038  -4.6339  -4.5233  -4.5007  -4.4687  -4.4086
    -4.3222  -4.2933  -4.2498  -4.1801  -4.1740  -4.1243  -3.9615  -3.7321
    -2.7063  -2.1946  -1.8658  -1.2090  -0.7020  -0.5398  -0.0249   1.5773
     1.6855   2.2877   3.1599   3.4996   4.2564   4.3801   4.5578   4.8672
     5.2188   5.2324   5.3510

          k = 0.0746-0.1087 0.0000 ( 33296 PWs)   bands (ev):

    -7.7542  -7.7398  -7.6900  -7.6601  -7.6576  -7.6361  -7.6156  -7.5483
    -7.5426  -7.5376  -7.5194  -7.5053  -7.4549  -7.4470  -7.4322  -7.4234
    -7.4016  -7.3737  -7.3562  -7.3385  -7.3251  -7.3229  -7.3021  -7.2982
    -7.2926  -7.2334  -7.2241  -7.2120  -7.2100  -7.1552  -6.3846  -6.2582
    -5.9948  -5.8009  -5.6413  -5.5085  -5.4963  -5.4675  -5.2509  -5.2332
    -5.1817  -5.1485  -5.1295  -5.1278  -5.0887  -5.0345  -4.9848  -4.8000
    -4.7981  -4.7108  -4.7017  -4.5936  -4.5408  -4.5245  -4.4382  -4.4155
    -4.2815  -4.2550  -4.2131  -4.1833  -4.1585  -4.1571  -4.0627  -3.9480
    -2.7104  -2.6661  -1.3508  -0.9397  -0.8513  -0.4087   0.0984   1.9162
     2.1352   2.1765   2.9275   3.1880   3.6047   4.4710   4.6278   4.7756
     5.1672   5.4077   5.5327

          k = 0.0746-0.0927 0.0000 ( 33340 PWs)   bands (ev):

    -7.7256  -7.7209  -7.6921  -7.6649  -7.6617  -7.6397  -7.6295  -7.5750
    -7.5689  -7.5660  -7.5004  -7.4942  -7.4567  -7.4459  -7.4219  -7.4048
    -7.4024  -7.3738  -7.3471  -7.3448  -7.3379  -7.3262  -7.3239  -7.3086
    -7.3058  -7.2605  -7.2542  -7.2297  -7.2167  -7.1867  -6.4549  -6.2555
    -6.1025  -5.8495  -5.5842  -5.5491  -5.4546  -5.4023  -5.2625  -5.2198
    -5.1687  -5.1123  -5.0986  -5.0619  -5.0322  -5.0069  -4.9531  -4.7765
    -4.7429  -4.7022  -4.6843  -4.6297  -4.5307  -4.4893  -4.4385  -4.4302
    -4.3234  -4.2606  -4.2574  -4.2442  -4.1543  -4.0716  -4.0655  -3.9279
    -3.0958  -2.5690  -1.0285  -0.8957  -0.5519  -0.4923   0.8442   1.8411
     2.2801   2.3897   2.5550   2.8268   3.6020   3.8738   4.4438   4.9408
     5.0599   5.0664   5.4315

          k = 0.0746-0.0767 0.0000 ( 33368 PWs)   bands (ev):

    -7.7107  -7.7061  -7.6887  -7.6691  -7.6631  -7.6559  -7.6470  -7.6140
    -7.6041  -7.5957  -7.4839  -7.4714  -7.4540  -7.4510  -7.4253  -7.4061
    -7.3812  -7.3766  -7.3655  -7.3519  -7.3464  -7.3402  -7.3317  -7.3168
    -7.3108  -7.2965  -7.2821  -7.2524  -7.2344  -7.2167  -6.5216  -6.5215
    -5.9593  -5.8939  -5.6373  -5.5065  -5.4732  -5.3131  -5.2835  -5.2126
    -5.0893  -5.0605  -5.0292  -4.9932  -4.9651  -4.9182  -4.8639  -4.7422
    -4.6952  -4.6769  -4.6652  -4.6188  -4.5515  -4.4927  -4.4697  -4.4482
    -4.3792  -4.3571  -4.3353  -4.3141  -4.2380  -4.1431  -3.7475  -3.6815
    -3.4458  -2.2337  -1.1644  -1.0924  -0.0059   0.1965   1.3138   1.5917
     1.7741   1.9854   2.8711   3.1171   3.2179   4.0305   4.3888   4.6419
     5.0105   5.1973   5.2698

          k = 0.0746-0.0607 0.0000 ( 33392 PWs)   bands (ev):

    -7.7307  -7.7036  -7.6906  -7.6801  -7.6652  -7.6559  -7.6540  -7.6401
    -7.6306  -7.6264  -7.4857  -7.4684  -7.4511  -7.4463  -7.4250  -7.4099
    -7.3897  -7.3880  -7.3800  -7.3682  -7.3586  -7.3364  -7.3348  -7.3227
    -7.3153  -7.3088  -7.2915  -7.2733  -7.2691  -7.2341  -6.7494  -6.5287
    -5.9292  -5.8732  -5.6975  -5.6024  -5.3733  -5.2571  -5.2065  -5.1868
    -5.0991  -5.0367  -4.9588  -4.8793  -4.8718  -4.7818  -4.7778  -4.7156
    -4.6969  -4.6470  -4.6205  -4.5843  -4.5680  -4.5073  -4.5003  -4.4638
    -4.4507  -4.4283  -4.3883  -4.3733  -4.3676  -4.1911  -3.6968  -3.6202
    -3.1518  -1.7062  -1.4323  -1.0942   0.3346   0.5737   1.1141   1.4087
     1.7907   1.8735   2.6857   3.5230   3.7218   3.8994   4.0275   4.3874
     4.4566   4.9400   5.0524

          k = 0.0746-0.0447 0.0000 ( 33392 PWs)   bands (ev):

    -7.7483  -7.7448  -7.6897  -7.6896  -7.6668  -7.6653  -7.6554  -7.6461
    -7.6459  -7.6322  -7.4982  -7.4954  -7.4463  -7.4417  -7.4273  -7.4267
    -7.4095  -7.3931  -7.3853  -7.3812  -7.3568  -7.3521  -7.3304  -7.3265
    -7.3178  -7.3034  -7.2891  -7.2871  -7.2677  -7.2507  -6.9175  -6.4810
    -5.9483  -5.8267  -5.7452  -5.6653  -5.2783  -5.2223  -5.2002  -5.1552
    -5.0727  -5.0675  -4.9207  -4.7928  -4.7826  -4.7180  -4.7073  -4.6682
    -4.6521  -4.6247  -4.6214  -4.6074  -4.5459  -4.5354  -4.5158  -4.5116
    -4.4613  -4.4592  -4.4303  -4.3986  -4.3940  -4.2540  -3.8462  -3.5249
    -2.4858  -1.6518  -1.1069  -0.9542  -0.5639   0.8378   1.2179   1.2282
     1.8936   2.1101   2.8518   3.0551   3.6319   3.7140   4.0934   4.4064
     4.5043   4.6765   5.0777

          k =-0.0895 0.0345 0.0000 ( 33358 PWs)   bands (ev):

    -7.7539  -7.7539  -7.6908  -7.6908  -7.6643  -7.6643  -7.6482  -7.6482
    -7.6405  -7.6405  -7.5013  -7.5013  -7.4458  -7.4458  -7.4297  -7.4296
    -7.4006  -7.4006  -7.3777  -7.3777  -7.3579  -7.3579  -7.3270  -7.3270
    -7.3044  -7.3044  -7.2832  -7.2832  -7.2646  -7.2646  -6.7103  -6.7103
    -5.8447  -5.8447  -5.7030  -5.7029  -5.2678  -5.2678  -5.1999  -5.1999
    -5.0693  -5.0693  -4.8429  -4.8429  -4.7777  -4.7777  -4.7004  -4.7004
    -4.6388  -4.6388  -4.6216  -4.6216  -4.5522  -4.5522  -4.5164  -4.5164
    -4.4546  -4.4546  -4.4151  -4.4151  -4.3306  -4.3306  -3.7225  -3.7225
    -1.7293  -1.7293  -1.2450  -1.2450  -0.1145  -0.1145   1.4781   1.4781
     2.0375   2.0375   2.4938   2.4938   3.8972   3.8973   4.0621   4.0621
     5.0945   5.0946   5.2035

          k =-0.0895 0.0505 0.0000 ( 33378 PWs)   bands (ev):

    -7.7567  -7.7333  -7.7003  -7.6905  -7.6696  -7.6675  -7.6533  -7.6438
    -7.6287  -7.6224  -7.5050  -7.4865  -7.4584  -7.4553  -7.4304  -7.4275
    -7.3991  -7.3973  -7.3754  -7.3686  -7.3628  -7.3469  -7.3342  -7.3231
    -7.3085  -7.3008  -7.2835  -7.2707  -7.2704  -7.2388  -6.7976  -6.5755
    -5.8559  -5.8347  -5.7068  -5.6714  -5.3446  -5.2462  -5.1974  -5.1909
    -5.1477  -5.0207  -4.8935  -4.8578  -4.8361  -4.7873  -4.7490  -4.7382
    -4.6945  -4.6412  -4.6110  -4.6028  -4.5839  -4.4875  -4.4824  -4.4680
    -4.4639  -4.4146  -4.4107  -4.3614  -4.3611  -4.2505  -3.8058  -3.5878
    -2.4179  -1.4318  -1.3133  -0.8840  -0.6404   0.7339   1.2947   1.3203
     1.3737   1.7281   2.8929   2.9742   3.5644   4.0028   4.0065   4.4292
     4.7115   4.9476   5.1687

          k =-0.0895 0.0665 0.0000 ( 33355 PWs)   bands (ev):

    -7.7451  -7.7167  -7.7082  -7.6952  -7.6798  -7.6605  -7.6528  -7.6233
    -7.6020  -7.5995  -7.5008  -7.4868  -7.4690  -7.4663  -7.4301  -7.4213
    -7.3993  -7.3914  -7.3704  -7.3626  -7.3515  -7.3452  -7.3365  -7.3119
    -7.3052  -7.2942  -7.2788  -7.2519  -7.2456  -7.2101  -6.8352  -6.3980
    -5.8546  -5.8463  -5.6712  -5.6294  -5.4273  -5.3014  -5.2478  -5.1987
    -5.1270  -5.0426  -4.9927  -4.9655  -4.8949  -4.8866  -4.7992  -4.7656
    -4.7024  -4.6536  -4.6319  -4.5940  -4.5676  -4.5225  -4.4566  -4.4418
    -4.3782  -4.3632  -4.3512  -4.3165  -4.2339  -4.1647  -3.8815  -3.3611
    -3.0752  -1.6153  -1.4233  -1.0508   0.2081   0.4006   0.7002   1.2380
     1.5464   1.7971   2.3346   3.4705   3.8278   3.8544   4.0049   4.7120
     4.7680   4.9121   5.3469

          k =-0.0895 0.0825 0.0000 ( 33361 PWs)   bands (ev):

    -7.7355  -7.7326  -7.7254  -7.6763  -7.6636  -7.6609  -7.6379  -7.5880
    -7.5741  -7.5728  -7.5146  -7.5007  -7.4691  -7.4610  -7.4238  -7.4145
    -7.4120  -7.3962  -7.3541  -7.3504  -7.3404  -7.3289  -7.3274  -7.3102
    -7.3100  -7.2670  -7.2586  -7.2305  -7.2212  -7.1816  -6.8176  -6.1907
    -5.8888  -5.8386  -5.6191  -5.6030  -5.4831  -5.3982  -5.2541  -5.2065
    -5.1542  -5.1031  -5.0887  -5.0454  -4.9811  -4.9410  -4.8829  -4.7523
    -4.7209  -4.7192  -4.6515  -4.6246  -4.5432  -4.5263  -4.4385  -4.4171
    -4.3257  -4.2817  -4.2625  -4.2289  -4.1398  -4.0628  -3.9871  -3.6243
    -3.0345  -2.1224  -1.4356  -0.8064  -0.4736   0.1382   0.9121   1.2507
     1.2575   2.3799   2.8293   2.9269   3.2632   4.0217   4.3915   4.9396
     5.0857   5.2191   5.7124

          k =-0.0895 0.0985 0.0000 ( 33313 PWs)   bands (ev):

    -7.7625  -7.7432  -7.7083  -7.6667  -7.6597  -7.6472  -7.6216  -7.5504
    -7.5494  -7.5437  -7.5320  -7.5076  -7.4604  -7.4602  -7.4380  -7.4208
    -7.4056  -7.3872  -7.3580  -7.3368  -7.3286  -7.3218  -7.3085  -7.3036
    -7.2967  -7.2441  -7.2300  -7.2109  -7.2068  -7.1545  -6.7350  -5.9827
    -5.9810  -5.8065  -5.6299  -5.5891  -5.4724  -5.4696  -5.2578  -5.2250
    -5.1942  -5.1739  -5.1173  -5.1159  -5.0262  -4.9941  -4.9429  -4.7845
    -4.7672  -4.7351  -4.6827  -4.6434  -4.5297  -4.5123  -4.4229  -4.4102
    -4.2819  -4.2198  -4.2173  -4.1467  -4.1339  -4.0486  -4.0350  -3.9206
    -2.6300  -2.4980  -1.3544  -1.3147  -0.3661  -0.3284   0.1294   1.3727
     2.1960   2.2816   2.7401   2.9405   3.8454   4.1116   4.3470   5.0406
     5.2118   5.2998   5.5803

          k =-0.0895 0.1145 0.0000 ( 33273 PWs)   bands (ev):

    -7.7805  -7.7501  -7.6975  -7.6593  -7.6562  -7.6392  -7.6093  -7.5555
    -7.5308  -7.5307  -7.5138  -7.4992  -7.4570  -7.4537  -7.4531  -7.4260
    -7.4000  -7.3803  -7.3636  -7.3378  -7.3203  -7.3131  -7.3019  -7.2956
    -7.2740  -7.2255  -7.2061  -7.2035  -7.1971  -7.1346  -6.5886  -6.1399
    -5.8510  -5.7253  -5.6547  -5.5871  -5.5072  -5.4436  -5.2999  -5.2906
    -5.2083  -5.2035  -5.1704  -5.1221  -5.0563  -4.9526  -4.9485  -4.8402
    -4.7950  -4.7333  -4.7038  -4.6339  -4.5233  -4.5007  -4.4688  -4.4086
    -4.3222  -4.2933  -4.2498  -4.1801  -4.1740  -4.1243  -3.9615  -3.7321
    -2.7063  -2.1946  -1.8658  -1.2090  -0.7020  -0.5398  -0.0249   1.5773
     1.6855   2.2877   3.1599   3.4996   4.2564   4.3800   4.5578   4.8672
     5.2191   5.2324   5.3509

          k =-0.0895-0.0615 0.0000 ( 33258 PWs)   bands (ev):

    -7.7868  -7.7524  -7.6942  -7.6565  -7.6543  -7.6367  -7.6048  -7.5606
    -7.5245  -7.5232  -7.5166  -7.4852  -7.4586  -7.4527  -7.4515  -7.4315
    -7.3975  -7.3781  -7.3658  -7.3389  -7.3203  -7.3055  -7.3022  -7.2920
    -7.2649  -7.2156  -7.2061  -7.1974  -7.1921  -7.1274  -6.4567  -6.2778
    -5.8281  -5.6978  -5.5981  -5.5897  -5.5187  -5.4375  -5.3677  -5.3030
    -5.2006  -5.1966  -5.1944  -5.1664  -5.0793  -4.9417  -4.8666  -4.8172
    -4.8030  -4.7341  -4.6995  -4.6357  -4.6093  -4.5215  -4.4452  -4.4426
    -4.4084  -4.3371  -4.2417  -4.1691  -4.1496  -4.1322  -3.9346  -3.6250
    -2.7703  -2.0965  -1.9307  -1.0226  -0.9640  -0.8788   0.1564   1.4420
     1.7944   1.9876   3.4898   3.9335   4.3226   4.3767   4.6792   4.9587
     4.9725   5.5377   5.5789

     the Fermi energy is    -0.1042 ev

!    total energy              =   -1408.10756087 Ry
     estimated scf accuracy    <       0.00000653 Ry
     smearing contrib. (-TS)   =      -0.01980469 Ry
     internal energy E=F+TS    =   -1408.08775618 Ry

     The total energy is F=E-TS. E is the sum of the following terms:
     one-electron contribution =   -9738.78580067 Ry
     hartree contribution      =    4984.98353598 Ry
     xc contribution           =    -429.74112225 Ry
     ewald contribution        =    3775.45563060 Ry
     electric field correction =       0.00000016 Ry

     convergence has been achieved in  11 iterations

     negative rho (up, down):  1.349E-04 0.000E+00

     Forces acting on atoms (cartesian axes, Ry/au):

     atom    1 type  1   force =     0.00054683    0.00036941   -0.01127345
     atom    2 type  1   force =     0.00054358    0.00037172   -0.01127447
     atom    3 type  2   force =    -0.00055858   -0.00038644   -0.00535623
     atom    4 type  2   force =    -0.00056190   -0.00038281   -0.00535644
     atom    5 type  1   force =    -0.00011695   -0.00007421    0.00623597
     atom    6 type  1   force =    -0.00010566   -0.00007910    0.00623414
     atom    7 type  2   force =     0.00007069    0.00004558    0.00963374
     atom    8 type  2   force =     0.00006691    0.00004818    0.00963431
     atom    9 type  1   force =     0.00043733    0.00030637    0.00226233
     atom   10 type  1   force =     0.00044431    0.00030558    0.00226325
     atom   11 type  2   force =    -0.00038289   -0.00026254   -0.00150087
     atom   12 type  2   force =    -0.00038366   -0.00026174   -0.00150230

     Total force =     0.024343     Total SCF correction =     0.016012
     SCF correction compared to forces is large: reduce conv_thr to get better values

     Writing output data file ./Zn2Ag2/Zn2Ag2_beef.save/

     init_run     :     98.92s CPU     99.27s WALL (       1 calls)
     electrons    :   2098.84s CPU   2138.02s WALL (       1 calls)
     forces       :     53.80s CPU     54.09s WALL (       1 calls)

     Called by init_run:
     wfcinit      :     70.75s CPU     70.98s WALL (       1 calls)
     potinit      :     21.55s CPU     21.58s WALL (       1 calls)
     hinit0       :      4.29s CPU      4.30s WALL (       1 calls)

     Called by electrons:
     c_bands      :   1845.01s CPU   1879.77s WALL (      12 calls)
     sum_band     :    230.52s CPU    232.90s WALL (      12 calls)
     v_of_rho     :     32.24s CPU     33.03s WALL (      12 calls)
     newd         :     10.97s CPU     12.16s WALL (      12 calls)
     mix_rho      :      0.35s CPU      0.36s WALL (      12 calls)
     vdW_kernel   :     10.10s CPU     10.11s WALL (       1 calls)

     Called by c_bands:
     init_us_2    :      6.81s CPU      6.86s WALL (    1924 calls)
     cegterg      :   1819.28s CPU   1852.62s WALL (     888 calls)

     Called by *egterg:
     cdiaghg      :     95.15s CPU     95.59s WALL (    5256 calls)
     h_psi        :    947.07s CPU    975.25s WALL (    5404 calls)
     s_psi        :    183.00s CPU    183.51s WALL (    5404 calls)
     g_psi        :      0.90s CPU      0.91s WALL (    4442 calls)

     Called by h_psi:
     h_psi:calbec :    352.16s CPU    354.56s WALL (    5404 calls)
     vloc_psi     :    402.36s CPU    427.24s WALL (    5404 calls)
     add_vuspsi   :    190.19s CPU    191.07s WALL (    5404 calls)

     General routines
     calbec       :    537.68s CPU    540.59s WALL (    6588 calls)
     fft          :     20.21s CPU     20.70s WALL (     816 calls)
     ffts         :      0.23s CPU      0.23s WALL (      24 calls)
     fftw         :    452.25s CPU    477.67s WALL (  429160 calls)
     interpolate  :      0.46s CPU      0.48s WALL (      12 calls)

     Parallel routines
     fft_scatt_xy :     29.45s CPU     29.82s WALL (  430000 calls)
     fft_scatt_yz :    188.38s CPU    211.01s WALL (  430000 calls)

     PWSCF        :  41m52.82s CPU  44m11.37s WALL


   This run was terminated on:   4: 6:58  10Jul2022            

=------------------------------------------------------------------------------=
   JOB DONE.
=------------------------------------------------------------------------------=
