
     Program PWSCF v.6.6 starts on 10Jul2022 at  3:12:54 

     This program is part of the open-source Quantum ESPRESSO suite
     for quantum simulation of materials; please cite
         "P. Giannozzi et al., J. Phys.:Condens. Matter 21 395502 (2009);
         "P. Giannozzi et al., J. Phys.:Condens. Matter 29 465901 (2017);
          URL http://www.quantum-espresso.org", 
     in publications or presentations arising from this work. More details at
     http://www.quantum-espresso.org/quote

     Parallel version (MPI), running on    37 processors

     MPI processes distributed on     3 nodes
     R & G space division:  proc/nbgrp/npool/nimage =      37
     Fft bands division:     nmany     =       1
     Reading input from Zn2Au2.in
Warning: card &CELL ignored
Warning: card / ignored

     Current dimensions of program PWSCF are:
     Max number of different atomic species (ntypx) = 10
     Max number of k-points (npk) =  40000
     Max angular momentum in pseudopotentials (lmaxx) =  3
     Presently stress not available with electric field and gates

     Message from routine cell_base_init:
     DEPRECATED: use true lattice parameter, not A to a.u. conversion factor
     file Zn.pbe-dnl-rrkjus_psl.1.0.0.UPF: wavefunction(s)  3D renormalized

     **************************************************************************
     Initializing libbeef V0.1.2 with the BEEF-vdW functional.
     Citation: Wellendorff et al., PRB 85, 235149 (2012).
     **************************************************************************


     IMPORTANT: XC functional enforced from input :
     Exchange-correlation= BEEF-VDW
                           (   1   4  43  14   2   0   0)
     Any further DFT definition will be discarded
     Please, verify this is what you really want


     Subspace diagonalization in iterative solution of the eigenvalue problem:
     a serial algorithm will be used


     Parallelization info
     --------------------
     sticks:   dense  smooth     PW     G-vecs:    dense   smooth      PW
     Min         122      48     13                28394     7166    1071
     Max         123      49     14                28423     7193    1092
     Sum        4549    1809    511              1051299   265763   40083



     bravais-lattice index     =            0
     lattice parameter (alat)  =       1.8897  a.u.
     unit-cell volume          =    4809.3086 (a.u.)^3
     number of atoms/cell      =           12
     number of atomic types    =            2
     number of electrons       =       138.00
     number of Kohn-Sham states=           83
     kinetic-energy cutoff     =      55.1240  Ry
     charge density cutoff     =     551.2396  Ry
     convergence threshold     =      1.0E-05
     mixing beta               =       0.1000
     number of iterations used =           10  plain     mixing
     Exchange-correlation= BEEF-VDW
                           (   1   4  43  14   2   0   0)

     celldm(1)=   1.889726  celldm(2)=   0.000000  celldm(3)=   0.000000
     celldm(4)=   0.000000  celldm(5)=   0.000000  celldm(6)=   0.000000

     crystal axes: (cart. coord. in units of alat)
               a(1) = (   5.568523   0.000000   0.000000 )  
               a(2) = (   1.972988   5.207280   0.000000 )  
               a(3) = (   0.000000   0.000000  24.577357 )  

     reciprocal axes: (cart. coord. in units 2 pi/alat)
               b(1) = (  0.179581 -0.068041  0.000000 )  
               b(2) = (  0.000000  0.192039  0.000000 )  
               b(3) = (  0.000000  0.000000  0.040688 )  


     PseudoPot. # 1 for Zn read from file:
     ../pseudo/Zn.pbe-dnl-rrkjus_psl.1.0.0.UPF
     MD5 check sum: 7f56cabf9682ed8c977c2f7d0c5985c5
     Pseudo is Ultrasoft + core correction, Zval = 12.0
     Generated using "atomic" code by A. Dal Corso v.6.2.2
     Using radial grid of 1201 points,  6 beta functions with: 
                l(1) =   0
                l(2) =   0
                l(3) =   1
                l(4) =   1
                l(5) =   2
                l(6) =   2
     Q(r) pseudized with 0 coefficients 


     PseudoPot. # 2 for Au read from file:
     ../pseudo/Au.pbe-n-rrkjus_psl.1.0.0.UPF
     MD5 check sum: d7e77ba19504afed2c9b41c931dde4f0
     Pseudo is Ultrasoft + core correction, Zval = 11.0
     Generated using "atomic" code by A. Dal Corso v.6.3
     Using radial grid of 1279 points,  6 beta functions with: 
                l(1) =   0
                l(2) =   0
                l(3) =   1
                l(4) =   1
                l(5) =   2
                l(6) =   2
     Q(r) pseudized with 0 coefficients 


     atomic species   valence    mass     pseudopotential
        Zn            12.00    65.38000     Zn( 1.00)
        Au            11.00   196.96657     Au( 1.00)

     No symmetry found



   Cartesian axes

     site n.     atom                  positions (alat units)
         1           Zn  tau(   1) = (   0.0000000   0.0000000  10.0000000  )
         2           Zn  tau(   2) = (   3.7707555   2.6036399  10.0000000  )
         3           Au  tau(   3) = (   2.7842614   0.0000000  10.0000000  )
         4           Au  tau(   4) = (   0.9864941   2.6036399  10.0000000  )
         5           Zn  tau(   5) = (   5.5685227   3.8449664  12.2886785  )
         6           Zn  tau(   6) = (   1.7977673   1.2413265  12.2886785  )
         7           Au  tau(   7) = (   2.7842614   3.8449664  12.2886785  )
         8           Au  tau(   8) = (   4.5820287   1.2413265  12.2886785  )
         9           Zn  tau(   9) = (   3.5986690   2.4848464  14.7243931  )
        10           Zn  tau(  10) = (   7.3694293   5.0884075  14.7243863  )
        11           Au  tau(  11) = (   6.3927426   2.4915722  14.6559156  )
        12           Au  tau(  12) = (   4.5949882   5.0952278  14.6559271  )

     number of k points=    74  Fermi-Dirac smearing, width (Ry)=  0.0100
                       cart. coord. in units 2pi/alat
        k(    1) = (   0.0000000   0.0000000   0.0000000), wk =   0.0138889
        k(    2) = (   0.0000000   0.0160032   0.0000000), wk =   0.0277778
        k(    3) = (   0.0000000   0.0320065   0.0000000), wk =   0.0277778
        k(    4) = (   0.0000000   0.0480097   0.0000000), wk =   0.0277778
        k(    5) = (   0.0000000   0.0640129   0.0000000), wk =   0.0277778
        k(    6) = (   0.0000000   0.0800162   0.0000000), wk =   0.0277778
        k(    7) = (   0.0000000  -0.0960194   0.0000000), wk =   0.0138889
        k(    8) = (   0.0149651  -0.0056701   0.0000000), wk =   0.0277778
        k(    9) = (   0.0149651   0.0103331   0.0000000), wk =   0.0277778
        k(   10) = (   0.0149651   0.0263364   0.0000000), wk =   0.0277778
        k(   11) = (   0.0149651   0.0423396   0.0000000), wk =   0.0277778
        k(   12) = (   0.0149651   0.0583428   0.0000000), wk =   0.0277778
        k(   13) = (   0.0149651   0.0743461   0.0000000), wk =   0.0277778
        k(   14) = (   0.0149651  -0.1016895   0.0000000), wk =   0.0277778
        k(   15) = (   0.0149651  -0.0856863   0.0000000), wk =   0.0277778
        k(   16) = (   0.0149651  -0.0696831   0.0000000), wk =   0.0277778
        k(   17) = (   0.0149651  -0.0536798   0.0000000), wk =   0.0277778
        k(   18) = (   0.0149651  -0.0376766   0.0000000), wk =   0.0277778
        k(   19) = (   0.0149651  -0.0216734   0.0000000), wk =   0.0277778
        k(   20) = (   0.0299301  -0.0113402   0.0000000), wk =   0.0277778
        k(   21) = (   0.0299301   0.0046630   0.0000000), wk =   0.0277778
        k(   22) = (   0.0299301   0.0206662   0.0000000), wk =   0.0277778
        k(   23) = (   0.0299301   0.0366695   0.0000000), wk =   0.0277778
        k(   24) = (   0.0299301   0.0526727   0.0000000), wk =   0.0277778
        k(   25) = (   0.0299301   0.0686759   0.0000000), wk =   0.0277778
        k(   26) = (   0.0299301  -0.1073597   0.0000000), wk =   0.0277778
        k(   27) = (   0.0299301  -0.0913564   0.0000000), wk =   0.0277778
        k(   28) = (   0.0299301  -0.0753532   0.0000000), wk =   0.0277778
        k(   29) = (   0.0299301  -0.0593499   0.0000000), wk =   0.0277778
        k(   30) = (   0.0299301  -0.0433467   0.0000000), wk =   0.0277778
        k(   31) = (   0.0299301  -0.0273435   0.0000000), wk =   0.0277778
        k(   32) = (   0.0448952  -0.0170104   0.0000000), wk =   0.0277778
        k(   33) = (   0.0448952  -0.0010071   0.0000000), wk =   0.0277778
        k(   34) = (   0.0448952   0.0149961   0.0000000), wk =   0.0277778
        k(   35) = (   0.0448952   0.0309993   0.0000000), wk =   0.0277778
        k(   36) = (   0.0448952   0.0470026   0.0000000), wk =   0.0277778
        k(   37) = (   0.0448952   0.0630058   0.0000000), wk =   0.0277778
        k(   38) = (   0.0448952  -0.1130298   0.0000000), wk =   0.0277778
        k(   39) = (   0.0448952  -0.0970265   0.0000000), wk =   0.0277778
        k(   40) = (   0.0448952  -0.0810233   0.0000000), wk =   0.0277778
        k(   41) = (   0.0448952  -0.0650201   0.0000000), wk =   0.0277778
        k(   42) = (   0.0448952  -0.0490168   0.0000000), wk =   0.0277778
        k(   43) = (   0.0448952  -0.0330136   0.0000000), wk =   0.0277778
        k(   44) = (   0.0598603  -0.0226805   0.0000000), wk =   0.0277778
        k(   45) = (   0.0598603  -0.0066772   0.0000000), wk =   0.0277778
        k(   46) = (   0.0598603   0.0093260   0.0000000), wk =   0.0277778
        k(   47) = (   0.0598603   0.0253292   0.0000000), wk =   0.0277778
        k(   48) = (   0.0598603   0.0413325   0.0000000), wk =   0.0277778
        k(   49) = (   0.0598603   0.0573357   0.0000000), wk =   0.0277778
        k(   50) = (   0.0598603  -0.1186999   0.0000000), wk =   0.0277778
        k(   51) = (   0.0598603  -0.1026967   0.0000000), wk =   0.0277778
        k(   52) = (   0.0598603  -0.0866934   0.0000000), wk =   0.0277778
        k(   53) = (   0.0598603  -0.0706902   0.0000000), wk =   0.0277778
        k(   54) = (   0.0598603  -0.0546870   0.0000000), wk =   0.0277778
        k(   55) = (   0.0598603  -0.0386837   0.0000000), wk =   0.0277778
        k(   56) = (   0.0748253  -0.0283506   0.0000000), wk =   0.0277778
        k(   57) = (   0.0748253  -0.0123474   0.0000000), wk =   0.0277778
        k(   58) = (   0.0748253   0.0036559   0.0000000), wk =   0.0277778
        k(   59) = (   0.0748253   0.0196591   0.0000000), wk =   0.0277778
        k(   60) = (   0.0748253   0.0356623   0.0000000), wk =   0.0277778
        k(   61) = (   0.0748253   0.0516656   0.0000000), wk =   0.0277778
        k(   62) = (   0.0748253  -0.1243700   0.0000000), wk =   0.0277778
        k(   63) = (   0.0748253  -0.1083668   0.0000000), wk =   0.0277778
        k(   64) = (   0.0748253  -0.0923635   0.0000000), wk =   0.0277778
        k(   65) = (   0.0748253  -0.0763603   0.0000000), wk =   0.0277778
        k(   66) = (   0.0748253  -0.0603571   0.0000000), wk =   0.0277778
        k(   67) = (   0.0748253  -0.0443538   0.0000000), wk =   0.0277778
        k(   68) = (  -0.0897904   0.0340207   0.0000000), wk =   0.0138889
        k(   69) = (  -0.0897904   0.0500240   0.0000000), wk =   0.0277778
        k(   70) = (  -0.0897904   0.0660272   0.0000000), wk =   0.0277778
        k(   71) = (  -0.0897904   0.0820304   0.0000000), wk =   0.0277778
        k(   72) = (  -0.0897904   0.0980337   0.0000000), wk =   0.0277778
        k(   73) = (  -0.0897904   0.1140369   0.0000000), wk =   0.0277778
        k(   74) = (  -0.0897904  -0.0619987   0.0000000), wk =   0.0138889

     Dense  grid:  1051299 G-vectors     FFT dimensions: (  80,  80, 360)

     Smooth grid:   265763 G-vectors     FFT dimensions: (  50,  50, 225)

     Estimated max dynamical RAM per process >     198.50 MB

     Estimated total dynamical RAM >       7.17 GB

     Initial potential from superposition of free atoms

     starting charge  137.97699, renormalised to  138.00000

     negative rho (up, down):  8.619E-04 0.000E+00


     %%%%%%%%%%%%%%%%%%%%%%%%%%%%%%%%%%%%%%%%%%%%%%%%%%%%%%%%%%%%%%%%%%%%%%%%
     %                                                                      %
     % You are using vdW-DF, which was implemented by the Thonhauser group. %
     % Please cite the following two papers that made this development      %
     % possible and the two reviews that describe the various versions:     %
     %                                                                      %
     %   T. Thonhauser et al., PRL 115, 136402 (2015).                      %
     %   T. Thonhauser et al., PRB 76, 125112 (2007).                       %
     %   K. Berland et al., Rep. Prog. Phys. 78, 066501 (2015).             %
     %   D.C. Langreth et al., J. Phys.: Condens. Matter 21, 084203 (2009). %
     %                                                                      %
     %                                                                      %
     % If you are calculating the stress with vdW-DF, please also cite:     %
     %                                                                      %
     %   R. Sabatini et al., J. Phys.: Condens. Matter 24, 424209 (2012).   %
     %                                                                      %
     %%%%%%%%%%%%%%%%%%%%%%%%%%%%%%%%%%%%%%%%%%%%%%%%%%%%%%%%%%%%%%%%%%%%%%%%



     Adding external electric field

     Computed dipole along edir(3) : 
        Dipole                0.0004 Ry au,          0.0011 Debye
        Dipole field          0.0000 Ry au, 

        Potential amp.       -0.0001 Ry
        Total length         45.2834 bohr

     Starting wfcs are  108 randomized atomic wfcs

     total cpu time spent up to now is      168.2 secs

     Self-consistent Calculation

     iteration #  1     ecut=    55.12 Ry     beta= 0.10
     Davidson diagonalization with overlap
     ethr =  1.00E-02,  avg # of iterations =  3.0

     Threshold (ethr) on eigenvalues was too large:
     Diagonalizing with lowered threshold

     Davidson diagonalization with overlap
     ethr =  3.08E-04,  avg # of iterations =  6.7

     negative rho (up, down):  8.469E-04 0.000E+00

     Adding external electric field

     Computed dipole along edir(3) : 
        Dipole               -0.0106 Ry au,         -0.0271 Debye
        Dipole field         -0.0000 Ry au, 

        Potential amp.        0.0025 Ry
        Total length         45.2834 bohr


     total cpu time spent up to now is      475.5 secs

     total energy              =   -1416.88516129 Ry
     estimated scf accuracy    <       0.46690611 Ry

     iteration #  2     ecut=    55.12 Ry     beta= 0.10
     Davidson diagonalization with overlap
     ethr =  3.38E-04,  avg # of iterations =  1.9

     negative rho (up, down):  8.450E-04 0.000E+00

     Adding external electric field

     Computed dipole along edir(3) : 
        Dipole                0.0360 Ry au,          0.0915 Debye
        Dipole field          0.0001 Ry au, 

        Potential amp.       -0.0085 Ry
        Total length         45.2834 bohr


     total cpu time spent up to now is      583.1 secs

     total energy              =   -1416.79387738 Ry
     estimated scf accuracy    <       0.24244937 Ry

     iteration #  3     ecut=    55.12 Ry     beta= 0.10
     Davidson diagonalization with overlap
     ethr =  1.76E-04,  avg # of iterations =  3.7

     negative rho (up, down):  8.384E-04 0.000E+00

     Adding external electric field

     Computed dipole along edir(3) : 
        Dipole               -0.0172 Ry au,         -0.0438 Debye
        Dipole field         -0.0000 Ry au, 

        Potential amp.        0.0041 Ry
        Total length         45.2834 bohr


     total cpu time spent up to now is      741.6 secs

     total energy              =   -1416.84793613 Ry
     estimated scf accuracy    <       0.02348619 Ry

     iteration #  4     ecut=    55.12 Ry     beta= 0.10
     Davidson diagonalization with overlap
     c_bands:  1 eigenvalues not converged
     c_bands:  2 eigenvalues not converged
     c_bands:  2 eigenvalues not converged
     c_bands:  1 eigenvalues not converged
     c_bands:  1 eigenvalues not converged
     c_bands:  1 eigenvalues not converged
     c_bands:  2 eigenvalues not converged
     c_bands:  1 eigenvalues not converged
     c_bands:  1 eigenvalues not converged
     c_bands:  2 eigenvalues not converged
     c_bands:  2 eigenvalues not converged
     c_bands:  1 eigenvalues not converged
     c_bands:  1 eigenvalues not converged
     c_bands:  1 eigenvalues not converged
     c_bands:  1 eigenvalues not converged
     c_bands:  1 eigenvalues not converged
     c_bands:  1 eigenvalues not converged
     c_bands:  1 eigenvalues not converged
     c_bands:  1 eigenvalues not converged
     c_bands:  1 eigenvalues not converged
     c_bands:  1 eigenvalues not converged
     c_bands:  1 eigenvalues not converged
     c_bands:  1 eigenvalues not converged
     c_bands:  1 eigenvalues not converged
     c_bands:  1 eigenvalues not converged
     ethr =  1.70E-05,  avg # of iterations = 13.4

     negative rho (up, down):  8.364E-04 0.000E+00

     Adding external electric field

     Computed dipole along edir(3) : 
        Dipole                0.0004 Ry au,          0.0011 Debye
        Dipole field          0.0000 Ry au, 

        Potential amp.       -0.0001 Ry
        Total length         45.2834 bohr


     total cpu time spent up to now is      966.1 secs

     total energy              =   -1416.85142084 Ry
     estimated scf accuracy    <       0.01702666 Ry

     iteration #  5     ecut=    55.12 Ry     beta= 0.10
     Davidson diagonalization with overlap
     ethr =  1.23E-05,  avg # of iterations =  3.0

     negative rho (up, down):  8.924E-04 0.000E+00

     Adding external electric field

     Computed dipole along edir(3) : 
        Dipole                0.0101 Ry au,          0.0257 Debye
        Dipole field          0.0000 Ry au, 

        Potential amp.       -0.0024 Ry
        Total length         45.2834 bohr


     total cpu time spent up to now is     1081.8 secs

     total energy              =   -1416.85240016 Ry
     estimated scf accuracy    <       0.01051165 Ry

     iteration #  6     ecut=    55.12 Ry     beta= 0.10
     Davidson diagonalization with overlap
     c_bands:  1 eigenvalues not converged
     c_bands:  1 eigenvalues not converged
     c_bands:  1 eigenvalues not converged
     ethr =  7.62E-06,  avg # of iterations =  3.1

     negative rho (up, down):  9.068E-04 0.000E+00

     Adding external electric field

     Computed dipole along edir(3) : 
        Dipole                0.0123 Ry au,          0.0312 Debye
        Dipole field          0.0000 Ry au, 

        Potential amp.       -0.0029 Ry
        Total length         45.2834 bohr


     total cpu time spent up to now is     1213.6 secs

     total energy              =   -1416.85315624 Ry
     estimated scf accuracy    <       0.00133450 Ry

     iteration #  7     ecut=    55.12 Ry     beta= 0.10
     Davidson diagonalization with overlap
     c_bands:  1 eigenvalues not converged
     c_bands:  1 eigenvalues not converged
     c_bands:  1 eigenvalues not converged
     c_bands:  1 eigenvalues not converged
     c_bands:  2 eigenvalues not converged
     c_bands:  1 eigenvalues not converged
     c_bands:  2 eigenvalues not converged
     c_bands:  2 eigenvalues not converged
     c_bands:  1 eigenvalues not converged
     c_bands:  1 eigenvalues not converged
     c_bands:  2 eigenvalues not converged
     c_bands:  1 eigenvalues not converged
     c_bands:  1 eigenvalues not converged
     c_bands:  2 eigenvalues not converged
     c_bands:  1 eigenvalues not converged
     c_bands:  2 eigenvalues not converged
     ethr =  9.67E-07,  avg # of iterations = 11.1

     negative rho (up, down):  8.973E-04 0.000E+00

     Adding external electric field

     Computed dipole along edir(3) : 
        Dipole                0.0102 Ry au,          0.0259 Debye
        Dipole field          0.0000 Ry au, 

        Potential amp.       -0.0024 Ry
        Total length         45.2834 bohr


     total cpu time spent up to now is     1428.8 secs

     total energy              =   -1416.85340663 Ry
     estimated scf accuracy    <       0.00070276 Ry

     iteration #  8     ecut=    55.12 Ry     beta= 0.10
     Davidson diagonalization with overlap
     c_bands:  1 eigenvalues not converged
     ethr =  5.09E-07,  avg # of iterations =  3.0

     negative rho (up, down):  8.964E-04 0.000E+00

     Adding external electric field

     Computed dipole along edir(3) : 
        Dipole                0.0107 Ry au,          0.0271 Debye
        Dipole field          0.0000 Ry au, 

        Potential amp.       -0.0025 Ry
        Total length         45.2834 bohr


     total cpu time spent up to now is     1552.1 secs

     total energy              =   -1416.85339524 Ry
     estimated scf accuracy    <       0.00028065 Ry

     iteration #  9     ecut=    55.12 Ry     beta= 0.10
     Davidson diagonalization with overlap
     ethr =  2.03E-07,  avg # of iterations =  2.1

     negative rho (up, down):  8.875E-04 0.000E+00

     Adding external electric field

     Computed dipole along edir(3) : 
        Dipole                0.0094 Ry au,          0.0239 Debye
        Dipole field          0.0000 Ry au, 

        Potential amp.       -0.0022 Ry
        Total length         45.2834 bohr


     total cpu time spent up to now is     1696.9 secs

     total energy              =   -1416.85342918 Ry
     estimated scf accuracy    <       0.00008386 Ry

     iteration # 10     ecut=    55.12 Ry     beta= 0.10
     Davidson diagonalization with overlap
     ethr =  6.08E-08,  avg # of iterations =  3.7

     negative rho (up, down):  8.808E-04 0.000E+00

     Adding external electric field

     Computed dipole along edir(3) : 
        Dipole                0.0096 Ry au,          0.0245 Debye
        Dipole field          0.0000 Ry au, 

        Potential amp.       -0.0023 Ry
        Total length         45.2834 bohr


     total cpu time spent up to now is     1863.1 secs

     total energy              =   -1416.85345084 Ry
     estimated scf accuracy    <       0.00002839 Ry

     iteration # 11     ecut=    55.12 Ry     beta= 0.10
     Davidson diagonalization with overlap
     ethr =  2.06E-08,  avg # of iterations =  2.7

     negative rho (up, down):  8.473E-04 0.000E+00

     Adding external electric field

     Computed dipole along edir(3) : 
        Dipole                0.0101 Ry au,          0.0256 Debye
        Dipole field          0.0000 Ry au, 

        Potential amp.       -0.0024 Ry
        Total length         45.2834 bohr


     total cpu time spent up to now is     1995.6 secs

     End of self-consistent calculation

          k = 0.0000 0.0000 0.0000 ( 33303 PWs)   bands (ev):

    -8.8696  -7.7985  -7.7432  -7.7248  -7.6902  -7.5895  -7.5868  -7.5853
    -7.5573  -7.4501  -7.4468  -7.4451  -7.4349  -7.3725  -7.3531  -7.3181
    -7.3092  -7.2859  -7.2192  -7.1830  -7.1803  -7.1584  -7.1320  -7.0995
    -7.0958  -7.0633  -7.0102  -7.0010  -6.9690  -6.9653  -6.8885  -6.6043
    -5.8486  -5.8304  -5.6377  -5.2098  -5.0119  -4.6855  -4.6411  -4.5703
    -4.4912  -4.3565  -4.3543  -4.1521  -4.0657  -3.9754  -3.9396  -3.8155
    -3.7991  -3.7745  -3.7058  -3.6585  -3.5773  -3.4425  -3.3664  -3.2808
    -3.2770  -3.2119  -3.2027  -3.1609  -3.1161  -2.7876  -2.3652  -1.0456
    -1.0266  -0.9170  -0.4862  -0.4140  -0.3283  -0.2564  -0.1685   1.0941
     1.5839   1.7454   1.9643   2.3237   2.5940   2.6127   3.2944   3.4907
     3.6387   3.8541   4.2056

          k = 0.0000 0.0160 0.0000 ( 33290 PWs)   bands (ev):

    -8.8262  -7.7897  -7.7303  -7.7139  -7.6835  -7.5813  -7.5787  -7.5650
    -7.5520  -7.4488  -7.4486  -7.4346  -7.4244  -7.3653  -7.3554  -7.3134
    -7.3005  -7.2802  -7.2126  -7.1798  -7.1790  -7.1571  -7.1309  -7.0981
    -7.0956  -7.0660  -7.0165  -7.0023  -6.9718  -6.9682  -6.8925  -6.5912
    -5.8409  -5.8359  -5.6344  -5.2386  -4.9976  -4.6865  -4.6281  -4.5553
    -4.5067  -4.4023  -4.3134  -4.2219  -4.0589  -3.9718  -3.9317  -3.8548
    -3.7999  -3.7524  -3.7013  -3.6913  -3.5774  -3.4660  -3.3858  -3.3384
    -3.3250  -3.2568  -3.1909  -3.1830  -3.1061  -2.8298  -2.3238  -1.7914
    -1.2332  -0.8018  -0.4356  -0.3895  -0.3178  -0.2125   0.2142   1.4340
     1.4494   1.9225   2.0183   2.0712   2.4410   2.9762   3.5127   3.5295
     3.6450   4.1495   4.2435

          k = 0.0000 0.0320 0.0000 ( 33274 PWs)   bands (ev):

    -8.6983  -7.7663  -7.6965  -7.6818  -7.6641  -7.5676  -7.5558  -7.5378
    -7.5054  -7.4499  -7.4441  -7.4046  -7.4009  -7.3586  -7.3463  -7.3001
    -7.2762  -7.2635  -7.1929  -7.1767  -7.1706  -7.1523  -7.1285  -7.0959
    -7.0935  -7.0727  -7.0331  -7.0063  -6.9796  -6.9783  -6.9048  -6.5459
    -5.8781  -5.7971  -5.6258  -5.3235  -4.9548  -4.6926  -4.5858  -4.5565
    -4.5113  -4.4427  -4.3559  -4.2810  -4.0685  -4.0357  -3.9344  -3.8835
    -3.7923  -3.7780  -3.7224  -3.6935  -3.5776  -3.5336  -3.4514  -3.4471
    -3.4278  -3.3600  -3.2424  -3.1883  -3.1532  -2.9457  -2.5266  -2.2092
    -1.5497  -1.4463  -0.5928  -0.2958   0.0208   0.0615   0.7689   1.0702
     1.7266   1.7956   2.3234   2.5022   2.9469   3.1467   3.6152   3.7832
     3.8674   4.3613   4.8519

          k = 0.0000 0.0480 0.0000 ( 33246 PWs)   bands (ev):

    -8.4931  -7.7369  -7.6519  -7.6348  -7.6325  -7.5479  -7.5249  -7.5177
    -7.4521  -7.4498  -7.4355  -7.3721  -7.3637  -7.3400  -7.3221  -7.2802
    -7.2407  -7.2381  -7.1758  -7.1619  -7.1558  -7.1436  -7.1281  -7.1004
    -7.0878  -7.0749  -7.0523  -7.0131  -6.9988  -6.9893  -6.9264  -6.4506
    -5.9773  -5.7308  -5.6218  -5.4330  -4.8847  -4.7035  -4.6321  -4.5212
    -4.5161  -4.4534  -4.4514  -4.2639  -4.2083  -4.0372  -3.9963  -3.8819
    -3.8664  -3.7730  -3.7194  -3.7134  -3.6258  -3.6079  -3.5773  -3.5498
    -3.5137  -3.4603  -3.3544  -3.3222  -3.1910  -3.1269  -3.0217  -2.2328
    -2.0418  -1.5632  -0.7937  -0.2160   0.3073   0.3843   0.6181   0.7264
     2.1757   2.2447   2.6853   2.7550   3.3009   3.7022   3.7733   4.3151
     4.4742   4.5648   4.7457

          k = 0.0000 0.0640 0.0000 ( 33254 PWs)   bands (ev):

    -8.2288  -7.7125  -7.6067  -7.5991  -7.5736  -7.5264  -7.5053  -7.4925
    -7.4490  -7.4475  -7.4223  -7.3463  -7.3149  -7.2998  -7.2936  -7.2580
    -7.2095  -7.2032  -7.1724  -7.1382  -7.1376  -7.1316  -7.1268  -7.1150
    -7.0822  -7.0626  -7.0614  -7.0302  -7.0216  -6.9954  -6.9580  -6.2834
    -6.2136  -5.6408  -5.6283  -5.4879  -4.7945  -4.7195  -4.7175  -4.6475
    -4.5572  -4.4707  -4.3836  -4.2473  -4.2225  -4.1424  -3.9801  -3.9271
    -3.9176  -3.8471  -3.8127  -3.7857  -3.7716  -3.6348  -3.6333  -3.6126
    -3.6007  -3.5571  -3.5137  -3.4056  -3.3561  -3.3039  -3.1850  -2.7132
    -1.8447  -1.5856  -0.9446  -0.2061  -0.1219   0.4563   0.8462   1.2159
     2.1755   2.5263   2.6650   3.3629   3.8004   3.9512   4.1043   4.1450
     4.8258   4.9090   5.1206

          k = 0.0000 0.0800 0.0000 ( 33246 PWs)   bands (ev):

    -7.9527  -7.7088  -7.5677  -7.5615  -7.5175  -7.5052  -7.5011  -7.4849
    -7.4686  -7.4430  -7.3977  -7.3339  -7.2845  -7.2833  -7.2494  -7.2376
    -7.1968  -7.1891  -7.1463  -7.1458  -7.1384  -7.1278  -7.1135  -7.0915
    -7.0820  -7.0704  -7.0534  -7.0491  -7.0257  -6.9967  -6.9723  -6.5508
    -6.0482  -5.6511  -5.5490  -5.5058  -4.8016  -4.7947  -4.7448  -4.7138
    -4.6329  -4.4764  -4.2839  -4.2234  -4.2034  -4.1023  -4.0869  -4.0215
    -3.9606  -3.9396  -3.9251  -3.9089  -3.7950  -3.7268  -3.6901  -3.6629
    -3.6214  -3.5957  -3.5403  -3.5321  -3.4996  -3.4714  -3.1554  -2.9628
    -1.6566  -1.5621  -1.0106  -0.6237  -0.0236   0.2525   1.3813   1.8743
     2.1770   2.3447   2.5723   3.3503   3.4335   4.2485   4.5984   4.7431
     4.9092   5.1889   5.2520

          k = 0.0000-0.0960 0.0000 ( 33236 PWs)   bands (ev):

    -7.7654  -7.7654  -7.5376  -7.5376  -7.5162  -7.5162  -7.4837  -7.4837
    -7.4576  -7.4576  -7.3548  -7.3548  -7.2790  -7.2790  -7.2249  -7.2249
    -7.1960  -7.1960  -7.1494  -7.1494  -7.1234  -7.1234  -7.1029  -7.1029
    -7.0697  -7.0697  -7.0536  -7.0536  -7.0240  -7.0240  -6.8381  -6.8381
    -5.8020  -5.8019  -5.5034  -5.5034  -4.8492  -4.8492  -4.7540  -4.7540
    -4.5334  -4.5334  -4.2338  -4.2338  -4.1848  -4.1848  -4.0580  -4.0580
    -3.9635  -3.9635  -3.9004  -3.9004  -3.8555  -3.8555  -3.7221  -3.7221
    -3.6290  -3.6290  -3.5588  -3.5588  -3.5053  -3.5053  -3.0883  -3.0883
    -1.5574  -1.5574  -0.9125  -0.9125   0.0977   0.0977   1.9683   1.9683
     2.2278   2.2279   2.5967   2.5967   4.0771   4.0771   4.5506   4.5506
     5.3249   5.3251   5.7770

          k = 0.0150-0.0057 0.0000 ( 33290 PWs)   bands (ev):

    -8.8262  -7.7897  -7.7303  -7.7139  -7.6835  -7.5813  -7.5787  -7.5650
    -7.5520  -7.4488  -7.4486  -7.4346  -7.4244  -7.3653  -7.3554  -7.3134
    -7.3005  -7.2802  -7.2126  -7.1798  -7.1790  -7.1571  -7.1309  -7.0981
    -7.0956  -7.0660  -7.0165  -7.0023  -6.9718  -6.9682  -6.8925  -6.5912
    -5.8409  -5.8359  -5.6344  -5.2386  -4.9976  -4.6865  -4.6281  -4.5553
    -4.5067  -4.4023  -4.3134  -4.2219  -4.0589  -3.9718  -3.9317  -3.8548
    -3.7999  -3.7524  -3.7013  -3.6913  -3.5774  -3.4660  -3.3858  -3.3384
    -3.3250  -3.2568  -3.1909  -3.1830  -3.1061  -2.8298  -2.3238  -1.7914
    -1.2332  -0.8018  -0.4356  -0.3895  -0.3178  -0.2125   0.2142   1.4340
     1.4494   1.9225   2.0183   2.0712   2.4410   2.9762   3.5127   3.5295
     3.6450   4.1495   4.2436

          k = 0.0150 0.0103 0.0000 ( 33303 PWs)   bands (ev):

    -8.8126  -7.7841  -7.7259  -7.7158  -7.6824  -7.5804  -7.5748  -7.5551
    -7.5469  -7.4446  -7.4398  -7.4365  -7.4256  -7.3638  -7.3518  -7.3132
    -7.3015  -7.2761  -7.2086  -7.1800  -7.1793  -7.1495  -7.1309  -7.0921
    -7.0911  -7.0633  -7.0166  -7.0082  -6.9686  -6.9596  -6.8897  -6.5821
    -5.8256  -5.8188  -5.6346  -5.2011  -5.0247  -4.7008  -4.6536  -4.5875
    -4.5495  -4.3927  -4.3858  -4.3406  -4.0639  -3.9930  -3.8449  -3.8336
    -3.8218  -3.7827  -3.6946  -3.6802  -3.5894  -3.5005  -3.4041  -3.3558
    -3.2925  -3.2387  -3.2319  -3.1612  -3.0229  -2.8251  -2.3083  -1.4522
    -1.3362  -0.8537  -0.5649  -0.3894  -0.3434  -0.1955   0.0737   0.8804
     1.3720   1.9689   2.1199   2.3016   2.4191   2.9898   3.5373   3.6869
     3.7147   3.9499   4.2539

          k = 0.0150 0.0263 0.0000 ( 33253 PWs)   bands (ev):

    -8.7135  -7.7629  -7.7009  -7.6943  -7.6688  -7.5690  -7.5561  -7.5327
    -7.5063  -7.4438  -7.4287  -7.4173  -7.4079  -7.3521  -7.3500  -7.3032
    -7.2858  -7.2617  -7.1917  -7.1776  -7.1740  -7.1395  -7.1290  -7.0887
    -7.0823  -7.0650  -7.0264  -7.0160  -6.9710  -6.9593  -6.8949  -6.5429
    -5.8211  -5.7898  -5.6288  -5.2296  -5.0231  -4.7152  -4.6549  -4.6285
    -4.5886  -4.4683  -4.4586  -4.3779  -4.0625  -4.0584  -3.8742  -3.8736
    -3.7855  -3.7691  -3.7628  -3.6801  -3.6017  -3.5567  -3.4817  -3.3805
    -3.3557  -3.2962  -3.2383  -3.1830  -3.0138  -2.8792  -2.2165  -2.1928
    -1.2471  -1.1704  -0.9384  -0.4460  -0.0312  -0.0198   0.3767   0.7553
     1.4731   1.6564   2.4544   2.4831   2.6549   3.1232   3.6308   3.6629
     4.2958   4.3449   4.7828

          k = 0.0150 0.0423 0.0000 ( 33248 PWs)   bands (ev):

    -8.5347  -7.7341  -7.6633  -7.6521  -7.6453  -7.5510  -7.5271  -7.5135
    -7.4457  -7.4429  -7.4156  -7.3825  -7.3814  -7.3451  -7.3299  -7.2854
    -7.2574  -7.2388  -7.1762  -7.1637  -7.1618  -7.1307  -7.1249  -7.0872
    -7.0784  -7.0615  -7.0410  -7.0250  -6.9779  -6.9699  -6.9088  -6.4574
    -5.8768  -5.7286  -5.6211  -5.3339  -4.9915  -4.7297  -4.7063  -4.6355
    -4.5718  -4.5607  -4.5308  -4.3724  -4.1659  -4.0440  -3.9678  -3.9148
    -3.8800  -3.7945  -3.7502  -3.7425  -3.6257  -3.5691  -3.5351  -3.4910
    -3.4597  -3.3666  -3.2416  -3.2368  -3.1121  -2.9860  -2.7833  -2.0709
    -1.9029  -1.5173  -0.6955  -0.3447  -0.0396   0.3117   0.3962   0.5713
     1.5187   2.1016   2.3007   2.7552   3.5580   3.6619   3.7024   3.9418
     4.5116   4.7723   4.8899

          k = 0.0150 0.0583 0.0000 ( 33227 PWs)   bands (ev):

    -8.2898  -7.7068  -7.6160  -7.6147  -7.6022  -7.5303  -7.5008  -7.4934
    -7.4401  -7.4247  -7.4007  -7.3553  -7.3428  -7.3093  -7.3034  -7.2635
    -7.2237  -7.2122  -7.1756  -7.1457  -7.1338  -7.1280  -7.1174  -7.0949
    -7.0766  -7.0502  -7.0474  -7.0345  -6.9934  -6.9861  -6.9327  -6.3024
    -6.0717  -5.6496  -5.6197  -5.4284  -4.9318  -4.7818  -4.7499  -4.6598
    -4.6214  -4.5687  -4.5051  -4.3600  -4.2650  -4.0745  -4.0527  -3.9705
    -3.9686  -3.8967  -3.7825  -3.7764  -3.7090  -3.5939  -3.5682  -3.5663
    -3.5376  -3.4237  -3.3980  -3.3207  -3.2280  -3.1381  -3.0645  -2.5072
    -1.9470  -1.6211  -0.7927  -0.3352  -0.0240   0.3070   0.7203   0.7317
     1.7605   1.8177   2.9040   3.3254   3.5838   3.9122   4.0840   4.6833
     4.7637   5.1521   5.2718

          k = 0.0150 0.0743 0.0000 ( 33209 PWs)   bands (ev):

    -8.0131  -7.6917  -7.5804  -7.5726  -7.5456  -7.5118  -7.4932  -7.4795
    -7.4426  -7.4369  -7.3813  -7.3376  -7.2919  -7.2917  -7.2665  -7.2421
    -7.1989  -7.1895  -7.1634  -7.1426  -7.1264  -7.1212  -7.1147  -7.0934
    -7.0650  -7.0565  -7.0454  -7.0336  -7.0251  -6.9781  -6.9658  -6.4137
    -6.0712  -5.6521  -5.5827  -5.4440  -4.8822  -4.8646  -4.7706  -4.7189
    -4.6563  -4.5454  -4.4182  -4.3297  -4.2520  -4.1797  -4.1569  -4.0259
    -4.0084  -3.8890  -3.8784  -3.8483  -3.8400  -3.6469  -3.6313  -3.6107
    -3.5592  -3.5346  -3.4828  -3.4105  -3.3266  -3.2755  -3.1939  -2.8889
    -1.9820  -1.4646  -0.9606  -0.5555  -0.2459   0.8376   0.8926   1.2390
     1.6131   2.2193   2.9843   3.0282   4.0013   4.1773   4.4820   4.9914
     5.0530   5.1056   5.4398

          k = 0.0150-0.1017 0.0000 ( 33237 PWs)   bands (ev):

    -7.7873  -7.7124  -7.5475  -7.5360  -7.5090  -7.5079  -7.4849  -7.4772
    -7.4677  -7.4443  -7.3505  -7.3455  -7.2792  -7.2669  -7.2367  -7.2244
    -7.2007  -7.1778  -7.1454  -7.1414  -7.1406  -7.1158  -7.1061  -7.0920
    -7.0724  -7.0677  -7.0511  -7.0421  -7.0377  -6.9984  -6.8856  -6.7552
    -5.8077  -5.7844  -5.5748  -5.4417  -4.9335  -4.8414  -4.7653  -4.7371
    -4.6321  -4.5087  -4.3193  -4.3056  -4.2436  -4.1573  -4.1284  -4.0711
    -4.0286  -3.9620  -3.9249  -3.9207  -3.8133  -3.7117  -3.6836  -3.6635
    -3.6460  -3.5615  -3.5458  -3.5118  -3.4905  -3.4228  -3.1225  -3.0527
    -2.0771  -1.2149  -1.1727  -0.7208  -0.3110   0.9990   1.4734   1.4911
     1.8129   2.1753   3.0768   3.1250   3.7247   4.3144   4.5008   4.8644
     4.9341   5.4654   5.4861

          k = 0.0150-0.0857 0.0000 ( 33250 PWs)   bands (ev):

    -7.8379  -7.6967  -7.5513  -7.5344  -7.5129  -7.5021  -7.4842  -7.4837
    -7.4697  -7.4463  -7.3998  -7.3223  -7.2737  -7.2655  -7.2272  -7.2221
    -7.1992  -7.1889  -7.1577  -7.1502  -7.1218  -7.1186  -7.1082  -7.1037
    -7.0843  -7.0701  -7.0643  -7.0556  -7.0302  -7.0080  -6.9501  -6.6482
    -6.0078  -5.6779  -5.5479  -5.5068  -4.8491  -4.8411  -4.7159  -4.6962
    -4.5459  -4.5178  -4.3502  -4.1865  -4.1555  -4.0867  -4.0363  -4.0248
    -3.9642  -3.9284  -3.9180  -3.8848  -3.8777  -3.8303  -3.7269  -3.7250
    -3.6842  -3.6432  -3.5930  -3.5476  -3.5235  -3.4527  -3.1216  -2.9967
    -2.1735  -1.4885  -0.8586  -0.7976  -0.2507   1.1306   1.3884   1.6202
     2.1690   2.4282   3.0203   3.2930   3.7612   4.1961   4.3892   4.4795
     4.8241   5.2433   5.3607

          k = 0.0150-0.0697 0.0000 ( 33238 PWs)   bands (ev):

    -8.0930  -7.6911  -7.5858  -7.5724  -7.5325  -7.5136  -7.5034  -7.4857
    -7.4676  -7.4453  -7.4397  -7.3256  -7.2848  -7.2762  -7.2607  -7.2428
    -7.2045  -7.1871  -7.1533  -7.1521  -7.1472  -7.1287  -7.1222  -7.1152
    -7.0860  -7.0768  -7.0753  -7.0619  -7.0105  -6.9975  -6.9901  -6.3266
    -6.2403  -5.7045  -5.6134  -5.4877  -4.7825  -4.7319  -4.6563  -4.6115
    -4.5613  -4.4338  -4.3385  -4.1464  -4.1168  -4.0535  -3.9855  -3.9146
    -3.9063  -3.8993  -3.8772  -3.8682  -3.7762  -3.7550  -3.6961  -3.6710
    -3.6619  -3.6146  -3.5754  -3.5459  -3.5230  -3.4581  -3.1482  -2.7752
    -2.2560  -1.7399  -0.9535  -0.3621  -0.1269   1.0600   1.3317   1.3324
     2.3899   2.8209   3.0410   3.4758   3.6823   3.8441   4.0811   4.2980
     4.3451   4.9883   5.1841

          k = 0.0150-0.0537 0.0000 ( 33262 PWs)   bands (ev):

    -8.3695  -7.7157  -7.6274  -7.6121  -7.5931  -7.5357  -7.5186  -7.5076
    -7.4569  -7.4495  -7.4493  -7.3495  -7.3297  -7.3101  -7.2993  -7.2650
    -7.2316  -7.2100  -7.1714  -7.1567  -7.1536  -7.1440  -7.1260  -7.1214
    -7.0969  -7.0862  -7.0667  -7.0324  -7.0074  -6.9960  -6.9521  -6.4171
    -6.0683  -5.7103  -5.6742  -5.4885  -4.7761  -4.6876  -4.6834  -4.4329
    -4.4223  -4.3845  -4.3700  -4.2209  -4.1511  -4.0970  -3.9602  -3.9370
    -3.8301  -3.7570  -3.7542  -3.7217  -3.7060  -3.6390  -3.6295  -3.6194
    -3.5742  -3.5487  -3.5210  -3.4138  -3.3791  -3.2620  -3.1542  -2.4059
    -2.2735  -1.9579  -1.0245   0.0232   0.1610   0.5897   1.2332   1.5668
     1.9088   2.7391   3.1280   3.1609   3.3817   3.7527   3.8552   3.9217
     4.1844   4.6856   4.9569

          k = 0.0150-0.0377 0.0000 ( 33309 PWs)   bands (ev):

    -8.5982  -7.7488  -7.6726  -7.6487  -7.6464  -7.5572  -7.5431  -7.5325
    -7.4745  -7.4560  -7.4505  -7.3804  -7.3750  -7.3563  -7.3276  -7.2873
    -7.2569  -7.2510  -7.1838  -7.1724  -7.1625  -7.1609  -7.1257  -7.1057
    -7.1028  -7.0829  -7.0494  -7.0035  -6.9994  -6.9907  -6.9230  -6.5225
    -5.9431  -5.7802  -5.6258  -5.4345  -4.8679  -4.6834  -4.5913  -4.4902
    -4.3993  -4.3940  -4.2448  -4.1779  -4.1681  -4.0147  -4.0122  -3.9878
    -3.7703  -3.7459  -3.7197  -3.6864  -3.5986  -3.5674  -3.5290  -3.5014
    -3.4692  -3.4459  -3.3682  -3.3300  -3.1558  -3.1169  -2.7842  -2.2752
    -2.1354  -1.7517  -1.0452   0.1188   0.2089   0.7093   0.9434   1.7153
     1.8122   2.0616   2.1433   2.7276   3.2058   3.3261   3.6614   3.8748
     4.4549   4.5814   4.7668

          k = 0.0150-0.0217 0.0000 ( 33334 PWs)   bands (ev):

    -8.7537  -7.7767  -7.7104  -7.6908  -7.6711  -7.5732  -7.5674  -7.5467
    -7.5304  -7.4543  -7.4511  -7.4127  -7.4078  -7.3616  -7.3523  -7.3044
    -7.2830  -7.2736  -7.2041  -7.1756  -7.1733  -7.1623  -7.1288  -7.1025
    -7.0994  -7.0734  -7.0284  -6.9989  -6.9828  -6.9802  -6.9034  -6.5740
    -5.8812  -5.8213  -5.6276  -5.3236  -4.9442  -4.6810  -4.5725  -4.5248
    -4.4901  -4.4024  -4.2411  -4.1493  -4.0457  -4.0290  -4.0158  -3.9225
    -3.7712  -3.7218  -3.7169  -3.7161  -3.5795  -3.4745  -3.4492  -3.4183
    -3.3417  -3.3354  -3.2451  -3.2253  -3.1647  -2.9251  -2.2621  -2.1560
    -2.0197  -1.0425  -0.9484  -0.0913   0.0253   0.4348   0.6564   1.6821
     1.6994   1.9165   2.1204   2.2595   2.3798   2.6892   3.5663   4.0514
     4.2345   4.3141   4.6046

          k = 0.0299-0.0113 0.0000 ( 33274 PWs)   bands (ev):

    -8.6983  -7.7663  -7.6965  -7.6818  -7.6641  -7.5676  -7.5558  -7.5378
    -7.5054  -7.4499  -7.4441  -7.4046  -7.4009  -7.3586  -7.3463  -7.3001
    -7.2762  -7.2635  -7.1929  -7.1767  -7.1706  -7.1523  -7.1285  -7.0959
    -7.0935  -7.0727  -7.0331  -7.0063  -6.9796  -6.9783  -6.9048  -6.5459
    -5.8781  -5.7971  -5.6258  -5.3235  -4.9548  -4.6926  -4.5858  -4.5565
    -4.5113  -4.4427  -4.3559  -4.2810  -4.0685  -4.0357  -3.9344  -3.8835
    -3.7923  -3.7780  -3.7224  -3.6935  -3.5776  -3.5336  -3.4514  -3.4471
    -3.4278  -3.3600  -3.2424  -3.1883  -3.1532  -2.9457  -2.5266  -2.2092
    -1.5497  -1.4463  -0.5928  -0.2958   0.0208   0.0615   0.7689   1.0702
     1.7266   1.7956   2.3234   2.5022   2.9469   3.1467   3.6152   3.7832
     3.8674   4.3613   4.8516

          k = 0.0299 0.0047 0.0000 ( 33253 PWs)   bands (ev):

    -8.7135  -7.7629  -7.7009  -7.6943  -7.6688  -7.5690  -7.5561  -7.5327
    -7.5063  -7.4438  -7.4287  -7.4173  -7.4079  -7.3521  -7.3500  -7.3032
    -7.2858  -7.2617  -7.1917  -7.1776  -7.1740  -7.1395  -7.1290  -7.0887
    -7.0823  -7.0650  -7.0264  -7.0160  -6.9710  -6.9593  -6.8949  -6.5429
    -5.8211  -5.7898  -5.6288  -5.2296  -5.0231  -4.7152  -4.6549  -4.6285
    -4.5886  -4.4683  -4.4586  -4.3779  -4.0625  -4.0584  -3.8742  -3.8736
    -3.7855  -3.7691  -3.7628  -3.6801  -3.6017  -3.5567  -3.4817  -3.3805
    -3.3557  -3.2962  -3.2383  -3.1830  -3.0138  -2.8792  -2.2165  -2.1928
    -1.2471  -1.1704  -0.9384  -0.4460  -0.0312  -0.0198   0.3767   0.7553
     1.4731   1.6564   2.4544   2.4831   2.6549   3.1232   3.6306   3.6629
     4.2958   4.3447   4.7829

          k = 0.0299 0.0207 0.0000 ( 33269 PWs)   bands (ev):

    -8.6438  -7.7421  -7.6927  -7.6777  -7.6616  -7.5609  -7.5435  -7.5185
    -7.4719  -7.4359  -7.4111  -7.4086  -7.3996  -7.3480  -7.3410  -7.2955
    -7.2792  -7.2512  -7.1791  -7.1757  -7.1717  -7.1275  -7.1249  -7.0823
    -7.0725  -7.0585  -7.0286  -7.0271  -6.9674  -6.9491  -6.8927  -6.5116
    -5.7822  -5.7587  -5.6249  -5.1767  -5.0677  -4.7850  -4.7520  -4.6898
    -4.6280  -4.5565  -4.4733  -4.4612  -4.1172  -4.0770  -3.9305  -3.8468
    -3.8096  -3.7805  -3.7713  -3.7242  -3.6480  -3.5486  -3.5090  -3.3628
    -3.3240  -3.3185  -3.2730  -3.1641  -2.9730  -2.8607  -2.1565  -2.0124
    -1.7721  -1.5161  -0.6778  -0.6623  -0.2333   0.1173   0.3944   0.7505
     1.7478   1.9031   1.9419   2.0783   2.5691   3.5595   3.8797   4.4050
     4.4784   4.5835   4.7585

          k = 0.0299 0.0367 0.0000 ( 33219 PWs)   bands (ev):

    -8.4933  -7.7115  -7.6681  -7.6445  -7.6427  -7.5451  -7.5208  -7.4992
    -7.4295  -7.4242  -7.3931  -7.3787  -7.3779  -7.3424  -7.3250  -7.2777
    -7.2581  -7.2327  -7.1732  -7.1637  -7.1551  -7.1260  -7.1092  -7.0777
    -7.0713  -7.0462  -7.0378  -7.0358  -6.9693  -6.9497  -6.8985  -6.4379
    -5.7832  -5.7061  -5.6174  -5.2370  -5.0857  -4.8898  -4.7847  -4.7037
    -4.6531  -4.6333  -4.5485  -4.4699  -4.1943  -4.0930  -3.9873  -3.9166
    -3.8849  -3.8665  -3.8025  -3.7378  -3.6865  -3.5299  -3.5031  -3.4360
    -3.4125  -3.3132  -3.2898  -3.1866  -3.0068  -2.8930  -2.5349  -2.1792
    -1.9836  -1.4354  -1.2030  -0.6861  -0.0863   0.3486   0.3639   0.8881
     1.5145   1.9905   2.0884   2.1858   3.3647   3.7332   4.3596   4.5114
     4.5676   4.8904   5.0126

          k = 0.0299 0.0527 0.0000 ( 33209 PWs)   bands (ev):

    -8.2729  -7.6799  -7.6274  -7.6202  -7.6013  -7.5256  -7.4970  -7.4801
    -7.4231  -7.3936  -7.3757  -7.3589  -7.3550  -7.3061  -7.2999  -7.2551
    -7.2311  -7.2103  -7.1712  -7.1502  -7.1279  -7.1244  -7.0991  -7.0805
    -7.0703  -7.0470  -7.0402  -7.0301  -6.9756  -6.9628  -6.9141  -6.2988
    -5.9110  -5.6471  -5.6143  -5.3743  -5.0741  -4.8957  -4.8050  -4.7335
    -4.7059  -4.6176  -4.6091  -4.4652  -4.2768  -4.1323  -4.0664  -4.0168
    -3.9803  -3.9719  -3.8176  -3.7578  -3.7321  -3.5578  -3.5259  -3.5225
    -3.4739  -3.3439  -3.2866  -3.2404  -3.1541  -3.0376  -2.8949  -2.3817
    -2.1094  -1.8046  -1.0208  -0.7135  -0.0153   0.5530   0.6182   0.7336
     1.1890   1.9791   2.5962   3.1125   3.8284   3.9227   4.2909   4.6832
     4.7717   5.0031   5.3883

          k = 0.0299 0.0687 0.0000 ( 33202 PWs)   bands (ev):

    -8.0087  -7.6547  -7.5914  -7.5768  -7.5611  -7.5070  -7.4845  -7.4662
    -7.4200  -7.4073  -7.3587  -7.3363  -7.3159  -7.2870  -7.2530  -7.2332
    -7.2084  -7.1900  -7.1673  -7.1355  -7.1317  -7.1051  -7.0984  -7.0899
    -7.0623  -7.0500  -7.0401  -7.0178  -6.9887  -6.9755  -6.9404  -6.2366
    -6.0808  -5.6403  -5.6261  -5.4012  -5.0189  -4.9661  -4.8103  -4.7264
    -4.7101  -4.6481  -4.5603  -4.4396  -4.3286  -4.2677  -4.1210  -4.0928
    -4.0402  -3.9639  -3.8700  -3.8124  -3.7882  -3.6836  -3.5885  -3.5265
    -3.4611  -3.4507  -3.3993  -3.3306  -3.2421  -3.1395  -3.0606  -2.6469
    -2.5090  -1.5593  -1.2555  -0.5260  -0.1259   0.5419   0.9521   1.2013
     1.2529   1.9226   3.0855   3.3006   3.9807   4.1682   4.5286   4.6301
     5.0608   5.6238   5.6857

          k = 0.0299-0.1074 0.0000 ( 33221 PWs)   bands (ev):

    -7.7674  -7.6466  -7.5606  -7.5322  -7.5167  -7.4936  -7.4901  -7.4625
    -7.4382  -7.4306  -7.3347  -7.3325  -7.2688  -7.2669  -7.2368  -7.2151
    -7.1913  -7.1749  -7.1504  -7.1446  -7.1180  -7.1176  -7.1064  -7.0759
    -7.0691  -7.0587  -7.0500  -7.0244  -7.0167  -6.9724  -6.9094  -6.6200
    -5.8134  -5.7480  -5.6771  -5.3840  -5.0359  -4.9027  -4.8347  -4.7280
    -4.6930  -4.5805  -4.4803  -4.4109  -4.3514  -4.2986  -4.1330  -4.0950
    -4.0593  -3.9252  -3.9138  -3.9026  -3.8333  -3.7537  -3.6606  -3.6281
    -3.5057  -3.4813  -3.4768  -3.4129  -3.3127  -3.2191  -3.1701  -2.9835
    -2.6022  -1.4384  -1.2450  -0.9385   0.3881   0.6615   0.7942   1.7391
     1.8454   2.0215   2.7321   3.5507   4.1004   4.3661   4.4908   4.9501
     5.0683   5.4342   5.8522

          k = 0.0299-0.0914 0.0000 ( 33252 PWs)   bands (ev):

    -7.6971  -7.6521  -7.5341  -7.5137  -7.5063  -7.4963  -7.4732  -7.4712
    -7.4583  -7.4547  -7.3730  -7.3077  -7.2538  -7.2445  -7.2243  -7.2063
    -7.1932  -7.1659  -7.1519  -7.1461  -7.1409  -7.1052  -7.1034  -7.0967
    -7.0818  -7.0727  -7.0567  -7.0480  -7.0458  -6.9895  -6.8954  -6.7081
    -5.9431  -5.7999  -5.5300  -5.4497  -4.9634  -4.9273  -4.7167  -4.7074
    -4.6055  -4.5298  -4.4342  -4.3461  -4.2563  -4.1732  -4.0990  -4.0880
    -4.0072  -3.9367  -3.9270  -3.8931  -3.8290  -3.7800  -3.7226  -3.6689
    -3.6319  -3.5690  -3.5371  -3.5019  -3.4850  -3.3605  -3.0910  -3.0366
    -2.6831  -1.5656  -1.2917  -0.8862   0.6017   0.6950   1.2221   1.8029
     2.1535   2.3333   2.8938   3.7048   4.1338   4.2117   4.2875   4.6240
     4.8386   5.6007   5.6940

          k = 0.0299-0.0754 0.0000 ( 33273 PWs)   bands (ev):

    -7.8949  -7.6435  -7.5552  -7.5357  -7.5040  -7.4950  -7.4894  -7.4791
    -7.4763  -7.4459  -7.4403  -7.2981  -7.2496  -7.2475  -7.2229  -7.2214
    -7.2017  -7.1755  -7.1715  -7.1579  -7.1197  -7.1184  -7.1144  -7.1059
    -7.0966  -7.0894  -7.0792  -7.0708  -7.0264  -6.9982  -6.9873  -6.4020
    -6.1641  -5.8674  -5.5635  -5.4188  -4.9050  -4.7912  -4.6940  -4.5563
    -4.5142  -4.4906  -4.4137  -4.1630  -4.1062  -4.0882  -3.9842  -3.9637
    -3.9505  -3.9180  -3.9001  -3.8633  -3.8513  -3.8027  -3.7364  -3.7256
    -3.6994  -3.6825  -3.6267  -3.5457  -3.5085  -3.4278  -3.1195  -2.8449
    -2.7107  -1.6715  -1.5818  -0.4505   0.6436   0.7621   1.3664   1.9422
     2.2402   2.9567   3.0918   3.5719   3.5896   4.1752   4.2352   4.3764
     4.7952   5.0729   5.2333

          k = 0.0299-0.0593 0.0000 ( 33280 PWs)   bands (ev):

    -8.1708  -7.6734  -7.5913  -7.5781  -7.5421  -7.5157  -7.5078  -7.4910
    -7.4700  -7.4635  -7.4442  -7.3156  -7.2790  -7.2665  -7.2624  -7.2413
    -7.2208  -7.1803  -7.1669  -7.1572  -7.1528  -7.1394  -7.1234  -7.1229
    -7.1029  -7.0923  -7.0779  -7.0677  -7.0129  -6.9888  -6.9856  -6.3462
    -6.1338  -5.8434  -5.6645  -5.4485  -4.7864  -4.7152  -4.6419  -4.5502
    -4.4146  -4.3649  -4.3109  -4.0861  -4.0638  -4.0351  -4.0241  -3.9425
    -3.9080  -3.9070  -3.8276  -3.7934  -3.7422  -3.7124  -3.7113  -3.6817
    -3.6387  -3.6118  -3.5865  -3.5166  -3.4605  -3.4581  -3.1287  -2.8483
    -2.3648  -1.8175  -1.7505   0.0689   0.6336   0.8768   0.9293   2.2973
     2.4733   2.7466   2.9696   3.4998   3.5651   3.6530   3.9928   4.0880
     4.6002   4.8915   4.9044

          k = 0.0299-0.0433 0.0000 ( 33270 PWs)   bands (ev):

    -8.4179  -7.7141  -7.6340  -7.6167  -7.6000  -7.5390  -7.5242  -7.5156
    -7.4664  -7.4531  -7.4480  -7.3489  -7.3346  -7.3153  -7.2973  -7.2667
    -7.2423  -7.2129  -7.1743  -7.1655  -7.1616  -7.1460  -7.1237  -7.1227
    -7.1074  -7.0922  -7.0683  -7.0333  -7.0060  -6.9912  -6.9500  -6.4624
    -6.0122  -5.7369  -5.7037  -5.4860  -4.7719  -4.6791  -4.6730  -4.4026
    -4.3848  -4.3312  -4.2361  -4.1551  -4.1302  -4.0775  -4.0757  -3.9914
    -3.7706  -3.7380  -3.7282  -3.6933  -3.6848  -3.6628  -3.6613  -3.5914
    -3.5615  -3.5198  -3.4974  -3.4205  -3.3828  -3.1377  -3.0311  -2.8117
    -2.0027  -1.8563  -1.7168   0.4950   0.6284   0.6923   0.7656   1.8765
     2.3559   2.5607   2.6807   2.8773   3.4839   3.5473   3.8218   3.9043
     4.5853   4.6607   4.6897

          k = 0.0299-0.0273 0.0000 ( 33309 PWs)   bands (ev):

    -8.5982  -7.7488  -7.6726  -7.6487  -7.6464  -7.5572  -7.5431  -7.5325
    -7.4745  -7.4560  -7.4505  -7.3804  -7.3750  -7.3563  -7.3276  -7.2873
    -7.2569  -7.2510  -7.1838  -7.1724  -7.1625  -7.1609  -7.1257  -7.1057
    -7.1028  -7.0829  -7.0494  -7.0035  -6.9994  -6.9907  -6.9230  -6.5225
    -5.9431  -5.7802  -5.6258  -5.4345  -4.8679  -4.6834  -4.5913  -4.4902
    -4.3993  -4.3940  -4.2448  -4.1779  -4.1681  -4.0147  -4.0122  -3.9878
    -3.7703  -3.7459  -3.7197  -3.6864  -3.5986  -3.5674  -3.5290  -3.5014
    -3.4692  -3.4459  -3.3682  -3.3300  -3.1558  -3.1169  -2.7842  -2.2752
    -2.1354  -1.7517  -1.0452   0.1188   0.2089   0.7093   0.9434   1.7153
     1.8122   2.0616   2.1433   2.7276   3.2058   3.3261   3.6614   3.8748
     4.4552   4.5815   4.7668

          k = 0.0449-0.0170 0.0000 ( 33246 PWs)   bands (ev):

    -8.4931  -7.7369  -7.6519  -7.6348  -7.6325  -7.5479  -7.5249  -7.5177
    -7.4521  -7.4498  -7.4355  -7.3721  -7.3637  -7.3400  -7.3221  -7.2802
    -7.2407  -7.2381  -7.1758  -7.1619  -7.1558  -7.1436  -7.1281  -7.1004
    -7.0878  -7.0749  -7.0523  -7.0131  -6.9988  -6.9893  -6.9264  -6.4506
    -5.9773  -5.7308  -5.6218  -5.4330  -4.8847  -4.7035  -4.6321  -4.5212
    -4.5161  -4.4534  -4.4514  -4.2639  -4.2083  -4.0372  -3.9963  -3.8819
    -3.8664  -3.7730  -3.7194  -3.7134  -3.6258  -3.6079  -3.5773  -3.5498
    -3.5137  -3.4603  -3.3544  -3.3222  -3.1910  -3.1269  -3.0217  -2.2328
    -2.0418  -1.5632  -0.7937  -0.2160   0.3073   0.3843   0.6181   0.7264
     2.1757   2.2447   2.6853   2.7550   3.3009   3.7022   3.7733   4.3151
     4.4742   4.5644   4.7457

          k = 0.0449-0.0010 0.0000 ( 33248 PWs)   bands (ev):

    -8.5347  -7.7341  -7.6633  -7.6521  -7.6453  -7.5510  -7.5271  -7.5135
    -7.4457  -7.4429  -7.4156  -7.3825  -7.3814  -7.3451  -7.3299  -7.2854
    -7.2574  -7.2388  -7.1762  -7.1637  -7.1618  -7.1307  -7.1249  -7.0872
    -7.0784  -7.0615  -7.0410  -7.0250  -6.9779  -6.9699  -6.9088  -6.4574
    -5.8767  -5.7286  -5.6211  -5.3339  -4.9915  -4.7297  -4.7063  -4.6355
    -4.5719  -4.5607  -4.5308  -4.3724  -4.1659  -4.0440  -3.9678  -3.9148
    -3.8800  -3.7945  -3.7502  -3.7425  -3.6257  -3.5691  -3.5351  -3.4910
    -3.4597  -3.3666  -3.2416  -3.2368  -3.1121  -2.9860  -2.7833  -2.0709
    -1.9029  -1.5173  -0.6955  -0.3447  -0.0396   0.3117   0.3962   0.5713
     1.5187   2.1016   2.3007   2.7552   3.5580   3.6619   3.7024   3.9418
     4.5116   4.7723   4.8900

          k = 0.0449 0.0150 0.0000 ( 33219 PWs)   bands (ev):

    -8.4933  -7.7115  -7.6681  -7.6445  -7.6427  -7.5451  -7.5208  -7.4992
    -7.4295  -7.4242  -7.3931  -7.3787  -7.3779  -7.3424  -7.3250  -7.2777
    -7.2581  -7.2327  -7.1732  -7.1637  -7.1551  -7.1260  -7.1092  -7.0777
    -7.0713  -7.0462  -7.0378  -7.0358  -6.9693  -6.9497  -6.8985  -6.4379
    -5.7832  -5.7061  -5.6174  -5.2370  -5.0857  -4.8898  -4.7847  -4.7037
    -4.6531  -4.6333  -4.5485  -4.4699  -4.1943  -4.0930  -3.9873  -3.9166
    -3.8849  -3.8665  -3.8025  -3.7378  -3.6865  -3.5299  -3.5031  -3.4360
    -3.4125  -3.3132  -3.2898  -3.1866  -3.0068  -2.8930  -2.5349  -2.1792
    -1.9836  -1.4354  -1.2030  -0.6861  -0.0863   0.3486   0.3639   0.8881
     1.5145   1.9905   2.0884   2.1858   3.3647   3.7332   4.3595   4.5115
     4.5677   4.8909   5.0128

          k = 0.0449 0.0310 0.0000 ( 33210 PWs)   bands (ev):

    -8.3722  -7.6776  -7.6575  -7.6346  -7.6168  -7.5317  -7.5064  -7.4798
    -7.4145  -7.4020  -7.3706  -7.3664  -7.3425  -7.3391  -7.3116  -7.2578
    -7.2433  -7.2203  -7.1687  -7.1599  -7.1378  -7.1210  -7.0916  -7.0716
    -7.0683  -7.0496  -7.0344  -7.0288  -6.9656  -6.9410  -6.8954  -6.3806
    -5.7172  -5.6715  -5.6069  -5.1593  -5.1434  -5.1223  -4.8464  -4.7494
    -4.7337  -4.6663  -4.5592  -4.5501  -4.2564  -4.1486  -4.0498  -4.0182
    -3.9006  -3.8933  -3.8454  -3.7684  -3.7363  -3.5095  -3.4554  -3.4318
    -3.4271  -3.3512  -3.2760  -3.1711  -3.0065  -2.8403  -2.6072  -2.4953
    -1.9132  -1.5982  -1.1988  -1.0054  -0.7403   0.5492   1.0197   1.0371
     1.3711   1.6019   1.9043   3.0123   3.2659   3.8343   4.5412   4.6623
     5.1416   5.1914   5.2748

          k = 0.0449 0.0470 0.0000 ( 33192 PWs)   bands (ev):

    -8.1806  -7.6419  -7.6302  -7.6175  -7.5834  -7.5138  -7.4896  -7.4605
    -7.4010  -7.3757  -7.3511  -7.3507  -7.3482  -7.2923  -7.2900  -7.2332
    -7.2212  -7.2036  -7.1629  -7.1509  -7.1176  -7.1134  -7.0816  -7.0728
    -7.0648  -7.0550  -7.0309  -7.0115  -6.9672  -6.9444  -6.9013  -6.2648
    -5.7478  -5.6576  -5.5982  -5.3527  -5.1906  -5.0356  -4.8786  -4.8459
    -4.7459  -4.6699  -4.6244  -4.5559  -4.3234  -4.2172  -4.1747  -4.0701
    -3.9868  -3.9509  -3.8671  -3.8228  -3.7418  -3.5222  -3.5032  -3.4983
    -3.4130  -3.3520  -3.2854  -3.1940  -3.0398  -2.9259  -2.8668  -2.7937
    -1.7653  -1.6206  -1.5599  -1.3662  -0.2379   0.5403   0.6668   0.8602
     1.4653   1.8967   2.7746   3.0000   3.9936   4.0068   4.2573   4.8466
     4.9068   5.2304   5.3269

          k = 0.0449 0.0630 0.0000 ( 33206 PWs)   bands (ev):

    -7.9411  -7.6111  -7.5947  -7.5894  -7.5501  -7.4958  -7.4781  -7.4465
    -7.3947  -7.3712  -7.3361  -7.3346  -7.3335  -7.2710  -7.2436  -7.2115
    -7.2111  -7.1869  -7.1542  -7.1367  -7.1195  -7.0904  -7.0868  -7.0804
    -7.0667  -7.0400  -7.0250  -6.9989  -6.9693  -6.9595  -6.9193  -6.0744
    -6.0245  -5.7214  -5.6130  -5.3959  -5.1357  -5.0225  -4.8662  -4.8513
    -4.7527  -4.6748  -4.6595  -4.5388  -4.3810  -4.3503  -4.2453  -4.0617
    -4.0564  -4.0250  -3.9068  -3.8659  -3.7506  -3.6724  -3.5630  -3.4965
    -3.3871  -3.3421  -3.3141  -3.2721  -3.2470  -3.0718  -2.9765  -2.9171
    -2.2242  -1.8316  -1.5236  -0.9289  -0.0369   0.4041   0.4048   1.2668
     1.4082   2.4275   2.9358   3.7023   3.9118   3.9928   4.2265   5.1143
     5.2036   5.5854   5.7181

          k = 0.0449-0.1130 0.0000 ( 33236 PWs)   bands (ev):

    -7.7089  -7.5876  -7.5692  -7.5427  -7.5214  -7.4822  -7.4766  -7.4429
    -7.4065  -7.4000  -7.3270  -7.3156  -7.2890  -7.2502  -7.2234  -7.1953
    -7.1930  -7.1719  -7.1488  -7.1265  -7.1211  -7.0991  -7.0919  -7.0742
    -7.0733  -7.0347  -7.0294  -7.0041  -6.9825  -6.9492  -6.9158  -6.4202
    -5.8736  -5.7988  -5.6923  -5.3433  -5.1174  -5.0017  -4.8533  -4.7631
    -4.7514  -4.6779  -4.6173  -4.5005  -4.4542  -4.4051  -4.2532  -4.0824
    -4.0463  -4.0126  -3.9430  -3.8970  -3.8087  -3.7621  -3.5975  -3.5622
    -3.4719  -3.3937  -3.3904  -3.3352  -3.2527  -3.1373  -3.0500  -3.0282
    -2.7151  -1.9928  -1.2502  -0.6826  -0.2374   0.2244   1.0596   1.4225
     1.7594   2.9123   2.9776   3.1748   3.7951   4.5133   4.5906   5.4235
     5.4600   5.6134   5.9036

          k = 0.0449-0.0970 0.0000 ( 33229 PWs)   bands (ev):

    -7.5828  -7.5815  -7.5437  -7.4992  -7.4953  -7.4882  -7.4758  -7.4550
    -7.4408  -7.4385  -7.3384  -7.2946  -7.2435  -7.2310  -7.2280  -7.1884
    -7.1668  -7.1583  -7.1429  -7.1344  -7.1190  -7.1157  -7.0976  -7.0815
    -7.0766  -7.0670  -7.0536  -7.0270  -7.0121  -6.9738  -6.7734  -6.7301
    -6.0047  -5.8508  -5.5213  -5.3768  -5.0886  -4.9867  -4.8365  -4.7205
    -4.6432  -4.5987  -4.5178  -4.5121  -4.3829  -4.3597  -4.2114  -4.1021
    -3.9839  -3.9535  -3.9451  -3.9052  -3.8551  -3.7940  -3.6979  -3.6343
    -3.4902  -3.4846  -3.4503  -3.4065  -3.3057  -3.1557  -3.1422  -3.0437
    -3.0423  -2.1120  -1.0347  -0.9063   0.1099   0.3376   1.5014   1.6618
     2.3179   2.5515   3.1719   3.2951   3.6596   4.5889   4.8228   4.8593
     5.4608   5.5877   5.7510

          k = 0.0449-0.0810 0.0000 ( 33268 PWs)   bands (ev):

    -7.6734  -7.5798  -7.5247  -7.5115  -7.4948  -7.4845  -7.4803  -7.4741
    -7.4673  -7.4473  -7.3997  -7.2860  -7.2314  -7.2170  -7.2097  -7.1957
    -7.1805  -7.1712  -7.1572  -7.1399  -7.1397  -7.1072  -7.0981  -7.0961
    -7.0943  -7.0906  -7.0727  -7.0554  -7.0479  -6.9798  -6.9528  -6.4321
    -6.1022  -6.0467  -5.4889  -5.3106  -5.0767  -4.9360  -4.7039  -4.6667
    -4.5546  -4.4912  -4.4806  -4.3589  -4.2455  -4.2169  -4.1091  -4.1022
    -4.0040  -3.9591  -3.8816  -3.8521  -3.8269  -3.7473  -3.7315  -3.6762
    -3.6166  -3.5778  -3.5437  -3.4912  -3.4775  -3.3303  -3.1200  -3.0997
    -2.8230  -2.2043  -1.3603  -0.4842   0.0491   1.0539   1.6601   1.7190
     2.5585   2.7951   2.9169   3.5025   3.5969   4.4349   4.7158   4.8130
     4.8991   5.1590   5.5238

          k = 0.0449-0.0650 0.0000 ( 33248 PWs)   bands (ev):

    -7.9166  -7.6215  -7.5528  -7.5362  -7.4975  -7.4945  -7.4925  -7.4791
    -7.4786  -7.4684  -7.4383  -7.2864  -7.2417  -7.2320  -7.2188  -7.2120
    -7.2057  -7.1859  -7.1769  -7.1455  -7.1283  -7.1262  -7.1164  -7.1070
    -7.1013  -7.0938  -7.0857  -7.0819  -7.0240  -7.0060  -6.9817  -6.2227
    -6.1748  -6.0814  -5.5905  -5.3609  -4.9366  -4.7632  -4.6855  -4.5617
    -4.5045  -4.4331  -4.3477  -4.1690  -4.1194  -4.0812  -4.0186  -3.9670
    -3.9560  -3.9253  -3.8922  -3.8396  -3.8158  -3.7702  -3.7523  -3.7174
    -3.7108  -3.6192  -3.6129  -3.5303  -3.5063  -3.4226  -3.1129  -3.0816
    -2.4346  -2.2332  -1.6195   0.0071   0.0564   1.2867   1.7616   1.8543
     2.0674   2.9200   3.4148   3.5826   3.7089   4.1482   4.1923   4.2606
     4.2790   5.1617   5.3740

          k = 0.0449-0.0490 0.0000 ( 33280 PWs)   bands (ev):

    -8.1708  -7.6735  -7.5913  -7.5781  -7.5421  -7.5157  -7.5078  -7.4910
    -7.4700  -7.4635  -7.4442  -7.3156  -7.2790  -7.2665  -7.2624  -7.2413
    -7.2208  -7.1803  -7.1669  -7.1572  -7.1528  -7.1394  -7.1234  -7.1229
    -7.1029  -7.0923  -7.0779  -7.0677  -7.0129  -6.9888  -6.9856  -6.3462
    -6.1338  -5.8434  -5.6645  -5.4485  -4.7864  -4.7152  -4.6419  -4.5502
    -4.4146  -4.3649  -4.3109  -4.0861  -4.0638  -4.0351  -4.0241  -3.9425
    -3.9080  -3.9070  -3.8276  -3.7934  -3.7422  -3.7124  -3.7113  -3.6817
    -3.6387  -3.6118  -3.5865  -3.5166  -3.4605  -3.4581  -3.1287  -2.8483
    -2.3648  -1.8175  -1.7505   0.0689   0.6336   0.8768   0.9293   2.2973
     2.4733   2.7466   2.9696   3.4998   3.5651   3.6530   3.9928   4.0880
     4.6002   4.8891   4.9045

          k = 0.0449-0.0330 0.0000 ( 33262 PWs)   bands (ev):

    -8.3695  -7.7157  -7.6274  -7.6121  -7.5931  -7.5357  -7.5186  -7.5076
    -7.4569  -7.4495  -7.4493  -7.3495  -7.3297  -7.3101  -7.2993  -7.2650
    -7.2316  -7.2100  -7.1714  -7.1567  -7.1536  -7.1440  -7.1260  -7.1214
    -7.0969  -7.0862  -7.0667  -7.0324  -7.0074  -6.9960  -6.9521  -6.4171
    -6.0683  -5.7103  -5.6742  -5.4885  -4.7761  -4.6876  -4.6834  -4.4329
    -4.4223  -4.3845  -4.3700  -4.2209  -4.1511  -4.0970  -3.9602  -3.9370
    -3.8301  -3.7570  -3.7542  -3.7217  -3.7060  -3.6390  -3.6295  -3.6194
    -3.5742  -3.5487  -3.5210  -3.4138  -3.3791  -3.2620  -3.1542  -2.4059
    -2.2735  -1.9579  -1.0245   0.0232   0.1610   0.5897   1.2332   1.5668
     1.9088   2.7391   3.1280   3.1609   3.3817   3.7527   3.8553   3.9217
     4.1843   4.6856   4.9570

          k = 0.0599-0.0227 0.0000 ( 33254 PWs)   bands (ev):

    -8.2288  -7.7125  -7.6067  -7.5991  -7.5736  -7.5264  -7.5053  -7.4925
    -7.4490  -7.4475  -7.4223  -7.3463  -7.3149  -7.2998  -7.2936  -7.2580
    -7.2095  -7.2032  -7.1724  -7.1382  -7.1376  -7.1316  -7.1268  -7.1150
    -7.0822  -7.0626  -7.0614  -7.0302  -7.0216  -6.9954  -6.9580  -6.2834
    -6.2136  -5.6408  -5.6283  -5.4879  -4.7945  -4.7195  -4.7175  -4.6475
    -4.5572  -4.4707  -4.3836  -4.2473  -4.2225  -4.1424  -3.9801  -3.9271
    -3.9176  -3.8471  -3.8127  -3.7857  -3.7716  -3.6348  -3.6333  -3.6126
    -3.6007  -3.5571  -3.5137  -3.4056  -3.3561  -3.3039  -3.1850  -2.7132
    -1.8447  -1.5856  -0.9446  -0.2061  -0.1219   0.4563   0.8462   1.2159
     2.1755   2.5263   2.6650   3.3629   3.8004   3.9512   4.1043   4.1450
     4.8258   4.9090   5.1206

          k = 0.0599-0.0067 0.0000 ( 33227 PWs)   bands (ev):

    -8.2898  -7.7068  -7.6160  -7.6147  -7.6022  -7.5303  -7.5008  -7.4934
    -7.4401  -7.4247  -7.4007  -7.3553  -7.3428  -7.3093  -7.3034  -7.2635
    -7.2237  -7.2122  -7.1756  -7.1457  -7.1338  -7.1280  -7.1174  -7.0949
    -7.0766  -7.0502  -7.0474  -7.0345  -6.9934  -6.9861  -6.9327  -6.3024
    -6.0717  -5.6496  -5.6197  -5.4284  -4.9318  -4.7818  -4.7499  -4.6598
    -4.6214  -4.5687  -4.5051  -4.3600  -4.2650  -4.0745  -4.0527  -3.9705
    -3.9686  -3.8967  -3.7825  -3.7764  -3.7090  -3.5939  -3.5682  -3.5663
    -3.5376  -3.4237  -3.3980  -3.3207  -3.2280  -3.1381  -3.0645  -2.5072
    -1.9470  -1.6211  -0.7927  -0.3352  -0.0240   0.3070   0.7203   0.7317
     1.7605   1.8177   2.9040   3.3254   3.5838   3.9122   4.0840   4.6833
     4.7635   5.1512   5.2383

          k = 0.0599 0.0093 0.0000 ( 33209 PWs)   bands (ev):

    -8.2729  -7.6799  -7.6274  -7.6202  -7.6013  -7.5256  -7.4970  -7.4801
    -7.4231  -7.3936  -7.3757  -7.3589  -7.3550  -7.3061  -7.2999  -7.2551
    -7.2311  -7.2103  -7.1712  -7.1502  -7.1279  -7.1244  -7.0991  -7.0805
    -7.0703  -7.0470  -7.0402  -7.0301  -6.9756  -6.9628  -6.9141  -6.2988
    -5.9110  -5.6471  -5.6143  -5.3743  -5.0741  -4.8957  -4.8050  -4.7335
    -4.7059  -4.6176  -4.6091  -4.4652  -4.2768  -4.1323  -4.0664  -4.0168
    -3.9803  -3.9719  -3.8176  -3.7578  -3.7321  -3.5578  -3.5259  -3.5225
    -3.4739  -3.3439  -3.2866  -3.2404  -3.1541  -3.0376  -2.8949  -2.3817
    -2.1094  -1.8046  -1.0208  -0.7135  -0.0153   0.5530   0.6182   0.7336
     1.1891   1.9791   2.5962   3.1125   3.8284   3.9226   4.2909   4.6832
     4.7715   5.0032   5.3878

          k = 0.0599 0.0253 0.0000 ( 33192 PWs)   bands (ev):

    -8.1806  -7.6419  -7.6302  -7.6175  -7.5834  -7.5138  -7.4896  -7.4605
    -7.4010  -7.3757  -7.3511  -7.3507  -7.3482  -7.2923  -7.2900  -7.2332
    -7.2212  -7.2036  -7.1629  -7.1509  -7.1176  -7.1134  -7.0816  -7.0728
    -7.0648  -7.0550  -7.0309  -7.0115  -6.9672  -6.9444  -6.9013  -6.2648
    -5.7478  -5.6576  -5.5982  -5.3527  -5.1906  -5.0356  -4.8786  -4.8459
    -4.7459  -4.6699  -4.6244  -4.5559  -4.3234  -4.2173  -4.1747  -4.0701
    -3.9868  -3.9509  -3.8671  -3.8228  -3.7418  -3.5222  -3.5032  -3.4983
    -3.4130  -3.3520  -3.2854  -3.1940  -3.0398  -2.9259  -2.8668  -2.7937
    -1.7653  -1.6206  -1.5599  -1.3662  -0.2379   0.5403   0.6668   0.8602
     1.4653   1.8967   2.7746   3.0000   3.9936   4.0068   4.2573   4.8465
     4.9067   5.2304   5.3269

          k = 0.0599 0.0413 0.0000 ( 33212 PWs)   bands (ev):

    -8.0229  -7.6173  -7.6131  -7.5980  -7.5595  -7.4977  -7.4799  -7.4408
    -7.3795  -7.3646  -7.3459  -7.3370  -7.3284  -7.2710  -7.2707  -7.2087
    -7.2059  -7.1938  -7.1489  -7.1478  -7.1077  -7.0965  -7.0741  -7.0722
    -7.0540  -7.0519  -7.0199  -6.9934  -6.9634  -6.9399  -6.8954  -6.1844
    -5.7373  -5.6329  -5.5692  -5.4323  -5.2253  -5.1206  -4.9338  -4.9224
    -4.7693  -4.6845  -4.6296  -4.6271  -4.3847  -4.3050  -4.2931  -4.1294
    -3.9934  -3.9727  -3.9138  -3.8954  -3.7323  -3.5718  -3.5153  -3.4872
    -3.3822  -3.3620  -3.2642  -3.2092  -3.1797  -3.0430  -2.8670  -2.8262
    -1.9738  -1.6309  -1.6208  -1.2553  -0.7897   0.2673   0.8288   1.0963
     1.3830   2.4991   2.6077   3.8543   3.9665   4.0826   4.1373   4.9201
     5.0069   5.4842   5.5960

          k = 0.0599 0.0573 0.0000 ( 33177 PWs)   bands (ev):

    -7.8245  -7.5991  -7.5871  -7.5639  -7.5345  -7.4807  -7.4719  -7.4263
    -7.3679  -7.3459  -7.3400  -7.3389  -7.3121  -7.2487  -7.2440  -7.2110
    -7.1879  -7.1779  -7.1396  -7.1342  -7.1027  -7.0813  -7.0750  -7.0742
    -7.0505  -7.0213  -7.0088  -6.9803  -6.9633  -6.9468  -6.9013  -6.0447
    -5.8986  -5.7959  -5.5798  -5.4363  -5.1639  -5.0660  -5.0027  -4.9130
    -4.7727  -4.6894  -4.6791  -4.6188  -4.4464  -4.4242  -4.3642  -4.1399
    -4.0508  -4.0118  -3.9620  -3.9290  -3.7281  -3.6525  -3.6151  -3.4857
    -3.3927  -3.3316  -3.3288  -3.2743  -3.2018  -3.1231  -3.0597  -2.8388
    -2.2089  -1.7418  -1.4480  -1.4441  -0.3557  -0.0261   0.3916   1.4404
     1.6379   2.5403   3.5219   3.6326   3.9170   4.2240   4.3378   5.2456
     5.3769   5.7099   5.8757

          k = 0.0599-0.1187 0.0000 ( 33211 PWs)   bands (ev):

    -7.6456  -7.5825  -7.5394  -7.5358  -7.5122  -7.4699  -7.4657  -7.4221
    -7.3775  -7.3649  -7.3291  -7.3113  -7.2968  -7.2291  -7.2260  -7.2103
    -7.1828  -7.1578  -7.1297  -7.1279  -7.1036  -7.0843  -7.0775  -7.0673
    -7.0585  -7.0052  -7.0049  -6.9834  -6.9609  -6.9230  -6.9032  -6.1642
    -6.0992  -5.8328  -5.6274  -5.3486  -5.1406  -5.0604  -4.8854  -4.8364
    -4.7909  -4.7066  -4.7022  -4.5841  -4.5280  -4.4995  -4.3769  -4.1094
    -4.0793  -4.0333  -3.9827  -3.9510  -3.7864  -3.7263  -3.6344  -3.4985
    -3.3893  -3.3780  -3.3311  -3.3225  -3.3131  -3.2547  -3.0884  -2.9214
    -2.3447  -2.2830  -1.2000  -1.0520  -0.2281  -0.1267   0.2758   1.8764
     1.9157   2.8226   3.2599   3.5009   4.0739   4.4518   4.6041   5.5607
     5.6110   5.6865   5.9544

          k = 0.0599-0.1027 0.0000 ( 33213 PWs)   bands (ev):

    -7.5635  -7.5459  -7.5138  -7.5028  -7.4972  -7.4775  -7.4575  -7.4326
    -7.4103  -7.3996  -7.3257  -7.2806  -7.2682  -7.2393  -7.2124  -7.1827
    -7.1736  -7.1423  -7.1318  -7.1192  -7.1129  -7.0921  -7.0882  -7.0728
    -7.0720  -7.0275  -7.0253  -7.0044  -6.9723  -6.9595  -6.7112  -6.5426
    -6.2622  -5.7399  -5.5899  -5.2944  -5.2015  -4.9508  -4.9422  -4.7508
    -4.6979  -4.6857  -4.6316  -4.5807  -4.5134  -4.4997  -4.3353  -4.1026
    -4.0462  -3.9888  -3.9780  -3.9153  -3.8791  -3.7260  -3.6218  -3.6158
    -3.4760  -3.3958  -3.3561  -3.3446  -3.3260  -3.2554  -3.1347  -3.0413
    -2.7435  -2.4173  -0.8862  -0.7819  -0.3542  -0.3036   0.9423   2.0869
     2.3879   2.9446   3.0755   3.2555   4.1400   4.2007   4.9249   5.0895
     5.5150   5.6252   5.9542

          k = 0.0599-0.0867 0.0000 ( 33280 PWs)   bands (ev):

    -7.5475  -7.5225  -7.5120  -7.4918  -7.4876  -7.4862  -7.4807  -7.4664
    -7.4435  -7.4416  -7.3437  -7.2806  -7.2323  -7.2308  -7.2011  -7.1891
    -7.1482  -7.1439  -7.1339  -7.1303  -7.1251  -7.1153  -7.0917  -7.0875
    -7.0837  -7.0744  -7.0598  -7.0302  -7.0121  -6.9724  -6.8279  -6.4644
    -6.3284  -5.8949  -5.3916  -5.3450  -5.1162  -5.0849  -4.8202  -4.7114
    -4.6190  -4.5724  -4.5386  -4.5063  -4.4241  -4.3856  -4.2392  -4.1121
    -3.9988  -3.9732  -3.9594  -3.8755  -3.8147  -3.7634  -3.7252  -3.6406
    -3.4909  -3.4865  -3.4404  -3.4032  -3.3028  -3.2821  -3.1096  -3.0843
    -3.0377  -2.4172  -1.0724  -0.5430  -0.3677   0.2830   1.5721   2.2004
     2.4871   2.8981   2.9379   3.0319   4.1936   4.2779   4.7022   4.8184
     5.2007   5.4675   6.1582

          k = 0.0599-0.0707 0.0000 ( 33268 PWs)   bands (ev):

    -7.6734  -7.5798  -7.5247  -7.5115  -7.4948  -7.4845  -7.4803  -7.4741
    -7.4673  -7.4473  -7.3997  -7.2860  -7.2314  -7.2170  -7.2097  -7.1957
    -7.1805  -7.1712  -7.1572  -7.1399  -7.1397  -7.1072  -7.0981  -7.0961
    -7.0943  -7.0906  -7.0727  -7.0554  -7.0479  -6.9798  -6.9528  -6.4321
    -6.1022  -6.0467  -5.4889  -5.3106  -5.0767  -4.9360  -4.7039  -4.6667
    -4.5546  -4.4912  -4.4806  -4.3589  -4.2455  -4.2169  -4.1091  -4.1022
    -4.0040  -3.9591  -3.8816  -3.8521  -3.8269  -3.7473  -3.7315  -3.6762
    -3.6166  -3.5778  -3.5437  -3.4912  -3.4775  -3.3303  -3.1200  -3.0997
    -2.8230  -2.2043  -1.3603  -0.4842   0.0491   1.0539   1.6601   1.7190
     2.5585   2.7951   2.9169   3.5025   3.5969   4.4349   4.7158   4.8129
     4.8991   5.1592   5.5236

          k = 0.0599-0.0547 0.0000 ( 33273 PWs)   bands (ev):

    -7.8949  -7.6435  -7.5552  -7.5357  -7.5040  -7.4950  -7.4894  -7.4791
    -7.4763  -7.4459  -7.4403  -7.2981  -7.2496  -7.2475  -7.2229  -7.2214
    -7.2017  -7.1755  -7.1715  -7.1579  -7.1197  -7.1184  -7.1144  -7.1059
    -7.0966  -7.0894  -7.0792  -7.0708  -7.0264  -6.9982  -6.9873  -6.4020
    -6.1641  -5.8674  -5.5635  -5.4188  -4.9050  -4.7912  -4.6940  -4.5563
    -4.5142  -4.4906  -4.4137  -4.1630  -4.1062  -4.0882  -3.9842  -3.9637
    -3.9505  -3.9180  -3.9001  -3.8633  -3.8513  -3.8027  -3.7364  -3.7256
    -3.6994  -3.6825  -3.6267  -3.5457  -3.5085  -3.4278  -3.1195  -2.8449
    -2.7107  -1.6715  -1.5818  -0.4505   0.6436   0.7621   1.3664   1.9422
     2.2402   2.9567   3.0918   3.5719   3.5896   4.1752   4.2352   4.3764
     4.7952   5.0730   5.2330

          k = 0.0599-0.0387 0.0000 ( 33238 PWs)   bands (ev):

    -8.0930  -7.6911  -7.5858  -7.5724  -7.5325  -7.5136  -7.5034  -7.4857
    -7.4676  -7.4453  -7.4397  -7.3256  -7.2848  -7.2762  -7.2607  -7.2428
    -7.2045  -7.1871  -7.1533  -7.1521  -7.1472  -7.1287  -7.1222  -7.1152
    -7.0860  -7.0768  -7.0753  -7.0619  -7.0105  -6.9975  -6.9901  -6.3266
    -6.2403  -5.7045  -5.6134  -5.4877  -4.7825  -4.7319  -4.6563  -4.6115
    -4.5613  -4.4338  -4.3385  -4.1464  -4.1168  -4.0535  -3.9855  -3.9146
    -3.9063  -3.8993  -3.8772  -3.8682  -3.7762  -3.7550  -3.6961  -3.6710
    -3.6619  -3.6146  -3.5754  -3.5459  -3.5230  -3.4581  -3.1482  -2.7752
    -2.2560  -1.7399  -0.9535  -0.3621  -0.1269   1.0600   1.3317   1.3324
     2.3899   2.8209   3.0410   3.4758   3.6823   3.8441   4.0811   4.2980
     4.3451   4.9883   5.1841

          k = 0.0748-0.0284 0.0000 ( 33246 PWs)   bands (ev):

    -7.9527  -7.7088  -7.5677  -7.5615  -7.5175  -7.5052  -7.5011  -7.4849
    -7.4686  -7.4430  -7.3977  -7.3339  -7.2845  -7.2833  -7.2494  -7.2376
    -7.1968  -7.1891  -7.1463  -7.1458  -7.1384  -7.1278  -7.1135  -7.0915
    -7.0820  -7.0704  -7.0534  -7.0491  -7.0257  -6.9967  -6.9723  -6.5508
    -6.0482  -5.6511  -5.5490  -5.5058  -4.8016  -4.7947  -4.7448  -4.7138
    -4.6329  -4.4764  -4.2839  -4.2234  -4.2034  -4.1023  -4.0869  -4.0215
    -3.9606  -3.9396  -3.9251  -3.9089  -3.7950  -3.7268  -3.6901  -3.6629
    -3.6214  -3.5957  -3.5403  -3.5321  -3.4996  -3.4714  -3.1554  -2.9628
    -1.6566  -1.5621  -1.0106  -0.6237  -0.0236   0.2525   1.3813   1.8743
     2.1770   2.3447   2.5723   3.3503   3.4335   4.2485   4.5984   4.7432
     4.9092   5.1900   5.2517

          k = 0.0748-0.0123 0.0000 ( 33209 PWs)   bands (ev):

    -8.0131  -7.6917  -7.5804  -7.5726  -7.5456  -7.5118  -7.4932  -7.4795
    -7.4426  -7.4369  -7.3813  -7.3376  -7.2919  -7.2917  -7.2665  -7.2421
    -7.1989  -7.1895  -7.1634  -7.1426  -7.1264  -7.1212  -7.1147  -7.0934
    -7.0650  -7.0565  -7.0454  -7.0336  -7.0251  -6.9781  -6.9658  -6.4137
    -6.0712  -5.6521  -5.5827  -5.4440  -4.8822  -4.8646  -4.7706  -4.7189
    -4.6563  -4.5454  -4.4182  -4.3297  -4.2520  -4.1797  -4.1569  -4.0259
    -4.0084  -3.8890  -3.8784  -3.8483  -3.8400  -3.6469  -3.6313  -3.6107
    -3.5592  -3.5346  -3.4828  -3.4105  -3.3266  -3.2755  -3.1939  -2.8889
    -1.9820  -1.4646  -0.9606  -0.5555  -0.2459   0.8376   0.8926   1.2390
     1.6131   2.2193   2.9843   3.0282   4.0013   4.1773   4.4820   4.9913
     5.0530   5.1056   5.4392

          k = 0.0748 0.0037 0.0000 ( 33202 PWs)   bands (ev):

    -8.0087  -7.6547  -7.5914  -7.5768  -7.5611  -7.5070  -7.4845  -7.4662
    -7.4200  -7.4073  -7.3586  -7.3363  -7.3159  -7.2870  -7.2530  -7.2332
    -7.2084  -7.1900  -7.1673  -7.1355  -7.1317  -7.1051  -7.0984  -7.0899
    -7.0623  -7.0500  -7.0401  -7.0178  -6.9887  -6.9755  -6.9404  -6.2366
    -6.0808  -5.6403  -5.6261  -5.4012  -5.0189  -4.9661  -4.8103  -4.7264
    -4.7101  -4.6481  -4.5603  -4.4396  -4.3286  -4.2677  -4.1210  -4.0928
    -4.0402  -3.9639  -3.8700  -3.8124  -3.7882  -3.6836  -3.5885  -3.5265
    -3.4611  -3.4507  -3.3993  -3.3306  -3.2421  -3.1395  -3.0606  -2.6469
    -2.5090  -1.5593  -1.2555  -0.5260  -0.1259   0.5419   0.9521   1.2013
     1.2529   1.9226   3.0855   3.3006   3.9807   4.1682   4.5286   4.6301
     5.0606   5.6236   5.6856

          k = 0.0748 0.0197 0.0000 ( 33206 PWs)   bands (ev):

    -7.9411  -7.6111  -7.5947  -7.5894  -7.5501  -7.4958  -7.4781  -7.4465
    -7.3947  -7.3712  -7.3361  -7.3346  -7.3335  -7.2710  -7.2436  -7.2115
    -7.2111  -7.1869  -7.1542  -7.1367  -7.1195  -7.0904  -7.0868  -7.0804
    -7.0667  -7.0400  -7.0250  -6.9989  -6.9693  -6.9595  -6.9193  -6.0744
    -6.0245  -5.7214  -5.6130  -5.3959  -5.1357  -5.0225  -4.8662  -4.8513
    -4.7527  -4.6748  -4.6595  -4.5388  -4.3810  -4.3503  -4.2453  -4.0617
    -4.0564  -4.0250  -3.9068  -3.8659  -3.7506  -3.6724  -3.5630  -3.4965
    -3.3871  -3.3421  -3.3141  -3.2721  -3.2470  -3.0718  -2.9765  -2.9171
    -2.2242  -1.8316  -1.5236  -0.9289  -0.0369   0.4041   0.4048   1.2668
     1.4082   2.4275   2.9358   3.7024   3.9118   3.9928   4.2265   5.1143
     5.2036   5.5854   5.7182

          k = 0.0748 0.0357 0.0000 ( 33177 PWs)   bands (ev):

    -7.8245  -7.5991  -7.5871  -7.5639  -7.5345  -7.4807  -7.4719  -7.4263
    -7.3679  -7.3459  -7.3400  -7.3389  -7.3121  -7.2487  -7.2440  -7.2110
    -7.1879  -7.1779  -7.1396  -7.1342  -7.1027  -7.0813  -7.0750  -7.0742
    -7.0505  -7.0213  -7.0088  -6.9803  -6.9633  -6.9468  -6.9013  -6.0447
    -5.8986  -5.7959  -5.5798  -5.4363  -5.1639  -5.0660  -5.0027  -4.9130
    -4.7727  -4.6894  -4.6791  -4.6188  -4.4464  -4.4242  -4.3642  -4.1399
    -4.0508  -4.0118  -3.9620  -3.9290  -3.7281  -3.6525  -3.6151  -3.4857
    -3.3927  -3.3316  -3.3288  -3.2743  -3.2018  -3.1231  -3.0597  -2.8388
    -2.2089  -1.7418  -1.4480  -1.4441  -0.3557  -0.0261   0.3916   1.4404
     1.6379   2.5403   3.5219   3.6326   3.9170   4.2240   4.3378   5.2456
     5.3769   5.7100   5.8755

          k = 0.0748 0.0517 0.0000 ( 33120 PWs)   bands (ev):

    -7.7006  -7.5950  -7.5568  -7.5307  -7.5167  -7.4663  -7.4630  -7.4111
    -7.3466  -7.3435  -7.3385  -7.3326  -7.2966  -7.2385  -7.2288  -7.2210
    -7.1784  -7.1597  -7.1387  -7.1269  -7.0844  -7.0799  -7.0741  -7.0640
    -7.0265  -6.9934  -6.9698  -6.9666  -6.9614  -6.9478  -6.8928  -6.1379
    -5.9646  -5.6509  -5.5900  -5.4644  -5.1430  -5.1334  -5.0665  -4.9033
    -4.7913  -4.6842  -4.6659  -4.6637  -4.5161  -4.4978  -4.4439  -4.1880
    -4.0651  -4.0354  -4.0041  -3.9364  -3.8042  -3.7160  -3.5908  -3.5789
    -3.4837  -3.3989  -3.2888  -3.2569  -3.1864  -3.1049  -3.0716  -2.8217
    -2.4146  -1.6419  -1.4067  -1.3050  -0.8171  -0.3442   0.6679   1.2534
     1.7174   3.1172   3.2808   3.7502   4.4859   4.5155   4.5513   5.4530
     5.4608   5.5976   5.7825

          k = 0.0748-0.1244 0.0000 ( 33146 PWs)   bands (ev):

    -7.6281  -7.5874  -7.5178  -7.5088  -7.4884  -7.4648  -7.4347  -7.4061
    -7.3547  -7.3402  -7.3326  -7.3230  -7.2866  -7.2389  -7.2236  -7.2150
    -7.1767  -7.1446  -7.1335  -7.1270  -7.0824  -7.0823  -7.0686  -7.0577
    -7.0291  -6.9846  -6.9695  -6.9666  -6.9571  -6.8999  -6.8464  -6.3514
    -5.8921  -5.8570  -5.5793  -5.3763  -5.1247  -5.0882  -5.0712  -4.8277
    -4.7767  -4.7031  -4.6864  -4.6457  -4.5905  -4.5688  -4.4640  -4.1832
    -4.0873  -4.0411  -4.0103  -3.9710  -3.8353  -3.7436  -3.7111  -3.5370
    -3.4879  -3.4029  -3.2772  -3.2704  -3.2478  -3.2067  -3.0828  -2.8422
    -2.5038  -1.8024  -1.4810  -1.1096  -0.5571  -0.4152   0.3050   1.5363
     2.0896   2.7899   3.4091   4.0361   4.4755   4.7511   4.8068   5.3428
     5.5406   5.7397   5.8623

          k = 0.0748-0.1084 0.0000 ( 33140 PWs)   bands (ev):

    -7.5842  -7.5765  -7.5046  -7.4985  -7.4789  -7.4709  -7.4250  -7.4136
    -7.3766  -7.3645  -7.3264  -7.2997  -7.2680  -7.2559  -7.2080  -7.2012
    -7.1794  -7.1369  -7.1270  -7.1263  -7.0944  -7.0844  -7.0665  -7.0620
    -7.0533  -6.9948  -6.9914  -6.9826  -6.9637  -6.9244  -6.7004  -6.4503
    -6.2257  -5.7204  -5.6373  -5.3038  -5.1984  -5.0296  -4.8960  -4.8169
    -4.7558  -4.7038  -4.6607  -4.6515  -4.6051  -4.5902  -4.4265  -4.1310
    -4.1022  -4.0081  -3.9949  -3.9542  -3.8540  -3.7122  -3.7088  -3.5084
    -3.4720  -3.4154  -3.3882  -3.3142  -3.2995  -3.2577  -3.0941  -2.9223
    -2.5140  -2.3011  -1.0914  -0.9078  -0.6218  -0.1596   0.2305   1.9344
     2.5299   2.5625   3.4665   3.5892   4.1707   4.7807   4.9653   5.2410
     5.2669   5.9307   6.0457

          k = 0.0748-0.0924 0.0000 ( 33213 PWs)   bands (ev):

    -7.5635  -7.5459  -7.5138  -7.5028  -7.4972  -7.4775  -7.4575  -7.4326
    -7.4103  -7.3996  -7.3257  -7.2806  -7.2682  -7.2393  -7.2124  -7.1827
    -7.1736  -7.1423  -7.1318  -7.1192  -7.1129  -7.0921  -7.0882  -7.0728
    -7.0720  -7.0275  -7.0253  -7.0044  -6.9723  -6.9595  -6.7112  -6.5426
    -6.2622  -5.7399  -5.5899  -5.2944  -5.2015  -4.9508  -4.9422  -4.7508
    -4.6979  -4.6857  -4.6316  -4.5807  -4.5134  -4.4997  -4.3353  -4.1026
    -4.0462  -3.9888  -3.9780  -3.9153  -3.8791  -3.7260  -3.6218  -3.6158
    -3.4760  -3.3958  -3.3561  -3.3446  -3.3260  -3.2554  -3.1347  -3.0413
    -2.7435  -2.4173  -0.8862  -0.7819  -0.3542  -0.3036   0.9423   2.0869
     2.3879   2.9446   3.0755   3.2555   4.1400   4.2007   4.9249   5.0895
     5.5150   5.6251   5.9546

          k = 0.0748-0.0764 0.0000 ( 33229 PWs)   bands (ev):

    -7.5828  -7.5815  -7.5437  -7.4992  -7.4953  -7.4882  -7.4758  -7.4550
    -7.4408  -7.4385  -7.3384  -7.2946  -7.2435  -7.2310  -7.2280  -7.1884
    -7.1668  -7.1583  -7.1429  -7.1344  -7.1190  -7.1157  -7.0976  -7.0815
    -7.0766  -7.0670  -7.0536  -7.0270  -7.0121  -6.9738  -6.7734  -6.7301
    -6.0047  -5.8508  -5.5213  -5.3768  -5.0886  -4.9867  -4.8365  -4.7205
    -4.6432  -4.5987  -4.5178  -4.5121  -4.3829  -4.3597  -4.2114  -4.1021
    -3.9839  -3.9535  -3.9451  -3.9052  -3.8551  -3.7940  -3.6979  -3.6343
    -3.4902  -3.4846  -3.4503  -3.4065  -3.3057  -3.1557  -3.1422  -3.0437
    -3.0423  -2.1120  -1.0347  -0.9063   0.1099   0.3376   1.5014   1.6618
     2.3179   2.5515   3.1719   3.2951   3.6596   4.5889   4.8228   4.8593
     5.4608   5.5876   5.7512

          k = 0.0748-0.0604 0.0000 ( 33252 PWs)   bands (ev):

    -7.6971  -7.6521  -7.5341  -7.5137  -7.5063  -7.4963  -7.4732  -7.4712
    -7.4583  -7.4547  -7.3730  -7.3077  -7.2538  -7.2445  -7.2243  -7.2063
    -7.1932  -7.1659  -7.1519  -7.1461  -7.1409  -7.1052  -7.1034  -7.0967
    -7.0818  -7.0727  -7.0567  -7.0480  -7.0458  -6.9895  -6.8954  -6.7081
    -5.9431  -5.7999  -5.5300  -5.4497  -4.9634  -4.9273  -4.7167  -4.7074
    -4.6055  -4.5298  -4.4342  -4.3461  -4.2563  -4.1732  -4.0990  -4.0880
    -4.0072  -3.9367  -3.9270  -3.8931  -3.8290  -3.7800  -3.7226  -3.6689
    -3.6319  -3.5690  -3.5371  -3.5019  -3.4850  -3.3605  -3.0910  -3.0366
    -2.6830  -1.5656  -1.2917  -0.8862   0.6017   0.6950   1.2221   1.8029
     2.1535   2.3333   2.8938   3.7048   4.1338   4.2117   4.2875   4.6240
     4.8386   5.6009   5.6941

          k = 0.0748-0.0444 0.0000 ( 33250 PWs)   bands (ev):

    -7.8379  -7.6967  -7.5513  -7.5344  -7.5129  -7.5021  -7.4842  -7.4837
    -7.4697  -7.4463  -7.3998  -7.3223  -7.2737  -7.2655  -7.2272  -7.2221
    -7.1992  -7.1889  -7.1577  -7.1502  -7.1218  -7.1186  -7.1082  -7.1037
    -7.0843  -7.0701  -7.0643  -7.0556  -7.0302  -7.0080  -6.9501  -6.6482
    -6.0078  -5.6779  -5.5479  -5.5068  -4.8491  -4.8411  -4.7159  -4.6962
    -4.5459  -4.5178  -4.3502  -4.1865  -4.1555  -4.0867  -4.0363  -4.0248
    -3.9642  -3.9284  -3.9180  -3.8848  -3.8777  -3.8303  -3.7269  -3.7250
    -3.6842  -3.6432  -3.5930  -3.5476  -3.5235  -3.4527  -3.1216  -2.9967
    -2.1735  -1.4885  -0.8586  -0.7976  -0.2507   1.1306   1.3884   1.6202
     2.1690   2.4282   3.0203   3.2930   3.7612   4.1961   4.3892   4.4794
     4.8240   5.2434   5.3607

          k =-0.0898 0.0340 0.0000 ( 33236 PWs)   bands (ev):

    -7.7654  -7.7654  -7.5376  -7.5376  -7.5162  -7.5162  -7.4837  -7.4837
    -7.4576  -7.4576  -7.3548  -7.3548  -7.2790  -7.2790  -7.2249  -7.2249
    -7.1960  -7.1960  -7.1494  -7.1494  -7.1234  -7.1234  -7.1029  -7.1029
    -7.0697  -7.0697  -7.0536  -7.0536  -7.0240  -7.0240  -6.8381  -6.8381
    -5.8020  -5.8020  -5.5034  -5.5034  -4.8492  -4.8492  -4.7540  -4.7540
    -4.5334  -4.5334  -4.2338  -4.2338  -4.1848  -4.1848  -4.0580  -4.0580
    -3.9635  -3.9635  -3.9004  -3.9004  -3.8555  -3.8555  -3.7221  -3.7221
    -3.6290  -3.6290  -3.5588  -3.5588  -3.5053  -3.5053  -3.0883  -3.0883
    -1.5574  -1.5574  -0.9125  -0.9125   0.0977   0.0977   1.9683   1.9683
     2.2279   2.2279   2.5967   2.5967   4.0771   4.0772   4.5506   4.5506
     5.3249   5.3253   5.7766

          k =-0.0898 0.0500 0.0000 ( 33237 PWs)   bands (ev):

    -7.7873  -7.7124  -7.5475  -7.5360  -7.5090  -7.5079  -7.4849  -7.4772
    -7.4677  -7.4443  -7.3505  -7.3455  -7.2792  -7.2669  -7.2367  -7.2244
    -7.2007  -7.1778  -7.1454  -7.1414  -7.1406  -7.1158  -7.1061  -7.0920
    -7.0724  -7.0677  -7.0511  -7.0421  -7.0377  -6.9984  -6.8856  -6.7552
    -5.8077  -5.7844  -5.5748  -5.4417  -4.9335  -4.8414  -4.7653  -4.7371
    -4.6321  -4.5087  -4.3193  -4.3056  -4.2436  -4.1573  -4.1284  -4.0711
    -4.0286  -3.9620  -3.9249  -3.9207  -3.8133  -3.7117  -3.6836  -3.6635
    -3.6460  -3.5615  -3.5458  -3.5118  -3.4905  -3.4228  -3.1225  -3.0527
    -2.0771  -1.2149  -1.1727  -0.7208  -0.3110   0.9990   1.4734   1.4911
     1.8129   2.1753   3.0768   3.1250   3.7248   4.3144   4.5008   4.8644
     4.9341   5.4655   5.4856

          k =-0.0898 0.0660 0.0000 ( 33221 PWs)   bands (ev):

    -7.7674  -7.6466  -7.5606  -7.5322  -7.5167  -7.4936  -7.4901  -7.4625
    -7.4382  -7.4306  -7.3347  -7.3325  -7.2688  -7.2669  -7.2368  -7.2151
    -7.1913  -7.1749  -7.1504  -7.1446  -7.1180  -7.1176  -7.1064  -7.0759
    -7.0691  -7.0587  -7.0500  -7.0244  -7.0167  -6.9724  -6.9094  -6.6200
    -5.8134  -5.7480  -5.6771  -5.3840  -5.0359  -4.9027  -4.8347  -4.7280
    -4.6930  -4.5805  -4.4803  -4.4109  -4.3514  -4.2986  -4.1330  -4.0950
    -4.0593  -3.9252  -3.9138  -3.9026  -3.8333  -3.7537  -3.6606  -3.6281
    -3.5057  -3.4813  -3.4768  -3.4129  -3.3127  -3.2191  -3.1701  -2.9835
    -2.6022  -1.4384  -1.2450  -0.9385   0.3881   0.6615   0.7943   1.7391
     1.8454   2.0215   2.7321   3.5507   4.1004   4.3661   4.4909   4.9501
     5.0683   5.4345   5.8523

          k =-0.0898 0.0820 0.0000 ( 33236 PWs)   bands (ev):

    -7.7089  -7.5876  -7.5692  -7.5427  -7.5214  -7.4822  -7.4766  -7.4429
    -7.4065  -7.4000  -7.3270  -7.3156  -7.2890  -7.2502  -7.2234  -7.1953
    -7.1930  -7.1719  -7.1488  -7.1265  -7.1211  -7.0991  -7.0919  -7.0742
    -7.0733  -7.0347  -7.0294  -7.0041  -6.9825  -6.9492  -6.9158  -6.4202
    -5.8736  -5.7988  -5.6923  -5.3433  -5.1174  -5.0017  -4.8533  -4.7631
    -4.7514  -4.6779  -4.6173  -4.5005  -4.4542  -4.4051  -4.2532  -4.0824
    -4.0463  -4.0126  -3.9430  -3.8970  -3.8087  -3.7621  -3.5975  -3.5622
    -3.4718  -3.3937  -3.3904  -3.3352  -3.2527  -3.1373  -3.0500  -3.0282
    -2.7151  -1.9928  -1.2502  -0.6826  -0.2374   0.2244   1.0596   1.4225
     1.7594   2.9123   2.9776   3.1748   3.7951   4.5133   4.5906   5.4234
     5.4599   5.6133   5.9048

          k =-0.0898 0.0980 0.0000 ( 33211 PWs)   bands (ev):

    -7.6456  -7.5825  -7.5394  -7.5358  -7.5122  -7.4699  -7.4657  -7.4221
    -7.3775  -7.3649  -7.3291  -7.3113  -7.2968  -7.2291  -7.2260  -7.2103
    -7.1828  -7.1578  -7.1297  -7.1279  -7.1036  -7.0843  -7.0775  -7.0673
    -7.0585  -7.0052  -7.0049  -6.9834  -6.9609  -6.9230  -6.9032  -6.1642
    -6.0992  -5.8328  -5.6274  -5.3486  -5.1406  -5.0604  -4.8854  -4.8364
    -4.7909  -4.7066  -4.7022  -4.5841  -4.5280  -4.4995  -4.3769  -4.1094
    -4.0793  -4.0333  -3.9827  -3.9510  -3.7864  -3.7263  -3.6344  -3.4985
    -3.3893  -3.3780  -3.3311  -3.3225  -3.3131  -3.2547  -3.0884  -2.9214
    -2.3447  -2.2830  -1.2000  -1.0520  -0.2281  -0.1267   0.2758   1.8764
     1.9157   2.8226   3.2599   3.5009   4.0739   4.4518   4.6041   5.5606
     5.6110   5.6864   5.9543

          k =-0.0898 0.1140 0.0000 ( 33146 PWs)   bands (ev):

    -7.6281  -7.5874  -7.5178  -7.5088  -7.4884  -7.4648  -7.4347  -7.4061
    -7.3547  -7.3402  -7.3326  -7.3230  -7.2866  -7.2389  -7.2236  -7.2150
    -7.1767  -7.1446  -7.1335  -7.1270  -7.0824  -7.0823  -7.0686  -7.0577
    -7.0291  -6.9846  -6.9695  -6.9666  -6.9571  -6.8999  -6.8464  -6.3514
    -5.8921  -5.8570  -5.5793  -5.3763  -5.1247  -5.0882  -5.0712  -4.8277
    -4.7767  -4.7031  -4.6864  -4.6457  -4.5905  -4.5688  -4.4640  -4.1832
    -4.0873  -4.0411  -4.0103  -3.9710  -3.8353  -3.7436  -3.7111  -3.5370
    -3.4879  -3.4029  -3.2772  -3.2704  -3.2478  -3.2067  -3.0828  -2.8422
    -2.5038  -1.8024  -1.4810  -1.1096  -0.5571  -0.4152   0.3050   1.5363
     2.0896   2.7899   3.4091   4.0361   4.4755   4.7511   4.8068   5.3428
     5.5406   5.7395   5.8622

          k =-0.0898-0.0620 0.0000 ( 33086 PWs)   bands (ev):

    -7.6277  -7.5892  -7.5143  -7.5006  -7.4773  -7.4621  -7.4079  -7.4000
    -7.3466  -7.3335  -7.3311  -7.3255  -7.2848  -7.2473  -7.2281  -7.2107
    -7.1738  -7.1415  -7.1347  -7.1277  -7.0822  -7.0744  -7.0666  -7.0530
    -7.0168  -6.9736  -6.9615  -6.9600  -6.9556  -6.8912  -6.7715  -6.4995
    -5.8671  -5.7308  -5.5797  -5.3786  -5.1916  -5.1148  -5.0980  -4.8181
    -4.7563  -4.7038  -4.7026  -4.6667  -4.5832  -4.5815  -4.4943  -4.2117
    -4.0911  -4.0517  -3.9989  -3.9903  -3.9523  -3.7360  -3.7069  -3.6024
    -3.4858  -3.4040  -3.2591  -3.2548  -3.1889  -3.1878  -3.0847  -2.8209
    -2.5454  -1.6444  -1.4568  -1.0391  -0.8261  -0.7066   0.6110   1.2104
     2.3793   2.4138   3.5887   4.5021   4.6548   4.8783   5.1002   5.1146
     5.1486   5.9360   5.9674

     the Fermi energy is     0.1259 ev

!    total energy              =   -1416.85345582 Ry
     estimated scf accuracy    <       0.00000416 Ry
     smearing contrib. (-TS)   =      -0.01846391 Ry
     internal energy E=F+TS    =   -1416.83499190 Ry

     The total energy is F=E-TS. E is the sum of the following terms:
     one-electron contribution =   -9715.91927405 Ry
     hartree contribution      =    4972.35868596 Ry
     xc contribution           =    -490.12061416 Ry
     ewald contribution        =    3816.84621008 Ry
     electric field correction =       0.00000027 Ry

     convergence has been achieved in  11 iterations

     negative rho (up, down):  8.473E-04 0.000E+00

     Forces acting on atoms (cartesian axes, Ry/au):

     atom    1 type  1   force =     0.00069357    0.00048417   -0.01018887
     atom    2 type  1   force =     0.00069682    0.00047302   -0.01019005
     atom    3 type  2   force =    -0.00143583   -0.00099642   -0.00569075
     atom    4 type  2   force =    -0.00144581   -0.00098595   -0.00569519
     atom    5 type  1   force =    -0.00021950   -0.00014878    0.00621005
     atom    6 type  1   force =    -0.00022589   -0.00015369    0.00621404
     atom    7 type  2   force =     0.00050954    0.00035331    0.00910526
     atom    8 type  2   force =     0.00052201    0.00035682    0.00911141
     atom    9 type  1   force =     0.00076496    0.00051367    0.00129800
     atom   10 type  1   force =     0.00076964    0.00053372    0.00129081
     atom   11 type  2   force =    -0.00031527   -0.00021474   -0.00072879
     atom   12 type  2   force =    -0.00031424   -0.00021514   -0.00073593

     Total force =     0.023032     Total SCF correction =     0.006463
     SCF correction compared to forces is large: reduce conv_thr to get better values

     Writing output data file ./Zn2Au2/Zn2Au2_beef.save/

     init_run     :     55.97s CPU    148.87s WALL (       1 calls)
     electrons    :   1304.95s CPU   1827.73s WALL (       1 calls)
     forces       :     30.85s CPU     35.61s WALL (       1 calls)

     Called by init_run:
     wfcinit      :     44.34s CPU    119.26s WALL (       1 calls)
     potinit      :      7.89s CPU     21.70s WALL (       1 calls)
     hinit0       :      2.32s CPU      5.53s WALL (       1 calls)

     Called by electrons:
     c_bands      :   1159.64s CPU   1626.76s WALL (      12 calls)
     sum_band     :    129.90s CPU    178.47s WALL (      12 calls)
     v_of_rho     :     13.99s CPU     31.96s WALL (      12 calls)
     newd         :      8.46s CPU      9.90s WALL (      12 calls)
     mix_rho      :      0.26s CPU      0.63s WALL (      12 calls)
     vdW_kernel   :      5.87s CPU      9.98s WALL (       1 calls)

     Called by c_bands:
     init_us_2    :      5.06s CPU      5.27s WALL (    1924 calls)
     cegterg      :   1144.26s CPU   1606.33s WALL (     888 calls)

     Called by *egterg:
     cdiaghg      :    108.56s CPU    221.84s WALL (    5057 calls)
     h_psi        :    621.80s CPU    915.91s WALL (    5205 calls)
     s_psi        :    149.46s CPU    150.61s WALL (    5205 calls)
     g_psi        :      0.71s CPU      0.79s WALL (    4243 calls)

     Called by h_psi:
     h_psi:calbec :    171.41s CPU    222.82s WALL (    5205 calls)
     vloc_psi     :    294.24s CPU    535.19s WALL (    5205 calls)
     add_vuspsi   :    154.43s CPU    155.89s WALL (    5205 calls)

     General routines
     calbec       :    256.34s CPU    325.06s WALL (    6389 calls)
     fft          :      5.17s CPU     20.65s WALL (     816 calls)
     ffts         :      0.04s CPU      0.30s WALL (      24 calls)
     fftw         :    334.96s CPU    604.03s WALL (  456032 calls)
     interpolate  :      0.10s CPU      0.50s WALL (      12 calls)

     Parallel routines
     fft_scatt_xy :     17.57s CPU     27.44s WALL (  456872 calls)
     fft_scatt_yz :    126.40s CPU    339.62s WALL (  456872 calls)

     PWSCF        :  23m27.28s CPU  36m37.62s WALL


   This run was terminated on:   3:49:31  10Jul2022            

=------------------------------------------------------------------------------=
   JOB DONE.
=------------------------------------------------------------------------------=
