
     Program PWSCF v.6.6 starts on 10Jul2022 at  0: 4: 1 

     This program is part of the open-source Quantum ESPRESSO suite
     for quantum simulation of materials; please cite
         "P. Giannozzi et al., J. Phys.:Condens. Matter 21 395502 (2009);
         "P. Giannozzi et al., J. Phys.:Condens. Matter 29 465901 (2017);
          URL http://www.quantum-espresso.org", 
     in publications or presentations arising from this work. More details at
     http://www.quantum-espresso.org/quote

     Parallel version (MPI), running on    37 processors

     MPI processes distributed on     1 nodes
     R & G space division:  proc/nbgrp/npool/nimage =      37
     Fft bands division:     nmany     =       1
     Reading input from Zn2Hf2.in
Warning: card &CELL ignored
Warning: card / ignored

     Current dimensions of program PWSCF are:
     Max number of different atomic species (ntypx) = 10
     Max number of k-points (npk) =  40000
     Max angular momentum in pseudopotentials (lmaxx) =  3
     Presently stress not available with electric field and gates

     Message from routine cell_base_init:
     DEPRECATED: use true lattice parameter, not A to a.u. conversion factor
     file Zn.pbe-dnl-rrkjus_psl.1.0.0.UPF: wavefunction(s)  3D renormalized

     **************************************************************************
     Initializing libbeef V0.1.2 with the BEEF-vdW functional.
     Citation: Wellendorff et al., PRB 85, 235149 (2012).
     **************************************************************************


     IMPORTANT: XC functional enforced from input :
     Exchange-correlation= BEEF-VDW
                           (   1   4  43  14   2   0   0)
     Any further DFT definition will be discarded
     Please, verify this is what you really want


     Subspace diagonalization in iterative solution of the eigenvalue problem:
     a serial algorithm will be used

     Found symmetry operation: I + ( -0.5000  0.5000  0.0000)
     This is a supercell, fractional translations are disabled

     Parallelization info
     --------------------
     sticks:   dense  smooth     PW     G-vecs:    dense   smooth      PW
     Min         130      52     14                30288     7664    1136
     Max         131      53     15                30307     7677    1163
     Sum        4831    1937    541              1120979   283741   42497



     bravais-lattice index     =            0
     lattice parameter (alat)  =       1.8897  a.u.
     unit-cell volume          =    5128.3475 (a.u.)^3
     number of atoms/cell      =           12
     number of atomic types    =            2
     number of electrons       =       144.00
     number of Kohn-Sham states=           86
     kinetic-energy cutoff     =      55.1240  Ry
     charge density cutoff     =     551.2396  Ry
     convergence threshold     =      1.0E-05
     mixing beta               =       0.1000
     number of iterations used =           10  plain     mixing
     Exchange-correlation= BEEF-VDW
                           (   1   4  43  14   2   0   0)

     celldm(1)=   1.889726  celldm(2)=   0.000000  celldm(3)=   0.000000
     celldm(4)=   0.000000  celldm(5)=   0.000000  celldm(6)=   0.000000

     crystal axes: (cart. coord. in units of alat)
               a(1) = (   5.716540   0.000000   0.000000 )  
               a(2) = (   1.907033   5.389069   0.000000 )  
               a(3) = (   0.000000   0.000000  24.668000 )  

     reciprocal axes: (cart. coord. in units 2 pi/alat)
               b(1) = (  0.174931 -0.061903  0.000000 )  
               b(2) = (  0.000000  0.185561  0.000000 )  
               b(3) = (  0.000000  0.000000  0.040538 )  


     PseudoPot. # 1 for Zn read from file:
     ../pseudo/Zn.pbe-dnl-rrkjus_psl.1.0.0.UPF
     MD5 check sum: 7f56cabf9682ed8c977c2f7d0c5985c5
     Pseudo is Ultrasoft + core correction, Zval = 12.0
     Generated using "atomic" code by A. Dal Corso v.6.2.2
     Using radial grid of 1201 points,  6 beta functions with: 
                l(1) =   0
                l(2) =   0
                l(3) =   1
                l(4) =   1
                l(5) =   2
                l(6) =   2
     Q(r) pseudized with 0 coefficients 


     PseudoPot. # 2 for Hf read from file:
     ../pseudo/Hf.pbe-spn-rrkjus_psl.1.0.0.UPF
     MD5 check sum: 9605440c6f839e558204c6a924125fd0
     Pseudo is Ultrasoft + core correction, Zval = 12.0
     Generated using "atomic" code by A. Dal Corso v.6.2.2
     Using radial grid of 1271 points,  6 beta functions with: 
                l(1) =   0
                l(2) =   0
                l(3) =   1
                l(4) =   1
                l(5) =   2
                l(6) =   2
     Q(r) pseudized with 0 coefficients 


     atomic species   valence    mass     pseudopotential
        Zn            12.00    65.38000     Zn( 1.00)
        Hf            12.00   178.49000     Hf( 1.00)

     No symmetry found



   Cartesian axes

     site n.     atom                  positions (alat units)
         1           Zn  tau(   1) = (   0.0000000   0.0000000  10.0000000  )
         2           Zn  tau(   2) = (   3.8117865   2.6945343  10.0000000  )
         3           Hf  tau(   3) = (   2.8582702   0.0000000  10.0000000  )
         4           Hf  tau(   4) = (   0.9535163   2.6945343  10.0000000  )
         5           Zn  tau(   5) = (   5.7165403   4.0409960  12.3340000  )
         6           Zn  tau(   6) = (   1.9047539   1.3464617  12.3340000  )
         7           Hf  tau(   7) = (   2.8582702   4.0409960  12.3340000  )
         8           Hf  tau(   8) = (   4.7630240   1.3464617  12.3340000  )
         9           Zn  tau(   9) = (   3.8097746   2.6931190  14.8371445  )
        10           Zn  tau(  10) = (   7.6215690   5.3876472  14.8371460  )
        11           Hf  tau(  11) = (   6.6679871   2.6930684  14.5839329  )
        12           Hf  tau(  12) = (   4.7632432   5.3876148  14.5839285  )

     number of k points=    74  Fermi-Dirac smearing, width (Ry)=  0.0100
                       cart. coord. in units 2pi/alat
        k(    1) = (   0.0000000   0.0000000   0.0000000), wk =   0.0138889
        k(    2) = (   0.0000000   0.0154634   0.0000000), wk =   0.0277778
        k(    3) = (   0.0000000   0.0309268   0.0000000), wk =   0.0277778
        k(    4) = (   0.0000000   0.0463902   0.0000000), wk =   0.0277778
        k(    5) = (   0.0000000   0.0618536   0.0000000), wk =   0.0277778
        k(    6) = (   0.0000000   0.0773170   0.0000000), wk =   0.0277778
        k(    7) = (   0.0000000  -0.0927804   0.0000000), wk =   0.0138889
        k(    8) = (   0.0145776  -0.0051586   0.0000000), wk =   0.0277778
        k(    9) = (   0.0145776   0.0103048   0.0000000), wk =   0.0277778
        k(   10) = (   0.0145776   0.0257682   0.0000000), wk =   0.0277778
        k(   11) = (   0.0145776   0.0412316   0.0000000), wk =   0.0277778
        k(   12) = (   0.0145776   0.0566950   0.0000000), wk =   0.0277778
        k(   13) = (   0.0145776   0.0721584   0.0000000), wk =   0.0277778
        k(   14) = (   0.0145776  -0.0979390   0.0000000), wk =   0.0277778
        k(   15) = (   0.0145776  -0.0824756   0.0000000), wk =   0.0277778
        k(   16) = (   0.0145776  -0.0670122   0.0000000), wk =   0.0277778
        k(   17) = (   0.0145776  -0.0515488   0.0000000), wk =   0.0277778
        k(   18) = (   0.0145776  -0.0360854   0.0000000), wk =   0.0277778
        k(   19) = (   0.0145776  -0.0206220   0.0000000), wk =   0.0277778
        k(   20) = (   0.0291552  -0.0103172   0.0000000), wk =   0.0277778
        k(   21) = (   0.0291552   0.0051462   0.0000000), wk =   0.0277778
        k(   22) = (   0.0291552   0.0206096   0.0000000), wk =   0.0277778
        k(   23) = (   0.0291552   0.0360730   0.0000000), wk =   0.0277778
        k(   24) = (   0.0291552   0.0515364   0.0000000), wk =   0.0277778
        k(   25) = (   0.0291552   0.0669998   0.0000000), wk =   0.0277778
        k(   26) = (   0.0291552  -0.1030976   0.0000000), wk =   0.0277778
        k(   27) = (   0.0291552  -0.0876342   0.0000000), wk =   0.0277778
        k(   28) = (   0.0291552  -0.0721708   0.0000000), wk =   0.0277778
        k(   29) = (   0.0291552  -0.0567074   0.0000000), wk =   0.0277778
        k(   30) = (   0.0291552  -0.0412440   0.0000000), wk =   0.0277778
        k(   31) = (   0.0291552  -0.0257806   0.0000000), wk =   0.0277778
        k(   32) = (   0.0437327  -0.0154757   0.0000000), wk =   0.0277778
        k(   33) = (   0.0437327  -0.0000123   0.0000000), wk =   0.0277778
        k(   34) = (   0.0437327   0.0154511   0.0000000), wk =   0.0277778
        k(   35) = (   0.0437327   0.0309145   0.0000000), wk =   0.0277778
        k(   36) = (   0.0437327   0.0463779   0.0000000), wk =   0.0277778
        k(   37) = (   0.0437327   0.0618413   0.0000000), wk =   0.0277778
        k(   38) = (   0.0437327  -0.1082561   0.0000000), wk =   0.0277778
        k(   39) = (   0.0437327  -0.0927927   0.0000000), wk =   0.0277778
        k(   40) = (   0.0437327  -0.0773293   0.0000000), wk =   0.0277778
        k(   41) = (   0.0437327  -0.0618659   0.0000000), wk =   0.0277778
        k(   42) = (   0.0437327  -0.0464025   0.0000000), wk =   0.0277778
        k(   43) = (   0.0437327  -0.0309391   0.0000000), wk =   0.0277778
        k(   44) = (   0.0583103  -0.0206343   0.0000000), wk =   0.0277778
        k(   45) = (   0.0583103  -0.0051709   0.0000000), wk =   0.0277778
        k(   46) = (   0.0583103   0.0102925   0.0000000), wk =   0.0277778
        k(   47) = (   0.0583103   0.0257559   0.0000000), wk =   0.0277778
        k(   48) = (   0.0583103   0.0412193   0.0000000), wk =   0.0277778
        k(   49) = (   0.0583103   0.0566827   0.0000000), wk =   0.0277778
        k(   50) = (   0.0583103  -0.1134147   0.0000000), wk =   0.0277778
        k(   51) = (   0.0583103  -0.0979513   0.0000000), wk =   0.0277778
        k(   52) = (   0.0583103  -0.0824879   0.0000000), wk =   0.0277778
        k(   53) = (   0.0583103  -0.0670245   0.0000000), wk =   0.0277778
        k(   54) = (   0.0583103  -0.0515611   0.0000000), wk =   0.0277778
        k(   55) = (   0.0583103  -0.0360977   0.0000000), wk =   0.0277778
        k(   56) = (   0.0728879  -0.0257929   0.0000000), wk =   0.0277778
        k(   57) = (   0.0728879  -0.0103295   0.0000000), wk =   0.0277778
        k(   58) = (   0.0728879   0.0051339   0.0000000), wk =   0.0277778
        k(   59) = (   0.0728879   0.0205973   0.0000000), wk =   0.0277778
        k(   60) = (   0.0728879   0.0360607   0.0000000), wk =   0.0277778
        k(   61) = (   0.0728879   0.0515241   0.0000000), wk =   0.0277778
        k(   62) = (   0.0728879  -0.1185733   0.0000000), wk =   0.0277778
        k(   63) = (   0.0728879  -0.1031099   0.0000000), wk =   0.0277778
        k(   64) = (   0.0728879  -0.0876465   0.0000000), wk =   0.0277778
        k(   65) = (   0.0728879  -0.0721831   0.0000000), wk =   0.0277778
        k(   66) = (   0.0728879  -0.0567197   0.0000000), wk =   0.0277778
        k(   67) = (   0.0728879  -0.0412563   0.0000000), wk =   0.0277778
        k(   68) = (  -0.0874655   0.0309515   0.0000000), wk =   0.0138889
        k(   69) = (  -0.0874655   0.0464149   0.0000000), wk =   0.0277778
        k(   70) = (  -0.0874655   0.0618783   0.0000000), wk =   0.0277778
        k(   71) = (  -0.0874655   0.0773417   0.0000000), wk =   0.0277778
        k(   72) = (  -0.0874655   0.0928051   0.0000000), wk =   0.0277778
        k(   73) = (  -0.0874655   0.1082685   0.0000000), wk =   0.0277778
        k(   74) = (  -0.0874655  -0.0618289   0.0000000), wk =   0.0138889

     Dense  grid:  1120979 G-vectors     FFT dimensions: (  81,  81, 360)

     Smooth grid:   283741 G-vectors     FFT dimensions: (  54,  54, 225)

     Estimated max dynamical RAM per process >     214.49 MB

     Estimated total dynamical RAM >       7.75 GB

     Initial potential from superposition of free atoms

     starting charge  143.96602, renormalised to  144.00000

     negative rho (up, down):  3.940E-04 0.000E+00


     %%%%%%%%%%%%%%%%%%%%%%%%%%%%%%%%%%%%%%%%%%%%%%%%%%%%%%%%%%%%%%%%%%%%%%%%
     %                                                                      %
     % You are using vdW-DF, which was implemented by the Thonhauser group. %
     % Please cite the following two papers that made this development      %
     % possible and the two reviews that describe the various versions:     %
     %                                                                      %
     %   T. Thonhauser et al., PRL 115, 136402 (2015).                      %
     %   T. Thonhauser et al., PRB 76, 125112 (2007).                       %
     %   K. Berland et al., Rep. Prog. Phys. 78, 066501 (2015).             %
     %   D.C. Langreth et al., J. Phys.: Condens. Matter 21, 084203 (2009). %
     %                                                                      %
     %                                                                      %
     % If you are calculating the stress with vdW-DF, please also cite:     %
     %                                                                      %
     %   R. Sabatini et al., J. Phys.: Condens. Matter 24, 424209 (2012).   %
     %                                                                      %
     %%%%%%%%%%%%%%%%%%%%%%%%%%%%%%%%%%%%%%%%%%%%%%%%%%%%%%%%%%%%%%%%%%%%%%%%



     Adding external electric field

     Computed dipole along edir(3) : 
        Dipole                0.0009 Ry au,          0.0022 Debye
        Dipole field          0.0000 Ry au, 

        Potential amp.       -0.0002 Ry
        Total length         45.4504 bohr

     Starting wfcs are  114 randomized atomic wfcs

     total cpu time spent up to now is      120.2 secs

     Self-consistent Calculation

     iteration #  1     ecut=    55.12 Ry     beta= 0.10
     Davidson diagonalization with overlap
     ethr =  1.00E-02,  avg # of iterations =  2.0

     negative rho (up, down):  3.108E-04 0.000E+00

     Adding external electric field

     Computed dipole along edir(3) : 
        Dipole               -0.1544 Ry au,         -0.3925 Debye
        Dipole field         -0.0004 Ry au, 

        Potential amp.        0.0344 Ry
        Total length         45.4504 bohr


     total cpu time spent up to now is      332.2 secs

     total energy              =   -1654.73009608 Ry
     estimated scf accuracy    <       1.81340673 Ry

     iteration #  2     ecut=    55.12 Ry     beta= 0.10
     Davidson diagonalization with overlap
     ethr =  1.26E-03,  avg # of iterations =  2.7

     negative rho (up, down):  2.854E-04 0.000E+00

     Adding external electric field

     Computed dipole along edir(3) : 
        Dipole                0.3389 Ry au,          0.8613 Debye
        Dipole field          0.0008 Ry au, 

        Potential amp.       -0.0755 Ry
        Total length         45.4504 bohr


     total cpu time spent up to now is      590.0 secs

     total energy              =   -1654.81963053 Ry
     estimated scf accuracy    <       0.73194974 Ry

     iteration #  3     ecut=    55.12 Ry     beta= 0.10
     Davidson diagonalization with overlap
     ethr =  5.08E-04,  avg # of iterations =  3.0

     negative rho (up, down):  2.682E-04 0.000E+00

     Adding external electric field

     Computed dipole along edir(3) : 
        Dipole               -0.0672 Ry au,         -0.1707 Debye
        Dipole field         -0.0002 Ry au, 

        Potential amp.        0.0150 Ry
        Total length         45.4504 bohr


     total cpu time spent up to now is      778.7 secs

     total energy              =   -1654.79446026 Ry
     estimated scf accuracy    <       4.63177583 Ry

     iteration #  4     ecut=    55.12 Ry     beta= 0.10
     Davidson diagonalization with overlap
     ethr =  5.08E-04,  avg # of iterations =  1.3

     negative rho (up, down):  2.532E-04 0.000E+00

     Adding external electric field

     Computed dipole along edir(3) : 
        Dipole               -0.0865 Ry au,         -0.2199 Debye
        Dipole field         -0.0002 Ry au, 

        Potential amp.        0.0193 Ry
        Total length         45.4504 bohr


     total cpu time spent up to now is      946.3 secs

     total energy              =   -1654.82817928 Ry
     estimated scf accuracy    <       0.18015746 Ry

     iteration #  5     ecut=    55.12 Ry     beta= 0.10
     Davidson diagonalization with overlap
     ethr =  1.25E-04,  avg # of iterations =  4.8

     negative rho (up, down):  2.514E-04 0.000E+00

     Adding external electric field

     Computed dipole along edir(3) : 
        Dipole               -0.0644 Ry au,         -0.1636 Debye
        Dipole field         -0.0002 Ry au, 

        Potential amp.        0.0143 Ry
        Total length         45.4504 bohr


     total cpu time spent up to now is     1127.1 secs

     total energy              =   -1654.83332482 Ry
     estimated scf accuracy    <       0.09133747 Ry

     iteration #  6     ecut=    55.12 Ry     beta= 0.10
     Davidson diagonalization with overlap
     ethr =  6.34E-05,  avg # of iterations =  9.0

     negative rho (up, down):  2.319E-04 0.000E+00

     Adding external electric field

     Computed dipole along edir(3) : 
        Dipole               -0.0517 Ry au,         -0.1314 Debye
        Dipole field         -0.0001 Ry au, 

        Potential amp.        0.0115 Ry
        Total length         45.4504 bohr


     total cpu time spent up to now is     1345.1 secs

     total energy              =   -1654.84630637 Ry
     estimated scf accuracy    <       0.14018268 Ry

     iteration #  7     ecut=    55.12 Ry     beta= 0.10
     Davidson diagonalization with overlap
     ethr =  6.34E-05,  avg # of iterations =  2.0

     negative rho (up, down):  2.280E-04 0.000E+00

     Adding external electric field

     Computed dipole along edir(3) : 
        Dipole               -0.0640 Ry au,         -0.1626 Debye
        Dipole field         -0.0002 Ry au, 

        Potential amp.        0.0143 Ry
        Total length         45.4504 bohr


     total cpu time spent up to now is     1538.7 secs

     total energy              =   -1654.85240479 Ry
     estimated scf accuracy    <       0.02337297 Ry

     iteration #  8     ecut=    55.12 Ry     beta= 0.10
     Davidson diagonalization with overlap
     c_bands:  1 eigenvalues not converged
     c_bands:  1 eigenvalues not converged
     ethr =  1.62E-05,  avg # of iterations =  3.9

     negative rho (up, down):  2.387E-04 0.000E+00

     Adding external electric field

     Computed dipole along edir(3) : 
        Dipole               -0.0613 Ry au,         -0.1557 Debye
        Dipole field         -0.0002 Ry au, 

        Potential amp.        0.0136 Ry
        Total length         45.4504 bohr


     total cpu time spent up to now is     1737.7 secs

     total energy              =   -1654.85533835 Ry
     estimated scf accuracy    <       0.00374321 Ry

     iteration #  9     ecut=    55.12 Ry     beta= 0.10
     Davidson diagonalization with overlap
     ethr =  2.60E-06,  avg # of iterations =  9.6

     negative rho (up, down):  2.324E-04 0.000E+00

     Adding external electric field

     Computed dipole along edir(3) : 
        Dipole               -0.0629 Ry au,         -0.1600 Debye
        Dipole field         -0.0002 Ry au, 

        Potential amp.        0.0140 Ry
        Total length         45.4504 bohr


     total cpu time spent up to now is     1977.7 secs

     total energy              =   -1654.85600344 Ry
     estimated scf accuracy    <       0.00233147 Ry

     iteration # 10     ecut=    55.12 Ry     beta= 0.10
     Davidson diagonalization with overlap
     ethr =  1.62E-06,  avg # of iterations =  2.1

     negative rho (up, down):  2.253E-04 0.000E+00

     Adding external electric field

     Computed dipole along edir(3) : 
        Dipole               -0.0608 Ry au,         -0.1545 Debye
        Dipole field         -0.0001 Ry au, 

        Potential amp.        0.0135 Ry
        Total length         45.4504 bohr


     total cpu time spent up to now is     2135.9 secs

     total energy              =   -1654.85529190 Ry
     estimated scf accuracy    <       0.00360456 Ry

     iteration # 11     ecut=    55.12 Ry     beta= 0.10
     Davidson diagonalization with overlap
     ethr =  1.62E-06,  avg # of iterations =  5.0

     negative rho (up, down):  2.168E-04 0.000E+00

     Adding external electric field

     Computed dipole along edir(3) : 
        Dipole               -0.0636 Ry au,         -0.1616 Debye
        Dipole field         -0.0002 Ry au, 

        Potential amp.        0.0142 Ry
        Total length         45.4504 bohr


     total cpu time spent up to now is     2333.7 secs

     total energy              =   -1654.85596367 Ry
     estimated scf accuracy    <       0.00092347 Ry

     iteration # 12     ecut=    55.12 Ry     beta= 0.10
     Davidson diagonalization with overlap
     ethr =  6.41E-07,  avg # of iterations =  1.4

     negative rho (up, down):  2.099E-04 0.000E+00

     Adding external electric field

     Computed dipole along edir(3) : 
        Dipole               -0.0616 Ry au,         -0.1565 Debye
        Dipole field         -0.0002 Ry au, 

        Potential amp.        0.0137 Ry
        Total length         45.4504 bohr


     total cpu time spent up to now is     2527.3 secs

     total energy              =   -1654.85585289 Ry
     estimated scf accuracy    <       0.00060359 Ry

     iteration # 13     ecut=    55.12 Ry     beta= 0.10
     Davidson diagonalization with overlap
     ethr =  4.19E-07,  avg # of iterations =  2.2

     negative rho (up, down):  2.026E-04 0.000E+00

     Adding external electric field

     Computed dipole along edir(3) : 
        Dipole               -0.0599 Ry au,         -0.1522 Debye
        Dipole field         -0.0001 Ry au, 

        Potential amp.        0.0133 Ry
        Total length         45.4504 bohr


     total cpu time spent up to now is     2856.9 secs

     total energy              =   -1654.85592209 Ry
     estimated scf accuracy    <       0.00002231 Ry

     iteration # 14     ecut=    55.12 Ry     beta= 0.10
     Davidson diagonalization with overlap
     ethr =  1.55E-08,  avg # of iterations =  6.6

     negative rho (up, down):  1.966E-04 0.000E+00

     Adding external electric field

     Computed dipole along edir(3) : 
        Dipole               -0.0612 Ry au,         -0.1555 Debye
        Dipole field         -0.0001 Ry au, 

        Potential amp.        0.0136 Ry
        Total length         45.4504 bohr


     total cpu time spent up to now is     3122.1 secs

     total energy              =   -1654.85592928 Ry
     estimated scf accuracy    <       0.00001743 Ry

     iteration # 15     ecut=    55.12 Ry     beta= 0.10
     Davidson diagonalization with overlap
     ethr =  1.21E-08,  avg # of iterations =  1.3

     negative rho (up, down):  1.588E-04 0.000E+00

     Adding external electric field

     Computed dipole along edir(3) : 
        Dipole               -0.0684 Ry au,         -0.1740 Debye
        Dipole field         -0.0002 Ry au, 

        Potential amp.        0.0152 Ry
        Total length         45.4504 bohr


     total cpu time spent up to now is     3295.7 secs

     End of self-consistent calculation

          k = 0.0000 0.0000 0.0000 ( 35453 PWs)   bands (ev):

   -62.2580 -62.2471 -62.1331 -62.1221 -61.7277 -61.7166 -30.8333 -30.8094
   -30.7145 -30.7050 -30.7038 -30.6938 -30.6809 -30.6097 -30.6067 -30.5881
   -30.4392 -30.3706 -30.3394 -30.2039 -30.1796 -30.1765 -30.1359 -30.0902
    -7.3298  -6.7805  -6.7565  -6.7373  -6.7321  -6.6526  -6.6163  -6.6054
    -6.5556  -6.5531  -6.5508  -6.5275  -6.5215  -6.4990  -6.4650  -6.4325
    -6.4231  -6.4222  -6.3795  -6.3188  -6.3166  -6.3156  -6.3006  -6.2946
    -6.2878  -6.2695  -6.1996  -6.1871  -6.1737  -6.1518  -6.0774  -5.3733
    -3.8209  -3.6427  -3.1633  -3.0081  -1.3552  -1.0226  -0.9507  -0.3780
    -0.1382   0.0242   0.1022   0.1593   0.4733   0.5424   0.5467   1.0433
     1.1749   1.2024   1.2096   1.4124   1.4270   1.7134   2.0247   2.0313
     2.2957   2.6888   2.9763   3.0817   3.1694   3.3899

          k = 0.0000 0.0155 0.0000 ( 35469 PWs)   bands (ev):

   -62.2578 -62.2473 -62.1330 -62.1223 -61.7275 -61.7168 -30.8329 -30.8099
   -30.7148 -30.7028 -30.7006 -30.6947 -30.6809 -30.6095 -30.6023 -30.5886
   -30.4439 -30.3660 -30.3441 -30.2035 -30.1788 -30.1770 -30.1367 -30.0951
    -7.2851  -6.7741  -6.7485  -6.7311  -6.7277  -6.6501  -6.6145  -6.6040
    -6.5527  -6.5511  -6.5449  -6.5308  -6.5202  -6.4858  -6.4603  -6.4256
    -6.4207  -6.4195  -6.3791  -6.3194  -6.3147  -6.3139  -6.2980  -6.2950
    -6.2874  -6.2711  -6.2040  -6.1882  -6.1764  -6.1537  -6.0816  -5.3424
    -3.7971  -3.6969  -3.1851  -3.0504  -1.4121  -1.0044  -0.8613  -0.4155
    -0.2697   0.0493   0.1179   0.1890   0.2778   0.5378   0.7065   0.8708
     1.0916   1.1958   1.2335   1.4250   1.4464   1.8236   1.9593   2.0922
     2.2054   2.7401   2.9669   2.9816   3.1452   3.3645

          k = 0.0000 0.0309 0.0000 ( 35433 PWs)   bands (ev):

   -62.2573 -62.2479 -62.1324 -62.1229 -61.7270 -61.7173 -30.8317 -30.8111
   -30.7153 -30.7003 -30.6969 -30.6877 -30.6810 -30.6088 -30.5901 -30.5893
   -30.4576 -30.3579 -30.3523 -30.2023 -30.1786 -30.1765 -30.1387 -30.1095
    -7.1544  -6.7565  -6.7259  -6.7151  -6.7141  -6.6431  -6.6099  -6.6002
    -6.5515  -6.5480  -6.5395  -6.5158  -6.5144  -6.4588  -6.4474  -6.4136
    -6.4115  -6.4050  -6.3774  -6.3204  -6.3111  -6.3091  -6.2972  -6.2901
    -6.2854  -6.2747  -6.2152  -6.1913  -6.1856  -6.1587  -6.0940  -5.2458
    -3.8884  -3.7272  -3.2552  -3.1300  -1.3968  -1.1404  -0.6034  -0.5732
    -0.5084   0.0791   0.0936   0.1537   0.2691   0.3958   0.5331   0.8375
     1.0753   1.1611   1.2555   1.4705   1.5076   1.7916   1.9149   1.9837
     2.2588   2.7762   2.8821   2.9455   3.1549   3.3868

          k = 0.0000 0.0464 0.0000 ( 35401 PWs)   bands (ev):

   -62.2564 -62.2487 -62.1315 -62.1238 -61.7261 -61.7182 -30.8298 -30.8130
   -30.7153 -30.7000 -30.6970 -30.6816 -30.6671 -30.6076 -30.5922 -30.5687
   -30.4793 -30.3797 -30.3305 -30.2004 -30.1810 -30.1729 -30.1421 -30.1323
    -6.9521  -6.7317  -6.6963  -6.6928  -6.6894  -6.6328  -6.6042  -6.5955
    -6.5618  -6.5465  -6.5277  -6.5065  -6.4794  -6.4343  -6.4297  -6.4025
    -6.3991  -6.3739  -6.3703  -6.3228  -6.3096  -6.3056  -6.2986  -6.2788
    -6.2788  -6.2746  -6.2291  -6.2013  -6.1964  -6.1641  -6.1146  -5.0757
    -4.2401  -3.6181  -3.3295  -3.2298  -1.3082  -1.2442  -0.9226  -0.6339
    -0.3873  -0.1146   0.0201   0.0856   0.1393   0.3733   0.5788   0.9095
     1.0188   1.0792   1.1803   1.5273   1.6252   1.6264   1.7734   1.9586
     2.4075   2.6143   2.9548   3.0395   3.1708   3.3390

          k = 0.0000 0.0619 0.0000 ( 35455 PWs)   bands (ev):

   -62.2553 -62.2498 -62.1304 -62.1249 -61.7249 -61.7193 -30.8274 -30.8155
   -30.7145 -30.7035 -30.6935 -30.6828 -30.6402 -30.6059 -30.5950 -30.5416
   -30.5074 -30.4080 -30.3020 -30.1979 -30.1841 -30.1683 -30.1617 -30.1465
    -6.7382  -6.7053  -6.6736  -6.6589  -6.6498  -6.6213  -6.6000  -6.5919
    -6.5784  -6.5266  -6.5259  -6.4910  -6.4373  -6.4188  -6.4119  -6.3885
    -6.3838  -6.3608  -6.3369  -6.3254  -6.3149  -6.3146  -6.2905  -6.2683
    -6.2663  -6.2521  -6.2469  -6.2174  -6.2031  -6.1533  -6.1428  -4.8281
    -4.6930  -3.4879  -3.4835  -3.2976  -1.4506  -1.1371  -0.9875  -0.7821
    -0.7012  -0.1205  -0.0104   0.0493   0.0632   0.4541   0.6766   0.8725
     0.9226   1.0035   1.0787   1.2623   1.6690   1.7582   1.8245   1.9960
     2.4164   2.6228   2.9920   3.0352   3.0984   3.2108

          k = 0.0000 0.0773 0.0000 ( 35458 PWs)   bands (ev):

   -62.2540 -62.2511 -62.1291 -62.1262 -61.7236 -61.7207 -30.8245 -30.8183
   -30.7127 -30.7070 -30.6902 -30.6847 -30.6085 -30.6037 -30.5980 -30.5398
   -30.5098 -30.4406 -30.2685 -30.1963 -30.1945 -30.1876 -30.1629 -30.1516
    -6.6830  -6.6742  -6.6494  -6.6175  -6.6100  -6.6006  -6.5988  -6.5931
    -6.5906  -6.5378  -6.4752  -6.4752  -6.4033  -6.3980  -6.3919  -6.3738
    -6.3678  -6.3522  -6.3352  -6.3263  -6.3226  -6.2979  -6.2834  -6.2800
    -6.2540  -6.2490  -6.2261  -6.2242  -6.2097  -6.1762  -6.0000  -5.1752
    -4.5112  -3.7852  -3.3719  -3.2975  -1.5005  -1.2029  -1.0897  -0.9426
    -0.6548  -0.1422  -0.0701  -0.0377   0.1489   0.4603   0.7080   0.7743
     0.8086   0.9787   1.0196   1.0782   1.7390   1.9149   1.9821   2.0356
     2.3381   2.6857   2.7667   2.9245   3.0985   3.2263

          k = 0.0000-0.0928 0.0000 ( 35482 PWs)   bands (ev):

   -62.2526 -62.2525 -62.1276 -62.1276 -61.7221 -61.7221 -30.8214 -30.8214
   -30.7102 -30.7102 -30.6872 -30.6872 -30.6010 -30.6010 -30.5743 -30.5743
   -30.4754 -30.4754 -30.2324 -30.2324 -30.1913 -30.1912 -30.1572 -30.1572
    -6.6705  -6.6705  -6.6262  -6.6261  -6.6020  -6.6019  -6.5929  -6.5929
    -6.5638  -6.5638  -6.4652  -6.4651  -6.3928  -6.3927  -6.3646  -6.3646
    -6.3562  -6.3561  -6.3373  -6.3373  -6.3122  -6.3122  -6.2814  -6.2814
    -6.2408  -6.2408  -6.2262  -6.2262  -6.2054  -6.2053  -5.6326  -5.6326
    -4.1492  -4.1492  -3.3080  -3.3080  -1.3974  -1.3974  -1.0873  -1.0873
    -0.3217  -0.3217  -0.1145  -0.1145   0.3135   0.3135   0.6969   0.6969
     0.9007   0.9007   1.0160   1.0161   1.8891   1.8891   2.0574   2.0574
     2.4242   2.4242   2.8425   2.8425   3.1741   3.1741

          k = 0.0146-0.0052 0.0000 ( 35469 PWs)   bands (ev):

   -62.2578 -62.2473 -62.1330 -62.1223 -61.7275 -61.7168 -30.8329 -30.8099
   -30.7148 -30.7028 -30.7006 -30.6947 -30.6809 -30.6095 -30.6023 -30.5886
   -30.4439 -30.3660 -30.3441 -30.2035 -30.1788 -30.1770 -30.1367 -30.0951
    -7.2851  -6.7741  -6.7485  -6.7311  -6.7277  -6.6501  -6.6145  -6.6040
    -6.5527  -6.5511  -6.5449  -6.5308  -6.5202  -6.4858  -6.4603  -6.4256
    -6.4207  -6.4195  -6.3791  -6.3194  -6.3147  -6.3139  -6.2980  -6.2950
    -6.2874  -6.2711  -6.2040  -6.1882  -6.1764  -6.1537  -6.0816  -5.3424
    -3.7971  -3.6969  -3.1851  -3.0504  -1.4121  -1.0044  -0.8613  -0.4155
    -0.2697   0.0493   0.1179   0.1890   0.2778   0.5378   0.7065   0.8708
     1.0916   1.1958   1.2335   1.4250   1.4464   1.8236   1.9593   2.0922
     2.2054   2.7401   2.9669   2.9816   3.1452   3.3645

          k = 0.0146 0.0103 0.0000 ( 35459 PWs)   bands (ev):

   -62.2580 -62.2471 -62.1331 -62.1222 -61.7277 -61.7166 -30.8335 -30.8091
   -30.7172 -30.7051 -30.7022 -30.6947 -30.6790 -30.6107 -30.6069 -30.5879
   -30.4392 -30.3706 -30.3393 -30.2042 -30.1785 -30.1765 -30.1368 -30.0903
    -7.2689  -6.7704  -6.7503  -6.7288  -6.7273  -6.6484  -6.6129  -6.6032
    -6.5489  -6.5480  -6.5447  -6.5269  -6.5171  -6.4851  -6.4593  -6.4285
    -6.4207  -6.4181  -6.3752  -6.3213  -6.3130  -6.3125  -6.2997  -6.2913
    -6.2839  -6.2695  -6.2052  -6.1925  -6.1690  -6.1518  -6.0784  -5.3276
    -3.7875  -3.6529  -3.1371  -2.9523  -1.7246  -1.2458  -0.8201  -0.5921
    -0.2071   0.0030   0.0676   0.1367   0.3236   0.5761   0.8670   0.8988
     1.1000   1.1175   1.1301   1.4420   1.5212   1.7462   2.0087   2.0678
     2.2507   2.9379   2.9573   3.0319   3.0953   3.3485

          k = 0.0146 0.0258 0.0000 ( 35447 PWs)   bands (ev):

   -62.2578 -62.2473 -62.1329 -62.1223 -61.7275 -61.7167 -30.8334 -30.8093
   -30.7190 -30.7009 -30.7006 -30.6959 -30.6778 -30.6114 -30.6028 -30.5881
   -30.4438 -30.3659 -30.3440 -30.2040 -30.1770 -30.1767 -30.1384 -30.0953
    -7.1659  -6.7552  -6.7370  -6.7189  -6.7150  -6.6421  -6.6084  -6.5999
    -6.5429  -6.5387  -6.5357  -6.5271  -6.5113  -6.4625  -6.4500  -6.4180
    -6.4165  -6.4110  -6.3704  -6.3217  -6.3103  -6.3083  -6.2962  -6.2890
    -6.2797  -6.2707  -6.2121  -6.1984  -6.1695  -6.1535  -6.0835  -5.2482
    -3.7449  -3.7352  -3.1356  -2.9457  -1.8648  -1.4922  -0.7816  -0.7222
    -0.4138  -0.1797   0.0667   0.1661   0.4540   0.5980   0.5984   0.8759
     1.0021   1.1016   1.1852   1.4824   1.6244   1.7813   1.9159   2.1170
     2.1854   2.7858   3.0643   3.0766   3.2086   3.3258

          k = 0.0146 0.0412 0.0000 ( 35466 PWs)   bands (ev):

   -62.2572 -62.2479 -62.1324 -62.1229 -61.7270 -61.7173 -30.8325 -30.8103
   -30.7198 -30.6987 -30.6978 -30.6882 -30.6775 -30.6113 -30.5901 -30.5891
   -30.4575 -30.3577 -30.3522 -30.2031 -30.1786 -30.1736 -30.1412 -30.1098
    -6.9870  -6.7323  -6.7103  -6.7041  -6.6937  -6.6324  -6.6027  -6.5955
    -6.5443  -6.5353  -6.5247  -6.5034  -6.5031  -6.4361  -6.4355  -6.4070
    -6.4001  -6.3946  -6.3633  -6.3223  -6.3074  -6.3025  -6.2894  -6.2877
    -6.2733  -6.2714  -6.2216  -6.2050  -6.1787  -6.1578  -6.0970  -5.0966
    -4.0398  -3.6522  -3.1962  -2.9859  -1.7647  -1.7092  -0.9759  -0.7151
    -0.6464  -0.2886   0.0796   0.1787   0.2219   0.5465   0.6284   0.8303
     0.8876   1.0983   1.1945   1.5630   1.7022   1.7771   1.8534   1.9000
     2.3193   2.6264   3.1025   3.1413   3.2525   3.4052

          k = 0.0146 0.0567 0.0000 ( 35424 PWs)   bands (ev):

   -62.2564 -62.2487 -62.1315 -62.1238 -61.7261 -61.7182 -30.8307 -30.8120
   -30.7194 -30.7001 -30.6965 -30.6782 -30.6676 -30.6103 -30.5910 -30.5694
   -30.4791 -30.3795 -30.3303 -30.2012 -30.1809 -30.1694 -30.1452 -30.1326
    -6.7729  -6.7067  -6.6851  -6.6740  -6.6671  -6.6210  -6.5979  -6.5916
    -6.5587  -6.5185  -6.5154  -6.4917  -6.4673  -6.4200  -6.4190  -6.3929
    -6.3872  -6.3622  -6.3527  -6.3251  -6.3082  -6.3016  -6.2877  -6.2769
    -6.2673  -6.2537  -6.2324  -6.2098  -6.1942  -6.1565  -6.1189  -4.8671
    -4.4834  -3.5654  -3.3681  -3.0064  -1.8517  -1.5037  -1.1718  -0.8842
    -0.7586  -0.3669   0.0381   0.1037   0.1728   0.5935   0.6593   0.7550
     0.8216   1.0316   1.1354   1.4182   1.6915   1.7125   1.9121   2.0353
     2.3388   2.5925   3.0493   3.1513   3.1856   3.3551

          k = 0.0146 0.0722 0.0000 ( 35443 PWs)   bands (ev):

   -62.2552 -62.2499 -62.1303 -62.1249 -61.7250 -61.7193 -30.8285 -30.8144
   -30.7178 -30.7026 -30.6943 -30.6800 -30.6407 -30.6086 -30.5933 -30.5423
   -30.5072 -30.4076 -30.3017 -30.1986 -30.1839 -30.1647 -30.1619 -30.1500
    -6.6836  -6.6685  -6.6637  -6.6367  -6.6151  -6.6102  -6.5961  -6.5896
    -6.5768  -6.5196  -6.4776  -6.4711  -6.4262  -6.4061  -6.4040  -6.3767
    -6.3745  -6.3464  -6.3360  -6.3219  -6.3138  -6.3094  -6.2813  -6.2664
    -6.2587  -6.2503  -6.2306  -6.2066  -6.2056  -6.1483  -6.0577  -4.9785
    -4.5649  -3.6616  -3.5178  -3.0242  -1.8595  -1.3584  -1.1596  -1.0104
    -0.8746  -0.4010   0.0724   0.1173   0.1637   0.4809   0.6350   0.7246
     0.8355   0.9589   1.0656   1.2283   1.6065   1.8511   2.0392   2.2281
     2.2522   2.6889   2.7712   3.0545   3.0559   3.2996

          k = 0.0146-0.0979 0.0000 ( 35479 PWs)   bands (ev):

   -62.2539 -62.2512 -62.1290 -62.1263 -61.7236 -61.7207 -30.8257 -30.8173
   -30.7150 -30.7050 -30.6921 -30.6829 -30.6090 -30.6060 -30.5959 -30.5395
   -30.5104 -30.4402 -30.2683 -30.1967 -30.1950 -30.1873 -30.1591 -30.1554
    -6.6679  -6.6580  -6.6418  -6.6093  -6.6003  -6.5987  -6.5946  -6.5900
    -6.5863  -6.5394  -6.4657  -6.4528  -6.3961  -6.3936  -6.3793  -6.3663
    -6.3606  -6.3496  -6.3385  -6.3253  -6.3194  -6.2902  -6.2871  -6.2782
    -6.2507  -6.2502  -6.2285  -6.2124  -6.2116  -6.1809  -5.7348  -5.4618
    -4.2117  -4.0244  -3.5340  -3.0848  -1.7017  -1.5003  -1.1853  -0.7827
    -0.7414  -0.3795   0.0835   0.1114   0.1799   0.2655   0.5846   0.8085
     0.8565   0.9121   1.0179   1.1534   1.6733   1.9656   2.0720   2.1338
     2.4206   2.4622   2.7759   2.8534   2.9969   3.2123

          k = 0.0146-0.0825 0.0000 ( 35464 PWs)   bands (ev):

   -62.2526 -62.2525 -62.1277 -62.1276 -61.7222 -61.7221 -30.8226 -30.8204
   -30.7113 -30.7071 -30.6900 -30.6865 -30.6029 -30.5986 -30.5747 -30.5740
   -30.4759 -30.4748 -30.2327 -30.2321 -30.1917 -30.1908 -30.1609 -30.1536
    -6.6670  -6.6645  -6.6295  -6.6216  -6.6054  -6.5976  -6.5954  -6.5901
    -6.5704  -6.5582  -6.4653  -6.4614  -6.3957  -6.3890  -6.3679  -6.3672
    -6.3591  -6.3554  -6.3420  -6.3333  -6.3116  -6.3090  -6.2851  -6.2826
    -6.2472  -6.2435  -6.2299  -6.2265  -6.2048  -6.1962  -5.8801  -5.3031
    -4.3938  -3.8508  -3.5850  -3.2109  -1.6171  -1.3314  -1.2019  -0.5803
    -0.4347  -0.2793  -0.2150   0.1121   0.2231   0.2874   0.5594   0.8543
     0.9013   0.9143   1.0336   1.1643   1.8011   1.8937   1.9395   1.9934
     2.3596   2.5794   2.7275   2.9124   2.9345   3.0184

          k = 0.0146-0.0670 0.0000 ( 35446 PWs)   bands (ev):

   -62.2540 -62.2511 -62.1291 -62.1262 -61.7236 -61.7207 -30.8236 -30.8194
   -30.7088 -30.7071 -30.6907 -30.6881 -30.6081 -30.6012 -30.5994 -30.5401
   -30.5092 -30.4410 -30.2688 -30.1959 -30.1940 -30.1879 -30.1663 -30.1485
    -6.6889  -6.6846  -6.6553  -6.6320  -6.6169  -6.6061  -6.5983  -6.5950
    -6.5910  -6.5379  -6.5185  -6.4783  -6.4109  -6.4013  -6.3981  -6.3852
    -6.3713  -6.3669  -6.3328  -6.3291  -6.3170  -6.3053  -6.2893  -6.2746
    -6.2666  -6.2496  -6.2474  -6.2345  -6.1934  -6.1718  -6.1271  -4.8373
    -4.7245  -3.6456  -3.5208  -3.3776  -1.5494  -1.0876  -0.9010  -0.5140
    -0.4424  -0.1983  -0.1147   0.1208   0.1652   0.3233   0.5808   0.7248
     0.9923   1.0553   1.1869   1.1960   1.6538   1.7757   1.8121   1.9257
     2.4489   2.6375   2.7276   2.8584   2.9766   2.9981

          k = 0.0146-0.0515 0.0000 ( 35404 PWs)   bands (ev):

   -62.2553 -62.2498 -62.1304 -62.1249 -61.7249 -61.7194 -30.8266 -30.8163
   -30.7101 -30.7028 -30.6951 -30.6864 -30.6398 -30.6036 -30.5959 -30.5410
   -30.5075 -30.4082 -30.3021 -30.1973 -30.1842 -30.1712 -30.1615 -30.1440
    -6.8393  -6.7170  -6.6807  -6.6773  -6.6592  -6.6285  -6.6022  -6.5940
    -6.5789  -6.5568  -6.5307  -6.4984  -6.4452  -6.4220  -6.4156  -6.4006
    -6.3876  -6.3807  -6.3421  -6.3203  -6.3192  -6.3117  -6.2982  -6.2852
    -6.2730  -6.2662  -6.2421  -6.2265  -6.1884  -6.1687  -6.1391  -4.9902
    -4.3898  -3.6285  -3.5414  -3.3221  -1.3118  -0.9155  -0.7753  -0.4071
    -0.3371  -0.0869  -0.0695   0.0389   0.2608   0.2647   0.5612   0.6494
     0.9931   1.2015   1.2663   1.4297   1.4864   1.6776   1.6920   2.0078
     2.5317   2.5423   2.7426   2.8371   2.8716   3.1050

          k = 0.0146-0.0361 0.0000 ( 35430 PWs)   bands (ev):

   -62.2564 -62.2487 -62.1316 -62.1237 -61.7261 -61.7182 -30.8293 -30.8136
   -30.7112 -30.6991 -30.6989 -30.6847 -30.6668 -30.6059 -30.5928 -30.5683
   -30.4793 -30.3798 -30.3306 -30.2000 -30.1810 -30.1750 -30.1403 -30.1321
    -7.0566  -6.7444  -6.7048  -6.7029  -6.6980  -6.6391  -6.6076  -6.5982
    -6.5636  -6.5590  -6.5340  -6.5146  -6.4864  -6.4426  -6.4357  -6.4115
    -6.4022  -6.3848  -6.3790  -6.3172  -6.3113  -6.3082  -6.3059  -6.2913
    -6.2800  -6.2790  -6.2232  -6.2083  -6.1857  -6.1660  -6.1123  -5.1798
    -4.0302  -3.6729  -3.5283  -3.2124  -0.9600  -0.9410  -0.7868  -0.4355
    -0.2692  -0.0706   0.1161   0.1556   0.1904   0.4038   0.4572   0.7199
     0.8446   1.2683   1.3553   1.4082   1.5721   1.6265   1.8157   2.0540
     2.4266   2.6427   2.6429   2.7962   2.9930   3.2451

          k = 0.0146-0.0206 0.0000 ( 35435 PWs)   bands (ev):

   -62.2573 -62.2478 -62.1324 -62.1229 -61.7270 -61.7173 -30.8314 -30.8114
   -30.7126 -30.7019 -30.6961 -30.6875 -30.6828 -30.6078 -30.5903 -30.5891
   -30.4576 -30.3579 -30.3524 -30.2020 -30.1786 -30.1776 -30.1378 -30.1093
    -7.2125  -6.7649  -6.7317  -6.7209  -6.7192  -6.6468  -6.6124  -6.6021
    -6.5565  -6.5506  -6.5445  -6.5202  -6.5184  -6.4677  -6.4518  -6.4184
    -6.4132  -6.4088  -6.3827  -6.3158  -6.3155  -6.3119  -6.3002  -6.2911
    -6.2903  -6.2753  -6.2104  -6.1900  -6.1858  -6.1589  -6.0929  -5.2947
    -3.8150  -3.7592  -3.3352  -3.1443  -1.1299  -0.8201  -0.7352  -0.5487
    -0.2867  -0.0321   0.1211   0.1449   0.4794   0.5055   0.5267   0.6702
     0.9129   1.2943   1.3332   1.3375   1.4910   1.8044   2.0067   2.0421
     2.2303   2.6173   2.8469   2.8797   3.0897   3.4164

          k = 0.0292-0.0103 0.0000 ( 35433 PWs)   bands (ev):

   -62.2573 -62.2479 -62.1324 -62.1229 -61.7270 -61.7173 -30.8317 -30.8111
   -30.7153 -30.7003 -30.6969 -30.6877 -30.6810 -30.6088 -30.5901 -30.5893
   -30.4576 -30.3579 -30.3523 -30.2023 -30.1786 -30.1765 -30.1387 -30.1095
    -7.1544  -6.7565  -6.7259  -6.7151  -6.7141  -6.6431  -6.6099  -6.6002
    -6.5515  -6.5480  -6.5395  -6.5158  -6.5144  -6.4588  -6.4474  -6.4136
    -6.4115  -6.4050  -6.3774  -6.3204  -6.3111  -6.3091  -6.2972  -6.2901
    -6.2854  -6.2747  -6.2152  -6.1913  -6.1856  -6.1587  -6.0940  -5.2458
    -3.8884  -3.7272  -3.2552  -3.1300  -1.3968  -1.1404  -0.6034  -0.5732
    -0.5084   0.0791   0.0936   0.1537   0.2691   0.3958   0.5331   0.8375
     1.0753   1.1611   1.2555   1.4705   1.5076   1.7916   1.9149   1.9837
     2.2588   2.7762   2.8822   2.9455   3.1549   3.3869

          k = 0.0292 0.0051 0.0000 ( 35447 PWs)   bands (ev):

   -62.2578 -62.2473 -62.1329 -62.1223 -61.7275 -61.7167 -30.8334 -30.8093
   -30.7190 -30.7009 -30.7006 -30.6959 -30.6778 -30.6114 -30.6028 -30.5881
   -30.4438 -30.3659 -30.3440 -30.2040 -30.1770 -30.1767 -30.1384 -30.0953
    -7.1659  -6.7552  -6.7370  -6.7189  -6.7150  -6.6421  -6.6084  -6.5999
    -6.5429  -6.5387  -6.5357  -6.5271  -6.5113  -6.4625  -6.4500  -6.4180
    -6.4165  -6.4110  -6.3704  -6.3217  -6.3103  -6.3083  -6.2962  -6.2890
    -6.2797  -6.2707  -6.2121  -6.1984  -6.1695  -6.1535  -6.0835  -5.2482
    -3.7449  -3.7352  -3.1356  -2.9457  -1.8648  -1.4922  -0.7816  -0.7222
    -0.4138  -0.1797   0.0667   0.1661   0.4540   0.5980   0.5984   0.8759
     1.0021   1.1016   1.1852   1.4824   1.6244   1.7813   1.9159   2.1170
     2.1854   2.7858   3.0643   3.0766   3.2086   3.3257

          k = 0.0292 0.0206 0.0000 ( 35471 PWs)   bands (ev):

   -62.2580 -62.2471 -62.1331 -62.1222 -61.7278 -61.7165 -30.8343 -30.8083
   -30.7218 -30.7057 -30.7005 -30.6957 -30.6755 -30.6132 -30.6076 -30.5871
   -30.4392 -30.3704 -30.3392 -30.2050 -30.1765 -30.1756 -30.1393 -30.0906
    -7.0915  -6.7418  -6.7334  -6.7148  -6.7045  -6.6365  -6.6039  -6.5975
    -6.5341  -6.5303  -6.5297  -6.5253  -6.5039  -6.4490  -6.4445  -6.4177
    -6.4153  -6.4048  -6.3634  -6.3204  -6.3086  -6.3043  -6.2972  -6.2832
    -6.2745  -6.2685  -6.2136  -6.2060  -6.1619  -6.1517  -6.0809  -5.1860
    -3.7062  -3.6685  -3.0828  -2.7808  -2.2427  -1.8117  -1.0526  -0.8089
    -0.5182  -0.3534   0.0214   0.1722   0.5565   0.5708   0.6538   0.8962
     0.9048   0.9752   1.1927   1.5051   1.6350   1.8597   1.9455   2.1402
     2.2443   2.6830   2.9023   3.1518   3.2422   3.4308

          k = 0.0292 0.0361 0.0000 ( 35448 PWs)   bands (ev):

   -62.2578 -62.2473 -62.1329 -62.1224 -61.7276 -61.7167 -30.8344 -30.8083
   -30.7233 -30.7016 -30.7001 -30.6961 -30.6745 -30.6142 -30.6035 -30.5870
   -30.4438 -30.3657 -30.3438 -30.2049 -30.1770 -30.1732 -30.1414 -30.0957
    -6.9416  -6.7202  -6.7138  -6.7046  -6.6859  -6.6274  -6.5984  -6.5934
    -6.5299  -6.5245  -6.5154  -6.5146  -6.4946  -6.4345  -6.4262  -6.4075
    -6.4048  -6.3951  -6.3555  -6.3176  -6.3055  -6.2993  -6.2929  -6.2804
    -6.2717  -6.2643  -6.2177  -6.2127  -6.1635  -6.1531  -6.0867  -5.0527
    -3.8141  -3.6611  -3.0910  -2.7428  -2.2869  -2.0652  -1.3139  -0.8721
    -0.7630  -0.4259  -0.0205   0.1763   0.3181   0.5701   0.6574   0.7416
     0.8967   0.9842   1.2789   1.5725   1.6390   1.8378   1.9899   2.0120
     2.3453   2.5538   2.8765   3.1118   3.2397   3.3943

          k = 0.0292 0.0515 0.0000 ( 35422 PWs)   bands (ev):

   -62.2572 -62.2479 -62.1323 -62.1229 -61.7270 -61.7172 -30.8336 -30.8092
   -30.7233 -30.6995 -30.6970 -30.6888 -30.6748 -30.6141 -30.5909 -30.5877
   -30.4574 -30.3575 -30.3519 -30.2040 -30.1785 -30.1697 -30.1447 -30.1102
    -6.7614  -6.6954  -6.6899  -6.6697  -6.6635  -6.6164  -6.5934  -6.5895
    -6.5399  -6.5079  -6.5022  -6.4880  -6.4842  -6.4236  -6.4099  -6.3938
    -6.3836  -6.3805  -6.3471  -6.3161  -6.3013  -6.2957  -6.2855  -6.2794
    -6.2673  -6.2524  -6.2223  -6.2117  -6.1737  -6.1538  -6.1012  -4.8419
    -4.2132  -3.6409  -3.2172  -2.7373  -2.1997  -2.0432  -1.5612  -0.9629
    -0.9012  -0.4881  -0.0551   0.1062   0.1859   0.5577   0.6304   0.6567
     0.9023   0.9506   1.2487   1.5847   1.7161   1.7637   1.7743   2.1973
     2.3592   2.5083   2.8801   2.9745   3.3227   3.3606

          k = 0.0292 0.0670 0.0000 ( 35425 PWs)   bands (ev):

   -62.2563 -62.2488 -62.1314 -62.1238 -61.7261 -61.7181 -30.8320 -30.8109
   -30.7219 -30.6985 -30.6983 -30.6765 -30.6683 -30.6129 -30.5892 -30.5702
   -30.4790 -30.3792 -30.3301 -30.2020 -30.1808 -30.1655 -30.1488 -30.1330
    -6.6734  -6.6731  -6.6710  -6.6449  -6.6061  -6.5961  -6.5905  -6.5876
    -6.5555  -6.5002  -6.4712  -6.4563  -6.4531  -6.4126  -6.4009  -6.3782
    -6.3723  -6.3502  -6.3421  -6.3189  -6.3037  -6.2982  -6.2793  -6.2737
    -6.2596  -6.2411  -6.2315  -6.1891  -6.1869  -6.1244  -6.0747  -4.7130
    -4.5558  -3.6892  -3.4830  -2.7478  -2.1624  -1.7817  -1.6843  -1.0856
    -0.8754  -0.5126  -0.0888   0.0560   0.2031   0.5121   0.6474   0.6555
     0.8418   0.9076   1.1816   1.4118   1.6002   1.8289   1.9416   2.2046
     2.4269   2.5836   2.7228   2.8574   3.1710   3.3203

          k = 0.0292-0.1031 0.0000 ( 35460 PWs)   bands (ev):

   -62.2552 -62.2499 -62.1303 -62.1250 -61.7250 -61.7193 -30.8297 -30.8134
   -30.7191 -30.6998 -30.6972 -30.6795 -30.6413 -30.6107 -30.5912 -30.5430
   -30.5070 -30.4073 -30.3015 -30.1993 -30.1837 -30.1628 -30.1605 -30.1536
    -6.6551  -6.6524  -6.6365  -6.6231  -6.5981  -6.5920  -6.5874  -6.5855
    -6.5741  -6.5144  -6.4576  -6.4305  -6.4140  -6.4018  -6.3870  -6.3690
    -6.3592  -6.3464  -6.3312  -6.3178  -6.3062  -6.3040  -6.2755  -6.2682
    -6.2570  -6.2534  -6.2403  -6.1959  -6.1936  -6.1547  -5.7727  -5.2170
    -4.2127  -3.8375  -3.7971  -2.8373  -2.0324  -1.8727  -1.2756  -1.1496
    -0.7133  -0.4737  -0.1321   0.1194   0.2299   0.4277   0.6917   0.7200
     0.7340   0.8878   1.1555   1.3078   1.5823   1.9316   2.0184   2.1385
     2.4459   2.5469   2.6833   2.8100   2.8860   2.9682

          k = 0.0292-0.0876 0.0000 ( 35465 PWs)   bands (ev):

   -62.2539 -62.2512 -62.1290 -62.1263 -61.7236 -61.7206 -30.8268 -30.8164
   -30.7153 -30.7014 -30.6956 -30.6834 -30.6095 -30.6077 -30.5937 -30.5392
   -30.5110 -30.4398 -30.2681 -30.1969 -30.1956 -30.1869 -30.1587 -30.1559
    -6.6458  -6.6378  -6.6344  -6.6060  -6.5985  -6.5928  -6.5886  -6.5879
    -6.5809  -6.5431  -6.4480  -6.4374  -6.3940  -6.3881  -6.3724  -6.3697
    -6.3494  -6.3461  -6.3424  -6.3246  -6.3125  -6.2923  -6.2869  -6.2802
    -6.2561  -6.2527  -6.2348  -6.2097  -6.2023  -6.1810  -5.6755  -5.3612
    -4.2108  -3.9299  -3.8363  -3.0107  -2.0911  -1.5593  -1.0892  -0.8570
    -0.5446  -0.3211  -0.1915   0.2023   0.2762   0.2887   0.6541   0.7722
     0.8099   0.8905   1.1944   1.2893   1.6727   1.8354   1.8767   2.2724
     2.2856   2.4850   2.6089   2.6720   2.7083   2.9747

          k = 0.0292-0.0722 0.0000 ( 35436 PWs)   bands (ev):

   -62.2526 -62.2525 -62.1277 -62.1276 -61.7222 -61.7221 -30.8235 -30.8197
   -30.7108 -30.7030 -30.6936 -30.6881 -30.6040 -30.5965 -30.5750 -30.5737
   -30.4763 -30.4744 -30.2329 -30.2319 -30.1919 -30.1904 -30.1638 -30.1511
    -6.6588  -6.6522  -6.6313  -6.6167  -6.6080  -6.5936  -6.5932  -6.5898
    -6.5758  -6.5548  -6.4639  -6.4549  -6.3976  -6.3898  -6.3831  -6.3689
    -6.3599  -6.3543  -6.3486  -6.3273  -6.3071  -6.3052  -6.2930  -6.2868
    -6.2600  -6.2478  -6.2331  -6.2320  -6.2025  -6.1830  -6.0264  -4.9125
    -4.5531  -3.9993  -3.5405  -3.2192  -2.0345  -1.1365  -0.9027  -0.5163
    -0.4140  -0.2690  -0.1034   0.1642   0.2254   0.3579   0.5537   0.7889
     0.8964   0.9574   1.3104   1.3172   1.6077   1.7402   1.8014   1.9942
     2.3508   2.5329   2.5621   2.6663   2.6932   2.7025

          k = 0.0292-0.0567 0.0000 ( 35395 PWs)   bands (ev):

   -62.2540 -62.2511 -62.1291 -62.1262 -61.7235 -61.7207 -30.8231 -30.8200
   -30.7062 -30.7049 -30.6928 -30.6912 -30.6079 -30.6001 -30.5995 -30.5402
   -30.5089 -30.4413 -30.2689 -30.1956 -30.1938 -30.1880 -30.1683 -30.1467
    -6.6911  -6.6896  -6.6584  -6.6440  -6.6202  -6.6070  -6.5973  -6.5939
    -6.5920  -6.5639  -6.5385  -6.4779  -6.4111  -6.4009  -6.3983  -6.3922
    -6.3862  -6.3728  -6.3374  -6.3225  -6.3162  -6.3019  -6.2940  -6.2869
    -6.2702  -6.2626  -6.2495  -6.2415  -6.1815  -6.1691  -6.1595  -4.8356
    -4.4824  -4.0005  -3.4138  -3.3564  -1.7787  -0.7154  -0.6516  -0.3926
    -0.3398  -0.2853   0.0570   0.1465   0.1775   0.3836   0.4816   0.6171
     0.8941   1.1795   1.3331   1.3949   1.4813   1.7151   1.7552   1.9319
     2.4683   2.4865   2.5337   2.5386   2.8064   2.9387

          k = 0.0292-0.0412 0.0000 ( 35421 PWs)   bands (ev):

   -62.2553 -62.2498 -62.1304 -62.1248 -61.7249 -61.7194 -30.8264 -30.8167
   -30.7076 -30.7020 -30.6967 -30.6882 -30.6396 -30.6027 -30.5962 -30.5409
   -30.5076 -30.4083 -30.3022 -30.1970 -30.1843 -30.1723 -30.1614 -30.1431
    -6.8814  -6.7205  -6.6832  -6.6821  -6.6626  -6.6310  -6.6027  -6.5951
    -6.5790  -6.5658  -6.5324  -6.5007  -6.4481  -6.4197  -6.4164  -6.4059
    -6.3915  -6.3887  -6.3444  -6.3213  -6.3154  -6.3099  -6.3011  -6.2956
    -6.2779  -6.2662  -6.2366  -6.2333  -6.1820  -6.1718  -6.1378  -5.0449
    -4.1822  -3.8389  -3.5682  -3.2693  -1.3754  -0.6194  -0.5060  -0.4306
    -0.3177  -0.1930   0.1151   0.1357   0.1718   0.4030   0.4543   0.6120
     0.7339   1.2888   1.3878   1.4182   1.5594   1.6506   1.6618   2.0431
     2.4911   2.5360   2.6395   2.6592   2.7225   2.9973

          k = 0.0292-0.0258 0.0000 ( 35430 PWs)   bands (ev):

   -62.2564 -62.2487 -62.1316 -62.1237 -61.7261 -61.7182 -30.8293 -30.8136
   -30.7112 -30.6991 -30.6989 -30.6847 -30.6668 -30.6059 -30.5928 -30.5683
   -30.4793 -30.3798 -30.3306 -30.2000 -30.1810 -30.1750 -30.1403 -30.1321
    -7.0566  -6.7444  -6.7048  -6.7029  -6.6980  -6.6391  -6.6076  -6.5982
    -6.5636  -6.5590  -6.5340  -6.5146  -6.4864  -6.4426  -6.4357  -6.4115
    -6.4022  -6.3848  -6.3790  -6.3172  -6.3113  -6.3082  -6.3059  -6.2913
    -6.2800  -6.2790  -6.2232  -6.2083  -6.1857  -6.1660  -6.1123  -5.1798
    -4.0302  -3.6729  -3.5283  -3.2124  -0.9600  -0.9410  -0.7868  -0.4355
    -0.2692  -0.0706   0.1161   0.1556   0.1904   0.4038   0.4572   0.7199
     0.8446   1.2683   1.3553   1.4082   1.5721   1.6265   1.8157   2.0540
     2.4266   2.6427   2.6428   2.7962   2.9930   3.2439

          k = 0.0437-0.0155 0.0000 ( 35401 PWs)   bands (ev):

   -62.2564 -62.2487 -62.1315 -62.1238 -61.7261 -61.7182 -30.8298 -30.8130
   -30.7153 -30.7000 -30.6970 -30.6816 -30.6671 -30.6076 -30.5922 -30.5687
   -30.4793 -30.3797 -30.3305 -30.2004 -30.1810 -30.1729 -30.1421 -30.1323
    -6.9521  -6.7317  -6.6963  -6.6928  -6.6894  -6.6328  -6.6042  -6.5955
    -6.5618  -6.5465  -6.5277  -6.5065  -6.4794  -6.4343  -6.4297  -6.4025
    -6.3991  -6.3739  -6.3703  -6.3228  -6.3096  -6.3056  -6.2986  -6.2788
    -6.2788  -6.2746  -6.2291  -6.2013  -6.1964  -6.1641  -6.1146  -5.0757
    -4.2401  -3.6181  -3.3295  -3.2298  -1.3082  -1.2442  -0.9226  -0.6339
    -0.3873  -0.1146   0.0201   0.0856   0.1393   0.3733   0.5788   0.9095
     1.0188   1.0792   1.1803   1.5273   1.6252   1.6264   1.7734   1.9586
     2.4075   2.6143   2.9548   3.0395   3.1708   3.3391

          k = 0.0437-0.0000 0.0000 ( 35466 PWs)   bands (ev):

   -62.2572 -62.2479 -62.1324 -62.1229 -61.7270 -61.7173 -30.8325 -30.8103
   -30.7198 -30.6987 -30.6978 -30.6882 -30.6775 -30.6113 -30.5901 -30.5891
   -30.4575 -30.3577 -30.3522 -30.2031 -30.1786 -30.1736 -30.1412 -30.1098
    -6.9870  -6.7323  -6.7103  -6.7041  -6.6937  -6.6324  -6.6027  -6.5955
    -6.5443  -6.5353  -6.5247  -6.5034  -6.5031  -6.4361  -6.4355  -6.4070
    -6.4001  -6.3946  -6.3633  -6.3223  -6.3074  -6.3025  -6.2894  -6.2877
    -6.2733  -6.2714  -6.2216  -6.2050  -6.1787  -6.1578  -6.0970  -5.0966
    -4.0398  -3.6522  -3.1962  -2.9859  -1.7647  -1.7092  -0.9759  -0.7151
    -0.6464  -0.2886   0.0796   0.1787   0.2219   0.5465   0.6284   0.8303
     0.8876   1.0983   1.1945   1.5630   1.7022   1.7771   1.8534   1.9000
     2.3193   2.6264   3.1024   3.1413   3.2525   3.4051

          k = 0.0437 0.0155 0.0000 ( 35448 PWs)   bands (ev):

   -62.2578 -62.2473 -62.1329 -62.1224 -61.7276 -61.7167 -30.8344 -30.8083
   -30.7233 -30.7016 -30.7001 -30.6961 -30.6745 -30.6142 -30.6035 -30.5870
   -30.4438 -30.3657 -30.3438 -30.2049 -30.1770 -30.1732 -30.1414 -30.0957
    -6.9416  -6.7202  -6.7138  -6.7046  -6.6859  -6.6274  -6.5984  -6.5934
    -6.5299  -6.5245  -6.5154  -6.5146  -6.4946  -6.4345  -6.4262  -6.4075
    -6.4048  -6.3951  -6.3555  -6.3176  -6.3055  -6.2993  -6.2929  -6.2804
    -6.2717  -6.2643  -6.2177  -6.2127  -6.1635  -6.1531  -6.0867  -5.0527
    -3.8141  -3.6611  -3.0910  -2.7428  -2.2869  -2.0652  -1.3139  -0.8721
    -0.7630  -0.4259  -0.0205   0.1763   0.3181   0.5701   0.6574   0.7416
     0.8967   0.9842   1.2789   1.5725   1.6390   1.8378   1.9899   2.0120
     2.3453   2.5538   2.8765   3.1118   3.2396   3.3943

          k = 0.0437 0.0309 0.0000 ( 35399 PWs)   bands (ev):

   -62.2579 -62.2472 -62.1331 -62.1222 -61.7278 -61.7165 -30.8355 -30.8073
   -30.7253 -30.7064 -30.7014 -30.6950 -30.6728 -30.6162 -30.6085 -30.5856
   -30.4391 -30.3702 -30.3390 -30.2059 -30.1765 -30.1717 -30.1427 -30.0910
    -6.8333  -6.7006  -6.6984  -6.6920  -6.6697  -6.6188  -6.5937  -6.5890
    -6.5232  -6.5146  -6.5125  -6.5006  -6.4840  -6.4306  -6.4091  -6.4028
    -6.3998  -6.3871  -6.3474  -6.3093  -6.3018  -6.2942  -6.2941  -6.2752
    -6.2714  -6.2571  -6.2166  -6.2155  -6.1575  -6.1515  -6.0844  -4.9390
    -3.6810  -3.6725  -3.0189  -2.7170  -2.5104  -2.3224  -1.6346  -1.0336
    -0.9711  -0.4842  -0.1511   0.1672   0.1695   0.5083   0.5931   0.6088
     0.9198   1.0474   1.4404   1.4934   1.6199   1.8577   2.0085   2.1648
     2.4240   2.4330   2.6638   2.9422   3.2698   3.3906

          k = 0.0437 0.0464 0.0000 ( 35438 PWs)   bands (ev):

   -62.2577 -62.2474 -62.1328 -62.1224 -61.7276 -61.7167 -30.8357 -30.8073
   -30.7259 -30.7023 -30.7022 -30.6944 -30.6728 -30.6169 -30.6044 -30.5853
   -30.4438 -30.3655 -30.3437 -30.2059 -30.1770 -30.1692 -30.1451 -30.0961
    -6.7402  -6.6900  -6.6756  -6.6523  -6.6093  -6.6016  -6.5898  -6.5842
    -6.5263  -6.5006  -6.4954  -6.4852  -6.4733  -6.4255  -6.3953  -6.3893
    -6.3862  -6.3775  -6.3401  -6.3018  -6.2928  -6.2925  -6.2893  -6.2731
    -6.2692  -6.2489  -6.2141  -6.2013  -6.1609  -6.1512  -6.0906  -4.7487
    -3.8981  -3.7645  -3.0572  -2.7149  -2.4176  -2.3511  -1.9297  -1.1622
    -1.1091  -0.5210  -0.2881  -0.0269   0.1706   0.4548   0.4661   0.5781
     0.8775   1.1397   1.3415   1.6626   1.6650   1.7631   1.8901   2.3139
     2.3650   2.4530   2.6204   2.7797   3.1643   3.5692

          k = 0.0437 0.0618 0.0000 ( 35423 PWs)   bands (ev):

   -62.2572 -62.2479 -62.1323 -62.1230 -61.7271 -61.7172 -30.8349 -30.8083
   -30.7249 -30.7025 -30.6944 -30.6895 -30.6742 -30.6165 -30.5917 -30.5858
   -30.4574 -30.3573 -30.3517 -30.2048 -30.1784 -30.1660 -30.1483 -30.1106
    -6.6947  -6.6775  -6.6526  -6.6328  -6.5986  -6.5870  -6.5817  -6.5472
    -6.5364  -6.4789  -6.4728  -6.4607  -6.4391  -6.4189  -6.3899  -6.3719
    -6.3674  -6.3660  -6.3395  -6.2995  -6.2922  -6.2915  -6.2850  -6.2710
    -6.2622  -6.2442  -6.2155  -6.1708  -6.1694  -6.1060  -6.0501  -4.4815
    -4.3804  -3.9255  -3.2627  -2.5256  -2.3513  -2.1651  -2.1611  -1.2328
    -1.1201  -0.5042  -0.4188  -0.0967   0.1940   0.3977   0.4702   0.5781
     0.8354   1.1349   1.2425   1.5848   1.6388   1.8626   1.8695   2.2701
     2.3942   2.5614   2.5642   2.6682   3.0028   3.4462

          k = 0.0437-0.1083 0.0000 ( 35436 PWs)   bands (ev):

   -62.2563 -62.2488 -62.1314 -62.1239 -61.7262 -61.7181 -30.8332 -30.8101
   -30.7224 -30.7021 -30.6949 -30.6771 -30.6688 -30.6148 -30.5872 -30.5709
   -30.4789 -30.3790 -30.3299 -30.2027 -30.1806 -30.1623 -30.1521 -30.1334
    -6.6629  -6.6550  -6.6340  -6.6169  -6.5910  -6.5864  -6.5832  -6.5561
    -6.5515  -6.4882  -6.4463  -6.4399  -6.4105  -6.4067  -6.3871  -6.3662
    -6.3534  -6.3470  -6.3364  -6.3054  -6.2989  -6.2954  -6.2780  -6.2707
    -6.2603  -6.2447  -6.2286  -6.1785  -6.1784  -6.1303  -5.7429  -4.8968
    -4.1644  -4.1023  -3.5930  -2.5596  -2.4497  -2.0384  -1.7894  -1.2521
    -0.9785  -0.5278  -0.3998  -0.0160   0.2382   0.4319   0.5140   0.6204
     0.8091   0.9977   1.2108   1.5119   1.5885   1.9449   2.0487   2.0742
     2.3512   2.4022   2.6837   2.6838   2.7971   3.0422

          k = 0.0437-0.0928 0.0000 ( 35439 PWs)   bands (ev):

   -62.2552 -62.2499 -62.1303 -62.1250 -61.7250 -61.7192 -30.8307 -30.8128
   -30.7188 -30.7009 -30.6959 -30.6810 -30.6417 -30.6120 -30.5894 -30.5435
   -30.5068 -30.4070 -30.3013 -30.1997 -30.1834 -30.1629 -30.1581 -30.1564
    -6.6470  -6.6235  -6.6172  -6.6064  -6.5893  -6.5875  -6.5871  -6.5784
    -6.5726  -6.5121  -6.4327  -6.4115  -6.4030  -6.4019  -6.3803  -6.3688
    -6.3563  -6.3398  -6.3203  -6.3151  -6.3010  -6.2981  -6.2768  -6.2727
    -6.2590  -6.2554  -6.2467  -6.1928  -6.1803  -6.1612  -5.3799  -5.3459
    -4.2903  -3.9631  -3.7894  -2.7614  -2.5747  -1.7039  -1.3366  -1.1531
    -0.8014  -0.5876  -0.2070   0.1250   0.3040   0.5541   0.5618   0.7015
     0.7916   0.8174   1.2527   1.4703   1.6784   1.8227   1.9528   2.1510
     2.2407   2.3302   2.5117   2.5829   2.7195   2.8806

          k = 0.0437-0.0773 0.0000 ( 35435 PWs)   bands (ev):

   -62.2539 -62.2512 -62.1290 -62.1263 -61.7237 -61.7206 -30.8275 -30.8159
   -30.7146 -30.6986 -30.6977 -30.6854 -30.6097 -30.6085 -30.5922 -30.5391
   -30.5113 -30.4396 -30.2679 -30.1969 -30.1960 -30.1867 -30.1607 -30.1540
    -6.6317  -6.6260  -6.6201  -6.6051  -6.5985  -6.5900  -6.5874  -6.5847
    -6.5781  -6.5470  -6.4262  -6.4224  -6.3991  -6.3892  -6.3797  -6.3683
    -6.3550  -6.3396  -6.3288  -6.3234  -6.3090  -6.2954  -6.2884  -6.2880
    -6.2613  -6.2528  -6.2385  -6.2087  -6.2015  -6.1756  -5.7923  -4.9152
    -4.4014  -4.3126  -3.5053  -3.0072  -2.5291  -1.3280  -0.9648  -0.8983
    -0.6254  -0.5522  -0.0105   0.2124   0.3936   0.4482   0.6643   0.7319
     0.8131   0.8733   1.3504   1.4445   1.6060   1.6923   1.8055   2.1860
     2.2044   2.2605   2.4475   2.4554   2.6015   2.8731

          k = 0.0437-0.0619 0.0000 ( 35449 PWs)   bands (ev):

   -62.2526 -62.2525 -62.1277 -62.1276 -61.7222 -61.7221 -30.8239 -30.8195
   -30.7102 -30.7007 -30.6954 -30.6896 -30.6044 -30.5957 -30.5751 -30.5736
   -30.4764 -30.4743 -30.2330 -30.2318 -30.1921 -30.1902 -30.1648 -30.1502
    -6.6544  -6.6460  -6.6319  -6.6140  -6.6096  -6.5916  -6.5908  -6.5887
    -6.5780  -6.5537  -6.4636  -6.4513  -6.4030  -6.3925  -6.3911  -6.3679
    -6.3577  -6.3543  -6.3536  -6.3203  -6.3081  -6.3036  -6.2969  -6.2891
    -6.2679  -6.2491  -6.2370  -6.2330  -6.2015  -6.1771  -6.0709  -4.6086
    -4.5617  -4.3622  -3.3872  -3.2333  -2.2288  -0.9933  -0.7377  -0.5578
    -0.4441  -0.3872   0.0900   0.1857   0.1972   0.4912   0.5574   0.7489
     0.8791   1.0120   1.3753   1.4490   1.4890   1.6076   1.8521   1.9408
     2.2971   2.3533   2.4686   2.5707   2.5861   2.6901

          k = 0.0437-0.0464 0.0000 ( 35395 PWs)   bands (ev):

   -62.2540 -62.2511 -62.1291 -62.1262 -61.7235 -61.7207 -30.8231 -30.8200
   -30.7062 -30.7049 -30.6928 -30.6912 -30.6079 -30.6001 -30.5995 -30.5402
   -30.5089 -30.4413 -30.2689 -30.1956 -30.1938 -30.1880 -30.1683 -30.1467
    -6.6911  -6.6896  -6.6584  -6.6440  -6.6202  -6.6070  -6.5973  -6.5939
    -6.5920  -6.5639  -6.5385  -6.4779  -6.4111  -6.4009  -6.3983  -6.3922
    -6.3862  -6.3728  -6.3374  -6.3225  -6.3162  -6.3019  -6.2940  -6.2869
    -6.2702  -6.2626  -6.2495  -6.2415  -6.1815  -6.1691  -6.1595  -4.8356
    -4.4824  -4.0005  -3.4138  -3.3564  -1.7787  -0.7154  -0.6516  -0.3926
    -0.3398  -0.2853   0.0570   0.1465   0.1775   0.3836   0.4816   0.6171
     0.8941   1.1795   1.3331   1.3949   1.4814   1.7151   1.7552   1.9319
     2.4683   2.4865   2.5337   2.5386   2.8064   2.9387

          k = 0.0437-0.0309 0.0000 ( 35404 PWs)   bands (ev):

   -62.2553 -62.2498 -62.1304 -62.1249 -61.7249 -61.7194 -30.8266 -30.8163
   -30.7101 -30.7028 -30.6951 -30.6864 -30.6398 -30.6036 -30.5959 -30.5410
   -30.5075 -30.4082 -30.3021 -30.1973 -30.1842 -30.1712 -30.1615 -30.1440
    -6.8393  -6.7170  -6.6807  -6.6773  -6.6592  -6.6285  -6.6022  -6.5940
    -6.5789  -6.5568  -6.5307  -6.4984  -6.4452  -6.4220  -6.4156  -6.4006
    -6.3876  -6.3807  -6.3421  -6.3203  -6.3192  -6.3117  -6.2982  -6.2852
    -6.2730  -6.2662  -6.2421  -6.2265  -6.1884  -6.1687  -6.1391  -4.9902
    -4.3898  -3.6285  -3.5414  -3.3221  -1.3118  -0.9155  -0.7753  -0.4071
    -0.3371  -0.0869  -0.0695   0.0389   0.2608   0.2647   0.5612   0.6494
     0.9931   1.2015   1.2663   1.4297   1.4864   1.6776   1.6920   2.0078
     2.5317   2.5423   2.7426   2.8371   2.8715   3.1050

          k = 0.0583-0.0206 0.0000 ( 35455 PWs)   bands (ev):

   -62.2553 -62.2498 -62.1304 -62.1249 -61.7249 -61.7193 -30.8274 -30.8155
   -30.7145 -30.7035 -30.6935 -30.6828 -30.6402 -30.6059 -30.5950 -30.5416
   -30.5074 -30.4080 -30.3020 -30.1979 -30.1841 -30.1683 -30.1617 -30.1465
    -6.7382  -6.7053  -6.6736  -6.6589  -6.6498  -6.6213  -6.6000  -6.5919
    -6.5784  -6.5266  -6.5259  -6.4910  -6.4373  -6.4188  -6.4119  -6.3885
    -6.3838  -6.3608  -6.3369  -6.3254  -6.3149  -6.3146  -6.2905  -6.2683
    -6.2663  -6.2521  -6.2469  -6.2174  -6.2031  -6.1533  -6.1428  -4.8281
    -4.6930  -3.4879  -3.4835  -3.2976  -1.4506  -1.1371  -0.9875  -0.7821
    -0.7012  -0.1205  -0.0104   0.0492   0.0632   0.4541   0.6766   0.8725
     0.9226   1.0035   1.0787   1.2623   1.6690   1.7582   1.8245   1.9960
     2.4164   2.6227   2.9920   3.0352   3.0985   3.2108

          k = 0.0583-0.0052 0.0000 ( 35424 PWs)   bands (ev):

   -62.2564 -62.2487 -62.1315 -62.1238 -61.7261 -61.7182 -30.8307 -30.8120
   -30.7194 -30.7001 -30.6965 -30.6782 -30.6676 -30.6103 -30.5910 -30.5694
   -30.4791 -30.3795 -30.3303 -30.2012 -30.1809 -30.1694 -30.1452 -30.1326
    -6.7729  -6.7067  -6.6851  -6.6740  -6.6671  -6.6210  -6.5979  -6.5916
    -6.5587  -6.5185  -6.5154  -6.4917  -6.4673  -6.4200  -6.4190  -6.3929
    -6.3872  -6.3622  -6.3527  -6.3251  -6.3082  -6.3016  -6.2877  -6.2769
    -6.2673  -6.2537  -6.2324  -6.2098  -6.1942  -6.1565  -6.1189  -4.8671
    -4.4834  -3.5654  -3.3681  -3.0064  -1.8517  -1.5037  -1.1718  -0.8842
    -0.7586  -0.3669   0.0381   0.1037   0.1728   0.5935   0.6593   0.7550
     0.8216   1.0316   1.1354   1.4182   1.6915   1.7125   1.9121   2.0353
     2.3388   2.5925   3.0493   3.1513   3.1856   3.3551

          k = 0.0583 0.0103 0.0000 ( 35422 PWs)   bands (ev):

   -62.2572 -62.2479 -62.1323 -62.1229 -61.7270 -61.7172 -30.8336 -30.8092
   -30.7233 -30.6995 -30.6970 -30.6888 -30.6748 -30.6141 -30.5909 -30.5877
   -30.4574 -30.3575 -30.3519 -30.2040 -30.1785 -30.1697 -30.1447 -30.1102
    -6.7614  -6.6954  -6.6899  -6.6697  -6.6635  -6.6164  -6.5934  -6.5895
    -6.5399  -6.5079  -6.5022  -6.4880  -6.4842  -6.4236  -6.4099  -6.3938
    -6.3836  -6.3805  -6.3471  -6.3161  -6.3013  -6.2957  -6.2855  -6.2794
    -6.2673  -6.2524  -6.2223  -6.2117  -6.1737  -6.1538  -6.1012  -4.8419
    -4.2132  -3.6409  -3.2172  -2.7373  -2.1997  -2.0432  -1.5612  -0.9629
    -0.9012  -0.4881  -0.0551   0.1062   0.1859   0.5577   0.6304   0.6567
     0.9023   0.9506   1.2487   1.5847   1.7161   1.7637   1.7743   2.1973
     2.3592   2.5083   2.8801   2.9745   3.3227   3.3606

          k = 0.0583 0.0258 0.0000 ( 35438 PWs)   bands (ev):

   -62.2577 -62.2474 -62.1328 -62.1224 -61.7276 -61.7167 -30.8357 -30.8073
   -30.7259 -30.7023 -30.7022 -30.6944 -30.6728 -30.6169 -30.6044 -30.5853
   -30.4438 -30.3655 -30.3437 -30.2059 -30.1770 -30.1692 -30.1451 -30.0961
    -6.7402  -6.6900  -6.6756  -6.6523  -6.6093  -6.6016  -6.5898  -6.5842
    -6.5263  -6.5006  -6.4954  -6.4852  -6.4733  -6.4255  -6.3953  -6.3893
    -6.3862  -6.3775  -6.3401  -6.3018  -6.2928  -6.2925  -6.2893  -6.2731
    -6.2692  -6.2489  -6.2141  -6.2013  -6.1609  -6.1512  -6.0906  -4.7487
    -3.8981  -3.7645  -3.0572  -2.7149  -2.4176  -2.3511  -1.9297  -1.1622
    -1.1091  -0.5210  -0.2881  -0.0269   0.1706   0.4548   0.4661   0.5781
     0.8775   1.1397   1.3415   1.6626   1.6650   1.7631   1.8901   2.3139
     2.3650   2.4530   2.6204   2.7797   3.1643   3.5692

          k = 0.0583 0.0412 0.0000 ( 35453 PWs)   bands (ev):

   -62.2579 -62.2472 -62.1330 -62.1223 -61.7278 -61.7164 -30.8368 -30.8064
   -30.7269 -30.7071 -30.7044 -30.6924 -30.6724 -30.6186 -30.6094 -30.5838
   -30.4391 -30.3700 -30.3389 -30.2068 -30.1765 -30.1679 -30.1463 -30.0914
    -6.7256  -6.6859  -6.6532  -6.6374  -6.5991  -6.5870  -6.5782  -6.5208
    -6.5057  -6.4954  -6.4836  -6.4677  -6.4625  -6.4259  -6.3876  -6.3829
    -6.3733  -6.3701  -6.3315  -6.2925  -6.2913  -6.2883  -6.2787  -6.2715
    -6.2693  -6.2423  -6.2069  -6.1576  -6.1515  -6.1398  -6.0879  -4.5815
    -3.9689  -3.6640  -3.0928  -2.9560  -2.4725  -2.2510  -2.1645  -1.3624
    -1.2544  -0.5469  -0.5218  -0.2615   0.1615   0.2589   0.4126   0.5255
     0.8330   1.2961   1.3128   1.6862   1.7415   1.7529   1.9863   2.2297
     2.4537   2.4616   2.4785   2.6012   3.0747   3.6533

          k = 0.0583 0.0567 0.0000 ( 35423 PWs)   bands (ev):

   -62.2577 -62.2474 -62.1328 -62.1225 -61.7276 -61.7166 -30.8369 -30.8065
   -30.7265 -30.7058 -30.7029 -30.6911 -30.6734 -30.6189 -30.6052 -30.5834
   -30.4437 -30.3653 -30.3435 -30.2066 -30.1770 -30.1659 -30.1483 -30.0965
    -6.7061  -6.6786  -6.6324  -6.6221  -6.5900  -6.5849  -6.5746  -6.5239
    -6.5014  -6.4829  -6.4589  -6.4501  -6.4249  -6.4237  -6.3798  -6.3753
    -6.3637  -6.3589  -6.3289  -6.2911  -6.2888  -6.2852  -6.2793  -6.2668
    -6.2666  -6.2380  -6.2023  -6.1624  -6.1554  -6.0941  -5.9464  -4.3408
    -4.2199  -3.9892  -3.0448  -2.8835  -2.6193  -2.2825  -2.0403  -1.4143
    -1.3440  -0.7299  -0.5331  -0.3860   0.1361   0.1741   0.4078   0.4985
     0.7959   1.2108   1.4017   1.6019   1.7089   1.9172   1.9880   2.1924
     2.3961   2.3966   2.4873   2.6281   2.9588   3.4633

          k = 0.0583-0.1134 0.0000 ( 35427 PWs)   bands (ev):

   -62.2572 -62.2479 -62.1322 -62.1230 -61.7271 -61.7172 -30.8359 -30.8077
   -30.7247 -30.7061 -30.6908 -30.6900 -30.6758 -30.6179 -30.5923 -30.5841
   -30.4573 -30.3572 -30.3516 -30.2053 -30.1783 -30.1634 -30.1510 -30.1109
    -6.6791  -6.6690  -6.6157  -6.6088  -6.5852  -6.5836  -6.5750  -6.5349
    -6.5165  -6.4642  -6.4603  -6.4367  -6.4190  -6.3999  -6.3805  -6.3609
    -6.3556  -6.3459  -6.3363  -6.2916  -6.2876  -6.2865  -6.2863  -6.2663
    -6.2622  -6.2404  -6.2066  -6.1693  -6.1638  -6.1099  -5.6339  -4.5051
    -4.4779  -4.0194  -3.3085  -2.8653  -2.4796  -2.0819  -2.0561  -1.3747
    -1.2620  -0.8896  -0.4103  -0.3072   0.1090   0.2100   0.4525   0.5159
     0.7690   1.1809   1.3297   1.5815   1.6854   1.9878   2.0679   2.1221
     2.2255   2.2843   2.5544   2.7574   2.7712   3.1271

          k = 0.0583-0.0980 0.0000 ( 35481 PWs)   bands (ev):

   -62.2563 -62.2488 -62.1314 -62.1239 -61.7262 -61.7181 -30.8339 -30.8097
   -30.7218 -30.7051 -30.6915 -30.6790 -30.6692 -30.6157 -30.5859 -30.5713
   -30.4788 -30.3788 -30.3298 -30.2030 -30.1805 -30.1605 -30.1541 -30.1336
    -6.6575  -6.6466  -6.6047  -6.5988  -6.5896  -6.5811  -6.5798  -6.5528
    -6.5430  -6.4825  -6.4311  -6.4243  -6.4131  -6.3953  -6.3785  -6.3636
    -6.3517  -6.3354  -6.3299  -6.2982  -6.2960  -6.2931  -6.2815  -6.2700
    -6.2598  -6.2474  -6.2267  -6.1763  -6.1713  -6.1347  -5.2524  -5.0009
    -4.6871  -3.6716  -3.6598  -3.0359  -2.4769  -1.8374  -1.7667  -1.2817
    -1.0554  -0.9589  -0.1949  -0.0992   0.2015   0.2653   0.5371   0.5845
     0.7628   1.0993   1.2201   1.6841   1.7211   1.9783   1.9891   2.0433
     2.0852   2.2034   2.5247   2.7348   2.7432   2.8119

          k = 0.0583-0.0825 0.0000 ( 35437 PWs)   bands (ev):

   -62.2552 -62.2499 -62.1303 -62.1250 -61.7250 -61.7192 -30.8310 -30.8125
   -30.7183 -30.7026 -30.6937 -30.6824 -30.6418 -30.6125 -30.5886 -30.5437
   -30.5067 -30.4069 -30.3013 -30.1998 -30.1833 -30.1630 -30.1574 -30.1571
    -6.6445  -6.6128  -6.6084  -6.5928  -6.5899  -6.5879  -6.5827  -6.5785
    -6.5757  -6.5116  -6.4140  -6.4082  -6.4030  -6.4017  -6.3727  -6.3716
    -6.3671  -6.3287  -6.3144  -6.3143  -6.3007  -6.2942  -6.2837  -6.2736
    -6.2559  -6.2554  -6.2527  -6.1921  -6.1722  -6.1663  -5.4388  -4.8719
    -4.7962  -4.0087  -3.4751  -2.9445  -2.7477  -1.5090  -1.3554  -1.1286
    -0.8558  -0.8419  -0.0432   0.1181   0.3344   0.4615   0.6300   0.6877
     0.7920   0.8079   1.3003   1.6351   1.7378   1.8021   1.9262   1.9635
     2.0930   2.3280   2.3682   2.4231   2.7401   2.9010

          k = 0.0583-0.0670 0.0000 ( 35435 PWs)   bands (ev):

   -62.2539 -62.2512 -62.1290 -62.1263 -61.7237 -61.7206 -30.8275 -30.8159
   -30.7146 -30.6986 -30.6977 -30.6854 -30.6097 -30.6085 -30.5922 -30.5391
   -30.5113 -30.4396 -30.2679 -30.1968 -30.1960 -30.1867 -30.1607 -30.1540
    -6.6317  -6.6260  -6.6201  -6.6051  -6.5985  -6.5900  -6.5874  -6.5847
    -6.5781  -6.5470  -6.4262  -6.4224  -6.3991  -6.3892  -6.3797  -6.3683
    -6.3550  -6.3396  -6.3288  -6.3234  -6.3090  -6.2954  -6.2884  -6.2880
    -6.2613  -6.2528  -6.2385  -6.2087  -6.2015  -6.1756  -5.7923  -4.9152
    -4.4014  -4.3126  -3.5053  -3.0072  -2.5291  -1.3280  -0.9648  -0.8983
    -0.6254  -0.5522  -0.0105   0.2124   0.3936   0.4482   0.6643   0.7319
     0.8131   0.8733   1.3504   1.4445   1.6060   1.6923   1.8055   2.1860
     2.2044   2.2605   2.4475   2.4554   2.6015   2.8731

          k = 0.0583-0.0516 0.0000 ( 35436 PWs)   bands (ev):

   -62.2526 -62.2525 -62.1277 -62.1276 -61.7222 -61.7221 -30.8235 -30.8197
   -30.7108 -30.7030 -30.6936 -30.6881 -30.6040 -30.5965 -30.5750 -30.5737
   -30.4763 -30.4744 -30.2329 -30.2319 -30.1919 -30.1904 -30.1638 -30.1511
    -6.6588  -6.6522  -6.6313  -6.6167  -6.6080  -6.5936  -6.5932  -6.5898
    -6.5758  -6.5548  -6.4639  -6.4549  -6.3976  -6.3898  -6.3831  -6.3689
    -6.3599  -6.3543  -6.3486  -6.3273  -6.3071  -6.3052  -6.2930  -6.2868
    -6.2600  -6.2478  -6.2331  -6.2320  -6.2025  -6.1830  -6.0264  -4.9125
    -4.5531  -3.9993  -3.5405  -3.2192  -2.0345  -1.1365  -0.9027  -0.5163
    -0.4140  -0.2690  -0.1034   0.1642   0.2254   0.3579   0.5537   0.7889
     0.8964   0.9574   1.3104   1.3172   1.6077   1.7402   1.8014   1.9942
     2.3508   2.5329   2.5621   2.6663   2.6932   2.7025

          k = 0.0583-0.0361 0.0000 ( 35446 PWs)   bands (ev):

   -62.2540 -62.2511 -62.1291 -62.1262 -61.7236 -61.7207 -30.8236 -30.8194
   -30.7088 -30.7071 -30.6907 -30.6881 -30.6081 -30.6012 -30.5994 -30.5401
   -30.5092 -30.4410 -30.2688 -30.1959 -30.1941 -30.1879 -30.1663 -30.1485
    -6.6889  -6.6846  -6.6553  -6.6320  -6.6169  -6.6061  -6.5983  -6.5950
    -6.5910  -6.5379  -6.5185  -6.4783  -6.4109  -6.4013  -6.3981  -6.3852
    -6.3713  -6.3669  -6.3328  -6.3291  -6.3170  -6.3053  -6.2893  -6.2746
    -6.2666  -6.2496  -6.2474  -6.2345  -6.1934  -6.1718  -6.1271  -4.8373
    -4.7245  -3.6456  -3.5208  -3.3776  -1.5494  -1.0876  -0.9010  -0.5140
    -0.4424  -0.1983  -0.1147   0.1208   0.1652   0.3233   0.5808   0.7248
     0.9923   1.0553   1.1869   1.1960   1.6538   1.7757   1.8121   1.9257
     2.4489   2.6375   2.7276   2.8584   2.9766   2.9981

          k = 0.0729-0.0258 0.0000 ( 35458 PWs)   bands (ev):

   -62.2540 -62.2511 -62.1291 -62.1262 -61.7236 -61.7207 -30.8245 -30.8183
   -30.7127 -30.7070 -30.6902 -30.6847 -30.6085 -30.6037 -30.5980 -30.5398
   -30.5098 -30.4406 -30.2685 -30.1963 -30.1945 -30.1876 -30.1629 -30.1516
    -6.6830  -6.6742  -6.6494  -6.6175  -6.6100  -6.6006  -6.5988  -6.5931
    -6.5906  -6.5378  -6.4752  -6.4752  -6.4033  -6.3980  -6.3919  -6.3738
    -6.3678  -6.3522  -6.3352  -6.3263  -6.3226  -6.2979  -6.2834  -6.2800
    -6.2540  -6.2490  -6.2261  -6.2242  -6.2097  -6.1762  -6.0000  -5.1752
    -4.5112  -3.7852  -3.3719  -3.2975  -1.5005  -1.2029  -1.0897  -0.9426
    -0.6548  -0.1422  -0.0701  -0.0377   0.1489   0.4603   0.7080   0.7743
     0.8086   0.9787   1.0196   1.0782   1.7390   1.9149   1.9821   2.0356
     2.3381   2.6857   2.7668   2.9245   3.0985   3.2263

          k = 0.0729-0.0103 0.0000 ( 35443 PWs)   bands (ev):

   -62.2552 -62.2499 -62.1303 -62.1249 -61.7250 -61.7193 -30.8285 -30.8144
   -30.7178 -30.7026 -30.6943 -30.6800 -30.6407 -30.6086 -30.5933 -30.5423
   -30.5072 -30.4076 -30.3017 -30.1986 -30.1839 -30.1647 -30.1619 -30.1500
    -6.6836  -6.6684  -6.6637  -6.6367  -6.6151  -6.6102  -6.5961  -6.5896
    -6.5768  -6.5196  -6.4776  -6.4711  -6.4262  -6.4061  -6.4040  -6.3767
    -6.3745  -6.3464  -6.3360  -6.3219  -6.3138  -6.3094  -6.2813  -6.2664
    -6.2587  -6.2503  -6.2306  -6.2066  -6.2056  -6.1483  -6.0577  -4.9785
    -4.5649  -3.6616  -3.5178  -3.0242  -1.8595  -1.3584  -1.1596  -1.0104
    -0.8746  -0.4010   0.0724   0.1173   0.1637   0.4809   0.6350   0.7246
     0.8355   0.9589   1.0656   1.2283   1.6065   1.8511   2.0392   2.2281
     2.2522   2.6889   2.7712   3.0545   3.0560   3.2997

          k = 0.0729 0.0051 0.0000 ( 35425 PWs)   bands (ev):

   -62.2563 -62.2488 -62.1314 -62.1238 -61.7261 -61.7181 -30.8320 -30.8109
   -30.7219 -30.6985 -30.6983 -30.6765 -30.6683 -30.6129 -30.5892 -30.5702
   -30.4790 -30.3792 -30.3301 -30.2020 -30.1808 -30.1655 -30.1488 -30.1330
    -6.6734  -6.6731  -6.6710  -6.6449  -6.6061  -6.5961  -6.5905  -6.5876
    -6.5555  -6.5002  -6.4712  -6.4563  -6.4531  -6.4126  -6.4009  -6.3782
    -6.3723  -6.3502  -6.3421  -6.3189  -6.3037  -6.2982  -6.2793  -6.2737
    -6.2596  -6.2411  -6.2315  -6.1891  -6.1869  -6.1244  -6.0747  -4.7130
    -4.5558  -3.6892  -3.4830  -2.7478  -2.1624  -1.7817  -1.6843  -1.0856
    -0.8754  -0.5126  -0.0888   0.0560   0.2031   0.5121   0.6474   0.6555
     0.8418   0.9076   1.1816   1.4118   1.6002   1.8289   1.9416   2.2046
     2.4269   2.5836   2.7228   2.8574   3.1710   3.3203

          k = 0.0729 0.0206 0.0000 ( 35423 PWs)   bands (ev):

   -62.2572 -62.2479 -62.1323 -62.1230 -61.7271 -61.7172 -30.8349 -30.8083
   -30.7249 -30.7025 -30.6944 -30.6895 -30.6742 -30.6165 -30.5917 -30.5858
   -30.4574 -30.3573 -30.3517 -30.2048 -30.1784 -30.1660 -30.1483 -30.1106
    -6.6947  -6.6775  -6.6526  -6.6328  -6.5986  -6.5870  -6.5817  -6.5472
    -6.5364  -6.4789  -6.4728  -6.4607  -6.4391  -6.4189  -6.3899  -6.3719
    -6.3674  -6.3660  -6.3395  -6.2995  -6.2922  -6.2915  -6.2850  -6.2710
    -6.2622  -6.2442  -6.2155  -6.1708  -6.1694  -6.1060  -6.0501  -4.4815
    -4.3804  -3.9255  -3.2627  -2.5256  -2.3513  -2.1651  -2.1611  -1.2328
    -1.1201  -0.5042  -0.4188  -0.0967   0.1940   0.3977   0.4702   0.5781
     0.8354   1.1349   1.2425   1.5848   1.6388   1.8626   1.8695   2.2701
     2.3942   2.5614   2.5642   2.6682   3.0028   3.4462

          k = 0.0729 0.0361 0.0000 ( 35423 PWs)   bands (ev):

   -62.2577 -62.2474 -62.1328 -62.1225 -61.7276 -61.7166 -30.8369 -30.8065
   -30.7265 -30.7058 -30.7029 -30.6911 -30.6734 -30.6189 -30.6052 -30.5834
   -30.4437 -30.3653 -30.3435 -30.2066 -30.1770 -30.1659 -30.1483 -30.0965
    -6.7061  -6.6786  -6.6324  -6.6221  -6.5900  -6.5849  -6.5746  -6.5239
    -6.5014  -6.4829  -6.4589  -6.4501  -6.4249  -6.4237  -6.3798  -6.3753
    -6.3637  -6.3589  -6.3289  -6.2911  -6.2888  -6.2852  -6.2793  -6.2668
    -6.2666  -6.2380  -6.2023  -6.1624  -6.1554  -6.0941  -5.9464  -4.3408
    -4.2199  -3.9892  -3.0448  -2.8835  -2.6193  -2.2825  -2.0403  -1.4143
    -1.3440  -0.7299  -0.5331  -0.3860   0.1361   0.1741   0.4078   0.4985
     0.7959   1.2108   1.4017   1.6019   1.7089   1.9172   1.9880   2.1924
     2.3961   2.3966   2.4872   2.6281   2.9588   3.4632

          k = 0.0729 0.0515 0.0000 ( 35427 PWs)   bands (ev):

   -62.2579 -62.2472 -62.1330 -62.1223 -61.7278 -61.7164 -30.8378 -30.8058
   -30.7269 -30.7081 -30.7076 -30.6888 -30.6738 -30.6201 -30.6100 -30.5822
   -30.4391 -30.3698 -30.3388 -30.2074 -30.1765 -30.1653 -30.1490 -30.0918
    -6.7060  -6.6769  -6.6155  -6.6124  -6.5829  -6.5826  -6.5699  -6.5190
    -6.4849  -6.4812  -6.4458  -6.4414  -6.4254  -6.4105  -6.3792  -6.3762
    -6.3580  -6.3483  -6.3198  -6.2933  -6.2892  -6.2803  -6.2717  -6.2686
    -6.2633  -6.2310  -6.1926  -6.1622  -6.1516  -6.0904  -5.7370  -4.5434
    -4.1164  -3.6521  -3.3347  -2.9505  -2.9091  -2.1739  -1.7716  -1.5920
    -1.4337  -0.9949  -0.7438  -0.4637  -0.0562   0.1702   0.3759   0.4440
     0.7699   1.1423   1.5253   1.6214   1.7171   2.0375   2.0809   2.0984
     2.3109   2.3141   2.4700   2.6715   2.9324   3.4402

          k = 0.0729-0.1186 0.0000 ( 35439 PWs)   bands (ev):

   -62.2577 -62.2474 -62.1328 -62.1225 -61.7276 -61.7166 -30.8377 -30.8061
   -30.7260 -30.7088 -30.7033 -30.6879 -30.6752 -30.6199 -30.6057 -30.5822
   -30.4437 -30.3652 -30.3434 -30.2071 -30.1769 -30.1641 -30.1502 -30.0967
    -6.6948  -6.6727  -6.6046  -6.6041  -6.5831  -6.5781  -6.5690  -6.5226
    -6.4886  -6.4731  -6.4466  -6.4323  -6.4238  -6.3969  -6.3829  -6.3681
    -6.3558  -6.3398  -6.3214  -6.2927  -6.2904  -6.2813  -6.2763  -6.2624
    -6.2623  -6.2313  -6.1904  -6.1666  -6.1547  -6.0962  -5.4394  -4.8373
    -4.0532  -3.8263  -3.2412  -3.0570  -2.9492  -1.9884  -1.7653  -1.5382
    -1.4553  -1.1773  -0.7509  -0.3711  -0.1541   0.1872   0.3901   0.4365
     0.7524   1.1153   1.5154   1.6545   1.7228   1.9554   2.1023   2.1383
     2.2545   2.3516   2.3850   2.7635   2.8430   3.2335

          k = 0.0729-0.1031 0.0000 ( 35470 PWs)   bands (ev):

   -62.2571 -62.2479 -62.1322 -62.1230 -61.7271 -61.7172 -30.8363 -30.8074
   -30.7243 -30.7079 -30.6902 -30.6887 -30.6771 -30.6184 -30.5925 -30.5835
   -30.4573 -30.3571 -30.3515 -30.2056 -30.1783 -30.1625 -30.1520 -30.1110
    -6.6742  -6.6661  -6.5997  -6.5978  -6.5879  -6.5776  -6.5726  -6.5342
    -6.5102  -6.4595  -6.4553  -6.4241  -6.4216  -6.3928  -6.3811  -6.3581
    -6.3521  -6.3352  -6.3339  -6.2915  -6.2886  -6.2854  -6.2853  -6.2650
    -6.2595  -6.2394  -6.2027  -6.1687  -6.1631  -6.1115  -5.0856  -5.0748
    -4.5518  -3.5252  -3.4209  -3.3279  -2.4867  -2.0254  -1.8280  -1.3930
    -1.3127  -1.1896  -0.4495  -0.2150  -0.1165   0.2205   0.4503   0.4862
     0.7473   1.1504   1.3800   1.7335   1.7753   1.8046   2.0739   2.1373
     2.1946   2.2044   2.5453   2.6836   2.8236   2.9613

          k = 0.0729-0.0876 0.0000 ( 35481 PWs)   bands (ev):

   -62.2563 -62.2488 -62.1314 -62.1239 -61.7262 -61.7181 -30.8339 -30.8097
   -30.7218 -30.7051 -30.6915 -30.6790 -30.6692 -30.6157 -30.5859 -30.5713
   -30.4788 -30.3788 -30.3298 -30.2030 -30.1805 -30.1605 -30.1541 -30.1336
    -6.6575  -6.6466  -6.6047  -6.5988  -6.5896  -6.5811  -6.5798  -6.5528
    -6.5430  -6.4825  -6.4311  -6.4243  -6.4131  -6.3953  -6.3785  -6.3636
    -6.3517  -6.3354  -6.3299  -6.2982  -6.2960  -6.2931  -6.2815  -6.2700
    -6.2598  -6.2474  -6.2267  -6.1763  -6.1713  -6.1347  -5.2524  -5.0009
    -4.6871  -3.6716  -3.6598  -3.0359  -2.4769  -1.8374  -1.7667  -1.2817
    -1.0554  -0.9589  -0.1949  -0.0992   0.2015   0.2653   0.5371   0.5845
     0.7628   1.0993   1.2201   1.6841   1.7211   1.9782   1.9891   2.0433
     2.0851   2.2034   2.5247   2.7348   2.7432   2.8119

          k = 0.0729-0.0722 0.0000 ( 35439 PWs)   bands (ev):

   -62.2552 -62.2499 -62.1303 -62.1250 -61.7250 -61.7192 -30.8307 -30.8128
   -30.7188 -30.7009 -30.6959 -30.6810 -30.6417 -30.6120 -30.5894 -30.5435
   -30.5068 -30.4070 -30.3013 -30.1997 -30.1834 -30.1629 -30.1581 -30.1564
    -6.6470  -6.6235  -6.6172  -6.6064  -6.5893  -6.5875  -6.5871  -6.5784
    -6.5726  -6.5121  -6.4327  -6.4115  -6.4030  -6.4019  -6.3803  -6.3688
    -6.3563  -6.3398  -6.3203  -6.3151  -6.3010  -6.2981  -6.2768  -6.2727
    -6.2590  -6.2554  -6.2467  -6.1928  -6.1803  -6.1612  -5.3799  -5.3459
    -4.2903  -3.9631  -3.7894  -2.7614  -2.5747  -1.7039  -1.3366  -1.1531
    -0.8014  -0.5876  -0.2070   0.1250   0.3040   0.5541   0.5618   0.7015
     0.7916   0.8174   1.2527   1.4703   1.6784   1.8227   1.9528   2.1510
     2.2407   2.3302   2.5117   2.5828   2.7194   2.8806

          k = 0.0729-0.0567 0.0000 ( 35465 PWs)   bands (ev):

   -62.2539 -62.2512 -62.1290 -62.1263 -61.7236 -61.7206 -30.8268 -30.8164
   -30.7153 -30.7014 -30.6956 -30.6834 -30.6095 -30.6077 -30.5937 -30.5392
   -30.5110 -30.4398 -30.2681 -30.1968 -30.1956 -30.1869 -30.1587 -30.1559
    -6.6458  -6.6378  -6.6344  -6.6060  -6.5985  -6.5928  -6.5886  -6.5879
    -6.5809  -6.5431  -6.4480  -6.4374  -6.3940  -6.3881  -6.3724  -6.3697
    -6.3494  -6.3461  -6.3424  -6.3246  -6.3125  -6.2923  -6.2869  -6.2802
    -6.2561  -6.2527  -6.2348  -6.2097  -6.2023  -6.1810  -5.6755  -5.3612
    -4.2108  -3.9299  -3.8363  -3.0107  -2.0911  -1.5593  -1.0892  -0.8570
    -0.5446  -0.3211  -0.1915   0.2023   0.2762   0.2887   0.6541   0.7722
     0.8099   0.8905   1.1944   1.2893   1.6727   1.8354   1.8766   2.2724
     2.2856   2.4850   2.6089   2.6720   2.7083   2.9747

          k = 0.0729-0.0413 0.0000 ( 35464 PWs)   bands (ev):

   -62.2526 -62.2525 -62.1277 -62.1276 -61.7222 -61.7221 -30.8226 -30.8204
   -30.7113 -30.7071 -30.6900 -30.6865 -30.6029 -30.5986 -30.5747 -30.5740
   -30.4759 -30.4748 -30.2327 -30.2321 -30.1917 -30.1908 -30.1609 -30.1536
    -6.6670  -6.6645  -6.6295  -6.6216  -6.6054  -6.5976  -6.5954  -6.5901
    -6.5704  -6.5582  -6.4653  -6.4614  -6.3957  -6.3890  -6.3679  -6.3672
    -6.3591  -6.3554  -6.3420  -6.3333  -6.3116  -6.3090  -6.2851  -6.2826
    -6.2472  -6.2435  -6.2299  -6.2265  -6.2048  -6.1962  -5.8801  -5.3031
    -4.3938  -3.8508  -3.5850  -3.2109  -1.6171  -1.3314  -1.2019  -0.5803
    -0.4347  -0.2793  -0.2150   0.1121   0.2231   0.2874   0.5594   0.8543
     0.9013   0.9143   1.0336   1.1643   1.8011   1.8937   1.9395   1.9934
     2.3596   2.5794   2.7275   2.9123   2.9345   3.0184

          k =-0.0875 0.0310 0.0000 ( 35482 PWs)   bands (ev):

   -62.2526 -62.2525 -62.1276 -62.1276 -61.7221 -61.7221 -30.8214 -30.8214
   -30.7102 -30.7102 -30.6872 -30.6872 -30.6010 -30.6010 -30.5743 -30.5743
   -30.4754 -30.4754 -30.2324 -30.2324 -30.1913 -30.1912 -30.1572 -30.1572
    -6.6705  -6.6705  -6.6262  -6.6261  -6.6020  -6.6019  -6.5929  -6.5929
    -6.5638  -6.5638  -6.4652  -6.4651  -6.3928  -6.3927  -6.3646  -6.3646
    -6.3562  -6.3561  -6.3373  -6.3373  -6.3122  -6.3122  -6.2814  -6.2814
    -6.2408  -6.2408  -6.2262  -6.2262  -6.2054  -6.2053  -5.6326  -5.6326
    -4.1492  -4.1492  -3.3080  -3.3080  -1.3974  -1.3974  -1.0873  -1.0873
    -0.3217  -0.3217  -0.1145  -0.1145   0.3135   0.3135   0.6969   0.6969
     0.9007   0.9007   1.0160   1.0161   1.8891   1.8891   2.0574   2.0574
     2.4242   2.4242   2.8425   2.8426   3.1741   3.1741

          k =-0.0875 0.0464 0.0000 ( 35479 PWs)   bands (ev):

   -62.2539 -62.2512 -62.1290 -62.1263 -61.7236 -61.7207 -30.8257 -30.8173
   -30.7150 -30.7050 -30.6921 -30.6829 -30.6090 -30.6060 -30.5959 -30.5395
   -30.5104 -30.4402 -30.2683 -30.1967 -30.1951 -30.1873 -30.1591 -30.1554
    -6.6679  -6.6580  -6.6418  -6.6093  -6.6003  -6.5987  -6.5946  -6.5900
    -6.5863  -6.5394  -6.4657  -6.4528  -6.3961  -6.3936  -6.3793  -6.3663
    -6.3606  -6.3496  -6.3385  -6.3253  -6.3194  -6.2902  -6.2871  -6.2782
    -6.2507  -6.2502  -6.2285  -6.2124  -6.2116  -6.1809  -5.7348  -5.4618
    -4.2117  -4.0244  -3.5340  -3.0848  -1.7017  -1.5003  -1.1853  -0.7827
    -0.7414  -0.3795   0.0835   0.1114   0.1799   0.2655   0.5846   0.8085
     0.8565   0.9121   1.0179   1.1534   1.6733   1.9656   2.0720   2.1338
     2.4206   2.4622   2.7759   2.8533   2.9969   3.2124

          k =-0.0875 0.0619 0.0000 ( 35460 PWs)   bands (ev):

   -62.2552 -62.2499 -62.1303 -62.1250 -61.7250 -61.7193 -30.8297 -30.8134
   -30.7191 -30.6998 -30.6972 -30.6795 -30.6413 -30.6107 -30.5912 -30.5430
   -30.5070 -30.4073 -30.3015 -30.1993 -30.1837 -30.1628 -30.1605 -30.1536
    -6.6551  -6.6524  -6.6365  -6.6231  -6.5981  -6.5920  -6.5874  -6.5855
    -6.5741  -6.5144  -6.4576  -6.4305  -6.4140  -6.4018  -6.3870  -6.3690
    -6.3592  -6.3464  -6.3312  -6.3178  -6.3062  -6.3040  -6.2755  -6.2682
    -6.2570  -6.2534  -6.2403  -6.1959  -6.1936  -6.1547  -5.7727  -5.2170
    -4.2127  -3.8375  -3.7971  -2.8373  -2.0324  -1.8727  -1.2756  -1.1496
    -0.7133  -0.4737  -0.1321   0.1194   0.2299   0.4277   0.6917   0.7200
     0.7340   0.8878   1.1555   1.3078   1.5823   1.9316   2.0184   2.1385
     2.4459   2.5468   2.6833   2.8100   2.8860   2.9682

          k =-0.0875 0.0773 0.0000 ( 35436 PWs)   bands (ev):

   -62.2563 -62.2488 -62.1314 -62.1239 -61.7262 -61.7181 -30.8332 -30.8101
   -30.7224 -30.7021 -30.6949 -30.6771 -30.6688 -30.6148 -30.5872 -30.5709
   -30.4789 -30.3790 -30.3299 -30.2027 -30.1806 -30.1623 -30.1521 -30.1334
    -6.6629  -6.6550  -6.6340  -6.6169  -6.5910  -6.5864  -6.5832  -6.5561
    -6.5515  -6.4882  -6.4463  -6.4399  -6.4105  -6.4067  -6.3871  -6.3662
    -6.3534  -6.3470  -6.3364  -6.3054  -6.2989  -6.2954  -6.2780  -6.2707
    -6.2603  -6.2447  -6.2286  -6.1785  -6.1784  -6.1303  -5.7429  -4.8968
    -4.1644  -4.1023  -3.5930  -2.5596  -2.4497  -2.0384  -1.7894  -1.2521
    -0.9785  -0.5278  -0.3998  -0.0160   0.2382   0.4319   0.5140   0.6204
     0.8091   0.9977   1.2108   1.5119   1.5885   1.9449   2.0487   2.0742
     2.3511   2.4022   2.6837   2.6838   2.7970   3.0422

          k =-0.0875 0.0928 0.0000 ( 35427 PWs)   bands (ev):

   -62.2572 -62.2479 -62.1322 -62.1230 -61.7271 -61.7172 -30.8359 -30.8077
   -30.7247 -30.7061 -30.6908 -30.6900 -30.6758 -30.6179 -30.5923 -30.5841
   -30.4573 -30.3572 -30.3516 -30.2053 -30.1783 -30.1634 -30.1510 -30.1109
    -6.6791  -6.6690  -6.6157  -6.6088  -6.5852  -6.5836  -6.5750  -6.5349
    -6.5165  -6.4642  -6.4603  -6.4367  -6.4190  -6.3999  -6.3805  -6.3609
    -6.3556  -6.3459  -6.3363  -6.2916  -6.2876  -6.2865  -6.2863  -6.2663
    -6.2622  -6.2404  -6.2066  -6.1693  -6.1638  -6.1099  -5.6339  -4.5051
    -4.4779  -4.0194  -3.3085  -2.8653  -2.4796  -2.0819  -2.0561  -1.3747
    -1.2620  -0.8896  -0.4103  -0.3072   0.1090   0.2100   0.4525   0.5159
     0.7690   1.1809   1.3297   1.5815   1.6854   1.9878   2.0679   2.1221
     2.2255   2.2843   2.5544   2.7575   2.7712   3.1271

          k =-0.0875 0.1083 0.0000 ( 35439 PWs)   bands (ev):

   -62.2577 -62.2474 -62.1328 -62.1225 -61.7276 -61.7166 -30.8377 -30.8061
   -30.7260 -30.7088 -30.7033 -30.6879 -30.6752 -30.6199 -30.6057 -30.5822
   -30.4437 -30.3652 -30.3434 -30.2071 -30.1769 -30.1641 -30.1502 -30.0967
    -6.6948  -6.6727  -6.6046  -6.6041  -6.5831  -6.5781  -6.5690  -6.5226
    -6.4886  -6.4731  -6.4466  -6.4323  -6.4238  -6.3969  -6.3829  -6.3681
    -6.3558  -6.3398  -6.3214  -6.2927  -6.2904  -6.2813  -6.2763  -6.2624
    -6.2623  -6.2313  -6.1904  -6.1666  -6.1547  -6.0962  -5.4394  -4.8373
    -4.0532  -3.8263  -3.2412  -3.0570  -2.9492  -1.9884  -1.7653  -1.5382
    -1.4553  -1.1773  -0.7509  -0.3711  -0.1541   0.1872   0.3901   0.4365
     0.7524   1.1153   1.5154   1.6545   1.7228   1.9554   2.1023   2.1383
     2.2546   2.3517   2.3850   2.7636   2.8431   3.2335

          k =-0.0875-0.0618 0.0000 ( 35434 PWs)   bands (ev):

   -62.2579 -62.2472 -62.1330 -62.1223 -61.7278 -61.7164 -30.8382 -30.8056
   -30.7265 -30.7098 -30.7078 -30.6868 -30.6752 -30.6206 -30.6102 -30.5816
   -30.4391 -30.3698 -30.3387 -30.2076 -30.1764 -30.1643 -30.1500 -30.0919
    -6.7003  -6.6739  -6.6033  -6.6007  -6.5815  -6.5760  -6.5669  -6.5184
    -6.4800  -6.4759  -6.4395  -6.4329  -6.4242  -6.3919  -6.3893  -6.3721
    -6.3537  -6.3374  -6.3155  -6.2949  -6.2905  -6.2804  -6.2717  -6.2627
    -6.2607  -6.2269  -6.1834  -6.1674  -6.1516  -6.0914  -5.1882  -5.1458
    -3.6467  -3.5887  -3.5410  -3.4185  -2.8918  -1.9344  -1.6712  -1.4970
    -1.4854  -1.3032  -1.0403  -0.3354  -0.2869   0.1798   0.3665   0.4066
     0.7476   1.0852   1.5152   1.7014   1.7387   2.0530   2.1002   2.1691
     2.1837   2.2656   2.4609   2.7473   2.8814   3.3256

     the Fermi energy is     0.8017 ev

!    total energy              =   -1654.85592694 Ry
     estimated scf accuracy    <       0.00000595 Ry
     smearing contrib. (-TS)   =      -0.05419371 Ry
     internal energy E=F+TS    =   -1654.80173323 Ry

     The total energy is F=E-TS. E is the sum of the following terms:
     one-electron contribution =  -10123.57942464 Ry
     hartree contribution      =    5126.23202116 Ry
     xc contribution           =    -547.30838617 Ry
     ewald contribution        =    3889.85404494 Ry
     electric field correction =       0.00001148 Ry

     convergence has been achieved in  15 iterations

     negative rho (up, down):  1.588E-04 0.000E+00

     Forces acting on atoms (cartesian axes, Ry/au):

     atom    1 type  1   force =     0.00000014    0.00000250   -0.01544632
     atom    2 type  1   force =     0.00000680   -0.00000344   -0.01545555
     atom    3 type  2   force =    -0.00003369   -0.00002498    0.01551329
     atom    4 type  2   force =    -0.00003162   -0.00002413    0.01551216
     atom    5 type  1   force =     0.00005319    0.00004005   -0.00994300
     atom    6 type  1   force =    -0.00006382   -0.00003269   -0.00994190
     atom    7 type  2   force =    -0.00001516    0.00000240    0.00874522
     atom    8 type  2   force =    -0.00000358   -0.00001806    0.00874688
     atom    9 type  1   force =    -0.00001841   -0.00000361    0.00323108
     atom   10 type  1   force =     0.00000556   -0.00000873    0.00320879
     atom   11 type  2   force =     0.00004909    0.00003147   -0.00208604
     atom   12 type  2   force =     0.00005152    0.00003922   -0.00208461

     Total force =     0.036591     Total SCF correction =     0.015127
     SCF correction compared to forces is large: reduce conv_thr to get better values

     Writing output data file ./Zn2Hf2/Zn2Hf2_beef.save/

     init_run     :    107.46s CPU    109.83s WALL (       1 calls)
     electrons    :   3120.52s CPU   3175.69s WALL (       1 calls)
     forces       :     65.16s CPU     66.51s WALL (       1 calls)

     Called by init_run:
     wfcinit      :     90.23s CPU     92.23s WALL (       1 calls)
     potinit      :      9.93s CPU     10.07s WALL (       1 calls)
     hinit0       :      4.39s CPU      4.44s WALL (       1 calls)

     Called by electrons:
     c_bands      :   2719.52s CPU   2759.33s WALL (      15 calls)
     sum_band     :    362.71s CPU    371.26s WALL (      15 calls)
     v_of_rho     :     27.54s CPU     29.64s WALL (      16 calls)
     newd         :     18.61s CPU     23.42s WALL (      16 calls)
     mix_rho      :      0.64s CPU      0.68s WALL (      15 calls)
     vdW_kernel   :      5.94s CPU      5.98s WALL (       1 calls)

     Called by c_bands:
     init_us_2    :     12.61s CPU     12.84s WALL (    2368 calls)
     cegterg      :   2680.39s CPU   2718.06s WALL (    1110 calls)

     Called by *egterg:
     cdiaghg      :    111.11s CPU    111.69s WALL (    5326 calls)
     h_psi        :   1517.70s CPU   1545.48s WALL (    5400 calls)
     s_psi        :    297.08s CPU    300.41s WALL (    5400 calls)
     g_psi        :      1.03s CPU      1.04s WALL (    4216 calls)

     Called by h_psi:
     h_psi:calbec :    481.97s CPU    488.16s WALL (    5400 calls)
     vloc_psi     :    567.25s CPU    583.19s WALL (    5400 calls)
     add_vuspsi   :    464.22s CPU    469.77s WALL (    5400 calls)

     General routines
     calbec       :    742.03s CPU    751.08s WALL (    6806 calls)
     fft          :     23.05s CPU     24.09s WALL (    1067 calls)
     ffts         :      0.25s CPU      0.27s WALL (      31 calls)
     fftw         :    663.83s CPU    681.61s WALL (  546350 calls)
     interpolate  :      0.59s CPU      0.62s WALL (      16 calls)

     Parallel routines
     fft_scatt_xy :     36.85s CPU     37.58s WALL (  547448 calls)
     fft_scatt_yz :    320.03s CPU    332.80s WALL (  547448 calls)

     PWSCF        :  55m10.18s CPU  56m29.56s WALL


   This run was terminated on:   1: 0:31  10Jul2022            

=------------------------------------------------------------------------------=
   JOB DONE.
=------------------------------------------------------------------------------=
