
     Program PWSCF v.6.6 starts on  9Jul2022 at 23: 5:10 

     This program is part of the open-source Quantum ESPRESSO suite
     for quantum simulation of materials; please cite
         "P. Giannozzi et al., J. Phys.:Condens. Matter 21 395502 (2009);
         "P. Giannozzi et al., J. Phys.:Condens. Matter 29 465901 (2017);
          URL http://www.quantum-espresso.org", 
     in publications or presentations arising from this work. More details at
     http://www.quantum-espresso.org/quote

     Parallel version (MPI), running on    37 processors

     MPI processes distributed on     4 nodes
     R & G space division:  proc/nbgrp/npool/nimage =      37
     Fft bands division:     nmany     =       1
     Reading input from Zn2Os2.in
Warning: card &CELL ignored
Warning: card / ignored

     Current dimensions of program PWSCF are:
     Max number of different atomic species (ntypx) = 10
     Max number of k-points (npk) =  40000
     Max angular momentum in pseudopotentials (lmaxx) =  3
     Presently stress not available with electric field and gates

     Message from routine cell_base_init:
     DEPRECATED: use true lattice parameter, not A to a.u. conversion factor
     file Zn.pbe-dnl-rrkjus_psl.1.0.0.UPF: wavefunction(s)  3D renormalized

     **************************************************************************
     Initializing libbeef V0.1.2 with the BEEF-vdW functional.
     Citation: Wellendorff et al., PRB 85, 235149 (2012).
     **************************************************************************


     IMPORTANT: XC functional enforced from input :
     Exchange-correlation= BEEF-VDW
                           (   1   4  43  14   2   0   0)
     Any further DFT definition will be discarded
     Please, verify this is what you really want


     Subspace diagonalization in iterative solution of the eigenvalue problem:
     a serial algorithm will be used


     Parallelization info
     --------------------
     sticks:   dense  smooth     PW     G-vecs:    dense   smooth      PW
     Min         110      43     12                25382     6399     998
     Max         111      44     13                25395     6434    1021
     Sum        4081    1621    475               939433   237567   37533



     bravais-lattice index     =            0
     lattice parameter (alat)  =       1.8897  a.u.
     unit-cell volume          =    4298.0028 (a.u.)^3
     number of atoms/cell      =           12
     number of atomic types    =            2
     number of electrons       =       168.00
     number of Kohn-Sham states=          101
     kinetic-energy cutoff     =      55.1240  Ry
     charge density cutoff     =     551.2396  Ry
     convergence threshold     =      1.0E-05
     mixing beta               =       0.1000
     number of iterations used =           10  plain     mixing
     Exchange-correlation= BEEF-VDW
                           (   1   4  43  14   2   0   0)

     celldm(1)=   1.889726  celldm(2)=   0.000000  celldm(3)=   0.000000
     celldm(4)=   0.000000  celldm(5)=   0.000000  celldm(6)=   0.000000

     crystal axes: (cart. coord. in units of alat)
               a(1) = (   5.315639   0.000000   0.000000 )  
               a(2) = (  -2.657819   4.897488   0.000000 )  
               a(3) = (   0.000000   0.000000  24.464780 )  

     reciprocal axes: (cart. coord. in units 2 pi/alat)
               b(1) = (  0.188124  0.102093 -0.000000 )  
               b(2) = (  0.000000  0.204186  0.000000 )  
               b(3) = (  0.000000 -0.000000  0.040875 )  


     PseudoPot. # 1 for Zn read from file:
     ../pseudo/Zn.pbe-dnl-rrkjus_psl.1.0.0.UPF
     MD5 check sum: 7f56cabf9682ed8c977c2f7d0c5985c5
     Pseudo is Ultrasoft + core correction, Zval = 12.0
     Generated using "atomic" code by A. Dal Corso v.6.2.2
     Using radial grid of 1201 points,  6 beta functions with: 
                l(1) =   0
                l(2) =   0
                l(3) =   1
                l(4) =   1
                l(5) =   2
                l(6) =   2
     Q(r) pseudized with 0 coefficients 


     PseudoPot. # 2 for Os read from file:
     ../pseudo/Os.pbe-spn-rrkjus_psl.1.0.0.UPF
     MD5 check sum: 3e7416ed594f6513d36e5cb31ba709d9
     Pseudo is Ultrasoft + core correction, Zval = 16.0
     Generated using "atomic" code by A. Dal Corso v.6.2.2
     Using radial grid of 1275 points,  6 beta functions with: 
                l(1) =   0
                l(2) =   0
                l(3) =   1
                l(4) =   1
                l(5) =   2
                l(6) =   2
     Q(r) pseudized with 0 coefficients 


     atomic species   valence    mass     pseudopotential
        Zn            12.00    65.38000     Zn( 1.00)
        Os            16.00   190.23000     Os( 1.00)

     No symmetry found



   Cartesian axes

     site n.     atom                  positions (alat units)
         1           Zn  tau(   1) = (   0.0000000   0.0000000  10.0000000  )
         2           Zn  tau(   2) = (   2.6578195   0.0000000  10.0000000  )
         3           Os  tau(   3) = (   1.3289097   2.4487439  10.0000000  )
         4           Os  tau(   4) = (  -1.3289097   2.4487439  10.0000000  )
         5           Zn  tau(   5) = (   2.6578195   1.4423731  12.2323898  )
         6           Zn  tau(   6) = (  -0.0000000   1.4423731  12.2323898  )
         7           Os  tau(   7) = (  -1.3289097   3.8911169  12.2323898  )
         8           Os  tau(   8) = (   1.3289097   3.8911169  12.2323898  )
         9           Zn  tau(   9) = (  -0.0002666   2.6650526  14.6507602  )
        10           Zn  tau(  10) = (   2.6577001   2.6650547  14.6507621  )
        11           Os  tau(  11) = (   3.9866250   0.1806065  14.3326260  )
        12           Os  tau(  12) = (   1.3288067   0.1806801  14.3326549  )

     number of k points=    74  Fermi-Dirac smearing, width (Ry)=  0.0100
                       cart. coord. in units 2pi/alat
        k(    1) = (   0.0000000   0.0000000   0.0000000), wk =   0.0138889
        k(    2) = (   0.0000000   0.0170155   0.0000000), wk =   0.0277778
        k(    3) = (   0.0000000   0.0340311   0.0000000), wk =   0.0277778
        k(    4) = (   0.0000000   0.0510466   0.0000000), wk =   0.0277778
        k(    5) = (   0.0000000   0.0680621   0.0000000), wk =   0.0277778
        k(    6) = (   0.0000000   0.0850776   0.0000000), wk =   0.0277778
        k(    7) = (   0.0000000  -0.1020932   0.0000000), wk =   0.0138889
        k(    8) = (   0.0156770   0.0085078   0.0000000), wk =   0.0277778
        k(    9) = (   0.0156770   0.0255233   0.0000000), wk =   0.0277778
        k(   10) = (   0.0156770   0.0425388   0.0000000), wk =   0.0277778
        k(   11) = (   0.0156770   0.0595543   0.0000000), wk =   0.0277778
        k(   12) = (   0.0156770   0.0765699   0.0000000), wk =   0.0277778
        k(   13) = (   0.0156770   0.0935854   0.0000000), wk =   0.0277778
        k(   14) = (   0.0156770  -0.0935854   0.0000000), wk =   0.0277778
        k(   15) = (   0.0156770  -0.0765699   0.0000000), wk =   0.0277778
        k(   16) = (   0.0156770  -0.0595543   0.0000000), wk =   0.0277778
        k(   17) = (   0.0156770  -0.0425388   0.0000000), wk =   0.0277778
        k(   18) = (   0.0156770  -0.0255233   0.0000000), wk =   0.0277778
        k(   19) = (   0.0156770  -0.0085078   0.0000000), wk =   0.0277778
        k(   20) = (   0.0313540   0.0170155   0.0000000), wk =   0.0277778
        k(   21) = (   0.0313540   0.0340310   0.0000000), wk =   0.0277778
        k(   22) = (   0.0313540   0.0510466   0.0000000), wk =   0.0277778
        k(   23) = (   0.0313540   0.0680621   0.0000000), wk =   0.0277778
        k(   24) = (   0.0313540   0.0850776   0.0000000), wk =   0.0277778
        k(   25) = (   0.0313540   0.1020932   0.0000000), wk =   0.0277778
        k(   26) = (   0.0313540  -0.0850776   0.0000000), wk =   0.0277778
        k(   27) = (   0.0313540  -0.0680621   0.0000000), wk =   0.0277778
        k(   28) = (   0.0313540  -0.0510466   0.0000000), wk =   0.0277778
        k(   29) = (   0.0313540  -0.0340311   0.0000000), wk =   0.0277778
        k(   30) = (   0.0313540  -0.0170155   0.0000000), wk =   0.0277778
        k(   31) = (   0.0313540  -0.0000000   0.0000000), wk =   0.0277778
        k(   32) = (   0.0470310   0.0255233   0.0000000), wk =   0.0277778
        k(   33) = (   0.0470310   0.0425388   0.0000000), wk =   0.0277778
        k(   34) = (   0.0470310   0.0595543   0.0000000), wk =   0.0277778
        k(   35) = (   0.0470310   0.0765699   0.0000000), wk =   0.0277778
        k(   36) = (   0.0470310   0.0935854   0.0000000), wk =   0.0277778
        k(   37) = (   0.0470310   0.1106009   0.0000000), wk =   0.0277778
        k(   38) = (   0.0470310  -0.0765699   0.0000000), wk =   0.0277778
        k(   39) = (   0.0470310  -0.0595543   0.0000000), wk =   0.0277778
        k(   40) = (   0.0470310  -0.0425388   0.0000000), wk =   0.0277778
        k(   41) = (   0.0470310  -0.0255233   0.0000000), wk =   0.0277778
        k(   42) = (   0.0470310  -0.0085078   0.0000000), wk =   0.0277778
        k(   43) = (   0.0470310   0.0085078   0.0000000), wk =   0.0277778
        k(   44) = (   0.0627080   0.0340310   0.0000000), wk =   0.0277778
        k(   45) = (   0.0627080   0.0510466   0.0000000), wk =   0.0277778
        k(   46) = (   0.0627080   0.0680621   0.0000000), wk =   0.0277778
        k(   47) = (   0.0627080   0.0850776   0.0000000), wk =   0.0277778
        k(   48) = (   0.0627080   0.1020931   0.0000000), wk =   0.0277778
        k(   49) = (   0.0627080   0.1191087   0.0000000), wk =   0.0277778
        k(   50) = (   0.0627080  -0.0680621   0.0000000), wk =   0.0277778
        k(   51) = (   0.0627080  -0.0510466   0.0000000), wk =   0.0277778
        k(   52) = (   0.0627080  -0.0340311   0.0000000), wk =   0.0277778
        k(   53) = (   0.0627080  -0.0170155   0.0000000), wk =   0.0277778
        k(   54) = (   0.0627080  -0.0000000   0.0000000), wk =   0.0277778
        k(   55) = (   0.0627080   0.0170155   0.0000000), wk =   0.0277778
        k(   56) = (   0.0783851   0.0425388   0.0000000), wk =   0.0277778
        k(   57) = (   0.0783851   0.0595543   0.0000000), wk =   0.0277778
        k(   58) = (   0.0783851   0.0765699   0.0000000), wk =   0.0277778
        k(   59) = (   0.0783851   0.0935854   0.0000000), wk =   0.0277778
        k(   60) = (   0.0783851   0.1106009   0.0000000), wk =   0.0277778
        k(   61) = (   0.0783851   0.1276164   0.0000000), wk =   0.0277778
        k(   62) = (   0.0783851  -0.0595543   0.0000000), wk =   0.0277778
        k(   63) = (   0.0783851  -0.0425388   0.0000000), wk =   0.0277778
        k(   64) = (   0.0783851  -0.0255233   0.0000000), wk =   0.0277778
        k(   65) = (   0.0783851  -0.0085078   0.0000000), wk =   0.0277778
        k(   66) = (   0.0783851   0.0085078   0.0000000), wk =   0.0277778
        k(   67) = (   0.0783851   0.0255233   0.0000000), wk =   0.0277778
        k(   68) = (  -0.0940621  -0.0510466   0.0000000), wk =   0.0138889
        k(   69) = (  -0.0940621  -0.0340310   0.0000000), wk =   0.0277778
        k(   70) = (  -0.0940621  -0.0170155   0.0000000), wk =   0.0277778
        k(   71) = (  -0.0940621   0.0000000   0.0000000), wk =   0.0277778
        k(   72) = (  -0.0940621   0.0170155   0.0000000), wk =   0.0277778
        k(   73) = (  -0.0940621   0.0340311   0.0000000), wk =   0.0277778
        k(   74) = (  -0.0940621  -0.1531397   0.0000000), wk =   0.0138889

     Dense  grid:   939433 G-vectors     FFT dimensions: (  75,  80, 360)

     Smooth grid:   237567 G-vectors     FFT dimensions: (  48,  50, 225)

     Estimated max dynamical RAM per process >     194.46 MB

     Estimated total dynamical RAM >       7.03 GB

     Initial potential from superposition of free atoms

     starting charge  167.97619, renormalised to  168.00000

     negative rho (up, down):  3.931E-04 0.000E+00


     %%%%%%%%%%%%%%%%%%%%%%%%%%%%%%%%%%%%%%%%%%%%%%%%%%%%%%%%%%%%%%%%%%%%%%%%
     %                                                                      %
     % You are using vdW-DF, which was implemented by the Thonhauser group. %
     % Please cite the following two papers that made this development      %
     % possible and the two reviews that describe the various versions:     %
     %                                                                      %
     %   T. Thonhauser et al., PRL 115, 136402 (2015).                      %
     %   T. Thonhauser et al., PRB 76, 125112 (2007).                       %
     %   K. Berland et al., Rep. Prog. Phys. 78, 066501 (2015).             %
     %   D.C. Langreth et al., J. Phys.: Condens. Matter 21, 084203 (2009). %
     %                                                                      %
     %                                                                      %
     % If you are calculating the stress with vdW-DF, please also cite:     %
     %                                                                      %
     %   R. Sabatini et al., J. Phys.: Condens. Matter 24, 424209 (2012).   %
     %                                                                      %
     %%%%%%%%%%%%%%%%%%%%%%%%%%%%%%%%%%%%%%%%%%%%%%%%%%%%%%%%%%%%%%%%%%%%%%%%



     Adding external electric field

     Computed dipole along edir(3) : 
        Dipole                0.0024 Ry au,          0.0062 Debye
        Dipole field          0.0000 Ry au, 

        Potential amp.       -0.0006 Ry
        Total length         45.0759 bohr

     Starting wfcs are  114 randomized atomic wfcs

     total cpu time spent up to now is      206.3 secs

     Self-consistent Calculation

     iteration #  1     ecut=    55.12 Ry     beta= 0.10
     Davidson diagonalization with overlap
     ethr =  1.00E-02,  avg # of iterations =  3.3

     Threshold (ethr) on eigenvalues was too large:
     Diagonalizing with lowered threshold

     Davidson diagonalization with overlap
     ethr =  6.42E-04,  avg # of iterations =  2.1

     negative rho (up, down):  3.699E-04 0.000E+00

     Adding external electric field

     Computed dipole along edir(3) : 
        Dipole                0.2288 Ry au,          0.5816 Debye
        Dipole field          0.0007 Ry au, 

        Potential amp.       -0.0603 Ry
        Total length         45.0759 bohr


     total cpu time spent up to now is      902.1 secs

     total energy              =   -2101.20528448 Ry
     estimated scf accuracy    <       1.13191942 Ry

     iteration #  2     ecut=    55.12 Ry     beta= 0.10
     Davidson diagonalization with overlap
     ethr =  6.74E-04,  avg # of iterations =  2.2

     negative rho (up, down):  3.551E-04 0.000E+00

     Adding external electric field

     Computed dipole along edir(3) : 
        Dipole               -0.1461 Ry au,         -0.3713 Debye
        Dipole field         -0.0004 Ry au, 

        Potential amp.        0.0385 Ry
        Total length         45.0759 bohr


     total cpu time spent up to now is     1172.1 secs

     total energy              =   -2101.19305701 Ry
     estimated scf accuracy    <       1.56726603 Ry

     iteration #  3     ecut=    55.12 Ry     beta= 0.10
     Davidson diagonalization with overlap
     ethr =  6.74E-04,  avg # of iterations =  1.3

     negative rho (up, down):  3.419E-04 0.000E+00

     Adding external electric field

     Computed dipole along edir(3) : 
        Dipole                0.1062 Ry au,          0.2698 Debye
        Dipole field          0.0003 Ry au, 

        Potential amp.       -0.0280 Ry
        Total length         45.0759 bohr


     total cpu time spent up to now is     1417.0 secs

     total energy              =   -2101.20875376 Ry
     estimated scf accuracy    <       2.25225383 Ry

     iteration #  4     ecut=    55.12 Ry     beta= 0.10
     Davidson diagonalization with overlap
     ethr =  6.74E-04,  avg # of iterations =  1.1

     negative rho (up, down):  3.264E-04 0.000E+00

     Adding external electric field

     Computed dipole along edir(3) : 
        Dipole                0.0861 Ry au,          0.2188 Debye
        Dipole field          0.0003 Ry au, 

        Potential amp.       -0.0227 Ry
        Total length         45.0759 bohr


     total cpu time spent up to now is     1655.7 secs

     total energy              =   -2101.23678325 Ry
     estimated scf accuracy    <       0.16541897 Ry

     iteration #  5     ecut=    55.12 Ry     beta= 0.10
     Davidson diagonalization with overlap
     c_bands:  1 eigenvalues not converged
     c_bands:  1 eigenvalues not converged
     ethr =  9.85E-05,  avg # of iterations =  8.7

     negative rho (up, down):  3.143E-04 0.000E+00

     Adding external electric field

     Computed dipole along edir(3) : 
        Dipole                0.0646 Ry au,          0.1642 Debye
        Dipole field          0.0002 Ry au, 

        Potential amp.       -0.0170 Ry
        Total length         45.0759 bohr


     total cpu time spent up to now is     1971.2 secs

     total energy              =   -2101.24278640 Ry
     estimated scf accuracy    <       0.04624874 Ry

     iteration #  6     ecut=    55.12 Ry     beta= 0.10
     Davidson diagonalization with overlap
     c_bands:  1 eigenvalues not converged
     c_bands:  1 eigenvalues not converged
     ethr =  2.75E-05,  avg # of iterations =  7.0

     negative rho (up, down):  3.198E-04 0.000E+00

     Adding external electric field

     Computed dipole along edir(3) : 
        Dipole                0.0797 Ry au,          0.2026 Debye
        Dipole field          0.0002 Ry au, 

        Potential amp.       -0.0210 Ry
        Total length         45.0759 bohr


     total cpu time spent up to now is     2273.8 secs

     total energy              =   -2101.24436068 Ry
     estimated scf accuracy    <       0.02040508 Ry

     iteration #  7     ecut=    55.12 Ry     beta= 0.10
     Davidson diagonalization with overlap
     ethr =  1.21E-05,  avg # of iterations =  7.0

     negative rho (up, down):  3.233E-04 0.000E+00

     Adding external electric field

     Computed dipole along edir(3) : 
        Dipole                0.1006 Ry au,          0.2557 Debye
        Dipole field          0.0003 Ry au, 

        Potential amp.       -0.0265 Ry
        Total length         45.0759 bohr


     total cpu time spent up to now is     2590.6 secs

     total energy              =   -2101.24564235 Ry
     estimated scf accuracy    <       0.00586683 Ry

     iteration #  8     ecut=    55.12 Ry     beta= 0.10
     Davidson diagonalization with overlap
     c_bands:  1 eigenvalues not converged
     c_bands:  1 eigenvalues not converged
     c_bands:  1 eigenvalues not converged
     c_bands:  1 eigenvalues not converged
     c_bands:  1 eigenvalues not converged
     c_bands:  1 eigenvalues not converged
     ethr =  3.49E-06,  avg # of iterations =  9.6

     negative rho (up, down):  3.192E-04 0.000E+00

     Adding external electric field

     Computed dipole along edir(3) : 
        Dipole                0.0907 Ry au,          0.2306 Debye
        Dipole field          0.0003 Ry au, 

        Potential amp.       -0.0239 Ry
        Total length         45.0759 bohr


     total cpu time spent up to now is     2946.5 secs

     total energy              =   -2101.24618739 Ry
     estimated scf accuracy    <       0.00135706 Ry

     iteration #  9     ecut=    55.12 Ry     beta= 0.10
     Davidson diagonalization with overlap
     ethr =  8.08E-07,  avg # of iterations =  2.9

     negative rho (up, down):  3.057E-04 0.000E+00

     Adding external electric field

     Computed dipole along edir(3) : 
        Dipole                0.0885 Ry au,          0.2250 Debye
        Dipole field          0.0003 Ry au, 

        Potential amp.       -0.0233 Ry
        Total length         45.0759 bohr


     total cpu time spent up to now is     3263.2 secs

     total energy              =   -2101.24628614 Ry
     estimated scf accuracy    <       0.00068478 Ry

     iteration # 10     ecut=    55.12 Ry     beta= 0.10
     Davidson diagonalization with overlap
     ethr =  4.08E-07,  avg # of iterations =  2.0

     negative rho (up, down):  2.968E-04 0.000E+00

     Adding external electric field

     Computed dipole along edir(3) : 
        Dipole                0.0925 Ry au,          0.2352 Debye
        Dipole field          0.0003 Ry au, 

        Potential amp.       -0.0244 Ry
        Total length         45.0759 bohr


     total cpu time spent up to now is     3518.5 secs

     total energy              =   -2101.24633060 Ry
     estimated scf accuracy    <       0.00017081 Ry

     iteration # 11     ecut=    55.12 Ry     beta= 0.10
     Davidson diagonalization with overlap
     ethr =  1.02E-07,  avg # of iterations =  2.2

     negative rho (up, down):  2.870E-04 0.000E+00

     Adding external electric field

     Computed dipole along edir(3) : 
        Dipole                0.0905 Ry au,          0.2299 Debye
        Dipole field          0.0003 Ry au, 

        Potential amp.       -0.0238 Ry
        Total length         45.0759 bohr


     total cpu time spent up to now is     3829.8 secs

     total energy              =   -2101.24635076 Ry
     estimated scf accuracy    <       0.00006702 Ry

     iteration # 12     ecut=    55.12 Ry     beta= 0.10
     Davidson diagonalization with overlap
     ethr =  3.99E-08,  avg # of iterations =  2.0

     negative rho (up, down):  2.782E-04 0.000E+00

     Adding external electric field

     Computed dipole along edir(3) : 
        Dipole                0.0897 Ry au,          0.2279 Debye
        Dipole field          0.0003 Ry au, 

        Potential amp.       -0.0236 Ry
        Total length         45.0759 bohr


     total cpu time spent up to now is     4117.8 secs

     total energy              =   -2101.24635734 Ry
     estimated scf accuracy    <       0.00001504 Ry

     iteration # 13     ecut=    55.12 Ry     beta= 0.10
     Davidson diagonalization with overlap
     ethr =  8.95E-09,  avg # of iterations =  2.7

     negative rho (up, down):  2.177E-04 0.000E+00

     Adding external electric field

     Computed dipole along edir(3) : 
        Dipole                0.0943 Ry au,          0.2396 Debye
        Dipole field          0.0003 Ry au, 

        Potential amp.       -0.0248 Ry
        Total length         45.0759 bohr


     total cpu time spent up to now is     4485.8 secs

     End of self-consistent calculation

          k = 0.0000 0.0000 0.0000 ( 29719 PWs)   bands (ev):

   -85.3807 -85.3403 -85.0694 -85.0288 -84.8188 -84.7779 -45.1209 -45.0463
   -44.9245 -44.6968 -44.5494 -44.5382 -44.4807 -44.3087 -44.2741 -44.2409
   -44.2134 -44.1494 -44.0701 -44.0551 -44.0033 -43.9618 -43.8973 -43.8917
    -8.1645  -6.6666  -6.6311  -6.6225  -6.5486  -6.5417  -6.4278  -6.3600
    -6.3437  -6.2805  -6.2602  -6.2251  -6.2077  -6.2042  -6.0192  -5.9236
    -5.9035  -5.8716  -5.8640  -5.8329  -5.8132  -5.7824  -5.7237  -5.7212
    -5.6326  -5.5286  -5.5187  -5.5155  -5.4932  -5.4794  -5.4571  -5.2874
    -4.0516  -3.7742  -3.5791  -3.4578  -3.1034  -3.0774  -2.8841  -2.7131
    -2.6692  -2.1943  -1.4584  -1.4397  -1.2564  -1.1704  -0.8424  -0.5655
    -0.2285  -0.1650   0.3984   0.4099   0.5245   0.7068   0.7231   0.7942
     1.1824   1.3137   1.4056   1.5306   1.6601   1.6890   1.9365   2.0658
     2.1073   2.2596   2.6044   2.7945   3.0224   3.1537   3.1878   4.1087
     4.5997   4.8508   5.0051   5.2895   5.4745

          k = 0.0000 0.0170 0.0000 ( 29694 PWs)   bands (ev):

   -85.3807 -85.3403 -85.0694 -85.0288 -84.8188 -84.7779 -45.1210 -45.0463
   -44.9245 -44.6968 -44.5494 -44.5382 -44.4807 -44.3088 -44.2740 -44.2409
   -44.2134 -44.1494 -44.0702 -44.0551 -44.0033 -43.9618 -43.8973 -43.8917
    -8.1123  -6.6588  -6.6168  -6.5941  -6.5426  -6.5262  -6.4204  -6.3585
    -6.3252  -6.2736  -6.2501  -6.2155  -6.1970  -6.1927  -6.0197  -5.9154
    -5.8938  -5.8708  -5.8507  -5.8295  -5.8111  -5.7808  -5.7227  -5.7192
    -5.6340  -5.5262  -5.5202  -5.5135  -5.4934  -5.4750  -5.4569  -5.2871
    -4.0498  -3.7978  -3.5692  -3.5232  -3.2047  -3.0193  -2.8911  -2.7141
    -2.7089  -2.2054  -1.5583  -1.4812  -1.3624  -1.2231  -1.0412  -0.3550
    -0.1963  -0.1831   0.1365   0.3618   0.4970   0.5184   0.6447   0.8055
     1.1075   1.2963   1.4164   1.5602   1.6706   1.7052   1.9026   2.0711
     2.0976   2.2566   2.5969   2.9925   3.1262   3.1538   3.5842   4.0351
     4.7358   4.9754   5.0444   5.3514   5.5267

          k = 0.0000 0.0340 0.0000 ( 29736 PWs)   bands (ev):

   -85.3807 -85.3403 -85.0694 -85.0288 -84.8188 -84.7779 -45.1210 -45.0463
   -44.9246 -44.6969 -44.5497 -44.5383 -44.4806 -44.3088 -44.2741 -44.2410
   -44.2134 -44.1494 -44.0702 -44.0551 -44.0034 -43.9618 -43.8973 -43.8917
    -7.9580  -6.6415  -6.5771  -6.5252  -6.5233  -6.4805  -6.3988  -6.3543
    -6.2765  -6.2552  -6.2218  -6.1850  -6.1672  -6.1545  -6.0211  -5.8918
    -5.8683  -5.8671  -5.8187  -5.8151  -5.8060  -5.7764  -5.7259  -5.7076
    -5.6360  -5.5234  -5.5199  -5.5085  -5.4936  -5.4563  -5.4561  -5.2860
    -4.0885  -3.8652  -3.7003  -3.5341  -3.2805  -3.0862  -2.8637  -2.8549
    -2.6948  -2.2392  -1.8139  -1.5729  -1.5553  -1.3799  -1.2686  -0.4340
    -0.3481  -0.2343  -0.1385   0.2196   0.3016   0.4316   0.5018   0.9037
     0.9407   0.9476   1.3841   1.5562   1.6229   1.9192   2.0691   2.0833
     2.2497   2.3658   2.4689   3.1540   3.3697   3.5022   3.9293   4.1999
     5.0136   5.0915   5.1907   5.6677   5.6843

          k = 0.0000 0.0510 0.0000 ( 29704 PWs)   bands (ev):

   -85.3807 -85.3403 -85.0694 -85.0288 -84.8188 -84.7779 -45.1211 -45.0463
   -44.9246 -44.6969 -44.5500 -44.5383 -44.4805 -44.3088 -44.2741 -44.2411
   -44.2135 -44.1494 -44.0703 -44.0552 -44.0034 -43.9618 -43.8973 -43.8918
    -7.7096  -6.6220  -6.5254  -6.4943  -6.4492  -6.4192  -6.3671  -6.3459
    -6.2363  -6.2148  -6.1828  -6.1265  -6.1247  -6.0856  -6.0223  -5.8645
    -5.8613  -5.8310  -5.8001  -5.7989  -5.7697  -5.7693  -5.7234  -5.6937
    -5.6318  -5.5251  -5.5117  -5.5026  -5.4925  -5.4553  -5.3988  -5.2841
    -4.3578  -3.9627  -3.7580  -3.4642  -3.3610  -3.2275  -3.0786  -2.8255
    -2.6667  -2.2981  -2.0416  -1.7558  -1.7502  -1.6274  -1.4325  -0.8541
    -0.8022  -0.3224  -0.3047  -0.1188   0.3453   0.4668   0.4746   0.4791
     0.8994   0.9969   1.4033   1.5625   1.7607   2.0301   2.0931   2.1196
     2.2010   2.2436   3.0646   3.1541   3.5178   3.8760   4.1532   4.5029
     5.3040   5.3487   5.3517   5.9417   6.1647

          k = 0.0000 0.0681 0.0000 ( 29652 PWs)   bands (ev):

   -85.3807 -85.3402 -85.0694 -85.0288 -84.8188 -84.7779 -45.1212 -45.0463
   -44.9247 -44.6969 -44.5503 -44.5383 -44.4803 -44.3088 -44.2741 -44.2411
   -44.2135 -44.1494 -44.0704 -44.0552 -44.0034 -43.9618 -43.8973 -43.8918
    -7.3860  -6.6048  -6.4918  -6.4382  -6.3987  -6.3785  -6.3414  -6.3191
    -6.2172  -6.1668  -6.1471  -6.0789  -6.0448  -6.0201  -6.0163  -5.8601
    -5.8414  -5.8012  -5.7953  -5.7722  -5.7610  -5.7375  -5.7051  -5.6743
    -5.6167  -5.5216  -5.5056  -5.4978  -5.4883  -5.4542  -5.2815  -5.2630
    -4.7979  -4.0671  -3.6798  -3.5790  -3.3509  -3.3189  -3.2899  -2.7936
    -2.6218  -2.3855  -2.2152  -2.0113  -1.9222  -1.8906  -1.5630  -1.2128
    -1.1455  -0.6622  -0.3747  -0.3666   0.0960   0.3676   0.4563   0.5420
     1.0466   1.0530   1.4611   1.5058   1.8456   1.9895   2.0986   2.1164
     2.2398   2.2407   3.1543   3.5492   3.6794   4.0827   4.4033   4.8616
     5.3414   5.5118   5.9910   6.0888   6.2804

          k = 0.0000 0.0851 0.0000 ( 29654 PWs)   bands (ev):

   -85.3807 -85.3402 -85.0694 -85.0288 -84.8188 -84.7779 -45.1213 -45.0463
   -44.9248 -44.6969 -44.5505 -44.5384 -44.4802 -44.3088 -44.2741 -44.2412
   -44.2135 -44.1494 -44.0705 -44.0552 -44.0035 -43.9618 -43.8973 -43.8918
    -7.0360  -6.5935  -6.4733  -6.4155  -6.3849  -6.3387  -6.3154  -6.2921
    -6.2053  -6.1329  -6.1283  -6.0423  -6.0129  -6.0021  -5.9717  -5.8566
    -5.8399  -5.7923  -5.7901  -5.7542  -5.7292  -5.7214  -5.6873  -5.6478
    -5.5972  -5.5151  -5.5040  -5.4930  -5.4837  -5.4533  -5.2964  -5.2788
    -4.9600  -4.1490  -3.9155  -3.5316  -3.4979  -3.3008  -3.2019  -2.7653
    -2.6017  -2.4614  -2.3357  -2.2865  -2.1878  -1.9598  -1.6246  -1.4493
    -1.3665  -0.8959  -0.5396  -0.3884  -0.1693   0.3786   0.4396   0.6109
     1.0543   1.2029   1.4661   1.4786   1.8715   1.9593   2.0875   2.1003
     2.2402   2.3501   3.1544   3.6439   3.8246   4.2835   4.6957   5.2324
     5.3784   5.5793   6.1656   6.6071   6.6479

          k = 0.0000-0.1021 0.0000 ( 29618 PWs)   bands (ev):

   -85.3807 -85.3402 -85.0694 -85.0288 -84.8188 -84.7778 -45.1213 -45.0463
   -44.9248 -44.6969 -44.5506 -44.5384 -44.4802 -44.3088 -44.2741 -44.2412
   -44.2135 -44.1494 -44.0705 -44.0552 -44.0035 -43.9618 -43.8973 -43.8918
    -6.8324  -6.5916  -6.4667  -6.4568  -6.3635  -6.3223  -6.3012  -6.2801
    -6.2012  -6.1242  -6.1201  -6.0278  -6.0248  -6.0086  -5.9416  -5.8551
    -5.8417  -5.7913  -5.7894  -5.7517  -5.7294  -5.6908  -5.6456  -5.6359
    -5.5870  -5.5127  -5.5106  -5.5038  -5.4910  -5.4818  -5.4528  -5.2774
    -4.8088  -4.1804  -4.1064  -3.5635  -3.4719  -3.2944  -3.1049  -2.7477
    -2.6667  -2.4218  -2.4049  -2.3800  -2.3407  -1.9779  -1.6245  -1.5329
    -1.4619  -0.9762  -0.5925  -0.3624  -0.2949   0.3825   0.4335   0.6397
     1.0500   1.2740   1.4519   1.4594   1.8771   1.9482   2.0825   2.1005
     2.2403   2.4119   3.1545   3.6538   3.8672   4.2375   5.1817   5.2032
     5.2767   5.6917   6.1657   6.6954   7.0504

          k = 0.0157 0.0085 0.0000 ( 29709 PWs)   bands (ev):

   -85.3800 -85.3410 -85.0687 -85.0295 -84.8181 -84.7786 -45.1197 -45.0476
   -44.9138 -44.6863 -44.5482 -44.5276 -44.4819 -44.3076 -44.2856 -44.2421
   -44.2123 -44.1505 -44.0690 -44.0664 -44.0045 -43.9607 -43.9032 -43.8984
    -8.1061  -6.6453  -6.6189  -6.5840  -6.5380  -6.5223  -6.4167  -6.3475
    -6.3336  -6.2815  -6.2483  -6.2234  -6.1903  -6.1865  -6.0121  -5.9172
    -5.8966  -5.8653  -5.8572  -5.8454  -5.8139  -5.7901  -5.7241  -5.7199
    -5.6344  -5.5377  -5.5271  -5.5246  -5.5024  -5.4660  -5.4592  -5.3016
    -4.0362  -3.7833  -3.6359  -3.4152  -3.1173  -2.9855  -2.8773  -2.8399
    -2.6251  -2.1610  -1.4596  -1.4548  -1.2738  -1.1612  -0.9031  -0.4810
    -0.2766  -0.1360   0.2276   0.3288   0.3741   0.5683   0.7094   0.7334
     1.1416   1.2147   1.3684   1.4863   1.5346   1.6201   1.9187   2.0866
     2.2178   2.3648   2.6343   2.9390   2.9632   3.1053   3.2239   4.0561
     4.6538   5.0471   5.0831   5.3362   5.5511

          k = 0.0157 0.0255 0.0000 ( 29712 PWs)   bands (ev):

   -85.3800 -85.3410 -85.0687 -85.0295 -84.8181 -84.7786 -45.1197 -45.0476
   -44.9138 -44.6863 -44.5484 -44.5276 -44.4818 -44.3076 -44.2856 -44.2421
   -44.2123 -44.1505 -44.0691 -44.0665 -44.0045 -43.9607 -43.9032 -43.8984
    -8.0027  -6.6322  -6.5920  -6.5337  -6.5264  -6.4912  -6.4022  -6.3444
    -6.2999  -6.2691  -6.2281  -6.2030  -6.1709  -6.1634  -6.0130  -5.9020
    -5.8784  -5.8637  -5.8402  -5.8324  -5.8086  -5.7888  -5.7213  -5.7158
    -5.6365  -5.5341  -5.5296  -5.5220  -5.5029  -5.4644  -5.4460  -5.3011
    -4.0392  -3.8219  -3.6298  -3.5513  -3.2191  -2.9760  -2.9329  -2.8331
    -2.6426  -2.1906  -1.6697  -1.5053  -1.4549  -1.2602  -1.1452  -0.3425
    -0.2484  -0.1525  -0.1066   0.2422   0.2740   0.4101   0.4420   0.8036
     1.0228   1.1602   1.3930   1.4106   1.6568   1.8113   2.0043   2.1353
     2.1379   2.3543   2.4375   3.0886   3.1804   3.3934   3.5927   4.0319
     4.8659   5.1291   5.2417   5.4942   5.6338

          k = 0.0157 0.0425 0.0000 ( 29701 PWs)   bands (ev):

   -85.3800 -85.3410 -85.0687 -85.0295 -84.8181 -84.7786 -45.1198 -45.0476
   -44.9139 -44.6863 -44.5486 -44.5276 -44.4817 -44.3076 -44.2856 -44.2422
   -44.2123 -44.1505 -44.0692 -44.0665 -44.0045 -43.9607 -43.9032 -43.8984
    -7.8008  -6.6136  -6.5441  -6.5039  -6.4650  -6.4316  -6.3744  -6.3382
    -6.2552  -6.2396  -6.1937  -6.1590  -6.1354  -6.1117  -6.0144  -5.8761
    -5.8607  -5.8463  -5.8290  -5.7987  -5.7914  -5.7856  -5.7208  -5.7026
    -5.6365  -5.5325  -5.5280  -5.5173  -5.5029  -5.4639  -5.4041  -5.3000
    -4.1611  -3.8990  -3.7150  -3.6116  -3.2776  -3.1025  -3.0625  -2.7885
    -2.6467  -2.2518  -1.9147  -1.6763  -1.6396  -1.4524  -1.3332  -0.7302
    -0.5801  -0.2076  -0.2071  -0.0351   0.2704   0.4014   0.4219   0.7446
     0.8192   0.9221   1.4064   1.6493   1.6507   1.8293   2.0238   2.1112
     2.2425   2.3931   2.7544   3.0980   3.5643   3.6287   3.7509   4.2701
     5.1508   5.3246   5.4092   5.8320   5.8821

          k = 0.0157 0.0596 0.0000 ( 29688 PWs)   bands (ev):

   -85.3800 -85.3409 -85.0687 -85.0295 -84.8181 -84.7786 -45.1199 -45.0476
   -44.9140 -44.6863 -44.5490 -44.5277 -44.4816 -44.3076 -44.2856 -44.2423
   -44.2124 -44.1505 -44.0693 -44.0665 -44.0046 -43.9607 -43.9032 -43.8984
    -7.5129  -6.5947  -6.4981  -6.4616  -6.4069  -6.3780  -6.3410  -6.3227
    -6.2322  -6.1904  -6.1552  -6.0956  -6.0839  -6.0405  -6.0142  -5.8565
    -5.8559  -5.8134  -5.8125  -5.7843  -5.7767  -5.7516  -5.7105  -5.6875
    -5.6272  -5.5320  -5.5210  -5.5123  -5.5015  -5.4635  -5.3030  -5.2984
    -4.5399  -3.9972  -3.6887  -3.6116  -3.4049  -3.2308  -3.2004  -2.7519
    -2.6185  -2.3495  -2.0928  -1.8883  -1.8577  -1.7062  -1.4743  -1.1230
    -0.9770  -0.5008  -0.2869  -0.2678   0.2662   0.3541   0.3855   0.5111
     0.9291   1.0017   1.4196   1.5516   1.7962   1.8717   2.0646   2.0722
     2.1452   2.4636   3.1101   3.3327   3.6643   3.7552   4.1265   4.7208
     5.4166   5.4221   5.6570   6.0747   6.1888

          k = 0.0157 0.0766 0.0000 ( 29667 PWs)   bands (ev):

   -85.3800 -85.3409 -85.0687 -85.0295 -84.8181 -84.7786 -45.1200 -45.0476
   -44.9140 -44.6863 -44.5493 -44.5277 -44.4815 -44.3077 -44.2856 -44.2423
   -44.2124 -44.1505 -44.0694 -44.0665 -44.0046 -43.9607 -43.9032 -43.8984
    -7.1686  -6.5787  -6.4731  -6.4019  -6.3905  -6.3403  -6.3131  -6.2940
    -6.2167  -6.1524  -6.1264  -6.0511  -6.0108  -6.0069  -5.9979  -5.8552
    -5.8523  -5.7984  -5.7921  -5.7761  -5.7438  -5.7338  -5.6923  -5.6634
    -5.6097  -5.5264  -5.5164  -5.5081  -5.4981  -5.4631  -5.2963  -5.1686
    -4.9336  -4.0893  -3.7221  -3.6923  -3.5353  -3.2626  -3.2041  -2.7261
    -2.5578  -2.4772  -2.2253  -2.1306  -2.0844  -1.9157  -1.5699  -1.4084
    -1.2445  -0.7881  -0.4747  -0.3086   0.0136   0.3392   0.3589   0.5586
     1.0310   1.1214   1.4329   1.5134   1.8475   1.8699   2.0030   2.0843
     2.1026   2.5559   3.1122   3.5362   3.8285   3.9672   4.5410   5.2610
     5.3256   5.6138   6.0456   6.1699   6.5763

          k = 0.0157 0.0936 0.0000 ( 29600 PWs)   bands (ev):

   -85.3800 -85.3409 -85.0687 -85.0295 -84.8181 -84.7785 -45.1200 -45.0476
   -44.9140 -44.6863 -44.5494 -44.5277 -44.4814 -44.3077 -44.2856 -44.2423
   -44.2124 -44.1505 -44.0694 -44.0665 -44.0046 -43.9607 -43.9032 -43.8984
    -6.8587  -6.5649  -6.4603  -6.4312  -6.3608  -6.3107  -6.2888  -6.2743
    -6.2087  -6.1338  -6.1122  -6.0238  -6.0157  -6.0022  -5.9568  -5.8608
    -5.8496  -5.7916  -5.7878  -5.7733  -5.7320  -5.6941  -5.6602  -5.6427
    -5.5936  -5.5219  -5.5171  -5.5108  -5.4947  -5.4629  -5.4166  -5.2946
    -4.8047  -4.1459  -4.0047  -3.7784  -3.4345  -3.2593  -3.1157  -2.7131
    -2.6040  -2.4686  -2.3489  -2.3271  -2.2526  -1.9955  -1.5918  -1.5585
    -1.4039  -0.9416  -0.5729  -0.3052  -0.1665   0.3202   0.3690   0.6086
     1.0282   1.2267   1.4361   1.5151   1.8623   1.8675   1.9446   2.0876
     2.0918   2.6477   3.1090   3.5413   3.9311   4.0294   5.0861   5.2441
     5.3912   5.7963   6.2093   6.5428   6.7713

          k = 0.0157-0.0936 0.0000 ( 29600 PWs)   bands (ev):

   -85.3800 -85.3409 -85.0687 -85.0295 -84.8181 -84.7785 -45.1200 -45.0476
   -44.9140 -44.6863 -44.5494 -44.5277 -44.4814 -44.3077 -44.2856 -44.2423
   -44.2124 -44.1505 -44.0694 -44.0665 -44.0046 -43.9607 -43.9032 -43.8984
    -6.8587  -6.5649  -6.4603  -6.4312  -6.3608  -6.3107  -6.2888  -6.2743
    -6.2087  -6.1338  -6.1122  -6.0238  -6.0157  -6.0022  -5.9568  -5.8608
    -5.8496  -5.7916  -5.7878  -5.7733  -5.7320  -5.6941  -5.6602  -5.6427
    -5.5936  -5.5219  -5.5171  -5.5108  -5.4947  -5.4629  -5.4166  -5.2946
    -4.8047  -4.1459  -4.0047  -3.7784  -3.4345  -3.2593  -3.1157  -2.7131
    -2.6040  -2.4685  -2.3489  -2.3272  -2.2525  -1.9955  -1.5918  -1.5585
    -1.4039  -0.9416  -0.5729  -0.3052  -0.1665   0.3202   0.3690   0.6086
     1.0282   1.2267   1.4361   1.5152   1.8623   1.8675   1.9446   2.0876
     2.0918   2.6477   3.1090   3.5413   3.9311   4.0294   5.0861   5.2440
     5.3912   5.7963   6.2094   6.5429   6.7712

          k = 0.0157-0.0766 0.0000 ( 29667 PWs)   bands (ev):

   -85.3800 -85.3409 -85.0687 -85.0295 -84.8181 -84.7786 -45.1200 -45.0476
   -44.9140 -44.6863 -44.5493 -44.5277 -44.4815 -44.3077 -44.2856 -44.2423
   -44.2124 -44.1505 -44.0694 -44.0665 -44.0046 -43.9607 -43.9032 -43.8984
    -7.1686  -6.5787  -6.4731  -6.4019  -6.3905  -6.3403  -6.3131  -6.2939
    -6.2167  -6.1525  -6.1264  -6.0511  -6.0108  -6.0069  -5.9979  -5.8552
    -5.8523  -5.7984  -5.7921  -5.7761  -5.7438  -5.7338  -5.6923  -5.6634
    -5.6097  -5.5264  -5.5164  -5.5081  -5.4981  -5.4631  -5.2963  -5.1686
    -4.9336  -4.0893  -3.7221  -3.6923  -3.5354  -3.2626  -3.2041  -2.7261
    -2.5578  -2.4772  -2.2254  -2.1306  -2.0844  -1.9157  -1.5699  -1.4084
    -1.2445  -0.7881  -0.4747  -0.3085   0.0136   0.3392   0.3589   0.5585
     1.0310   1.1214   1.4329   1.5134   1.8475   1.8699   2.0030   2.0843
     2.1026   2.5559   3.1121   3.5362   3.8285   3.9672   4.5410   5.2611
     5.3256   5.6139   6.0456   6.1701   6.5763

          k = 0.0157-0.0596 0.0000 ( 29688 PWs)   bands (ev):

   -85.3800 -85.3409 -85.0687 -85.0295 -84.8181 -84.7786 -45.1199 -45.0476
   -44.9140 -44.6863 -44.5490 -44.5277 -44.4816 -44.3076 -44.2856 -44.2423
   -44.2124 -44.1505 -44.0693 -44.0665 -44.0046 -43.9607 -43.9032 -43.8984
    -7.5129  -6.5947  -6.4981  -6.4616  -6.4069  -6.3780  -6.3410  -6.3227
    -6.2322  -6.1904  -6.1552  -6.0956  -6.0839  -6.0405  -6.0142  -5.8565
    -5.8559  -5.8134  -5.8125  -5.7843  -5.7767  -5.7516  -5.7105  -5.6875
    -5.6272  -5.5320  -5.5210  -5.5123  -5.5015  -5.4635  -5.3030  -5.2984
    -4.5399  -3.9972  -3.6887  -3.6115  -3.4049  -3.2308  -3.2004  -2.7519
    -2.6185  -2.3495  -2.0929  -1.8883  -1.8577  -1.7062  -1.4743  -1.1230
    -0.9770  -0.5008  -0.2869  -0.2678   0.2662   0.3541   0.3855   0.5110
     0.9291   1.0017   1.4195   1.5516   1.7962   1.8717   2.0646   2.0722
     2.1452   2.4636   3.1101   3.3327   3.6643   3.7553   4.1264   4.7208
     5.4166   5.4222   5.6569   6.0743   6.1888

          k = 0.0157-0.0425 0.0000 ( 29701 PWs)   bands (ev):

   -85.3800 -85.3410 -85.0687 -85.0295 -84.8181 -84.7786 -45.1198 -45.0476
   -44.9139 -44.6863 -44.5486 -44.5276 -44.4817 -44.3076 -44.2856 -44.2422
   -44.2123 -44.1505 -44.0692 -44.0665 -44.0045 -43.9607 -43.9032 -43.8984
    -7.8008  -6.6136  -6.5441  -6.5039  -6.4650  -6.4316  -6.3744  -6.3382
    -6.2552  -6.2396  -6.1937  -6.1590  -6.1354  -6.1117  -6.0144  -5.8761
    -5.8607  -5.8463  -5.8290  -5.7987  -5.7914  -5.7856  -5.7208  -5.7026
    -5.6365  -5.5325  -5.5280  -5.5173  -5.5029  -5.4639  -5.4041  -5.3000
    -4.1611  -3.8990  -3.7150  -3.6116  -3.2776  -3.1025  -3.0625  -2.7885
    -2.6467  -2.2518  -1.9148  -1.6763  -1.6397  -1.4524  -1.3332  -0.7302
    -0.5802  -0.2076  -0.2071  -0.0351   0.2705   0.4014   0.4219   0.7446
     0.8192   0.9221   1.4064   1.6493   1.6507   1.8293   2.0238   2.1112
     2.2425   2.3931   2.7544   3.0980   3.5643   3.6287   3.7509   4.2701
     5.1509   5.3246   5.4091   5.8320   5.8821

          k = 0.0157-0.0255 0.0000 ( 29712 PWs)   bands (ev):

   -85.3800 -85.3410 -85.0687 -85.0295 -84.8181 -84.7786 -45.1197 -45.0476
   -44.9138 -44.6863 -44.5484 -44.5276 -44.4818 -44.3076 -44.2856 -44.2421
   -44.2123 -44.1505 -44.0691 -44.0665 -44.0045 -43.9607 -43.9032 -43.8984
    -8.0027  -6.6322  -6.5920  -6.5337  -6.5264  -6.4912  -6.4022  -6.3444
    -6.2999  -6.2691  -6.2282  -6.2030  -6.1709  -6.1634  -6.0130  -5.9020
    -5.8784  -5.8637  -5.8402  -5.8324  -5.8086  -5.7888  -5.7213  -5.7158
    -5.6365  -5.5341  -5.5296  -5.5220  -5.5029  -5.4644  -5.4460  -5.3011
    -4.0392  -3.8219  -3.6298  -3.5513  -3.2191  -2.9760  -2.9329  -2.8331
    -2.6426  -2.1906  -1.6697  -1.5053  -1.4549  -1.2602  -1.1452  -0.3425
    -0.2484  -0.1525  -0.1066   0.2422   0.2741   0.4102   0.4420   0.8036
     1.0227   1.1602   1.3929   1.4106   1.6569   1.8112   2.0043   2.1353
     2.1379   2.3543   2.4375   3.0886   3.1804   3.3934   3.5928   4.0319
     4.8660   5.1292   5.2416   5.4961   5.6338

          k = 0.0157-0.0085 0.0000 ( 29709 PWs)   bands (ev):

   -85.3800 -85.3410 -85.0687 -85.0295 -84.8181 -84.7786 -45.1197 -45.0476
   -44.9138 -44.6863 -44.5482 -44.5276 -44.4819 -44.3076 -44.2856 -44.2421
   -44.2123 -44.1505 -44.0690 -44.0664 -44.0045 -43.9607 -43.9032 -43.8984
    -8.1061  -6.6453  -6.6189  -6.5840  -6.5380  -6.5223  -6.4167  -6.3475
    -6.3336  -6.2815  -6.2483  -6.2234  -6.1903  -6.1865  -6.0121  -5.9172
    -5.8966  -5.8653  -5.8572  -5.8454  -5.8139  -5.7901  -5.7241  -5.7199
    -5.6344  -5.5377  -5.5271  -5.5246  -5.5024  -5.4660  -5.4592  -5.3016
    -4.0362  -3.7833  -3.6359  -3.4152  -3.1173  -2.9855  -2.8773  -2.8399
    -2.6251  -2.1610  -1.4596  -1.4548  -1.2738  -1.1612  -0.9031  -0.4810
    -0.2766  -0.1359   0.2277   0.3287   0.3741   0.5683   0.7094   0.7334
     1.1417   1.2147   1.3684   1.4863   1.5345   1.6201   1.9187   2.0866
     2.2177   2.3648   2.6342   2.9390   2.9633   3.1053   3.2239   4.0561
     4.6538   5.0470   5.0831   5.3362   5.5511

          k = 0.0314 0.0170 0.0000 ( 29726 PWs)   bands (ev):

   -85.3780 -85.3430 -85.0667 -85.0315 -84.8161 -84.7806 -45.1160 -45.0514
   -44.8824 -44.6553 -44.5448 -44.4964 -44.4854 -44.3192 -44.3042 -44.2455
   -44.2091 -44.1537 -44.0996 -44.0657 -44.0079 -43.9575 -43.9366 -43.9016
    -7.9337  -6.5866  -6.5846  -6.5069  -6.4879  -6.4598  -6.3873  -6.3097
    -6.3054  -6.2804  -6.2162  -6.2080  -6.1504  -6.1377  -5.9913  -5.9011
    -5.8790  -5.8779  -5.8473  -5.8383  -5.8321  -5.7967  -5.7257  -5.7154
    -5.6396  -5.5645  -5.5522  -5.5512  -5.5270  -5.4869  -5.4000  -5.3448
    -3.9902  -3.9223  -3.6874  -3.2942  -3.1532  -3.1099  -2.7856  -2.6800
    -2.6778  -2.0863  -1.5173  -1.4514  -1.3267  -1.1318  -0.9829  -0.4066
    -0.3531  -0.1322  -0.1019   0.0679   0.1219   0.3985   0.4463   0.6369
     0.8078   1.0541   1.2136   1.3368   1.5514   1.7255   1.7693   2.1700
     2.3094   2.3869   2.6360   2.8309   2.9589   2.9632   3.5736   3.9376
     4.7855   5.1600   5.4737   5.5213   5.7949

          k = 0.0314 0.0340 0.0000 ( 29717 PWs)   bands (ev):

   -85.3780 -85.3430 -85.0667 -85.0315 -84.8161 -84.7806 -45.1161 -45.0514
   -44.8824 -44.6553 -44.5451 -44.4964 -44.4853 -44.3192 -44.3043 -44.2455
   -44.2091 -44.1537 -44.0996 -44.0658 -44.0079 -43.9575 -43.9366 -43.9016
    -7.7826  -6.5715  -6.5493  -6.4910  -6.4477  -6.4044  -6.3659  -6.2984
    -6.2795  -6.2563  -6.1886  -6.1764  -6.1255  -6.1062  -5.9925  -5.8902
    -5.8698  -5.8546  -5.8442  -5.8232  -5.8077  -5.7953  -5.7148  -5.7138
    -5.6410  -5.5622  -5.5550  -5.5488  -5.5273  -5.4865  -5.3596  -5.3450
    -4.0134  -3.9527  -3.7443  -3.5094  -3.2138  -3.1710  -2.8454  -2.6733
    -2.6470  -2.1714  -1.7466  -1.5594  -1.5318  -1.2576  -1.1874  -0.6747
    -0.4215  -0.3134  -0.1207   0.0379   0.0872   0.2392   0.3706   0.6780
     0.7410   0.9129   1.3802   1.4482   1.6335   1.7282   2.0135   2.1521
     2.1874   2.3677   2.6189   2.9560   3.0830   3.1979   3.8260   3.9052
     5.0301   5.3328   5.6308   5.7959   5.9508

          k = 0.0314 0.0510 0.0000 ( 29706 PWs)   bands (ev):

   -85.3780 -85.3430 -85.0667 -85.0315 -84.8161 -84.7806 -45.1162 -45.0514
   -44.8825 -44.6553 -44.5453 -44.4964 -44.4852 -44.3192 -44.3043 -44.2456
   -44.2091 -44.1537 -44.0996 -44.0659 -44.0079 -43.9575 -43.9366 -43.9017
    -7.5397  -6.5533  -6.4984  -6.4640  -6.4016  -6.3537  -6.3238  -6.2848
    -6.2572  -6.2134  -6.1525  -6.1218  -6.0877  -6.0534  -5.9932  -5.8863
    -5.8492  -5.8417  -5.8221  -5.8115  -5.7867  -5.7704  -5.7076  -5.7014
    -5.6374  -5.5596  -5.5565  -5.5458  -5.5266  -5.4868  -5.3453  -5.2700
    -4.2424  -4.0202  -3.8345  -3.6169  -3.2698  -3.2165  -3.0138  -2.6503
    -2.5970  -2.3109  -1.9294  -1.8041  -1.6976  -1.4678  -1.3322  -1.0877
    -0.7795  -0.4288  -0.2541  -0.1324   0.1642   0.2678   0.3550   0.6416
     0.6985   0.8888   1.3528   1.6112   1.6793   1.6886   1.8872   2.0896
     2.1375   2.6703   2.9412   3.0238   3.3757   3.4360   3.8048   4.2304
     5.2325   5.5123   5.7576   6.0927   6.1037

          k = 0.0314 0.0681 0.0000 ( 29668 PWs)   bands (ev):

   -85.3780 -85.3430 -85.0667 -85.0315 -84.8161 -84.7806 -45.1162 -45.0513
   -44.8826 -44.6553 -44.5457 -44.4965 -44.4850 -44.3192 -44.3043 -44.2457
   -44.2091 -44.1537 -44.0996 -44.0660 -44.0080 -43.9575 -43.9366 -43.9017
    -7.2244  -6.5354  -6.4606  -6.4124  -6.3688  -6.3199  -6.2881  -6.2587
    -6.2400  -6.1752  -6.1202  -6.0566  -6.0428  -6.0032  -5.9903  -5.8935
    -5.8372  -5.8320  -5.7993  -5.7964  -5.7607  -5.7456  -5.6946  -5.6835
    -5.6255  -5.5567  -5.5535  -5.5438  -5.5244  -5.4876  -5.3455  -5.1229
    -4.6525  -4.1238  -3.9437  -3.5681  -3.3508  -3.2615  -3.1325  -2.6049
    -2.5679  -2.4713  -2.0586  -2.0269  -1.9347  -1.7085  -1.4356  -1.3799
    -1.0702  -0.6567  -0.4362  -0.1570   0.1608   0.1698   0.3203   0.5231
     0.9123   0.9565   1.3292   1.5187   1.6707   1.7815   1.8565   2.0532
     2.0712   2.7460   3.0611   3.2507   3.4181   3.9028   4.0735   4.8968
     5.4092   5.5144   5.8856   6.1148   6.2393

          k = 0.0314 0.0851 0.0000 ( 29660 PWs)   bands (ev):

   -85.3780 -85.3430 -85.0667 -85.0315 -84.8161 -84.7806 -45.1163 -45.0513
   -44.8826 -44.6553 -44.5459 -44.4965 -44.4849 -44.3193 -44.3043 -44.2457
   -44.2092 -44.1537 -44.0997 -44.0660 -44.0080 -43.9575 -43.9366 -43.9017
    -6.8886  -6.5160  -6.4414  -6.3757  -6.3553  -6.2925  -6.2573  -6.2365
    -6.2294  -6.1513  -6.1016  -6.0133  -5.9975  -5.9939  -5.9826  -5.9075
    -5.8336  -5.8259  -5.7905  -5.7853  -5.7401  -5.7105  -5.6758  -5.6612
    -5.6102  -5.5565  -5.5490  -5.5441  -5.5197  -5.4886  -5.3455  -5.2161
    -4.7492  -4.2262  -4.0292  -3.7536  -3.3256  -3.1897  -3.1511  -2.6561
    -2.5730  -2.4945  -2.2154  -2.1691  -2.1664  -1.8664  -1.5537  -1.4847
    -1.2541  -0.8547  -0.5336  -0.1708   0.0543   0.0963   0.3280   0.5416
     0.9684   1.0534   1.3185   1.5210   1.6547   1.8168   1.8431   1.9588
     2.0427   2.8599   3.0443   3.2826   3.4798   4.0703   4.9017   5.2776
     5.3849   5.6975   5.9712   6.2895   6.5067

          k = 0.0314 0.1021 0.0000 ( 29610 PWs)   bands (ev):

   -85.3780 -85.3430 -85.0667 -85.0315 -84.8161 -84.7806 -45.1163 -45.0513
   -44.8826 -44.6553 -44.5460 -44.4965 -44.4849 -44.3193 -44.3043 -44.2457
   -44.2092 -44.1537 -44.0997 -44.0660 -44.0080 -43.9575 -43.9366 -43.9017
    -6.7062  -6.4803  -6.4348  -6.4239  -6.3305  -6.2811  -6.2343  -6.2279
    -6.2260  -6.1444  -6.0959  -6.0274  -5.9980  -5.9789  -5.9715  -5.9123
    -5.8322  -5.8258  -5.7879  -5.7837  -5.7405  -5.6893  -5.6514  -5.6106
    -5.6019  -5.5781  -5.5477  -5.5465  -5.5087  -5.4877  -5.4265  -5.3454
    -4.6068  -4.2693  -4.0606  -3.9356  -3.2644  -3.1362  -3.1355  -2.7331
    -2.6015  -2.4031  -2.3440  -2.2634  -2.2172  -1.9126  -1.6129  -1.4854
    -1.3334  -0.9226  -0.5686  -0.1685  -0.0092   0.0781   0.3374   0.5630
     0.9628   1.0865   1.3187   1.5551   1.6601   1.8257   1.8263   1.8959
     2.0417   2.9339   3.0193   3.2759   3.5084   4.1369   5.1605   5.3333
     5.5408   5.9622   6.1049   6.3433   6.4013

          k = 0.0314-0.0851 0.0000 ( 29660 PWs)   bands (ev):

   -85.3780 -85.3430 -85.0667 -85.0315 -84.8161 -84.7806 -45.1163 -45.0513
   -44.8826 -44.6553 -44.5459 -44.4965 -44.4849 -44.3193 -44.3043 -44.2457
   -44.2092 -44.1537 -44.0997 -44.0660 -44.0080 -43.9575 -43.9366 -43.9017
    -6.8885  -6.5160  -6.4414  -6.3757  -6.3553  -6.2925  -6.2573  -6.2365
    -6.2294  -6.1513  -6.1016  -6.0133  -5.9975  -5.9939  -5.9826  -5.9075
    -5.8336  -5.8259  -5.7905  -5.7853  -5.7401  -5.7105  -5.6758  -5.6612
    -5.6102  -5.5564  -5.5490  -5.5441  -5.5197  -5.4886  -5.3455  -5.2161
    -4.7492  -4.2262  -4.0292  -3.7536  -3.3256  -3.1897  -3.1511  -2.6561
    -2.5730  -2.4945  -2.2154  -2.1691  -2.1664  -1.8664  -1.5537  -1.4847
    -1.2541  -0.8547  -0.5336  -0.1708   0.0543   0.0963   0.3280   0.5416
     0.9684   1.0534   1.3185   1.5210   1.6547   1.8168   1.8431   1.9587
     2.0427   2.8599   3.0443   3.2826   3.4798   4.0703   4.9017   5.2777
     5.3849   5.6976   5.9712   6.2897   6.5074

          k = 0.0314-0.0681 0.0000 ( 29668 PWs)   bands (ev):

   -85.3780 -85.3430 -85.0667 -85.0315 -84.8161 -84.7806 -45.1162 -45.0513
   -44.8826 -44.6553 -44.5457 -44.4965 -44.4850 -44.3192 -44.3043 -44.2457
   -44.2091 -44.1537 -44.0996 -44.0660 -44.0080 -43.9575 -43.9366 -43.9017
    -7.2244  -6.5354  -6.4606  -6.4124  -6.3688  -6.3199  -6.2881  -6.2587
    -6.2400  -6.1752  -6.1202  -6.0566  -6.0428  -6.0032  -5.9903  -5.8935
    -5.8372  -5.8320  -5.7993  -5.7964  -5.7607  -5.7456  -5.6946  -5.6835
    -5.6255  -5.5567  -5.5535  -5.5438  -5.5244  -5.4876  -5.3455  -5.1229
    -4.6525  -4.1238  -3.9436  -3.5681  -3.3508  -3.2615  -3.1325  -2.6049
    -2.5679  -2.4714  -2.0585  -2.0270  -1.9347  -1.7085  -1.4356  -1.3799
    -1.0702  -0.6567  -0.4362  -0.1570   0.1607   0.1699   0.3203   0.5231
     0.9124   0.9566   1.3292   1.5187   1.6708   1.7815   1.8565   2.0532
     2.0712   2.7460   3.0611   3.2507   3.4181   3.9028   4.0735   4.8969
     5.4093   5.5144   5.8855   6.1147   6.2393

          k = 0.0314-0.0510 0.0000 ( 29706 PWs)   bands (ev):

   -85.3780 -85.3430 -85.0667 -85.0315 -84.8161 -84.7806 -45.1162 -45.0514
   -44.8825 -44.6553 -44.5453 -44.4964 -44.4852 -44.3192 -44.3043 -44.2456
   -44.2091 -44.1537 -44.0996 -44.0659 -44.0079 -43.9575 -43.9366 -43.9017
    -7.5397  -6.5533  -6.4984  -6.4640  -6.4016  -6.3537  -6.3238  -6.2848
    -6.2572  -6.2134  -6.1525  -6.1218  -6.0877  -6.0534  -5.9932  -5.8863
    -5.8492  -5.8417  -5.8221  -5.8115  -5.7867  -5.7704  -5.7076  -5.7014
    -5.6374  -5.5596  -5.5565  -5.5458  -5.5266  -5.4868  -5.3453  -5.2700
    -4.2424  -4.0202  -3.8344  -3.6169  -3.2699  -3.2165  -3.0138  -2.6503
    -2.5970  -2.3110  -1.9294  -1.8041  -1.6976  -1.4678  -1.3321  -1.0877
    -0.7795  -0.4288  -0.2541  -0.1324   0.1642   0.2678   0.3551   0.6415
     0.6985   0.8888   1.3528   1.6112   1.6793   1.6886   1.8872   2.0895
     2.1375   2.6703   2.9412   3.0238   3.3758   3.4359   3.8048   4.2305
     5.2326   5.5123   5.7575   6.0926   6.1038

          k = 0.0314-0.0340 0.0000 ( 29717 PWs)   bands (ev):

   -85.3780 -85.3430 -85.0667 -85.0315 -84.8161 -84.7806 -45.1161 -45.0514
   -44.8824 -44.6553 -44.5451 -44.4964 -44.4853 -44.3192 -44.3043 -44.2455
   -44.2091 -44.1537 -44.0996 -44.0658 -44.0079 -43.9575 -43.9366 -43.9016
    -7.7826  -6.5715  -6.5493  -6.4910  -6.4477  -6.4044  -6.3659  -6.2984
    -6.2795  -6.2563  -6.1886  -6.1764  -6.1255  -6.1062  -5.9925  -5.8902
    -5.8698  -5.8546  -5.8442  -5.8232  -5.8077  -5.7953  -5.7148  -5.7138
    -5.6410  -5.5622  -5.5550  -5.5488  -5.5273  -5.4865  -5.3596  -5.3450
    -4.0134  -3.9527  -3.7443  -3.5094  -3.2138  -3.1710  -2.8454  -2.6733
    -2.6470  -2.1714  -1.7467  -1.5594  -1.5318  -1.2576  -1.1874  -0.6747
    -0.4215  -0.3134  -0.1207   0.0379   0.0872   0.2392   0.3706   0.6780
     0.7410   0.9129   1.3801   1.4482   1.6336   1.7282   2.0135   2.1521
     2.1874   2.3677   2.6189   2.9560   3.0830   3.1981   3.8260   3.9052
     5.0303   5.3328   5.6307   5.7959   5.9507

          k = 0.0314-0.0170 0.0000 ( 29726 PWs)   bands (ev):

   -85.3780 -85.3430 -85.0667 -85.0315 -84.8161 -84.7806 -45.1160 -45.0514
   -44.8824 -44.6553 -44.5448 -44.4964 -44.4854 -44.3192 -44.3042 -44.2455
   -44.2091 -44.1537 -44.0996 -44.0657 -44.0079 -43.9575 -43.9366 -43.9016
    -7.9337  -6.5866  -6.5846  -6.5069  -6.4879  -6.4598  -6.3873  -6.3097
    -6.3054  -6.2804  -6.2162  -6.2080  -6.1504  -6.1377  -5.9913  -5.9011
    -5.8790  -5.8779  -5.8473  -5.8383  -5.8321  -5.7967  -5.7257  -5.7154
    -5.6396  -5.5645  -5.5522  -5.5512  -5.5270  -5.4869  -5.4000  -5.3448
    -3.9902  -3.9223  -3.6873  -3.2942  -3.1532  -3.1099  -2.7856  -2.6800
    -2.6778  -2.0863  -1.5173  -1.4514  -1.3267  -1.1319  -0.9829  -0.4066
    -0.3531  -0.1321  -0.1018   0.0679   0.1218   0.3985   0.4463   0.6369
     0.8078   1.0541   1.2135   1.3368   1.5514   1.7255   1.7693   2.1700
     2.3094   2.3869   2.6360   2.8309   2.9589   2.9633   3.5736   3.9376
     4.7856   5.1600   5.4737   5.5213   5.7954

          k = 0.0314-0.0000 0.0000 ( 29694 PWs)   bands (ev):

   -85.3780 -85.3430 -85.0667 -85.0315 -84.8161 -84.7806 -45.1160 -45.0514
   -44.8823 -44.6553 -44.5448 -44.4963 -44.4854 -44.3192 -44.3042 -44.2455
   -44.2091 -44.1537 -44.0996 -44.0657 -44.0078 -43.9575 -43.9366 -43.9016
    -7.9849  -6.5967  -6.5930  -6.5125  -6.5065  -6.4787  -6.3942  -6.3244
    -6.3077  -6.2863  -6.2265  -6.2182  -6.1591  -6.1476  -5.9908  -5.9063
    -5.8864  -5.8810  -5.8508  -5.8473  -5.8355  -5.7967  -5.7298  -5.7156
    -5.6384  -5.5656  -5.5520  -5.5509  -5.5268  -5.4872  -5.4112  -5.3447
    -3.9948  -3.9144  -3.6672  -3.2335  -3.1305  -3.0095  -2.8480  -2.6769
    -2.6614  -2.0587  -1.4308  -1.4045  -1.1978  -1.0839  -0.8224  -0.5151
    -0.4086  -0.1571  -0.1214   0.2350   0.3155   0.5064   0.5949   0.6201
     0.8625   0.8798   1.1811   1.2266   1.4499   1.5468   1.7806   2.2187
     2.4087   2.5817   2.7060   2.7593   2.8689   2.9932   3.1951   3.9942
     4.6586   5.1126   5.4355   5.4801   5.5774

          k = 0.0470 0.0255 0.0000 ( 29734 PWs)   bands (ev):

   -85.3748 -85.3462 -85.0635 -85.0348 -84.8128 -84.7839 -45.1101 -45.0574
   -44.8322 -44.6057 -44.5395 -44.4909 -44.4464 -44.3725 -44.2989 -44.2509
   -44.2040 -44.1588 -44.1521 -44.0605 -44.0132 -43.9895 -43.9524 -43.9068
    -7.6572  -6.5348  -6.5035  -6.4577  -6.4124  -6.3540  -6.3148  -6.2991
    -6.2621  -6.2245  -6.1839  -6.1629  -6.0967  -6.0735  -5.9593  -5.9284
    -5.8930  -5.8571  -5.8522  -5.8202  -5.8118  -5.7919  -5.7286  -5.7079
    -5.6478  -5.6077  -5.5934  -5.5926  -5.5617  -5.5211  -5.4184  -5.2784
    -4.2641  -3.9142  -3.6588  -3.4636  -3.1804  -3.0264  -2.7940  -2.5067
    -2.3795  -2.0796  -1.5583  -1.4678  -1.3992  -1.0790  -1.0148  -0.6634
    -0.5977  -0.2388  -0.1982  -0.1188  -0.0776   0.1263   0.3657   0.4486
     0.5237   0.7301   1.1055   1.1485   1.4715   1.7997   1.8340   1.8800
     2.2868   2.3840   2.4525   2.6711   2.8225   2.9300   3.6623   4.2055
     4.9411   5.3590   5.7166   5.7694   6.0856

          k = 0.0470 0.0425 0.0000 ( 29731 PWs)   bands (ev):

   -85.3748 -85.3462 -85.0635 -85.0348 -84.8128 -84.7839 -45.1102 -45.0574
   -44.8322 -44.6058 -44.5397 -44.4908 -44.4465 -44.3725 -44.2989 -44.2510
   -44.2040 -44.1588 -44.1521 -44.0606 -44.0133 -43.9895 -43.9524 -43.9068
    -7.4659  -6.4967  -6.4889  -6.4397  -6.3820  -6.3326  -6.2833  -6.2605
    -6.2299  -6.2110  -6.1486  -6.1292  -6.0694  -6.0475  -5.9604  -5.9301
    -5.8898  -5.8355  -5.8293  -5.8139  -5.7879  -5.7852  -5.7172  -5.7030
    -5.6471  -5.6089  -5.5955  -5.5911  -5.5602  -5.5214  -5.4210  -5.1905
    -4.3731  -3.9834  -3.7375  -3.4654  -3.4263  -3.0444  -2.7562  -2.6202
    -2.3404  -2.2789  -1.7251  -1.6512  -1.5698  -1.2199  -1.1561  -1.0099
    -0.7289  -0.4981  -0.1620  -0.1549  -0.0102   0.1104   0.3518   0.4456
     0.6002   0.7161   1.1385   1.4682   1.4684   1.6986   1.8381   2.0082
     2.3194   2.4119   2.5646   2.6483   2.9262   3.0974   3.7428   4.1287
     5.2351   5.6204   5.7043   5.9855   6.1940

          k = 0.0470 0.0596 0.0000 ( 29695 PWs)   bands (ev):

   -85.3748 -85.3462 -85.0635 -85.0347 -84.8128 -84.7839 -45.1103 -45.0573
   -44.8323 -44.6058 -44.5400 -44.4906 -44.4465 -44.3724 -44.2989 -44.2511
   -44.2041 -44.1588 -44.1521 -44.0606 -44.0133 -43.9895 -43.9524 -43.9068
    -7.1949  -6.4731  -6.4454  -6.4111  -6.3507  -6.3065  -6.2684  -6.2177
    -6.1969  -6.1871  -6.1159  -6.0795  -6.0328  -6.0173  -5.9592  -5.9357
    -5.8847  -5.8149  -5.8141  -5.7992  -5.7730  -5.7609  -5.7039  -5.6943
    -5.6408  -5.6116  -5.5950  -5.5912  -5.5560  -5.5225  -5.4247  -5.0494
    -4.5228  -4.2870  -3.8363  -3.4654  -3.4300  -3.0839  -2.8167  -2.6989
    -2.5054  -2.2928  -1.9161  -1.8439  -1.7450  -1.4456  -1.2661  -1.2521
    -0.9012  -0.6326  -0.4111  -0.1018   0.0455   0.0462   0.3212   0.5273
     0.6090   0.8286   1.1170   1.4487   1.5710   1.6518   1.7756   1.8299
     2.2193   2.5728   2.6438   2.9896   3.2723   3.3053   4.0385   4.3210
     5.2331   5.6155   5.7331   6.0930   6.3916

          k = 0.0470 0.0766 0.0000 ( 29658 PWs)   bands (ev):

   -85.3748 -85.3462 -85.0635 -85.0347 -84.8128 -84.7839 -45.1104 -45.0573
   -44.8323 -44.6058 -44.5403 -44.4905 -44.4466 -44.3724 -44.2989 -44.2511
   -44.2041 -44.1588 -44.1521 -44.0607 -44.0133 -43.9895 -43.9524 -43.9068
    -6.8763  -6.4582  -6.4121  -6.3558  -6.3318  -6.2808  -6.2576  -6.1947
    -6.1731  -6.1596  -6.0989  -6.0294  -5.9991  -5.9951  -5.9543  -5.9525
    -5.8820  -5.8097  -5.7979  -5.7846  -5.7522  -5.7377  -5.6863  -5.6821
    -5.6303  -5.6152  -5.5940  -5.5919  -5.5457  -5.5240  -5.4289  -4.9922
    -4.6693  -4.5542  -3.9256  -3.4939  -3.3598  -3.1217  -2.9357  -2.7412
    -2.5930  -2.2920  -2.1256  -1.9676  -1.9464  -1.6084  -1.4308  -1.3059
    -1.0643  -0.7676  -0.5326  -0.0790  -0.0561   0.0741   0.2900   0.4991
     0.7630   0.8757   1.0524   1.3915   1.5029   1.7211   1.7263   1.8265
     2.0828   2.6514   2.7300   3.0242   3.2849   4.1734   4.2027   5.0537
     5.2726   5.4649   5.6401   6.0786   6.4374

          k = 0.0470 0.0936 0.0000 ( 29671 PWs)   bands (ev):

   -85.3748 -85.3462 -85.0635 -85.0347 -84.8128 -84.7839 -45.1104 -45.0573
   -44.8324 -44.6058 -44.5404 -44.4904 -44.4466 -44.3724 -44.2989 -44.2511
   -44.2041 -44.1588 -44.1521 -44.0607 -44.0133 -43.9895 -43.9524 -43.9068
    -6.6063  -6.4360  -6.3982  -6.3411  -6.3018  -6.2646  -6.2545  -6.1698
    -6.1644  -6.1457  -6.0960  -6.0180  -5.9993  -5.9780  -5.9688  -5.9446
    -5.8821  -5.8071  -5.7898  -5.7799  -5.7526  -5.6956  -5.6731  -5.6568
    -5.6209  -5.6199  -5.5992  -5.5914  -5.5278  -5.5059  -5.4318  -5.2566
    -4.7601  -4.4243  -3.9786  -3.7013  -3.2845  -3.0543  -2.9346  -2.8912
    -2.4819  -2.3801  -2.3065  -2.0465  -2.0377  -1.6734  -1.5266  -1.3196
    -1.1611  -0.8785  -0.5581  -0.1161  -0.0772   0.0662   0.2912   0.5098
     0.8380   0.8722   0.9978   1.3400   1.4950   1.7612   1.7912   1.8184
     1.9311   2.6888   2.7975   3.0284   3.2738   4.3788   5.0566   5.1559
     5.3255   5.5000   5.8475   6.0904   6.5919

          k = 0.0470 0.1106 0.0000 ( 29671 PWs)   bands (ev):

   -85.3748 -85.3462 -85.0635 -85.0347 -84.8128 -84.7839 -45.1104 -45.0573
   -44.8324 -44.6058 -44.5404 -44.4904 -44.4466 -44.3724 -44.2989 -44.2511
   -44.2041 -44.1588 -44.1521 -44.0607 -44.0133 -43.9895 -43.9524 -43.9068
    -6.6063  -6.4360  -6.3982  -6.3411  -6.3018  -6.2646  -6.2545  -6.1698
    -6.1644  -6.1457  -6.0960  -6.0180  -5.9993  -5.9780  -5.9688  -5.9446
    -5.8821  -5.8071  -5.7898  -5.7799  -5.7526  -5.6956  -5.6731  -5.6568
    -5.6209  -5.6199  -5.5992  -5.5914  -5.5278  -5.5059  -5.4318  -5.2566
    -4.7601  -4.4243  -3.9786  -3.7013  -3.2844  -3.0543  -2.9346  -2.8912
    -2.4820  -2.3801  -2.3065  -2.0465  -2.0377  -1.6735  -1.5266  -1.3196
    -1.1611  -0.8785  -0.5581  -0.1161  -0.0772   0.0662   0.2912   0.5098
     0.8380   0.8722   0.9978   1.3400   1.4950   1.7612   1.7912   1.8184
     1.9310   2.6888   2.7976   3.0285   3.2737   4.3788   5.0567   5.1559
     5.3256   5.5000   5.8475   6.0904   6.5920

          k = 0.0470-0.0766 0.0000 ( 29658 PWs)   bands (ev):

   -85.3748 -85.3462 -85.0635 -85.0347 -84.8128 -84.7839 -45.1104 -45.0573
   -44.8323 -44.6058 -44.5403 -44.4905 -44.4466 -44.3724 -44.2989 -44.2511
   -44.2041 -44.1588 -44.1521 -44.0607 -44.0133 -43.9895 -43.9524 -43.9068
    -6.8763  -6.4582  -6.4121  -6.3558  -6.3318  -6.2808  -6.2576  -6.1947
    -6.1731  -6.1596  -6.0989  -6.0294  -5.9991  -5.9951  -5.9543  -5.9525
    -5.8820  -5.8097  -5.7979  -5.7846  -5.7522  -5.7377  -5.6863  -5.6821
    -5.6303  -5.6152  -5.5940  -5.5919  -5.5457  -5.5240  -5.4289  -4.9922
    -4.6693  -4.5542  -3.9256  -3.4939  -3.3598  -3.1218  -2.9357  -2.7412
    -2.5930  -2.2920  -2.1256  -1.9676  -1.9464  -1.6084  -1.4308  -1.3059
    -1.0643  -0.7676  -0.5325  -0.0790  -0.0562   0.0741   0.2900   0.4991
     0.7630   0.8758   1.0524   1.3915   1.5029   1.7211   1.7263   1.8265
     2.0828   2.6514   2.7300   3.0243   3.2848   4.1735   4.2028   5.0538
     5.2727   5.4650   5.6401   6.0786   6.4376

          k = 0.0470-0.0596 0.0000 ( 29695 PWs)   bands (ev):

   -85.3748 -85.3462 -85.0635 -85.0347 -84.8128 -84.7839 -45.1103 -45.0573
   -44.8323 -44.6058 -44.5400 -44.4906 -44.4465 -44.3724 -44.2989 -44.2511
   -44.2041 -44.1588 -44.1521 -44.0606 -44.0133 -43.9895 -43.9524 -43.9068
    -7.1949  -6.4731  -6.4454  -6.4111  -6.3507  -6.3065  -6.2684  -6.2177
    -6.1969  -6.1871  -6.1159  -6.0795  -6.0328  -6.0173  -5.9592  -5.9357
    -5.8846  -5.8149  -5.8141  -5.7992  -5.7730  -5.7609  -5.7039  -5.6943
    -5.6408  -5.6116  -5.5950  -5.5912  -5.5560  -5.5226  -5.4247  -5.0494
    -4.5228  -4.2870  -3.8363  -3.4654  -3.4300  -3.0839  -2.8167  -2.6989
    -2.5054  -2.2928  -1.9161  -1.8439  -1.7450  -1.4456  -1.2661  -1.2521
    -0.9013  -0.6326  -0.4111  -0.1018   0.0456   0.0462   0.3212   0.5272
     0.6091   0.8286   1.1170   1.4488   1.5710   1.6518   1.7756   1.8299
     2.2193   2.5728   2.6438   2.9897   3.2724   3.3053   4.0385   4.3210
     5.2332   5.6155   5.7331   6.0930   6.3917

          k = 0.0470-0.0425 0.0000 ( 29731 PWs)   bands (ev):

   -85.3748 -85.3462 -85.0635 -85.0348 -84.8128 -84.7839 -45.1102 -45.0574
   -44.8322 -44.6058 -44.5397 -44.4908 -44.4465 -44.3725 -44.2989 -44.2510
   -44.2040 -44.1588 -44.1521 -44.0606 -44.0133 -43.9895 -43.9524 -43.9068
    -7.4659  -6.4967  -6.4889  -6.4397  -6.3820  -6.3326  -6.2833  -6.2605
    -6.2299  -6.2110  -6.1486  -6.1292  -6.0694  -6.0475  -5.9604  -5.9301
    -5.8898  -5.8355  -5.8293  -5.8139  -5.7880  -5.7852  -5.7172  -5.7030
    -5.6471  -5.6089  -5.5955  -5.5911  -5.5602  -5.5214  -5.4210  -5.1905
    -4.3731  -3.9834  -3.7376  -3.4654  -3.4263  -3.0445  -2.7562  -2.6202
    -2.3404  -2.2789  -1.7251  -1.6512  -1.5698  -1.2199  -1.1561  -1.0099
    -0.7289  -0.4981  -0.1619  -0.1550  -0.0102   0.1104   0.3518   0.4456
     0.6002   0.7161   1.1385   1.4683   1.4684   1.6986   1.8381   2.0081
     2.3194   2.4119   2.5646   2.6483   2.9263   3.0975   3.7429   4.1287
     5.2353   5.6204   5.7043   5.9855   6.1940

          k = 0.0470-0.0255 0.0000 ( 29734 PWs)   bands (ev):

   -85.3748 -85.3462 -85.0635 -85.0348 -84.8128 -84.7839 -45.1101 -45.0574
   -44.8322 -44.6057 -44.5395 -44.4909 -44.4464 -44.3725 -44.2989 -44.2509
   -44.2040 -44.1588 -44.1521 -44.0605 -44.0132 -43.9895 -43.9524 -43.9068
    -7.6572  -6.5348  -6.5035  -6.4577  -6.4124  -6.3540  -6.3148  -6.2991
    -6.2621  -6.2245  -6.1839  -6.1629  -6.0967  -6.0735  -5.9593  -5.9284
    -5.8930  -5.8571  -5.8522  -5.8202  -5.8118  -5.7919  -5.7286  -5.7079
    -5.6478  -5.6077  -5.5934  -5.5926  -5.5617  -5.5211  -5.4184  -5.2785
    -4.2640  -3.9142  -3.6588  -3.4636  -3.1805  -3.0264  -2.7940  -2.5067
    -2.3795  -2.0795  -1.5584  -1.4679  -1.3992  -1.0790  -1.0147  -0.6634
    -0.5977  -0.2388  -0.1983  -0.1188  -0.0775   0.1263   0.3657   0.4486
     0.5237   0.7301   1.1055   1.1485   1.4716   1.7997   1.8340   1.8800
     2.2868   2.3841   2.4525   2.6711   2.8225   2.9300   3.6623   4.2055
     4.9412   5.3590   5.7166   5.7693   6.0861

          k = 0.0470-0.0085 0.0000 ( 29746 PWs)   bands (ev):

   -85.3748 -85.3462 -85.0635 -85.0348 -84.8128 -84.7839 -45.1101 -45.0574
   -44.8321 -44.6057 -44.5393 -44.4910 -44.4464 -44.3725 -44.2989 -44.2509
   -44.2040 -44.1588 -44.1521 -44.0605 -44.0132 -43.9895 -43.9524 -43.9068
    -7.7555  -6.5531  -6.5130  -6.4672  -6.4306  -6.3699  -6.3472  -6.3123
    -6.2798  -6.2312  -6.2035  -6.1809  -6.1110  -6.0870  -5.9585  -5.9279
    -5.8910  -5.8735  -5.8664  -5.8334  -5.8187  -5.7924  -5.7358  -5.7099
    -5.6467  -5.6078  -5.5940  -5.5914  -5.5620  -5.5214  -5.4171  -5.3171
    -4.2113  -3.9233  -3.6182  -3.4480  -3.0267  -2.9263  -2.8122  -2.5757
    -2.3377  -1.9646  -1.4269  -1.4149  -1.1816  -1.0123  -0.8864  -0.5686
    -0.4535  -0.3441  -0.1758  -0.0300  -0.0253   0.3061   0.3374   0.5039
     0.5071   0.6846   0.8762   1.0347   1.3456   1.4673   1.8222   1.9140
     2.2759   2.3693   2.5785   2.7070   2.8728   3.2548   3.7462   3.7490
     4.6604   5.2706   5.5897   5.7739   5.9608

          k = 0.0470 0.0085 0.0000 ( 29746 PWs)   bands (ev):

   -85.3748 -85.3462 -85.0635 -85.0348 -84.8128 -84.7839 -45.1101 -45.0574
   -44.8321 -44.6057 -44.5393 -44.4910 -44.4464 -44.3725 -44.2989 -44.2509
   -44.2040 -44.1588 -44.1521 -44.0605 -44.0132 -43.9895 -43.9524 -43.9068
    -7.7555  -6.5531  -6.5130  -6.4672  -6.4306  -6.3699  -6.3472  -6.3123
    -6.2798  -6.2312  -6.2035  -6.1809  -6.1110  -6.0870  -5.9585  -5.9279
    -5.8910  -5.8735  -5.8664  -5.8334  -5.8187  -5.7924  -5.7358  -5.7099
    -5.6467  -5.6078  -5.5940  -5.5914  -5.5620  -5.5214  -5.4171  -5.3171
    -4.2113  -3.9233  -3.6182  -3.4480  -3.0267  -2.9263  -2.8122  -2.5757
    -2.3377  -1.9646  -1.4268  -1.4149  -1.1816  -1.0123  -0.8864  -0.5685
    -0.4535  -0.3442  -0.1758  -0.0300  -0.0253   0.3061   0.3374   0.5040
     0.5071   0.6846   0.8762   1.0347   1.3456   1.4672   1.8222   1.9140
     2.2758   2.3693   2.5785   2.7070   2.8728   3.2549   3.7462   3.7490
     4.6603   5.2706   5.5897   5.7739   5.9607

          k = 0.0627 0.0340 0.0000 ( 29738 PWs)   bands (ev):

   -85.3706 -85.3504 -85.0593 -85.0390 -84.8086 -84.7881 -45.1025 -45.0652
   -44.7663 -44.5408 -44.5324 -44.4981 -44.4413 -44.3810 -44.2919 -44.2580
   -44.2202 -44.1973 -44.1654 -44.0580 -44.0535 -44.0202 -43.9458 -43.9135
    -7.2973  -6.4840  -6.4166  -6.3949  -6.3474  -6.3047  -6.2997  -6.2383
    -6.1841  -6.1511  -6.1091  -6.1030  -6.0370  -6.0242  -5.9686  -5.9281
    -5.9205  -5.8404  -5.8264  -5.7957  -5.7842  -5.7792  -5.7318  -5.7010
    -5.6669  -5.6626  -5.6437  -5.6416  -5.5952  -5.5645  -5.5226  -5.0664
    -4.7253  -3.8130  -3.7937  -3.5797  -3.1673  -2.9164  -2.7980  -2.2451
    -2.2191  -1.9816  -1.5540  -1.4741  -1.4671  -1.0354  -0.9981  -0.8527
    -0.8383  -0.4890  -0.3530  -0.2407  -0.1342  -0.0024   0.2000   0.2359
     0.3566   0.4955   0.8342   1.1527   1.3465   1.3631   1.7439   1.8190
     1.9656   2.2540   2.3808   2.5054   2.9014   3.2672   3.3859   4.6326
     5.0185   5.6479   5.7251   6.0557   6.1213

          k = 0.0627 0.0510 0.0000 ( 29721 PWs)   bands (ev):

   -85.3706 -85.3504 -85.0593 -85.0390 -84.8086 -84.7881 -45.1025 -45.0652
   -44.7664 -44.5408 -44.5327 -44.4979 -44.4413 -44.3810 -44.2919 -44.2581
   -44.2202 -44.1973 -44.1654 -44.0580 -44.0535 -44.0202 -43.9458 -43.9135
    -7.0830  -6.4527  -6.4046  -6.3782  -6.3270  -6.2933  -6.2821  -6.2142
    -6.1464  -6.1240  -6.0939  -6.0721  -6.0221  -6.0106  -5.9678  -5.9266
    -5.9204  -5.8248  -5.8081  -5.7826  -5.7773  -5.7683  -5.7229  -5.6946
    -5.6681  -5.6640  -5.6436  -5.6419  -5.5875  -5.5647  -5.5303  -4.9311
    -4.8975  -3.9459  -3.8483  -3.5591  -3.3170  -2.8350  -2.8348  -2.5175
    -2.3585  -1.9607  -1.7473  -1.6443  -1.5717  -1.1968  -1.0564  -1.0449
    -0.8638  -0.6426  -0.3791  -0.2988  -0.0541  -0.0400   0.1890   0.3209
     0.3878   0.6457   0.8459   1.2824   1.3657   1.4757   1.6708   1.8009
     1.9424   2.3366   2.5030   2.5530   2.7469   3.5562   3.6652   4.3220
     5.2271   5.5955   5.8161   5.9409   6.5665

          k = 0.0627 0.0681 0.0000 ( 29705 PWs)   bands (ev):

   -85.3706 -85.3504 -85.0593 -85.0390 -84.8086 -84.7881 -45.1026 -45.0651
   -44.7664 -44.5408 -44.5329 -44.4978 -44.4413 -44.3811 -44.2919 -44.2581
   -44.2202 -44.1973 -44.1654 -44.0580 -44.0536 -44.0202 -43.9458 -43.9135
    -6.8127  -6.4037  -6.3933  -6.3575  -6.3070  -6.2806  -6.2623  -6.1941
    -6.1214  -6.1140  -6.0711  -6.0363  -6.0240  -5.9760  -5.9730  -5.9245
    -5.9148  -5.8098  -5.7955  -5.7776  -5.7599  -5.7573  -5.7124  -5.6874
    -5.6757  -5.6596  -5.6470  -5.6395  -5.5748  -5.5586  -5.5412  -5.0647
    -4.8135  -4.2098  -3.9480  -3.4806  -3.3305  -2.8545  -2.8200  -2.6945
    -2.5485  -1.9573  -1.9146  -1.7534  -1.7137  -1.3445  -1.1995  -1.0959
    -0.9026  -0.7286  -0.5322  -0.2075  -0.1029  -0.0313   0.1790   0.4016
     0.4206   0.7442   0.8009   1.1947   1.4051   1.4449   1.6314   1.7791
     1.8283   2.1841   2.5814   2.7031   3.3418   3.6525   4.3160   4.4022
     4.9500   5.4721   5.9618   6.3333   6.5291

          k = 0.0627 0.0851 0.0000 ( 29673 PWs)   bands (ev):

   -85.3706 -85.3504 -85.0593 -85.0390 -84.8086 -84.7881 -45.1027 -45.0651
   -44.7665 -44.5408 -44.5331 -44.4976 -44.4413 -44.3811 -44.2919 -44.2582
   -44.2202 -44.1973 -44.1654 -44.0580 -44.0536 -44.0202 -43.9457 -43.9135
    -6.5419  -6.3852  -6.3598  -6.3298  -6.2935  -6.2625  -6.2467  -6.1858
    -6.1291  -6.1101  -6.0483  -6.0292  -6.0095  -5.9978  -5.9409  -5.9228
    -5.9033  -5.7973  -5.7924  -5.7773  -5.7524  -5.7348  -5.7023  -5.6859
    -5.6773  -5.6557  -5.6521  -5.6375  -5.5722  -5.5526  -5.5079  -5.1843
    -4.9583  -4.2146  -4.0300  -3.4354  -3.3874  -3.0116  -2.8176  -2.6326
    -2.6079  -2.1259  -2.0035  -1.8198  -1.7633  -1.4131  -1.3147  -1.1169
    -0.9664  -0.8216  -0.5647  -0.1584  -0.1541  -0.0115   0.1844   0.4246
     0.4954   0.7027   0.7580   1.1342   1.2438   1.4286   1.6842   1.8068
     1.8549   2.0352   2.6682   2.7345   3.5766   4.2009   4.5779   4.7155
     5.2179   5.4777   5.7805   6.0261   6.6969

          k = 0.0627 0.1021 0.0000 ( 29692 PWs)   bands (ev):

   -85.3706 -85.3504 -85.0593 -85.0390 -84.8086 -84.7881 -45.1027 -45.0651
   -44.7665 -44.5408 -44.5332 -44.4976 -44.4412 -44.3811 -44.2919 -44.2582
   -44.2202 -44.1973 -44.1654 -44.0580 -44.0537 -44.0202 -43.9457 -43.9135
    -6.4064  -6.3804  -6.3483  -6.3115  -6.2907  -6.2429  -6.2377  -6.1958
    -6.1434  -6.1006  -6.0452  -6.0315  -6.0238  -6.0001  -5.9243  -5.9220
    -5.8970  -5.7943  -5.7921  -5.7771  -5.7509  -5.7219  -5.6987  -5.6893
    -5.6726  -5.6551  -5.6534  -5.6380  -5.5727  -5.5578  -5.4285  -5.2270
    -5.1496  -4.1024  -4.0611  -3.5571  -3.3257  -3.1139  -2.7891  -2.6150
    -2.5481  -2.2060  -2.1045  -1.8413  -1.7485  -1.4238  -1.3671  -1.1189
    -0.9853  -0.8877  -0.5472  -0.1757  -0.1502  -0.0011   0.1940   0.4391
     0.5414   0.6311   0.7470   1.1053   1.1846   1.4369   1.6912   1.8710
     1.8928   1.9196   2.7019   2.7441   3.5475   4.6258   4.7200   4.9813
     5.1912   5.4220   5.6637   6.2131   6.5985

          k = 0.0627 0.1191 0.0000 ( 29673 PWs)   bands (ev):

   -85.3706 -85.3504 -85.0593 -85.0390 -84.8086 -84.7881 -45.1027 -45.0651
   -44.7665 -44.5408 -44.5331 -44.4976 -44.4413 -44.3811 -44.2919 -44.2582
   -44.2202 -44.1973 -44.1654 -44.0580 -44.0536 -44.0202 -43.9457 -43.9135
    -6.5419  -6.3852  -6.3598  -6.3298  -6.2935  -6.2625  -6.2467  -6.1858
    -6.1291  -6.1101  -6.0483  -6.0293  -6.0095  -5.9978  -5.9409  -5.9228
    -5.9033  -5.7973  -5.7924  -5.7773  -5.7524  -5.7348  -5.7023  -5.6859
    -5.6773  -5.6557  -5.6521  -5.6375  -5.5722  -5.5526  -5.5079  -5.1843
    -4.9583  -4.2146  -4.0300  -3.4354  -3.3874  -3.0116  -2.8176  -2.6327
    -2.6079  -2.1259  -2.0035  -1.8198  -1.7633  -1.4132  -1.3146  -1.1169
    -0.9665  -0.8216  -0.5647  -0.1584  -0.1541  -0.0114   0.1844   0.4245
     0.4954   0.7027   0.7580   1.1343   1.2438   1.4286   1.6843   1.8068
     1.8549   2.0351   2.6683   2.7345   3.5766   4.2009   4.5780   4.7155
     5.2179   5.4778   5.7805   6.0261   6.6968

          k = 0.0627-0.0681 0.0000 ( 29705 PWs)   bands (ev):

   -85.3706 -85.3504 -85.0593 -85.0390 -84.8086 -84.7881 -45.1026 -45.0651
   -44.7664 -44.5408 -44.5329 -44.4978 -44.4413 -44.3811 -44.2919 -44.2581
   -44.2202 -44.1973 -44.1654 -44.0580 -44.0536 -44.0202 -43.9458 -43.9135
    -6.8127  -6.4037  -6.3933  -6.3575  -6.3070  -6.2806  -6.2623  -6.1941
    -6.1214  -6.1140  -6.0711  -6.0363  -6.0240  -5.9760  -5.9730  -5.9245
    -5.9148  -5.8098  -5.7955  -5.7776  -5.7599  -5.7573  -5.7124  -5.6874
    -5.6757  -5.6596  -5.6470  -5.6395  -5.5748  -5.5586  -5.5412  -5.0647
    -4.8136  -4.2098  -3.9480  -3.4806  -3.3305  -2.8545  -2.8200  -2.6945
    -2.5485  -1.9572  -1.9146  -1.7534  -1.7137  -1.3446  -1.1995  -1.0959
    -0.9027  -0.7285  -0.5321  -0.2076  -0.1029  -0.0313   0.1790   0.4016
     0.4206   0.7442   0.8009   1.1947   1.4050   1.4449   1.6314   1.7791
     1.8283   2.1841   2.5815   2.7032   3.3418   3.6525   4.3160   4.4022
     4.9501   5.4722   5.9618   6.3333   6.5291

          k = 0.0627-0.0510 0.0000 ( 29721 PWs)   bands (ev):

   -85.3706 -85.3504 -85.0593 -85.0390 -84.8086 -84.7881 -45.1025 -45.0652
   -44.7664 -44.5408 -44.5327 -44.4979 -44.4413 -44.3810 -44.2919 -44.2581
   -44.2202 -44.1973 -44.1654 -44.0580 -44.0535 -44.0202 -43.9458 -43.9135
    -7.0830  -6.4527  -6.4046  -6.3782  -6.3270  -6.2933  -6.2821  -6.2142
    -6.1464  -6.1240  -6.0939  -6.0721  -6.0221  -6.0106  -5.9678  -5.9266
    -5.9204  -5.8248  -5.8081  -5.7826  -5.7773  -5.7683  -5.7230  -5.6945
    -5.6681  -5.6640  -5.6436  -5.6419  -5.5875  -5.5647  -5.5303  -4.9311
    -4.8975  -3.9459  -3.8483  -3.5590  -3.3171  -2.8350  -2.8348  -2.5175
    -2.3586  -1.9607  -1.7473  -1.6443  -1.5717  -1.1969  -1.0564  -1.0449
    -0.8638  -0.6427  -0.3791  -0.2989  -0.0541  -0.0400   0.1890   0.3209
     0.3878   0.6458   0.8459   1.2825   1.3657   1.4757   1.6708   1.8009
     1.9423   2.3366   2.5031   2.5531   2.7469   3.5562   3.6653   4.3220
     5.2273   5.5956   5.8160   5.9412   6.5667

          k = 0.0627-0.0340 0.0000 ( 29738 PWs)   bands (ev):

   -85.3706 -85.3504 -85.0593 -85.0390 -84.8086 -84.7881 -45.1025 -45.0652
   -44.7663 -44.5408 -44.5324 -44.4981 -44.4413 -44.3810 -44.2919 -44.2580
   -44.2202 -44.1973 -44.1654 -44.0580 -44.0535 -44.0202 -43.9458 -43.9135
    -7.2973  -6.4840  -6.4166  -6.3949  -6.3474  -6.3047  -6.2997  -6.2383
    -6.1841  -6.1511  -6.1091  -6.1030  -6.0370  -6.0242  -5.9686  -5.9281
    -5.9205  -5.8404  -5.8264  -5.7957  -5.7842  -5.7792  -5.7318  -5.7010
    -5.6669  -5.6626  -5.6437  -5.6416  -5.5952  -5.5645  -5.5226  -5.0664
    -4.7252  -3.8130  -3.7937  -3.5797  -3.1673  -2.9164  -2.7981  -2.2451
    -2.2191  -1.9815  -1.5540  -1.4741  -1.4671  -1.0355  -0.9981  -0.8528
    -0.8384  -0.4890  -0.3531  -0.2407  -0.1342  -0.0024   0.2000   0.2359
     0.3565   0.4956   0.8342   1.1527   1.3465   1.3631   1.7439   1.8190
     1.9656   2.2540   2.3808   2.5054   2.9013   3.2672   3.3860   4.6326
     5.0186   5.6480   5.7251   6.0556   6.1209

          k = 0.0627-0.0170 0.0000 ( 29746 PWs)   bands (ev):

   -85.3706 -85.3504 -85.0593 -85.0390 -84.8086 -84.7881 -45.1024 -45.0652
   -44.7663 -44.5407 -44.5322 -44.4982 -44.4413 -44.3810 -44.2920 -44.2580
   -44.2202 -44.1973 -44.1654 -44.0580 -44.0534 -44.0202 -43.9458 -43.9135
    -7.4324  -6.4975  -6.4262  -6.4055  -6.3621  -6.3142  -6.3116  -6.2586
    -6.2166  -6.1753  -6.1232  -6.1183  -6.0528  -6.0280  -5.9695  -5.9278
    -5.9194  -5.8529  -5.8423  -5.8118  -5.7855  -5.7838  -5.7393  -5.7054
    -5.6669  -5.6598  -5.6461  -5.6401  -5.5987  -5.5646  -5.5182  -5.1503
    -4.5936  -3.8175  -3.8113  -3.5321  -2.9793  -2.9744  -2.7105  -2.2687
    -2.0102  -1.8998  -1.4467  -1.4256  -1.2275  -1.0100  -0.9816  -0.7076
    -0.5319  -0.3872  -0.3400  -0.2922  -0.2507   0.0363   0.1849   0.2352
     0.2526   0.4677   0.8007   0.8108   1.3105   1.3828   1.4163   1.7053
     1.8884   2.2866   2.4102   2.8245   2.9876   3.4111   3.5268   4.4891
     4.6329   5.4841   5.8035   5.9557   6.1894

          k = 0.0627-0.0000 0.0000 ( 29734 PWs)   bands (ev):

   -85.3706 -85.3504 -85.0593 -85.0390 -84.8086 -84.7881 -45.1024 -45.0652
   -44.7663 -44.5407 -44.5322 -44.4983 -44.4413 -44.3810 -44.2920 -44.2579
   -44.2202 -44.1972 -44.1654 -44.0580 -44.0534 -44.0202 -43.9458 -43.9135
    -7.4784  -6.5005  -6.4299  -6.4090  -6.3674  -6.3186  -6.3158  -6.2664
    -6.2293  -6.1842  -6.1304  -6.1215  -6.0579  -6.0298  -5.9698  -5.9272
    -5.9189  -5.8579  -5.8484  -5.8187  -5.7855  -5.7851  -5.7424  -5.7070
    -5.6665  -5.6589  -5.6475  -5.6393  -5.5995  -5.5648  -5.5168  -5.1777
    -4.5434  -3.8288  -3.8274  -3.5036  -3.0045  -2.9211  -2.6077  -2.3475
    -1.9085  -1.8554  -1.4112  -1.4075  -1.1319  -1.0224  -0.9140  -0.5567
    -0.5298  -0.4720  -0.3139  -0.2608  -0.2278   0.0732   0.1548   0.2138
     0.2511   0.4841   0.6459   0.7826   1.0755   1.3123   1.4371   1.6883
     1.8965   2.3018   2.3937   2.8156   3.4354   3.4544   3.7288   4.0444
     4.4818   5.4059   5.8359   5.8558   6.1151

          k = 0.0627 0.0170 0.0000 ( 29746 PWs)   bands (ev):

   -85.3706 -85.3504 -85.0593 -85.0390 -84.8086 -84.7881 -45.1024 -45.0652
   -44.7663 -44.5407 -44.5322 -44.4982 -44.4413 -44.3810 -44.2920 -44.2580
   -44.2202 -44.1973 -44.1654 -44.0580 -44.0534 -44.0202 -43.9458 -43.9135
    -7.4324  -6.4975  -6.4262  -6.4055  -6.3621  -6.3142  -6.3116  -6.2586
    -6.2166  -6.1753  -6.1232  -6.1183  -6.0528  -6.0280  -5.9695  -5.9278
    -5.9194  -5.8529  -5.8423  -5.8118  -5.7855  -5.7838  -5.7393  -5.7055
    -5.6669  -5.6598  -5.6461  -5.6401  -5.5987  -5.5646  -5.5182  -5.1503
    -4.5936  -3.8175  -3.8112  -3.5321  -2.9793  -2.9744  -2.7105  -2.2688
    -2.0102  -1.8998  -1.4466  -1.4255  -1.2275  -1.0101  -0.9815  -0.7076
    -0.5318  -0.3872  -0.3400  -0.2923  -0.2507   0.0363   0.1849   0.2352
     0.2526   0.4677   0.8007   0.8107   1.3105   1.3828   1.4163   1.7053
     1.8884   2.2866   2.4102   2.8245   2.9876   3.4110   3.5268   4.4890
     4.6329   5.4841   5.8035   5.9557   6.1894

          k = 0.0784 0.0425 0.0000 ( 29727 PWs)   bands (ev):

   -85.3658 -85.3553 -85.0544 -85.0439 -84.8037 -84.7931 -45.0935 -45.0742
   -44.6890 -44.5242 -44.5208 -44.5064 -44.4645 -44.3042 -44.2986 -44.2837
   -44.2662 -44.1897 -44.1731 -44.1369 -44.0456 -44.0283 -43.9380 -43.9213
    -6.9014  -6.4718  -6.3511  -6.3302  -6.3047  -6.2949  -6.2269  -6.2265
    -6.1630  -6.1276  -6.0502  -6.0242  -5.9885  -5.9873  -5.9437  -5.9111
    -5.8825  -5.8294  -5.8048  -5.7843  -5.7734  -5.7564  -5.7391  -5.7271
    -5.7137  -5.6996  -5.6874  -5.6601  -5.6484  -5.6161  -5.5988  -5.1977
    -4.7625  -4.0858  -3.7053  -3.5703  -3.1342  -2.9876  -2.6176  -2.4843
    -2.0747  -1.7137  -1.6120  -1.4388  -1.2627  -1.0224  -0.9162  -0.8229
    -0.7815  -0.6266  -0.5538  -0.4430  -0.2061  -0.0997  -0.0643   0.0723
     0.1549   0.4228   0.6118   0.6891   1.1685   1.2869   1.5232   1.7695
     2.0632   2.1183   2.3296   2.3592   2.9741   3.1847   3.7728   4.8287
     4.9418   5.0654   6.1540   6.5171   6.7150

          k = 0.0784 0.0596 0.0000 ( 29730 PWs)   bands (ev):

   -85.3658 -85.3553 -85.0544 -85.0439 -84.8037 -84.7931 -45.0936 -45.0742
   -44.6891 -44.5244 -44.5208 -44.5062 -44.4645 -44.3042 -44.2986 -44.2837
   -44.2663 -44.1897 -44.1731 -44.1369 -44.0456 -44.0283 -43.9380 -43.9213
    -6.7085  -6.4781  -6.3421  -6.3172  -6.2923  -6.2843  -6.2167  -6.2141
    -6.1571  -6.1187  -6.0403  -6.0189  -5.9861  -5.9626  -5.9367  -5.9115
    -5.8782  -5.8244  -5.7932  -5.7808  -5.7679  -5.7491  -5.7355  -5.7352
    -5.7113  -5.6985  -5.6832  -5.6656  -5.6580  -5.6179  -5.5621  -5.3543
    -4.6319  -4.1660  -3.8609  -3.5058  -3.1945  -2.9103  -2.7025  -2.6178
[...]
    -5.7128  -5.7053  -5.7009  -5.6762  -5.6638  -5.6226  -5.5077  -5.3611
    -4.8405  -4.3379  -3.8330  -3.3861  -3.3756  -3.0829  -2.6585  -2.5122
    -2.2570  -1.9703  -1.6842  -1.6626  -1.4133  -1.1695  -1.1199  -1.0384
    -0.7636  -0.6483  -0.5071  -0.4711  -0.1171  -0.0866   0.0191   0.1898
     0.1937   0.3697   0.5733   0.8507   0.8538   1.0098   1.4926   1.6264
     1.7951   2.0031   2.4987   2.7453   3.8255   4.0832   4.2718   5.0158
     5.1429   5.3670   5.8736   5.9261   6.5501

          k = 0.0784 0.1106 0.0000 ( 29709 PWs)   bands (ev):

   -85.3658 -85.3553 -85.0544 -85.0439 -84.8037 -84.7931 -45.0937 -45.0741
   -44.6891 -44.5248 -44.5207 -44.5060 -44.4645 -44.3042 -44.2986 -44.2837
   -44.2663 -44.1897 -44.1731 -44.1369 -44.0457 -44.0283 -43.9380 -43.9213
    -6.4648  -6.3888  -6.3154  -6.2876  -6.2647  -6.2593  -6.2042  -6.1987
    -6.1637  -6.1609  -6.0327  -6.0279  -5.9764  -5.9257  -5.9112  -5.8899
    -5.8496  -5.8122  -5.8026  -5.7786  -5.7758  -5.7458  -5.7436  -5.7213
    -5.7128  -5.7053  -5.7009  -5.6762  -5.6638  -5.6226  -5.5077  -5.3611
    -4.8405  -4.3379  -3.8330  -3.3861  -3.3756  -3.0829  -2.6585  -2.5123
    -2.2570  -1.9703  -1.6842  -1.6626  -1.4133  -1.1696  -1.1198  -1.0385
    -0.7636  -0.6483  -0.5071  -0.4711  -0.1171  -0.0866   0.0191   0.1898
     0.1938   0.3697   0.5733   0.8507   0.8538   1.0098   1.4926   1.6264
     1.7951   2.0031   2.4987   2.7453   3.8255   4.0833   4.2718   5.0158
     5.1429   5.3670   5.8735   5.9260   6.5495

          k = 0.0784 0.1276 0.0000 ( 29711 PWs)   bands (ev):

   -85.3658 -85.3553 -85.0544 -85.0439 -84.8037 -84.7931 -45.0936 -45.0742
   -44.6891 -44.5247 -44.5207 -44.5061 -44.4645 -44.3042 -44.2986 -44.2837
   -44.2663 -44.1897 -44.1731 -44.1369 -44.0457 -44.0283 -43.9380 -43.9213
    -6.5118  -6.4730  -6.3320  -6.3008  -6.2765  -6.2727  -6.2070  -6.2062
    -6.1580  -6.1332  -6.0353  -6.0192  -5.9812  -5.9291  -5.9256  -5.9121
    -5.8647  -5.8147  -5.7962  -5.7800  -5.7660  -5.7446  -5.7444  -5.7280
    -5.7109  -5.7018  -5.6847  -5.6790  -5.6609  -5.6206  -5.4832  -5.4601
    -4.6490  -4.2713  -3.9450  -3.4244  -3.2554  -2.9900  -2.7144  -2.5702
    -2.2559  -1.9100  -1.6339  -1.6136  -1.4070  -1.1564  -1.0454  -0.9826
    -0.7476  -0.6446  -0.5374  -0.4846  -0.1493  -0.1115  -0.0104   0.1486
     0.1716   0.4769   0.5842   0.8350   0.9390   1.2697   1.4749   1.5998
     1.8010   2.0456   2.4677   2.7002   3.4004   3.9496   4.2869   4.4555
     4.7149   5.8209   6.1648   6.2390   6.3682

          k = 0.0784-0.0596 0.0000 ( 29730 PWs)   bands (ev):

   -85.3658 -85.3553 -85.0544 -85.0439 -84.8037 -84.7931 -45.0936 -45.0742
   -44.6891 -44.5244 -44.5208 -44.5062 -44.4645 -44.3042 -44.2986 -44.2837
   -44.2663 -44.1897 -44.1731 -44.1369 -44.0456 -44.0283 -43.9380 -43.9213
    -6.7085  -6.4781  -6.3421  -6.3172  -6.2923  -6.2843  -6.2167  -6.2141
    -6.1571  -6.1187  -6.0403  -6.0189  -5.9861  -5.9626  -5.9367  -5.9115
    -5.8782  -5.8244  -5.7932  -5.7808  -5.7679  -5.7491  -5.7355  -5.7352
    -5.7113  -5.6984  -5.6832  -5.6656  -5.6580  -5.6179  -5.5622  -5.3543
    -4.6319  -4.1660  -3.8609  -3.5058  -3.1945  -2.9103  -2.7025  -2.6178
    -2.1723  -1.8167  -1.6277  -1.5643  -1.3172  -1.0941  -0.9459  -0.8927
    -0.8178  -0.6367  -0.5187  -0.4992  -0.1676  -0.1465  -0.0278   0.1010
     0.1685   0.5519   0.5659   0.7720   1.1124   1.3845   1.5745   1.5984
     1.9050   2.1365   2.3867   2.6917   2.7162   3.6430   4.0655   4.4929
     4.6109   5.6023   6.1716   6.2765   6.8790

          k = 0.0784-0.0425 0.0000 ( 29727 PWs)   bands (ev):

   -85.3658 -85.3553 -85.0544 -85.0439 -84.8037 -84.7931 -45.0935 -45.0742
   -44.6890 -44.5242 -44.5208 -44.5064 -44.4645 -44.3042 -44.2986 -44.2837
   -44.2662 -44.1897 -44.1731 -44.1369 -44.0456 -44.0283 -43.9380 -43.9213
    -6.9014  -6.4718  -6.3511  -6.3302  -6.3047  -6.2948  -6.2269  -6.2265
    -6.1630  -6.1276  -6.0502  -6.0242  -5.9885  -5.9873  -5.9437  -5.9111
    -5.8826  -5.8294  -5.8048  -5.7843  -5.7734  -5.7564  -5.7391  -5.7271
    -5.7137  -5.6996  -5.6874  -5.6601  -5.6484  -5.6161  -5.5988  -5.1977
    -4.7625  -4.0858  -3.7053  -3.5703  -3.1342  -2.9876  -2.6177  -2.4843
    -2.0747  -1.7136  -1.6119  -1.4388  -1.2628  -1.0225  -0.9161  -0.8229
    -0.7815  -0.6267  -0.5538  -0.4430  -0.2061  -0.0997  -0.0642   0.0723
     0.1549   0.4228   0.6118   0.6891   1.1685   1.2869   1.5232   1.7695
     2.0632   2.1183   2.3296   2.3593   2.9741   3.1847   3.7729   4.8287
     4.9418   5.0654   6.1541   6.5171   6.7160

          k = 0.0784-0.0255 0.0000 ( 29760 PWs)   bands (ev):

   -85.3658 -85.3553 -85.0544 -85.0439 -84.8037 -84.7931 -45.0935 -45.0743
   -44.6890 -44.5240 -44.5208 -44.5066 -44.4645 -44.3041 -44.2986 -44.2837
   -44.2662 -44.1897 -44.1731 -44.1369 -44.0456 -44.0283 -43.9380 -43.9213
    -7.0468  -6.4553  -6.3582  -6.3378  -6.3154  -6.3018  -6.2410  -6.2348
    -6.1727  -6.1459  -6.0616  -6.0293  -5.9998  -5.9893  -5.9482  -5.9101
    -5.8820  -5.8298  -5.8191  -5.7936  -5.7777  -5.7637  -5.7388  -5.7245
    -5.7166  -5.7034  -5.6924  -5.6600  -5.6398  -5.6179  -5.6120  -5.0242
    -4.8861  -4.1092  -3.6787  -3.5388  -3.1016  -2.9790  -2.6008  -2.2231
    -2.0340  -1.6094  -1.5271  -1.2773  -1.2628  -1.0337  -0.9747  -0.6919
    -0.6638  -0.6253  -0.5273  -0.3889  -0.2209  -0.1448  -0.0595   0.0742
     0.1334   0.2429   0.6171   0.6179   0.8666   1.3973   1.4151   1.5739
     1.8451   2.1631   2.2582   2.8244   3.1172   3.4019   3.6438   4.5604
     5.1996   5.4055   5.7188   6.1386   6.6503

          k = 0.0784-0.0085 0.0000 ( 29748 PWs)   bands (ev):

   -85.3658 -85.3553 -85.0544 -85.0439 -84.8037 -84.7931 -45.0934 -45.0743
   -44.6889 -44.5239 -44.5208 -44.5067 -44.4645 -44.3041 -44.2986 -44.2838
   -44.2661 -44.1897 -44.1731 -44.1369 -44.0455 -44.0283 -43.9380 -43.9213
    -7.1237  -6.4393  -6.3621  -6.3402  -6.3242  -6.3049  -6.2512  -6.2390
    -6.1800  -6.1591  -6.0683  -6.0320  -6.0043  -5.9895  -5.9504  -5.9083
    -5.8808  -5.8291  -5.8283  -5.8007  -5.7801  -5.7684  -5.7379  -5.7248
    -5.7183  -5.7061  -5.6970  -5.6600  -5.6358  -5.6223  -5.6134  -4.9541
    -4.8940  -4.1849  -3.6988  -3.4436  -3.2114  -2.8574  -2.5823  -2.0350
    -2.0310  -1.4991  -1.4474  -1.2841  -1.2616  -0.9962  -0.9928  -0.6394
    -0.6256  -0.5642  -0.4972  -0.3577  -0.2566  -0.1531  -0.0470   0.0374
     0.1184   0.2174   0.5445   0.6086   0.6789   1.0148   1.4559   1.4924
     1.8584   2.1926   2.2441   3.1578   3.1788   3.5578   4.2607   4.3195
     4.5684   5.6939   5.7450   6.0049   6.2049

          k = 0.0784 0.0085 0.0000 ( 29748 PWs)   bands (ev):

   -85.3658 -85.3553 -85.0544 -85.0439 -84.8037 -84.7931 -45.0934 -45.0743
   -44.6889 -44.5239 -44.5208 -44.5067 -44.4645 -44.3041 -44.2986 -44.2838
   -44.2661 -44.1897 -44.1731 -44.1369 -44.0455 -44.0283 -43.9380 -43.9213
    -7.1237  -6.4393  -6.3621  -6.3402  -6.3242  -6.3049  -6.2512  -6.2390
    -6.1800  -6.1591  -6.0683  -6.0320  -6.0043  -5.9895  -5.9504  -5.9083
    -5.8808  -5.8291  -5.8283  -5.8007  -5.7801  -5.7684  -5.7379  -5.7248
    -5.7183  -5.7061  -5.6970  -5.6600  -5.6358  -5.6223  -5.6134  -4.9541
    -4.8940  -4.1849  -3.6988  -3.4435  -3.2114  -2.8574  -2.5823  -2.0350
    -2.0310  -1.4991  -1.4474  -1.2841  -1.2615  -0.9962  -0.9928  -0.6394
    -0.6256  -0.5642  -0.4972  -0.3577  -0.2566  -0.1531  -0.0470   0.0374
     0.1184   0.2174   0.5444   0.6086   0.6790   1.0148   1.4559   1.4924
     1.8584   2.1926   2.2441   3.1578   3.1787   3.5578   4.2607   4.3196
     4.5684   5.6939   5.7448   6.0049   6.2049

          k = 0.0784 0.0255 0.0000 ( 29760 PWs)   bands (ev):

   -85.3658 -85.3553 -85.0544 -85.0439 -84.8037 -84.7931 -45.0935 -45.0743
   -44.6890 -44.5240 -44.5208 -44.5066 -44.4645 -44.3041 -44.2986 -44.2837
   -44.2662 -44.1897 -44.1731 -44.1369 -44.0456 -44.0283 -43.9380 -43.9213
    -7.0468  -6.4553  -6.3582  -6.3378  -6.3154  -6.3018  -6.2411  -6.2348
    -6.1727  -6.1459  -6.0616  -6.0293  -5.9998  -5.9893  -5.9482  -5.9101
    -5.8820  -5.8298  -5.8191  -5.7936  -5.7777  -5.7637  -5.7388  -5.7245
    -5.7166  -5.7034  -5.6924  -5.6600  -5.6398  -5.6179  -5.6120  -5.0242
    -4.8861  -4.1092  -3.6787  -3.5388  -3.1016  -2.9790  -2.6008  -2.2231
    -2.0340  -1.6094  -1.5271  -1.2773  -1.2628  -1.0337  -0.9747  -0.6919
    -0.6638  -0.6252  -0.5273  -0.3890  -0.2209  -0.1448  -0.0595   0.0742
     0.1333   0.2429   0.6171   0.6178   0.8666   1.3972   1.4151   1.5739
     1.8451   2.1631   2.2582   2.8244   3.1171   3.4019   3.6438   4.5604
     5.1996   5.4054   5.7188   6.1386   6.6503

          k =-0.0941-0.0510 0.0000 ( 29706 PWs)   bands (ev):

   -85.3606 -85.3604 -85.0491 -85.0491 -84.7985 -84.7982 -45.0840 -45.0838
   -44.6054 -44.6052 -44.5154 -44.5152 -44.3819 -44.3819 -44.2750 -44.2750
   -44.2211 -44.2208 -44.1814 -44.1813 -44.0371 -44.0368 -43.9298 -43.9295
    -6.5878  -6.5878  -6.3179  -6.3179  -6.2713  -6.2713  -6.2173  -6.2173
    -6.1341  -6.1341  -6.0515  -6.0515  -5.9623  -5.9622  -5.8652  -5.8651
    -5.8267  -5.8266  -5.8107  -5.8106  -5.7753  -5.7753  -5.7607  -5.7607
    -5.7306  -5.7305  -5.6836  -5.6836  -5.6587  -5.6587  -5.5110  -5.5109
    -4.4149  -4.4148  -3.6189  -3.6189  -3.0487  -3.0486  -2.5954  -2.5952
    -1.9186  -1.9185  -1.4407  -1.4406  -0.9924  -0.9923  -0.8414  -0.8413
    -0.7305  -0.7305  -0.4297  -0.4296  -0.3271  -0.3270  -0.0942  -0.0941
     0.1496   0.1497   0.4916   0.4916   1.2233   1.2234   1.6192   1.6192
     2.1030   2.1031   2.2930   2.2930   3.0552   3.0552   4.3614   4.3615
     4.9363   4.9363   6.5769   6.5772   7.0096

          k =-0.0941-0.0340 0.0000 ( 29719 PWs)   bands (ev):

   -85.3606 -85.3604 -85.0491 -85.0491 -84.7985 -84.7982 -45.0840 -45.0837
   -44.6054 -44.6052 -44.5156 -44.5151 -44.3819 -44.3819 -44.2751 -44.2750
   -44.2211 -44.2208 -44.1814 -44.1813 -44.0371 -44.0368 -43.9298 -43.9295
    -6.6792  -6.4922  -6.3217  -6.3143  -6.2690  -6.2679  -6.2254  -6.2150
    -6.1386  -6.1338  -6.0729  -6.0322  -5.9784  -5.9363  -5.8656  -5.8602
    -5.8334  -5.8202  -5.8159  -5.8033  -5.7850  -5.7722  -5.7635  -5.7616
    -5.7343  -5.7298  -5.6888  -5.6808  -5.6613  -5.6597  -5.5772  -5.3932
    -4.5387  -4.3632  -3.6933  -3.5412  -3.1260  -2.9841  -2.6698  -2.4496
    -1.9298  -1.8819  -1.5003  -1.3675  -1.0807  -0.9724  -0.8708  -0.7747
    -0.7623  -0.7030  -0.4800  -0.3671  -0.3364  -0.2392  -0.1747  -0.0303
     0.1315   0.1511   0.3438   0.5798   0.9578   1.3957   1.4849   1.6583
     1.7597   2.1307   2.2381   2.7665   2.8804   3.6354   3.9937   4.4230
     4.8382   5.4952   6.2459   6.5226   6.5756

          k =-0.0941-0.0170 0.0000 ( 29758 PWs)   bands (ev):

   -85.3606 -85.3604 -85.0492 -85.0491 -84.7985 -84.7982 -45.0841 -45.0837
   -44.6054 -44.6052 -44.5157 -44.5149 -44.3819 -44.3819 -44.2751 -44.2749
   -44.2212 -44.2208 -44.1814 -44.1813 -44.0371 -44.0368 -43.9298 -43.9295
    -6.7443  -6.4145  -6.3293  -6.3112  -6.2628  -6.2598  -6.2362  -6.2184
    -6.1460  -6.1356  -6.0902  -6.0179  -5.9862  -5.9045  -5.8640  -5.8542
    -5.8373  -5.8289  -5.8030  -5.8015  -5.7941  -5.7772  -5.7672  -5.7651
    -5.7406  -5.7306  -5.6973  -5.6780  -5.6658  -5.6629  -5.6042  -5.2397
    -4.6389  -4.4674  -3.6210  -3.5366  -3.2554  -2.8937  -2.7087  -2.2889
    -1.8898  -1.8296  -1.5619  -1.2892  -1.2455  -0.9390  -0.8852  -0.8051
    -0.7463  -0.6185  -0.5081  -0.3593  -0.3374  -0.1395  -0.1162   0.0001
     0.0837   0.1481   0.2198   0.5921   0.7239   1.1066   1.4839   1.6269
     1.6618   2.1102   2.2895   2.9021   3.4632   3.7140   4.1542   4.4443
     5.2219   5.3311   6.0511   6.2336   6.3137

          k =-0.0941 0.0000 0.0000 ( 29750 PWs)   bands (ev):

   -85.3606 -85.3604 -85.0492 -85.0491 -84.7985 -84.7982 -45.0841 -45.0837
   -44.6054 -44.6052 -44.5158 -44.5149 -44.3819 -44.3819 -44.2751 -44.2749
   -44.2212 -44.2208 -44.1814 -44.1813 -44.0371 -44.0368 -43.9298 -43.9295
    -6.7677  -6.3767  -6.3404  -6.3100  -6.2583  -6.2544  -6.2424  -6.2219
    -6.1501  -6.1367  -6.0968  -6.0121  -5.9886  -5.8835  -5.8670  -5.8512
    -5.8385  -5.8349  -5.8052  -5.7950  -5.7931  -5.7823  -5.7685  -5.7684
    -5.7447  -5.7312  -5.7020  -5.6758  -5.6687  -5.6643  -5.6105  -5.1480
    -4.6760  -4.5609  -3.5460  -3.5043  -3.3762  -2.8408  -2.7321  -2.2258
    -1.8277  -1.7960  -1.5986  -1.3687  -1.2405  -0.9007  -0.8919  -0.8415
    -0.7467  -0.5182  -0.5174  -0.4451  -0.3452  -0.0883   0.0010   0.0099
     0.0833   0.1335   0.1471   0.5828   0.6386   0.8855   1.5125   1.6085
     1.6606   2.1113   2.3115   2.9260   3.5777   4.0592   4.2280   4.4893
     5.1077   5.4413   5.7070   6.1202   6.3021

          k =-0.0941 0.0170 0.0000 ( 29758 PWs)   bands (ev):

   -85.3606 -85.3604 -85.0492 -85.0491 -84.7985 -84.7982 -45.0841 -45.0837
   -44.6054 -44.6052 -44.5157 -44.5149 -44.3819 -44.3819 -44.2751 -44.2749
   -44.2212 -44.2208 -44.1814 -44.1813 -44.0371 -44.0368 -43.9298 -43.9295
    -6.7443  -6.4145  -6.3293  -6.3112  -6.2628  -6.2598  -6.2362  -6.2184
    -6.1460  -6.1356  -6.0903  -6.0179  -5.9862  -5.9045  -5.8640  -5.8542
    -5.8373  -5.8289  -5.8030  -5.8015  -5.7941  -5.7772  -5.7672  -5.7651
    -5.7407  -5.7306  -5.6973  -5.6780  -5.6658  -5.6629  -5.6042  -5.2397
    -4.6389  -4.4674  -3.6210  -3.5366  -3.2554  -2.8937  -2.7087  -2.2889
    -1.8899  -1.8296  -1.5620  -1.2892  -1.2455  -0.9390  -0.8851  -0.8051
    -0.7464  -0.6184  -0.5081  -0.3593  -0.3374  -0.1395  -0.1162   0.0002
     0.0838   0.1481   0.2197   0.5921   0.7239   1.1066   1.4839   1.6269
     1.6618   2.1101   2.2895   2.9022   3.4632   3.7140   4.1542   4.4442
     5.2219   5.3311   6.0510   6.2335   6.3137

          k =-0.0941 0.0340 0.0000 ( 29719 PWs)   bands (ev):

   -85.3606 -85.3604 -85.0491 -85.0491 -84.7985 -84.7982 -45.0840 -45.0837
   -44.6054 -44.6052 -44.5156 -44.5151 -44.3819 -44.3819 -44.2751 -44.2750
   -44.2211 -44.2208 -44.1814 -44.1813 -44.0371 -44.0368 -43.9298 -43.9295
    -6.6792  -6.4922  -6.3217  -6.3143  -6.2689  -6.2679  -6.2254  -6.2150
    -6.1386  -6.1338  -6.0729  -6.0322  -5.9784  -5.9363  -5.8656  -5.8602
    -5.8334  -5.8202  -5.8159  -5.8033  -5.7850  -5.7722  -5.7635  -5.7616
    -5.7343  -5.7298  -5.6888  -5.6808  -5.6614  -5.6597  -5.5772  -5.3932
    -4.5387  -4.3633  -3.6933  -3.5412  -3.1260  -2.9841  -2.6698  -2.4496
    -1.9298  -1.8819  -1.5003  -1.3675  -1.0808  -0.9724  -0.8707  -0.7747
    -0.7624  -0.7029  -0.4800  -0.3671  -0.3364  -0.2392  -0.1747  -0.0303
     0.1316   0.1511   0.3438   0.5798   0.9578   1.3957   1.4849   1.6584
     1.7597   2.1306   2.2381   2.7665   2.8804   3.6353   3.9938   4.4230
     4.8383   5.4952   6.2458   6.5227   6.5756

          k =-0.0941-0.1531 0.0000 ( 29706 PWs)   bands (ev):

   -85.3606 -85.3604 -85.0491 -85.0491 -84.7985 -84.7982 -45.0840 -45.0838
   -44.6054 -44.6052 -44.5154 -44.5152 -44.3819 -44.3819 -44.2750 -44.2750
   -44.2211 -44.2208 -44.1814 -44.1813 -44.0371 -44.0368 -43.9298 -43.9295
    -6.5878  -6.5878  -6.3179  -6.3179  -6.2713  -6.2713  -6.2173  -6.2173
    -6.1341  -6.1341  -6.0515  -6.0515  -5.9622  -5.9622  -5.8652  -5.8651
    -5.8267  -5.8266  -5.8107  -5.8106  -5.7753  -5.7753  -5.7607  -5.7607
    -5.7306  -5.7305  -5.6836  -5.6836  -5.6587  -5.6587  -5.5110  -5.5109
    -4.4149  -4.4148  -3.6189  -3.6188  -3.0487  -3.0486  -2.5954  -2.5953
    -1.9186  -1.9185  -1.4407  -1.4406  -0.9925  -0.9924  -0.8413  -0.8413
    -0.7305  -0.7305  -0.4297  -0.4296  -0.3271  -0.3270  -0.0942  -0.0942
     0.1496   0.1497   0.4916   0.4916   1.2233   1.2234   1.6192   1.6192
     2.1030   2.1031   2.2930   2.2930   3.0552   3.0552   4.3615   4.3616
     4.9362   4.9363   6.5769   6.5771   7.0097

     the Fermi energy is     1.3314 ev

!    total energy              =   -2101.24635985 Ry
     estimated scf accuracy    <       0.00000294 Ry
     smearing contrib. (-TS)   =      -0.04502392 Ry
     internal energy E=F+TS    =   -2101.20133593 Ry

     The total energy is F=E-TS. E is the sum of the following terms:
     one-electron contribution =  -16446.88013991 Ry
     hartree contribution      =    8286.29346018 Ry
     xc contribution           =    -526.86431576 Ry
     ewald contribution        =    6586.24963358 Ry
     electric field correction =       0.00002598 Ry

     convergence has been achieved in  13 iterations

     negative rho (up, down):  2.177E-04 0.000E+00

     Forces acting on atoms (cartesian axes, Ry/au):

     atom    1 type  1   force =     0.00001696    0.00184027   -0.01781997
     atom    2 type  1   force =    -0.00002050    0.00183908   -0.01780979
     atom    3 type  2   force =     0.00000151    0.00890431    0.03162297
     atom    4 type  2   force =     0.00000078    0.00889252    0.03161667
     atom    5 type  1   force =     0.00003861    0.01060092   -0.00445469
     atom    6 type  1   force =    -0.00004277    0.01059993   -0.00445580
     atom    7 type  2   force =    -0.00000016   -0.02122997   -0.00845330
     atom    8 type  2   force =    -0.00000390   -0.02126361   -0.00848608
     atom    9 type  1   force =     0.00000320   -0.00070500   -0.00029264
     atom   10 type  1   force =     0.00000722   -0.00073506   -0.00029432
     atom   11 type  2   force =    -0.00000254    0.00062262   -0.00059497
     atom   12 type  2   force =     0.00000158    0.00063400   -0.00057808

     Total force =     0.064132     Total SCF correction =     0.007743
     SCF correction compared to forces is large: reduce conv_thr to get better values

     Writing output data file ./Zn2Os2/Zn2Os2_beef.save/

     init_run     :     92.52s CPU    185.33s WALL (       1 calls)
     electrons    :   2979.49s CPU   4280.23s WALL (       1 calls)
     forces       :     56.81s CPU     74.54s WALL (       1 calls)

     Called by init_run:
     wfcinit      :     79.13s CPU    163.39s WALL (       1 calls)
     potinit      :      8.96s CPU     13.16s WALL (       1 calls)
     hinit0       :      2.19s CPU      5.73s WALL (       1 calls)

     Called by electrons:
     c_bands      :   2627.59s CPU   3769.60s WALL (      14 calls)
     sum_band     :    322.61s CPU    468.53s WALL (      14 calls)
     v_of_rho     :     23.75s CPU     35.75s WALL (      14 calls)
     newd         :     13.73s CPU     17.03s WALL (      14 calls)
     mix_rho      :      0.56s CPU      1.11s WALL (      14 calls)
     vdW_kernel   :      6.24s CPU      8.20s WALL (       1 calls)

     Called by c_bands:
     init_us_2    :      8.70s CPU      8.84s WALL (    2220 calls)
     cegterg      :   2606.11s CPU   3730.00s WALL (    1036 calls)

     Called by *egterg:
     cdiaghg      :    159.02s CPU    286.80s WALL (    4970 calls)
     h_psi        :   1361.66s CPU   2148.79s WALL (    5118 calls)
     s_psi        :    383.75s CPU    384.08s WALL (    5118 calls)
     g_psi        :      1.14s CPU      1.20s WALL (    4008 calls)

     Called by h_psi:
     h_psi:calbec :    459.52s CPU    585.08s WALL (    5118 calls)
     vloc_psi     :    503.06s CPU   1163.84s WALL (    5118 calls)
     add_vuspsi   :    395.32s CPU    395.85s WALL (    5118 calls)

     General routines
     calbec       :    696.19s CPU    883.40s WALL (    6450 calls)
     fft          :     12.16s CPU     24.10s WALL (     942 calls)
     ffts         :      0.05s CPU      0.20s WALL (      28 calls)
     fftw         :    560.85s CPU   1307.30s WALL (  579640 calls)
     interpolate  :      0.19s CPU      0.41s WALL (      14 calls)

     Parallel routines
     fft_scatt_xy :     37.26s CPU     48.80s WALL (  580610 calls)
     fft_scatt_yz :    273.78s CPU    959.77s WALL (  580610 calls)

     PWSCF        :  52m31.36s CPU      1h19m WALL


   This run was terminated on:   0:24:55  10Jul2022            

=------------------------------------------------------------------------------=
   JOB DONE.
=------------------------------------------------------------------------------=
