
     Program PWSCF v.6.6 starts on 10Jul2022 at  1:16:14 

     This program is part of the open-source Quantum ESPRESSO suite
     for quantum simulation of materials; please cite
         "P. Giannozzi et al., J. Phys.:Condens. Matter 21 395502 (2009);
         "P. Giannozzi et al., J. Phys.:Condens. Matter 29 465901 (2017);
          URL http://www.quantum-espresso.org", 
     in publications or presentations arising from this work. More details at
     http://www.quantum-espresso.org/quote

     Parallel version (MPI), running on    37 processors

     MPI processes distributed on     4 nodes
     R & G space division:  proc/nbgrp/npool/nimage =      37
     Fft bands division:     nmany     =       1
     Reading input from Zn2Pt2.in
Warning: card &CELL ignored
Warning: card / ignored

     Current dimensions of program PWSCF are:
     Max number of different atomic species (ntypx) = 10
     Max number of k-points (npk) =  40000
     Max angular momentum in pseudopotentials (lmaxx) =  3
     Presently stress not available with electric field and gates

     Message from routine cell_base_init:
     DEPRECATED: use true lattice parameter, not A to a.u. conversion factor
     file Zn.pbe-dnl-rrkjus_psl.1.0.0.UPF: wavefunction(s)  3D renormalized
     file Pt.pbe-n-rrkjus_psl.1.0.0.UPF: wavefunction(s)  6S renormalized

     **************************************************************************
     Initializing libbeef V0.1.2 with the BEEF-vdW functional.
     Citation: Wellendorff et al., PRB 85, 235149 (2012).
     **************************************************************************


     IMPORTANT: XC functional enforced from input :
     Exchange-correlation= BEEF-VDW
                           (   1   4  43  14   2   0   0)
     Any further DFT definition will be discarded
     Please, verify this is what you really want


     Subspace diagonalization in iterative solution of the eigenvalue problem:
     a serial algorithm will be used

     Found symmetry operation: I + (  0.5000 -0.5000  0.0000)
     This is a supercell, fractional translations are disabled

     Parallelization info
     --------------------
     sticks:   dense  smooth     PW     G-vecs:    dense   smooth      PW
     Min         112      44     12                25914     6536     988
     Max         113      45     13                25931     6559    1017
     Sum        4169    1661    469               959173   242371   37109



     bravais-lattice index     =            0
     lattice parameter (alat)  =       1.8897  a.u.
     unit-cell volume          =    4388.5649 (a.u.)^3
     number of atoms/cell      =           12
     number of atomic types    =            2
     number of electrons       =       132.00
     number of Kohn-Sham states=           79
     kinetic-energy cutoff     =      55.1240  Ry
     charge density cutoff     =     551.2396  Ry
     convergence threshold     =      1.0E-05
     mixing beta               =       0.1000
     number of iterations used =           10  plain     mixing
     Exchange-correlation= BEEF-VDW
                           (   1   4  43  14   2   0   0)

     celldm(1)=   1.889726  celldm(2)=   0.000000  celldm(3)=   0.000000
     celldm(4)=   0.000000  celldm(5)=   0.000000  celldm(6)=   0.000000

     crystal axes: (cart. coord. in units of alat)
               a(1) = (   5.413541   0.000000   0.000000 )  
               a(2) = (   2.287772   4.906376   0.000000 )  
               a(3) = (   0.000000   0.000000  24.484078 )  

     reciprocal axes: (cart. coord. in units 2 pi/alat)
               b(1) = (  0.184722 -0.086133  0.000000 )  
               b(2) = (  0.000000  0.203816  0.000000 )  
               b(3) = (  0.000000  0.000000  0.040843 )  


     PseudoPot. # 1 for Zn read from file:
     ../pseudo/Zn.pbe-dnl-rrkjus_psl.1.0.0.UPF
     MD5 check sum: 7f56cabf9682ed8c977c2f7d0c5985c5
     Pseudo is Ultrasoft + core correction, Zval = 12.0
     Generated using "atomic" code by A. Dal Corso v.6.2.2
     Using radial grid of 1201 points,  6 beta functions with: 
                l(1) =   0
                l(2) =   0
                l(3) =   1
                l(4) =   1
                l(5) =   2
                l(6) =   2
     Q(r) pseudized with 0 coefficients 


     PseudoPot. # 2 for Pt read from file:
     ../pseudo/Pt.pbe-n-rrkjus_psl.1.0.0.UPF
     MD5 check sum: 6bc887cfe28d63a5fc1f72d35a7d3ef7
     Pseudo is Ultrasoft + core correction, Zval = 10.0
     Generated using "atomic" code by A. Dal Corso v.6.3
     Using radial grid of 1277 points,  6 beta functions with: 
                l(1) =   0
                l(2) =   0
                l(3) =   1
                l(4) =   1
                l(5) =   2
                l(6) =   2
     Q(r) pseudized with 0 coefficients 


     atomic species   valence    mass     pseudopotential
        Zn            12.00    65.38000     Zn( 1.00)
        Pt            10.00   195.08400     Pt( 1.00)

     No symmetry found



   Cartesian axes

     site n.     atom                  positions (alat units)
         1           Zn  tau(   1) = (   0.0000000   0.0000000  10.0000000  )
         2           Zn  tau(   2) = (   3.8506563   2.4531882  10.0000000  )
         3           Pt  tau(   3) = (   2.7067705   0.0000000  10.0000000  )
         4           Pt  tau(   4) = (   1.1438858   2.4531882  10.0000000  )
         5           Zn  tau(   5) = (   5.4135411   3.4488757  12.2420389  )
         6           Zn  tau(   6) = (   1.5628848   0.9956875  12.2420389  )
         7           Pt  tau(   7) = (   2.7067705   3.4488757  12.2420389  )
         8           Pt  tau(   8) = (   4.2696553   0.9956875  12.2420389  )
         9           Zn  tau(   9) = (   3.2522155   2.0719241  14.5911679  )
        10           Zn  tau(  10) = (   7.1028676   4.5251198  14.5911626  )
        11           Pt  tau(  11) = (   5.9691221   2.0783890  14.3978774  )
        12           Pt  tau(  12) = (   4.4062347   4.5315741  14.3978788  )

     number of k points=    74  Fermi-Dirac smearing, width (Ry)=  0.0100
                       cart. coord. in units 2pi/alat
        k(    1) = (   0.0000000   0.0000000   0.0000000), wk =   0.0138889
        k(    2) = (   0.0000000   0.0169847   0.0000000), wk =   0.0277778
        k(    3) = (   0.0000000   0.0339694   0.0000000), wk =   0.0277778
        k(    4) = (   0.0000000   0.0509541   0.0000000), wk =   0.0277778
        k(    5) = (   0.0000000   0.0679388   0.0000000), wk =   0.0277778
        k(    6) = (   0.0000000   0.0849235   0.0000000), wk =   0.0277778
        k(    7) = (   0.0000000  -0.1019082   0.0000000), wk =   0.0138889
        k(    8) = (   0.0153935  -0.0071778   0.0000000), wk =   0.0277778
        k(    9) = (   0.0153935   0.0098069   0.0000000), wk =   0.0277778
        k(   10) = (   0.0153935   0.0267916   0.0000000), wk =   0.0277778
        k(   11) = (   0.0153935   0.0437763   0.0000000), wk =   0.0277778
        k(   12) = (   0.0153935   0.0607610   0.0000000), wk =   0.0277778
        k(   13) = (   0.0153935   0.0777457   0.0000000), wk =   0.0277778
        k(   14) = (   0.0153935  -0.1090860   0.0000000), wk =   0.0277778
        k(   15) = (   0.0153935  -0.0921013   0.0000000), wk =   0.0277778
        k(   16) = (   0.0153935  -0.0751166   0.0000000), wk =   0.0277778
        k(   17) = (   0.0153935  -0.0581319   0.0000000), wk =   0.0277778
        k(   18) = (   0.0153935  -0.0411472   0.0000000), wk =   0.0277778
        k(   19) = (   0.0153935  -0.0241625   0.0000000), wk =   0.0277778
        k(   20) = (   0.0307870  -0.0143555   0.0000000), wk =   0.0277778
        k(   21) = (   0.0307870   0.0026292   0.0000000), wk =   0.0277778
        k(   22) = (   0.0307870   0.0196139   0.0000000), wk =   0.0277778
        k(   23) = (   0.0307870   0.0365986   0.0000000), wk =   0.0277778
        k(   24) = (   0.0307870   0.0535833   0.0000000), wk =   0.0277778
        k(   25) = (   0.0307870   0.0705680   0.0000000), wk =   0.0277778
        k(   26) = (   0.0307870  -0.1162637   0.0000000), wk =   0.0277778
        k(   27) = (   0.0307870  -0.0992790   0.0000000), wk =   0.0277778
        k(   28) = (   0.0307870  -0.0822943   0.0000000), wk =   0.0277778
        k(   29) = (   0.0307870  -0.0653096   0.0000000), wk =   0.0277778
        k(   30) = (   0.0307870  -0.0483249   0.0000000), wk =   0.0277778
        k(   31) = (   0.0307870  -0.0313402   0.0000000), wk =   0.0277778
        k(   32) = (   0.0461805  -0.0215333   0.0000000), wk =   0.0277778
        k(   33) = (   0.0461805  -0.0045486   0.0000000), wk =   0.0277778
        k(   34) = (   0.0461805   0.0124361   0.0000000), wk =   0.0277778
        k(   35) = (   0.0461805   0.0294208   0.0000000), wk =   0.0277778
        k(   36) = (   0.0461805   0.0464055   0.0000000), wk =   0.0277778
        k(   37) = (   0.0461805   0.0633902   0.0000000), wk =   0.0277778
        k(   38) = (   0.0461805  -0.1234415   0.0000000), wk =   0.0277778
        k(   39) = (   0.0461805  -0.1064568   0.0000000), wk =   0.0277778
        k(   40) = (   0.0461805  -0.0894721   0.0000000), wk =   0.0277778
        k(   41) = (   0.0461805  -0.0724874   0.0000000), wk =   0.0277778
        k(   42) = (   0.0461805  -0.0555027   0.0000000), wk =   0.0277778
        k(   43) = (   0.0461805  -0.0385180   0.0000000), wk =   0.0277778
        k(   44) = (   0.0615740  -0.0287111   0.0000000), wk =   0.0277778
        k(   45) = (   0.0615740  -0.0117264   0.0000000), wk =   0.0277778
        k(   46) = (   0.0615740   0.0052583   0.0000000), wk =   0.0277778
        k(   47) = (   0.0615740   0.0222430   0.0000000), wk =   0.0277778
        k(   48) = (   0.0615740   0.0392277   0.0000000), wk =   0.0277778
        k(   49) = (   0.0615740   0.0562124   0.0000000), wk =   0.0277778
        k(   50) = (   0.0615740  -0.1306193   0.0000000), wk =   0.0277778
        k(   51) = (   0.0615740  -0.1136346   0.0000000), wk =   0.0277778
        k(   52) = (   0.0615740  -0.0966499   0.0000000), wk =   0.0277778
        k(   53) = (   0.0615740  -0.0796652   0.0000000), wk =   0.0277778
        k(   54) = (   0.0615740  -0.0626805   0.0000000), wk =   0.0277778
        k(   55) = (   0.0615740  -0.0456958   0.0000000), wk =   0.0277778
        k(   56) = (   0.0769675  -0.0358888   0.0000000), wk =   0.0277778
        k(   57) = (   0.0769675  -0.0189041   0.0000000), wk =   0.0277778
        k(   58) = (   0.0769675  -0.0019194   0.0000000), wk =   0.0277778
        k(   59) = (   0.0769675   0.0150653   0.0000000), wk =   0.0277778
        k(   60) = (   0.0769675   0.0320500   0.0000000), wk =   0.0277778
        k(   61) = (   0.0769675   0.0490347   0.0000000), wk =   0.0277778
        k(   62) = (   0.0769675  -0.1377970   0.0000000), wk =   0.0277778
        k(   63) = (   0.0769675  -0.1208123   0.0000000), wk =   0.0277778
        k(   64) = (   0.0769675  -0.1038276   0.0000000), wk =   0.0277778
        k(   65) = (   0.0769675  -0.0868429   0.0000000), wk =   0.0277778
        k(   66) = (   0.0769675  -0.0698582   0.0000000), wk =   0.0277778
        k(   67) = (   0.0769675  -0.0528735   0.0000000), wk =   0.0277778
        k(   68) = (  -0.0923610   0.0430666   0.0000000), wk =   0.0138889
        k(   69) = (  -0.0923610   0.0600513   0.0000000), wk =   0.0277778
        k(   70) = (  -0.0923610   0.0770360   0.0000000), wk =   0.0277778
        k(   71) = (  -0.0923610   0.0940207   0.0000000), wk =   0.0277778
        k(   72) = (  -0.0923610   0.1110054   0.0000000), wk =   0.0277778
        k(   73) = (  -0.0923610   0.1279901   0.0000000), wk =   0.0277778
        k(   74) = (  -0.0923610  -0.0588416   0.0000000), wk =   0.0138889

     Dense  grid:   959173 G-vectors     FFT dimensions: (  80,  80, 360)

     Smooth grid:   242371 G-vectors     FFT dimensions: (  50,  50, 225)

     Estimated max dynamical RAM per process >     178.00 MB

     Estimated total dynamical RAM >       6.43 GB

     Initial potential from superposition of free atoms

     starting charge  131.97663, renormalised to  132.00000

     negative rho (up, down):  6.428E-04 0.000E+00


     %%%%%%%%%%%%%%%%%%%%%%%%%%%%%%%%%%%%%%%%%%%%%%%%%%%%%%%%%%%%%%%%%%%%%%%%
     %                                                                      %
     % You are using vdW-DF, which was implemented by the Thonhauser group. %
     % Please cite the following two papers that made this development      %
     % possible and the two reviews that describe the various versions:     %
     %                                                                      %
     %   T. Thonhauser et al., PRL 115, 136402 (2015).                      %
     %   T. Thonhauser et al., PRB 76, 125112 (2007).                       %
     %   K. Berland et al., Rep. Prog. Phys. 78, 066501 (2015).             %
     %   D.C. Langreth et al., J. Phys.: Condens. Matter 21, 084203 (2009). %
     %                                                                      %
     %                                                                      %
     % If you are calculating the stress with vdW-DF, please also cite:     %
     %                                                                      %
     %   R. Sabatini et al., J. Phys.: Condens. Matter 24, 424209 (2012).   %
     %                                                                      %
     %%%%%%%%%%%%%%%%%%%%%%%%%%%%%%%%%%%%%%%%%%%%%%%%%%%%%%%%%%%%%%%%%%%%%%%%



     Adding external electric field

     Computed dipole along edir(3) : 
        Dipole                0.0012 Ry au,          0.0030 Debye
        Dipole field          0.0000 Ry au, 

        Potential amp.       -0.0003 Ry
        Total length         45.1115 bohr

     Starting wfcs are  108 randomized atomic wfcs

     total cpu time spent up to now is      119.6 secs

     Self-consistent Calculation

     iteration #  1     ecut=    55.12 Ry     beta= 0.10
     Davidson diagonalization with overlap
     ethr =  1.00E-02,  avg # of iterations =  3.1

     Threshold (ethr) on eigenvalues was too large:
     Diagonalizing with lowered threshold

     Davidson diagonalization with overlap
     ethr =  2.13E-04,  avg # of iterations =  7.6

     negative rho (up, down):  6.354E-04 0.000E+00

     Adding external electric field

     Computed dipole along edir(3) : 
        Dipole                0.0151 Ry au,          0.0384 Debye
        Dipole field          0.0000 Ry au, 

        Potential amp.       -0.0039 Ry
        Total length         45.1115 bohr


     total cpu time spent up to now is      651.9 secs

     total energy              =   -1295.09658995 Ry
     estimated scf accuracy    <       0.37260150 Ry

     iteration #  2     ecut=    55.12 Ry     beta= 0.10
     Davidson diagonalization with overlap
     ethr =  2.82E-04,  avg # of iterations =  1.6

     negative rho (up, down):  6.380E-04 0.000E+00

     Adding external electric field

     Computed dipole along edir(3) : 
        Dipole               -0.0113 Ry au,         -0.0287 Debye
        Dipole field         -0.0000 Ry au, 

        Potential amp.        0.0029 Ry
        Total length         45.1115 bohr


     total cpu time spent up to now is      847.6 secs

     total energy              =   -1295.06903667 Ry
     estimated scf accuracy    <       0.17038986 Ry

     iteration #  3     ecut=    55.12 Ry     beta= 0.10
     Davidson diagonalization with overlap
     c_bands:  1 eigenvalues not converged
     ethr =  1.29E-04,  avg # of iterations =  4.3

     negative rho (up, down):  6.410E-04 0.000E+00

     Adding external electric field

     Computed dipole along edir(3) : 
        Dipole                0.0819 Ry au,          0.2081 Debye
        Dipole field          0.0002 Ry au, 

        Potential amp.       -0.0211 Ry
        Total length         45.1115 bohr


     total cpu time spent up to now is     1062.9 secs

     total energy              =   -1295.07903917 Ry
     estimated scf accuracy    <       0.04611194 Ry

     iteration #  4     ecut=    55.12 Ry     beta= 0.10
     Davidson diagonalization with overlap
     c_bands:  1 eigenvalues not converged
     c_bands:  1 eigenvalues not converged
     c_bands:  1 eigenvalues not converged
     c_bands:  1 eigenvalues not converged
     c_bands:  1 eigenvalues not converged
     c_bands:  1 eigenvalues not converged
     ethr =  3.49E-05,  avg # of iterations = 13.0

     negative rho (up, down):  6.375E-04 0.000E+00

     Adding external electric field

     Computed dipole along edir(3) : 
        Dipole                0.0165 Ry au,          0.0420 Debye
        Dipole field          0.0000 Ry au, 

        Potential amp.       -0.0043 Ry
        Total length         45.1115 bohr


     total cpu time spent up to now is     1358.3 secs

     total energy              =   -1295.08218327 Ry
     estimated scf accuracy    <       0.05697428 Ry

     iteration #  5     ecut=    55.12 Ry     beta= 0.10
     Davidson diagonalization with overlap
     ethr =  3.49E-05,  avg # of iterations =  1.3

     negative rho (up, down):  7.890E-04 0.000E+00

     Adding external electric field

     Computed dipole along edir(3) : 
        Dipole                0.0275 Ry au,          0.0699 Debye
        Dipole field          0.0001 Ry au, 

        Potential amp.       -0.0071 Ry
        Total length         45.1115 bohr


     total cpu time spent up to now is     1629.2 secs

     total energy              =   -1295.08333522 Ry
     estimated scf accuracy    <       0.01519998 Ry

     iteration #  6     ecut=    55.12 Ry     beta= 0.10
     Davidson diagonalization with overlap
     c_bands:  1 eigenvalues not converged
     c_bands:  1 eigenvalues not converged
     ethr =  1.15E-05,  avg # of iterations =  5.2

     negative rho (up, down):  7.844E-04 0.000E+00

     Adding external electric field

     Computed dipole along edir(3) : 
        Dipole                0.0349 Ry au,          0.0887 Debye
        Dipole field          0.0001 Ry au, 

        Potential amp.       -0.0090 Ry
        Total length         45.1115 bohr


     total cpu time spent up to now is     1873.3 secs

     total energy              =   -1295.08494618 Ry
     estimated scf accuracy    <       0.00147668 Ry

     iteration #  7     ecut=    55.12 Ry     beta= 0.10
     Davidson diagonalization with overlap
     c_bands:  1 eigenvalues not converged
     c_bands:  2 eigenvalues not converged
     c_bands:  1 eigenvalues not converged
     c_bands:  1 eigenvalues not converged
     c_bands:  1 eigenvalues not converged
     c_bands:  2 eigenvalues not converged
     c_bands:  1 eigenvalues not converged
     c_bands:  1 eigenvalues not converged
     ethr =  1.12E-06,  avg # of iterations = 11.2

     negative rho (up, down):  7.605E-04 0.000E+00

     Adding external electric field

     Computed dipole along edir(3) : 
        Dipole                0.0332 Ry au,          0.0844 Debye
        Dipole field          0.0001 Ry au, 

        Potential amp.       -0.0086 Ry
        Total length         45.1115 bohr


     total cpu time spent up to now is     2281.8 secs

     total energy              =   -1295.08530812 Ry
     estimated scf accuracy    <       0.00080372 Ry

     iteration #  8     ecut=    55.12 Ry     beta= 0.10
     Davidson diagonalization with overlap
     c_bands:  1 eigenvalues not converged
     ethr =  6.09E-07,  avg # of iterations =  3.1

     negative rho (up, down):  7.725E-04 0.000E+00

     Adding external electric field

     Computed dipole along edir(3) : 
        Dipole                0.0307 Ry au,          0.0780 Debye
        Dipole field          0.0001 Ry au, 

        Potential amp.       -0.0079 Ry
        Total length         45.1115 bohr


     total cpu time spent up to now is     2505.5 secs

     total energy              =   -1295.08548614 Ry
     estimated scf accuracy    <       0.00038516 Ry

     iteration #  9     ecut=    55.12 Ry     beta= 0.10
     Davidson diagonalization with overlap
     ethr =  2.92E-07,  avg # of iterations =  2.0

     negative rho (up, down):  7.549E-04 0.000E+00

     Adding external electric field

     Computed dipole along edir(3) : 
        Dipole                0.0284 Ry au,          0.0723 Debye
        Dipole field          0.0001 Ry au, 

        Potential amp.       -0.0073 Ry
        Total length         45.1115 bohr


     total cpu time spent up to now is     2734.8 secs

     total energy              =   -1295.08547949 Ry
     estimated scf accuracy    <       0.00020761 Ry

     iteration # 10     ecut=    55.12 Ry     beta= 0.10
     Davidson diagonalization with overlap
     ethr =  1.57E-07,  avg # of iterations =  2.1

     negative rho (up, down):  7.334E-04 0.000E+00

     Adding external electric field

     Computed dipole along edir(3) : 
        Dipole                0.0289 Ry au,          0.0733 Debye
        Dipole field          0.0001 Ry au, 

        Potential amp.       -0.0075 Ry
        Total length         45.1115 bohr


     total cpu time spent up to now is     2952.7 secs

     total energy              =   -1295.08547356 Ry
     estimated scf accuracy    <       0.00005955 Ry

     iteration # 11     ecut=    55.12 Ry     beta= 0.10
     Davidson diagonalization with overlap
     ethr =  4.51E-08,  avg # of iterations =  3.7

     negative rho (up, down):  7.145E-04 0.000E+00

     Adding external electric field

     Computed dipole along edir(3) : 
        Dipole                0.0294 Ry au,          0.0746 Debye
        Dipole field          0.0001 Ry au, 

        Potential amp.       -0.0076 Ry
        Total length         45.1115 bohr


     total cpu time spent up to now is     3216.6 secs

     total energy              =   -1295.08549183 Ry
     estimated scf accuracy    <       0.00001877 Ry

     iteration # 12     ecut=    55.12 Ry     beta= 0.10
     Davidson diagonalization with overlap
     ethr =  1.42E-08,  avg # of iterations =  2.3

     negative rho (up, down):  6.156E-04 0.000E+00

     Adding external electric field

     Computed dipole along edir(3) : 
        Dipole                0.0269 Ry au,          0.0685 Debye
        Dipole field          0.0001 Ry au, 

        Potential amp.       -0.0070 Ry
        Total length         45.1115 bohr


     total cpu time spent up to now is     3428.4 secs

     End of self-consistent calculation

          k = 0.0000 0.0000 0.0000 ( 30193 PWs)   bands (ev):

    -8.9099  -7.4659  -7.4503  -7.4243  -7.3756  -7.3529  -7.2304  -7.2126
    -7.1991  -7.1647  -7.1614  -7.1251  -7.0804  -7.0715  -6.9243  -6.9105
    -6.9095  -6.8596  -6.8387  -6.8058  -6.8006  -6.7708  -6.7272  -6.6908
    -6.6701  -6.6050  -6.5872  -6.5808  -6.5766  -6.5503  -6.4167  -6.3434
    -5.2132  -4.9620  -4.5892  -4.2440  -3.9583  -3.6882  -3.6123  -3.3003
    -3.2656  -3.2003  -3.0762  -2.7401  -2.6177  -2.5080  -2.3167  -2.1446
    -2.1308  -1.8748  -1.7822  -1.5742  -1.4733  -1.3968  -1.3911  -1.3613
    -1.1586  -1.0571  -1.0453  -1.0281  -0.9579  -0.7327  -0.2833  -0.0620
    -0.0336   0.2845   0.2995   0.8197   1.0343   1.3009   1.3984   2.0522
     3.2086   3.4063   3.7761   3.7976   3.9159   4.2206   4.5219

          k = 0.0000 0.0170 0.0000 ( 30238 PWs)   bands (ev):

    -8.8594  -7.4395  -7.4323  -7.4043  -7.3616  -7.3432  -7.2216  -7.2017
    -7.1924  -7.1589  -7.1491  -7.1163  -7.0745  -7.0595  -6.9210  -6.9039
    -6.9014  -6.8623  -6.8347  -6.8143  -6.7960  -6.7703  -6.7266  -6.6927
    -6.6723  -6.6087  -6.5930  -6.5855  -6.5841  -6.5522  -6.4253  -6.3296
    -5.1982  -5.0016  -4.5944  -4.3150  -3.9328  -3.6642  -3.5885  -3.3267
    -3.3013  -3.1792  -3.0549  -2.7480  -2.6477  -2.5052  -2.3240  -2.1731
    -2.1168  -1.8780  -1.7668  -1.6551  -1.5475  -1.4804  -1.4281  -1.3990
    -1.2340  -1.1142  -1.0724  -1.0625  -0.9142  -0.7857  -0.4055  -0.1400
     0.0386   0.1149   0.3482   0.5038   0.7362   1.6321   1.8492   2.0042
     3.3334   3.4518   3.7651   4.0152   4.1554   4.2734   4.4150

          k = 0.0000 0.0340 0.0000 ( 30308 PWs)   bands (ev):

    -8.7103  -7.4106  -7.3557  -7.3382  -7.3169  -7.3156  -7.1999  -7.1732
    -7.1654  -7.1406  -7.1195  -7.0923  -7.0553  -7.0258  -6.9105  -6.8857
    -6.8794  -6.8702  -6.8330  -6.8226  -6.7893  -6.7694  -6.7245  -6.6986
    -6.6785  -6.6201  -6.6093  -6.6083  -6.5927  -6.5609  -6.4514  -6.2819
    -5.1524  -5.1266  -4.6161  -4.5019  -3.8591  -3.6059  -3.5167  -3.4190
    -3.2933  -3.1512  -3.0487  -2.7733  -2.7322  -2.4963  -2.3436  -2.2538
    -2.0834  -1.9035  -1.8803  -1.7709  -1.6852  -1.6668  -1.5720  -1.4782
    -1.3792  -1.2713  -1.1500  -1.1276  -0.9115  -0.8044  -0.7597  -0.5639
    -0.3454   0.1530   0.3598   0.6081   0.7085   1.9024   1.9996   2.0992
     3.6485   3.6961   3.9326   4.1534   4.3584   4.3943   4.7155

          k = 0.0000 0.0510 0.0000 ( 30326 PWs)   bands (ev):

    -8.4699  -7.3735  -7.2837  -7.2745  -7.2635  -7.2049  -7.1695  -7.1500
    -7.1116  -7.1028  -7.0839  -7.0576  -7.0212  -6.9781  -6.8932  -6.8830
    -6.8592  -6.8590  -6.8490  -6.8015  -6.7844  -6.7692  -6.7206  -6.7094
    -6.6869  -6.6456  -6.6378  -6.6277  -6.6049  -6.5814  -6.4961  -6.1797
    -5.3723  -5.0750  -4.7695  -4.6052  -3.7512  -3.5652  -3.5086  -3.3884
    -3.2470  -3.1339  -3.0984  -2.8367  -2.8102  -2.5006  -2.4037  -2.3331
    -2.1356  -2.1077  -1.9741  -1.9340  -1.8714  -1.7513  -1.7117  -1.5925
    -1.4930  -1.4482  -1.4064  -1.2014  -1.1683  -1.0592  -1.0041  -0.7446
    -0.5640  -0.0291   0.4259   0.9037   1.1110   1.6564   1.7956   2.5855
     3.8020   3.9353   4.1721   4.3918   4.7062   4.8832   4.9492

          k = 0.0000 0.0679 0.0000 ( 30321 PWs)   bands (ev):

    -8.1553  -7.3464  -7.2258  -7.2202  -7.1844  -7.1339  -7.1335  -7.0955
    -7.0804  -7.0496  -7.0194  -7.0145  -6.9807  -6.9289  -6.8980  -6.8828
    -6.8718  -6.8296  -6.8169  -6.7892  -6.7724  -6.7691  -6.7260  -6.7154
    -6.6947  -6.6905  -6.6542  -6.6445  -6.6203  -6.6180  -6.5574  -5.9921
    -5.7573  -4.9733  -4.9400  -4.6587  -3.6890  -3.5972  -3.5241  -3.2810
    -3.2522  -3.1580  -3.0637  -2.8460  -2.8392  -2.5611  -2.5055  -2.3450
    -2.3173  -2.3085  -2.1828  -2.0756  -1.9254  -1.8831  -1.8448  -1.7800
    -1.6216  -1.5927  -1.4913  -1.4814  -1.3205  -1.2687  -1.2021  -1.0715
    -0.3242  -0.0207   0.4312   1.0756   1.2615   1.6362   1.7486   3.0582
     3.7310   4.0307   4.2228   4.6913   5.1125   5.2486   5.3974

          k = 0.0000 0.0849 0.0000 ( 30320 PWs)   bands (ev):

    -7.8053  -7.3667  -7.1799  -7.1760  -7.1240  -7.1234  -7.0810  -7.0670
    -7.0533  -7.0145  -6.9738  -6.9489  -6.9422  -6.9176  -6.8964  -6.8523
    -6.8500  -6.8062  -6.8031  -6.7848  -6.7730  -6.7523  -6.7455  -6.7310
    -6.7166  -6.7088  -6.6828  -6.6712  -6.6417  -6.6175  -6.6074  -6.1772
    -5.7100  -5.1075  -4.8726  -4.7416  -3.7247  -3.6571  -3.4680  -3.4644
    -3.2040  -3.0169  -2.9710  -2.8500  -2.6960  -2.6278  -2.5708  -2.4820
    -2.4379  -2.3803  -2.3235  -2.2739  -2.0952  -2.0120  -1.9000  -1.8671
    -1.7908  -1.7312  -1.5929  -1.5202  -1.4899  -1.3787  -1.2659  -1.2143
    -0.0767   0.0447   0.4275   0.8210   1.3061   1.5680   2.3367   3.3857
     3.6395   3.6550   4.4070   5.0195   5.5431   5.6535   5.7647

          k = 0.0000-0.1019 0.0000 ( 30320 PWs)   bands (ev):

    -7.5090  -7.5090  -7.1602  -7.1602  -7.1083  -7.1083  -7.0687  -7.0687
    -7.0122  -7.0122  -6.9442  -6.9442  -6.9329  -6.9329  -6.8422  -6.8422
    -6.8085  -6.8085  -6.7868  -6.7868  -6.7734  -6.7734  -6.7604  -6.7604
    -6.7255  -6.7255  -6.6921  -6.6921  -6.6427  -6.6427  -6.4798  -6.4798
    -5.3812  -5.3812  -4.8039  -4.8039  -3.7099  -3.7099  -3.5147  -3.5147
    -3.0677  -3.0677  -2.8628  -2.8628  -2.6538  -2.6538  -2.5233  -2.5233
    -2.4639  -2.4639  -2.3032  -2.3032  -2.2069  -2.2069  -1.9580  -1.9579
    -1.7847  -1.7846  -1.5814  -1.5814  -1.4578  -1.4577  -1.2668  -1.2668
     0.0663   0.0663   0.5338   0.5338   1.4462   1.4462   2.9939   2.9939
     3.5465   3.5465   5.0010   5.0012   5.4120   5.4121   6.0624

          k = 0.0154-0.0072 0.0000 ( 30238 PWs)   bands (ev):

    -8.8594  -7.4395  -7.4323  -7.4043  -7.3616  -7.3432  -7.2216  -7.2017
    -7.1924  -7.1589  -7.1491  -7.1163  -7.0745  -7.0595  -6.9210  -6.9039
    -6.9014  -6.8623  -6.8347  -6.8143  -6.7960  -6.7703  -6.7266  -6.6927
    -6.6723  -6.6087  -6.5930  -6.5855  -6.5841  -6.5522  -6.4253  -6.3296
    -5.1982  -5.0016  -4.5944  -4.3150  -3.9328  -3.6642  -3.5885  -3.3267
    -3.3013  -3.1792  -3.0549  -2.7480  -2.6477  -2.5052  -2.3240  -2.1731
    -2.1168  -1.8780  -1.7668  -1.6551  -1.5475  -1.4804  -1.4281  -1.3990
    -1.2340  -1.1142  -1.0724  -1.0625  -0.9143  -0.7857  -0.4055  -0.1400
     0.0386   0.1149   0.3482   0.5038   0.7362   1.6321   1.8492   2.0042
     3.3334   3.4518   3.7650   4.0152   4.1554   4.2734   4.4150

          k = 0.0154 0.0098 0.0000 ( 30195 PWs)   bands (ev):

    -8.8510  -7.4341  -7.4277  -7.4052  -7.3659  -7.3416  -7.2214  -7.2063
    -7.1834  -7.1547  -7.1485  -7.1143  -7.0737  -7.0617  -6.9280  -6.9008
    -6.8988  -6.8512  -6.8315  -6.8040  -6.7981  -6.7713  -6.7220  -6.6841
    -6.6645  -6.6160  -6.5897  -6.5887  -6.5783  -6.5418  -6.4169  -6.3229
    -5.1910  -4.9468  -4.5915  -4.2356  -3.9977  -3.7128  -3.6398  -3.4676
    -3.3269  -3.2280  -3.0905  -2.8132  -2.6865  -2.5377  -2.3584  -2.1677
    -2.1181  -1.8811  -1.7188  -1.6018  -1.5947  -1.4890  -1.4130  -1.4026
    -1.1377  -1.0610  -1.0578  -1.0276  -0.9704  -0.7341  -0.3958  -0.1580
    -0.0772   0.2060   0.3838   0.6573   1.2973   1.4867   1.5567   1.5883
     3.3982   3.4928   3.8354   3.8589   4.0274   4.3134   4.4579

          k = 0.0154 0.0268 0.0000 ( 30251 PWs)   bands (ev):

    -8.7429  -7.4095  -7.3719  -7.3630  -7.3386  -7.3222  -7.2038  -7.1898
    -7.1629  -7.1414  -7.1252  -7.0955  -7.0602  -7.0404  -6.9255  -6.8890
    -6.8809  -6.8469  -6.8201  -6.8105  -6.7914  -6.7714  -6.7161  -6.6803
    -6.6617  -6.6281  -6.6042  -6.5966  -6.5809  -6.5403  -6.4258  -6.2851
    -5.1549  -4.9801  -4.6018  -4.3191  -4.0197  -3.7155  -3.6398  -3.5946
    -3.3485  -3.2485  -3.1394  -2.8809  -2.7686  -2.5674  -2.3819  -2.2192
    -2.1237  -1.9530  -1.7366  -1.6964  -1.6430  -1.6174  -1.5126  -1.4685
    -1.2187  -1.1286  -1.1025  -1.0296  -0.8937  -0.7781  -0.5628  -0.3835
    -0.2958   0.1319   0.4640   0.8438   1.2591   1.2764   1.5568   2.0326
     3.3226   3.5438   3.7643   4.1670   4.4062   4.5417   4.5856

          k = 0.0154 0.0438 0.0000 ( 30301 PWs)   bands (ev):

    -8.5405  -7.3736  -7.3111  -7.2997  -7.2887  -7.2449  -7.1757  -7.1478
    -7.1404  -7.1161  -7.0887  -7.0666  -7.0320  -7.0009  -6.9141  -6.8689
    -6.8542  -6.8517  -6.8283  -6.7999  -6.7832  -6.7714  -6.7088  -6.6847
    -6.6647  -6.6409  -6.6307  -6.6108  -6.5926  -6.5493  -6.4531  -6.1985
    -5.1526  -5.0925  -4.6525  -4.5064  -4.0096  -3.6871  -3.6141  -3.5887
    -3.3448  -3.2584  -3.2319  -2.9515  -2.8530  -2.6005  -2.4189  -2.2893
    -2.2531  -1.9915  -1.9897  -1.8274  -1.8006  -1.6672  -1.6276  -1.4960
    -1.3983  -1.2672  -1.1751  -1.1322  -1.0463  -0.9151  -0.6599  -0.4972
    -0.4306  -0.2918   0.8212   0.8314   1.1774   1.4639   1.8021   2.0569
     3.1499   3.6585   4.1396   4.3658   4.6926   4.8616   5.1037

          k = 0.0154 0.0608 0.0000 ( 30310 PWs)   bands (ev):

    -8.2561  -7.3391  -7.2461  -7.2397  -7.2358  -7.1448  -7.1270  -7.1267
    -7.0822  -7.0797  -7.0503  -7.0322  -6.9936  -6.9574  -6.8960  -6.8670
    -6.8518  -6.8440  -6.8251  -6.7808  -6.7723  -6.7703  -6.7009  -6.7000
    -6.6717  -6.6662  -6.6539  -6.6238  -6.6118  -6.5718  -6.5002  -6.0338
    -5.5196  -5.0187  -4.7928  -4.5864  -3.9850  -3.6384  -3.6050  -3.5019
    -3.3837  -3.2830  -3.2374  -3.0069  -2.9001  -2.6630  -2.4989  -2.4506
    -2.2967  -2.2177  -2.0765  -1.9726  -1.9659  -1.7591  -1.7061  -1.5835
    -1.5220  -1.4585  -1.4010  -1.2537  -1.1425  -1.0592  -1.0032  -0.7226
    -0.4188  -0.2599   0.7002   0.8620   1.4419   1.5673   1.8504   2.5587
     3.0028   3.8119   4.3723   4.6039   4.8957   5.1468   5.3384

          k = 0.0154 0.0777 0.0000 ( 30327 PWs)   bands (ev):

    -7.9173  -7.3295  -7.2000  -7.1858  -7.1603  -7.1203  -7.1068  -7.0605
    -7.0481  -7.0155  -6.9968  -6.9949  -6.9583  -6.9194  -6.8863  -6.8732
    -6.8713  -6.8198  -6.7962  -6.7922  -6.7686  -6.7454  -6.7216  -6.7056
    -6.6957  -6.6869  -6.6657  -6.6405  -6.6148  -6.6103  -6.5618  -5.9827
    -5.7746  -4.9823  -4.9677  -4.6278  -3.9344  -3.6531  -3.5942  -3.5122
    -3.4015  -3.1645  -3.1390  -3.0188  -2.8643  -2.7444  -2.5732  -2.5322
    -2.3674  -2.2931  -2.2765  -2.1586  -1.9837  -1.9079  -1.8675  -1.6929
    -1.5854  -1.5316  -1.5065  -1.4211  -1.3227  -1.2835  -1.2147  -1.0312
    -0.3501  -0.0506   0.5615   0.7901   1.2006   2.1258   2.1555   2.8954
     3.1573   3.7779   4.4272   4.7742   4.9018   5.5167   5.6737

          k = 0.0154-0.1091 0.0000 ( 30344 PWs)   bands (ev):

    -7.5883  -7.4016  -7.1625  -7.1555  -7.1131  -7.1090  -7.0634  -7.0609
    -7.0354  -6.9952  -6.9646  -6.9358  -6.9324  -6.9129  -6.8806  -6.8486
    -6.8390  -6.8076  -6.8025  -6.7745  -6.7706  -6.7514  -6.7449  -6.7231
    -6.7138  -6.7121  -6.6867  -6.6765  -6.6694  -6.6045  -6.5276  -6.3802
    -5.4633  -5.2675  -4.9487  -4.6775  -3.8369  -3.7370  -3.5882  -3.4987
    -3.2427  -3.0719  -2.9868  -2.9317  -2.7615  -2.7429  -2.5617  -2.5543
    -2.4692  -2.3540  -2.3406  -2.3121  -2.1026  -2.0104  -1.9212  -1.8016
    -1.7246  -1.7211  -1.5897  -1.5883  -1.4095  -1.3640  -1.3517  -1.1505
    -0.4024   0.2617   0.3259   0.7160   1.1486   2.3087   2.7528   2.8578
     3.2430   3.8458   4.4601   5.2376   5.2620   5.5559   5.8923

          k = 0.0154-0.0921 0.0000 ( 30350 PWs)   bands (ev):

    -7.6310  -7.3815  -7.1573  -7.1539  -7.1114  -7.1048  -7.0695  -7.0654
    -7.0194  -7.0095  -6.9533  -6.9451  -6.9312  -6.9202  -6.8481  -6.8361
    -6.8129  -6.8013  -6.7917  -6.7831  -6.7745  -6.7686  -6.7668  -6.7623
    -6.7318  -6.7223  -6.7024  -6.6910  -6.6702  -6.6187  -6.5826  -6.3043
    -5.6067  -5.2423  -4.8579  -4.7760  -3.7985  -3.6905  -3.4393  -3.4334
    -3.0772  -3.0494  -2.9432  -2.7621  -2.6833  -2.5900  -2.5362  -2.4936
    -2.4764  -2.4220  -2.3008  -2.2953  -2.2256  -2.1634  -1.9602  -1.9566
    -1.8507  -1.7521  -1.6346  -1.6001  -1.4860  -1.4139  -1.3311  -1.1730
    -0.4826   0.0465   0.4613   0.7735   1.1917   2.4308   2.6187   2.7302
     3.4714   4.4840   4.6268   5.1988   5.4594   5.6149   5.6655

          k = 0.0154-0.0751 0.0000 ( 30382 PWs)   bands (ev):

    -7.9706  -7.3272  -7.1892  -7.1879  -7.1359  -7.1312  -7.0961  -7.0722
    -7.0659  -7.0348  -6.9830  -6.9547  -6.9507  -6.9286  -6.9039  -6.8636
    -6.8445  -6.8115  -6.8014  -6.7923  -6.7715  -6.7665  -6.7510  -6.7303
    -6.7273  -6.7150  -6.6841  -6.6745  -6.6571  -6.6218  -6.6014  -5.9421
    -5.9130  -5.1482  -4.9088  -4.7007  -3.7334  -3.5382  -3.4117  -3.1867
    -3.1701  -2.9692  -2.9417  -2.6921  -2.6623  -2.5663  -2.5374  -2.3923
    -2.3730  -2.3462  -2.2896  -2.1966  -2.1081  -1.9986  -1.9269  -1.9092
    -1.8499  -1.7620  -1.6509  -1.5390  -1.4922  -1.3989  -1.2635  -1.1627
    -0.5653  -0.2216   0.3855   1.1258   1.2453   1.9701   2.5657   2.6488
     4.1080   4.5476   4.8385   4.8597   4.9598   5.3895   5.4637

          k = 0.0154-0.0581 0.0000 ( 30329 PWs)   bands (ev):

    -8.3063  -7.3474  -7.2436  -7.2416  -7.2019  -7.1504  -7.1485  -7.1318
    -7.0948  -7.0693  -7.0347  -7.0311  -6.9947  -6.9370  -6.9121  -6.8881
    -6.8659  -6.8430  -6.8311  -6.7966  -6.7826  -6.7697  -6.7340  -6.7308
    -6.7097  -6.6756  -6.6556  -6.6507  -6.6273  -6.5952  -6.5538  -6.1292
    -5.5708  -5.0309  -5.0053  -4.6286  -3.5888  -3.5232  -3.4279  -3.2076
    -3.0914  -2.9892  -2.9434  -2.8747  -2.6452  -2.5043  -2.4450  -2.3740
    -2.2085  -2.1047  -2.0831  -2.0172  -1.9377  -1.8569  -1.8516  -1.7840
    -1.6706  -1.6025  -1.5264  -1.4758  -1.3607  -1.2624  -1.1421  -1.0970
    -0.6149  -0.4530   0.2545   1.2356   1.4046   1.5630   2.5347   2.6302
     4.1320   4.3260   4.5692   4.6006   4.6692   5.0833   5.3268

          k = 0.0154-0.0411 0.0000 ( 30325 PWs)   bands (ev):

    -8.5799  -7.3878  -7.3109  -7.2898  -7.2787  -7.2501  -7.1842  -7.1702
    -7.1247  -7.1147  -7.0995  -7.0736  -7.0354  -6.9897  -6.8951  -6.8876
    -6.8732  -6.8636  -6.8619  -6.8180  -6.7846  -6.7679  -6.7314  -6.7185
    -6.6980  -6.6349  -6.6298  -6.6266  -6.5914  -6.5910  -6.4939  -6.2509
    -5.3024  -5.1209  -4.7611  -4.6099  -3.6820  -3.4466  -3.4425  -3.3645
    -3.2053  -2.9953  -2.9374  -2.8001  -2.6419  -2.4459  -2.3665  -2.3283
    -2.0512  -2.0237  -1.9310  -1.9083  -1.8250  -1.7241  -1.6745  -1.5413
    -1.4846  -1.4582  -1.3317  -1.1509  -1.1127  -1.0667  -1.0071  -0.6754
    -0.6363  -0.5570   0.1443   0.8470   1.1447   1.9932   2.3663   2.5719
     3.6797   3.9184   4.3101   4.4271   4.4462   4.5575   4.8063

          k = 0.0154-0.0242 0.0000 ( 30243 PWs)   bands (ev):

    -8.7677  -7.4226  -7.3784  -7.3615  -7.3290  -7.3253  -7.2083  -7.1874
    -7.1714  -7.1479  -7.1302  -7.1018  -7.0626  -7.0339  -6.9063  -6.8947
    -6.8894  -6.8775  -6.8345  -6.8302  -6.7909  -6.7687  -6.7297  -6.7045
    -6.6840  -6.6148  -6.6058  -6.5983  -6.5900  -6.5686  -6.4507  -6.3089
    -5.1757  -5.1228  -4.6026  -4.5023  -3.8250  -3.5654  -3.4911  -3.3391
    -3.2732  -3.0738  -2.9934  -2.6855  -2.6831  -2.4723  -2.2986  -2.2514
    -2.0871  -1.8978  -1.8338  -1.7977  -1.6755  -1.5325  -1.5177  -1.4798
    -1.3757  -1.2548  -1.1421  -1.1368  -0.9130  -0.7801  -0.5849  -0.5432
    -0.3467  -0.0827   0.2269   0.4180   0.8003   2.0690   2.1794   2.3602
     3.4388   3.5254   4.0147   4.0564   4.2351   4.3018   4.6439

          k = 0.0308-0.0144 0.0000 ( 30308 PWs)   bands (ev):

    -8.7103  -7.4106  -7.3557  -7.3382  -7.3169  -7.3156  -7.1999  -7.1732
    -7.1654  -7.1406  -7.1195  -7.0923  -7.0553  -7.0258  -6.9105  -6.8857
    -6.8794  -6.8702  -6.8330  -6.8226  -6.7893  -6.7694  -6.7245  -6.6986
    -6.6785  -6.6201  -6.6093  -6.6083  -6.5927  -6.5609  -6.4514  -6.2819
    -5.1524  -5.1266  -4.6161  -4.5019  -3.8591  -3.6059  -3.5167  -3.4190
    -3.2933  -3.1512  -3.0487  -2.7733  -2.7322  -2.4963  -2.3436  -2.2538
    -2.0834  -1.9035  -1.8803  -1.7709  -1.6852  -1.6668  -1.5720  -1.4782
    -1.3792  -1.2713  -1.1500  -1.1276  -0.9115  -0.8044  -0.7597  -0.5639
    -0.3454   0.1530   0.3598   0.6081   0.7085   1.9024   1.9996   2.0992
     3.6484   3.6960   3.9324   4.1532   4.3569   4.3941   4.7150

          k = 0.0308 0.0026 0.0000 ( 30251 PWs)   bands (ev):

    -8.7429  -7.4095  -7.3719  -7.3630  -7.3386  -7.3222  -7.2038  -7.1898
    -7.1629  -7.1413  -7.1252  -7.0955  -7.0602  -7.0404  -6.9255  -6.8890
    -6.8809  -6.8469  -6.8201  -6.8105  -6.7914  -6.7714  -6.7161  -6.6803
    -6.6617  -6.6281  -6.6042  -6.5966  -6.5809  -6.5403  -6.4258  -6.2851
    -5.1549  -4.9801  -4.6018  -4.3191  -4.0197  -3.7155  -3.6398  -3.5946
    -3.3485  -3.2485  -3.1394  -2.8809  -2.7686  -2.5674  -2.3819  -2.2192
    -2.1237  -1.9530  -1.7366  -1.6964  -1.6430  -1.6174  -1.5126  -1.4685
    -1.2187  -1.1286  -1.1025  -1.0296  -0.8937  -0.7781  -0.5628  -0.3835
    -0.2958   0.1319   0.4640   0.8438   1.2591   1.2764   1.5568   2.0326
     3.3226   3.5438   3.7643   4.1670   4.4062   4.5416   4.5856

          k = 0.0308 0.0196 0.0000 ( 30257 PWs)   bands (ev):

    -8.6769  -7.3877  -7.3633  -7.3387  -7.3169  -7.3112  -7.1967  -7.1870
    -7.1408  -7.1286  -7.1151  -7.0815  -7.0514  -7.0304  -6.9303  -6.8841
    -6.8693  -6.8286  -6.8095  -6.7982  -6.7909  -6.7724  -6.7063  -6.6662
    -6.6490  -6.6443  -6.6112  -6.5933  -6.5737  -6.5296  -6.4172  -6.2597
    -5.1320  -4.8987  -4.5979  -4.2123  -4.1487  -3.8615  -3.7727  -3.7105
    -3.3962  -3.2986  -3.2375  -2.9609  -2.8549  -2.6420  -2.4092  -2.2635
    -2.2227  -2.0020  -1.8065  -1.6537  -1.6488  -1.6104  -1.4881  -1.4507
    -1.1319  -1.0817  -1.0413  -0.9990  -0.9876  -0.7380  -0.7326  -0.6520
    -0.2870   0.4251   0.4336   0.9235   0.9268   1.3447   1.9825   2.0577
     2.9203   3.5346   4.0181   4.1876   4.2549   4.4189   4.7309

          k = 0.0308 0.0366 0.0000 ( 30276 PWs)   bands (ev):

    -8.5155  -7.3525  -7.3316  -7.2946  -7.2862  -7.2413  -7.1717  -7.1659
    -7.1191  -7.1059  -7.0872  -7.0553  -7.0272  -6.9980  -6.9252  -6.8709
    -6.8493  -6.8225  -6.8030  -6.7904  -6.7831  -6.7703  -6.6954  -6.6680
    -6.6543  -6.6425  -6.6288  -6.5986  -6.5765  -6.5294  -6.4264  -6.1896
    -5.0931  -4.9447  -4.6170  -4.3665  -4.2383  -3.8911  -3.7807  -3.7326
    -3.4243  -3.3654  -3.3230  -3.0389  -2.9375  -2.7171  -2.4406  -2.4284
    -2.3133  -2.0017  -2.0003  -1.7827  -1.6948  -1.6162  -1.5895  -1.4237
    -1.3105  -1.1228  -1.0922  -1.0352  -0.9990  -0.9264  -0.7996  -0.6862
    -0.2738   0.0303   0.3017   1.0791   1.3329   1.5831   1.9177   2.1762
     2.6180   3.7806   3.9353   4.3881   4.4866   4.8845   5.0865

          k = 0.0308 0.0536 0.0000 ( 30292 PWs)   bands (ev):

    -8.2680  -7.3128  -7.2782  -7.2515  -7.2384  -7.1477  -7.1394  -7.1166
    -7.1085  -7.0729  -7.0514  -7.0245  -6.9914  -6.9572  -6.9115  -6.8515
    -6.8364  -6.8269  -6.8165  -6.7750  -6.7653  -6.7644  -6.6888  -6.6841
    -6.6561  -6.6554  -6.6451  -6.6074  -6.5896  -6.5404  -6.4553  -6.0462
    -5.2433  -5.0684  -4.6967  -4.5099  -4.2644  -3.7643  -3.7592  -3.7103
    -3.5126  -3.4050  -3.3393  -3.1272  -2.9856  -2.7990  -2.6189  -2.4968
    -2.3278  -2.2197  -1.9964  -1.9861  -1.8767  -1.7293  -1.5920  -1.4930
    -1.4281  -1.3717  -1.2045  -1.1958  -1.0582  -0.9169  -0.8501  -0.5050
    -0.4704  -0.3957   0.2146   1.4429   1.4996   1.7221   2.0900   2.2509
     2.4242   3.7358   4.2458   4.5842   5.0462   5.1253   5.4243

          k = 0.0308 0.0706 0.0000 ( 30335 PWs)   bands (ev):

    -7.9549  -7.2815  -7.2115  -7.2096  -7.1848  -7.1071  -7.1039  -7.0633
    -7.0480  -7.0379  -7.0186  -6.9920  -6.9561  -6.9338  -6.8907  -6.8618
    -6.8372  -6.8300  -6.8045  -6.7736  -6.7611  -6.7390  -6.7080  -6.6887
    -6.6742  -6.6706  -6.6582  -6.6141  -6.6024  -6.5645  -6.5058  -5.8094
    -5.7226  -5.0994  -4.8552  -4.5312  -4.1791  -3.7752  -3.7521  -3.6148
    -3.5746  -3.3193  -3.3099  -3.1834  -2.9832  -2.8782  -2.6991  -2.5752
    -2.3579  -2.2985  -2.2012  -2.0609  -1.9946  -1.8375  -1.7606  -1.5806
    -1.5733  -1.3720  -1.3595  -1.2939  -1.1282  -1.0584  -0.9948  -0.8287
    -0.6683  -0.2222   0.2014   0.9674   1.8898   1.9915   2.3477   2.4262
     2.8378   3.6264   4.6264   4.7441   4.8450   5.3503   5.4731

          k = 0.0308-0.1163 0.0000 ( 30332 PWs)   bands (ev):

    -7.6227  -7.2923  -7.1701  -7.1505  -7.1357  -7.1041  -7.0740  -7.0418
    -7.0061  -6.9985  -6.9723  -6.9647  -6.9284  -6.9106  -6.8825  -6.8642
    -6.8604  -6.8113  -6.7864  -6.7818  -6.7627  -6.7303  -6.7258  -6.7109
    -6.6955  -6.6818  -6.6797  -6.6452  -6.6129  -6.5643  -6.5465  -6.1990
    -5.5273  -5.1402  -5.1194  -4.5535  -4.0150  -3.8659  -3.7923  -3.4956
    -3.4582  -3.2247  -3.1530  -3.1361  -2.9200  -2.9001  -2.6953  -2.6107
    -2.4079  -2.3427  -2.2545  -2.2123  -2.0397  -1.9362  -1.9267  -1.6160
    -1.6152  -1.5480  -1.4481  -1.3830  -1.3632  -1.2712  -1.2093  -0.9603
    -0.8521  -0.0832   0.3401   0.5507   1.9657   2.1435   2.7192   2.9838
     3.2328   3.4588   4.4820   5.1347   5.1442   5.3462   5.4325

          k = 0.0308-0.0993 0.0000 ( 30350 PWs)   bands (ev):

    -7.4252  -7.3698  -7.1379  -7.1354  -7.0994  -7.0921  -7.0577  -7.0514
    -7.0178  -6.9945  -6.9607  -6.9297  -6.9060  -6.9056  -6.8663  -6.8368
    -6.8271  -6.8029  -6.8019  -6.7726  -6.7661  -6.7504  -6.7500  -6.7265
    -6.7222  -6.7121  -6.7040  -6.6965  -6.6840  -6.5904  -6.5165  -6.3741
    -5.4538  -5.4267  -4.9587  -4.6582  -4.0097  -3.8207  -3.5630  -3.4203
    -3.2554  -3.1216  -3.0614  -2.9018  -2.8198  -2.7868  -2.6314  -2.5937
    -2.4224  -2.3511  -2.2994  -2.2983  -2.1000  -2.0068  -1.9579  -1.7523
    -1.7498  -1.6745  -1.6580  -1.6085  -1.4260  -1.3790  -1.3538  -1.0596
    -0.9016  -0.1006   0.2063   0.6585   2.0561   2.1040   2.8982   3.3419
     3.4369   3.6539   4.9239   5.2503   5.2631   5.3664   5.6113

          k = 0.0308-0.0823 0.0000 ( 30377 PWs)   bands (ev):

    -7.7172  -7.2807  -7.1468  -7.1455  -7.1162  -7.1021  -7.0685  -7.0634
    -7.0266  -7.0112  -6.9703  -6.9430  -6.9259  -6.8944  -6.8569  -6.8281
    -6.8121  -6.7980  -6.7911  -6.7892  -6.7779  -6.7750  -6.7625  -6.7578
    -6.7411  -6.7271  -6.7193  -6.6990  -6.6867  -6.6486  -6.5791  -6.0635
    -5.7774  -5.4217  -4.8130  -4.7050  -3.9773  -3.6279  -3.3829  -3.2190
    -3.0765  -3.0350  -2.9951  -2.6599  -2.6371  -2.6036  -2.5278  -2.4919
    -2.4209  -2.3929  -2.3179  -2.2867  -2.1986  -2.1021  -1.9675  -1.9399
    -1.8956  -1.7436  -1.7035  -1.6286  -1.4779  -1.4078  -1.4044  -1.0818
    -0.9489  -0.1647  -0.0799   1.0577   2.0614   2.1313   2.3316   3.5205
     3.9825   4.3387   4.5858   5.0602   5.2740   5.4604   5.6127

          k = 0.0308-0.0653 0.0000 ( 30363 PWs)   bands (ev):

    -8.0583  -7.2975  -7.1918  -7.1917  -7.1426  -7.1408  -7.1044  -7.0755
    -7.0719  -7.0443  -6.9889  -6.9554  -6.9520  -6.9435  -6.9022  -6.8687
    -6.8393  -6.8226  -6.8007  -6.7862  -6.7820  -6.7775  -6.7514  -6.7396
    -6.7291  -6.7212  -6.6876  -6.6780  -6.6691  -6.6218  -6.5808  -6.0257
    -5.7264  -5.3133  -4.9532  -4.6173  -3.7912  -3.4178  -3.3757  -3.1766
    -2.9444  -2.9038  -2.8810  -2.6637  -2.6593  -2.5171  -2.4662  -2.3780
    -2.3473  -2.2667  -2.2655  -2.1568  -2.1111  -2.0078  -1.9502  -1.9158
    -1.8422  -1.7813  -1.6674  -1.5124  -1.4918  -1.4110  -1.3331  -1.0964
    -0.9444  -0.3121  -0.2178   1.5137   1.7468   2.0258   2.1571   3.3930
     4.0282   4.5254   4.7760   4.8654   5.2494   5.2639   5.3384

          k = 0.0308-0.0483 0.0000 ( 30389 PWs)   bands (ev):

    -8.3578  -7.3451  -7.2516  -7.2465  -7.2082  -7.1572  -7.1557  -7.1458
    -7.0992  -7.0741  -7.0401  -7.0379  -6.9994  -6.9401  -6.9182  -6.8895
    -6.8629  -6.8505  -6.8344  -6.8071  -6.7792  -6.7708  -6.7368  -6.7366
    -6.7177  -6.6683  -6.6572  -6.6516  -6.6316  -6.5844  -6.5525  -6.1762
    -5.4892  -5.0561  -5.0525  -4.6123  -3.5835  -3.5164  -3.2928  -3.2668
    -2.9937  -2.9326  -2.8905  -2.8123  -2.5799  -2.5181  -2.4217  -2.3858
    -2.1520  -2.0692  -2.0556  -1.9758  -1.9364  -1.9065  -1.8436  -1.6886
    -1.6857  -1.5874  -1.5461  -1.4758  -1.2650  -1.2594  -1.2130  -1.1172
    -0.7932  -0.4931  -0.1769   1.2558   1.8189   1.9914   2.0143   3.0119
     3.9451   4.3252   4.5591   4.6154   4.7742   5.0197   5.0922

          k = 0.0308-0.0313 0.0000 ( 30325 PWs)   bands (ev):

    -8.5799  -7.3878  -7.3109  -7.2898  -7.2787  -7.2501  -7.1842  -7.1702
    -7.1247  -7.1147  -7.0995  -7.0736  -7.0354  -6.9897  -6.8951  -6.8876
    -6.8732  -6.8636  -6.8619  -6.8180  -6.7846  -6.7679  -6.7314  -6.7185
    -6.6980  -6.6349  -6.6298  -6.6266  -6.5914  -6.5910  -6.4939  -6.2509
    -5.3024  -5.1209  -4.7611  -4.6099  -3.6820  -3.4466  -3.4425  -3.3645
    -3.2053  -2.9953  -2.9374  -2.8001  -2.6419  -2.4459  -2.3665  -2.3283
    -2.0512  -2.0237  -1.9310  -1.9083  -1.8250  -1.7241  -1.6745  -1.5413
    -1.4846  -1.4582  -1.3317  -1.1509  -1.1127  -1.0667  -1.0071  -0.6754
    -0.6363  -0.5570   0.1443   0.8470   1.1447   1.9932   2.3663   2.5719
     3.6798   3.9183   4.3102   4.4271   4.4462   4.5575   4.8063

          k = 0.0462-0.0215 0.0000 ( 30326 PWs)   bands (ev):

    -8.4699  -7.3735  -7.2837  -7.2745  -7.2635  -7.2049  -7.1695  -7.1500
    -7.1116  -7.1028  -7.0839  -7.0576  -7.0212  -6.9781  -6.8932  -6.8830
    -6.8592  -6.8590  -6.8490  -6.8015  -6.7844  -6.7692  -6.7206  -6.7094
    -6.6869  -6.6456  -6.6378  -6.6277  -6.6049  -6.5814  -6.4961  -6.1797
    -5.3723  -5.0750  -4.7695  -4.6052  -3.7512  -3.5652  -3.5086  -3.3884
    -3.2470  -3.1339  -3.0984  -2.8367  -2.8102  -2.5006  -2.4037  -2.3331
    -2.1356  -2.1077  -1.9741  -1.9340  -1.8714  -1.7513  -1.7117  -1.5925
    -1.4930  -1.4482  -1.4064  -1.2014  -1.1684  -1.0592  -1.0041  -0.7446
    -0.5640  -0.0291   0.4259   0.9037   1.1110   1.6564   1.7956   2.5855
     3.8020   3.9353   4.1721   4.3918   4.7061   4.8832   4.9490

          k = 0.0462-0.0045 0.0000 ( 30301 PWs)   bands (ev):

    -8.5405  -7.3736  -7.3111  -7.2997  -7.2887  -7.2449  -7.1757  -7.1478
    -7.1404  -7.1161  -7.0887  -7.0666  -7.0320  -7.0009  -6.9141  -6.8689
    -6.8542  -6.8517  -6.8283  -6.7999  -6.7832  -6.7714  -6.7088  -6.6847
    -6.6647  -6.6409  -6.6307  -6.6108  -6.5926  -6.5493  -6.4531  -6.1985
    -5.1526  -5.0925  -4.6525  -4.5064  -4.0096  -3.6871  -3.6141  -3.5887
    -3.3448  -3.2584  -3.2319  -2.9515  -2.8530  -2.6005  -2.4189  -2.2893
    -2.2531  -1.9915  -1.9897  -1.8274  -1.8006  -1.6672  -1.6276  -1.4960
    -1.3983  -1.2672  -1.1751  -1.1322  -1.0463  -0.9151  -0.6599  -0.4972
    -0.4306  -0.2918   0.8212   0.8314   1.1774   1.4639   1.8021   2.0569
     3.1499   3.6585   4.1395   4.3658   4.6915   4.8614   5.1032

          k = 0.0462 0.0124 0.0000 ( 30276 PWs)   bands (ev):

    -8.5155  -7.3525  -7.3316  -7.2946  -7.2862  -7.2413  -7.1717  -7.1659
    -7.1191  -7.1059  -7.0872  -7.0553  -7.0272  -6.9980  -6.9252  -6.8709
    -6.8493  -6.8225  -6.8030  -6.7904  -6.7831  -6.7703  -6.6954  -6.6680
    -6.6543  -6.6425  -6.6288  -6.5986  -6.5765  -6.5294  -6.4264  -6.1896
    -5.0931  -4.9447  -4.6170  -4.3665  -4.2383  -3.8911  -3.7807  -3.7326
    -3.4243  -3.3654  -3.3230  -3.0389  -2.9375  -2.7171  -2.4406  -2.4284
    -2.3133  -2.0017  -2.0003  -1.7827  -1.6948  -1.6162  -1.5895  -1.4237
    -1.3105  -1.1228  -1.0922  -1.0352  -0.9990  -0.9264  -0.7996  -0.6862
    -0.2738   0.0303   0.3017   1.0791   1.3329   1.5831   1.9177   2.1762
     2.6180   3.7806   3.9353   4.3880   4.4866   4.8846   5.0867

          k = 0.0462 0.0294 0.0000 ( 30316 PWs)   bands (ev):

    -8.3968  -7.3278  -7.3183  -7.2700  -7.2667  -7.2031  -7.1644  -7.1501
    -7.0942  -7.0852  -7.0766  -7.0297  -7.0061  -6.9685  -6.9259  -6.8647
    -6.8379  -6.8013  -6.7895  -6.7859  -6.7726  -6.7622  -6.6813  -6.6804
    -6.6454  -6.6379  -6.6268  -6.5938  -6.5685  -6.5206  -6.4167  -6.1400
    -5.1020  -4.8111  -4.6068  -4.3997  -4.2826  -4.1804  -3.8470  -3.8107
    -3.4829  -3.4791  -3.3855  -3.1054  -3.0271  -2.8339  -2.6184  -2.4724
    -2.3869  -2.1502  -1.9855  -1.7879  -1.7380  -1.5815  -1.5316  -1.4255
    -1.3696  -1.1997  -1.1746  -1.0892  -1.0001  -0.9767  -0.7449  -0.7253
    -0.1800  -0.0732   0.2222   1.2227   1.2849   1.4878   2.2479   2.3867
     2.6044   3.7263   4.0468   4.4759   4.7586   4.9379   4.9921

          k = 0.0462 0.0464 0.0000 ( 30325 PWs)   bands (ev):

    -8.1916  -7.2989  -7.2790  -7.2431  -7.2248  -7.1541  -7.1271  -7.1228
    -7.0843  -7.0559  -7.0517  -6.9987  -6.9729  -6.9262  -6.9165  -6.8518
    -6.8241  -6.8122  -6.7842  -6.7811  -6.7487  -6.7466  -6.7007  -6.6660
    -6.6554  -6.6421  -6.6206  -6.5946  -6.5715  -6.5231  -6.4260  -6.0225
    -5.1707  -4.9471  -4.6398  -4.4814  -4.4361  -4.0162  -3.9082  -3.8143
    -3.6214  -3.5019  -3.4123  -3.1945  -3.0884  -2.9384  -2.7955  -2.5190
    -2.4261  -2.3267  -1.9814  -1.9729  -1.8041  -1.7462  -1.5214  -1.5075
    -1.4304  -1.3329  -1.2085  -1.1145  -1.0287  -1.0156  -0.8109  -0.6040
    -0.2078  -0.1720  -0.0762   1.4480   1.4892   1.8475   2.0645   2.0977
     2.8609   3.7774   4.4778   4.6288   4.8853   4.9983   5.5174

          k = 0.0462 0.0634 0.0000 ( 30320 PWs)   bands (ev):

    -7.9167  -7.2480  -7.2398  -7.2102  -7.1814  -7.1012  -7.0924  -7.0806
    -7.0597  -7.0308  -7.0281  -6.9656  -6.9409  -6.9021  -6.8985  -6.8401
    -6.8348  -6.8097  -6.7997  -6.7703  -6.7312  -6.7264  -6.7146  -6.6825
    -6.6524  -6.6505  -6.6286  -6.5938  -6.5859  -6.5371  -6.4570  -5.8156
    -5.4096  -5.3078  -4.7365  -4.4748  -4.3218  -3.9807  -3.8338  -3.7636
    -3.7556  -3.4591  -3.4086  -3.3011  -3.1103  -3.0017  -2.8968  -2.5811
    -2.4518  -2.4059  -2.1902  -1.9760  -1.9703  -1.8430  -1.6929  -1.5889
    -1.4823  -1.3190  -1.2515  -1.1683  -1.1325  -1.0499  -0.9156  -0.5293
    -0.5250  -0.3549  -0.0350   1.3692   1.6488   1.8905   2.2178   2.4745
     2.9320   4.1267   4.2921   4.7480   4.9255   5.0640   5.4919

          k = 0.0462-0.1234 0.0000 ( 30341 PWs)   bands (ev):

    -7.6080  -7.2091  -7.1839  -7.1794  -7.1462  -7.0828  -7.0670  -7.0295
    -7.0215  -7.0123  -6.9854  -6.9403  -6.9204  -6.9162  -6.8742  -6.8675
    -6.8284  -6.8177  -6.7931  -6.7653  -6.7395  -6.7191  -6.7155  -6.7021
    -6.6747  -6.6550  -6.6482  -6.6148  -6.5605  -6.5499  -6.5121  -5.9228
    -5.6188  -5.3567  -4.9463  -4.4420  -4.1527  -4.0255  -3.9859  -3.6372
    -3.5748  -3.3721  -3.3495  -3.3120  -3.0849  -3.0224  -2.9054  -2.6149
    -2.4999  -2.3336  -2.3214  -2.1112  -1.9847  -1.9311  -1.8794  -1.6355
    -1.5080  -1.3678  -1.3277  -1.3161  -1.1922  -1.1046  -1.0233  -0.9805
    -0.6218  -0.5065   0.2398   0.8757   1.6323   2.2489   2.6956   2.9554
     3.1357   4.0558   4.5444   4.6636   4.7379   5.1962   5.9582

          k = 0.0462-0.1065 0.0000 ( 30376 PWs)   bands (ev):

    -7.3407  -7.2451  -7.1451  -7.1319  -7.1171  -7.0842  -7.0428  -7.0305
    -7.0132  -6.9895  -6.9512  -6.9384  -6.9034  -6.8876  -6.8870  -6.8553
    -6.8477  -6.8060  -6.7745  -6.7745  -6.7528  -6.7352  -6.7323  -6.7092
    -6.7043  -6.6919  -6.6698  -6.6536  -6.6175  -6.5639  -6.4003  -6.3566
    -5.6907  -5.2500  -5.0343  -4.5121  -4.2438  -3.9989  -3.7515  -3.4653
    -3.4344  -3.2823  -3.2028  -3.1887  -2.9838  -2.9736  -2.8359  -2.5899
    -2.4933  -2.3393  -2.2465  -2.2325  -2.0762  -1.9611  -1.9433  -1.6764
    -1.5684  -1.5483  -1.4409  -1.4147  -1.3499  -1.2765  -1.2579  -1.1181
    -0.8913  -0.5113   0.4490   0.5860   1.5975   2.7271   3.0695   3.2463
     3.2786   4.2319   4.4648   4.6210   4.8978   5.5671   5.7866

          k = 0.0462-0.0895 0.0000 ( 30369 PWs)   bands (ev):

    -7.4363  -7.2178  -7.1362  -7.1130  -7.0904  -7.0743  -7.0588  -7.0525
    -7.0091  -7.0062  -6.9607  -6.9359  -6.8994  -6.8650  -6.8559  -6.8302
    -6.8174  -6.8034  -6.7920  -6.7785  -6.7665  -6.7536  -6.7502  -6.7372
    -6.7305  -6.7192  -6.7180  -6.7048  -6.6996  -6.6047  -6.5504  -6.1188
    -5.7508  -5.5709  -4.6785  -4.6734  -4.3049  -3.8309  -3.4105  -3.3708
    -3.2559  -3.1676  -3.0762  -2.9633  -2.8131  -2.7855  -2.6990  -2.5382
    -2.4523  -2.3794  -2.2814  -2.2271  -2.0926  -1.9973  -1.9515  -1.7724
    -1.7134  -1.6810  -1.6535  -1.6331  -1.4930  -1.3763  -1.3667  -1.1900
    -0.9954  -0.5076   0.1216   0.9848   1.5750   2.7121   3.0926   3.5150
     3.8803   4.1987   4.5062   4.6634   5.0667   5.3414   5.9878

          k = 0.0462-0.0725 0.0000 ( 30353 PWs)   bands (ev):

    -7.7480  -7.2381  -7.1435  -7.1403  -7.1212  -7.1010  -7.0684  -7.0635
    -7.0300  -7.0125  -6.9787  -6.9409  -6.9223  -6.8729  -6.8664  -6.8200
    -6.8106  -6.8102  -6.7915  -6.7862  -6.7803  -6.7797  -6.7546  -6.7504
    -6.7467  -6.7357  -6.7342  -6.7032  -6.6906  -6.6607  -6.5687  -5.8501
    -5.8414  -5.6413  -4.8354  -4.5865  -4.0841  -3.5963  -3.3696  -3.0889
    -3.0735  -3.0316  -3.0132  -2.6666  -2.5892  -2.5428  -2.5326  -2.5130
    -2.4054  -2.3838  -2.3836  -2.2832  -2.1232  -2.0656  -1.9933  -1.9800
    -1.8543  -1.7416  -1.7168  -1.6419  -1.4534  -1.4279  -1.4057  -1.1632
    -1.0460  -0.4424  -0.1261   1.3923   1.6170   2.2067   2.9846   3.5490
     4.2394   4.3436   4.5097   4.9034   4.9690   5.1757   5.6529

          k = 0.0462-0.0555 0.0000 ( 30363 PWs)   bands (ev):

    -8.0583  -7.2975  -7.1918  -7.1917  -7.1426  -7.1408  -7.1044  -7.0755
    -7.0719  -7.0443  -6.9889  -6.9554  -6.9520  -6.9435  -6.9022  -6.8687
    -6.8393  -6.8226  -6.8007  -6.7862  -6.7820  -6.7775  -6.7514  -6.7396
    -6.7291  -6.7212  -6.6876  -6.6780  -6.6691  -6.6218  -6.5808  -6.0257
    -5.7264  -5.3133  -4.9532  -4.6173  -3.7912  -3.4178  -3.3757  -3.1766
    -2.9444  -2.9038  -2.8810  -2.6637  -2.6593  -2.5171  -2.4662  -2.3780
    -2.3473  -2.2667  -2.2655  -2.1568  -2.1111  -2.0078  -1.9502  -1.9158
    -1.8422  -1.7813  -1.6674  -1.5124  -1.4918  -1.4110  -1.3331  -1.0964
    -0.9444  -0.3121  -0.2178   1.5137   1.7468   2.0258   2.1571   3.3930
     4.0282   4.5254   4.7758   4.8653   5.2493   5.2634   5.3376

          k = 0.0462-0.0385 0.0000 ( 30329 PWs)   bands (ev):

    -8.3063  -7.3474  -7.2436  -7.2416  -7.2019  -7.1504  -7.1485  -7.1318
    -7.0948  -7.0693  -7.0347  -7.0311  -6.9947  -6.9370  -6.9121  -6.8881
    -6.8659  -6.8430  -6.8311  -6.7966  -6.7826  -6.7697  -6.7340  -6.7308
    -6.7097  -6.6756  -6.6556  -6.6507  -6.6273  -6.5952  -6.5538  -6.1292
    -5.5708  -5.0309  -5.0053  -4.6286  -3.5888  -3.5232  -3.4279  -3.2076
    -3.0914  -2.9892  -2.9434  -2.8747  -2.6452  -2.5043  -2.4450  -2.3740
    -2.2085  -2.1047  -2.0831  -2.0172  -1.9377  -1.8569  -1.8516  -1.7840
    -1.6706  -1.6025  -1.5264  -1.4758  -1.3607  -1.2624  -1.1421  -1.0970
    -0.6149  -0.4530   0.2545   1.2356   1.4046   1.5630   2.5347   2.6302
     4.1320   4.3260   4.5692   4.6007   4.6693   5.0833   5.3268

          k = 0.0616-0.0287 0.0000 ( 30321 PWs)   bands (ev):

    -8.1553  -7.3464  -7.2258  -7.2202  -7.1844  -7.1339  -7.1335  -7.0955
    -7.0804  -7.0496  -7.0194  -7.0145  -6.9807  -6.9289  -6.8980  -6.8828
    -6.8718  -6.8296  -6.8169  -6.7892  -6.7724  -6.7691  -6.7260  -6.7154
    -6.6947  -6.6905  -6.6542  -6.6445  -6.6203  -6.6180  -6.5574  -5.9921
    -5.7573  -4.9733  -4.9400  -4.6587  -3.6890  -3.5972  -3.5241  -3.2810
    -3.2522  -3.1580  -3.0637  -2.8460  -2.8392  -2.5611  -2.5055  -2.3450
    -2.3173  -2.3085  -2.1828  -2.0756  -1.9254  -1.8831  -1.8448  -1.7800
    -1.6216  -1.5927  -1.4913  -1.4814  -1.3205  -1.2687  -1.2021  -1.0715
    -0.3242  -0.0207   0.4312   1.0756   1.2615   1.6362   1.7486   3.0582
     3.7310   4.0307   4.2228   4.6913   5.1124   5.2484   5.3980

          k = 0.0616-0.0117 0.0000 ( 30310 PWs)   bands (ev):

    -8.2561  -7.3391  -7.2461  -7.2397  -7.2358  -7.1448  -7.1270  -7.1267
    -7.0822  -7.0797  -7.0503  -7.0322  -6.9936  -6.9574  -6.8960  -6.8670
    -6.8518  -6.8440  -6.8251  -6.7808  -6.7723  -6.7703  -6.7009  -6.7000
    -6.6717  -6.6662  -6.6539  -6.6238  -6.6118  -6.5718  -6.5002  -6.0338
    -5.5196  -5.0187  -4.7928  -4.5864  -3.9850  -3.6384  -3.6050  -3.5019
    -3.3837  -3.2830  -3.2374  -3.0069  -2.9001  -2.6630  -2.4989  -2.4506
    -2.2968  -2.2177  -2.0765  -1.9726  -1.9659  -1.7591  -1.7061  -1.5835
    -1.5220  -1.4585  -1.4010  -1.2537  -1.1425  -1.0592  -1.0032  -0.7226
    -0.4188  -0.2599   0.7002   0.8620   1.4419   1.5673   1.8504   2.5587
     3.0028   3.8119   4.3723   4.6040   4.8957   5.1479   5.3384

          k = 0.0616 0.0053 0.0000 ( 30292 PWs)   bands (ev):

    -8.2680  -7.3128  -7.2782  -7.2515  -7.2384  -7.1477  -7.1394  -7.1166
    -7.1085  -7.0729  -7.0514  -7.0245  -6.9914  -6.9572  -6.9115  -6.8515
    -6.8364  -6.8269  -6.8165  -6.7750  -6.7653  -6.7644  -6.6888  -6.6841
    -6.6561  -6.6554  -6.6451  -6.6074  -6.5896  -6.5404  -6.4553  -6.0462
    -5.2433  -5.0684  -4.6967  -4.5099  -4.2644  -3.7643  -3.7592  -3.7103
    -3.5126  -3.4050  -3.3393  -3.1272  -2.9856  -2.7990  -2.6189  -2.4968
    -2.3278  -2.2197  -1.9964  -1.9861  -1.8767  -1.7293  -1.5920  -1.4930
    -1.4281  -1.3717  -1.2045  -1.1958  -1.0582  -0.9169  -0.8501  -0.5050
    -0.4704  -0.3957   0.2146   1.4429   1.4996   1.7221   2.0900   2.2509
     2.4242   3.7358   4.2458   4.5842   5.0463   5.1256   5.4251

          k = 0.0616 0.0222 0.0000 ( 30325 PWs)   bands (ev):

    -8.1916  -7.2989  -7.2790  -7.2431  -7.2248  -7.1541  -7.1271  -7.1228
    -7.0843  -7.0559  -7.0517  -6.9987  -6.9729  -6.9262  -6.9165  -6.8518
    -6.8241  -6.8122  -6.7842  -6.7811  -6.7487  -6.7466  -6.7007  -6.6660
    -6.6554  -6.6421  -6.6206  -6.5946  -6.5715  -6.5231  -6.4260  -6.0225
    -5.1707  -4.9471  -4.6398  -4.4814  -4.4361  -4.0162  -3.9082  -3.8143
    -3.6214  -3.5019  -3.4123  -3.1945  -3.0884  -2.9384  -2.7955  -2.5190
    -2.4261  -2.3267  -1.9814  -1.9729  -1.8041  -1.7462  -1.5214  -1.5075
    -1.4304  -1.3329  -1.2085  -1.1145  -1.0287  -1.0156  -0.8109  -0.6040
    -0.2078  -0.1720  -0.0762   1.4480   1.4892   1.8475   2.0645   2.0977
     2.8609   3.7774   4.4778   4.6281   4.8853   4.9978   5.2019

          k = 0.0616 0.0392 0.0000 ( 30334 PWs)   bands (ev):

    -8.0335  -7.2975  -7.2511  -7.2167  -7.2021  -7.1451  -7.1101  -7.1007
    -7.0653  -7.0511  -7.0272  -6.9705  -6.9411  -6.9109  -6.8833  -6.8454
    -6.8192  -6.8029  -6.7882  -6.7583  -6.7277  -6.7275  -6.7126  -6.6689
    -6.6430  -6.6342  -6.6029  -6.5860  -6.5629  -6.5184  -6.4145  -5.9412
    -5.3568  -4.6790  -4.6470  -4.6149  -4.4495  -4.1589  -4.0404  -3.8546
    -3.7143  -3.5609  -3.4645  -3.2563  -3.1737  -3.0750  -2.9437  -2.5689
    -2.5113  -2.4616  -2.1275  -1.9480  -1.8231  -1.7354  -1.6656  -1.5928
    -1.4420  -1.2984  -1.2851  -1.0943  -1.0017  -0.9550  -0.7682  -0.7543
    -0.2279  -0.1395   0.0730   1.3937   1.4261   1.7123   2.0472   2.4216
     3.0985   4.1716   4.4273   4.5773   4.7988   5.3564   5.3582

          k = 0.0616 0.0562 0.0000 ( 30356 PWs)   bands (ev):

    -7.8094  -7.2727  -7.2274  -7.1796  -7.1774  -7.1136  -7.0778  -7.0723
    -7.0620  -7.0363  -7.0065  -6.9414  -6.9108  -6.8967  -6.8596  -6.8342
    -6.8255  -6.8129  -6.7803  -6.7565  -6.7261  -6.7097  -6.6875  -6.6859
    -6.6377  -6.6251  -6.5994  -6.5827  -6.5670  -6.5260  -6.4241  -5.7915
    -5.5650  -5.0754  -4.6520  -4.4794  -4.3362  -4.1612  -4.0390  -3.8432
    -3.8387  -3.5683  -3.4794  -3.3630  -3.2295  -3.1443  -3.0406  -2.6393
    -2.5461  -2.5308  -2.3065  -1.9361  -1.9074  -1.8646  -1.7578  -1.6632
    -1.4130  -1.3288  -1.2890  -1.1234  -1.0085  -1.0001  -0.8436  -0.7598
    -0.1875  -0.1464  -0.0832   1.3276   1.4661   1.9993   2.0864   2.3256
     3.5347   3.9542   4.3056   4.9746   5.0895   5.4827   5.6865

          k = 0.0616-0.1306 0.0000 ( 30375 PWs)   bands (ev):

    -7.5530  -7.2270  -7.2005  -7.1548  -7.1442  -7.0653  -7.0651  -7.0510
    -7.0280  -7.0228  -6.9978  -6.9121  -6.8970  -6.8778  -6.8731  -6.8575
    -6.8208  -6.8028  -6.7933  -6.7616  -6.7291  -6.7132  -6.6929  -6.6652
    -6.6487  -6.6185  -6.6162  -6.5864  -6.5447  -6.5428  -6.4577  -5.8383
    -5.5718  -5.4645  -4.7766  -4.3838  -4.2986  -4.1319  -4.0262  -3.7821
    -3.7614  -3.5246  -3.4562  -3.4292  -3.2414  -3.1293  -3.0910  -2.6633
    -2.5854  -2.4756  -2.4142  -2.0171  -1.9431  -1.9365  -1.8712  -1.6770
    -1.4170  -1.3920  -1.3055  -1.1974  -1.1312  -1.0288  -0.9117  -0.7691
    -0.5398  -0.3363   0.1668   1.2671   1.2975   1.8949   2.5344   2.7615
     3.7741   4.1108   4.2090   4.6773   5.2387   5.4633   5.9779

          k = 0.0616-0.1136 0.0000 ( 30396 PWs)   bands (ev):

    -7.3238  -7.1744  -7.1701  -7.1375  -7.1337  -7.0674  -7.0385  -7.0352
    -7.0028  -7.0026  -6.9579  -6.9225  -6.9090  -6.8859  -6.8812  -6.8596
    -6.8258  -6.8095  -6.7875  -6.7658  -6.7332  -6.7263  -6.6981  -6.6931
    -6.6683  -6.6590  -6.6291  -6.6190  -6.5604  -6.5170  -6.3929  -6.0505
    -5.9900  -5.1270  -5.0147  -4.4314  -4.3451  -4.1594  -3.8898  -3.6229
    -3.5318  -3.4438  -3.4123  -3.3580  -3.1699  -3.0883  -3.0474  -2.6135
    -2.5865  -2.4241  -2.3659  -2.1255  -1.9998  -1.9543  -1.9216  -1.6887
    -1.4719  -1.4654  -1.3307  -1.3258  -1.2877  -1.0789  -1.0193  -0.9715
    -0.7435  -0.5942   0.4751   0.8152   1.2501   2.2165   3.0653   3.2807
     3.8074   4.0179   4.1655   4.7214   5.4623   5.5677   5.6440

          k = 0.0616-0.0966 0.0000 ( 30373 PWs)   bands (ev):

    -7.2207  -7.1795  -7.1639  -7.1349  -7.1101  -7.0644  -7.0400  -7.0292
    -7.0240  -6.9904  -6.9376  -6.9299  -6.9166  -6.8811  -6.8585  -6.8545
    -6.8453  -6.8042  -6.7712  -6.7698  -6.7486  -6.7368  -6.7334  -6.7141
    -6.7064  -6.6940  -6.6665  -6.6601  -6.6226  -6.5640  -6.4123  -6.1558
    -6.0402  -5.3029  -4.7583  -4.5272  -4.5067  -4.0339  -3.6425  -3.4513
    -3.3989  -3.3118  -3.2699  -3.2105  -3.0056  -2.9830  -2.9058  -2.5484
    -2.5342  -2.3482  -2.2614  -2.2499  -2.0912  -1.9385  -1.9259  -1.6973
    -1.5523  -1.5417  -1.5100  -1.4031  -1.3644  -1.3555  -1.2496  -1.1451
    -0.8627  -0.6733   0.4105   0.7909   1.3086   2.7432   3.1251   3.7341
     3.8933   4.0648   4.1341   4.4640   5.3640   5.5082   5.9966

          k = 0.0616-0.0797 0.0000 ( 30369 PWs)   bands (ev):

    -7.4363  -7.2178  -7.1362  -7.1130  -7.0904  -7.0743  -7.0588  -7.0525
    -7.0091  -7.0062  -6.9607  -6.9359  -6.8994  -6.8650  -6.8559  -6.8302
    -6.8174  -6.8034  -6.7920  -6.7785  -6.7665  -6.7536  -6.7502  -6.7372
    -6.7305  -6.7192  -6.7180  -6.7048  -6.6996  -6.6047  -6.5504  -6.1188
    -5.7508  -5.5709  -4.6785  -4.6734  -4.3049  -3.8309  -3.4105  -3.3708
    -3.2559  -3.1676  -3.0762  -2.9633  -2.8131  -2.7855  -2.6990  -2.5382
    -2.4523  -2.3794  -2.2814  -2.2271  -2.0926  -1.9973  -1.9515  -1.7724
    -1.7134  -1.6810  -1.6535  -1.6331  -1.4930  -1.3763  -1.3667  -1.1900
    -0.9954  -0.5076   0.1216   0.9848   1.5750   2.7121   3.0926   3.5150
     3.8803   4.1987   4.5062   4.6633   5.0667   5.3415   5.9873

          k = 0.0616-0.0627 0.0000 ( 30377 PWs)   bands (ev):

    -7.7172  -7.2807  -7.1468  -7.1455  -7.1162  -7.1021  -7.0685  -7.0634
    -7.0266  -7.0112  -6.9703  -6.9430  -6.9259  -6.8944  -6.8569  -6.8281
    -6.8121  -6.7980  -6.7911  -6.7892  -6.7779  -6.7750  -6.7625  -6.7578
    -6.7411  -6.7271  -6.7193  -6.6990  -6.6867  -6.6486  -6.5791  -6.0635
    -5.7774  -5.4217  -4.8130  -4.7050  -3.9773  -3.6279  -3.3829  -3.2190
    -3.0765  -3.0350  -2.9951  -2.6599  -2.6371  -2.6036  -2.5278  -2.4919
    -2.4209  -2.3929  -2.3179  -2.2867  -2.1986  -2.1021  -1.9675  -1.9399
    -1.8956  -1.7436  -1.7035  -1.6286  -1.4779  -1.4078  -1.4044  -1.0818
    -0.9489  -0.1647  -0.0799   1.0577   2.0614   2.1313   2.3316   3.5205
     3.9825   4.3387   4.5858   5.0603   5.2739   5.4606   5.6124

          k = 0.0616-0.0457 0.0000 ( 30382 PWs)   bands (ev):

    -7.9706  -7.3272  -7.1892  -7.1879  -7.1359  -7.1312  -7.0961  -7.0722
    -7.0659  -7.0348  -6.9830  -6.9547  -6.9507  -6.9286  -6.9039  -6.8636
    -6.8445  -6.8115  -6.8014  -6.7923  -6.7715  -6.7665  -6.7510  -6.7303
    -6.7273  -6.7150  -6.6841  -6.6745  -6.6571  -6.6218  -6.6014  -5.9421
    -5.9130  -5.1482  -4.9088  -4.7007  -3.7334  -3.5382  -3.4117  -3.1867
    -3.1701  -2.9692  -2.9417  -2.6921  -2.6623  -2.5663  -2.5374  -2.3923
    -2.3730  -2.3462  -2.2896  -2.1966  -2.1081  -1.9986  -1.9269  -1.9092
    -1.8499  -1.7620  -1.6509  -1.5390  -1.4922  -1.3989  -1.2635  -1.1627
    -0.5653  -0.2216   0.3855   1.1258   1.2453   1.9701   2.5657   2.6488
     4.1080   4.5477   4.8388   4.8598   4.9599   5.3935   5.6757

          k = 0.0770-0.0359 0.0000 ( 30320 PWs)   bands (ev):

    -7.8053  -7.3667  -7.1799  -7.1760  -7.1240  -7.1234  -7.0810  -7.0670
    -7.0533  -7.0145  -6.9738  -6.9489  -6.9422  -6.9176  -6.8964  -6.8523
    -6.8500  -6.8062  -6.8031  -6.7849  -6.7730  -6.7523  -6.7455  -6.7310
    -6.7166  -6.7088  -6.6828  -6.6712  -6.6417  -6.6175  -6.6074  -6.1772
    -5.7100  -5.1075  -4.8726  -4.7416  -3.7247  -3.6571  -3.4680  -3.4644
    -3.2040  -3.0169  -2.9710  -2.8500  -2.6960  -2.6278  -2.5708  -2.4820
    -2.4379  -2.3803  -2.3235  -2.2739  -2.0952  -2.0120  -1.9000  -1.8671
    -1.7908  -1.7312  -1.5929  -1.5202  -1.4899  -1.3787  -1.2659  -1.2143
    -0.0767   0.0447   0.4275   0.8210   1.3061   1.5680   2.3367   3.3857
     3.6395   3.6550   4.4070   5.0195   5.5436   5.6536   5.7655

          k = 0.0770-0.0189 0.0000 ( 30327 PWs)   bands (ev):

    -7.9173  -7.3295  -7.2000  -7.1858  -7.1603  -7.1203  -7.1068  -7.0605
    -7.0481  -7.0155  -6.9968  -6.9949  -6.9583  -6.9194  -6.8863  -6.8732
    -6.8713  -6.8198  -6.7962  -6.7922  -6.7686  -6.7454  -6.7216  -6.7056
    -6.6957  -6.6869  -6.6657  -6.6405  -6.6148  -6.6103  -6.5618  -5.9827
    -5.7746  -4.9823  -4.9677  -4.6278  -3.9344  -3.6531  -3.5942  -3.5122
    -3.4015  -3.1645  -3.1390  -3.0188  -2.8643  -2.7444  -2.5732  -2.5322
    -2.3674  -2.2931  -2.2765  -2.1586  -1.9837  -1.9079  -1.8675  -1.6929
    -1.5854  -1.5316  -1.5065  -1.4211  -1.3227  -1.2835  -1.2147  -1.0312
    -0.3501  -0.0506   0.5615   0.7901   1.2006   2.1258   2.1555   2.8954
     3.1573   3.7779   4.4272   4.7742   4.9018   5.5168   5.6735

          k = 0.0770-0.0019 0.0000 ( 30335 PWs)   bands (ev):

    -7.9549  -7.2815  -7.2115  -7.2096  -7.1848  -7.1071  -7.1039  -7.0633
    -7.0480  -7.0379  -7.0186  -6.9920  -6.9561  -6.9338  -6.8907  -6.8618
    -6.8372  -6.8300  -6.8045  -6.7736  -6.7611  -6.7390  -6.7080  -6.6887
    -6.6742  -6.6706  -6.6582  -6.6141  -6.6024  -6.5645  -6.5058  -5.8094
    -5.7226  -5.0994  -4.8552  -4.5312  -4.1791  -3.7752  -3.7521  -3.6148
    -3.5746  -3.3193  -3.3099  -3.1834  -2.9832  -2.8782  -2.6991  -2.5752
    -2.3579  -2.2985  -2.2012  -2.0609  -1.9946  -1.8375  -1.7606  -1.5806
    -1.5733  -1.3720  -1.3595  -1.2939  -1.1282  -1.0584  -0.9948  -0.8287
    -0.6683  -0.2222   0.2014   0.9674   1.8898   1.9915   2.3477   2.4262
     2.8378   3.6264   4.6264   4.7440   4.8450   5.3503   5.4732

          k = 0.0770 0.0151 0.0000 ( 30320 PWs)   bands (ev):

    -7.9167  -7.2480  -7.2398  -7.2102  -7.1814  -7.1012  -7.0924  -7.0806
    -7.0597  -7.0308  -7.0281  -6.9656  -6.9409  -6.9021  -6.8985  -6.8401
    -6.8348  -6.8097  -6.7997  -6.7703  -6.7312  -6.7264  -6.7146  -6.6825
    -6.6524  -6.6505  -6.6286  -6.5938  -6.5859  -6.5371  -6.4570  -5.8156
    -5.4096  -5.3078  -4.7365  -4.4748  -4.3218  -3.9807  -3.8338  -3.7636
    -3.7556  -3.4591  -3.4086  -3.3011  -3.1103  -3.0017  -2.8968  -2.5811
    -2.4518  -2.4059  -2.1902  -1.9760  -1.9703  -1.8430  -1.6929  -1.5889
    -1.4823  -1.3190  -1.2515  -1.1683  -1.1325  -1.0499  -0.9156  -0.5293
    -0.5250  -0.3549  -0.0350   1.3692   1.6488   1.8905   2.2178   2.4745
     2.9320   4.1267   4.2921   4.7480   4.9255   5.0640   5.4919

          k = 0.0770 0.0320 0.0000 ( 30356 PWs)   bands (ev):

    -7.8094  -7.2727  -7.2274  -7.1796  -7.1774  -7.1136  -7.0778  -7.0723
    -7.0620  -7.0363  -7.0065  -6.9414  -6.9108  -6.8967  -6.8596  -6.8342
    -6.8255  -6.8129  -6.7803  -6.7565  -6.7261  -6.7097  -6.6875  -6.6859
    -6.6377  -6.6251  -6.5994  -6.5827  -6.5670  -6.5260  -6.4241  -5.7915
    -5.5650  -5.0754  -4.6520  -4.4794  -4.3362  -4.1612  -4.0390  -3.8432
    -3.8387  -3.5683  -3.4794  -3.3630  -3.2295  -3.1443  -3.0406  -2.6393
    -2.5461  -2.5308  -2.3065  -1.9361  -1.9074  -1.8646  -1.7578  -1.6632
    -1.4130  -1.3288  -1.2890  -1.1234  -1.0085  -1.0001  -0.8436  -0.7598
    -0.1875  -0.1464  -0.0832   1.3276   1.4661   1.9993   2.0864   2.3256
     3.5347   3.9542   4.3055   4.9745   5.0895   5.4827   5.6863

          k = 0.0770 0.0490 0.0000 ( 30356 PWs)   bands (ev):

    -7.6517  -7.2798  -7.2202  -7.1748  -7.1442  -7.1032  -7.0733  -7.0594
    -7.0552  -7.0325  -6.9868  -6.9227  -6.8886  -6.8788  -6.8463  -6.8290
    -6.8187  -6.8144  -6.7817  -6.7344  -6.7237  -6.7044  -6.6865  -6.6343
    -6.6329  -6.6018  -6.5850  -6.5738  -6.5582  -6.5282  -6.4113  -5.8882
    -5.6424  -4.8972  -4.6250  -4.5028  -4.3219  -4.2474  -4.1888  -3.8791
    -3.8619  -3.6311  -3.5230  -3.4104  -3.3252  -3.2755  -3.1050  -2.7130
    -2.6062  -2.6052  -2.4455  -1.9384  -1.9142  -1.8851  -1.8703  -1.7249
    -1.3663  -1.3498  -1.2810  -1.0959  -0.9927  -0.9389  -0.9128  -0.7630
    -0.1314  -0.0407  -0.0086   1.1329   1.4400   1.8417   2.3709   2.5671
     3.2301   3.9184   4.5997   5.1277   5.3833   5.8121   5.8206

          k = 0.0770-0.1378 0.0000 ( 30377 PWs)   bands (ev):

    -7.4826  -7.2653  -7.2082  -7.1696  -7.1121  -7.0758  -7.0670  -7.0523
    -7.0403  -7.0287  -6.9792  -6.9054  -6.8783  -6.8638  -6.8549  -6.8373
    -6.8216  -6.8108  -6.7805  -6.7412  -6.7188  -6.7160  -6.6808  -6.6387
    -6.5990  -6.5878  -6.5840  -6.5650  -6.5403  -6.5253  -6.4220  -6.0968
    -5.4910  -5.2007  -4.6607  -4.4314  -4.3722  -4.1301  -4.0952  -3.9570
    -3.8163  -3.6538  -3.5190  -3.4770  -3.3669  -3.2835  -3.1367  -2.7237
    -2.6536  -2.5947  -2.5127  -1.9947  -1.9405  -1.9246  -1.9033  -1.7355
    -1.3879  -1.3490  -1.2982  -1.1252  -0.9952  -0.9901  -0.9139  -0.8005
    -0.1859  -0.1766   0.0975   1.0548   1.4729   2.0339   2.0911   2.9209
     3.5205   3.6385   4.6693   5.2667   5.3435   5.9223   5.9279

          k = 0.0770-0.1208 0.0000 ( 30405 PWs)   bands (ev):

    -7.3625  -7.2248  -7.1907  -7.1585  -7.0906  -7.0781  -7.0424  -7.0343
    -7.0327  -7.0114  -6.9862  -6.8900  -6.8767  -6.8743  -6.8699  -6.8686
    -6.8149  -6.8005  -6.7932  -6.7615  -6.7234  -6.7217  -6.6856  -6.6553
    -6.6277  -6.6152  -6.5967  -6.5872  -6.5509  -6.4577  -6.3992  -6.1858
    -5.6386  -5.2927  -4.7956  -4.4887  -4.3009  -4.1469  -4.0027  -3.7682
    -3.7198  -3.6192  -3.4846  -3.4595  -3.3114  -3.2066  -3.1352  -2.6676
    -2.6572  -2.5030  -2.5026  -2.0115  -1.9802  -1.9621  -1.9070  -1.7285
    -1.4457  -1.3827  -1.3182  -1.2013  -1.1281  -1.0169  -0.9001  -0.8548
    -0.5422  -0.3310   0.2945   1.0828   1.2739   1.8934   2.5355   3.2720
     3.5681   3.8413   4.6412   4.9625   5.5006   5.5451   5.8896

          k = 0.0770-0.1038 0.0000 ( 30396 PWs)   bands (ev):

    -7.3238  -7.1744  -7.1701  -7.1375  -7.1337  -7.0674  -7.0385  -7.0352
    -7.0028  -7.0026  -6.9579  -6.9225  -6.9090  -6.8859  -6.8812  -6.8596
    -6.8258  -6.8095  -6.7875  -6.7658  -6.7332  -6.7263  -6.6981  -6.6931
    -6.6683  -6.6590  -6.6291  -6.6190  -6.5604  -6.5170  -6.3929  -6.0505
    -5.9900  -5.1270  -5.0147  -4.4314  -4.3451  -4.1594  -3.8898  -3.6229
    -3.5318  -3.4438  -3.4123  -3.3581  -3.1699  -3.0883  -3.0474  -2.6135
    -2.5865  -2.4241  -2.3659  -2.1255  -1.9998  -1.9543  -1.9216  -1.6887
    -1.4719  -1.4654  -1.3307  -1.3258  -1.2877  -1.0789  -1.0193  -0.9715
    -0.7435  -0.5942   0.4751   0.8152   1.2501   2.2165   3.0653   3.2807
     3.8074   4.0179   4.1655   4.7214   5.4623   5.5673   5.6439

          k = 0.0770-0.0868 0.0000 ( 30376 PWs)   bands (ev):

    -7.3407  -7.2451  -7.1451  -7.1319  -7.1171  -7.0842  -7.0428  -7.0305
    -7.0132  -6.9895  -6.9512  -6.9383  -6.9034  -6.8876  -6.8870  -6.8553
    -6.8477  -6.8060  -6.7745  -6.7745  -6.7528  -6.7352  -6.7323  -6.7092
    -6.7043  -6.6919  -6.6698  -6.6536  -6.6175  -6.5639  -6.4003  -6.3566
    -5.6907  -5.2500  -5.0343  -4.5121  -4.2438  -3.9989  -3.7515  -3.4653
    -3.4344  -3.2823  -3.2028  -3.1887  -2.9838  -2.9736  -2.8359  -2.5899
    -2.4933  -2.3393  -2.2465  -2.2325  -2.0762  -1.9611  -1.9433  -1.6764
    -1.5684  -1.5483  -1.4409  -1.4147  -1.3499  -1.2765  -1.2579  -1.1181
    -0.8913  -0.5113   0.4490   0.5860   1.5975   2.7271   3.0695   3.2463
     3.2786   4.2319   4.4648   4.6210   4.8978   5.5671   5.7865

          k = 0.0770-0.0699 0.0000 ( 30350 PWs)   bands (ev):

    -7.4252  -7.3698  -7.1379  -7.1354  -7.0994  -7.0921  -7.0577  -7.0514
    -7.0178  -6.9945  -6.9607  -6.9297  -6.9060  -6.9056  -6.8663  -6.8368
    -6.8271  -6.8029  -6.8019  -6.7726  -6.7661  -6.7504  -6.7500  -6.7265
    -6.7222  -6.7121  -6.7040  -6.6965  -6.6840  -6.5904  -6.5165  -6.3741
    -5.4538  -5.4267  -4.9587  -4.6582  -4.0097  -3.8207  -3.5630  -3.4203
    -3.2554  -3.1216  -3.0614  -2.9018  -2.8198  -2.7868  -2.6314  -2.5937
    -2.4224  -2.3511  -2.2994  -2.2983  -2.1000  -2.0068  -1.9579  -1.7523
    -1.7498  -1.6745  -1.6580  -1.6085  -1.4260  -1.3790  -1.3539  -1.0596
    -0.9016  -0.1006   0.2063   0.6585   2.0561   2.1040   2.8982   3.3419
     3.4369   3.6539   4.9239   5.2505   5.2633   5.3665   5.6115

          k = 0.0770-0.0529 0.0000 ( 30350 PWs)   bands (ev):

    -7.6310  -7.3815  -7.1573  -7.1539  -7.1114  -7.1048  -7.0695  -7.0654
    -7.0194  -7.0095  -6.9533  -6.9451  -6.9312  -6.9202  -6.8481  -6.8361
    -6.8129  -6.8013  -6.7917  -6.7831  -6.7745  -6.7686  -6.7668  -6.7623
    -6.7318  -6.7223  -6.7024  -6.6910  -6.6702  -6.6187  -6.5826  -6.3043
    -5.6067  -5.2423  -4.8579  -4.7760  -3.7985  -3.6905  -3.4393  -3.4334
    -3.0772  -3.0494  -2.9432  -2.7621  -2.6833  -2.5900  -2.5362  -2.4936
    -2.4764  -2.4220  -2.3008  -2.2953  -2.2256  -2.1634  -1.9602  -1.9566
    -1.8507  -1.7521  -1.6346  -1.6001  -1.4860  -1.4139  -1.3311  -1.1730
    -0.4826   0.0465   0.4613   0.7735   1.1917   2.4308   2.6187   2.7302
     3.4714   4.4840   4.6268   5.1986   5.4594   5.6148   5.6655

          k =-0.0924 0.0431 0.0000 ( 30320 PWs)   bands (ev):

    -7.5090  -7.5090  -7.1602  -7.1602  -7.1083  -7.1083  -7.0687  -7.0687
    -7.0122  -7.0122  -6.9442  -6.9442  -6.9329  -6.9329  -6.8422  -6.8422
    -6.8085  -6.8085  -6.7868  -6.7868  -6.7734  -6.7734  -6.7604  -6.7604
    -6.7255  -6.7255  -6.6921  -6.6921  -6.6427  -6.6427  -6.4798  -6.4798
    -5.3812  -5.3812  -4.8039  -4.8039  -3.7099  -3.7099  -3.5147  -3.5147
    -3.0677  -3.0677  -2.8628  -2.8628  -2.6538  -2.6538  -2.5233  -2.5233
    -2.4639  -2.4639  -2.3032  -2.3032  -2.2069  -2.2069  -1.9580  -1.9579
    -1.7847  -1.7846  -1.5814  -1.5814  -1.4578  -1.4577  -1.2668  -1.2668
     0.0663   0.0663   0.5338   0.5338   1.4462   1.4462   2.9939   2.9939
     3.5465   3.5465   5.0010   5.0011   5.4120   5.4122   6.0624

          k =-0.0924 0.0601 0.0000 ( 30344 PWs)   bands (ev):

    -7.5883  -7.4016  -7.1625  -7.1555  -7.1131  -7.1090  -7.0634  -7.0609
    -7.0354  -6.9952  -6.9646  -6.9358  -6.9324  -6.9129  -6.8806  -6.8486
    -6.8390  -6.8076  -6.8025  -6.7745  -6.7706  -6.7514  -6.7449  -6.7231
    -6.7138  -6.7121  -6.6867  -6.6765  -6.6694  -6.6045  -6.5276  -6.3802
    -5.4633  -5.2676  -4.9487  -4.6775  -3.8369  -3.7370  -3.5882  -3.4987
    -3.2427  -3.0719  -2.9868  -2.9317  -2.7615  -2.7429  -2.5617  -2.5543
    -2.4692  -2.3540  -2.3406  -2.3121  -2.1026  -2.0104  -1.9212  -1.8016
    -1.7246  -1.7211  -1.5897  -1.5883  -1.4095  -1.3640  -1.3517  -1.1505
    -0.4024   0.2617   0.3259   0.7160   1.1486   2.3087   2.7528   2.8578
     3.2430   3.8458   4.4601   5.2376   5.2620   5.5562   5.8923

          k =-0.0924 0.0770 0.0000 ( 30332 PWs)   bands (ev):

    -7.6227  -7.2923  -7.1701  -7.1505  -7.1357  -7.1041  -7.0740  -7.0418
    -7.0061  -6.9985  -6.9723  -6.9647  -6.9284  -6.9106  -6.8825  -6.8642
    -6.8604  -6.8113  -6.7864  -6.7818  -6.7627  -6.7303  -6.7258  -6.7109
    -6.6955  -6.6818  -6.6797  -6.6452  -6.6129  -6.5643  -6.5465  -6.1990
    -5.5273  -5.1402  -5.1194  -4.5535  -4.0150  -3.8659  -3.7923  -3.4956
    -3.4582  -3.2247  -3.1530  -3.1361  -2.9200  -2.9001  -2.6953  -2.6107
    -2.4079  -2.3427  -2.2545  -2.2123  -2.0397  -1.9362  -1.9267  -1.6160
    -1.6152  -1.5480  -1.4481  -1.3830  -1.3632  -1.2712  -1.2093  -0.9603
    -0.8521  -0.0832   0.3401   0.5507   1.9657   2.1435   2.7192   2.9838
     3.2328   3.4588   4.4820   5.1347   5.1442   5.3462   5.4326

          k =-0.0924 0.0940 0.0000 ( 30341 PWs)   bands (ev):

    -7.6080  -7.2091  -7.1839  -7.1794  -7.1462  -7.0828  -7.0670  -7.0295
    -7.0215  -7.0123  -6.9854  -6.9403  -6.9204  -6.9162  -6.8742  -6.8675
    -6.8284  -6.8177  -6.7931  -6.7653  -6.7395  -6.7191  -6.7155  -6.7021
    -6.6747  -6.6550  -6.6482  -6.6148  -6.5605  -6.5499  -6.5121  -5.9228
    -5.6188  -5.3567  -4.9463  -4.4420  -4.1527  -4.0255  -3.9859  -3.6372
    -3.5748  -3.3721  -3.3495  -3.3120  -3.0849  -3.0224  -2.9054  -2.6149
    -2.4999  -2.3336  -2.3214  -2.1112  -1.9847  -1.9311  -1.8794  -1.6355
    -1.5080  -1.3678  -1.3277  -1.3161  -1.1922  -1.1046  -1.0233  -0.9805
    -0.6218  -0.5065   0.2398   0.8757   1.6323   2.2489   2.6956   2.9554
     3.1357   4.0558   4.5444   4.6636   4.7379   5.1962   5.9583

          k =-0.0924 0.1110 0.0000 ( 30375 PWs)   bands (ev):

    -7.5530  -7.2270  -7.2005  -7.1548  -7.1442  -7.0653  -7.0651  -7.0510
    -7.0280  -7.0228  -6.9978  -6.9121  -6.8970  -6.8778  -6.8731  -6.8575
    -6.8208  -6.8028  -6.7933  -6.7616  -6.7291  -6.7132  -6.6929  -6.6652
    -6.6487  -6.6185  -6.6162  -6.5864  -6.5447  -6.5428  -6.4577  -5.8383
    -5.5718  -5.4645  -4.7766  -4.3838  -4.2986  -4.1319  -4.0262  -3.7821
    -3.7614  -3.5246  -3.4562  -3.4292  -3.2414  -3.1293  -3.0910  -2.6633
    -2.5854  -2.4756  -2.4142  -2.0171  -1.9431  -1.9365  -1.8712  -1.6770
    -1.4170  -1.3920  -1.3055  -1.1974  -1.1312  -1.0288  -0.9117  -0.7691
    -0.5398  -0.3363   0.1668   1.2671   1.2975   1.8949   2.5344   2.7615
     3.7741   4.1108   4.2090   4.6773   5.2388   5.4633   5.9779

          k =-0.0924 0.1280 0.0000 ( 30377 PWs)   bands (ev):

    -7.4826  -7.2653  -7.2082  -7.1696  -7.1121  -7.0758  -7.0670  -7.0523
    -7.0403  -7.0287  -6.9792  -6.9054  -6.8783  -6.8638  -6.8549  -6.8373
    -6.8216  -6.8108  -6.7805  -6.7412  -6.7188  -6.7160  -6.6808  -6.6387
    -6.5990  -6.5878  -6.5840  -6.5650  -6.5403  -6.5253  -6.4220  -6.0968
    -5.4910  -5.2007  -4.6607  -4.4314  -4.3722  -4.1301  -4.0952  -3.9570
    -3.8163  -3.6538  -3.5190  -3.4770  -3.3669  -3.2835  -3.1367  -2.7237
    -2.6536  -2.5947  -2.5127  -1.9947  -1.9405  -1.9246  -1.9033  -1.7355
    -1.3879  -1.3490  -1.2982  -1.1252  -0.9952  -0.9901  -0.9139  -0.8005
    -0.1859  -0.1766   0.0975   1.0548   1.4729   2.0339   2.0911   2.9209
     3.5205   3.6385   4.6693   5.2667   5.3439   5.9223   6.2084

          k =-0.0924-0.0588 0.0000 ( 30344 PWs)   bands (ev):

    -7.4447  -7.2862  -7.2110  -7.1766  -7.0971  -7.0777  -7.0760  -7.0621
    -7.0364  -7.0260  -6.9714  -6.9043  -6.8775  -6.8541  -6.8495  -6.8274
    -6.8213  -6.8147  -6.7793  -6.7254  -6.7193  -6.7142  -6.6751  -6.6334
    -6.5784  -6.5738  -6.5685  -6.5561  -6.5434  -6.4831  -6.4095  -6.2352
    -5.4964  -4.9875  -4.6274  -4.4796  -4.3492  -4.2840  -4.1216  -3.9381
    -3.8126  -3.7169  -3.5485  -3.4777  -3.4184  -3.3483  -3.1480  -2.7333
    -2.7033  -2.6418  -2.5436  -2.0177  -1.9695  -1.9076  -1.9005  -1.7463
    -1.3737  -1.3144  -1.3058  -1.0960  -0.9858  -0.9536  -0.9331  -0.7666
    -0.1310  -0.0338   0.0653   0.9867   1.4548   1.8807   2.3457   3.0954
     3.2443   3.3560   4.7756   5.4310   5.7765   5.7890   5.9889

     the Fermi energy is     0.0861 ev

!    total energy              =   -1295.08548829 Ry
     estimated scf accuracy    <       0.00000719 Ry
     smearing contrib. (-TS)   =      -0.02113149 Ry
     internal energy E=F+TS    =   -1295.06435680 Ry

     The total energy is F=E-TS. E is the sum of the following terms:
     one-electron contribution =   -9855.01870306 Ry
     hartree contribution      =    5038.80307722 Ry
     xc contribution           =    -439.67239447 Ry
     ewald contribution        =    3960.82366143 Ry
     electric field correction =       0.00000208 Ry

     convergence has been achieved in  12 iterations

     negative rho (up, down):  6.156E-04 0.000E+00

     Forces acting on atoms (cartesian axes, Ry/au):

     atom    1 type  1   force =     0.00328778    0.00209875   -0.00993949
     atom    2 type  1   force =     0.00329678    0.00209159   -0.00993706
     atom    3 type  2   force =    -0.00618291   -0.00394266    0.01811224
     atom    4 type  2   force =    -0.00619397   -0.00394633    0.01814190
     atom    5 type  1   force =     0.00267024    0.00168946   -0.01326746
     atom    6 type  1   force =     0.00267035    0.00170045   -0.01324903
     atom    7 type  2   force =     0.00030912    0.00020466    0.00772253
     atom    8 type  2   force =     0.00030452    0.00019563    0.00771780
     atom    9 type  1   force =    -0.00080534   -0.00050753   -0.00159572
     atom   10 type  1   force =    -0.00079958   -0.00050894   -0.00159876
     atom   11 type  2   force =     0.00071830    0.00045260   -0.00105201
     atom   12 type  2   force =     0.00072471    0.00047233   -0.00105492

     Total force =     0.038659     Total SCF correction =     0.011723
     SCF correction compared to forces is large: reduce conv_thr to get better values

     Writing output data file ./Zn2Pt2/Zn2Pt2_beef.save/

     init_run     :     41.00s CPU    101.73s WALL (       1 calls)
     electrons    :   2229.17s CPU   3309.41s WALL (       1 calls)
     forces       :     56.47s CPU     67.98s WALL (       1 calls)

     Called by init_run:
     wfcinit      :     30.67s CPU     82.38s WALL (       1 calls)
     potinit      :      7.23s CPU     10.33s WALL (       1 calls)
     hinit0       :      2.25s CPU      7.07s WALL (       1 calls)

     Called by electrons:
     c_bands      :   1945.32s CPU   2880.96s WALL (      13 calls)
     sum_band     :    257.50s CPU    388.37s WALL (      13 calls)
     v_of_rho     :     18.90s CPU     30.97s WALL (      13 calls)
     newd         :     13.31s CPU     16.76s WALL (      13 calls)
     mix_rho      :      0.34s CPU      0.95s WALL (      13 calls)
     vdW_kernel   :      5.75s CPU      6.25s WALL (       1 calls)

     Called by c_bands:
     init_us_2    :      8.25s CPU      8.43s WALL (    2072 calls)
     cegterg      :   1926.06s CPU   2848.72s WALL (     962 calls)

     Called by *egterg:
     cdiaghg      :    100.91s CPU    185.16s WALL (    5353 calls)
     h_psi        :   1109.40s CPU   1718.53s WALL (    5501 calls)
     s_psi        :    295.68s CPU    296.91s WALL (    5501 calls)
     g_psi        :      0.92s CPU      1.00s WALL (    4465 calls)

     Called by h_psi:
     h_psi:calbec :    363.93s CPU    499.18s WALL (    5501 calls)
     vloc_psi     :    442.45s CPU    914.50s WALL (    5501 calls)
     add_vuspsi   :    300.23s CPU    301.79s WALL (    5501 calls)

     General routines
     calbec       :    557.39s CPU    750.69s WALL (    6759 calls)
     fft          :      9.21s CPU     24.58s WALL (     879 calls)
     ffts         :      0.05s CPU      0.20s WALL (      26 calls)
     fftw         :    490.27s CPU   1032.17s WALL (  456936 calls)
     interpolate  :      0.21s CPU      0.39s WALL (      13 calls)

     Parallel routines
     fft_scatt_xy :     38.97s CPU     51.14s WALL (  457841 calls)
     fft_scatt_yz :    212.61s CPU    709.49s WALL (  457841 calls)

     PWSCF        :  39m 5.78s CPU      1h 1m WALL


   This run was terminated on:   2:17:39  10Jul2022            

=------------------------------------------------------------------------------=
   JOB DONE.
=------------------------------------------------------------------------------=
