
     Program PWSCF v.6.6 starts on 10Jul2022 at  0:25: 0 

     This program is part of the open-source Quantum ESPRESSO suite
     for quantum simulation of materials; please cite
         "P. Giannozzi et al., J. Phys.:Condens. Matter 21 395502 (2009);
         "P. Giannozzi et al., J. Phys.:Condens. Matter 29 465901 (2017);
          URL http://www.quantum-espresso.org", 
     in publications or presentations arising from this work. More details at
     http://www.quantum-espresso.org/quote

     Parallel version (MPI), running on    37 processors

     MPI processes distributed on     4 nodes
     R & G space division:  proc/nbgrp/npool/nimage =      37
     Fft bands division:     nmany     =       1
     Reading input from Zn2Pd2.in
Warning: card &CELL ignored
Warning: card / ignored

     Current dimensions of program PWSCF are:
     Max number of different atomic species (ntypx) = 10
     Max number of k-points (npk) =  40000
     Max angular momentum in pseudopotentials (lmaxx) =  3
     Presently stress not available with electric field and gates

     Message from routine cell_base_init:
     DEPRECATED: use true lattice parameter, not A to a.u. conversion factor
     file Zn.pbe-dnl-rrkjus_psl.1.0.0.UPF: wavefunction(s)  3D renormalized
     file Pd.pbe-n-rrkjus_psl.1.0.0.UPF: wavefunction(s)  4D renormalized

     **************************************************************************
     Initializing libbeef V0.1.2 with the BEEF-vdW functional.
     Citation: Wellendorff et al., PRB 85, 235149 (2012).
     **************************************************************************


     IMPORTANT: XC functional enforced from input :
     Exchange-correlation= BEEF-VDW
                           (   1   4  43  14   2   0   0)
     Any further DFT definition will be discarded
     Please, verify this is what you really want


     Subspace diagonalization in iterative solution of the eigenvalue problem:
     a serial algorithm will be used

     Found symmetry operation: I + (  0.5000 -0.5000  0.0000)
     This is a supercell, fractional translations are disabled

     Parallelization info
     --------------------
     sticks:   dense  smooth     PW     G-vecs:    dense   smooth      PW
     Min         112      44     12                25830     6526     986
     Max         113      45     13                25850     6539    1011
     Sum        4147    1663    471               956163   241781   36971



     bravais-lattice index     =            0
     lattice parameter (alat)  =       1.8897  a.u.
     unit-cell volume          =    4376.3509 (a.u.)^3
     number of atoms/cell      =           12
     number of atomic types    =            2
     number of electrons       =       132.00
     number of Kohn-Sham states=           79
     kinetic-energy cutoff     =      55.1240  Ry
     charge density cutoff     =     551.2396  Ry
     convergence threshold     =      1.0E-05
     mixing beta               =       0.1000
     number of iterations used =           10  plain     mixing
     Exchange-correlation= BEEF-VDW
                           (   1   4  43  14   2   0   0)

     celldm(1)=   1.889726  celldm(2)=   0.000000  celldm(3)=   0.000000
     celldm(4)=   0.000000  celldm(5)=   0.000000  celldm(6)=   0.000000

     crystal axes: (cart. coord. in units of alat)
               a(1) = (   5.385181   0.000000   0.000000 )  
               a(2) = (   2.182191   4.923232   0.000000 )  
               a(3) = (   0.000000   0.000000  24.460482 )  

     reciprocal axes: (cart. coord. in units 2 pi/alat)
               b(1) = (  0.185695 -0.082308  0.000000 )  
               b(2) = (  0.000000  0.203119  0.000000 )  
               b(3) = (  0.000000  0.000000  0.040882 )  


     PseudoPot. # 1 for Zn read from file:
     ../pseudo/Zn.pbe-dnl-rrkjus_psl.1.0.0.UPF
     MD5 check sum: 7f56cabf9682ed8c977c2f7d0c5985c5
     Pseudo is Ultrasoft + core correction, Zval = 12.0
     Generated using "atomic" code by A. Dal Corso v.6.2.2
     Using radial grid of 1201 points,  6 beta functions with: 
                l(1) =   0
                l(2) =   0
                l(3) =   1
                l(4) =   1
                l(5) =   2
                l(6) =   2
     Q(r) pseudized with 0 coefficients 


     PseudoPot. # 2 for Pd read from file:
     ../pseudo/Pd.pbe-n-rrkjus_psl.1.0.0.UPF
     MD5 check sum: d9f693bf1c5b493397a6bd6f2231cfc3
     Pseudo is Ultrasoft + core correction, Zval = 10.0
     Generated using "atomic" code by A. Dal Corso v.6.3
     Using radial grid of 1235 points,  6 beta functions with: 
                l(1) =   0
                l(2) =   0
                l(3) =   1
                l(4) =   1
                l(5) =   2
                l(6) =   2
     Q(r) pseudized with 0 coefficients 


     atomic species   valence    mass     pseudopotential
        Zn            12.00    65.38000     Zn( 1.00)
        Pd            10.00   106.42000     Pd( 1.00)

     No symmetry found



   Cartesian axes

     site n.     atom                  positions (alat units)
         1           Zn  tau(   1) = (   0.0000000   0.0000000  10.0000000  )
         2           Zn  tau(   2) = (   3.7836860   2.4616162  10.0000000  )
         3           Pd  tau(   3) = (   2.6925905   0.0000000  10.0000000  )
         4           Pd  tau(   4) = (   1.0910955   2.4616162  10.0000000  )
         5           Zn  tau(   5) = (   5.3851810   3.5035277  12.2302409  )
         6           Zn  tau(   6) = (   1.6014950   1.0419115  12.2302409  )
         7           Pd  tau(   7) = (   2.6925905   3.5035277  12.2302409  )
         8           Pd  tau(   8) = (   4.2940855   1.0419115  12.2302409  )
         9           Zn  tau(   9) = (   3.3600708   2.1860020  14.5579810  )
        10           Zn  tau(  10) = (   7.1437536   4.6476535  14.5579896  )
        11           Pd  tau(  11) = (   6.0600049   2.1907993  14.3738782  )
        12           Pd  tau(  12) = (   4.4584974   4.6524062  14.3738787  )

     number of k points=    74  Fermi-Dirac smearing, width (Ry)=  0.0100
                       cart. coord. in units 2pi/alat
        k(    1) = (   0.0000000   0.0000000   0.0000000), wk =   0.0138889
        k(    2) = (   0.0000000   0.0169266   0.0000000), wk =   0.0277778
        k(    3) = (   0.0000000   0.0338531   0.0000000), wk =   0.0277778
        k(    4) = (   0.0000000   0.0507797   0.0000000), wk =   0.0277778
        k(    5) = (   0.0000000   0.0677062   0.0000000), wk =   0.0277778
        k(    6) = (   0.0000000   0.0846328   0.0000000), wk =   0.0277778
        k(    7) = (   0.0000000  -0.1015593   0.0000000), wk =   0.0138889
        k(    8) = (   0.0154746  -0.0068590   0.0000000), wk =   0.0277778
        k(    9) = (   0.0154746   0.0100675   0.0000000), wk =   0.0277778
        k(   10) = (   0.0154746   0.0269941   0.0000000), wk =   0.0277778
        k(   11) = (   0.0154746   0.0439206   0.0000000), wk =   0.0277778
        k(   12) = (   0.0154746   0.0608472   0.0000000), wk =   0.0277778
        k(   13) = (   0.0154746   0.0777737   0.0000000), wk =   0.0277778
        k(   14) = (   0.0154746  -0.1084183   0.0000000), wk =   0.0277778
        k(   15) = (   0.0154746  -0.0914918   0.0000000), wk =   0.0277778
        k(   16) = (   0.0154746  -0.0745652   0.0000000), wk =   0.0277778
        k(   17) = (   0.0154746  -0.0576387   0.0000000), wk =   0.0277778
        k(   18) = (   0.0154746  -0.0407121   0.0000000), wk =   0.0277778
        k(   19) = (   0.0154746  -0.0237856   0.0000000), wk =   0.0277778
        k(   20) = (   0.0309491  -0.0137180   0.0000000), wk =   0.0277778
        k(   21) = (   0.0309491   0.0032085   0.0000000), wk =   0.0277778
        k(   22) = (   0.0309491   0.0201351   0.0000000), wk =   0.0277778
        k(   23) = (   0.0309491   0.0370616   0.0000000), wk =   0.0277778
        k(   24) = (   0.0309491   0.0539882   0.0000000), wk =   0.0277778
        k(   25) = (   0.0309491   0.0709147   0.0000000), wk =   0.0277778
        k(   26) = (   0.0309491  -0.1152773   0.0000000), wk =   0.0277778
        k(   27) = (   0.0309491  -0.0983508   0.0000000), wk =   0.0277778
        k(   28) = (   0.0309491  -0.0814242   0.0000000), wk =   0.0277778
        k(   29) = (   0.0309491  -0.0644977   0.0000000), wk =   0.0277778
        k(   30) = (   0.0309491  -0.0475711   0.0000000), wk =   0.0277778
        k(   31) = (   0.0309491  -0.0306446   0.0000000), wk =   0.0277778
        k(   32) = (   0.0464237  -0.0205770   0.0000000), wk =   0.0277778
        k(   33) = (   0.0464237  -0.0036505   0.0000000), wk =   0.0277778
        k(   34) = (   0.0464237   0.0132761   0.0000000), wk =   0.0277778
        k(   35) = (   0.0464237   0.0302026   0.0000000), wk =   0.0277778
        k(   36) = (   0.0464237   0.0471292   0.0000000), wk =   0.0277778
        k(   37) = (   0.0464237   0.0640557   0.0000000), wk =   0.0277778
        k(   38) = (   0.0464237  -0.1221363   0.0000000), wk =   0.0277778
        k(   39) = (   0.0464237  -0.1052098   0.0000000), wk =   0.0277778
        k(   40) = (   0.0464237  -0.0882832   0.0000000), wk =   0.0277778
        k(   41) = (   0.0464237  -0.0713567   0.0000000), wk =   0.0277778
        k(   42) = (   0.0464237  -0.0544301   0.0000000), wk =   0.0277778
        k(   43) = (   0.0464237  -0.0375036   0.0000000), wk =   0.0277778
        k(   44) = (   0.0618983  -0.0274360   0.0000000), wk =   0.0277778
        k(   45) = (   0.0618983  -0.0105095   0.0000000), wk =   0.0277778
        k(   46) = (   0.0618983   0.0064171   0.0000000), wk =   0.0277778
        k(   47) = (   0.0618983   0.0233436   0.0000000), wk =   0.0277778
        k(   48) = (   0.0618983   0.0402702   0.0000000), wk =   0.0277778
        k(   49) = (   0.0618983   0.0571967   0.0000000), wk =   0.0277778
        k(   50) = (   0.0618983  -0.1289953   0.0000000), wk =   0.0277778
        k(   51) = (   0.0618983  -0.1120688   0.0000000), wk =   0.0277778
        k(   52) = (   0.0618983  -0.0951422   0.0000000), wk =   0.0277778
        k(   53) = (   0.0618983  -0.0782157   0.0000000), wk =   0.0277778
        k(   54) = (   0.0618983  -0.0612891   0.0000000), wk =   0.0277778
        k(   55) = (   0.0618983  -0.0443626   0.0000000), wk =   0.0277778
        k(   56) = (   0.0773728  -0.0342950   0.0000000), wk =   0.0277778
        k(   57) = (   0.0773728  -0.0173685   0.0000000), wk =   0.0277778
        k(   58) = (   0.0773728  -0.0004419   0.0000000), wk =   0.0277778
        k(   59) = (   0.0773728   0.0164846   0.0000000), wk =   0.0277778
        k(   60) = (   0.0773728   0.0334112   0.0000000), wk =   0.0277778
        k(   61) = (   0.0773728   0.0503377   0.0000000), wk =   0.0277778
        k(   62) = (   0.0773728  -0.1358543   0.0000000), wk =   0.0277778
        k(   63) = (   0.0773728  -0.1189278   0.0000000), wk =   0.0277778
        k(   64) = (   0.0773728  -0.1020012   0.0000000), wk =   0.0277778
        k(   65) = (   0.0773728  -0.0850747   0.0000000), wk =   0.0277778
        k(   66) = (   0.0773728  -0.0681481   0.0000000), wk =   0.0277778
        k(   67) = (   0.0773728  -0.0512216   0.0000000), wk =   0.0277778
        k(   68) = (  -0.0928474   0.0411540   0.0000000), wk =   0.0138889
        k(   69) = (  -0.0928474   0.0580806   0.0000000), wk =   0.0277778
        k(   70) = (  -0.0928474   0.0750071   0.0000000), wk =   0.0277778
        k(   71) = (  -0.0928474   0.0919337   0.0000000), wk =   0.0277778
        k(   72) = (  -0.0928474   0.1088602   0.0000000), wk =   0.0277778
        k(   73) = (  -0.0928474   0.1257868   0.0000000), wk =   0.0277778
        k(   74) = (  -0.0928474  -0.0604053   0.0000000), wk =   0.0138889

     Dense  grid:   956163 G-vectors     FFT dimensions: (  80,  80, 360)

     Smooth grid:   241781 G-vectors     FFT dimensions: (  50,  50, 225)

     Estimated max dynamical RAM per process >     177.58 MB

     Estimated total dynamical RAM >       6.42 GB

     Initial potential from superposition of free atoms

     starting charge  131.97422, renormalised to  132.00000

     negative rho (up, down):  8.790E-04 0.000E+00


     %%%%%%%%%%%%%%%%%%%%%%%%%%%%%%%%%%%%%%%%%%%%%%%%%%%%%%%%%%%%%%%%%%%%%%%%
     %                                                                      %
     % You are using vdW-DF, which was implemented by the Thonhauser group. %
     % Please cite the following two papers that made this development      %
     % possible and the two reviews that describe the various versions:     %
     %                                                                      %
     %   T. Thonhauser et al., PRL 115, 136402 (2015).                      %
     %   T. Thonhauser et al., PRB 76, 125112 (2007).                       %
     %   K. Berland et al., Rep. Prog. Phys. 78, 066501 (2015).             %
     %   D.C. Langreth et al., J. Phys.: Condens. Matter 21, 084203 (2009). %
     %                                                                      %
     %                                                                      %
     % If you are calculating the stress with vdW-DF, please also cite:     %
     %                                                                      %
     %   R. Sabatini et al., J. Phys.: Condens. Matter 24, 424209 (2012).   %
     %                                                                      %
     %%%%%%%%%%%%%%%%%%%%%%%%%%%%%%%%%%%%%%%%%%%%%%%%%%%%%%%%%%%%%%%%%%%%%%%%



     Adding external electric field

     Computed dipole along edir(3) : 
        Dipole                0.0010 Ry au,          0.0024 Debye
        Dipole field          0.0000 Ry au, 

        Potential amp.       -0.0002 Ry
        Total length         45.0680 bohr

     Starting wfcs are  108 randomized atomic wfcs

     total cpu time spent up to now is      142.7 secs

     Self-consistent Calculation

     iteration #  1     ecut=    55.12 Ry     beta= 0.10
     Davidson diagonalization with overlap
     ethr =  1.00E-02,  avg # of iterations =  3.1

     Threshold (ethr) on eigenvalues was too large:
     Diagonalizing with lowered threshold

     Davidson diagonalization with overlap
     ethr =  2.70E-04,  avg # of iterations =  5.0

     negative rho (up, down):  8.744E-04 0.000E+00

     Adding external electric field

     Computed dipole along edir(3) : 
        Dipole                0.0317 Ry au,          0.0805 Debye
        Dipole field          0.0001 Ry au, 

        Potential amp.       -0.0082 Ry
        Total length         45.0680 bohr


     total cpu time spent up to now is      639.8 secs

     total energy              =   -1309.27917502 Ry
     estimated scf accuracy    <       0.39759239 Ry

     iteration #  2     ecut=    55.12 Ry     beta= 0.10
     Davidson diagonalization with overlap
     ethr =  3.01E-04,  avg # of iterations =  2.7

     negative rho (up, down):  8.801E-04 0.000E+00

     Adding external electric field

     Computed dipole along edir(3) : 
        Dipole               -0.0463 Ry au,         -0.1176 Debye
        Dipole field         -0.0001 Ry au, 

        Potential amp.        0.0120 Ry
        Total length         45.0680 bohr


     total cpu time spent up to now is      834.9 secs

     total energy              =   -1309.26221010 Ry
     estimated scf accuracy    <       0.13961980 Ry

     iteration #  3     ecut=    55.12 Ry     beta= 0.10
     Davidson diagonalization with overlap
     c_bands:  1 eigenvalues not converged
     ethr =  1.06E-04,  avg # of iterations =  8.6

     negative rho (up, down):  8.724E-04 0.000E+00

     Adding external electric field

     Computed dipole along edir(3) : 
        Dipole                0.0545 Ry au,          0.1386 Debye
        Dipole field          0.0002 Ry au, 

        Potential amp.       -0.0141 Ry
        Total length         45.0680 bohr


     total cpu time spent up to now is     1071.3 secs

     total energy              =   -1309.26699969 Ry
     estimated scf accuracy    <       0.06074901 Ry

     iteration #  4     ecut=    55.12 Ry     beta= 0.10
     Davidson diagonalization with overlap
     c_bands:  2 eigenvalues not converged
     c_bands:  1 eigenvalues not converged
     c_bands:  1 eigenvalues not converged
     ethr =  4.60E-05,  avg # of iterations =  6.0

     negative rho (up, down):  8.900E-04 0.000E+00

     Adding external electric field

     Computed dipole along edir(3) : 
        Dipole                0.0088 Ry au,          0.0223 Debye
        Dipole field          0.0000 Ry au, 

        Potential amp.       -0.0023 Ry
        Total length         45.0680 bohr


     total cpu time spent up to now is     1297.4 secs

     total energy              =   -1309.26669669 Ry
     estimated scf accuracy    <       0.03574038 Ry

     iteration #  5     ecut=    55.12 Ry     beta= 0.10
     Davidson diagonalization with overlap
     ethr =  2.71E-05,  avg # of iterations =  4.4

     negative rho (up, down):  1.069E-03 0.000E+00

     Adding external electric field

     Computed dipole along edir(3) : 
        Dipole                0.0125 Ry au,          0.0317 Debye
        Dipole field          0.0000 Ry au, 

        Potential amp.       -0.0032 Ry
        Total length         45.0680 bohr


     total cpu time spent up to now is     1500.8 secs

     total energy              =   -1309.26709858 Ry
     estimated scf accuracy    <       0.01043937 Ry

     iteration #  6     ecut=    55.12 Ry     beta= 0.10
     Davidson diagonalization with overlap
     ethr =  7.91E-06,  avg # of iterations = 10.8

     negative rho (up, down):  1.064E-03 0.000E+00

     Adding external electric field

     Computed dipole along edir(3) : 
        Dipole                0.0137 Ry au,          0.0348 Debye
        Dipole field          0.0000 Ry au, 

        Potential amp.       -0.0035 Ry
        Total length         45.0680 bohr


     total cpu time spent up to now is     1777.4 secs

     total energy              =   -1309.26766795 Ry
     estimated scf accuracy    <       0.00331263 Ry

     iteration #  7     ecut=    55.12 Ry     beta= 0.10
     Davidson diagonalization with overlap
     ethr =  2.51E-06,  avg # of iterations =  3.5

     negative rho (up, down):  1.180E-03 0.000E+00

     Adding external electric field

     Computed dipole along edir(3) : 
        Dipole                0.0144 Ry au,          0.0366 Debye
        Dipole field          0.0000 Ry au, 

        Potential amp.       -0.0037 Ry
        Total length         45.0680 bohr


     total cpu time spent up to now is     2017.1 secs

     total energy              =   -1309.26827869 Ry
     estimated scf accuracy    <       0.00176205 Ry

     iteration #  8     ecut=    55.12 Ry     beta= 0.10
     Davidson diagonalization with overlap
     ethr =  1.33E-06,  avg # of iterations =  2.8

     negative rho (up, down):  1.133E-03 0.000E+00

     Adding external electric field

     Computed dipole along edir(3) : 
        Dipole                0.0140 Ry au,          0.0355 Debye
        Dipole field          0.0000 Ry au, 

        Potential amp.       -0.0036 Ry
        Total length         45.0680 bohr


     total cpu time spent up to now is     2225.2 secs

     total energy              =   -1309.26847431 Ry
     estimated scf accuracy    <       0.00022029 Ry

     iteration #  9     ecut=    55.12 Ry     beta= 0.10
     Davidson diagonalization with overlap
     ethr =  1.67E-07,  avg # of iterations =  3.0

     negative rho (up, down):  1.116E-03 0.000E+00

     Adding external electric field

     Computed dipole along edir(3) : 
        Dipole                0.0129 Ry au,          0.0327 Debye
        Dipole field          0.0000 Ry au, 

        Potential amp.       -0.0033 Ry
        Total length         45.0680 bohr


     total cpu time spent up to now is     2446.2 secs

     total energy              =   -1309.26849289 Ry
     estimated scf accuracy    <       0.00020481 Ry

     iteration # 10     ecut=    55.12 Ry     beta= 0.10
     Davidson diagonalization with overlap
     ethr =  1.55E-07,  avg # of iterations =  2.0

     negative rho (up, down):  1.087E-03 0.000E+00

     Adding external electric field

     Computed dipole along edir(3) : 
        Dipole                0.0132 Ry au,          0.0335 Debye
        Dipole field          0.0000 Ry au, 

        Potential amp.       -0.0034 Ry
        Total length         45.0680 bohr


     total cpu time spent up to now is     2637.6 secs

     total energy              =   -1309.26849961 Ry
     estimated scf accuracy    <       0.00004861 Ry

     iteration # 11     ecut=    55.12 Ry     beta= 0.10
     Davidson diagonalization with overlap
     ethr =  3.68E-08,  avg # of iterations =  3.5

     negative rho (up, down):  8.315E-04 0.000E+00

     Adding external electric field

     Computed dipole along edir(3) : 
        Dipole                0.0129 Ry au,          0.0329 Debye
        Dipole field          0.0000 Ry au, 

        Potential amp.       -0.0033 Ry
        Total length         45.0680 bohr


     total cpu time spent up to now is     2847.5 secs

     End of self-consistent calculation

          k = 0.0000 0.0000 0.0000 ( 30085 PWs)   bands (ev):

    -8.1867  -7.5820  -7.5807  -7.4951  -7.4836  -7.4372  -7.4231  -7.3986
    -7.3730  -7.3441  -7.3247  -7.2983  -7.2685  -7.1888  -7.1806  -7.1555
    -7.1404  -7.1086  -7.0953  -7.0915  -7.0582  -7.0236  -6.9943  -6.9551
    -6.9373  -6.8753  -6.8684  -6.8605  -6.8394  -6.8110  -6.7147  -6.1527
    -5.1030  -4.8702  -4.5139  -4.2025  -3.6791  -3.4180  -3.3191  -3.2334
    -3.1432  -3.0333  -2.9428  -2.8094  -2.6556  -2.6412  -2.4160  -2.3924
    -2.3469  -2.1497  -2.0074  -1.9955  -1.9036  -1.8786  -1.7162  -1.6962
    -1.6649  -1.5986  -1.5255  -1.4889  -1.3961  -1.3234  -0.9830  -0.1252
    -0.1248   0.1474   0.2355   0.6722   0.6784   0.7478   0.8521   2.1464
     2.6828   3.1683   3.5579   3.6303   3.9875   4.0892   4.5801

          k = 0.0000 0.0169 0.0000 ( 30137 PWs)   bands (ev):

    -8.1413  -7.5724  -7.5679  -7.4874  -7.4725  -7.4309  -7.4068  -7.3890
    -7.3694  -7.3397  -7.3162  -7.2911  -7.2648  -7.1817  -7.1761  -7.1504
    -7.1425  -7.1052  -7.0968  -7.0906  -7.0556  -7.0231  -6.9935  -6.9570
    -6.9393  -6.8797  -6.8719  -6.8634  -6.8497  -6.8129  -6.7226  -6.1255
    -5.0870  -4.8995  -4.5169  -4.2496  -3.6590  -3.3977  -3.3113  -3.2213
    -3.1545  -3.0377  -2.9728  -2.8120  -2.6856  -2.6375  -2.4167  -2.3999
    -2.3423  -2.1457  -2.0437  -2.0083  -1.9584  -1.9128  -1.7887  -1.7366
    -1.7242  -1.6124  -1.5773  -1.4644  -1.4327  -1.2475  -1.0551  -0.3690
    -0.1616  -0.0040   0.2613   0.2809   0.6178   1.0634   1.4078   2.0794
     2.8577   3.1617   3.5958   3.7434   4.0560   4.1471   4.6231

          k = 0.0000 0.0339 0.0000 ( 30159 PWs)   bands (ev):

    -8.0084  -7.5451  -7.5321  -7.4652  -7.4431  -7.4127  -7.3641  -7.3599
    -7.3559  -7.3279  -7.2934  -7.2713  -7.2526  -7.1664  -7.1632  -7.1473
    -7.1357  -7.1103  -7.0958  -7.0767  -7.0490  -7.0218  -6.9908  -6.9627
    -6.9448  -6.8918  -6.8833  -6.8761  -6.8700  -6.8236  -6.7460  -6.0399
    -5.0393  -4.9930  -4.5307  -4.3782  -3.5998  -3.3490  -3.2924  -3.1992
    -3.1724  -3.0548  -3.0282  -2.8324  -2.7677  -2.6232  -2.4415  -2.4368
    -2.3158  -2.1748  -2.1483  -2.1047  -1.9994  -1.9973  -1.9182  -1.8562
    -1.8213  -1.7249  -1.6101  -1.5187  -1.5020  -1.2221  -1.0717  -1.0140
    -0.5280   0.0263   0.2152   0.4049   0.6566   1.5036   1.7286   1.9290
     3.2209   3.4228   3.7593   3.8874   4.2120   4.3404   4.3705

          k = 0.0000 0.0508 0.0000 ( 30220 PWs)   bands (ev):

    -7.8007  -7.5052  -7.4810  -7.4314  -7.4081  -7.3814  -7.3483  -7.3116
    -7.3106  -7.2909  -7.2657  -7.2441  -7.2276  -7.1678  -7.1490  -7.1435
    -7.1183  -7.1136  -7.0814  -7.0552  -7.0418  -7.0205  -6.9862  -6.9731
    -6.9513  -6.9136  -6.9079  -6.8986  -6.8784  -6.8490  -6.7853  -5.8879
    -5.1825  -4.9614  -4.6103  -4.4929  -3.5047  -3.3405  -3.2777  -3.2142
    -3.1375  -3.1065  -3.0343  -2.8680  -2.8621  -2.6031  -2.5377  -2.4696
    -2.3691  -2.3138  -2.1981  -2.1834  -2.1309  -2.0547  -2.0091  -1.9568
    -1.9034  -1.8507  -1.7084  -1.6453  -1.6156  -1.5271  -1.3969  -1.0115
    -0.8382  -0.0592   0.2618   0.8225   0.8254   1.4380   1.7674   2.0375
     3.6967   3.8475   3.9014   3.9803   4.4520   4.4695   4.7524

          k = 0.0000 0.0677 0.0000 ( 30259 PWs)   bands (ev):

    -7.5594  -7.4598  -7.4242  -7.3901  -7.3766  -7.3399  -7.3395  -7.2947
    -7.2473  -7.2413  -7.2247  -7.2089  -7.1935  -7.1740  -7.1615  -7.1191
    -7.1095  -7.0882  -7.0619  -7.0420  -7.0299  -7.0207  -6.9892  -6.9811
    -6.9586  -6.9575  -6.9269  -6.9018  -6.8928  -6.8667  -6.8380  -5.6673
    -5.5105  -4.8607  -4.7514  -4.5379  -3.3882  -3.3746  -3.3700  -3.2503
    -3.1881  -3.0585  -3.0236  -2.9000  -2.8050  -2.6410  -2.6199  -2.5164
    -2.4838  -2.4315  -2.3558  -2.2726  -2.1937  -2.0903  -2.0666  -2.0641
    -1.9838  -1.9517  -1.9140  -1.7711  -1.7478  -1.6745  -1.6497  -1.3468
    -0.5629  -0.0427   0.2515   0.8947   1.1208   1.3508   1.6242   2.5756
     3.7195   3.7693   4.0794   4.2516   4.7005   4.7913   5.1773

          k = 0.0000 0.0846 0.0000 ( 30282 PWs)   bands (ev):

    -7.4187  -7.4181  -7.3668  -7.3528  -7.3311  -7.3293  -7.2960  -7.2814
    -7.2443  -7.2442  -7.1730  -7.1619  -7.1598  -7.1474  -7.1264  -7.0978
    -7.0931  -7.0655  -7.0523  -7.0378  -7.0288  -7.0121  -7.0090  -6.9975
    -6.9816  -6.9755  -6.9532  -6.9486  -6.9097  -6.8915  -6.7129  -5.9371
    -5.3949  -4.8980  -4.7552  -4.5962  -3.4595  -3.4566  -3.3415  -3.3324
    -3.1796  -3.0125  -2.9499  -2.9166  -2.7146  -2.6793  -2.6091  -2.5879
    -2.5713  -2.4794  -2.4704  -2.4204  -2.2873  -2.2008  -2.1547  -2.1235
    -2.0367  -1.9878  -1.9366  -1.9184  -1.8767  -1.8398  -1.6552  -1.5231
    -0.2592   0.0111   0.2193   0.5457   1.2162   1.4818   1.9489   3.0479
     3.2439   3.5733   4.3046   4.5852   5.1910   5.2081   5.4502

          k = 0.0000-0.1016 0.0000 ( 30284 PWs)   bands (ev):

    -7.3973  -7.3973  -7.3521  -7.3521  -7.2977  -7.2976  -7.2737  -7.2737
    -7.2634  -7.2634  -7.1513  -7.1513  -7.1342  -7.1342  -7.0746  -7.0746
    -7.0617  -7.0617  -7.0422  -7.0422  -7.0318  -7.0318  -7.0214  -7.0214
    -6.9933  -6.9933  -6.9688  -6.9688  -6.9144  -6.9144  -6.3711  -6.3711
    -5.1164  -5.1164  -4.6667  -4.6667  -3.5032  -3.5032  -3.3597  -3.3597
    -3.0597  -3.0597  -2.9226  -2.9226  -2.7132  -2.7131  -2.6074  -2.6074
    -2.5151  -2.5151  -2.4419  -2.4419  -2.3467  -2.3467  -2.1883  -2.1883
    -2.0347  -2.0347  -1.9522  -1.9522  -1.8822  -1.8821  -1.6177  -1.6177
     0.0014   0.0014   0.2447   0.2447   1.3527   1.3527   2.5775   2.5775
     3.3866   3.3867   4.8015   4.8015   4.9892   4.9893   5.6252

          k = 0.0155-0.0069 0.0000 ( 30137 PWs)   bands (ev):

    -8.1413  -7.5724  -7.5679  -7.4874  -7.4725  -7.4309  -7.4068  -7.3890
    -7.3694  -7.3397  -7.3162  -7.2911  -7.2648  -7.1817  -7.1761  -7.1504
    -7.1425  -7.1052  -7.0968  -7.0906  -7.0556  -7.0231  -6.9935  -6.9570
    -6.9393  -6.8797  -6.8719  -6.8634  -6.8497  -6.8129  -6.7226  -6.1255
    -5.0870  -4.8995  -4.5169  -4.2496  -3.6590  -3.3977  -3.3113  -3.2213
    -3.1545  -3.0377  -2.9728  -2.8120  -2.6856  -2.6375  -2.4167  -2.3999
    -2.3423  -2.1457  -2.0437  -2.0083  -1.9584  -1.9128  -1.7887  -1.7366
    -1.7242  -1.6124  -1.5773  -1.4644  -1.4327  -1.2475  -1.0551  -0.3690
    -0.1616  -0.0040   0.2613   0.2809   0.6178   1.0634   1.4078   2.0794
     2.8577   3.1617   3.5958   3.7434   4.0560   4.1472   4.6227

          k = 0.0155 0.0101 0.0000 ( 30126 PWs)   bands (ev):

    -8.1344  -7.5718  -7.5702  -7.4884  -7.4712  -7.4299  -7.4124  -7.3925
    -7.3643  -7.3372  -7.3167  -7.2910  -7.2628  -7.1811  -7.1763  -7.1504
    -7.1334  -7.1048  -7.0901  -7.0850  -7.0546  -7.0243  -6.9882  -6.9492
    -6.9326  -6.8789  -6.8763  -6.8594  -6.8551  -6.7990  -6.7155  -6.1096
    -5.0815  -4.8534  -4.5106  -4.1899  -3.6916  -3.4355  -3.3426  -3.2505
    -3.1708  -3.1366  -3.0555  -2.8493  -2.7210  -2.6569  -2.4065  -2.3801
    -2.3569  -2.1262  -2.0201  -2.0040  -1.9576  -1.9373  -1.8049  -1.7992
    -1.6809  -1.6102  -1.5373  -1.3973  -1.3705  -1.2874  -1.0487  -0.3034
    -0.1629   0.0746   0.0914   0.5601   0.6045   1.1135   1.2109   1.6768
     2.8570   3.1290   3.6497   3.6967   4.0927   4.2547   4.6359

          k = 0.0155 0.0270 0.0000 ( 30176 PWs)   bands (ev):

    -8.0396  -7.5505  -7.5501  -7.4749  -7.4490  -7.4164  -7.3884  -7.3769
    -7.3533  -7.3278  -7.3012  -7.2769  -7.2531  -7.1765  -7.1592  -7.1412
    -7.1293  -7.0978  -7.0938  -7.0712  -7.0481  -7.0245  -6.9814  -6.9459
    -6.9301  -6.8910  -6.8811  -6.8729  -6.8623  -6.7972  -6.7242  -6.0369
    -5.0460  -4.8723  -4.5130  -4.2307  -3.6849  -3.4376  -3.3526  -3.2683
    -3.2566  -3.1852  -3.1264  -2.8999  -2.7955  -2.6712  -2.4318  -2.4193
    -2.3262  -2.1698  -2.0855  -2.0566  -1.9957  -1.9893  -1.8984  -1.8785
    -1.7124  -1.6433  -1.5995  -1.4328  -1.3800  -1.1755  -1.0955  -0.8110
    -0.3305  -0.1253   0.3064   0.6028   0.8970   1.0401   1.3252   1.7396
     3.0013   3.2595   3.4631   3.7862   4.2179   4.5715   4.7772

          k = 0.0155 0.0439 0.0000 ( 30230 PWs)   bands (ev):

    -7.8670  -7.5164  -7.5078  -7.4492  -7.4135  -7.3901  -7.3481  -7.3404
    -7.3344  -7.3145  -7.2745  -7.2528  -7.2355  -7.1631  -7.1454  -7.1282
    -7.1243  -7.1036  -7.0854  -7.0508  -7.0382  -7.0228  -6.9730  -6.9494
    -6.9312  -6.9054  -6.9010  -6.8914  -6.8722  -6.8097  -6.7489  -5.9002
    -4.9936  -4.9846  -4.5418  -4.3518  -3.6394  -3.4314  -3.3721  -3.3249
    -3.2383  -3.2156  -3.1797  -2.9603  -2.8758  -2.6826  -2.4996  -2.4556
    -2.3952  -2.2785  -2.2311  -2.1490  -2.0927  -1.9847  -1.9690  -1.9203
    -1.8297  -1.7277  -1.6562  -1.5148  -1.4858  -1.3671  -1.1632  -0.9766
    -0.6728  -0.3805   0.6951   0.7506   1.0669   1.2122   1.4075   1.6272
     3.2248   3.3761   3.6473   3.9534   4.4142   4.7475   4.8432

          k = 0.0155 0.0608 0.0000 ( 30253 PWs)   bands (ev):

    -7.6449  -7.4750  -7.4541  -7.4143  -7.3795  -7.3491  -7.3312  -7.2993
    -7.2946  -7.2675  -7.2461  -7.2257  -7.2092  -7.1576  -7.1424  -7.1327
    -7.1022  -7.1021  -7.0687  -7.0349  -7.0272  -7.0154  -6.9642  -6.9628
    -6.9363  -6.9351  -6.9206  -6.9015  -6.8708  -6.8388  -6.7899  -5.6961
    -5.2803  -4.9079  -4.6366  -4.4368  -3.5682  -3.4665  -3.4415  -3.2771
    -3.2613  -3.2000  -3.1718  -3.0168  -2.9085  -2.7144  -2.6054  -2.5472
    -2.4665  -2.4583  -2.3068  -2.2355  -2.2003  -2.0181  -1.9938  -1.9375
    -1.9212  -1.8232  -1.8186  -1.6948  -1.6195  -1.5628  -1.3571  -1.1470
    -0.7634  -0.3532   0.7661   0.8721   1.1915   1.2001   1.6392   1.9715
     3.0208   3.5729   4.1861   4.3070   4.4885   4.6945   5.0172

          k = 0.0155 0.0778 0.0000 ( 30258 PWs)   bands (ev):

    -7.4444  -7.4326  -7.4050  -7.3746  -7.3518  -7.3290  -7.3020  -7.2864
    -7.2321  -7.2271  -7.2058  -7.1952  -7.1774  -7.1681  -7.1404  -7.1167
    -7.0976  -7.0789  -7.0487  -7.0420  -7.0164  -7.0061  -6.9847  -6.9745
    -6.9585  -6.9527  -6.9338  -6.9227  -6.8871  -6.8413  -6.7643  -5.7090
    -5.4396  -4.8349  -4.7892  -4.4820  -3.5672  -3.5357  -3.4057  -3.3216
    -3.2603  -3.1283  -3.0798  -3.0450  -2.8296  -2.7856  -2.6835  -2.6182
    -2.5814  -2.4556  -2.4408  -2.3375  -2.2424  -2.1313  -2.0836  -1.9948
    -1.9617  -1.9176  -1.9084  -1.7364  -1.7347  -1.7068  -1.6264  -1.4207
    -0.6329  -0.2124   0.6475   0.7395   0.9184   1.7596   1.9650   2.6170
     2.8568   3.4478   4.3905   4.4879   4.5573   5.0599   5.3587

          k = 0.0155-0.1084 0.0000 ( 30257 PWs)   bands (ev):

    -7.3994  -7.3845  -7.3517  -7.3467  -7.3221  -7.3086  -7.2786  -7.2756
    -7.2438  -7.2415  -7.1673  -7.1469  -7.1437  -7.1348  -7.1124  -7.0891
    -7.0886  -7.0591  -7.0560  -7.0298  -7.0282  -7.0124  -7.0085  -6.9875
    -6.9797  -6.9755  -6.9542  -6.9513  -6.9444  -6.8781  -6.4865  -6.1781
    -5.1824  -5.0158  -4.7718  -4.5475  -3.6092  -3.5240  -3.3820  -3.3332
    -3.1738  -3.0817  -3.0324  -2.9228  -2.8059  -2.7190  -2.6711  -2.6313
    -2.6072  -2.5016  -2.4741  -2.4367  -2.3037  -2.2094  -2.1429  -2.1014
    -2.0340  -1.9703  -1.9651  -1.8872  -1.8330  -1.8065  -1.6844  -1.5388
    -0.6251   0.0561   0.2743   0.6340   0.9509   2.1741   2.3698   2.7224
     2.8700   3.3520   4.5725   4.8597   4.9712   5.1314   5.4736

          k = 0.0155-0.0915 0.0000 ( 30266 PWs)   bands (ev):

    -7.3957  -7.3887  -7.3543  -7.3474  -7.2999  -7.2947  -7.2761  -7.2723
    -7.2678  -7.2565  -7.1626  -7.1458  -7.1320  -7.1252  -7.0761  -7.0738
    -7.0612  -7.0602  -7.0466  -7.0391  -7.0331  -7.0282  -7.0250  -7.0239
    -6.9992  -6.9898  -6.9779  -6.9671  -6.9418  -6.8839  -6.5941  -6.0959
    -5.3001  -5.0138  -4.6820  -4.6565  -3.5324  -3.4860  -3.3181  -3.3156
    -3.0894  -3.0275  -3.0120  -2.8201  -2.7365  -2.6567  -2.6110  -2.5800
    -2.5005  -2.4918  -2.4496  -2.4183  -2.3669  -2.3244  -2.1989  -2.1823
    -2.1146  -2.0133  -1.9987  -1.9253  -1.9107  -1.8487  -1.6028  -1.5810
    -0.6749  -0.0891   0.3158   0.6168   1.0166   2.1674   2.4015   2.5866
     3.0233   4.0913   4.6901   4.7443   5.1559   5.2985   5.3685

          k = 0.0155-0.0746 0.0000 ( 30257 PWs)   bands (ev):

    -7.4533  -7.4254  -7.3755  -7.3583  -7.3467  -7.3374  -7.3149  -7.2850
    -7.2480  -7.2463  -7.1891  -7.1774  -7.1631  -7.1595  -7.1337  -7.1007
    -7.0914  -7.0711  -7.0504  -7.0440  -7.0269  -7.0268  -7.0144  -6.9984
    -6.9888  -6.9797  -6.9567  -6.9519  -6.8956  -6.8820  -6.8385  -5.6891
    -5.5837  -4.9206  -4.7876  -4.5895  -3.4088  -3.3679  -3.3022  -3.1810
    -3.1740  -2.9817  -2.9447  -2.7799  -2.6574  -2.6060  -2.5881  -2.5285
    -2.4751  -2.4415  -2.4125  -2.3745  -2.2720  -2.1977  -2.1812  -2.1505
    -2.0956  -1.9872  -1.9730  -1.9252  -1.9136  -1.8489  -1.5839  -1.4542
    -0.7432  -0.4143   0.3091   0.9151   1.0607   1.6182   2.4465   2.4793
     3.6599   4.3428   4.4730   4.5553   4.9633   5.1152   5.2810

          k = 0.0155-0.0576 0.0000 ( 30228 PWs)   bands (ev):

    -7.6583  -7.4742  -7.4376  -7.4004  -7.3922  -7.3613  -7.3492  -7.3016
    -7.2570  -7.2519  -7.2385  -7.2189  -7.2015  -7.1843  -7.1723  -7.1163
    -7.1158  -7.0964  -7.0716  -7.0532  -7.0400  -7.0212  -6.9977  -6.9974
    -6.9736  -6.9400  -6.9302  -6.9072  -6.9022  -6.8654  -6.8346  -5.8197
    -5.3548  -4.9084  -4.7890  -4.5459  -3.3784  -3.3053  -3.2751  -3.1427
    -3.0221  -3.0125  -2.9261  -2.8060  -2.7542  -2.6006  -2.5806  -2.5119
    -2.4191  -2.2787  -2.2668  -2.2228  -2.1774  -2.1138  -2.1036  -2.0008
    -1.9732  -1.9663  -1.8956  -1.7900  -1.7636  -1.6771  -1.5745  -1.1869
    -0.7938  -0.6975   0.2179   0.9930   1.1332   1.3310   2.2666   2.5653
     4.0066   4.0100   4.1644   4.3907   4.5801   4.6617   4.8233

          k = 0.0155-0.0407 0.0000 ( 30209 PWs)   bands (ev):

    -7.8905  -7.5205  -7.4942  -7.4410  -7.4239  -7.3970  -7.3593  -7.3195
    -7.3192  -7.3048  -7.2751  -7.2548  -7.2369  -7.1767  -7.1576  -7.1411
    -7.1262  -7.1219  -7.0869  -7.0752  -7.0454  -7.0196  -6.9985  -6.9818
    -6.9630  -6.9089  -6.8983  -6.8935  -6.8626  -6.8623  -6.7825  -5.9874
    -5.1368  -5.0013  -4.5931  -4.5278  -3.4919  -3.2767  -3.2154  -3.2105
    -3.0240  -2.9516  -2.9096  -2.8369  -2.7512  -2.5925  -2.5310  -2.4958
    -2.2720  -2.2678  -2.1752  -2.1476  -2.0859  -2.0346  -1.9963  -1.8890
    -1.8614  -1.8555  -1.7282  -1.6403  -1.5697  -1.4584  -1.2475  -0.9340
    -0.7980  -0.7307   0.1753   0.5819   0.9394   1.6566   2.0558   2.5679
     3.5546   3.7462   3.8885   4.0569   4.2291   4.2773   4.4029

          k = 0.0155-0.0238 0.0000 ( 30143 PWs)   bands (ev):

    -8.0584  -7.5551  -7.5401  -7.4711  -7.4539  -7.4202  -7.3710  -7.3673
    -7.3631  -7.3332  -7.3000  -7.2777  -7.2581  -7.1747  -7.1621  -7.1542
    -7.1407  -7.1122  -7.0985  -7.0877  -7.0518  -7.0211  -6.9969  -6.9681
    -6.9500  -6.8911  -6.8811  -6.8629  -6.8612  -6.8349  -6.7448  -6.0866
    -5.0608  -4.9951  -4.5264  -4.3888  -3.5904  -3.3209  -3.2843  -3.1635
    -3.1475  -2.9838  -2.9015  -2.7801  -2.7216  -2.6174  -2.4826  -2.4184
    -2.3088  -2.1685  -2.1180  -2.0841  -2.0175  -1.9189  -1.8863  -1.8217
    -1.7340  -1.7130  -1.5979  -1.5801  -1.5226  -1.1910  -1.1190  -0.6642
    -0.5749  -0.3170   0.2170   0.3304   0.6402   1.5642   1.7916   2.4114
     3.0927   3.3988   3.6385   3.7968   4.0738   4.2176   4.2180

          k = 0.0309-0.0137 0.0000 ( 30159 PWs)   bands (ev):

    -8.0084  -7.5451  -7.5321  -7.4652  -7.4431  -7.4127  -7.3641  -7.3599
    -7.3559  -7.3279  -7.2934  -7.2713  -7.2526  -7.1664  -7.1632  -7.1473
    -7.1357  -7.1103  -7.0958  -7.0767  -7.0490  -7.0218  -6.9908  -6.9627
    -6.9448  -6.8918  -6.8833  -6.8761  -6.8700  -6.8236  -6.7460  -6.0399
    -5.0393  -4.9930  -4.5307  -4.3782  -3.5998  -3.3490  -3.2924  -3.1992
    -3.1724  -3.0548  -3.0282  -2.8324  -2.7677  -2.6232  -2.4415  -2.4368
    -2.3158  -2.1748  -2.1483  -2.1047  -1.9994  -1.9973  -1.9182  -1.8562
    -1.8213  -1.7249  -1.6101  -1.5187  -1.5020  -1.2221  -1.0717  -1.0140
    -0.5280   0.0263   0.2152   0.4049   0.6566   1.5036   1.7286   1.9290
     3.2209   3.4228   3.7593   3.8874   4.2120   4.3404   4.3705

          k = 0.0309 0.0032 0.0000 ( 30176 PWs)   bands (ev):

    -8.0396  -7.5505  -7.5501  -7.4749  -7.4490  -7.4164  -7.3884  -7.3769
    -7.3533  -7.3278  -7.3012  -7.2769  -7.2531  -7.1765  -7.1592  -7.1412
    -7.1293  -7.0978  -7.0938  -7.0712  -7.0481  -7.0245  -6.9814  -6.9459
    -6.9301  -6.8910  -6.8811  -6.8729  -6.8623  -6.7972  -6.7242  -6.0369
    -5.0460  -4.8723  -4.5130  -4.2307  -3.6849  -3.4376  -3.3526  -3.2683
    -3.2566  -3.1852  -3.1264  -2.8999  -2.7955  -2.6712  -2.4318  -2.4193
    -2.3262  -2.1698  -2.0855  -2.0566  -1.9957  -1.9893  -1.8984  -1.8785
    -1.7124  -1.6433  -1.5995  -1.4328  -1.3800  -1.1755  -1.0955  -0.8110
    -0.3305  -0.1253   0.3064   0.6028   0.8970   1.0401   1.3252   1.7396
     3.0013   3.2595   3.4631   3.7862   4.2179   4.5715   4.7773

          k = 0.0309 0.0201 0.0000 ( 30218 PWs)   bands (ev):

    -7.9852  -7.5446  -7.5371  -7.4704  -7.4370  -7.4090  -7.3863  -7.3735
    -7.3410  -7.3202  -7.2954  -7.2688  -7.2441  -7.1797  -7.1419  -7.1382
    -7.1143  -7.0934  -7.0859  -7.0585  -7.0414  -7.0263  -6.9704  -6.9333
    -6.9196  -6.9073  -6.8817  -6.8783  -6.8564  -6.7844  -6.7171  -5.9784
    -5.0255  -4.8014  -4.5007  -4.1548  -3.7402  -3.4941  -3.4424  -3.4078
    -3.2961  -3.2395  -3.2312  -2.9569  -2.8697  -2.7214  -2.4660  -2.4485
    -2.3595  -2.2246  -2.0882  -2.0619  -2.0070  -1.9727  -1.9498  -1.8900
    -1.6723  -1.6343  -1.5585  -1.4006  -1.3655  -1.2675  -1.0249  -0.8852
    -0.6646   0.2587   0.3995   0.4166   0.6402   0.8501   1.6308   1.8703
     2.8538   3.0387   3.5393   3.8523   4.2877   4.7305   4.8622

          k = 0.0309 0.0371 0.0000 ( 30231 PWs)   bands (ev):

    -7.8552  -7.5134  -7.5101  -7.4533  -7.4078  -7.3897  -7.3603  -7.3514
    -7.3264  -7.3097  -7.2769  -7.2488  -7.2279  -7.1728  -7.1274  -7.1220
    -7.1065  -7.0871  -7.0839  -7.0397  -7.0317  -7.0216  -6.9581  -6.9315
    -6.9221  -6.9136  -6.9005  -6.8816  -6.8589  -6.7859  -6.7257  -5.8581
    -4.9852  -4.8209  -4.5059  -4.2058  -3.7633  -3.5629  -3.5213  -3.4305
    -3.3353  -3.3117  -3.2698  -3.0176  -2.9451  -2.7705  -2.5192  -2.4970
    -2.4950  -2.2338  -2.2277  -2.1409  -2.0894  -2.0058  -1.9243  -1.8726
    -1.7565  -1.6603  -1.6072  -1.4354  -1.4099  -1.2731  -1.2720  -1.0293
    -0.6862  -0.2396   0.4527   0.7055   0.7696   1.0717   1.7038   1.9376
     2.6914   3.1987   3.7071   3.9822   4.4417   4.8815   5.0346

          k = 0.0309 0.0540 0.0000 ( 30248 PWs)   bands (ev):

    -7.6766  -7.4744  -7.4608  -7.4261  -7.3707  -7.3552  -7.3216  -7.3161
    -7.3058  -7.2974  -7.2507  -7.2225  -7.2080  -7.1568  -7.1252  -7.1105
    -7.1040  -7.0874  -7.0708  -7.0308  -7.0183  -6.9988  -6.9508  -6.9458
    -6.9271  -6.9268  -6.9128  -6.8819  -6.8644  -6.8025  -6.7516  -5.6725
    -5.0187  -4.9410  -4.5574  -4.3170  -3.7567  -3.6002  -3.5283  -3.4187
    -3.4048  -3.2939  -3.2810  -3.0875  -2.9896  -2.8271  -2.6738  -2.5760
    -2.5179  -2.4088  -2.2908  -2.2402  -2.1876  -2.0165  -1.9170  -1.9145
    -1.8422  -1.7044  -1.6787  -1.6764  -1.5119  -1.4693  -1.2155  -1.1320
    -0.7762  -0.5375   0.2639   1.1067   1.1719   1.4846   1.6812   1.8827
     2.4275   3.6623   3.8765   4.1810   4.6829   4.8780   5.0956

          k = 0.0309 0.0709 0.0000 ( 30238 PWs)   bands (ev):

    -7.5046  -7.4347  -7.4050  -7.3919  -7.3391  -7.3137  -7.3002  -7.2861
    -7.2711  -7.2409  -7.2246  -7.2018  -7.1825  -7.1517  -7.1337  -7.1159
    -7.0899  -7.0823  -7.0556  -7.0318  -6.9994  -6.9891  -6.9709  -6.9583
    -6.9419  -6.9356  -6.9257  -6.8961  -6.8339  -6.7950  -6.7795  -5.4383
    -5.4208  -4.9107  -4.6780  -4.3626  -3.7188  -3.6868  -3.5190  -3.3854
    -3.3721  -3.2633  -3.2214  -3.1547  -2.9740  -2.9030  -2.7467  -2.6653
    -2.5284  -2.4939  -2.4355  -2.2947  -2.2514  -2.0734  -2.0060  -1.9830
    -1.8885  -1.8258  -1.7885  -1.7374  -1.6093  -1.5625  -1.3151  -1.2129
    -1.1773  -0.3233   0.1563   0.9281   1.6814   1.7236   1.9114   2.2327
     2.4197   3.5465   4.3176   4.4488   4.5317   4.9902   5.0900

          k = 0.0309-0.1153 0.0000 ( 30280 PWs)   bands (ev):

    -7.3962  -7.3890  -7.3626  -7.3558  -7.3198  -7.3192  -7.2802  -7.2594
    -7.2186  -7.2134  -7.1902  -7.1838  -7.1578  -7.1512  -7.1271  -7.1065
    -7.0846  -7.0695  -7.0395  -7.0377  -7.0078  -6.9946  -6.9901  -6.9792
    -6.9647  -6.9504  -6.9403  -6.9248  -6.8845  -6.8415  -6.5354  -5.9059
    -5.2316  -4.8823  -4.8618  -4.4137  -3.7484  -3.6647  -3.4840  -3.3339
    -3.3041  -3.2013  -3.1578  -3.0878  -2.9305  -2.8841  -2.7422  -2.7050
    -2.5861  -2.5124  -2.4539  -2.3753  -2.2780  -2.1778  -2.1664  -1.9950
    -1.9238  -1.9103  -1.8469  -1.7614  -1.7073  -1.7004  -1.5916  -1.4343
    -1.1777  -0.1623   0.1963   0.5073   1.8580   2.0879   2.2573   2.5084
     2.9692   3.1699   4.2525   4.7651   4.9761   5.0096   5.3160

          k = 0.0309-0.0984 0.0000 ( 30278 PWs)   bands (ev):

    -7.3708  -7.3602  -7.3403  -7.3289  -7.3126  -7.2889  -7.2763  -7.2622
    -7.2457  -7.2427  -7.1655  -7.1329  -7.1248  -7.1227  -7.0973  -7.0792
    -7.0786  -7.0550  -7.0521  -7.0298  -7.0247  -7.0131  -7.0116  -6.9891
    -6.9827  -6.9752  -6.9739  -6.9594  -6.9594  -6.8592  -6.3749  -6.1812
    -5.1664  -5.1556  -4.7157  -4.5308  -3.6845  -3.6338  -3.3420  -3.3076
    -3.1641  -3.1542  -3.0888  -2.9072  -2.8658  -2.7528  -2.6848  -2.6749
    -2.5798  -2.5046  -2.4606  -2.3967  -2.3093  -2.2210  -2.2196  -2.0688
    -2.0607  -2.0085  -1.9352  -1.8598  -1.8256  -1.7800  -1.6833  -1.5023
    -1.2128  -0.1727   0.1196   0.4732   1.9303   1.9803   2.5679   2.8763
     3.2528   3.3169   4.7555   4.8334   4.8629   5.2457   5.3423

          k = 0.0309-0.0814 0.0000 ( 30265 PWs)   bands (ev):

    -7.3891  -7.3744  -7.3506  -7.3446  -7.3006  -7.2938  -7.2801  -7.2737
    -7.2588  -7.2515  -7.1845  -7.1388  -7.1261  -7.1078  -7.0815  -7.0709
    -7.0594  -7.0576  -7.0451  -7.0438  -7.0374  -7.0356  -7.0227  -7.0186
    -7.0059  -6.9915  -6.9911  -6.9741  -6.9578  -6.8610  -6.7381  -5.8024
    -5.4416  -5.1433  -4.6818  -4.5919  -3.5471  -3.5129  -3.2910  -3.1350
    -3.1101  -3.0672  -3.0069  -2.7436  -2.7178  -2.6631  -2.5632  -2.5597
    -2.4931  -2.4834  -2.4134  -2.3895  -2.3474  -2.2969  -2.1922  -2.1899
    -2.1518  -2.0538  -2.0320  -1.9022  -1.8968  -1.8461  -1.5656  -1.5186
    -1.2679  -0.2334  -0.2207   0.8606   1.9027   1.9144   2.0418   3.4027
     3.5098   4.1325   4.3883   4.8864   4.9440   5.1848   5.3977

          k = 0.0309-0.0645 0.0000 ( 30274 PWs)   bands (ev):

    -7.4782  -7.4251  -7.3788  -7.3614  -7.3566  -7.3412  -7.3257  -7.2879
    -7.2502  -7.2501  -7.2089  -7.1780  -7.1662  -7.1627  -7.1370  -7.0969
    -7.0877  -7.0755  -7.0554  -7.0446  -7.0364  -7.0306  -7.0142  -7.0074
    -6.9945  -6.9799  -6.9634  -6.9553  -6.8975  -6.8956  -6.8506  -5.6895
    -5.4907  -5.0365  -4.8211  -4.5502  -3.4116  -3.3097  -3.2887  -3.1820
    -2.9984  -2.9287  -2.9044  -2.7097  -2.6206  -2.6135  -2.5606  -2.5094
    -2.5094  -2.3997  -2.3595  -2.3268  -2.2356  -2.1943  -2.1897  -2.1321
    -2.0811  -2.0196  -1.9796  -1.9261  -1.8522  -1.8205  -1.5255  -1.3902
    -1.2757  -0.5110  -0.2712   1.2867   1.4254   1.8675   1.9097   3.3369
     4.0017   4.0625   4.5057   4.7436   4.9125   4.9759   5.0788

          k = 0.0309-0.0476 0.0000 ( 30249 PWs)   bands (ev):

    -7.6956  -7.4783  -7.4425  -7.4040  -7.3976  -7.3684  -7.3531  -7.3043
    -7.2599  -7.2559  -7.2434  -7.2223  -7.2040  -7.1905  -7.1738  -7.1174
    -7.1135  -7.1011  -7.0709  -7.0670  -7.0393  -7.0209  -7.0041  -7.0005
    -6.9822  -6.9310  -6.9286  -6.9121  -6.9104  -6.8557  -6.8333  -5.8730
    -5.2912  -4.9290  -4.8203  -4.5424  -3.3779  -3.2908  -3.2454  -3.1301
    -2.9764  -2.8985  -2.8153  -2.8149  -2.7017  -2.6496  -2.5846  -2.5546
    -2.3612  -2.2443  -2.2404  -2.2043  -2.1785  -2.1432  -2.0832  -1.9807
    -1.9623  -1.9295  -1.8921  -1.7944  -1.7687  -1.5406  -1.4311  -1.3301
    -1.0098  -0.7489  -0.1866   0.9586   1.5434   1.5960   1.9671   3.0504
     3.8656   4.1681   4.2134   4.3257   4.3454   4.6181   4.6351

          k = 0.0309-0.0306 0.0000 ( 30209 PWs)   bands (ev):

    -7.8905  -7.5205  -7.4942  -7.4410  -7.4239  -7.3970  -7.3593  -7.3195
    -7.3192  -7.3048  -7.2751  -7.2548  -7.2369  -7.1767  -7.1576  -7.1411
    -7.1262  -7.1219  -7.0869  -7.0752  -7.0454  -7.0196  -6.9985  -6.9818
    -6.9630  -6.9089  -6.8983  -6.8935  -6.8626  -6.8623  -6.7825  -5.9874
    -5.1368  -5.0013  -4.5931  -4.5278  -3.4919  -3.2767  -3.2154  -3.2105
    -3.0240  -2.9516  -2.9096  -2.8369  -2.7512  -2.5925  -2.5310  -2.4958
    -2.2720  -2.2678  -2.1752  -2.1476  -2.0859  -2.0346  -1.9963  -1.8890
    -1.8614  -1.8555  -1.7282  -1.6403  -1.5697  -1.4584  -1.2475  -0.9340
    -0.7980  -0.7307   0.1753   0.5819   0.9394   1.6566   2.0558   2.5679
     3.5546   3.7462   3.8885   4.0569   4.2291   4.2773   4.4029

          k = 0.0464-0.0206 0.0000 ( 30220 PWs)   bands (ev):

    -7.8007  -7.5052  -7.4810  -7.4314  -7.4081  -7.3814  -7.3483  -7.3116
    -7.3106  -7.2909  -7.2657  -7.2441  -7.2276  -7.1678  -7.1490  -7.1435
    -7.1183  -7.1136  -7.0814  -7.0552  -7.0418  -7.0205  -6.9862  -6.9731
    -6.9513  -6.9136  -6.9079  -6.8986  -6.8784  -6.8490  -6.7853  -5.8879
    -5.1825  -4.9614  -4.6103  -4.4929  -3.5047  -3.3405  -3.2777  -3.2142
    -3.1375  -3.1065  -3.0343  -2.8680  -2.8621  -2.6031  -2.5377  -2.4696
    -2.3691  -2.3138  -2.1981  -2.1834  -2.1309  -2.0547  -2.0091  -1.9568
    -1.9034  -1.8507  -1.7084  -1.6453  -1.6156  -1.5271  -1.3969  -1.0115
    -0.8382  -0.0592   0.2618   0.8225   0.8254   1.4380   1.7674   2.0375
     3.6967   3.8475   3.9014   3.9803   4.4519   4.4695   4.7524

          k = 0.0464-0.0037 0.0000 ( 30230 PWs)   bands (ev):

    -7.8670  -7.5164  -7.5078  -7.4492  -7.4135  -7.3901  -7.3481  -7.3404
    -7.3344  -7.3145  -7.2745  -7.2528  -7.2355  -7.1631  -7.1454  -7.1282
    -7.1243  -7.1036  -7.0854  -7.0508  -7.0382  -7.0228  -6.9730  -6.9494
    -6.9312  -6.9054  -6.9010  -6.8914  -6.8722  -6.8097  -6.7489  -5.9002
    -4.9936  -4.9846  -4.5418  -4.3518  -3.6394  -3.4314  -3.3721  -3.3249
    -3.2383  -3.2156  -3.1797  -2.9603  -2.8758  -2.6826  -2.4996  -2.4556
    -2.3952  -2.2785  -2.2311  -2.1490  -2.0927  -1.9847  -1.9690  -1.9203
    -1.8297  -1.7277  -1.6562  -1.5148  -1.4858  -1.3671  -1.1632  -0.9766
    -0.6728  -0.3805   0.6951   0.7506   1.0669   1.2122   1.4075   1.6272
     3.2248   3.3761   3.6473   3.9534   4.4142   4.7475   4.8432

          k = 0.0464 0.0133 0.0000 ( 30231 PWs)   bands (ev):

    -7.8552  -7.5134  -7.5101  -7.4533  -7.4078  -7.3897  -7.3603  -7.3514
    -7.3264  -7.3097  -7.2769  -7.2488  -7.2279  -7.1728  -7.1274  -7.1220
    -7.1065  -7.0871  -7.0839  -7.0397  -7.0317  -7.0216  -6.9581  -6.9315
    -6.9221  -6.9136  -6.9005  -6.8816  -6.8589  -6.7859  -6.7257  -5.8581
    -4.9852  -4.8209  -4.5059  -4.2058  -3.7633  -3.5629  -3.5213  -3.4305
    -3.3353  -3.3117  -3.2698  -3.0176  -2.9451  -2.7705  -2.5192  -2.4970
    -2.4950  -2.2338  -2.2277  -2.1409  -2.0894  -2.0058  -1.9243  -1.8726
    -1.7565  -1.6603  -1.6072  -1.4354  -1.4099  -1.2731  -1.2720  -1.0293
    -0.6862  -0.2396   0.4527   0.7055   0.7696   1.0717   1.7038   1.9376
     2.6914   3.1987   3.7071   3.9822   4.4417   4.8815   5.0346

          k = 0.0464 0.0302 0.0000 ( 30276 PWs)   bands (ev):

    -7.7773  -7.4924  -7.4911  -7.4448  -7.3921  -7.3759  -7.3544  -7.3383
    -7.3103  -7.3007  -7.2700  -7.2336  -7.2109  -7.1720  -7.1231  -7.0972
    -7.0911  -7.0778  -7.0764  -7.0331  -7.0232  -7.0012  -6.9451  -6.9421
    -6.9147  -6.9105  -6.9013  -6.8775  -6.8523  -6.7779  -6.7170  -5.7572
    -4.9764  -4.7117  -4.4846  -4.1086  -3.8623  -3.7873  -3.5824  -3.5078
    -3.4551  -3.3516  -3.3199  -3.0664  -3.0227  -2.8565  -2.6537  -2.5745
    -2.5288  -2.3141  -2.2252  -2.1351  -2.1073  -2.0736  -1.8867  -1.8185
    -1.7226  -1.6466  -1.6443  -1.5588  -1.4076  -1.4063  -1.3930  -0.9725
    -0.6806  -0.0267   0.0662   0.5438   0.8738   0.9467   2.1572   2.2380
     2.2696   3.1279   4.0775   4.2130   4.5563   4.8903   4.9730

          k = 0.0464 0.0471 0.0000 ( 30256 PWs)   bands (ev):

    -7.6624  -7.4647  -7.4438  -7.4245  -7.3674  -7.3461  -7.3284  -7.3049
    -7.2988  -7.2900  -7.2543  -7.2106  -7.1913  -7.1609  -7.1123  -7.0947
    -7.0797  -7.0713  -7.0685  -7.0327  -7.0042  -6.9742  -6.9513  -6.9312
    -6.9238  -6.9119  -6.8933  -6.8716  -6.8540  -6.7847  -6.7248  -5.5960
    -4.9801  -4.7591  -4.4985  -4.2060  -3.9134  -3.7974  -3.6212  -3.5634
    -3.5410  -3.3604  -3.3448  -3.1260  -3.0777  -2.9357  -2.8075  -2.6078
    -2.5867  -2.4538  -2.2570  -2.2225  -2.1852  -2.0847  -1.9109  -1.8663
    -1.7736  -1.6847  -1.6643  -1.6322  -1.5758  -1.4382  -1.4364  -0.9987
    -0.5735  -0.3858  -0.1369   0.7270   1.2725   1.2948   1.8306   1.9558
     2.5932   3.4964   4.2394   4.3319   4.7234   4.7903   5.1920

          k = 0.0464 0.0641 0.0000 ( 30259 PWs)   bands (ev):

    -7.5491  -7.4345  -7.3950  -7.3882  -7.3284  -7.3151  -7.2958  -7.2822
    -7.2802  -7.2538  -7.2342  -7.1842  -7.1758  -7.1415  -7.1158  -7.0965
    -7.0877  -7.0692  -7.0580  -7.0276  -6.9883  -6.9878  -6.9527  -6.9382
    -6.9215  -6.9117  -6.8985  -6.8710  -6.8050  -6.7688  -6.7522  -5.4040
    -5.0869  -4.9974  -4.5734  -4.2662  -3.8921  -3.7768  -3.6633  -3.5674
    -3.5141  -3.3397  -3.3242  -3.2098  -3.0940  -3.0068  -2.8948  -2.6521
    -2.5936  -2.5656  -2.4047  -2.2959  -2.2275  -2.0990  -2.0172  -1.9373
    -1.8400  -1.7512  -1.7208  -1.6647  -1.5814  -1.5068  -1.4884  -1.1098
    -0.8445  -0.5080  -0.1089   1.0327   1.4410   1.6661   1.7732   1.9664
     2.8003   3.9197   4.1400   4.4070   4.5735   4.8719   5.0597

          k = 0.0464-0.1221 0.0000 ( 30282 PWs)   bands (ev):

    -7.4512  -7.4015  -7.3608  -7.3538  -7.3004  -7.2949  -7.2777  -7.2677
    -7.2218  -7.2138  -7.2138  -7.1775  -7.1509  -7.1505  -7.1177  -7.1100
    -7.0780  -7.0723  -7.0475  -7.0258  -7.0026  -6.9850  -6.9697  -6.9574
    -6.9427  -6.9226  -6.9079  -6.8955  -6.8345  -6.7990  -6.5253  -5.5638
    -5.3232  -4.9026  -4.7306  -4.2775  -3.8718  -3.8507  -3.6496  -3.4301
    -3.4222  -3.3020  -3.2718  -3.2343  -3.0602  -3.0392  -2.8956  -2.6931
    -2.6073  -2.5393  -2.5034  -2.3600  -2.2420  -2.1832  -2.1206  -2.0192
    -1.8424  -1.7863  -1.7707  -1.7551  -1.6145  -1.5558  -1.5550  -1.2843
    -1.2426  -0.5299   0.1236   0.7996   1.5566   1.7536   2.2408   2.7068
     2.8902   3.6840   4.3001   4.4665   4.5928   4.8229   5.4419

          k = 0.0464-0.1052 0.0000 ( 30275 PWs)   bands (ev):

    -7.3742  -7.3672  -7.3297  -7.3250  -7.3125  -7.2846  -7.2820  -7.2388
    -7.2122  -7.2002  -7.1814  -7.1773  -7.1438  -7.1254  -7.1211  -7.0930
    -7.0781  -7.0620  -7.0359  -7.0313  -7.0142  -6.9976  -6.9918  -6.9745
    -6.9711  -6.9570  -6.9298  -6.9295  -6.8841  -6.8378  -6.1928  -6.0542
    -5.3818  -4.9707  -4.6854  -4.3774  -3.8563  -3.8470  -3.4817  -3.3330
    -3.3023  -3.2583  -3.2014  -3.0909  -3.0012  -2.9640  -2.8353  -2.6855
    -2.6058  -2.5168  -2.4701  -2.3676  -2.2948  -2.2510  -2.2034  -2.0257
    -1.9117  -1.8806  -1.8250  -1.7821  -1.7075  -1.6923  -1.5783  -1.5701
    -1.4103  -0.5656   0.3967   0.4558   1.4433   2.4045   2.8141   2.9029
     3.0190   3.6640   4.2197   4.5172   4.7192   5.2035   5.6711

          k = 0.0464-0.0883 0.0000 ( 30255 PWs)   bands (ev):

    -7.3510  -7.3492  -7.3284  -7.3103  -7.3048  -7.2757  -7.2732  -7.2641
    -7.2470  -7.2459  -7.1663  -7.1281  -7.1185  -7.0956  -7.0867  -7.0739
    -7.0712  -7.0531  -7.0441  -7.0316  -7.0229  -7.0219  -7.0072  -6.9989
    -6.9860  -6.9858  -6.9771  -6.9694  -6.9658  -6.8457  -6.4894  -5.8451
    -5.4172  -5.2433  -4.5539  -4.5410  -3.7620  -3.6989  -3.2913  -3.2499
    -3.2016  -3.1478  -3.1076  -2.8996  -2.8779  -2.8115  -2.7173  -2.6288
    -2.5822  -2.4921  -2.4587  -2.3588  -2.3068  -2.2229  -2.2171  -2.0774
    -2.0401  -2.0196  -1.9376  -1.8379  -1.8178  -1.7813  -1.7067  -1.5830
    -1.4615  -0.5792   0.0362   0.8563   1.3681   2.4184   2.9521   3.2182
     3.4001   4.0979   4.2461   4.4731   4.6804   5.1297   5.5365

          k = 0.0464-0.0714 0.0000 ( 30249 PWs)   bands (ev):

    -7.3863  -7.3660  -7.3462  -7.3450  -7.3004  -7.2937  -7.2829  -7.2754
    -7.2497  -7.2440  -7.2047  -7.1343  -7.1232  -7.0957  -7.0859  -7.0678
    -7.0590  -7.0565  -7.0492  -7.0453  -7.0428  -7.0365  -7.0168  -7.0073
    -7.0067  -7.0035  -7.0031  -6.9788  -6.9617  -6.8546  -6.7844  -5.6083
    -5.4939  -5.2981  -4.6970  -4.5378  -3.5770  -3.4982  -3.2845  -3.1186
    -3.0842  -3.0182  -2.9942  -2.7575  -2.7029  -2.6404  -2.5649  -2.5584
    -2.5150  -2.4786  -2.4115  -2.3775  -2.3261  -2.2768  -2.1994  -2.1647
    -2.1019  -2.0576  -2.0444  -1.8953  -1.8483  -1.8476  -1.6293  -1.4898
    -1.4823  -0.5170  -0.2672   1.2450   1.4043   1.8889   2.6681   3.6470
     3.8562   4.0993   4.4348   4.4991   4.7470   4.8921   5.2916

          k = 0.0464-0.0544 0.0000 ( 30274 PWs)   bands (ev):

    -7.4782  -7.4251  -7.3788  -7.3614  -7.3566  -7.3412  -7.3257  -7.2879
    -7.2502  -7.2501  -7.2089  -7.1780  -7.1662  -7.1627  -7.1370  -7.0969
    -7.0877  -7.0755  -7.0554  -7.0446  -7.0364  -7.0306  -7.0142  -7.0074
    -6.9945  -6.9799  -6.9634  -6.9553  -6.8975  -6.8956  -6.8506  -5.6895
    -5.4907  -5.0365  -4.8211  -4.5502  -3.4116  -3.3097  -3.2887  -3.1820
    -2.9984  -2.9287  -2.9044  -2.7097  -2.6206  -2.6135  -2.5606  -2.5094
    -2.5094  -2.3997  -2.3595  -2.3268  -2.2356  -2.1943  -2.1897  -2.1321
    -2.0811  -2.0196  -1.9796  -1.9261  -1.8522  -1.8205  -1.5255  -1.3902
    -1.2757  -0.5110  -0.2712   1.2867   1.4254   1.8675   1.9097   3.3369
     4.0017   4.0625   4.5057   4.7436   4.9124   4.9760   5.0788

          k = 0.0464-0.0375 0.0000 ( 30228 PWs)   bands (ev):

    -7.6583  -7.4742  -7.4376  -7.4004  -7.3922  -7.3613  -7.3492  -7.3016
    -7.2570  -7.2519  -7.2385  -7.2189  -7.2015  -7.1843  -7.1723  -7.1163
    -7.1158  -7.0964  -7.0716  -7.0532  -7.0400  -7.0212  -6.9977  -6.9974
    -6.9736  -6.9400  -6.9302  -6.9072  -6.9022  -6.8654  -6.8346  -5.8197
    -5.3548  -4.9084  -4.7890  -4.5459  -3.3784  -3.3053  -3.2751  -3.1427
    -3.0221  -3.0125  -2.9261  -2.8060  -2.7542  -2.6006  -2.5806  -2.5119
    -2.4191  -2.2787  -2.2668  -2.2228  -2.1774  -2.1138  -2.1036  -2.0008
    -1.9732  -1.9663  -1.8956  -1.7900  -1.7636  -1.6771  -1.5745  -1.1869
    -0.7938  -0.6975   0.2179   0.9930   1.1332   1.3310   2.2666   2.5653
     4.0066   4.0100   4.1644   4.3907   4.5801   4.6617   4.8233

          k = 0.0619-0.0274 0.0000 ( 30259 PWs)   bands (ev):

    -7.5594  -7.4598  -7.4242  -7.3901  -7.3766  -7.3399  -7.3395  -7.2947
    -7.2473  -7.2413  -7.2247  -7.2089  -7.1935  -7.1740  -7.1615  -7.1191
    -7.1095  -7.0882  -7.0619  -7.0420  -7.0299  -7.0207  -6.9892  -6.9811
    -6.9586  -6.9575  -6.9269  -6.9018  -6.8928  -6.8667  -6.8380  -5.6673
    -5.5105  -4.8607  -4.7514  -4.5379  -3.3882  -3.3746  -3.3700  -3.2503
    -3.1881  -3.0585  -3.0236  -2.9000  -2.8050  -2.6410  -2.6199  -2.5164
    -2.4838  -2.4315  -2.3558  -2.2726  -2.1937  -2.0903  -2.0666  -2.0641
    -1.9838  -1.9517  -1.9140  -1.7711  -1.7478  -1.6745  -1.6497  -1.3468
    -0.5629  -0.0427   0.2515   0.8947   1.1208   1.3508   1.6242   2.5756
     3.7195   3.7693   4.0794   4.2516   4.7005   4.7913   5.1773

          k = 0.0619-0.0105 0.0000 ( 30253 PWs)   bands (ev):

    -7.6449  -7.4750  -7.4541  -7.4143  -7.3795  -7.3491  -7.3312  -7.2993
    -7.2946  -7.2675  -7.2461  -7.2257  -7.2092  -7.1576  -7.1424  -7.1327
    -7.1022  -7.1021  -7.0687  -7.0349  -7.0272  -7.0154  -6.9642  -6.9628
    -6.9363  -6.9351  -6.9206  -6.9015  -6.8708  -6.8388  -6.7899  -5.6961
    -5.2803  -4.9079  -4.6366  -4.4368  -3.5682  -3.4665  -3.4415  -3.2771
    -3.2613  -3.2000  -3.1718  -3.0168  -2.9085  -2.7144  -2.6054  -2.5472
    -2.4665  -2.4583  -2.3068  -2.2355  -2.2003  -2.0181  -1.9938  -1.9375
    -1.9212  -1.8232  -1.8186  -1.6948  -1.6195  -1.5628  -1.3571  -1.1470
    -0.7634  -0.3532   0.7661   0.8721   1.1915   1.2001   1.6392   1.9715
     3.0208   3.5729   4.1861   4.3070   4.4885   4.6945   5.0172

          k = 0.0619 0.0064 0.0000 ( 30248 PWs)   bands (ev):

    -7.6766  -7.4744  -7.4608  -7.4261  -7.3707  -7.3552  -7.3216  -7.3161
    -7.3058  -7.2974  -7.2507  -7.2225  -7.2080  -7.1568  -7.1252  -7.1105
    -7.1040  -7.0874  -7.0708  -7.0308  -7.0183  -6.9988  -6.9508  -6.9458
    -6.9271  -6.9268  -6.9128  -6.8819  -6.8644  -6.8025  -6.7516  -5.6725
    -5.0187  -4.9410  -4.5573  -4.3170  -3.7567  -3.6002  -3.5283  -3.4187
    -3.4048  -3.2939  -3.2810  -3.0875  -2.9896  -2.8271  -2.6738  -2.5760
    -2.5179  -2.4088  -2.2908  -2.2402  -2.1876  -2.0165  -1.9170  -1.9145
    -1.8422  -1.7044  -1.6787  -1.6764  -1.5119  -1.4693  -1.2155  -1.1320
    -0.7762  -0.5375   0.2639   1.1067   1.1719   1.4846   1.6812   1.8827
     2.4275   3.6623   3.8765   4.1810   4.6830   4.8780   5.0956

          k = 0.0619 0.0233 0.0000 ( 30256 PWs)   bands (ev):

    -7.6624  -7.4647  -7.4438  -7.4245  -7.3674  -7.3461  -7.3284  -7.3049
    -7.2988  -7.2900  -7.2543  -7.2106  -7.1913  -7.1609  -7.1123  -7.0947
    -7.0797  -7.0713  -7.0685  -7.0327  -7.0042  -6.9742  -6.9513  -6.9312
    -6.9238  -6.9119  -6.8933  -6.8716  -6.8540  -6.7847  -6.7248  -5.5960
    -4.9801  -4.7591  -4.4985  -4.2060  -3.9134  -3.7974  -3.6212  -3.5634
    -3.5410  -3.3604  -3.3448  -3.1260  -3.0777  -2.9357  -2.8075  -2.6078
    -2.5867  -2.4538  -2.2570  -2.2225  -2.1852  -2.0847  -1.9109  -1.8663
    -1.7736  -1.6847  -1.6643  -1.6322  -1.5758  -1.4382  -1.4364  -0.9987
    -0.5735  -0.3858  -0.1369   0.7270   1.2725   1.2948   1.8306   1.9558
     2.5932   3.4964   4.2394   4.3318   4.7234   4.7903   5.1920

          k = 0.0619 0.0403 0.0000 ( 30318 PWs)   bands (ev):

    -7.6222  -7.4516  -7.4111  -7.4092  -7.3627  -7.3286  -7.3172  -7.2871
    -7.2778  -7.2624  -7.2519  -7.1941  -7.1689  -7.1551  -7.1080  -7.0796
    -7.0693  -7.0634  -7.0546  -7.0330  -6.9886  -6.9881  -6.9404  -6.9059
    -6.9053  -6.8812  -6.8703  -6.8687  -6.8479  -6.7832  -6.7136  -5.4763
    -5.0426  -4.5853  -4.4636  -4.0887  -4.0780  -3.9959  -3.7262  -3.6595
    -3.5948  -3.3975  -3.3865  -3.1625  -3.1513  -3.0318  -2.9341  -2.6839
    -2.6344  -2.5484  -2.2919  -2.2128  -2.2081  -2.1311  -2.0443  -1.8373
    -1.7950  -1.7903  -1.7180  -1.6514  -1.5464  -1.4390  -1.4139  -0.9510
    -0.6451  -0.2333  -0.2326   0.6102   1.0990   1.4665   1.6379   2.0631
     2.7359   3.8183   4.2670   4.4456   4.8844   4.9312   5.2087

          k = 0.0619 0.0572 0.0000 ( 30254 PWs)   bands (ev):

    -7.5688  -7.4352  -7.3848  -7.3736  -7.3459  -7.3057  -7.2940  -7.2825
    -7.2684  -7.2430  -7.2092  -7.1738  -7.1518  -7.1409  -7.0982  -7.0876
    -7.0736  -7.0570  -7.0525  -7.0291  -6.9984  -6.9757  -6.9552  -6.9099
    -6.8879  -6.8850  -6.8715  -6.8522  -6.7951  -6.7214  -6.7061  -5.4079
    -5.0456  -4.7289  -4.4929  -4.2235  -3.9989  -3.9002  -3.8196  -3.7551
    -3.5867  -3.3967  -3.3965  -3.2309  -3.1978  -3.0939  -3.0246  -2.7022
    -2.6856  -2.6300  -2.4301  -2.2749  -2.2032  -2.1840  -2.0995  -1.9683
    -1.8218  -1.7993  -1.6866  -1.6674  -1.5696  -1.4610  -1.4424  -0.9873
    -0.7310  -0.4928  -0.0989   0.7481   1.3179   1.4382   1.7561   1.8817
     3.1758   3.9448   3.9801   4.6091   4.8258   5.1858   5.5970

          k = 0.0619-0.1290 0.0000 ( 30291 PWs)   bands (ev):

    -7.5048  -7.4139  -7.3564  -7.3442  -7.3116  -7.2839  -7.2772  -7.2687
    -7.2622  -7.2288  -7.1742  -7.1522  -7.1464  -7.1234  -7.1150  -7.0906
    -7.0841  -7.0634  -7.0508  -7.0311  -7.0007  -6.9798  -6.9615  -6.9239
    -6.9045  -6.8894  -6.8778  -6.8688  -6.8170  -6.7512  -6.4493  -5.5144
    -5.1691  -4.8480  -4.5877  -4.1853  -4.0501  -3.9260  -3.7854  -3.6408
    -3.5230  -3.3700  -3.3503  -3.3176  -3.2052  -3.1129  -3.0410  -2.7063
    -2.6673  -2.6587  -2.5283  -2.3429  -2.2254  -2.2089  -2.1035  -2.0951
    -1.8165  -1.8026  -1.7065  -1.6941  -1.6449  -1.5089  -1.4935  -1.1003
    -0.8820  -0.7759   0.1426   0.9742   1.1436   1.4098   2.0548   2.3246
     3.7463   3.8042   3.9089   4.2875   4.8831   5.4592   5.5283

          k = 0.0619-0.1121 0.0000 ( 30298 PWs)   bands (ev):

    -7.4329  -7.3876  -7.3296  -7.3272  -7.2933  -7.2797  -7.2668  -7.2575
    -7.2118  -7.2054  -7.1742  -7.1620  -7.1471  -7.1266  -7.1193  -7.1056
    -7.0723  -7.0685  -7.0451  -7.0343  -7.0048  -6.9910  -6.9648  -6.9480
    -6.9355  -6.9235  -6.8971  -6.8881  -6.8384  -6.8011  -6.1333  -5.6554
    -5.6546  -4.7699  -4.5965  -4.2044  -4.1279  -3.9911  -3.6333  -3.4361
    -3.4137  -3.3367  -3.3124  -3.2532  -3.1503  -3.0994  -2.9849  -2.6886
    -2.6640  -2.5739  -2.5414  -2.3610  -2.2653  -2.2398  -2.1832  -2.0702
    -1.8207  -1.8188  -1.7644  -1.7506  -1.7460  -1.5919  -1.5448  -1.2655
    -1.2546  -0.7833   0.4576   0.7323   1.0259   1.7253   2.7577   2.8301
     3.6213   3.6693   3.9086   4.4641   5.2114   5.2221   5.4335

          k = 0.0619-0.0951 0.0000 ( 30273 PWs)   bands (ev):

    -7.3689  -7.3586  -7.3132  -7.3115  -7.2989  -7.2985  -7.2630  -7.2434
    -7.2111  -7.1918  -7.1765  -7.1751  -7.1398  -7.1247  -7.1040  -7.0900
    -7.0772  -7.0587  -7.0353  -7.0346  -7.0144  -6.9987  -6.9893  -6.9742
    -6.9703  -6.9611  -6.9331  -6.9263  -6.8844  -6.8351  -6.1102  -5.8656
    -5.6846  -5.0065  -4.5070  -4.3709  -4.0145  -3.8723  -3.4467  -3.3362
    -3.2856  -3.2744  -3.2104  -3.0950  -3.0195  -3.0137  -2.8714  -2.6521
    -2.6353  -2.5098  -2.4806  -2.3706  -2.3047  -2.2449  -2.2056  -2.0499
    -1.9074  -1.8640  -1.8259  -1.7956  -1.7787  -1.6867  -1.6624  -1.5755
    -1.3952  -0.7367   0.3591   0.7966   1.0002   2.3827   2.9079   3.2560
     3.7275   3.7292   3.9640   4.0411   5.2503   5.3906   5.7180

          k = 0.0619-0.0782 0.0000 ( 30255 PWs)   bands (ev):

    -7.3510  -7.3492  -7.3284  -7.3103  -7.3048  -7.2757  -7.2732  -7.2641
    -7.2470  -7.2459  -7.1663  -7.1281  -7.1185  -7.0956  -7.0867  -7.0739
    -7.0712  -7.0531  -7.0441  -7.0316  -7.0229  -7.0219  -7.0072  -6.9989
    -6.9860  -6.9858  -6.9771  -6.9694  -6.9658  -6.8457  -6.4894  -5.8451
    -5.4172  -5.2433  -4.5539  -4.5410  -3.7620  -3.6989  -3.2913  -3.2499
    -3.2016  -3.1478  -3.1076  -2.8996  -2.8779  -2.8115  -2.7173  -2.6288
    -2.5822  -2.4921  -2.4587  -2.3588  -2.3068  -2.2229  -2.2171  -2.0774
    -2.0401  -2.0196  -1.9376  -1.8379  -1.8178  -1.7813  -1.7067  -1.5830
    -1.4615  -0.5792   0.0362   0.8563   1.3681   2.4184   2.9521   3.2182
     3.4001   4.0979   4.2461   4.4731   4.6804   5.1297   5.5364

          k = 0.0619-0.0613 0.0000 ( 30265 PWs)   bands (ev):

    -7.3891  -7.3744  -7.3506  -7.3446  -7.3006  -7.2938  -7.2801  -7.2737
    -7.2588  -7.2515  -7.1845  -7.1388  -7.1261  -7.1078  -7.0815  -7.0709
    -7.0594  -7.0576  -7.0451  -7.0438  -7.0374  -7.0356  -7.0227  -7.0186
    -7.0059  -6.9915  -6.9911  -6.9741  -6.9578  -6.8610  -6.7381  -5.8024
    -5.4416  -5.1433  -4.6818  -4.5919  -3.5471  -3.5129  -3.2910  -3.1350
    -3.1101  -3.0672  -3.0069  -2.7436  -2.7178  -2.6632  -2.5632  -2.5597
    -2.4931  -2.4834  -2.4134  -2.3895  -2.3474  -2.2969  -2.1922  -2.1899
    -2.1518  -2.0538  -2.0320  -1.9022  -1.8968  -1.8461  -1.5656  -1.5186
    -1.2679  -0.2334  -0.2207   0.8606   1.9027   1.9144   2.0418   3.4027
     3.5098   4.1325   4.3883   4.8864   4.9439   5.1848   5.3978

          k = 0.0619-0.0444 0.0000 ( 30257 PWs)   bands (ev):

    -7.4533  -7.4254  -7.3755  -7.3583  -7.3467  -7.3374  -7.3149  -7.2850
    -7.2480  -7.2463  -7.1891  -7.1774  -7.1631  -7.1595  -7.1337  -7.1007
    -7.0914  -7.0711  -7.0504  -7.0440  -7.0269  -7.0268  -7.0144  -6.9984
    -6.9888  -6.9797  -6.9567  -6.9519  -6.8956  -6.8820  -6.8385  -5.6891
    -5.5837  -4.9206  -4.7876  -4.5895  -3.4088  -3.3679  -3.3022  -3.1810
    -3.1740  -2.9817  -2.9447  -2.7799  -2.6574  -2.6060  -2.5881  -2.5285
    -2.4751  -2.4415  -2.4125  -2.3745  -2.2720  -2.1977  -2.1812  -2.1505
    -2.0956  -1.9872  -1.9730  -1.9252  -1.9136  -1.8489  -1.5839  -1.4542
    -0.7432  -0.4143   0.3091   0.9151   1.0607   1.6182   2.4465   2.4793
     3.6599   4.3428   4.4730   4.5553   4.9634   5.1151   5.2956

          k = 0.0774-0.0343 0.0000 ( 30282 PWs)   bands (ev):

    -7.4187  -7.4182  -7.3668  -7.3528  -7.3311  -7.3293  -7.2960  -7.2814
    -7.2443  -7.2442  -7.1730  -7.1619  -7.1598  -7.1474  -7.1264  -7.0978
    -7.0931  -7.0655  -7.0523  -7.0378  -7.0288  -7.0121  -7.0090  -6.9975
    -6.9816  -6.9755  -6.9533  -6.9486  -6.9097  -6.8915  -6.7129  -5.9371
    -5.3949  -4.8980  -4.7552  -4.5962  -3.4595  -3.4566  -3.3415  -3.3324
    -3.1796  -3.0125  -2.9499  -2.9166  -2.7146  -2.6793  -2.6091  -2.5879
    -2.5713  -2.4794  -2.4704  -2.4204  -2.2873  -2.2008  -2.1547  -2.1235
    -2.0367  -1.9878  -1.9366  -1.9184  -1.8767  -1.8398  -1.6552  -1.5231
    -0.2592   0.0111   0.2193   0.5457   1.2162   1.4818   1.9489   3.0479
     3.2439   3.5733   4.3046   4.5852   5.1909   5.2081   5.4502

          k = 0.0774-0.0174 0.0000 ( 30258 PWs)   bands (ev):

    -7.4444  -7.4326  -7.4050  -7.3746  -7.3518  -7.3290  -7.3020  -7.2864
    -7.2321  -7.2271  -7.2058  -7.1952  -7.1774  -7.1681  -7.1404  -7.1167
    -7.0976  -7.0789  -7.0487  -7.0420  -7.0164  -7.0061  -6.9847  -6.9745
    -6.9585  -6.9527  -6.9338  -6.9227  -6.8871  -6.8413  -6.7643  -5.7090
    -5.4396  -4.8349  -4.7892  -4.4820  -3.5672  -3.5357  -3.4057  -3.3216
    -3.2603  -3.1283  -3.0798  -3.0450  -2.8296  -2.7856  -2.6835  -2.6182
    -2.5814  -2.4556  -2.4408  -2.3375  -2.2424  -2.1313  -2.0836  -1.9948
    -1.9617  -1.9176  -1.9084  -1.7364  -1.7347  -1.7068  -1.6264  -1.4207
    -0.6329  -0.2124   0.6475   0.7395   0.9184   1.7596   1.9650   2.6170
     2.8568   3.4478   4.3905   4.4879   4.5573   5.0599   5.3587

          k = 0.0774-0.0004 0.0000 ( 30238 PWs)   bands (ev):

    -7.5046  -7.4347  -7.4050  -7.3919  -7.3391  -7.3137  -7.3002  -7.2861
    -7.2711  -7.2409  -7.2246  -7.2018  -7.1825  -7.1517  -7.1337  -7.1159
    -7.0899  -7.0823  -7.0556  -7.0318  -6.9994  -6.9891  -6.9709  -6.9583
    -6.9419  -6.9356  -6.9257  -6.8961  -6.8339  -6.7950  -6.7795  -5.4383
    -5.4208  -4.9107  -4.6780  -4.3626  -3.7188  -3.6868  -3.5190  -3.3854
    -3.3721  -3.2633  -3.2214  -3.1547  -2.9740  -2.9030  -2.7467  -2.6653
    -2.5284  -2.4939  -2.4355  -2.2947  -2.2514  -2.0734  -2.0060  -1.9830
    -1.8885  -1.8258  -1.7885  -1.7374  -1.6093  -1.5625  -1.3151  -1.2129
    -1.1773  -0.3233   0.1563   0.9281   1.6814   1.7236   1.9114   2.2327
     2.4197   3.5465   4.3176   4.4488   4.5316   4.9902   5.0900

          k = 0.0774 0.0165 0.0000 ( 30259 PWs)   bands (ev):

    -7.5491  -7.4345  -7.3950  -7.3882  -7.3284  -7.3151  -7.2958  -7.2822
    -7.2802  -7.2538  -7.2342  -7.1842  -7.1758  -7.1415  -7.1158  -7.0965
    -7.0877  -7.0692  -7.0580  -7.0276  -6.9883  -6.9878  -6.9527  -6.9382
    -6.9215  -6.9117  -6.8985  -6.8710  -6.8050  -6.7688  -6.7522  -5.4040
    -5.0869  -4.9974  -4.5733  -4.2662  -3.8921  -3.7768  -3.6633  -3.5674
    -3.5141  -3.3397  -3.3242  -3.2098  -3.0940  -3.0068  -2.8948  -2.6521
    -2.5936  -2.5656  -2.4047  -2.2959  -2.2275  -2.0990  -2.0172  -1.9373
    -1.8400  -1.7512  -1.7208  -1.6647  -1.5814  -1.5068  -1.4884  -1.1098
    -0.8445  -0.5080  -0.1089   1.0327   1.4410   1.6661   1.7732   1.9664
     2.8003   3.9197   4.1400   4.4070   4.5735   4.8719   5.0597

          k = 0.0774 0.0334 0.0000 ( 30254 PWs)   bands (ev):

    -7.5688  -7.4352  -7.3848  -7.3736  -7.3459  -7.3057  -7.2940  -7.2825
    -7.2684  -7.2430  -7.2092  -7.1738  -7.1518  -7.1409  -7.0982  -7.0876
    -7.0736  -7.0570  -7.0525  -7.0291  -6.9984  -6.9757  -6.9552  -6.9099
    -6.8879  -6.8850  -6.8715  -6.8522  -6.7951  -6.7214  -6.7061  -5.4079
    -5.0456  -4.7289  -4.4929  -4.2235  -3.9989  -3.9002  -3.8196  -3.7551
    -3.5867  -3.3967  -3.3965  -3.2309  -3.1978  -3.0939  -3.0246  -2.7022
    -2.6856  -2.6300  -2.4301  -2.2749  -2.2032  -2.1840  -2.0995  -1.9683
    -1.8218  -1.7993  -1.6866  -1.6674  -1.5696  -1.4610  -1.4424  -0.9873
    -0.7310  -0.4928  -0.0989   0.7481   1.3179   1.4382   1.7561   1.8817
     3.1758   3.9448   3.9801   4.6091   4.8258   5.1858   5.5970

          k = 0.0774 0.0503 0.0000 ( 30300 PWs)   bands (ev):

    -7.5648  -7.4322  -7.3692  -7.3635  -7.3425  -7.3088  -7.2776  -7.2759
    -7.2567  -7.2468  -7.1679  -7.1633  -7.1352  -7.1300  -7.0952  -7.0815
    -7.0744  -7.0543  -7.0428  -7.0348  -6.9950  -6.9726  -6.9564  -6.9053
    -6.8668  -6.8659  -6.8566  -6.8443  -6.7997  -6.7094  -6.5441  -5.5580
    -4.9349  -4.4708  -4.4043  -4.2928  -4.1069  -4.1033  -3.8918  -3.7984
    -3.6045  -3.4358  -3.4267  -3.2775  -3.2472  -3.1703  -3.1007  -2.7707
    -2.7329  -2.6761  -2.5286  -2.2686  -2.2537  -2.1893  -2.1731  -2.0637
    -1.8421  -1.8093  -1.6545  -1.6447  -1.5366  -1.4597  -1.4206  -0.9465
    -0.8507  -0.3499   0.0124   0.6533   1.0398   1.2310   1.9579   2.1449
     2.9893   3.5754   4.4804   4.7755   5.3433   5.3999   5.7477

          k = 0.0774-0.1359 0.0000 ( 30272 PWs)   bands (ev):

    -7.5388  -7.4232  -7.3525  -7.3437  -7.3335  -7.2923  -7.2750  -7.2656
    -7.2564  -7.2409  -7.1514  -7.1401  -7.1264  -7.1220  -7.0969  -7.0881
    -7.0839  -7.0514  -7.0509  -7.0361  -6.9919  -6.9809  -6.9532  -6.9101
    -6.8714  -6.8619  -6.8523  -6.8498  -6.8150  -6.7187  -6.2995  -5.7674
    -4.7473  -4.7152  -4.4871  -4.2672  -4.1810  -3.9480  -3.8783  -3.8425
    -3.5638  -3.4402  -3.4204  -3.3137  -3.3113  -3.1707  -3.1296  -2.7613
    -2.7422  -2.6987  -2.6063  -2.3154  -2.2785  -2.1890  -2.1679  -2.1357
    -1.8532  -1.8048  -1.6704  -1.6386  -1.5627  -1.4720  -1.4463  -0.9852
    -0.8907  -0.5457   0.1895   0.7620   0.8634   1.5029   1.7066   2.5044
     3.2731   3.3212   4.5906   4.9102   5.0045   5.6134   5.7231

          k = 0.0774-0.1189 0.0000 ( 30313 PWs)   bands (ev):

    -7.4932  -7.4080  -7.3373  -7.3302  -7.3062  -7.2805  -7.2664  -7.2641
    -7.2534  -7.2282  -7.1404  -7.1369  -7.1325  -7.1162  -7.1151  -7.1074
    -7.0782  -7.0625  -7.0489  -7.0402  -6.9951  -6.9871  -6.9562  -6.9236
    -6.8964  -6.8864  -6.8686  -6.8567  -6.8300  -6.7506  -6.0658  -5.8961
    -5.2057  -4.5945  -4.4987  -4.3780  -4.1098  -4.0207  -3.7506  -3.6608
    -3.4903  -3.3872  -3.3773  -3.3607  -3.2697  -3.1442  -3.0934  -2.7181
    -2.6961  -2.6845  -2.6000  -2.3290  -2.2939  -2.2047  -2.1640  -2.1355
    -1.8525  -1.8078  -1.7124  -1.6764  -1.6429  -1.5094  -1.4928  -1.0977
    -0.8937  -0.8739   0.3820   0.8186   0.9542   1.4000   2.0738   2.8350
     3.1912   3.8484   4.2631   4.6248   5.2141   5.3136   5.5662

          k = 0.0774-0.1020 0.0000 ( 30298 PWs)   bands (ev):

    -7.4329  -7.3876  -7.3296  -7.3272  -7.2933  -7.2797  -7.2668  -7.2575
    -7.2118  -7.2054  -7.1742  -7.1620  -7.1471  -7.1266  -7.1193  -7.1056
    -7.0723  -7.0685  -7.0451  -7.0343  -7.0048  -6.9910  -6.9648  -6.9480
    -6.9355  -6.9235  -6.8971  -6.8881  -6.8384  -6.8011  -6.1333  -5.6554
    -5.6546  -4.7699  -4.5965  -4.2044  -4.1279  -3.9911  -3.6333  -3.4361
    -3.4137  -3.3367  -3.3124  -3.2532  -3.1503  -3.0994  -2.9849  -2.6886
    -2.6640  -2.5739  -2.5414  -2.3610  -2.2653  -2.2398  -2.1832  -2.0702
    -1.8207  -1.8188  -1.7644  -1.7506  -1.7460  -1.5919  -1.5448  -1.2655
    -1.2546  -0.7833   0.4576   0.7323   1.0259   1.7253   2.7577   2.8301
     3.6213   3.6693   3.9086   4.4641   5.2114   5.2221   5.4335

          k = 0.0774-0.0851 0.0000 ( 30275 PWs)   bands (ev):

    -7.3742  -7.3672  -7.3297  -7.3251  -7.3125  -7.2846  -7.2820  -7.2388
    -7.2122  -7.2002  -7.1814  -7.1773  -7.1438  -7.1254  -7.1211  -7.0930
    -7.0781  -7.0620  -7.0359  -7.0313  -7.0142  -6.9976  -6.9918  -6.9745
    -6.9711  -6.9570  -6.9298  -6.9295  -6.8841  -6.8378  -6.1928  -6.0542
    -5.3818  -4.9707  -4.6854  -4.3774  -3.8563  -3.8470  -3.4817  -3.3330
    -3.3023  -3.2583  -3.2014  -3.0909  -3.0012  -2.9640  -2.8353  -2.6855
    -2.6058  -2.5168  -2.4701  -2.3676  -2.2948  -2.2510  -2.2034  -2.0257
    -1.9117  -1.8806  -1.8250  -1.7821  -1.7075  -1.6923  -1.5783  -1.5701
    -1.4103  -0.5656   0.3967   0.4558   1.4433   2.4045   2.8141   2.9029
     3.0190   3.6640   4.2197   4.5172   4.7192   5.2035   5.6710

          k = 0.0774-0.0681 0.0000 ( 30278 PWs)   bands (ev):

    -7.3708  -7.3602  -7.3403  -7.3289  -7.3126  -7.2889  -7.2763  -7.2622
    -7.2457  -7.2427  -7.1655  -7.1329  -7.1248  -7.1227  -7.0973  -7.0792
    -7.0786  -7.0550  -7.0521  -7.0298  -7.0247  -7.0131  -7.0116  -6.9891
    -6.9827  -6.9752  -6.9739  -6.9594  -6.9594  -6.8592  -6.3749  -6.1812
    -5.1664  -5.1556  -4.7157  -4.5308  -3.6845  -3.6338  -3.3420  -3.3076
    -3.1641  -3.1542  -3.0888  -2.9072  -2.8658  -2.7528  -2.6848  -2.6749
    -2.5798  -2.5046  -2.4606  -2.3967  -2.3093  -2.2210  -2.2196  -2.0688
    -2.0607  -2.0085  -1.9352  -1.8598  -1.8256  -1.7800  -1.6833  -1.5023
    -1.2128  -0.1727   0.1196   0.4732   1.9303   1.9803   2.5679   2.8763
     3.2528   3.3169   4.7555   4.8334   4.8629   5.2457   5.3424

          k = 0.0774-0.0512 0.0000 ( 30266 PWs)   bands (ev):

    -7.3957  -7.3887  -7.3543  -7.3474  -7.2999  -7.2947  -7.2761  -7.2723
    -7.2678  -7.2565  -7.1626  -7.1458  -7.1320  -7.1252  -7.0761  -7.0738
    -7.0612  -7.0602  -7.0466  -7.0391  -7.0331  -7.0282  -7.0250  -7.0239
    -6.9992  -6.9898  -6.9779  -6.9671  -6.9418  -6.8839  -6.5941  -6.0959
    -5.3001  -5.0138  -4.6820  -4.6565  -3.5324  -3.4860  -3.3181  -3.3156
    -3.0894  -3.0275  -3.0120  -2.8201  -2.7365  -2.6567  -2.6110  -2.5800
    -2.5005  -2.4918  -2.4496  -2.4183  -2.3669  -2.3244  -2.1989  -2.1823
    -2.1146  -2.0133  -1.9987  -1.9253  -1.9107  -1.8487  -1.6028  -1.5810
    -0.6749  -0.0891   0.3158   0.6168   1.0166   2.1674   2.4015   2.5866
     3.0233   4.0913   4.6901   4.7443   5.1559   5.2985   5.3685

          k =-0.0928 0.0412 0.0000 ( 30284 PWs)   bands (ev):

    -7.3973  -7.3973  -7.3521  -7.3521  -7.2977  -7.2976  -7.2737  -7.2737
    -7.2634  -7.2634  -7.1513  -7.1513  -7.1342  -7.1342  -7.0746  -7.0746
    -7.0617  -7.0617  -7.0422  -7.0422  -7.0318  -7.0318  -7.0215  -7.0214
    -6.9933  -6.9933  -6.9688  -6.9688  -6.9144  -6.9144  -6.3711  -6.3711
    -5.1164  -5.1164  -4.6667  -4.6667  -3.5032  -3.5032  -3.3597  -3.3597
    -3.0597  -3.0597  -2.9226  -2.9226  -2.7132  -2.7131  -2.6074  -2.6074
    -2.5151  -2.5151  -2.4419  -2.4419  -2.3467  -2.3467  -2.1883  -2.1883
    -2.0347  -2.0347  -1.9522  -1.9522  -1.8822  -1.8821  -1.6177  -1.6177
     0.0014   0.0014   0.2447   0.2447   1.3527   1.3527   2.5775   2.5775
     3.3866   3.3867   4.8015   4.8016   4.9892   4.9893   5.6252

          k =-0.0928 0.0581 0.0000 ( 30257 PWs)   bands (ev):

    -7.3994  -7.3845  -7.3517  -7.3467  -7.3221  -7.3086  -7.2786  -7.2756
    -7.2438  -7.2415  -7.1673  -7.1469  -7.1437  -7.1348  -7.1124  -7.0891
    -7.0886  -7.0591  -7.0560  -7.0298  -7.0282  -7.0124  -7.0085  -6.9875
    -6.9797  -6.9755  -6.9542  -6.9513  -6.9444  -6.8781  -6.4865  -6.1781
    -5.1824  -5.0158  -4.7718  -4.5475  -3.6092  -3.5240  -3.3820  -3.3332
    -3.1738  -3.0817  -3.0324  -2.9228  -2.8059  -2.7190  -2.6711  -2.6313
    -2.6072  -2.5016  -2.4741  -2.4367  -2.3037  -2.2094  -2.1429  -2.1014
    -2.0340  -1.9703  -1.9651  -1.8872  -1.8330  -1.8065  -1.6844  -1.5388
    -0.6251   0.0561   0.2743   0.6340   0.9509   2.1741   2.3698   2.7224
     2.8700   3.3520   4.5725   4.8597   4.9712   5.1314   5.4736

          k =-0.0928 0.0750 0.0000 ( 30280 PWs)   bands (ev):

    -7.3962  -7.3890  -7.3626  -7.3558  -7.3198  -7.3192  -7.2802  -7.2594
    -7.2186  -7.2134  -7.1902  -7.1838  -7.1578  -7.1512  -7.1271  -7.1065
    -7.0846  -7.0695  -7.0395  -7.0377  -7.0078  -6.9946  -6.9901  -6.9792
    -6.9647  -6.9504  -6.9403  -6.9248  -6.8845  -6.8415  -6.5354  -5.9059
    -5.2316  -4.8823  -4.8618  -4.4137  -3.7484  -3.6647  -3.4840  -3.3339
    -3.3041  -3.2013  -3.1578  -3.0878  -2.9305  -2.8841  -2.7422  -2.7050
    -2.5861  -2.5124  -2.4539  -2.3753  -2.2780  -2.1778  -2.1664  -1.9950
    -1.9238  -1.9103  -1.8469  -1.7614  -1.7073  -1.7004  -1.5916  -1.4343
    -1.1777  -0.1623   0.1963   0.5073   1.8580   2.0879   2.2573   2.5084
     2.9692   3.1699   4.2525   4.7651   4.9761   5.0095   5.3161

          k =-0.0928 0.0919 0.0000 ( 30282 PWs)   bands (ev):

    -7.4512  -7.4015  -7.3608  -7.3538  -7.3004  -7.2949  -7.2777  -7.2677
    -7.2218  -7.2138  -7.2138  -7.1775  -7.1509  -7.1505  -7.1177  -7.1100
    -7.0780  -7.0723  -7.0475  -7.0258  -7.0026  -6.9850  -6.9697  -6.9574
    -6.9427  -6.9226  -6.9079  -6.8955  -6.8345  -6.7990  -6.5253  -5.5638
    -5.3232  -4.9026  -4.7306  -4.2775  -3.8718  -3.8507  -3.6496  -3.4301
    -3.4222  -3.3020  -3.2718  -3.2343  -3.0602  -3.0392  -2.8956  -2.6931
    -2.6073  -2.5393  -2.5034  -2.3600  -2.2420  -2.1832  -2.1206  -2.0192
    -1.8424  -1.7863  -1.7707  -1.7551  -1.6145  -1.5558  -1.5550  -1.2843
    -1.2426  -0.5299   0.1236   0.7996   1.5566   1.7536   2.2408   2.7068
     2.8902   3.6840   4.3001   4.4665   4.5928   4.8230   5.4419

          k =-0.0928 0.1089 0.0000 ( 30291 PWs)   bands (ev):

    -7.5048  -7.4139  -7.3564  -7.3442  -7.3116  -7.2839  -7.2772  -7.2687
    -7.2622  -7.2288  -7.1742  -7.1522  -7.1464  -7.1234  -7.1150  -7.0906
    -7.0841  -7.0634  -7.0508  -7.0311  -7.0007  -6.9798  -6.9615  -6.9239
    -6.9045  -6.8894  -6.8778  -6.8688  -6.8170  -6.7512  -6.4493  -5.5144
    -5.1691  -4.8480  -4.5877  -4.1853  -4.0501  -3.9260  -3.7854  -3.6408
    -3.5230  -3.3700  -3.3503  -3.3176  -3.2052  -3.1129  -3.0410  -2.7063
    -2.6673  -2.6587  -2.5283  -2.3429  -2.2254  -2.2089  -2.1035  -2.0951
    -1.8165  -1.8026  -1.7065  -1.6941  -1.6449  -1.5089  -1.4935  -1.1003
    -0.8820  -0.7759   0.1426   0.9742   1.1436   1.4098   2.0548   2.3246
     3.7463   3.8042   3.9089   4.2875   4.8831   5.4592   5.5283

          k =-0.0928 0.1258 0.0000 ( 30272 PWs)   bands (ev):

    -7.5388  -7.4232  -7.3525  -7.3437  -7.3335  -7.2923  -7.2750  -7.2656
    -7.2564  -7.2409  -7.1514  -7.1401  -7.1264  -7.1220  -7.0969  -7.0881
    -7.0839  -7.0514  -7.0509  -7.0361  -6.9919  -6.9809  -6.9532  -6.9101
    -6.8714  -6.8619  -6.8523  -6.8498  -6.8150  -6.7187  -6.2995  -5.7674
    -4.7473  -4.7152  -4.4871  -4.2672  -4.1810  -3.9480  -3.8783  -3.8425
    -3.5638  -3.4402  -3.4204  -3.3137  -3.3113  -3.1707  -3.1296  -2.7613
    -2.7422  -2.6987  -2.6063  -2.3154  -2.2785  -2.1890  -2.1679  -2.1357
    -1.8532  -1.8048  -1.6704  -1.6386  -1.5627  -1.4720  -1.4463  -0.9852
    -0.8907  -0.5457   0.1895   0.7620   0.8634   1.5029   1.7066   2.5044
     3.2731   3.3212   4.5906   4.9102   5.0045   5.6133   5.7230

          k =-0.0928-0.0604 0.0000 ( 30302 PWs)   bands (ev):

    -7.5503  -7.4265  -7.3520  -7.3511  -7.3325  -7.3021  -7.2721  -7.2622
    -7.2489  -7.2476  -7.1517  -7.1268  -7.1234  -7.1123  -7.1038  -7.0896
    -7.0727  -7.0577  -7.0514  -7.0274  -6.9883  -6.9826  -6.9495  -6.9057
    -6.8601  -6.8517  -6.8428  -6.8395  -6.8187  -6.7076  -6.1490  -5.9574
    -4.5860  -4.4555  -4.4254  -4.3650  -4.2907  -4.1820  -3.8537  -3.8474
    -3.5612  -3.4879  -3.4404  -3.3512  -3.2893  -3.2175  -3.1465  -2.8041
    -2.7529  -2.7094  -2.6510  -2.3208  -2.2887  -2.1886  -2.1811  -2.1613
    -1.8613  -1.8011  -1.6550  -1.6175  -1.5332  -1.4677  -1.4233  -0.9464
    -0.9222  -0.3873   0.2191   0.6687   0.7560   1.2733   1.9189   2.6828
     2.9952   3.0552   4.7853   5.1030   5.4562   5.4678   5.6858

     the Fermi energy is    -0.0334 ev

!    total energy              =   -1309.26849928 Ry
     estimated scf accuracy    <       0.00000625 Ry
     smearing contrib. (-TS)   =      -0.01794689 Ry
     internal energy E=F+TS    =   -1309.25055239 Ry

     The total energy is F=E-TS. E is the sum of the following terms:
     one-electron contribution =   -9957.83658765 Ry
     hartree contribution      =    5093.06947787 Ry
     xc contribution           =    -425.97845754 Ry
     ewald contribution        =    3981.49501444 Ry
     electric field correction =       0.00000048 Ry

     convergence has been achieved in  11 iterations

     negative rho (up, down):  8.315E-04 0.000E+00

     Forces acting on atoms (cartesian axes, Ry/au):

     atom    1 type  1   force =     0.00166098    0.00109100   -0.00747904
     atom    2 type  1   force =     0.00167321    0.00108800   -0.00747686
     atom    3 type  2   force =    -0.00451703   -0.00293800    0.01376428
     atom    4 type  2   force =    -0.00451753   -0.00293726    0.01376169
     atom    5 type  1   force =     0.00214273    0.00139405   -0.01155493
     atom    6 type  1   force =     0.00213928    0.00139446   -0.01155696
     atom    7 type  2   force =     0.00111860    0.00072981    0.00711147
     atom    8 type  2   force =     0.00112053    0.00072904    0.00710898
     atom    9 type  1   force =    -0.00025550   -0.00017633   -0.00156298
     atom   10 type  1   force =    -0.00026164   -0.00018427   -0.00156098
     atom   11 type  2   force =    -0.00015208   -0.00009352   -0.00027731
     atom   12 type  2   force =    -0.00015156   -0.00009697   -0.00027736

     Total force =     0.030770     Total SCF correction =     0.006308
     SCF correction compared to forces is large: reduce conv_thr to get better values

     Writing output data file ./Zn2Pd2/Zn2Pd2_beef.save/

     init_run     :     84.87s CPU    122.32s WALL (       1 calls)
     electrons    :   1810.92s CPU   2705.45s WALL (       1 calls)
     forces       :     40.26s CPU     51.18s WALL (       1 calls)

     Called by init_run:
     wfcinit      :     73.31s CPU    104.21s WALL (       1 calls)
     potinit      :      8.02s CPU     11.51s WALL (       1 calls)
     hinit0       :      1.97s CPU      3.85s WALL (       1 calls)

     Called by electrons:
     c_bands      :   1558.49s CPU   2328.01s WALL (      12 calls)
     sum_band     :    231.16s CPU    342.27s WALL (      12 calls)
     v_of_rho     :     18.26s CPU     30.35s WALL (      12 calls)
     newd         :      9.84s CPU     14.02s WALL (      12 calls)
     mix_rho      :      0.40s CPU      0.85s WALL (      12 calls)
     vdW_kernel   :      5.82s CPU      7.26s WALL (       1 calls)

     Called by c_bands:
     init_us_2    :      7.23s CPU      7.36s WALL (    1924 calls)
     cegterg      :   1541.43s CPU   2302.66s WALL (     888 calls)

     Called by *egterg:
     cdiaghg      :     84.82s CPU    162.08s WALL (    4911 calls)
     h_psi        :    914.73s CPU   1404.67s WALL (    5059 calls)
     s_psi        :    251.36s CPU    251.65s WALL (    5059 calls)
     g_psi        :      0.75s CPU      0.80s WALL (    4097 calls)

     Called by h_psi:
     h_psi:calbec :    297.57s CPU    413.26s WALL (    5059 calls)
     vloc_psi     :    357.20s CPU    730.78s WALL (    5059 calls)
     add_vuspsi   :    257.70s CPU    258.15s WALL (    5059 calls)

     General routines
     calbec       :    463.59s CPU    625.71s WALL (    6243 calls)
     fft          :      8.22s CPU     22.61s WALL (     816 calls)
     ffts         :      0.05s CPU      0.17s WALL (      24 calls)
     fftw         :    404.05s CPU    840.90s WALL (  401654 calls)
     interpolate  :      0.16s CPU      0.35s WALL (      12 calls)

     Parallel routines
     fft_scatt_xy :     32.02s CPU     41.72s WALL (  402494 calls)
     fft_scatt_yz :    177.37s CPU    579.15s WALL (  402494 calls)

     PWSCF        :  32m33.29s CPU  51m 7.19s WALL


   This run was terminated on:   1:16: 7  10Jul2022            

=------------------------------------------------------------------------------=
   JOB DONE.
=------------------------------------------------------------------------------=
