
     Program PWSCF v.6.6 starts on 10Jul2022 at  3:33:34 

     This program is part of the open-source Quantum ESPRESSO suite
     for quantum simulation of materials; please cite
         "P. Giannozzi et al., J. Phys.:Condens. Matter 21 395502 (2009);
         "P. Giannozzi et al., J. Phys.:Condens. Matter 29 465901 (2017);
          URL http://www.quantum-espresso.org", 
     in publications or presentations arising from this work. More details at
     http://www.quantum-espresso.org/quote

     Parallel version (MPI), running on    37 processors

     MPI processes distributed on     4 nodes
     R & G space division:  proc/nbgrp/npool/nimage =      37
     Fft bands division:     nmany     =       1
     Reading input from Zn2Rh2.in
Warning: card &CELL ignored
Warning: card / ignored

     Current dimensions of program PWSCF are:
     Max number of different atomic species (ntypx) = 10
     Max number of k-points (npk) =  40000
     Max angular momentum in pseudopotentials (lmaxx) =  3
     Presently stress not available with electric field and gates

     Message from routine cell_base_init:
     DEPRECATED: use true lattice parameter, not A to a.u. conversion factor
     file Zn.pbe-dnl-rrkjus_psl.1.0.0.UPF: wavefunction(s)  3D renormalized
     file Rh.pbe-spn-rrkjus_psl.1.0.0.UPF: wavefunction(s)  4S 5S renormalized

     **************************************************************************
     Initializing libbeef V0.1.2 with the BEEF-vdW functional.
     Citation: Wellendorff et al., PRB 85, 235149 (2012).
     **************************************************************************


     IMPORTANT: XC functional enforced from input :
     Exchange-correlation= BEEF-VDW
                           (   1   4  43  14   2   0   0)
     Any further DFT definition will be discarded
     Please, verify this is what you really want


     Subspace diagonalization in iterative solution of the eigenvalue problem:
     a serial algorithm will be used


     Parallelization info
     --------------------
     sticks:   dense  smooth     PW     G-vecs:    dense   smooth      PW
     Min         110      44     12                25260     6390     962
     Max         111      45     13                25273     6403     985
     Sum        4091    1637    471               934869   236617   36077



     bravais-lattice index     =            0
     lattice parameter (alat)  =       1.8897  a.u.
     unit-cell volume          =    4277.6614 (a.u.)^3
     number of atoms/cell      =           12
     number of atomic types    =            2
     number of electrons       =       174.00
     number of Kohn-Sham states=          104
     kinetic-energy cutoff     =      55.1240  Ry
     charge density cutoff     =     551.2396  Ry
     convergence threshold     =      1.0E-05
     mixing beta               =       0.1000
     number of iterations used =           10  plain     mixing
     Exchange-correlation= BEEF-VDW
                           (   1   4  43  14   2   0   0)

     celldm(1)=   1.889726  celldm(2)=   0.000000  celldm(3)=   0.000000
     celldm(4)=   0.000000  celldm(5)=   0.000000  celldm(6)=   0.000000

     crystal axes: (cart. coord. in units of alat)
               a(1) = (   5.260573   0.000000   0.000000 )  
               a(2) = (   1.753568   4.959700   0.000000 )  
               a(3) = (   0.000000   0.000000  24.295253 )  

     reciprocal axes: (cart. coord. in units 2 pi/alat)
               b(1) = (  0.190093 -0.067210  0.000000 )  
               b(2) = (  0.000000  0.201625  0.000000 )  
               b(3) = (  0.000000  0.000000  0.041160 )  


     PseudoPot. # 1 for Zn read from file:
     ../pseudo/Zn.pbe-dnl-rrkjus_psl.1.0.0.UPF
     MD5 check sum: 7f56cabf9682ed8c977c2f7d0c5985c5
     Pseudo is Ultrasoft + core correction, Zval = 12.0
     Generated using "atomic" code by A. Dal Corso v.6.2.2
     Using radial grid of 1201 points,  6 beta functions with: 
                l(1) =   0
                l(2) =   0
                l(3) =   1
                l(4) =   1
                l(5) =   2
                l(6) =   2
     Q(r) pseudized with 0 coefficients 


     PseudoPot. # 2 for Rh read from file:
     ../pseudo/Rh.pbe-spn-rrkjus_psl.1.0.0.UPF
     MD5 check sum: 912a852783f0c9b7bd5e9eb06cc0cc10
     Pseudo is Ultrasoft + core correction, Zval = 17.0
     Generated using "atomic" code by A. Dal Corso v.6.3
     Using radial grid of 1233 points,  6 beta functions with: 
                l(1) =   0
                l(2) =   0
                l(3) =   1
                l(4) =   1
                l(5) =   2
                l(6) =   2
     Q(r) pseudized with 0 coefficients 


     atomic species   valence    mass     pseudopotential
        Zn            12.00    65.38000     Zn( 1.00)
        Rh            17.00   102.90550     Rh( 1.00)

     No symmetry found



   Cartesian axes

     site n.     atom                  positions (alat units)
         1           Zn  tau(   1) = (   0.0000000   0.0000000  10.0000000  )
         2           Zn  tau(   2) = (   3.5070702   2.4798501  10.0000000  )
         3           Rh  tau(   3) = (   2.6302864   0.0000000  10.0000000  )
         4           Rh  tau(   4) = (   0.8767838   2.4798501  10.0000000  )
         5           Zn  tau(   5) = (   5.2605728   3.7197522  12.1476265  )
         6           Zn  tau(   6) = (   1.7535026   1.2399021  12.1476265  )
         7           Rh  tau(   7) = (   2.6302864   3.7197522  12.1476265  )
         8           Rh  tau(   8) = (   4.3837890   1.2399021  12.1476265  )
         9           Zn  tau(   9) = (   3.5068884   2.4799831  14.3758363  )
        10           Zn  tau(  10) = (   1.7536301   4.9594839  14.3758337  )
        11           Rh  tau(  11) = (   0.8768834   2.4799220  14.2209885  )
        12           Rh  tau(  12) = (   4.3836353   4.9595428  14.2209983  )

     number of k points=    74  Fermi-Dirac smearing, width (Ry)=  0.0100
                       cart. coord. in units 2pi/alat
        k(    1) = (   0.0000000   0.0000000   0.0000000), wk =   0.0138889
        k(    2) = (   0.0000000   0.0168021   0.0000000), wk =   0.0277778
        k(    3) = (   0.0000000   0.0336042   0.0000000), wk =   0.0277778
        k(    4) = (   0.0000000   0.0504063   0.0000000), wk =   0.0277778
        k(    5) = (   0.0000000   0.0672084   0.0000000), wk =   0.0277778
        k(    6) = (   0.0000000   0.0840105   0.0000000), wk =   0.0277778
        k(    7) = (   0.0000000  -0.1008125   0.0000000), wk =   0.0138889
        k(    8) = (   0.0158411  -0.0056008   0.0000000), wk =   0.0277778
        k(    9) = (   0.0158411   0.0112013   0.0000000), wk =   0.0277778
        k(   10) = (   0.0158411   0.0280033   0.0000000), wk =   0.0277778
        k(   11) = (   0.0158411   0.0448054   0.0000000), wk =   0.0277778
        k(   12) = (   0.0158411   0.0616075   0.0000000), wk =   0.0277778
        k(   13) = (   0.0158411   0.0784096   0.0000000), wk =   0.0277778
        k(   14) = (   0.0158411  -0.1064134   0.0000000), wk =   0.0277778
        k(   15) = (   0.0158411  -0.0896113   0.0000000), wk =   0.0277778
        k(   16) = (   0.0158411  -0.0728092   0.0000000), wk =   0.0277778
        k(   17) = (   0.0158411  -0.0560071   0.0000000), wk =   0.0277778
        k(   18) = (   0.0158411  -0.0392050   0.0000000), wk =   0.0277778
        k(   19) = (   0.0158411  -0.0224029   0.0000000), wk =   0.0277778
        k(   20) = (   0.0316822  -0.0112017   0.0000000), wk =   0.0277778
        k(   21) = (   0.0316822   0.0056004   0.0000000), wk =   0.0277778
        k(   22) = (   0.0316822   0.0224025   0.0000000), wk =   0.0277778
        k(   23) = (   0.0316822   0.0392046   0.0000000), wk =   0.0277778
        k(   24) = (   0.0316822   0.0560067   0.0000000), wk =   0.0277778
        k(   25) = (   0.0316822   0.0728088   0.0000000), wk =   0.0277778
        k(   26) = (   0.0316822  -0.1120142   0.0000000), wk =   0.0277778
        k(   27) = (   0.0316822  -0.0952121   0.0000000), wk =   0.0277778
        k(   28) = (   0.0316822  -0.0784100   0.0000000), wk =   0.0277778
        k(   29) = (   0.0316822  -0.0616079   0.0000000), wk =   0.0277778
        k(   30) = (   0.0316822  -0.0448059   0.0000000), wk =   0.0277778
        k(   31) = (   0.0316822  -0.0280038   0.0000000), wk =   0.0277778
        k(   32) = (   0.0475233  -0.0168025   0.0000000), wk =   0.0277778
        k(   33) = (   0.0475233  -0.0000004   0.0000000), wk =   0.0277778
        k(   34) = (   0.0475233   0.0168017   0.0000000), wk =   0.0277778
        k(   35) = (   0.0475233   0.0336038   0.0000000), wk =   0.0277778
        k(   36) = (   0.0475233   0.0504059   0.0000000), wk =   0.0277778
        k(   37) = (   0.0475233   0.0672079   0.0000000), wk =   0.0277778
        k(   38) = (   0.0475233  -0.1176151   0.0000000), wk =   0.0277778
        k(   39) = (   0.0475233  -0.1008130   0.0000000), wk =   0.0277778
        k(   40) = (   0.0475233  -0.0840109   0.0000000), wk =   0.0277778
        k(   41) = (   0.0475233  -0.0672088   0.0000000), wk =   0.0277778
        k(   42) = (   0.0475233  -0.0504067   0.0000000), wk =   0.0277778
        k(   43) = (   0.0475233  -0.0336046   0.0000000), wk =   0.0277778
        k(   44) = (   0.0633645  -0.0224033   0.0000000), wk =   0.0277778
        k(   45) = (   0.0633645  -0.0056013   0.0000000), wk =   0.0277778
        k(   46) = (   0.0633645   0.0112008   0.0000000), wk =   0.0277778
        k(   47) = (   0.0633645   0.0280029   0.0000000), wk =   0.0277778
        k(   48) = (   0.0633645   0.0448050   0.0000000), wk =   0.0277778
        k(   49) = (   0.0633645   0.0616071   0.0000000), wk =   0.0277778
        k(   50) = (   0.0633645  -0.1232159   0.0000000), wk =   0.0277778
        k(   51) = (   0.0633645  -0.1064138   0.0000000), wk =   0.0277778
        k(   52) = (   0.0633645  -0.0896117   0.0000000), wk =   0.0277778
        k(   53) = (   0.0633645  -0.0728096   0.0000000), wk =   0.0277778
        k(   54) = (   0.0633645  -0.0560075   0.0000000), wk =   0.0277778
        k(   55) = (   0.0633645  -0.0392054   0.0000000), wk =   0.0277778
        k(   56) = (   0.0792056  -0.0280042   0.0000000), wk =   0.0277778
        k(   57) = (   0.0792056  -0.0112021   0.0000000), wk =   0.0277778
        k(   58) = (   0.0792056   0.0056000   0.0000000), wk =   0.0277778
        k(   59) = (   0.0792056   0.0224021   0.0000000), wk =   0.0277778
        k(   60) = (   0.0792056   0.0392042   0.0000000), wk =   0.0277778
        k(   61) = (   0.0792056   0.0560063   0.0000000), wk =   0.0277778
        k(   62) = (   0.0792056  -0.1288167   0.0000000), wk =   0.0277778
        k(   63) = (   0.0792056  -0.1120146   0.0000000), wk =   0.0277778
        k(   64) = (   0.0792056  -0.0952125   0.0000000), wk =   0.0277778
        k(   65) = (   0.0792056  -0.0784105   0.0000000), wk =   0.0277778
        k(   66) = (   0.0792056  -0.0616084   0.0000000), wk =   0.0277778
        k(   67) = (   0.0792056  -0.0448063   0.0000000), wk =   0.0277778
        k(   68) = (  -0.0950467   0.0336050   0.0000000), wk =   0.0138889
        k(   69) = (  -0.0950467   0.0504071   0.0000000), wk =   0.0277778
        k(   70) = (  -0.0950467   0.0672092   0.0000000), wk =   0.0277778
        k(   71) = (  -0.0950467   0.0840113   0.0000000), wk =   0.0277778
        k(   72) = (  -0.0950467   0.1008134   0.0000000), wk =   0.0277778
        k(   73) = (  -0.0950467   0.1176155   0.0000000), wk =   0.0277778
        k(   74) = (  -0.0950467  -0.0672075   0.0000000), wk =   0.0138889

     Dense  grid:   934869 G-vectors     FFT dimensions: (  75,  75, 360)

     Smooth grid:   236617 G-vectors     FFT dimensions: (  48,  48, 225)

     Estimated max dynamical RAM per process >     196.15 MB

     Estimated total dynamical RAM >       7.09 GB

     Initial potential from superposition of free atoms

     starting charge  173.97471, renormalised to  174.00000

     negative rho (up, down):  1.059E-03 0.000E+00


     %%%%%%%%%%%%%%%%%%%%%%%%%%%%%%%%%%%%%%%%%%%%%%%%%%%%%%%%%%%%%%%%%%%%%%%%
     %                                                                      %
     % You are using vdW-DF, which was implemented by the Thonhauser group. %
     % Please cite the following two papers that made this development      %
     % possible and the two reviews that describe the various versions:     %
     %                                                                      %
     %   T. Thonhauser et al., PRL 115, 136402 (2015).                      %
     %   T. Thonhauser et al., PRB 76, 125112 (2007).                       %
     %   K. Berland et al., Rep. Prog. Phys. 78, 066501 (2015).             %
     %   D.C. Langreth et al., J. Phys.: Condens. Matter 21, 084203 (2009). %
     %                                                                      %
     %                                                                      %
     % If you are calculating the stress with vdW-DF, please also cite:     %
     %                                                                      %
     %   R. Sabatini et al., J. Phys.: Condens. Matter 24, 424209 (2012).   %
     %                                                                      %
     %%%%%%%%%%%%%%%%%%%%%%%%%%%%%%%%%%%%%%%%%%%%%%%%%%%%%%%%%%%%%%%%%%%%%%%%



     Adding external electric field

     Computed dipole along edir(3) : 
        Dipole                0.0012 Ry au,          0.0029 Debye
        Dipole field          0.0000 Ry au, 

        Potential amp.       -0.0003 Ry
        Total length         44.7636 bohr

     Starting wfcs are  114 randomized atomic wfcs

     total cpu time spent up to now is      141.1 secs

     Self-consistent Calculation

     iteration #  1     ecut=    55.12 Ry     beta= 0.10
     Davidson diagonalization with overlap
     ethr =  1.00E-02,  avg # of iterations =  3.8

     negative rho (up, down):  1.040E-03 0.000E+00

     Adding external electric field

     Computed dipole along edir(3) : 
        Dipole                0.0362 Ry au,          0.0919 Debye
        Dipole field          0.0001 Ry au, 

        Potential amp.       -0.0095 Ry
        Total length         44.7636 bohr


     total cpu time spent up to now is      466.0 secs

     total energy              =   -2262.83083752 Ry
     estimated scf accuracy    <       4.31108067 Ry

     iteration #  2     ecut=    55.12 Ry     beta= 0.10
     Davidson diagonalization with overlap
     ethr =  2.48E-03,  avg # of iterations =  1.4

     negative rho (up, down):  1.049E-03 0.000E+00

     Adding external electric field

     Computed dipole along edir(3) : 
        Dipole                0.0153 Ry au,          0.0388 Debye
        Dipole field          0.0000 Ry au, 

        Potential amp.       -0.0040 Ry
        Total length         44.7636 bohr


     total cpu time spent up to now is      722.6 secs

     total energy              =   -2262.65510156 Ry
     estimated scf accuracy    <       1.27800583 Ry

     iteration #  3     ecut=    55.12 Ry     beta= 0.10
     Davidson diagonalization with overlap
     ethr =  7.34E-04,  avg # of iterations =  7.3

     negative rho (up, down):  1.060E-03 0.000E+00

     Adding external electric field

     Computed dipole along edir(3) : 
        Dipole                0.1042 Ry au,          0.2648 Debye
        Dipole field          0.0003 Ry au, 

        Potential amp.       -0.0274 Ry
        Total length         44.7636 bohr


     total cpu time spent up to now is     1098.2 secs

     total energy              =   -2262.80798829 Ry
     estimated scf accuracy    <       0.08789068 Ry

     iteration #  4     ecut=    55.12 Ry     beta= 0.10
     Davidson diagonalization with overlap
     ethr =  5.05E-05,  avg # of iterations = 10.8

     negative rho (up, down):  1.065E-03 0.000E+00

     Adding external electric field

     Computed dipole along edir(3) : 
        Dipole                0.0064 Ry au,          0.0163 Debye
        Dipole field          0.0000 Ry au, 

        Potential amp.       -0.0017 Ry
        Total length         44.7636 bohr


     total cpu time spent up to now is     1496.7 secs

     total energy              =   -2262.80537838 Ry
     estimated scf accuracy    <       0.33075614 Ry

     iteration #  5     ecut=    55.12 Ry     beta= 0.10
     Davidson diagonalization with overlap
     ethr =  5.05E-05,  avg # of iterations =  2.2

     negative rho (up, down):  1.111E-03 0.000E+00

     Adding external electric field

     Computed dipole along edir(3) : 
        Dipole               -0.0127 Ry au,         -0.0322 Debye
        Dipole field         -0.0000 Ry au, 

        Potential amp.        0.0033 Ry
        Total length         44.7636 bohr


     total cpu time spent up to now is     1777.8 secs

     total energy              =   -2262.79690977 Ry
     estimated scf accuracy    <       0.04945997 Ry

     iteration #  6     ecut=    55.12 Ry     beta= 0.10
     Davidson diagonalization with overlap
     ethr =  2.84E-05,  avg # of iterations =  3.1

     negative rho (up, down):  1.125E-03 0.000E+00

     Adding external electric field

     Computed dipole along edir(3) : 
        Dipole               -0.0067 Ry au,         -0.0170 Debye
        Dipole field         -0.0000 Ry au, 

        Potential amp.        0.0018 Ry
        Total length         44.7636 bohr


     total cpu time spent up to now is     2207.7 secs

     total energy              =   -2262.79926322 Ry
     estimated scf accuracy    <       0.03487236 Ry

     iteration #  7     ecut=    55.12 Ry     beta= 0.10
     Davidson diagonalization with overlap
     ethr =  2.00E-05,  avg # of iterations =  4.5

     negative rho (up, down):  1.154E-03 0.000E+00

     Adding external electric field

     Computed dipole along edir(3) : 
        Dipole                0.0156 Ry au,          0.0397 Debye
        Dipole field          0.0000 Ry au, 

        Potential amp.       -0.0041 Ry
        Total length         44.7636 bohr


     total cpu time spent up to now is     2505.3 secs

     total energy              =   -2262.79873755 Ry
     estimated scf accuracy    <       0.00756135 Ry

     iteration #  8     ecut=    55.12 Ry     beta= 0.10
     Davidson diagonalization with overlap
     c_bands:  2 eigenvalues not converged
     ethr =  4.35E-06,  avg # of iterations =  9.8

     negative rho (up, down):  1.180E-03 0.000E+00

     Adding external electric field

     Computed dipole along edir(3) : 
        Dipole                0.0046 Ry au,          0.0116 Debye
        Dipole field          0.0000 Ry au, 

        Potential amp.       -0.0012 Ry
        Total length         44.7636 bohr


     total cpu time spent up to now is     2898.9 secs

     total energy              =   -2262.79837327 Ry
     estimated scf accuracy    <       0.00938969 Ry

     iteration #  9     ecut=    55.12 Ry     beta= 0.10
     Davidson diagonalization with overlap
     ethr =  4.35E-06,  avg # of iterations =  2.1

     negative rho (up, down):  1.183E-03 0.000E+00

     Adding external electric field

     Computed dipole along edir(3) : 
        Dipole                0.0037 Ry au,          0.0094 Debye
        Dipole field          0.0000 Ry au, 

        Potential amp.       -0.0010 Ry
        Total length         44.7636 bohr


     total cpu time spent up to now is     3215.3 secs

     total energy              =   -2262.79973824 Ry
     estimated scf accuracy    <       0.00160026 Ry

     iteration # 10     ecut=    55.12 Ry     beta= 0.10
     Davidson diagonalization with overlap
     ethr =  9.20E-07,  avg # of iterations =  1.9

     negative rho (up, down):  1.184E-03 0.000E+00

     Adding external electric field

     Computed dipole along edir(3) : 
        Dipole                0.0033 Ry au,          0.0085 Debye
        Dipole field          0.0000 Ry au, 

        Potential amp.       -0.0009 Ry
        Total length         44.7636 bohr


     total cpu time spent up to now is     3514.5 secs

     total energy              =   -2262.79998750 Ry
     estimated scf accuracy    <       0.00020868 Ry

     iteration # 11     ecut=    55.12 Ry     beta= 0.10
     Davidson diagonalization with overlap
     ethr =  1.20E-07,  avg # of iterations =  2.1

     negative rho (up, down):  1.181E-03 0.000E+00

     Adding external electric field

     Computed dipole along edir(3) : 
        Dipole                0.0033 Ry au,          0.0084 Debye
        Dipole field          0.0000 Ry au, 

        Potential amp.       -0.0009 Ry
        Total length         44.7636 bohr


     total cpu time spent up to now is     3838.4 secs

     total energy              =   -2262.79996627 Ry
     estimated scf accuracy    <       0.00035927 Ry

     iteration # 12     ecut=    55.12 Ry     beta= 0.10
     Davidson diagonalization with overlap
     ethr =  1.20E-07,  avg # of iterations =  2.2

     negative rho (up, down):  1.178E-03 0.000E+00

     Adding external electric field

     Computed dipole along edir(3) : 
        Dipole                0.0037 Ry au,          0.0093 Debye
        Dipole field          0.0000 Ry au, 

        Potential amp.       -0.0010 Ry
        Total length         44.7636 bohr


     total cpu time spent up to now is     4106.7 secs

     total energy              =   -2262.80001358 Ry
     estimated scf accuracy    <       0.00003630 Ry

     iteration # 13     ecut=    55.12 Ry     beta= 0.10
     Davidson diagonalization with overlap
     ethr =  2.09E-08,  avg # of iterations =  2.0

     negative rho (up, down):  1.176E-03 0.000E+00

     Adding external electric field

     Computed dipole along edir(3) : 
        Dipole                0.0039 Ry au,          0.0099 Debye
        Dipole field          0.0000 Ry au, 

        Potential amp.       -0.0010 Ry
        Total length         44.7636 bohr


     total cpu time spent up to now is     4532.0 secs

     total energy              =   -2262.80001425 Ry
     estimated scf accuracy    <       0.00001514 Ry

     iteration # 14     ecut=    55.12 Ry     beta= 0.10
     Davidson diagonalization with overlap
     ethr =  8.70E-09,  avg # of iterations =  2.0

     negative rho (up, down):  1.171E-03 0.000E+00

     Adding external electric field

     Computed dipole along edir(3) : 
        Dipole                0.0041 Ry au,          0.0105 Debye
        Dipole field          0.0000 Ry au, 

        Potential amp.       -0.0011 Ry
        Total length         44.7636 bohr


     total cpu time spent up to now is     4827.4 secs

     End of self-consistent calculation

          k = 0.0000 0.0000 0.0000 ( 29623 PWs)   bands (ev):

   -77.2057 -77.1982 -76.9311 -76.9238 -76.8943 -76.8870 -45.1382 -45.1138
   -45.1067 -45.1051 -45.0996 -45.0299 -44.9214 -44.8818 -44.8367 -44.8267
   -44.8139 -44.8056 -44.7954 -44.7748 -44.7691 -44.7577 -44.7292 -44.7186
    -7.1583  -6.3583  -6.3500  -6.3430  -6.3187  -6.2946  -6.2935  -6.2858
    -6.2176  -6.2082  -6.2081  -6.1174  -6.0420  -6.0406  -6.0296  -6.0273
    -6.0248  -6.0148  -6.0124  -5.9480  -5.9368  -5.9296  -5.9063  -5.8286
    -5.8069  -5.7680  -5.7362  -5.7192  -5.6195  -5.5580  -5.5477  -5.0357
    -3.7199  -3.6820  -3.3714  -3.1616  -1.8562  -1.6539  -1.5873  -1.5416
    -1.5077  -1.4402  -1.4031  -1.1275  -0.8937  -0.7045  -0.6886  -0.5091
    -0.4106  -0.3610  -0.1822  -0.0802  -0.0021   0.0861   0.0889   0.2778
     0.2950   0.3569   0.4548   0.4931   0.5089   0.5870   1.0352   1.0631
     1.0639   1.6224   1.6241   1.8924   2.1950   2.3884   2.4191   4.3549
     4.3824   4.6621   4.7179   4.9784   5.4797   6.0605   6.3542   6.4398

          k = 0.0000 0.0168 0.0000 ( 29623 PWs)   bands (ev):

   -77.2055 -77.1983 -76.9310 -76.9239 -76.8942 -76.8871 -45.1364 -45.1137
   -45.1065 -45.1053 -45.0998 -45.0318 -44.9196 -44.8800 -44.8365 -44.8268
   -44.8158 -44.8054 -44.7956 -44.7766 -44.7689 -44.7579 -44.7290 -44.7188
    -7.1121  -6.3462  -6.3407  -6.3295  -6.3094  -6.2888  -6.2770  -6.2737
    -6.2153  -6.2024  -6.1957  -6.1085  -6.0397  -6.0383  -6.0347  -6.0231
    -6.0217  -6.0071  -5.9986  -5.9468  -5.9391  -5.9278  -5.9042  -5.8287
    -5.8081  -5.7706  -5.7411  -5.7269  -5.6243  -5.5660  -5.5543  -5.0085
    -3.7088  -3.7049  -3.3717  -3.2067  -1.8439  -1.6599  -1.5823  -1.5714
    -1.4985  -1.4336  -1.4285  -1.1390  -0.9342  -0.7066  -0.6871  -0.5148
    -0.4182  -0.3447  -0.2485  -0.1810  -0.0358   0.0196   0.1262   0.2075
     0.2181   0.3328   0.4345   0.4600   0.4899   0.6007   0.7969   1.1023
     1.2401   1.2739   1.6938   1.9065   1.9626   2.6088   2.8964   4.3145
     4.4609   4.7446   4.7563   5.0268   5.5204   6.2089   6.2197   6.4042

          k = 0.0000 0.0336 0.0000 ( 29572 PWs)   bands (ev):

   -77.2052 -77.1986 -76.9306 -76.9243 -76.8938 -76.8875 -45.1311 -45.1133
   -45.1062 -45.1058 -45.1001 -45.0373 -44.9143 -44.8747 -44.8360 -44.8274
   -44.8212 -44.8051 -44.7963 -44.7820 -44.7682 -44.7584 -44.7285 -44.7193
    -6.9768  -6.3154  -6.3135  -6.2930  -6.2836  -6.2718  -6.2405  -6.2266
    -6.2022  -6.1875  -6.1689  -6.0859  -6.0433  -6.0307  -6.0201  -6.0182
    -6.0124  -5.9877  -5.9692  -5.9453  -5.9415  -5.9238  -5.8976  -5.8291
    -5.8122  -5.7759  -5.7549  -5.7500  -5.6381  -5.5894  -5.5754  -4.9228
    -3.8066  -3.6601  -3.3775  -3.3187  -1.8080  -1.6745  -1.6478  -1.5272
    -1.5127  -1.4992  -1.4323  -1.1793  -1.0163  -0.7393  -0.6727  -0.5937
    -0.4531  -0.4171  -0.3346  -0.3103  -0.1474  -0.0901  -0.0518   0.1175
     0.1472   0.2921   0.3407   0.4690   0.4821   0.5406   0.5569   0.7066
     0.7952   1.7035   1.7732   2.0229   2.1042   2.9932   3.1493   4.1609
     4.7864   4.8708   5.0073   5.1678   5.6424   6.0626   6.3127   6.5074

          k = 0.0000 0.0504 0.0000 ( 29554 PWs)   bands (ev):

   -77.2045 -77.1992 -76.9300 -76.9249 -76.8932 -76.8881 -45.1226 -45.1127
   -45.1066 -45.1057 -45.1007 -45.0460 -44.9058 -44.8663 -44.8352 -44.8298
   -44.8282 -44.8045 -44.7973 -44.7906 -44.7672 -44.7592 -44.7277 -44.7202
    -6.7650  -6.2811  -6.2658  -6.2494  -6.2462  -6.2446  -6.1808  -6.1767
    -6.1698  -6.1598  -6.1367  -6.0622  -6.0416  -6.0184  -6.0112  -6.0015
    -5.9940  -5.9595  -5.9485  -5.9391  -5.9315  -5.9178  -5.8850  -5.8322
    -5.8136  -5.7867  -5.7814  -5.7730  -5.6592  -5.6271  -5.6143  -4.7687
    -4.0334  -3.5879  -3.4274  -3.3926  -1.7565  -1.7127  -1.6941  -1.6085
    -1.5482  -1.5112  -1.4540  -1.2428  -1.0506  -0.8345  -0.7737  -0.7036
    -0.6470  -0.4844  -0.3909  -0.3649  -0.2748  -0.2210  -0.2045   0.0110
     0.0530   0.0947   0.2102   0.2307   0.2308   0.4695   0.4778   0.5705
     0.7721   1.8048   2.2104   2.2277   2.4159   2.9480   3.4560   3.9879
     5.0592   5.1085   5.3986   5.4059   5.8442   6.0497   6.2774   6.3136

          k = 0.0000 0.0672 0.0000 ( 29571 PWs)   bands (ev):

   -77.2038 -77.2000 -76.9292 -76.9256 -76.8925 -76.8888 -45.1119 -45.1115
   -45.1076 -45.1050 -45.1014 -45.0573 -44.8948 -44.8553 -44.8410 -44.8342
   -44.8292 -44.8037 -44.8018 -44.7986 -44.7659 -44.7603 -44.7266 -44.7213
    -6.5127  -6.2472  -6.2198  -6.2139  -6.2032  -6.1932  -6.1597  -6.1564
    -6.1062  -6.0983  -6.0918  -6.0412  -6.0331  -6.0052  -6.0034  -5.9817
    -5.9678  -5.9533  -5.9388  -5.9266  -5.9135  -5.8919  -5.8668  -5.8498
    -5.8335  -5.8015  -5.7849  -5.7636  -5.6848  -5.6743  -5.6736  -4.5399
    -4.4050  -3.4992  -3.4782  -3.4446  -1.8060  -1.7683  -1.7325  -1.7222
    -1.6050  -1.5609  -1.3852  -1.3046  -1.0117  -0.9473  -0.9396  -0.8425
    -0.8217  -0.6087  -0.4796  -0.4013  -0.3953  -0.3669  -0.3031  -0.2101
     0.0015   0.0021   0.0251   0.0958   0.1936   0.2629   0.4353   0.4638
     1.0740   1.9191   2.2733   2.5850   2.7741   2.7927   3.8200   3.9672
     5.1322   5.3170   5.6279   5.7142   5.7982   6.0333   6.1309   6.9174

          k = 0.0000 0.0840 0.0000 ( 29541 PWs)   bands (ev):

   -77.2029 -77.2009 -76.9284 -76.9265 -76.8916 -76.8897 -45.1110 -45.1087
   -45.1041 -45.1023 -45.0984 -45.0704 -44.8819 -44.8540 -44.8425 -44.8330
   -44.8304 -44.8148 -44.8026 -44.7999 -44.7645 -44.7616 -44.7254 -44.7226
    -6.3123  -6.2257  -6.1904  -6.1798  -6.1663  -6.1524  -6.1449  -6.1228
    -6.0903  -6.0829  -6.0203  -6.0187  -5.9930  -5.9926  -5.9775  -5.9597
    -5.9546  -5.9415  -5.9388  -5.9184  -5.9000  -5.8860  -5.8713  -5.8631
    -5.8444  -5.8240  -5.7888  -5.7511  -5.7164  -5.7120  -5.6087  -4.8488
    -4.2473  -3.6513  -3.4226  -3.4217  -1.9231  -1.9195  -1.8179  -1.7653
    -1.5528  -1.5277  -1.3494  -1.3437  -1.0546  -1.0125  -1.0081  -0.9976
    -0.8103  -0.7421  -0.6535  -0.5547  -0.5268  -0.4203  -0.3375  -0.1421
    -0.0566  -0.0488  -0.0455  -0.0110   0.1338   0.1694   0.4011   0.4039
     1.4138   2.0193   2.2260   2.2601   3.1086   3.3129   3.6947   4.5160
     4.6593   5.4698   5.6734   5.7910   6.1225   6.3127   6.4405   6.4960

          k = 0.0000-0.1008 0.0000 ( 29626 PWs)   bands (ev):

   -77.2020 -77.2018 -76.9275 -76.9274 -76.8907 -76.8906 -45.1100 -45.1098
   -45.1033 -45.1031 -45.0845 -45.0844 -44.8680 -44.8679 -44.8317 -44.8317
   -44.8287 -44.8286 -44.8014 -44.8013 -44.7630 -44.7630 -44.7241 -44.7240
    -6.2343  -6.2342  -6.1689  -6.1688  -6.1584  -6.1584  -6.1159  -6.1159
    -6.0786  -6.0786  -6.0112  -6.0112  -5.9820  -5.9820  -5.9396  -5.9395
    -5.9379  -5.9379  -5.9141  -5.9140  -5.9105  -5.9104  -5.8591  -5.8591
    -5.8454  -5.8454  -5.8001  -5.8001  -5.7284  -5.7284  -5.2811  -5.2810
    -3.9293  -3.9290  -3.3965  -3.3963  -1.9843  -1.9841  -1.8160  -1.8158
    -1.5096  -1.5094  -1.3536  -1.3535  -1.0731  -1.0728  -1.0252  -1.0251
    -0.7737  -0.7736  -0.6939  -0.6937  -0.5237  -0.5235  -0.2028  -0.2026
    -0.0823  -0.0822  -0.0611  -0.0611   0.1396   0.1396   0.3845   0.3848
     1.7735   1.7738   2.1971   2.1971   3.3512   3.3513   4.0626   4.0629
     5.0547   5.0548   5.9908   5.9909   6.0970   6.0970   6.5422   6.5424

          k = 0.0158-0.0056 0.0000 ( 29623 PWs)   bands (ev):

   -77.2055 -77.1983 -76.9310 -76.9239 -76.8942 -76.8871 -45.1364 -45.1137
   -45.1065 -45.1053 -45.0998 -45.0318 -44.9196 -44.8800 -44.8365 -44.8268
   -44.8158 -44.8054 -44.7956 -44.7766 -44.7689 -44.7579 -44.7290 -44.7188
    -7.1121  -6.3462  -6.3407  -6.3295  -6.3094  -6.2888  -6.2770  -6.2737
    -6.2153  -6.2024  -6.1957  -6.1085  -6.0397  -6.0383  -6.0347  -6.0231
    -6.0217  -6.0071  -5.9986  -5.9468  -5.9391  -5.9278  -5.9042  -5.8287
    -5.8081  -5.7706  -5.7411  -5.7269  -5.6243  -5.5660  -5.5543  -5.0085
    -3.7088  -3.7049  -3.3717  -3.2067  -1.8439  -1.6599  -1.5823  -1.5714
    -1.4985  -1.4336  -1.4285  -1.1390  -0.9342  -0.7066  -0.6871  -0.5148
    -0.4182  -0.3447  -0.2485  -0.1810  -0.0358   0.0196   0.1262   0.2075
     0.2181   0.3328   0.4345   0.4600   0.4899   0.6007   0.7969   1.1023
     1.2401   1.2739   1.6938   1.9065   1.9626   2.6088   2.8964   4.3145
     4.4609   4.7446   4.7563   5.0268   5.5204   6.2088   6.2197   6.4041

          k = 0.0158 0.0112 0.0000 ( 29623 PWs)   bands (ev):

   -77.2057 -77.1982 -76.9311 -76.9238 -76.8943 -76.8870 -45.1383 -45.1140
   -45.1069 -45.1050 -45.0994 -45.0299 -44.9214 -44.8818 -44.8367 -44.8266
   -44.8139 -44.8058 -44.7955 -44.7748 -44.7689 -44.7577 -44.7292 -44.7187
    -7.0961  -6.3444  -6.3371  -6.3294  -6.3059  -6.2850  -6.2792  -6.2758
    -6.2057  -6.1982  -6.1981  -6.1014  -6.0514  -6.0462  -6.0360  -6.0181
    -6.0128  -6.0049  -5.9822  -5.9448  -5.9358  -5.9183  -5.8971  -5.8233
    -5.8091  -5.7656  -5.7383  -5.7279  -5.6390  -5.5606  -5.5447  -4.9841
    -3.6938  -3.6704  -3.3659  -3.1342  -1.8755  -1.7499  -1.6791  -1.6028
    -1.5745  -1.5128  -1.4556  -1.1997  -0.9741  -0.6858  -0.6366  -0.5055
    -0.4729  -0.3288  -0.2060  -0.1062  -0.0948  -0.0261   0.1529   0.1734
     0.1900   0.3251   0.3367   0.4793   0.5048   0.7120   0.7920   1.2043
     1.3311   1.5247   1.5783   1.6433   2.2595   2.6047   2.7407   3.9073
     4.4666   4.7652   4.7698   5.0454   5.5346   6.1321   6.1721   6.3314

          k = 0.0158 0.0280 0.0000 ( 29579 PWs)   bands (ev):

   -77.2055 -77.1983 -76.9309 -76.9239 -76.8942 -76.8871 -45.1365 -45.1141
   -45.1070 -45.1051 -45.0993 -45.0318 -44.9196 -44.8801 -44.8365 -44.8268
   -44.8158 -44.8058 -44.7959 -44.7767 -44.7685 -44.7579 -44.7290 -44.7189
    -6.9902  -6.3216  -6.3168  -6.3023  -6.2855  -6.2697  -6.2594  -6.2473
    -6.1925  -6.1851  -6.1772  -6.0791  -6.0578  -6.0448  -6.0267  -6.0111
    -5.9998  -5.9906  -5.9558  -5.9401  -5.9340  -5.9084  -5.8858  -5.8198
    -5.8111  -5.7654  -5.7452  -5.7435  -5.6608  -5.5708  -5.5495  -4.9036
    -3.6993  -3.6549  -3.3641  -3.1544  -1.8955  -1.8886  -1.7083  -1.6633
    -1.6076  -1.5720  -1.5162  -1.2736  -1.0462  -0.6920  -0.6399  -0.5312
    -0.4981  -0.4428  -0.3249  -0.2672  -0.1473  -0.0288   0.0513   0.1218
     0.1337   0.3118   0.3634   0.4675   0.4796   0.6412   0.7243   0.8637
     1.1329   1.5288   1.6405   2.0899   2.4350   2.5866   3.1209   3.5663
     4.6778   4.8583   4.9366   5.1536   5.6235   5.7190   6.2403   6.4071

          k = 0.0158 0.0448 0.0000 ( 29580 PWs)   bands (ev):

   -77.2051 -77.1987 -76.9306 -76.9243 -76.8938 -76.8875 -45.1312 -45.1138
   -45.1069 -45.1056 -45.0995 -45.0372 -44.9143 -44.8748 -44.8360 -44.8273
   -44.8212 -44.8055 -44.7966 -44.7821 -44.7678 -44.7585 -44.7284 -44.7195
    -6.8043  -6.2858  -6.2816  -6.2577  -6.2531  -6.2442  -6.2190  -6.1940
    -6.1729  -6.1680  -6.1477  -6.0571  -6.0533  -6.0370  -6.0091  -5.9992
    -5.9865  -5.9669  -5.9356  -5.9314  -5.9218  -5.8992  -5.8697  -5.8243
    -5.8056  -5.7723  -5.7693  -5.7595  -5.6877  -5.5953  -5.5718  -4.7581
    -3.8604  -3.5942  -3.3811  -3.2281  -1.9646  -1.8966  -1.7566  -1.7427
    -1.6415  -1.5917  -1.5628  -1.3656  -1.0912  -0.7833  -0.7167  -0.6570
    -0.6177  -0.6153  -0.4622  -0.3472  -0.2321  -0.1122  -0.0575   0.0626
     0.1056   0.2378   0.2708   0.3456   0.3805   0.5545   0.6690   0.6955
     0.7685   1.5506   2.0699   2.6102   2.6528   2.8121   3.0700   3.3240
     4.9860   5.0170   5.2676   5.3355   5.3886   5.8089   6.3609   6.3932

          k = 0.0158 0.0616 0.0000 ( 29582 PWs)   bands (ev):

   -77.2045 -77.1993 -76.9300 -76.9248 -76.8932 -76.8881 -45.1227 -45.1133
   -45.1065 -45.1063 -45.0999 -45.0459 -44.9059 -44.8664 -44.8353 -44.8298
   -44.8281 -44.8049 -44.7976 -44.7907 -44.7667 -44.7594 -44.7276 -44.7204
    -6.5647  -6.2519  -6.2285  -6.2200  -6.2142  -6.2079  -6.1560  -6.1519
    -6.1512  -6.1276  -6.1173  -6.0498  -6.0383  -6.0259  -5.9879  -5.9805
    -5.9761  -5.9377  -5.9351  -5.9296  -5.8942  -5.8848  -5.8505  -5.8376
    -5.8111  -5.7844  -5.7710  -5.7697  -5.7172  -5.6307  -5.6152  -4.5394
    -4.2012  -3.5284  -3.4484  -3.2651  -2.0026  -1.9379  -1.8028  -1.7880
    -1.6786  -1.6535  -1.5008  -1.4538  -1.0788  -0.9731  -0.8696  -0.8606
    -0.8342  -0.5888  -0.5567  -0.4321  -0.2906  -0.2217  -0.1981  -0.0966
     0.0070   0.1355   0.2228   0.2391   0.2863   0.3406   0.5404   0.5679
     0.9410   1.5992   2.5147   2.6580   2.7440   3.2031   3.2250   3.3562
     5.0603   5.0615   5.2860   5.6468   5.7201   5.9028   6.0655   6.6932

          k = 0.0158 0.0784 0.0000 ( 29567 PWs)   bands (ev):

   -77.2037 -77.2001 -76.9292 -76.9256 -76.8925 -76.8888 -45.1126 -45.1116
   -45.1072 -45.1059 -45.1005 -45.0572 -44.8948 -44.8554 -44.8410 -44.8343
   -44.8291 -44.8039 -44.8018 -44.7987 -44.7655 -44.7605 -44.7265 -44.7216
    -6.3401  -6.2242  -6.1904  -6.1756  -6.1739  -6.1616  -6.1500  -6.1421
    -6.0903  -6.0743  -6.0667  -6.0394  -6.0238  -6.0136  -5.9710  -5.9678
    -5.9557  -5.9381  -5.9361  -5.9093  -5.9006  -5.8667  -5.8577  -5.8446
    -5.8319  -5.8061  -5.7799  -5.7484  -5.6815  -5.6670  -5.6467  -4.6536
    -4.2543  -3.6098  -3.4931  -3.2612  -2.0853  -1.9920  -1.8548  -1.7530
    -1.7336  -1.5949  -1.5045  -1.4099  -1.1148  -1.0243  -1.0103  -0.9879
    -0.9338  -0.7106  -0.5475  -0.5068  -0.5010  -0.3988  -0.1746  -0.1696
    -0.0524   0.0792   0.0853   0.1432   0.1799   0.3121   0.3239   0.5034
     1.2089   1.6630   2.2818   2.7093   2.8837   3.4047   3.7463   3.8969
     4.8304   4.8385   5.5842   5.7115   6.0256   6.0401   6.4042   6.6576

          k = 0.0158-0.1064 0.0000 ( 29563 PWs)   bands (ev):

   -77.2028 -77.2009 -76.9284 -76.9265 -76.8916 -76.8897 -45.1116 -45.1082
   -45.1051 -45.1014 -45.0986 -45.0703 -44.8819 -44.8541 -44.8425 -44.8331
   -44.8304 -44.8148 -44.8027 -44.8000 -44.7641 -44.7619 -44.7252 -44.7228
    -6.2284  -6.2163  -6.1656  -6.1639  -6.1507  -6.1502  -6.1282  -6.0952
    -6.0824  -6.0732  -6.0318  -6.0012  -5.9926  -5.9753  -5.9630  -5.9482
    -5.9393  -5.9328  -5.9321  -5.9161  -5.9023  -5.8958  -5.8807  -5.8456
    -5.8318  -5.8160  -5.7983  -5.7715  -5.7650  -5.6845  -5.3716  -5.1224
    -3.9359  -3.8744  -3.5219  -3.2714  -2.1122  -1.9583  -1.9318  -1.7629
    -1.6317  -1.5111  -1.5008  -1.3061  -1.1430  -1.0893  -1.0588  -0.9519
    -0.9127  -0.7547  -0.6828  -0.6212  -0.5583  -0.4037  -0.2573  -0.1305
    -0.1000  -0.0835   0.0038   0.0360   0.1240   0.2101   0.2960   0.5010
     1.3409   1.8481   1.8952   2.6119   3.0122   3.9259   4.1048   4.3162
     4.5114   4.6128   5.9644   6.0189   6.1187   6.3967   6.4799   6.8237

          k = 0.0158-0.0896 0.0000 ( 29555 PWs)   bands (ev):

   -77.2020 -77.2018 -76.9274 -76.9274 -76.8907 -76.8906 -45.1104 -45.1093
   -45.1041 -45.1023 -45.0846 -45.0843 -44.8680 -44.8679 -44.8319 -44.8317
   -44.8287 -44.8286 -44.8013 -44.8011 -44.7635 -44.7627 -44.7242 -44.7238
    -6.2561  -6.2054  -6.1812  -6.1701  -6.1526  -6.1440  -6.1211  -6.1000
    -6.0833  -6.0665  -6.0315  -5.9946  -5.9910  -5.9668  -5.9485  -5.9395
    -5.9370  -5.9316  -5.9289  -5.9122  -5.9052  -5.9017  -5.8704  -5.8661
    -5.8596  -5.8390  -5.8093  -5.7926  -5.7719  -5.6759  -5.5201  -4.9776
    -4.1892  -3.6506  -3.5953  -3.3395  -2.0031  -1.9566  -1.8146  -1.7237
    -1.5762  -1.4787  -1.4245  -1.2247  -1.0955  -1.0578  -0.9836  -0.9401
    -0.8046  -0.7191  -0.6896  -0.6815  -0.5664  -0.4519  -0.2591  -0.1954
    -0.1309  -0.1009  -0.0979  -0.0710   0.0745   0.2158   0.3125   0.5277
     1.3099   1.5256   2.1798   2.4331   3.0980   3.6206   4.3637   4.4663
     4.5227   5.1924   5.7833   6.2425   6.3400   6.4159   6.5064   6.6572

          k = 0.0158-0.0728 0.0000 ( 29533 PWs)   bands (ev):

   -77.2029 -77.2009 -76.9283 -76.9265 -76.8916 -76.8897 -45.1105 -45.1091
   -45.1033 -45.1031 -45.0983 -45.0705 -44.8818 -44.8540 -44.8424 -44.8330
   -44.8306 -44.8148 -44.8023 -44.7997 -44.7650 -44.7614 -44.7255 -44.7224
    -6.4002  -6.2208  -6.2078  -6.2001  -6.1743  -6.1531  -6.1480  -6.1446
    -6.0840  -6.0792  -6.0397  -6.0110  -6.0082  -5.9994  -5.9774  -5.9706
    -5.9659  -5.9493  -5.9398  -5.9260  -5.9120  -5.8958  -5.8798  -5.8680
    -5.8647  -5.8201  -5.7956  -5.7430  -5.7402  -5.7307  -5.6552  -4.5517
    -4.4876  -3.6574  -3.4671  -3.4475  -1.8713  -1.7742  -1.6905  -1.6323
    -1.5917  -1.4132  -1.3936  -1.1655  -1.0403  -0.9483  -0.9284  -0.7639
    -0.7422  -0.6699  -0.6076  -0.5745  -0.4713  -0.4337  -0.3747  -0.1656
    -0.1231  -0.1013  -0.0964  -0.0661   0.0760   0.2209   0.3698   0.5675
     1.1839   1.2133   2.2138   2.5669   3.0135   3.1196   4.0805   4.6602
     5.0941   5.4447   5.8744   5.9107   5.9314   6.2709   6.5244   6.6605

          k = 0.0158-0.0560 0.0000 ( 29521 PWs)   bands (ev):

   -77.2038 -77.2000 -76.9292 -76.9256 -76.8925 -76.8888 -45.1115 -45.1113
   -45.1079 -45.1043 -45.1021 -45.0573 -44.8947 -44.8553 -44.8410 -44.8342
   -44.8293 -44.8033 -44.8018 -44.7983 -44.7664 -44.7602 -44.7267 -44.7211
    -6.6430  -6.2549  -6.2407  -6.2364  -6.2203  -6.2145  -6.1767  -6.1607
    -6.1107  -6.1092  -6.1086  -6.0501  -6.0309  -6.0208  -5.9932  -5.9896
    -5.9767  -5.9621  -5.9471  -5.9457  -5.9330  -5.9278  -5.8978  -5.8482
    -5.8248  -5.8141  -5.7969  -5.7775  -5.6741  -5.6706  -5.6357  -4.7259
    -4.1726  -3.6515  -3.5542  -3.3940  -1.7134  -1.6734  -1.6596  -1.5003
    -1.4844  -1.3837  -1.3764  -1.0997  -1.0218  -0.9458  -0.8740  -0.6659
    -0.6472  -0.4953  -0.4298  -0.3733  -0.3701  -0.3167  -0.2455  -0.2442
    -0.0699  -0.0248   0.0085   0.0583   0.2156   0.2159   0.4712   0.6043
     0.8821   1.1048   1.9733   2.4498   2.9521   3.0163   3.7697   4.7964
     5.1664   5.3833   5.5327   5.5799   5.9619   6.4306   6.6025   6.6219

          k = 0.0158-0.0392 0.0000 ( 29569 PWs)   bands (ev):

   -77.2046 -77.1992 -76.9300 -76.9249 -76.8932 -76.8881 -45.1225 -45.1124
   -45.1068 -45.1052 -45.1011 -45.0460 -44.9058 -44.8663 -44.8353 -44.8298
   -44.8283 -44.8042 -44.7970 -44.7906 -44.7676 -44.7592 -44.7278 -44.7201
    -6.8740  -6.2939  -6.2871  -6.2662  -6.2629  -6.2624  -6.1990  -6.1916
    -6.1789  -6.1779  -6.1444  -6.0747  -6.0324  -6.0234  -6.0105  -6.0069
    -6.0019  -5.9787  -5.9713  -5.9550  -5.9472  -5.9320  -5.9063  -5.8397
    -5.8215  -5.7829  -5.7713  -5.7711  -5.6239  -5.6225  -5.6153  -4.8883
    -3.9192  -3.6361  -3.5382  -3.3763  -1.7294  -1.6610  -1.5650  -1.4446
    -1.4358  -1.3833  -1.2715  -1.1070  -1.0541  -0.8575  -0.7327  -0.7099
    -0.4989  -0.3825  -0.3365  -0.3192  -0.2791  -0.2033  -0.0904   0.0678
     0.1451   0.1670   0.1862   0.1992   0.2088   0.5437   0.6149   0.6428
     0.6509   1.0462   1.7513   1.9348   2.7683   3.2023   3.4838   4.8359
     4.9561   5.0531   5.2697   5.2917   5.7338   6.0130   6.5726   6.6241

          k = 0.0158-0.0224 0.0000 ( 29549 PWs)   bands (ev):

   -77.2052 -77.1986 -76.9306 -76.9243 -76.8938 -76.8875 -45.1310 -45.1132
   -45.1060 -45.1059 -45.1003 -45.0373 -44.9142 -44.8747 -44.8360 -44.8274
   -44.8212 -44.8049 -44.7961 -44.7820 -44.7684 -44.7584 -44.7286 -44.7193
    -7.0364  -6.3256  -6.3252  -6.3054  -6.2944  -6.2809  -6.2484  -6.2392
    -6.2133  -6.1950  -6.1760  -6.0975  -6.0297  -6.0257  -6.0253  -6.0224
    -6.0201  -5.9994  -5.9968  -5.9467  -5.9461  -5.9331  -5.9076  -5.8344
    -5.8110  -5.7783  -5.7528  -5.7414  -5.6185  -5.5872  -5.5773  -4.9788
    -3.7881  -3.6863  -3.3797  -3.3507  -1.7937  -1.6553  -1.5104  -1.4718
    -1.4532  -1.4384  -1.3338  -1.0794  -0.9922  -0.7847  -0.7055  -0.5734
    -0.3906  -0.3458  -0.3456  -0.2451  -0.2444   0.0388   0.0450   0.1660
     0.2094   0.3076   0.3479   0.3846   0.4542   0.5830   0.5994   0.8591
     1.0271   1.2177   1.5119   1.6496   2.3864   3.0344   3.2536   4.6384
     4.6764   4.8186   4.9458   5.0984   5.5867   5.9499   6.4620   6.5161

          k = 0.0317-0.0112 0.0000 ( 29572 PWs)   bands (ev):

   -77.2052 -77.1986 -76.9306 -76.9243 -76.8938 -76.8875 -45.1311 -45.1133
   -45.1062 -45.1058 -45.1001 -45.0373 -44.9143 -44.8747 -44.8360 -44.8274
   -44.8212 -44.8051 -44.7963 -44.7820 -44.7682 -44.7584 -44.7285 -44.7193
    -6.9768  -6.3154  -6.3135  -6.2930  -6.2836  -6.2718  -6.2405  -6.2266
    -6.2022  -6.1875  -6.1689  -6.0859  -6.0433  -6.0307  -6.0201  -6.0182
    -6.0124  -5.9877  -5.9692  -5.9453  -5.9415  -5.9238  -5.8976  -5.8291
    -5.8122  -5.7759  -5.7549  -5.7500  -5.6381  -5.5894  -5.5754  -4.9228
    -3.8066  -3.6601  -3.3775  -3.3187  -1.8080  -1.6745  -1.6478  -1.5272
    -1.5127  -1.4992  -1.4323  -1.1793  -1.0163  -0.7393  -0.6727  -0.5937
    -0.4531  -0.4171  -0.3346  -0.3103  -0.1474  -0.0901  -0.0518   0.1175
     0.1472   0.2921   0.3407   0.4690   0.4821   0.5406   0.5569   0.7066
     0.7952   1.7035   1.7732   2.0229   2.1042   2.9932   3.1493   4.1609
     4.7864   4.8708   5.0073   5.1678   5.6424   6.0626   6.3127   6.5074

          k = 0.0317 0.0056 0.0000 ( 29579 PWs)   bands (ev):

   -77.2055 -77.1983 -76.9309 -76.9239 -76.8942 -76.8871 -45.1365 -45.1141
   -45.1070 -45.1051 -45.0993 -45.0318 -44.9196 -44.8801 -44.8365 -44.8268
   -44.8158 -44.8058 -44.7959 -44.7767 -44.7685 -44.7579 -44.7290 -44.7189
    -6.9902  -6.3216  -6.3168  -6.3023  -6.2855  -6.2697  -6.2594  -6.2473
    -6.1925  -6.1851  -6.1772  -6.0791  -6.0578  -6.0448  -6.0267  -6.0111
    -5.9998  -5.9906  -5.9558  -5.9401  -5.9340  -5.9084  -5.8858  -5.8198
    -5.8111  -5.7654  -5.7452  -5.7435  -5.6608  -5.5708  -5.5495  -4.9036
    -3.6993  -3.6549  -3.3641  -3.1544  -1.8955  -1.8886  -1.7083  -1.6633
    -1.6076  -1.5720  -1.5162  -1.2736  -1.0462  -0.6920  -0.6399  -0.5312
    -0.4981  -0.4428  -0.3249  -0.2672  -0.1473  -0.0288   0.0513   0.1218
     0.1337   0.3118   0.3634   0.4675   0.4796   0.6412   0.7243   0.8637
     1.1329   1.5288   1.6405   2.0899   2.4350   2.5866   3.1209   3.5663
     4.6778   4.8583   4.9366   5.1536   5.6235   5.7190   6.2403   6.4071

          k = 0.0317 0.0224 0.0000 ( 29561 PWs)   bands (ev):

   -77.2056 -77.1982 -76.9311 -76.9238 -76.8943 -76.8870 -45.1384 -45.1145
   -45.1076 -45.1048 -45.0987 -45.0299 -44.9215 -44.8819 -44.8367 -44.8265
   -44.8140 -44.8062 -44.7959 -44.7748 -44.7684 -44.7578 -44.7291 -44.7189
    -6.9148  -6.3102  -6.3005  -6.2897  -6.2704  -6.2571  -6.2519  -6.2385
    -6.1740  -6.1712  -6.1693  -6.0657  -6.0556  -6.0494  -6.0233  -6.0040
    -5.9846  -5.9789  -5.9340  -5.9317  -5.9275  -5.8924  -5.8705  -5.8160
    -5.8109  -5.7574  -5.7510  -5.7440  -5.6887  -5.5678  -5.5382  -4.8305
    -3.6341  -3.6254  -3.3510  -3.0565  -2.1452  -1.9755  -1.8100  -1.7635
    -1.6896  -1.6309  -1.5743  -1.3561  -1.1232  -0.7267  -0.6592  -0.6317
    -0.5454  -0.5364  -0.2779  -0.2644  -0.1320  -0.0771  -0.0426   0.1536
     0.1774   0.3077   0.3372   0.4282   0.5157   0.6262   0.6438   0.9723
     1.1950   1.3172   1.7440   2.0999   2.2287   3.1043   3.1311   3.2978
     4.6588   4.9140   5.1866   5.1872   5.2484   5.7009   6.1781   6.4973

          k = 0.0317 0.0392 0.0000 ( 29584 PWs)   bands (ev):

   -77.2055 -77.1983 -76.9310 -76.9239 -76.8942 -76.8871 -45.1367 -45.1147
   -45.1079 -45.1048 -45.0985 -45.0318 -44.9197 -44.8802 -44.8366 -44.8267
   -44.8158 -44.8062 -44.7962 -44.7767 -44.7680 -44.7581 -44.7289 -44.7191
    -6.7594  -6.2809  -6.2723  -6.2550  -6.2431  -6.2343  -6.2259  -6.2049
    -6.1565  -6.1545  -6.1421  -6.0668  -6.0462  -6.0263  -6.0101  -5.9941
    -5.9684  -5.9585  -5.9225  -5.9182  -5.9050  -5.8785  -5.8517  -5.8239
    -5.8014  -5.7713  -5.7568  -5.7488  -5.7197  -5.5794  -5.5440  -4.6949
    -3.6845  -3.5822  -3.3527  -3.0632  -2.2756  -2.0734  -1.9449  -1.8266
    -1.7381  -1.6372  -1.6356  -1.4542  -1.1859  -0.9109  -0.7896  -0.7087
    -0.6206  -0.5015  -0.4792  -0.3686  -0.2434  -0.0648  -0.0075   0.0502
     0.1662   0.2737   0.2937   0.3319   0.4776   0.4823   0.6279   0.9690
     1.0236   1.1593   1.9579   2.3783   2.5347   2.9090   3.1793   3.4663
     4.7747   4.9715   5.0787   5.3697   5.4015   5.8492   6.3211   6.6069

          k = 0.0317 0.0560 0.0000 ( 29581 PWs)   bands (ev):

   -77.2051 -77.1987 -76.9306 -76.9242 -76.8938 -76.8875 -45.1314 -45.1145
   -45.1078 -45.1052 -45.0986 -45.0372 -44.9144 -44.8749 -44.8362 -44.8273
   -44.8213 -44.8058 -44.7968 -44.7821 -44.7673 -44.7587 -44.7283 -44.7197
    -6.5466  -6.2389  -6.2372  -6.2122  -6.2092  -6.1953  -6.1886  -6.1526
    -6.1433  -6.1359  -6.1125  -6.0616  -6.0376  -6.0074  -5.9901  -5.9813
    -5.9446  -5.9431  -5.9177  -5.9067  -5.8728  -5.8717  -5.8364  -5.8310
    -5.8013  -5.7732  -5.7697  -5.7521  -5.7499  -5.6025  -5.5702  -4.4877
    -3.9531  -3.5513  -3.3989  -3.1028  -2.2461  -2.1600  -2.0528  -1.9021
    -1.7317  -1.6837  -1.6084  -1.5723  -1.2102  -1.1295  -0.8868  -0.7584
    -0.7447  -0.7202  -0.5638  -0.4666  -0.2365  -0.2049  -0.1150  -0.0931
     0.0356   0.2078   0.2608   0.3120   0.3937   0.6069   0.6104   0.6494
     0.8378   1.2880   2.1104   2.6229   2.9819   3.0083   3.1504   3.6183
     4.4766   5.2849   5.3319   5.4151   5.6607   6.0791   6.1762   6.8393

          k = 0.0317 0.0728 0.0000 ( 29575 PWs)   bands (ev):

   -77.2045 -77.1993 -76.9300 -76.9248 -76.8932 -76.8881 -45.1229 -45.1140
   -45.1075 -45.1059 -45.0990 -45.0459 -44.9059 -44.8665 -44.8355 -44.8299
   -44.8281 -44.8050 -44.7977 -44.7907 -44.7663 -44.7597 -44.7274 -44.7206
    -6.3298  -6.2072  -6.1856  -6.1801  -6.1737  -6.1568  -6.1374  -6.1246
    -6.1232  -6.0881  -6.0862  -6.0532  -6.0262  -6.0078  -5.9707  -5.9622
    -5.9383  -5.9191  -5.9157  -5.9096  -5.8796  -5.8552  -5.8534  -5.8262
    -5.8149  -5.7890  -5.7839  -5.7628  -5.6560  -5.6299  -5.6199  -4.3952
    -4.2115  -3.5754  -3.5329  -3.1055  -2.2599  -2.1735  -2.0026  -2.0014
    -1.7404  -1.6741  -1.6477  -1.5406  -1.2572  -1.1936  -0.9434  -0.9365
    -0.8913  -0.7145  -0.6946  -0.4655  -0.4276  -0.3749  -0.1950  -0.1583
     0.0286   0.1602   0.2256   0.2643   0.3160   0.3297   0.6037   0.6159
     0.7136   1.5110   2.1006   2.4314   3.2484   3.3515   3.7974   3.8164
     4.2398   5.1576   5.5701   5.7348   5.7942   6.0098   6.3899   6.7780

          k = 0.0317-0.1120 0.0000 ( 29571 PWs)   bands (ev):

   -77.2037 -77.2001 -76.9293 -76.9256 -76.8925 -76.8888 -45.1132 -45.1118
   -45.1068 -45.1067 -45.0996 -45.0571 -44.8948 -44.8554 -44.8411 -44.8345
   -44.8292 -44.8039 -44.8018 -44.7986 -44.7652 -44.7610 -44.7262 -44.7217
    -6.1982  -6.1865  -6.1536  -6.1506  -6.1354  -6.1334  -6.1228  -6.1149
    -6.0677  -6.0474  -6.0431  -6.0413  -6.0134  -6.0057  -5.9553  -5.9462
    -5.9384  -5.9253  -5.9178  -5.8988  -5.8986  -5.8829  -5.8756  -5.8241
    -5.8199  -5.8064  -5.8046  -5.7830  -5.6930  -5.6467  -5.4039  -4.8876
    -3.8942  -3.7731  -3.6735  -3.1330  -2.2766  -2.1210  -2.0543  -1.8395
    -1.7739  -1.6479  -1.5753  -1.4314  -1.2750  -1.1565  -1.0242  -0.9735
    -0.9394  -0.7590  -0.6584  -0.6024  -0.5834  -0.3931  -0.2264  -0.1449
    -0.0687   0.0040   0.1208   0.1998   0.2329   0.2630   0.3470   0.6196
     0.7475   1.8108   2.0116   2.0544   3.7357   3.8668   3.9515   4.0411
     4.3567   4.7970   5.6898   5.9279   6.0763   6.4220   6.6257   6.7932

          k = 0.0317-0.0952 0.0000 ( 29555 PWs)   bands (ev):

   -77.2028 -77.2010 -76.9284 -76.9264 -76.8916 -76.8897 -45.1120 -45.1078
   -45.1059 -45.1006 -45.0987 -45.0702 -44.8819 -44.8541 -44.8426 -44.8333
   -44.8305 -44.8148 -44.8025 -44.7997 -44.7639 -44.7624 -44.7250 -44.7230
    -6.1938  -6.1679  -6.1637  -6.1449  -6.1369  -6.1240  -6.1013  -6.0749
    -6.0618  -6.0526  -6.0460  -6.0005  -5.9722  -5.9613  -5.9536  -5.9460
    -5.9298  -5.9201  -5.9179  -5.9058  -5.9040  -5.9010  -5.8965  -5.8535
    -5.8422  -5.8208  -5.8131  -5.8019  -5.7817  -5.6440  -5.3451  -5.0372
    -4.0762  -3.8037  -3.6009  -3.2309  -2.1727  -2.1631  -1.8357  -1.7355
    -1.6955  -1.6275  -1.4577  -1.2811  -1.1771  -1.1434  -0.9961  -0.9628
    -0.8940  -0.7096  -0.7062  -0.6349  -0.6067  -0.3657  -0.2594  -0.2083
    -0.1694  -0.1209   0.0075   0.0442   0.1294   0.2374   0.2565   0.6502
     0.7202   1.6821   1.8855   2.1731   3.8594   3.9109   4.0385   4.3516
     4.4418   5.2860   5.8337   5.9340   6.3410   6.4740   6.6942   6.8093

          k = 0.0317-0.0784 0.0000 ( 29530 PWs)   bands (ev):

   -77.2020 -77.2018 -76.9274 -76.9274 -76.8907 -76.8906 -45.1107 -45.1090
   -45.1048 -45.1016 -45.0847 -45.0842 -44.8680 -44.8679 -44.8320 -44.8318
   -44.8287 -44.8286 -44.8010 -44.8008 -44.7639 -44.7626 -44.7243 -44.7236
    -6.2686  -6.1882  -6.1760  -6.1732  -6.1413  -6.1356  -6.1207  -6.0852
    -6.0769  -6.0498  -6.0405  -5.9902  -5.9836  -5.9576  -5.9533  -5.9446
    -5.9365  -5.9359  -5.9248  -5.9206  -5.9108  -5.8999  -5.8894  -5.8753
    -5.8682  -5.8370  -5.8162  -5.8014  -5.7958  -5.6718  -5.6305  -4.6307
    -4.3749  -3.9045  -3.4209  -3.3641  -2.0900  -1.9381  -1.6822  -1.6188
    -1.5701  -1.5655  -1.3579  -1.1451  -1.0902  -0.9837  -0.9085  -0.8808
    -0.8078  -0.6861  -0.6453  -0.6222  -0.5885  -0.3574  -0.2952  -0.2209
    -0.2191  -0.1674  -0.1349  -0.0897   0.0777   0.2514   0.2532   0.6549
     0.6832   1.3401   1.7480   2.5760   3.3358   3.6841   4.0402   5.0214
     5.0247   5.5970   5.6263   6.0581   6.3852   6.4629   6.5900   6.8122

          k = 0.0317-0.0616 0.0000 ( 29505 PWs)   bands (ev):

   -77.2029 -77.2008 -76.9283 -76.9265 -76.8916 -76.8897 -45.1102 -45.1093
   -45.1036 -45.1028 -45.0982 -45.0705 -44.8818 -44.8540 -44.8424 -44.8331
   -44.8307 -44.8148 -44.8020 -44.7995 -44.7654 -44.7614 -44.7256 -44.7223
    -6.4567  -6.2166  -6.2098  -6.2083  -6.1785  -6.1640  -6.1566  -6.1432
    -6.0728  -6.0664  -6.0493  -6.0204  -6.0125  -5.9959  -5.9786  -5.9685
    -5.9635  -5.9564  -5.9543  -5.9309  -5.9246  -5.9223  -5.9078  -5.8631
    -5.8506  -5.8354  -5.8177  -5.7667  -5.7401  -5.7341  -5.6193  -4.6206
    -4.2566  -3.9269  -3.4871  -3.3670  -1.8955  -1.6658  -1.6588  -1.6114
    -1.4529  -1.3659  -1.2840  -1.1180  -0.9490  -0.9120  -0.8232  -0.7575
    -0.7207  -0.6281  -0.5550  -0.5261  -0.4750  -0.4477  -0.2637  -0.1832
    -0.1355  -0.1315  -0.1132  -0.1110   0.1191   0.2390   0.3217   0.5854
     0.7028   1.0429   1.6270   2.7897   3.0007   3.5156   3.8479   5.3301
     5.4735   5.6342   5.7838   5.7928   6.1476   6.3000   6.4444   6.6108

          k = 0.0317-0.0448 0.0000 ( 29543 PWs)   bands (ev):

   -77.2038 -77.2000 -76.9292 -76.9256 -76.8925 -76.8888 -45.1113 -45.1113
   -45.1080 -45.1040 -45.1023 -45.0574 -44.8947 -44.8553 -44.8410 -44.8343
   -44.8294 -44.8031 -44.8018 -44.7981 -44.7666 -44.7602 -44.7268 -44.7211
    -6.6900  -6.2554  -6.2485  -6.2429  -6.2258  -6.2221  -6.1852  -6.1619
    -6.1156  -6.1138  -6.1072  -6.0512  -6.0423  -6.0009  -6.0007  -5.9877
    -5.9758  -5.9641  -5.9625  -5.9561  -5.9540  -5.9295  -5.9110  -5.8502
    -5.8372  -5.8063  -5.7951  -5.7788  -5.6734  -5.6701  -5.6159  -4.7914
    -4.0300  -3.7855  -3.5791  -3.3691  -1.6996  -1.6598  -1.6584  -1.3877
    -1.3803  -1.3286  -1.3039  -1.0400  -1.0026  -0.9180  -0.8469  -0.7838
    -0.5213  -0.4772  -0.4222  -0.4060  -0.2838  -0.2599  -0.2585  -0.2303
    -0.0347   0.0127   0.0278   0.0283   0.2190   0.3743   0.4618   0.6046
     0.6911   0.8045   1.5928   2.3106   3.3066   3.3959   3.4319   5.1115
     5.4357   5.4525   5.4980   5.7039   5.8999   6.3342   6.4287   6.7230

          k = 0.0317-0.0280 0.0000 ( 29569 PWs)   bands (ev):

   -77.2046 -77.1992 -76.9300 -76.9249 -76.8932 -76.8881 -45.1225 -45.1124
   -45.1068 -45.1052 -45.1011 -45.0460 -44.9058 -44.8663 -44.8353 -44.8298
   -44.8283 -44.8042 -44.7970 -44.7906 -44.7676 -44.7592 -44.7278 -44.7201
    -6.8740  -6.2939  -6.2871  -6.2662  -6.2629  -6.2624  -6.1990  -6.1916
    -6.1789  -6.1779  -6.1444  -6.0747  -6.0324  -6.0234  -6.0105  -6.0069
    -6.0019  -5.9787  -5.9713  -5.9550  -5.9472  -5.9320  -5.9063  -5.8397
    -5.8215  -5.7829  -5.7713  -5.7711  -5.6239  -5.6225  -5.6153  -4.8883
    -3.9192  -3.6361  -3.5382  -3.3763  -1.7294  -1.6610  -1.5650  -1.4446
    -1.4358  -1.3833  -1.2715  -1.1070  -1.0541  -0.8575  -0.7327  -0.7099
    -0.4989  -0.3825  -0.3365  -0.3192  -0.2791  -0.2033  -0.0904   0.0678
     0.1451   0.1670   0.1862   0.1992   0.2088   0.5437   0.6149   0.6428
     0.6509   1.0462   1.7513   1.9348   2.7683   3.2023   3.4838   4.8359
     4.9561   5.0531   5.2697   5.2917   5.7338   6.0130   6.5726   6.6241

          k = 0.0475-0.0168 0.0000 ( 29554 PWs)   bands (ev):

   -77.2045 -77.1992 -76.9300 -76.9249 -76.8932 -76.8881 -45.1226 -45.1127
   -45.1066 -45.1057 -45.1007 -45.0460 -44.9058 -44.8663 -44.8352 -44.8298
   -44.8282 -44.8045 -44.7973 -44.7906 -44.7672 -44.7592 -44.7277 -44.7202
    -6.7650  -6.2811  -6.2658  -6.2494  -6.2462  -6.2446  -6.1808  -6.1767
    -6.1698  -6.1598  -6.1367  -6.0622  -6.0416  -6.0184  -6.0112  -6.0015
    -5.9940  -5.9595  -5.9485  -5.9391  -5.9315  -5.9178  -5.8850  -5.8322
    -5.8136  -5.7867  -5.7814  -5.7730  -5.6592  -5.6271  -5.6143  -4.7687
    -4.0334  -3.5879  -3.4274  -3.3926  -1.7565  -1.7127  -1.6941  -1.6085
    -1.5482  -1.5112  -1.4540  -1.2428  -1.0506  -0.8345  -0.7737  -0.7036
    -0.6470  -0.4844  -0.3909  -0.3649  -0.2748  -0.2210  -0.2045   0.0110
     0.0530   0.0947   0.2102   0.2307   0.2308   0.4695   0.4778   0.5705
     0.7721   1.8048   2.2104   2.2277   2.4159   2.9480   3.4560   3.9879
     5.0592   5.1085   5.3986   5.4059   5.8442   6.0497   6.2774   6.3136

          k = 0.0475-0.0000 0.0000 ( 29580 PWs)   bands (ev):

   -77.2051 -77.1987 -76.9306 -76.9243 -76.8938 -76.8875 -45.1312 -45.1138
   -45.1069 -45.1056 -45.0995 -45.0372 -44.9143 -44.8748 -44.8360 -44.8273
   -44.8212 -44.8055 -44.7966 -44.7821 -44.7678 -44.7585 -44.7284 -44.7195
    -6.8043  -6.2858  -6.2816  -6.2577  -6.2531  -6.2442  -6.2190  -6.1940
    -6.1729  -6.1680  -6.1477  -6.0571  -6.0533  -6.0370  -6.0091  -5.9992
    -5.9865  -5.9669  -5.9356  -5.9314  -5.9218  -5.8992  -5.8697  -5.8243
    -5.8056  -5.7723  -5.7693  -5.7595  -5.6877  -5.5953  -5.5718  -4.7581
    -3.8604  -3.5942  -3.3811  -3.2281  -1.9646  -1.8966  -1.7566  -1.7427
    -1.6415  -1.5917  -1.5628  -1.3656  -1.0912  -0.7833  -0.7167  -0.6570
    -0.6177  -0.6153  -0.4622  -0.3472  -0.2321  -0.1122  -0.0575   0.0626
     0.1056   0.2378   0.2708   0.3456   0.3805   0.5545   0.6690   0.6955
     0.7685   1.5506   2.0699   2.6102   2.6528   2.8121   3.0700   3.3240
     4.9860   5.0170   5.2676   5.3355   5.3886   5.8089   6.3609   6.3932

          k = 0.0475 0.0168 0.0000 ( 29584 PWs)   bands (ev):

   -77.2055 -77.1983 -76.9310 -76.9239 -76.8942 -76.8871 -45.1367 -45.1147
   -45.1079 -45.1048 -45.0985 -45.0318 -44.9197 -44.8802 -44.8366 -44.8267
   -44.8158 -44.8062 -44.7962 -44.7767 -44.7680 -44.7581 -44.7289 -44.7191
    -6.7594  -6.2809  -6.2723  -6.2550  -6.2431  -6.2343  -6.2259  -6.2049
    -6.1565  -6.1545  -6.1421  -6.0668  -6.0462  -6.0263  -6.0101  -5.9941
    -5.9684  -5.9585  -5.9225  -5.9182  -5.9050  -5.8785  -5.8517  -5.8239
    -5.8014  -5.7713  -5.7568  -5.7488  -5.7197  -5.5794  -5.5440  -4.6949
    -3.6845  -3.5822  -3.3527  -3.0632  -2.2756  -2.0734  -1.9449  -1.8266
    -1.7381  -1.6372  -1.6356  -1.4542  -1.1859  -0.9109  -0.7896  -0.7087
    -0.6206  -0.5015  -0.4792  -0.3686  -0.2434  -0.0648  -0.0075   0.0502
     0.1662   0.2737   0.2937   0.3319   0.4776   0.4823   0.6279   0.9690
     1.0236   1.1593   1.9579   2.3783   2.5347   2.9090   3.1793   3.4663
     4.7747   4.9715   5.0787   5.3697   5.4015   5.8492   6.3211   6.6069

          k = 0.0475 0.0336 0.0000 ( 29501 PWs)   bands (ev):

   -77.2056 -77.1982 -76.9311 -76.9237 -76.8943 -76.8870 -45.1387 -45.1152
   -45.1085 -45.1045 -45.0979 -45.0299 -44.9215 -44.8820 -44.8369 -44.8266
   -44.8140 -44.8065 -44.7961 -44.7749 -44.7679 -44.7581 -44.7289 -44.7191
    -6.6394  -6.2619  -6.2469  -6.2429  -6.2215  -6.2171  -6.2030  -6.1912
    -6.1398  -6.1354  -6.1196  -6.0705  -6.0466  -6.0008  -5.9916  -5.9845
    -5.9620  -5.9309  -5.9123  -5.8931  -5.8817  -5.8597  -5.8306  -5.8279
    -5.7992  -5.7825  -5.7546  -5.7544  -5.7384  -5.5784  -5.5327  -4.5718
    -3.5711  -3.5711  -3.3310  -2.9430  -2.5701  -2.2444  -2.1001  -1.9323
    -1.7896  -1.6939  -1.6712  -1.5400  -1.2739  -1.1008  -0.9018  -0.7987
    -0.6930  -0.4793  -0.4313  -0.3800  -0.3413  -0.2110   0.0760   0.0877
     0.0978   0.1192   0.2167   0.3003   0.4222   0.5082   0.6569   1.0515
     1.1179   1.1393   1.8360   2.2554   2.5021   2.8300   3.3774   3.9159
     4.3382   5.0213   5.1834   5.5372   5.8017   5.9704   6.2403   6.8782

          k = 0.0475 0.0504 0.0000 ( 29575 PWs)   bands (ev):

   -77.2054 -77.1984 -76.9310 -76.9239 -76.8942 -76.8871 -45.1370 -45.1154
   -45.1089 -45.1045 -45.0976 -45.0317 -44.9197 -44.8803 -44.8368 -44.8268
   -44.8159 -44.8064 -44.7964 -44.7768 -44.7676 -44.7584 -44.7287 -44.7194
    -6.4691  -6.2271  -6.2155  -6.2117  -6.1941  -6.1908  -6.1703  -6.1580
    -6.1258  -6.1182  -6.0908  -6.0682  -6.0405  -5.9835  -5.9745  -5.9658
    -5.9467  -5.9105  -5.9024  -5.8668  -5.8562  -5.8492  -5.8352  -5.8088
    -5.8032  -5.7904  -5.7718  -5.7616  -5.7321  -5.5898  -5.5409  -4.3790
    -3.6828  -3.5991  -3.3443  -2.9647  -2.5795  -2.3517  -2.2325  -2.0541
    -1.7973  -1.7300  -1.6718  -1.6552  -1.3325  -1.2801  -0.9951  -0.8658
    -0.8055  -0.6177  -0.5307  -0.4477  -0.3282  -0.2684  -0.1886  -0.1579
     0.1266   0.1718   0.2477   0.2917   0.4102   0.4659   0.6750   0.9407
     1.0076   1.2606   1.7348   2.3665   2.8407   3.0309   3.2454   4.0077
     4.2469   5.1955   5.3684   5.7644   5.9498   6.1711   6.4853   6.6391

          k = 0.0475 0.0672 0.0000 ( 29581 PWs)   bands (ev):

   -77.2050 -77.1987 -76.9306 -76.9242 -76.8938 -76.8875 -45.1317 -45.1152
   -45.1088 -45.1049 -45.0977 -45.0372 -44.9144 -44.8750 -44.8364 -44.8274
   -44.8213 -44.8058 -44.7968 -44.7822 -44.7670 -44.7592 -44.7281 -44.7199
    -6.2976  -6.1834  -6.1832  -6.1652  -6.1650  -6.1599  -6.1329  -6.1190
    -6.1100  -6.1059  -6.0673  -6.0614  -6.0300  -5.9673  -5.9614  -5.9587
    -5.9264  -5.9033  -5.8950  -5.8697  -5.8580  -5.8510  -5.8486  -5.8178
    -5.8148  -5.7919  -5.7739  -5.7399  -5.6387  -5.6076  -5.5718  -4.1155
    -4.0798  -3.7063  -3.4356  -2.9643  -2.4402  -2.3388  -2.2948  -2.1970
    -1.7880  -1.7598  -1.7302  -1.6349  -1.3888  -1.3569  -1.0364  -0.9019
    -0.8777  -0.8127  -0.6815  -0.4640  -0.3911  -0.3901  -0.3198  -0.2743
     0.1352   0.2155   0.2621   0.2680   0.3616   0.3823   0.6416   0.6968
     0.8579   1.4923   1.6668   2.5027   2.9924   3.3872   3.4057   3.7618
     4.6612   5.3024   5.6259   5.6511   6.0732   6.1989   6.3803   6.4634

          k = 0.0475-0.1176 0.0000 ( 29573 PWs)   bands (ev):

   -77.2044 -77.1993 -76.9300 -76.9248 -76.8932 -76.8880 -45.1231 -45.1146
   -45.1083 -45.1055 -45.0982 -45.0458 -44.9059 -44.8665 -44.8358 -44.8299
   -44.8282 -44.8049 -44.7975 -44.7907 -44.7661 -44.7602 -44.7272 -44.7208
    -6.1702  -6.1565  -6.1472  -6.1384  -6.1349  -6.1203  -6.1035  -6.1006
    -6.0967  -6.0595  -6.0519  -6.0489  -6.0172  -5.9799  -5.9574  -5.9361
    -5.9167  -5.9074  -5.8962  -5.8867  -5.8781  -5.8743  -5.8735  -5.8427
    -5.8028  -5.7923  -5.7910  -5.7569  -5.6269  -5.6205  -5.3784  -4.5765
    -3.8804  -3.8016  -3.6337  -2.9802  -2.4375  -2.3662  -2.1784  -2.1111
    -1.8636  -1.7030  -1.6781  -1.5550  -1.4081  -1.3489  -1.0088  -0.9678
    -0.9296  -0.8350  -0.7277  -0.6213  -0.5294  -0.3874  -0.3828  -0.2387
     0.0947   0.1135   0.2754   0.2778   0.2934   0.3051   0.3588   0.6266
     0.7193   1.5869   1.8071   2.2792   3.1762   3.5710   3.8864   3.9908
     4.9077   5.0911   5.6305   5.9101   6.0240   6.3797   6.4984   6.8266

          k = 0.0475-0.1008 0.0000 ( 29546 PWs)   bands (ev):

   -77.2036 -77.2001 -76.9293 -76.9256 -76.8925 -76.8888 -45.1136 -45.1119
   -45.1075 -45.1064 -45.0990 -45.0571 -44.8949 -44.8555 -44.8411 -44.8348
   -44.8293 -44.8037 -44.8018 -44.7984 -44.7651 -44.7614 -44.7261 -44.7218
    -6.1457  -6.1402  -6.1367  -6.1175  -6.1131  -6.1008  -6.0936  -6.0639
    -6.0618  -6.0482  -6.0275  -6.0180  -6.0037  -5.9837  -5.9520  -5.9367
    -5.9165  -5.9108  -5.9063  -5.9031  -5.8948  -5.8914  -5.8903  -5.8691
    -5.8211  -5.8168  -5.7937  -5.7873  -5.7041  -5.6212  -5.0645  -5.0242
    -4.0618  -3.9093  -3.5021  -3.0920  -2.4633  -2.3376  -1.9450  -1.8991
    -1.8429  -1.6797  -1.5632  -1.4296  -1.3256  -1.2971  -0.9908  -0.9729
    -0.9212  -0.7690  -0.7059  -0.6635  -0.6094  -0.4100  -0.3583  -0.2167
    -0.0340  -0.0147   0.1306   0.2016   0.2245   0.2784   0.2933   0.3433
     0.7443   1.5248   1.9130   2.1568   3.4141   3.6300   4.2201   4.4277
     4.9438   5.0271   5.8364   5.9094   6.3768   6.4461   6.7398   6.9910

          k = 0.0475-0.0840 0.0000 ( 29533 PWs)   bands (ev):

   -77.2028 -77.2010 -76.9284 -76.9264 -76.8916 -76.8897 -45.1123 -45.1076
   -45.1064 -45.1001 -45.0988 -45.0702 -44.8819 -44.8541 -44.8426 -44.8335
   -44.8305 -44.8148 -44.8023 -44.7995 -44.7639 -44.7628 -44.7248 -44.7230
    -6.1723  -6.1631  -6.1393  -6.1383  -6.1144  -6.1053  -6.0827  -6.0692
    -6.0639  -6.0470  -6.0100  -5.9898  -5.9730  -5.9568  -5.9519  -5.9413
    -5.9321  -5.9231  -5.9131  -5.9001  -5.8978  -5.8921  -5.8856  -5.8778
    -5.8528  -5.8437  -5.8259  -5.8021  -5.7968  -5.6150  -5.4784  -4.6350
    -4.2000  -4.1970  -3.3363  -3.2446  -2.3893  -2.1407  -1.7566  -1.7216
    -1.6771  -1.6703  -1.4425  -1.2560  -1.1842  -1.1557  -0.9699  -0.9579
    -0.8514  -0.7332  -0.6560  -0.6516  -0.5571  -0.3338  -0.3229  -0.2359
    -0.1881  -0.1375  -0.0010   0.0337   0.1391   0.1726   0.2713   0.2734
     0.7600   1.4738   1.5668   2.5546   3.2823   3.7347   4.2243   4.9748
     5.0088   5.5876   5.7744   5.8169   6.4156   6.5013   6.7502   6.8405

          k = 0.0475-0.0672 0.0000 ( 29544 PWs)   bands (ev):

   -77.2020 -77.2018 -76.9275 -76.9274 -76.8907 -76.8906 -45.1109 -45.1088
   -45.1051 -45.1014 -45.0847 -45.0842 -44.8680 -44.8679 -44.8321 -44.8318
   -44.8287 -44.8286 -44.8009 -44.8007 -44.7641 -44.7626 -44.7243 -44.7235
    -6.2724  -6.1905  -6.1725  -6.1552  -6.1509  -6.1241  -6.1239  -6.0828
    -6.0667  -6.0583  -6.0203  -5.9759  -5.9743  -5.9690  -5.9668  -5.9512
    -5.9385  -5.9288  -5.9223  -5.9177  -5.9173  -5.9144  -5.9014  -5.8708
    -5.8612  -5.8369  -5.8240  -5.8204  -5.8023  -5.7149  -5.6125  -4.4431
    -4.2806  -4.2455  -3.3829  -3.3282  -2.1485  -1.9001  -1.6676  -1.6358
    -1.5987  -1.4404  -1.3213  -1.1556  -1.0331  -0.9420  -0.9097  -0.8634
    -0.8163  -0.6808  -0.6286  -0.6188  -0.5682  -0.2642  -0.2533  -0.2320
    -0.2179  -0.2105  -0.1634  -0.0983   0.1341   0.1781   0.2593   0.3077
     0.7514   1.2720   1.4807   2.9442   3.2189   3.2273   4.5967   4.9426
     5.3636   5.5542   5.9613   6.0235   6.2941   6.4724   6.5185   6.5841

          k = 0.0475-0.0504 0.0000 ( 29505 PWs)   bands (ev):

   -77.2029 -77.2008 -76.9283 -76.9265 -76.8916 -76.8897 -45.1102 -45.1093
   -45.1036 -45.1028 -45.0982 -45.0705 -44.8818 -44.8540 -44.8424 -44.8331
   -44.8307 -44.8148 -44.8020 -44.7995 -44.7654 -44.7614 -44.7256 -44.7223
    -6.4567  -6.2166  -6.2098  -6.2083  -6.1785  -6.1640  -6.1566  -6.1432
    -6.0728  -6.0664  -6.0493  -6.0204  -6.0125  -5.9959  -5.9786  -5.9685
    -5.9635  -5.9564  -5.9543  -5.9309  -5.9246  -5.9223  -5.9078  -5.8631
    -5.8506  -5.8354  -5.8177  -5.7667  -5.7401  -5.7341  -5.6193  -4.6206
    -4.2566  -3.9269  -3.4871  -3.3670  -1.8955  -1.6658  -1.6588  -1.6114
    -1.4529  -1.3659  -1.2840  -1.1180  -0.9490  -0.9120  -0.8232  -0.7575
    -0.7207  -0.6281  -0.5550  -0.5261  -0.4750  -0.4477  -0.2637  -0.1832
    -0.1355  -0.1315  -0.1132  -0.1110   0.1191   0.2390   0.3217   0.5854
     0.7028   1.0429   1.6270   2.7897   3.0007   3.5156   3.8479   5.3301
     5.4735   5.6342   5.7838   5.7928   6.1476   6.3000   6.4444   6.6108

          k = 0.0475-0.0336 0.0000 ( 29521 PWs)   bands (ev):

   -77.2038 -77.2000 -76.9292 -76.9256 -76.8925 -76.8888 -45.1115 -45.1113
   -45.1079 -45.1043 -45.1021 -45.0573 -44.8947 -44.8553 -44.8410 -44.8342
   -44.8293 -44.8033 -44.8018 -44.7983 -44.7664 -44.7602 -44.7267 -44.7211
    -6.6430  -6.2549  -6.2407  -6.2364  -6.2203  -6.2145  -6.1767  -6.1607
    -6.1107  -6.1092  -6.1086  -6.0501  -6.0309  -6.0208  -5.9932  -5.9896
    -5.9767  -5.9621  -5.9471  -5.9457  -5.9330  -5.9278  -5.8978  -5.8482
    -5.8248  -5.8141  -5.7969  -5.7775  -5.6741  -5.6706  -5.6357  -4.7259
    -4.1726  -3.6515  -3.5542  -3.3940  -1.7134  -1.6734  -1.6596  -1.5003
    -1.4844  -1.3837  -1.3764  -1.0997  -1.0218  -0.9458  -0.8740  -0.6659
    -0.6472  -0.4953  -0.4298  -0.3733  -0.3701  -0.3167  -0.2455  -0.2442
    -0.0699  -0.0248   0.0085   0.0583   0.2156   0.2159   0.4712   0.6043
     0.8821   1.1048   1.9733   2.4498   2.9521   3.0163   3.7697   4.7964
     5.1664   5.3833   5.5328   5.5799   5.9619   6.4306   6.6025   6.6219

          k = 0.0634-0.0224 0.0000 ( 29571 PWs)   bands (ev):

   -77.2038 -77.2000 -76.9292 -76.9256 -76.8925 -76.8888 -45.1119 -45.1115
   -45.1076 -45.1050 -45.1014 -45.0573 -44.8948 -44.8553 -44.8410 -44.8342
   -44.8292 -44.8037 -44.8018 -44.7986 -44.7659 -44.7603 -44.7266 -44.7213
    -6.5127  -6.2472  -6.2198  -6.2139  -6.2032  -6.1932  -6.1597  -6.1564
    -6.1062  -6.0983  -6.0918  -6.0412  -6.0331  -6.0052  -6.0034  -5.9817
    -5.9678  -5.9533  -5.9388  -5.9266  -5.9135  -5.8919  -5.8668  -5.8498
    -5.8335  -5.8015  -5.7849  -5.7636  -5.6848  -5.6743  -5.6736  -4.5399
    -4.4050  -3.4992  -3.4782  -3.4446  -1.8060  -1.7683  -1.7325  -1.7222
    -1.6050  -1.5609  -1.3852  -1.3046  -1.0117  -0.9473  -0.9396  -0.8425
    -0.8217  -0.6087  -0.4796  -0.4013  -0.3953  -0.3669  -0.3031  -0.2101
     0.0015   0.0021   0.0251   0.0958   0.1936   0.2629   0.4353   0.4638
     1.0740   1.9191   2.2733   2.5850   2.7741   2.7927   3.8200   3.9672
     5.1322   5.3170   5.6279   5.7142   5.7982   6.0333   6.1309   6.9175

          k = 0.0634-0.0056 0.0000 ( 29582 PWs)   bands (ev):

   -77.2045 -77.1993 -76.9300 -76.9248 -76.8932 -76.8881 -45.1227 -45.1133
   -45.1065 -45.1063 -45.0999 -45.0459 -44.9059 -44.8664 -44.8353 -44.8298
   -44.8281 -44.8049 -44.7976 -44.7907 -44.7667 -44.7594 -44.7276 -44.7204
    -6.5647  -6.2519  -6.2285  -6.2200  -6.2142  -6.2079  -6.1560  -6.1519
    -6.1512  -6.1276  -6.1173  -6.0498  -6.0383  -6.0259  -5.9879  -5.9805
    -5.9761  -5.9377  -5.9351  -5.9296  -5.8942  -5.8848  -5.8505  -5.8376
    -5.8111  -5.7844  -5.7710  -5.7697  -5.7172  -5.6307  -5.6152  -4.5394
    -4.2012  -3.5284  -3.4484  -3.2651  -2.0026  -1.9379  -1.8028  -1.7880
    -1.6786  -1.6535  -1.5008  -1.4538  -1.0788  -0.9731  -0.8696  -0.8606
    -0.8342  -0.5888  -0.5567  -0.4321  -0.2906  -0.2217  -0.1981  -0.0966
     0.0070   0.1355   0.2228   0.2391   0.2863   0.3406   0.5404   0.5679
     0.9410   1.5992   2.5147   2.6580   2.7440   3.2031   3.2250   3.3562
     5.0603   5.0615   5.2860   5.6468   5.7201   5.9028   6.0655   6.6932

          k = 0.0634 0.0112 0.0000 ( 29581 PWs)   bands (ev):

   -77.2051 -77.1987 -76.9306 -76.9242 -76.8938 -76.8875 -45.1314 -45.1145
   -45.1078 -45.1052 -45.0986 -45.0372 -44.9144 -44.8749 -44.8362 -44.8273
   -44.8213 -44.8058 -44.7968 -44.7821 -44.7673 -44.7587 -44.7283 -44.7197
    -6.5466  -6.2389  -6.2372  -6.2122  -6.2092  -6.1953  -6.1886  -6.1526
    -6.1433  -6.1359  -6.1125  -6.0616  -6.0376  -6.0074  -5.9901  -5.9813
    -5.9446  -5.9431  -5.9177  -5.9067  -5.8728  -5.8717  -5.8364  -5.8310
    -5.8013  -5.7732  -5.7697  -5.7521  -5.7499  -5.6025  -5.5702  -4.4877
    -3.9531  -3.5513  -3.3989  -3.1028  -2.2461  -2.1600  -2.0528  -1.9021
    -1.7317  -1.6837  -1.6084  -1.5723  -1.2102  -1.1295  -0.8868  -0.7584
    -0.7447  -0.7202  -0.5638  -0.4666  -0.2365  -0.2049  -0.1150  -0.0931
     0.0356   0.2078   0.2608   0.3120   0.3937   0.6069   0.6104   0.6494
     0.8378   1.2880   2.1104   2.6229   2.9819   3.0083   3.1504   3.6183
     4.4766   5.2849   5.3319   5.4151   5.6607   6.0791   6.1762   6.8393

          k = 0.0634 0.0280 0.0000 ( 29575 PWs)   bands (ev):

   -77.2054 -77.1984 -76.9310 -76.9239 -76.8942 -76.8871 -45.1370 -45.1154
   -45.1089 -45.1045 -45.0976 -45.0317 -44.9197 -44.8803 -44.8368 -44.8268
   -44.8159 -44.8064 -44.7964 -44.7768 -44.7676 -44.7584 -44.7287 -44.7194
    -6.4691  -6.2271  -6.2155  -6.2117  -6.1941  -6.1908  -6.1703  -6.1580
    -6.1258  -6.1182  -6.0908  -6.0682  -6.0405  -5.9835  -5.9745  -5.9658
    -5.9467  -5.9105  -5.9024  -5.8668  -5.8562  -5.8492  -5.8352  -5.8088
    -5.8032  -5.7904  -5.7718  -5.7616  -5.7321  -5.5898  -5.5409  -4.3790
    -3.6828  -3.5991  -3.3443  -2.9647  -2.5795  -2.3517  -2.2325  -2.0541
    -1.7973  -1.7300  -1.6718  -1.6552  -1.3325  -1.2801  -0.9951  -0.8658
    -0.8055  -0.6177  -0.5307  -0.4477  -0.3282  -0.2684  -0.1886  -0.1579
     0.1266   0.1718   0.2477   0.2917   0.4102   0.4659   0.6750   0.9407
     1.0076   1.2606   1.7348   2.3665   2.8407   3.0309   3.2454   4.0077
     4.2469   5.1955   5.3684   5.7644   5.9498   6.1711   6.4853   6.6391

          k = 0.0634 0.0448 0.0000 ( 29619 PWs)   bands (ev):

   -77.2055 -77.1983 -76.9311 -76.9237 -76.8943 -76.8870 -45.1389 -45.1159
   -45.1095 -45.1042 -45.0970 -45.0298 -44.9216 -44.8821 -44.8372 -44.8267
   -44.8141 -44.8065 -44.7961 -44.7749 -44.7676 -44.7585 -44.7287 -44.7193
    -6.3641  -6.2127  -6.1900  -6.1878  -6.1749  -6.1712  -6.1476  -6.1338
    -6.1095  -6.1040  -6.0700  -6.0604  -6.0364  -5.9680  -5.9653  -5.9424
    -5.9303  -5.8948  -5.8782  -5.8625  -5.8418  -5.8333  -5.8282  -5.8108
    -5.7920  -5.7857  -5.7593  -5.7416  -5.7190  -5.5906  -5.5301  -4.2044
    -3.7153  -3.4873  -3.3116  -2.9353  -2.8227  -2.4441  -2.3571  -2.2273
    -1.8309  -1.7665  -1.7454  -1.6997  -1.4281  -1.4078  -1.1042  -0.9946
    -0.8982  -0.5750  -0.4892  -0.4862  -0.4218  -0.4136  -0.3830  -0.2598
    -0.0224   0.1814   0.2749   0.3171   0.4407   0.4819   0.7233   1.0413
     1.0575   1.3429   1.5203   2.3023   2.7594   3.2347   3.4363   3.6608
     4.3116   5.5236   5.5320   5.9528   6.0414   6.3537   6.4005   6.7454

          k = 0.0634 0.0616 0.0000 ( 29557 PWs)   bands (ev):

   -77.2054 -77.1984 -76.9310 -76.9239 -76.8941 -76.8871 -45.1372 -45.1160
   -45.1097 -45.1042 -45.0968 -45.0317 -44.9198 -44.8803 -44.8371 -44.8270
   -44.8160 -44.8063 -44.7962 -44.7768 -44.7674 -44.7589 -44.7284 -44.7195
    -6.2701  -6.1899  -6.1595  -6.1548  -6.1513  -6.1479  -6.1125  -6.1011
    -6.0965  -6.0936  -6.0676  -6.0343  -6.0270  -5.9590  -5.9477  -5.9303
    -5.9182  -5.8844  -5.8804  -5.8635  -5.8614  -5.8516  -5.8305  -5.8047
    -5.8038  -5.7674  -5.7619  -5.7170  -5.5995  -5.5616  -5.5407  -3.9606
    -3.9121  -3.7201  -3.3443  -2.9117  -2.7041  -2.4621  -2.4554  -2.3699
    -1.8612  -1.8225  -1.7651  -1.6922  -1.4942  -1.4909  -1.1478  -1.0584
    -0.9721  -0.7072  -0.6244  -0.5856  -0.4954  -0.4463  -0.4143  -0.3836
    -0.0298   0.1982   0.2917   0.3093   0.4263   0.4359   0.7585   0.9066
     0.9999   1.3866   1.5534   2.3789   3.0067   3.2399   3.4123   3.5641
     4.6376   5.6367   5.6404   5.7926   6.1652   6.2464   6.6070   6.9705

          k = 0.0634-0.1232 0.0000 ( 29581 PWs)   bands (ev):

   -77.2050 -77.1988 -76.9306 -76.9242 -76.8938 -76.8875 -45.1318 -45.1157
   -45.1095 -45.1046 -45.0971 -45.0371 -44.9145 -44.8750 -44.8367 -44.8275
   -44.8214 -44.8057 -44.7966 -44.7822 -44.7669 -44.7596 -44.7279 -44.7200
    -6.1913  -6.1511  -6.1361  -6.1322  -6.1285  -6.1215  -6.1023  -6.0879
    -6.0681  -6.0678  -6.0564  -6.0217  -6.0144  -5.9548  -5.9366  -5.9279
    -5.9158  -5.9040  -5.8875  -5.8817  -5.8745  -5.8665  -5.8416  -5.8273
    -5.7925  -5.7733  -5.7636  -5.7287  -5.6081  -5.5747  -5.2814  -4.1980
    -4.1484  -3.6574  -3.4786  -2.8324  -2.6415  -2.5717  -2.4369  -2.2432
    -1.9481  -1.7667  -1.7315  -1.6450  -1.5287  -1.5135  -1.1057  -1.0371
    -1.0178  -0.8153  -0.7234  -0.6764  -0.5460  -0.5343  -0.4031  -0.3620
    -0.0119   0.1756   0.2470   0.2978   0.3508   0.3784   0.6553   0.7875
     0.8508   1.3530   1.7907   2.4416   2.9803   3.2392   3.4700   3.9907
     5.1123   5.4027   5.5501   5.7594   6.0717   6.6201   6.9367   7.1729

          k = 0.0634-0.1064 0.0000 ( 29563 PWs)   bands (ev):

   -77.2044 -77.1994 -76.9300 -76.9248 -76.8932 -76.8880 -45.1232 -45.1149
   -45.1088 -45.1053 -45.0977 -45.0458 -44.9060 -44.8666 -44.8360 -44.8300
   -44.8284 -44.8047 -44.7973 -44.7907 -44.7661 -44.7605 -44.7270 -44.7208
    -6.1248  -6.1188  -6.1165  -6.1155  -6.1103  -6.1006  -6.0975  -6.0863
    -6.0728  -6.0345  -6.0261  -6.0121  -6.0052  -5.9733  -5.9528  -5.9270
    -5.9124  -5.9043  -5.9030  -5.9003  -5.8895  -5.8856  -5.8569  -5.8548
    -5.7980  -5.7893  -5.7810  -5.7542  -5.6319  -5.6098  -4.9395  -4.6898
    -4.3638  -3.7041  -3.3523  -2.9288  -2.7966  -2.4953  -2.1695  -2.0484
    -1.9531  -1.6980  -1.6674  -1.5563  -1.5073  -1.4577  -1.0331  -0.9998
    -0.9453  -0.8630  -0.7861  -0.6294  -0.6152  -0.5245  -0.3833  -0.3478
     0.0022   0.1146   0.1213   0.2695   0.2957   0.3102   0.3800   0.6240
     0.8019   1.3386   2.0849   2.2060   3.1250   3.1396   4.0004   4.4800
     4.9747   5.2499   5.4556   6.1078   6.4355   6.9039   7.0614   7.1651

          k = 0.0634-0.0896 0.0000 ( 29524 PWs)   bands (ev):

   -77.2036 -77.2001 -76.9293 -76.9255 -76.8925 -76.8888 -45.1137 -45.1120
   -45.1077 -45.1063 -45.0988 -45.0571 -44.8949 -44.8555 -44.8411 -44.8349
   -44.8294 -44.8036 -44.8019 -44.7983 -44.7651 -44.7616 -44.7260 -44.7219
    -6.1371  -6.1261  -6.1239  -6.1051  -6.0987  -6.0916  -6.0726  -6.0725
    -6.0406  -6.0292  -6.0287  -6.0181  -5.9954  -5.9547  -5.9534  -5.9408
    -5.9217  -5.9172  -5.9086  -5.9081  -5.8931  -5.8930  -5.8880  -5.8692
    -5.8320  -5.8159  -5.7922  -5.7895  -5.7087  -5.6092  -5.1328  -4.6248
    -4.4737  -3.9626  -3.2494  -3.0923  -2.7014  -2.3361  -1.9225  -1.8761
    -1.8528  -1.6825  -1.5560  -1.4251  -1.3773  -1.3264  -1.0109  -0.9082
    -0.8661  -0.8481  -0.7652  -0.6756  -0.5328  -0.4310  -0.3376  -0.3367
    -0.0290  -0.0009   0.0524   0.1348   0.2004   0.2358   0.2879   0.3404
     0.7967   1.3619   1.8652   2.3821   3.0994   3.5902   4.1479   4.8843
     4.9318   5.3221   5.6804   5.9067   6.6073   6.7778   6.8601   7.1194

          k = 0.0634-0.0728 0.0000 ( 29533 PWs)   bands (ev):

   -77.2028 -77.2010 -76.9284 -76.9264 -76.8916 -76.8897 -45.1123 -45.1076
   -45.1064 -45.1001 -45.0988 -45.0702 -44.8819 -44.8541 -44.8426 -44.8335
   -44.8305 -44.8148 -44.8023 -44.7995 -44.7639 -44.7628 -44.7248 -44.7230
    -6.1723  -6.1631  -6.1393  -6.1383  -6.1144  -6.1053  -6.0827  -6.0692
    -6.0639  -6.0470  -6.0100  -5.9898  -5.9730  -5.9568  -5.9519  -5.9413
    -5.9321  -5.9231  -5.9131  -5.9001  -5.8978  -5.8921  -5.8857  -5.8778
    -5.8528  -5.8437  -5.8259  -5.8021  -5.7968  -5.6150  -5.4784  -4.6350
    -4.2000  -4.1970  -3.3363  -3.2446  -2.3893  -2.1407  -1.7566  -1.7216
    -1.6771  -1.6703  -1.4425  -1.2560  -1.1842  -1.1557  -0.9699  -0.9579
    -0.8514  -0.7332  -0.6560  -0.6516  -0.5571  -0.3338  -0.3229  -0.2359
    -0.1881  -0.1375  -0.0010   0.0337   0.1391   0.1726   0.2713   0.2734
     0.7600   1.4738   1.5668   2.5546   3.2823   3.7347   4.2243   4.9748
     5.0088   5.5876   5.7744   5.8169   6.4156   6.5013   6.7502   6.8405

          k = 0.0634-0.0560 0.0000 ( 29530 PWs)   bands (ev):

   -77.2020 -77.2018 -76.9274 -76.9274 -76.8907 -76.8906 -45.1107 -45.1090
   -45.1048 -45.1016 -45.0847 -45.0842 -44.8680 -44.8679 -44.8320 -44.8318
   -44.8287 -44.8286 -44.8010 -44.8008 -44.7639 -44.7626 -44.7243 -44.7236
    -6.2686  -6.1882  -6.1760  -6.1732  -6.1413  -6.1356  -6.1207  -6.0852
    -6.0769  -6.0498  -6.0405  -5.9902  -5.9836  -5.9576  -5.9533  -5.9446
    -5.9365  -5.9359  -5.9248  -5.9206  -5.9108  -5.8999  -5.8894  -5.8753
    -5.8682  -5.8370  -5.8162  -5.8014  -5.7958  -5.6718  -5.6305  -4.6307
    -4.3749  -3.9045  -3.4209  -3.3641  -2.0900  -1.9381  -1.6822  -1.6188
    -1.5701  -1.5655  -1.3579  -1.1451  -1.0902  -0.9837  -0.9085  -0.8808
    -0.8078  -0.6861  -0.6453  -0.6222  -0.5885  -0.3574  -0.2952  -0.2209
    -0.2191  -0.1674  -0.1349  -0.0897   0.0777   0.2514   0.2532   0.6549
     0.6832   1.3401   1.7480   2.5760   3.3358   3.6841   4.0402   5.0214
     5.0247   5.5970   5.6263   6.0581   6.3852   6.4629   6.5901   6.8060

          k = 0.0634-0.0392 0.0000 ( 29533 PWs)   bands (ev):

   -77.2029 -77.2009 -76.9283 -76.9265 -76.8916 -76.8897 -45.1105 -45.1091
   -45.1033 -45.1031 -45.0983 -45.0705 -44.8818 -44.8540 -44.8424 -44.8330
   -44.8306 -44.8148 -44.8023 -44.7997 -44.7650 -44.7614 -44.7255 -44.7224
    -6.4002  -6.2208  -6.2078  -6.2001  -6.1743  -6.1531  -6.1480  -6.1446
    -6.0840  -6.0792  -6.0397  -6.0110  -6.0082  -5.9994  -5.9774  -5.9706
    -5.9659  -5.9493  -5.9398  -5.9260  -5.9120  -5.8958  -5.8798  -5.8680
    -5.8647  -5.8201  -5.7956  -5.7430  -5.7402  -5.7307  -5.6552  -4.5517
    -4.4876  -3.6574  -3.4671  -3.4475  -1.8713  -1.7742  -1.6905  -1.6323
    -1.5917  -1.4132  -1.3936  -1.1655  -1.0403  -0.9483  -0.9284  -0.7639
    -0.7422  -0.6699  -0.6076  -0.5745  -0.4713  -0.4337  -0.3747  -0.1656
    -0.1231  -0.1013  -0.0964  -0.0661   0.0760   0.2209   0.3698   0.5675
     1.1839   1.2133   2.2138   2.5669   3.0135   3.1196   4.0805   4.6602
     5.0941   5.4447   5.8744   5.9107   5.9314   6.2708   6.5244   6.6605

          k = 0.0792-0.0280 0.0000 ( 29541 PWs)   bands (ev):

[...]
     0.1352   0.2155   0.2621   0.2680   0.3616   0.3823   0.6416   0.6968
     0.8579   1.4923   1.6668   2.5027   2.9924   3.3872   3.4057   3.7618
     4.6612   5.3024   5.6259   5.6511   6.0732   6.1989   6.3803   6.4634

          k = 0.0792 0.0392 0.0000 ( 29557 PWs)   bands (ev):

   -77.2054 -77.1984 -76.9310 -76.9239 -76.8941 -76.8871 -45.1372 -45.1160
   -45.1097 -45.1042 -45.0968 -45.0317 -44.9198 -44.8803 -44.8371 -44.8270
   -44.8160 -44.8063 -44.7962 -44.7768 -44.7674 -44.7589 -44.7284 -44.7195
    -6.2701  -6.1899  -6.1595  -6.1548  -6.1513  -6.1479  -6.1125  -6.1011
    -6.0965  -6.0936  -6.0676  -6.0343  -6.0270  -5.9590  -5.9477  -5.9303
    -5.9182  -5.8844  -5.8804  -5.8635  -5.8614  -5.8516  -5.8305  -5.8047
    -5.8038  -5.7674  -5.7619  -5.7170  -5.5995  -5.5616  -5.5407  -3.9606
    -3.9121  -3.7201  -3.3443  -2.9117  -2.7041  -2.4621  -2.4554  -2.3699
    -1.8612  -1.8225  -1.7651  -1.6922  -1.4942  -1.4909  -1.1478  -1.0584
    -0.9721  -0.7072  -0.6244  -0.5856  -0.4954  -0.4463  -0.4143  -0.3836
    -0.0298   0.1982   0.2917   0.3093   0.4263   0.4359   0.7585   0.9066
     0.9999   1.3866   1.5534   2.3789   3.0067   3.2399   3.4123   3.5641
     4.6376   5.6367   5.6404   5.7926   6.1652   6.2464   6.6070   6.9705

          k = 0.0792 0.0560 0.0000 ( 29598 PWs)   bands (ev):

   -77.2055 -77.1983 -76.9311 -76.9237 -76.8943 -76.8870 -45.1391 -45.1164
   -45.1102 -45.1039 -45.0964 -45.0298 -44.9217 -44.8822 -44.8375 -44.8269
   -44.8141 -44.8064 -44.7960 -44.7750 -44.7675 -44.7589 -44.7285 -44.7194
    -6.2441  -6.1941  -6.1456  -6.1413  -6.1379  -6.1283  -6.0888  -6.0878
    -6.0847  -6.0673  -6.0580  -6.0216  -6.0038  -5.9515  -5.9352  -5.9278
    -5.9131  -5.8937  -5.8777  -5.8747  -5.8656  -5.8397  -5.8261  -5.7918
    -5.7887  -5.7538  -5.7473  -5.7045  -5.6013  -5.5296  -5.3760  -4.1772
    -3.7407  -3.4087  -3.2948  -3.1816  -2.7378  -2.6793  -2.5301  -2.3457
    -1.9291  -1.8445  -1.7749  -1.7155  -1.6047  -1.5549  -1.2319  -1.1583
    -1.0263  -0.7614  -0.6735  -0.6158  -0.5935  -0.5702  -0.5482  -0.3588
    -0.1154   0.2273   0.3053   0.3508   0.4418   0.4566   0.8023   1.0032
     1.0384   1.2794   1.6320   2.3414   2.8949   3.1815   3.4196   3.8261
     4.4424   5.2415   5.9585   5.9688   6.4949   6.6925   6.7722   6.8257

          k = 0.0792-0.1288 0.0000 ( 29562 PWs)   bands (ev):

   -77.2053 -77.1984 -76.9310 -76.9239 -76.8941 -76.8871 -45.1373 -45.1164
   -45.1102 -45.1040 -45.0964 -45.0317 -44.9198 -44.8804 -44.8374 -44.8271
   -44.8160 -44.8061 -44.7961 -44.7768 -44.7674 -44.7592 -44.7283 -44.7196
    -6.2087  -6.1813  -6.1360  -6.1267  -6.1195  -6.1171  -6.0885  -6.0839
    -6.0684  -6.0526  -6.0255  -6.0148  -5.9871  -5.9495  -5.9438  -5.9245
    -5.9187  -5.9101  -5.8829  -5.8785  -5.8702  -5.8400  -5.8293  -5.7969
    -5.7841  -5.7559  -5.7406  -5.7074  -5.6056  -5.5413  -5.1074  -4.4447
    -3.7708  -3.4629  -3.3496  -2.9229  -2.8897  -2.6988  -2.6078  -2.2433
    -1.9912  -1.8129  -1.7525  -1.7033  -1.6766  -1.5769  -1.2341  -1.1408
    -1.0545  -0.8743  -0.7319  -0.6524  -0.6423  -0.6144  -0.5518  -0.3436
    -0.1257   0.2227   0.3093   0.3468   0.3919   0.4389   0.8244   0.8974
     0.9841   1.2476   1.7693   2.3910   3.0495   3.0748   3.2292   4.1845
     4.6778   4.9226   6.0907   6.1197   6.2279   6.8204   6.8939   7.1808

          k = 0.0792-0.1120 0.0000 ( 29564 PWs)   bands (ev):

   -77.2050 -77.1988 -76.9306 -76.9242 -76.8938 -76.8875 -45.1319 -45.1158
   -45.1097 -45.1045 -45.0968 -45.0371 -44.9145 -44.8751 -44.8369 -44.8276
   -44.8214 -44.8056 -44.7965 -44.7822 -44.7669 -44.7598 -44.7278 -44.7201
    -6.1619  -6.1527  -6.1259  -6.1148  -6.1072  -6.1060  -6.0976  -6.0817
    -6.0764  -6.0289  -6.0136  -6.0090  -5.9961  -5.9639  -5.9509  -5.9227
    -5.9136  -5.9123  -5.8907  -5.8899  -5.8838  -5.8579  -5.8407  -5.8191
    -5.7837  -5.7726  -5.7534  -5.7251  -5.6070  -5.5762  -4.8710  -4.5954
    -4.2469  -3.4985  -3.1693  -3.1253  -2.7652  -2.6157  -2.4996  -2.1365
    -2.0063  -1.7381  -1.7206  -1.6718  -1.6420  -1.5470  -1.1249  -1.0725
    -1.0590  -0.8692  -0.7753  -0.6597  -0.6253  -0.5942  -0.5180  -0.3404
    -0.1002   0.1848   0.2661   0.3053   0.3263   0.3850   0.6630   0.8263
     0.8438   1.2635   1.9391   2.4234   2.9764   3.0176   3.4887   4.5245
     4.8099   5.0736   5.4947   6.3482   6.4634   6.7905   7.2035   7.2733

          k = 0.0792-0.0952 0.0000 ( 29563 PWs)   bands (ev):

   -77.2044 -77.1994 -76.9300 -76.9248 -76.8932 -76.8880 -45.1232 -45.1149
   -45.1088 -45.1053 -45.0977 -45.0458 -44.9060 -44.8666 -44.8360 -44.8300
   -44.8284 -44.8047 -44.7973 -44.7907 -44.7661 -44.7605 -44.7270 -44.7208
    -6.1248  -6.1188  -6.1165  -6.1155  -6.1103  -6.1006  -6.0975  -6.0863
    -6.0728  -6.0345  -6.0261  -6.0121  -6.0052  -5.9733  -5.9528  -5.9270
    -5.9124  -5.9043  -5.9030  -5.9003  -5.8895  -5.8856  -5.8569  -5.8548
    -5.7980  -5.7893  -5.7810  -5.7542  -5.6319  -5.6098  -4.9395  -4.6898
    -4.3638  -3.7041  -3.3523  -2.9288  -2.7966  -2.4953  -2.1695  -2.0484
    -1.9531  -1.6980  -1.6674  -1.5563  -1.5073  -1.4577  -1.0331  -0.9998
    -0.9453  -0.8630  -0.7861  -0.6294  -0.6152  -0.5245  -0.3833  -0.3478
     0.0022   0.1146   0.1213   0.2695   0.2957   0.3102   0.3800   0.6240
     0.8019   1.3386   2.0849   2.2060   3.1250   3.1396   4.0004   4.4800
     4.9747   5.2499   5.4556   6.1078   6.4355   6.9047   7.0593   7.1139

          k = 0.0792-0.0784 0.0000 ( 29546 PWs)   bands (ev):

   -77.2036 -77.2001 -76.9293 -76.9256 -76.8925 -76.8888 -45.1136 -45.1119
   -45.1075 -45.1064 -45.0990 -45.0571 -44.8949 -44.8555 -44.8411 -44.8348
   -44.8293 -44.8037 -44.8018 -44.7984 -44.7651 -44.7614 -44.7261 -44.7218
    -6.1457  -6.1402  -6.1367  -6.1175  -6.1131  -6.1008  -6.0936  -6.0639
    -6.0618  -6.0482  -6.0275  -6.0180  -6.0037  -5.9837  -5.9520  -5.9367
    -5.9165  -5.9108  -5.9063  -5.9031  -5.8948  -5.8914  -5.8903  -5.8691
    -5.8211  -5.8168  -5.7937  -5.7873  -5.7041  -5.6212  -5.0645  -5.0242
    -4.0618  -3.9093  -3.5021  -3.0920  -2.4633  -2.3376  -1.9450  -1.8991
    -1.8429  -1.6797  -1.5632  -1.4296  -1.3256  -1.2971  -0.9908  -0.9729
    -0.9212  -0.7690  -0.7059  -0.6635  -0.6094  -0.4100  -0.3583  -0.2167
    -0.0340  -0.0147   0.1306   0.2016   0.2245   0.2784   0.2933   0.3433
     0.7443   1.5248   1.9130   2.1568   3.4141   3.6300   4.2201   4.4277
     4.9438   5.0271   5.8364   5.9093   6.3768   6.4461   6.7396   6.9911

          k = 0.0792-0.0616 0.0000 ( 29555 PWs)   bands (ev):

   -77.2028 -77.2010 -76.9284 -76.9264 -76.8916 -76.8897 -45.1120 -45.1078
   -45.1059 -45.1006 -45.0987 -45.0702 -44.8819 -44.8541 -44.8426 -44.8333
   -44.8305 -44.8148 -44.8025 -44.7997 -44.7639 -44.7624 -44.7250 -44.7230
    -6.1938  -6.1679  -6.1637  -6.1449  -6.1369  -6.1240  -6.1013  -6.0749
    -6.0618  -6.0526  -6.0460  -6.0005  -5.9722  -5.9613  -5.9536  -5.9460
    -5.9298  -5.9201  -5.9179  -5.9058  -5.9040  -5.9010  -5.8965  -5.8535
    -5.8422  -5.8208  -5.8131  -5.8019  -5.7817  -5.6440  -5.3451  -5.0372
    -4.0762  -3.8037  -3.6009  -3.2309  -2.1727  -2.1631  -1.8357  -1.7355
    -1.6955  -1.6275  -1.4577  -1.2811  -1.1771  -1.1434  -0.9961  -0.9628
    -0.8940  -0.7096  -0.7062  -0.6349  -0.6067  -0.3657  -0.2594  -0.2083
    -0.1694  -0.1209   0.0075   0.0442   0.1294   0.2374   0.2565   0.6502
     0.7202   1.6821   1.8855   2.1731   3.8594   3.9109   4.0385   4.3516
     4.4418   5.2860   5.8337   5.9340   6.3410   6.4740   6.6942   6.8093

          k = 0.0792-0.0448 0.0000 ( 29555 PWs)   bands (ev):

   -77.2020 -77.2018 -76.9274 -76.9274 -76.8907 -76.8906 -45.1104 -45.1093
   -45.1041 -45.1023 -45.0846 -45.0843 -44.8680 -44.8679 -44.8319 -44.8317
   -44.8287 -44.8286 -44.8013 -44.8011 -44.7635 -44.7627 -44.7242 -44.7238
    -6.2561  -6.2054  -6.1812  -6.1701  -6.1526  -6.1440  -6.1211  -6.1000
    -6.0833  -6.0665  -6.0315  -5.9946  -5.9910  -5.9668  -5.9485  -5.9395
    -5.9370  -5.9316  -5.9289  -5.9122  -5.9052  -5.9017  -5.8704  -5.8661
    -5.8596  -5.8390  -5.8093  -5.7926  -5.7719  -5.6759  -5.5201  -4.9776
    -4.1892  -3.6506  -3.5953  -3.3395  -2.0031  -1.9566  -1.8146  -1.7237
    -1.5762  -1.4787  -1.4245  -1.2247  -1.0955  -1.0578  -0.9836  -0.9401
    -0.8046  -0.7191  -0.6896  -0.6815  -0.5664  -0.4519  -0.2591  -0.1954
    -0.1309  -0.1009  -0.0979  -0.0710   0.0745   0.2158   0.3125   0.5277
     1.3099   1.5256   2.1798   2.4331   3.0980   3.6206   4.3637   4.4663
     4.5227   5.1924   5.7833   6.2425   6.3401   6.4160   6.5064   6.6567

          k =-0.0950 0.0336 0.0000 ( 29626 PWs)   bands (ev):

   -77.2020 -77.2018 -76.9275 -76.9274 -76.8907 -76.8906 -45.1100 -45.1098
   -45.1033 -45.1031 -45.0845 -45.0844 -44.8680 -44.8679 -44.8317 -44.8317
   -44.8287 -44.8286 -44.8014 -44.8013 -44.7630 -44.7630 -44.7241 -44.7240
    -6.2343  -6.2342  -6.1689  -6.1688  -6.1584  -6.1584  -6.1159  -6.1159
    -6.0786  -6.0786  -6.0112  -6.0112  -5.9820  -5.9820  -5.9396  -5.9395
    -5.9379  -5.9379  -5.9141  -5.9140  -5.9105  -5.9104  -5.8591  -5.8591
    -5.8454  -5.8454  -5.8001  -5.8001  -5.7284  -5.7284  -5.2811  -5.2810
    -3.9293  -3.9290  -3.3965  -3.3963  -1.9843  -1.9841  -1.8160  -1.8158
    -1.5096  -1.5094  -1.3536  -1.3535  -1.0731  -1.0728  -1.0252  -1.0251
    -0.7737  -0.7736  -0.6939  -0.6937  -0.5237  -0.5235  -0.2028  -0.2026
    -0.0823  -0.0822  -0.0611  -0.0611   0.1396   0.1396   0.3845   0.3848
     1.7735   1.7738   2.1971   2.1971   3.3512   3.3513   4.0626   4.0629
     5.0547   5.0548   5.9908   5.9909   6.0970   6.0970   6.5422   6.5424

          k =-0.0950 0.0504 0.0000 ( 29563 PWs)   bands (ev):

   -77.2028 -77.2009 -76.9284 -76.9265 -76.8916 -76.8897 -45.1116 -45.1082
   -45.1051 -45.1014 -45.0986 -45.0703 -44.8819 -44.8541 -44.8425 -44.8331
   -44.8304 -44.8148 -44.8027 -44.8000 -44.7641 -44.7619 -44.7252 -44.7228
    -6.2284  -6.2163  -6.1656  -6.1639  -6.1507  -6.1502  -6.1282  -6.0952
    -6.0824  -6.0732  -6.0318  -6.0012  -5.9926  -5.9753  -5.9630  -5.9482
    -5.9393  -5.9328  -5.9321  -5.9161  -5.9023  -5.8958  -5.8807  -5.8456
    -5.8318  -5.8160  -5.7983  -5.7715  -5.7650  -5.6845  -5.3716  -5.1224
    -3.9359  -3.8744  -3.5219  -3.2714  -2.1122  -1.9583  -1.9318  -1.7629
    -1.6317  -1.5111  -1.5008  -1.3061  -1.1430  -1.0893  -1.0588  -0.9519
    -0.9127  -0.7547  -0.6828  -0.6212  -0.5583  -0.4037  -0.2573  -0.1305
    -0.1000  -0.0835   0.0038   0.0360   0.1240   0.2101   0.2960   0.5010
     1.3409   1.8481   1.8952   2.6119   3.0122   3.9259   4.1048   4.3162
     4.5114   4.6128   5.9644   6.0189   6.1187   6.3967   6.4799   6.8237

          k =-0.0950 0.0672 0.0000 ( 29571 PWs)   bands (ev):

   -77.2037 -77.2001 -76.9293 -76.9256 -76.8925 -76.8888 -45.1132 -45.1118
   -45.1068 -45.1067 -45.0996 -45.0571 -44.8948 -44.8554 -44.8411 -44.8345
   -44.8292 -44.8039 -44.8018 -44.7986 -44.7652 -44.7610 -44.7262 -44.7217
    -6.1982  -6.1865  -6.1536  -6.1506  -6.1354  -6.1334  -6.1228  -6.1149
    -6.0677  -6.0474  -6.0431  -6.0413  -6.0134  -6.0057  -5.9553  -5.9462
    -5.9384  -5.9253  -5.9178  -5.8988  -5.8986  -5.8829  -5.8756  -5.8241
    -5.8199  -5.8064  -5.8046  -5.7830  -5.6930  -5.6467  -5.4039  -4.8876
    -3.8942  -3.7731  -3.6735  -3.1330  -2.2766  -2.1210  -2.0543  -1.8395
    -1.7739  -1.6479  -1.5753  -1.4314  -1.2750  -1.1565  -1.0242  -0.9735
    -0.9394  -0.7590  -0.6584  -0.6024  -0.5834  -0.3931  -0.2264  -0.1449
    -0.0687   0.0040   0.1208   0.1998   0.2329   0.2630   0.3470   0.6196
     0.7475   1.8108   2.0116   2.0544   3.7357   3.8668   3.9515   4.0411
     4.3567   4.7970   5.6898   5.9279   6.0763   6.4220   6.6257   6.7932

          k =-0.0950 0.0840 0.0000 ( 29573 PWs)   bands (ev):

   -77.2044 -77.1993 -76.9300 -76.9248 -76.8932 -76.8880 -45.1231 -45.1146
   -45.1083 -45.1055 -45.0982 -45.0458 -44.9059 -44.8665 -44.8358 -44.8299
   -44.8282 -44.8049 -44.7975 -44.7907 -44.7661 -44.7602 -44.7272 -44.7208
    -6.1702  -6.1565  -6.1472  -6.1384  -6.1349  -6.1203  -6.1035  -6.1006
    -6.0967  -6.0595  -6.0519  -6.0489  -6.0172  -5.9799  -5.9574  -5.9361
    -5.9167  -5.9074  -5.8962  -5.8867  -5.8781  -5.8743  -5.8735  -5.8427
    -5.8028  -5.7923  -5.7910  -5.7569  -5.6269  -5.6205  -5.3784  -4.5765
    -3.8804  -3.8016  -3.6337  -2.9802  -2.4375  -2.3662  -2.1784  -2.1111
    -1.8636  -1.7030  -1.6781  -1.5550  -1.4081  -1.3489  -1.0088  -0.9678
    -0.9296  -0.8350  -0.7277  -0.6213  -0.5294  -0.3874  -0.3828  -0.2387
     0.0947   0.1135   0.2754   0.2778   0.2934   0.3051   0.3588   0.6266
     0.7193   1.5869   1.8071   2.2792   3.1762   3.5710   3.8864   3.9908
     4.9077   5.0911   5.6305   5.9101   6.0240   6.3797   6.4984   6.8266

          k =-0.0950 0.1008 0.0000 ( 29581 PWs)   bands (ev):

   -77.2050 -77.1988 -76.9306 -76.9242 -76.8938 -76.8875 -45.1318 -45.1157
   -45.1095 -45.1046 -45.0971 -45.0371 -44.9145 -44.8750 -44.8367 -44.8275
   -44.8214 -44.8057 -44.7966 -44.7822 -44.7669 -44.7596 -44.7279 -44.7200
    -6.1913  -6.1511  -6.1361  -6.1322  -6.1285  -6.1215  -6.1023  -6.0879
    -6.0681  -6.0678  -6.0564  -6.0217  -6.0144  -5.9548  -5.9366  -5.9279
    -5.9158  -5.9040  -5.8875  -5.8817  -5.8745  -5.8665  -5.8416  -5.8273
    -5.7925  -5.7733  -5.7636  -5.7287  -5.6081  -5.5747  -5.2814  -4.1980
    -4.1484  -3.6574  -3.4786  -2.8324  -2.6415  -2.5717  -2.4369  -2.2432
    -1.9481  -1.7667  -1.7315  -1.6450  -1.5287  -1.5135  -1.1057  -1.0371
    -1.0178  -0.8153  -0.7234  -0.6764  -0.5460  -0.5343  -0.4031  -0.3620
    -0.0119   0.1756   0.2470   0.2978   0.3508   0.3784   0.6553   0.7875
     0.8508   1.3530   1.7907   2.4416   2.9803   3.2392   3.4700   3.9907
     5.1123   5.4027   5.5501   5.7594   6.0717   6.6201   6.9365   7.1729

          k =-0.0950 0.1176 0.0000 ( 29562 PWs)   bands (ev):

   -77.2053 -77.1984 -76.9310 -76.9239 -76.8941 -76.8871 -45.1373 -45.1164
   -45.1102 -45.1040 -45.0964 -45.0317 -44.9198 -44.8804 -44.8374 -44.8271
   -44.8160 -44.8061 -44.7961 -44.7768 -44.7674 -44.7592 -44.7283 -44.7196
    -6.2087  -6.1813  -6.1360  -6.1267  -6.1195  -6.1171  -6.0885  -6.0839
    -6.0684  -6.0526  -6.0255  -6.0148  -5.9871  -5.9495  -5.9438  -5.9245
    -5.9187  -5.9101  -5.8829  -5.8785  -5.8702  -5.8400  -5.8293  -5.7969
    -5.7841  -5.7559  -5.7406  -5.7074  -5.6056  -5.5413  -5.1074  -4.4447
    -3.7708  -3.4629  -3.3496  -2.9229  -2.8897  -2.6988  -2.6078  -2.2433
    -1.9912  -1.8129  -1.7525  -1.7033  -1.6766  -1.5769  -1.2341  -1.1408
    -1.0545  -0.8743  -0.7319  -0.6524  -0.6423  -0.6144  -0.5518  -0.3436
    -0.1257   0.2227   0.3093   0.3468   0.3919   0.4389   0.8244   0.8974
     0.9841   1.2476   1.7693   2.3910   3.0495   3.0748   3.2292   4.1845
     4.6778   4.9226   6.0907   6.1197   6.2279   6.8204   6.8939   7.1808

          k =-0.0950-0.0672 0.0000 ( 29502 PWs)   bands (ev):

   -77.2054 -77.1983 -76.9311 -76.9237 -76.8942 -76.8870 -45.1391 -45.1166
   -45.1104 -45.1038 -45.0961 -45.0298 -44.9217 -44.8822 -44.8376 -44.8270
   -44.8141 -44.8063 -44.7959 -44.7750 -44.7675 -44.7591 -44.7284 -44.7194
    -6.2143  -6.1920  -6.1365  -6.1312  -6.1157  -6.1135  -6.0861  -6.0815
    -6.0661  -6.0393  -6.0138  -6.0123  -5.9728  -5.9577  -5.9465  -5.9271
    -5.9165  -5.9164  -5.8890  -5.8690  -5.8633  -5.8349  -5.8198  -5.7879
    -5.7807  -5.7483  -5.7314  -5.6996  -5.6062  -5.5298  -4.9577  -4.6378
    -3.3777  -3.2843  -3.2806  -3.2689  -3.1356  -2.7113  -2.5909  -2.2304
    -2.0012  -1.8060  -1.7650  -1.7594  -1.7175  -1.5973  -1.3079  -1.1480
    -1.0650  -0.9571  -0.7085  -0.6838  -0.6536  -0.6474  -0.5998  -0.3367
    -0.1495   0.2385   0.3136   0.3852   0.4062   0.4615   0.8368   0.9944
     1.0277   1.2188   1.7585   2.3561   2.9363   2.9891   3.4068   4.3931
     4.4652   4.6158   6.1157   6.3570   6.6170   6.6875   6.8738   7.0831

     the Fermi energy is     0.6613 ev

!    total energy              =   -2262.80001594 Ry
     estimated scf accuracy    <       0.00000167 Ry
     smearing contrib. (-TS)   =      -0.05311523 Ry
     internal energy E=F+TS    =   -2262.74690070 Ry

     The total energy is F=E-TS. E is the sum of the following terms:
     one-electron contribution =  -18054.17592391 Ry
     hartree contribution      =    9103.32028288 Ry
     xc contribution           =    -475.90692410 Ry
     ewald contribution        =    7164.01566437 Ry
     electric field correction =       0.00000005 Ry

     convergence has been achieved in  14 iterations

     negative rho (up, down):  1.171E-03 0.000E+00

     Forces acting on atoms (cartesian axes, Ry/au):

     atom    1 type  1   force =    -0.00000028    0.00000348   -0.01078248
     atom    2 type  1   force =    -0.00000016   -0.00000507   -0.01079587
     atom    3 type  2   force =    -0.00000273   -0.00000258    0.01727058
     atom    4 type  2   force =     0.00000212    0.00000106    0.01727039
     atom    5 type  1   force =    -0.00008016   -0.00001962   -0.01159098
     atom    6 type  1   force =     0.00007996    0.00001943   -0.01159211
     atom    7 type  2   force =    -0.00000347    0.00000058    0.00583820
     atom    8 type  2   force =     0.00000364   -0.00000134    0.00588826
     atom    9 type  1   force =     0.00004434   -0.00006399    0.00037741
     atom   10 type  1   force =    -0.00004525    0.00006749    0.00037709
     atom   11 type  2   force =    -0.00006499   -0.00004668   -0.00112962
     atom   12 type  2   force =     0.00006696    0.00004724   -0.00113088

     Total force =     0.034201     Total SCF correction =     0.002824

     Writing output data file ./Zn2Rh2/Zn2Rh2_beef.save/

     init_run     :     86.03s CPU    119.87s WALL (       1 calls)
     electrons    :   3163.45s CPU   4686.60s WALL (       1 calls)
     forces       :     69.74s CPU     78.41s WALL (       1 calls)

     Called by init_run:
     wfcinit      :     75.33s CPU    107.11s WALL (       1 calls)
     potinit      :      7.26s CPU      8.84s WALL (       1 calls)
     hinit0       :      1.77s CPU      1.90s WALL (       1 calls)

     Called by electrons:
     c_bands      :   2811.66s CPU   4136.62s WALL (      14 calls)
     sum_band     :    324.87s CPU    507.98s WALL (      14 calls)
     v_of_rho     :     19.88s CPU     31.77s WALL (      15 calls)
     newd         :     13.29s CPU     17.03s WALL (      15 calls)
     mix_rho      :      0.52s CPU      1.17s WALL (      14 calls)
     vdW_kernel   :      5.87s CPU      6.19s WALL (       1 calls)

     Called by c_bands:
     init_us_2    :      8.60s CPU      8.73s WALL (    2220 calls)
     cegterg      :   2790.31s CPU   4097.61s WALL (    1036 calls)

     Called by *egterg:
     cdiaghg      :    190.62s CPU    327.85s WALL (    5116 calls)
     h_psi        :   1399.10s CPU   2277.74s WALL (    5190 calls)
     s_psi        :    393.49s CPU    393.79s WALL (    5190 calls)
     g_psi        :      1.16s CPU      1.22s WALL (    4080 calls)

     Called by h_psi:
     h_psi:calbec :    485.52s CPU    604.04s WALL (    5190 calls)
     vloc_psi     :    500.81s CPU   1260.11s WALL (    5190 calls)
     add_vuspsi   :    408.53s CPU    409.10s WALL (    5190 calls)

     General routines
     calbec       :    743.40s CPU    913.19s WALL (    6522 calls)
     fft          :      9.42s CPU     23.41s WALL (    1004 calls)
     ffts         :      0.05s CPU      0.21s WALL (      29 calls)
     fftw         :    556.90s CPU   1439.93s WALL (  614252 calls)
     interpolate  :      0.16s CPU      0.39s WALL (      15 calls)

     Parallel routines
     fft_scatt_xy :     35.87s CPU     48.11s WALL (  615285 calls)
     fft_scatt_yz :    281.33s CPU   1105.38s WALL (  615285 calls)

     PWSCF        :  55m40.32s CPU      1h25m WALL


   This run was terminated on:   4:58:54  10Jul2022            

=------------------------------------------------------------------------------=
   JOB DONE.
=------------------------------------------------------------------------------=
