
     Program PWSCF v.6.6 starts on 10Jul2022 at  4:58:59 

     This program is part of the open-source Quantum ESPRESSO suite
     for quantum simulation of materials; please cite
         "P. Giannozzi et al., J. Phys.:Condens. Matter 21 395502 (2009);
         "P. Giannozzi et al., J. Phys.:Condens. Matter 29 465901 (2017);
          URL http://www.quantum-espresso.org", 
     in publications or presentations arising from this work. More details at
     http://www.quantum-espresso.org/quote

     Parallel version (MPI), running on    37 processors

     MPI processes distributed on     4 nodes
     R & G space division:  proc/nbgrp/npool/nimage =      37
     Fft bands division:     nmany     =       1
     Reading input from Zn2Ta2.in
Warning: card &CELL ignored
Warning: card / ignored

     Current dimensions of program PWSCF are:
     Max number of different atomic species (ntypx) = 10
     Max number of k-points (npk) =  40000
     Max angular momentum in pseudopotentials (lmaxx) =  3
     Presently stress not available with electric field and gates

     Message from routine cell_base_init:
     DEPRECATED: use true lattice parameter, not A to a.u. conversion factor
     file Zn.pbe-dnl-rrkjus_psl.1.0.0.UPF: wavefunction(s)  3D renormalized
     file Ta.pbe-spfn-rrkjus_psl.1.0.0.UPF: wavefunction(s)  5S 5P renormalized

     **************************************************************************
     Initializing libbeef V0.1.2 with the BEEF-vdW functional.
     Citation: Wellendorff et al., PRB 85, 235149 (2012).
     **************************************************************************


     IMPORTANT: XC functional enforced from input :
     Exchange-correlation= BEEF-VDW
                           (   1   4  43  14   2   0   0)
     Any further DFT definition will be discarded
     Please, verify this is what you really want


     Subspace diagonalization in iterative solution of the eigenvalue problem:
     a serial algorithm will be used

     Found symmetry operation: I + ( -0.5000 -0.5000  0.0000)
     This is a supercell, fractional translations are disabled

     Parallelization info
     --------------------
     sticks:   dense  smooth     PW     G-vecs:    dense   smooth      PW
     Min         118      47     13                27392     6929    1059
     Max         119      48     14                27402     6934    1082
     Sum        4377    1751    503              1013715   256459   39587



     bravais-lattice index     =            0
     lattice parameter (alat)  =       1.8897  a.u.
     unit-cell volume          =    4638.5203 (a.u.)^3
     number of atoms/cell      =           12
     number of atomic types    =            2
     number of electrons       =       234.00
     number of Kohn-Sham states=          140
     kinetic-energy cutoff     =      55.1240  Ry
     charge density cutoff     =     551.2396  Ry
     convergence threshold     =      1.0E-05
     mixing beta               =       0.1000
     number of iterations used =           10  plain     mixing
     Exchange-correlation= BEEF-VDW
                           (   1   4  43  14   2   0   0)

     celldm(1)=   1.889726  celldm(2)=   0.000000  celldm(3)=   0.000000
     celldm(4)=   0.000000  celldm(5)=   0.000000  celldm(6)=   0.000000

     crystal axes: (cart. coord. in units of alat)
               a(1) = (   5.669136   0.000000   0.000000 )  
               a(2) = (   2.813383   4.921786   0.000000 )  
               a(3) = (   0.000000   0.000000  24.634477 )  

     reciprocal axes: (cart. coord. in units 2 pi/alat)
               b(1) = (  0.176394 -0.100830  0.000000 )  
               b(2) = (  0.000000  0.203178  0.000000 )  
               b(3) = (  0.000000  0.000000  0.040594 )  


     PseudoPot. # 1 for Zn read from file:
     ../pseudo/Zn.pbe-dnl-rrkjus_psl.1.0.0.UPF
     MD5 check sum: 7f56cabf9682ed8c977c2f7d0c5985c5
     Pseudo is Ultrasoft + core correction, Zval = 12.0
     Generated using "atomic" code by A. Dal Corso v.6.2.2
     Using radial grid of 1201 points,  6 beta functions with: 
                l(1) =   0
                l(2) =   0
                l(3) =   1
                l(4) =   1
                l(5) =   2
                l(6) =   2
     Q(r) pseudized with 0 coefficients 


     PseudoPot. # 2 for Ta read from file:
     ../pseudo/Ta.pbe-spfn-rrkjus_psl.1.0.0.UPF
     MD5 check sum: 39d7d349fe394e56adf8454eb9315fbb
     Pseudo is Ultrasoft + core correction, Zval = 27.0
     Generated using "atomic" code by A. Dal Corso v.6.3
     Using radial grid of 1273 points,  8 beta functions with: 
                l(1) =   0
                l(2) =   0
                l(3) =   1
                l(4) =   1
                l(5) =   2
                l(6) =   2
                l(7) =   3
                l(8) =   3
     Q(r) pseudized with 0 coefficients 


     atomic species   valence    mass     pseudopotential
        Zn            12.00    65.38000     Zn( 1.00)
        Ta            27.00   180.94788     Ta( 1.00)

     No symmetry found



   Cartesian axes

     site n.     atom                  positions (alat units)
         1           Zn  tau(   1) = (   0.0000000   0.0000000  10.0000000  )
         2           Zn  tau(   2) = (   4.2412595   2.4608930  10.0000000  )
         3           Ta  tau(   3) = (   2.8345679   0.0000000  10.0000000  )
         4           Ta  tau(   4) = (   1.4066916   2.4608930  10.0000000  )
         5           Zn  tau(   5) = (   5.6691359   3.2893853  12.3172386  )
         6           Zn  tau(   6) = (   1.4278764   0.8284923  12.3172386  )
         7           Ta  tau(   7) = (   2.8345679   3.2893853  12.3172386  )
         8           Ta  tau(   8) = (   4.2624443   0.8284923  12.3172386  )
         9           Zn  tau(   9) = (   2.8282018   1.6409787  14.7548942  )
        10           Zn  tau(  10) = (   7.0694393   4.1019018  14.7548909  )
        11           Ta  tau(  11) = (   5.6669624   1.6434316  14.5601341  )
        12           Ta  tau(  12) = (   4.2390687   4.1043135  14.5601292  )

     number of k points=    74  Fermi-Dirac smearing, width (Ry)=  0.0100
                       cart. coord. in units 2pi/alat
        k(    1) = (   0.0000000   0.0000000   0.0000000), wk =   0.0138889
        k(    2) = (   0.0000000   0.0169315   0.0000000), wk =   0.0277778
        k(    3) = (   0.0000000   0.0338630   0.0000000), wk =   0.0277778
        k(    4) = (   0.0000000   0.0507946   0.0000000), wk =   0.0277778
        k(    5) = (   0.0000000   0.0677261   0.0000000), wk =   0.0277778
        k(    6) = (   0.0000000   0.0846576   0.0000000), wk =   0.0277778
        k(    7) = (   0.0000000  -0.1015891   0.0000000), wk =   0.0138889
        k(    8) = (   0.0146995  -0.0084025   0.0000000), wk =   0.0277778
        k(    9) = (   0.0146995   0.0085290   0.0000000), wk =   0.0277778
        k(   10) = (   0.0146995   0.0254606   0.0000000), wk =   0.0277778
        k(   11) = (   0.0146995   0.0423921   0.0000000), wk =   0.0277778
        k(   12) = (   0.0146995   0.0593236   0.0000000), wk =   0.0277778
        k(   13) = (   0.0146995   0.0762551   0.0000000), wk =   0.0277778
        k(   14) = (   0.0146995  -0.1099916   0.0000000), wk =   0.0277778
        k(   15) = (   0.0146995  -0.0930601   0.0000000), wk =   0.0277778
        k(   16) = (   0.0146995  -0.0761286   0.0000000), wk =   0.0277778
        k(   17) = (   0.0146995  -0.0591971   0.0000000), wk =   0.0277778
        k(   18) = (   0.0146995  -0.0422655   0.0000000), wk =   0.0277778
        k(   19) = (   0.0146995  -0.0253340   0.0000000), wk =   0.0277778
        k(   20) = (   0.0293990  -0.0168050   0.0000000), wk =   0.0277778
        k(   21) = (   0.0293990   0.0001265   0.0000000), wk =   0.0277778
        k(   22) = (   0.0293990   0.0170581   0.0000000), wk =   0.0277778
        k(   23) = (   0.0293990   0.0339896   0.0000000), wk =   0.0277778
        k(   24) = (   0.0293990   0.0509211   0.0000000), wk =   0.0277778
        k(   25) = (   0.0293990   0.0678526   0.0000000), wk =   0.0277778
        k(   26) = (   0.0293990  -0.1183941   0.0000000), wk =   0.0277778
        k(   27) = (   0.0293990  -0.1014626   0.0000000), wk =   0.0277778
        k(   28) = (   0.0293990  -0.0845311   0.0000000), wk =   0.0277778
        k(   29) = (   0.0293990  -0.0675995   0.0000000), wk =   0.0277778
        k(   30) = (   0.0293990  -0.0506680   0.0000000), wk =   0.0277778
        k(   31) = (   0.0293990  -0.0337365   0.0000000), wk =   0.0277778
        k(   32) = (   0.0440984  -0.0252075   0.0000000), wk =   0.0277778
        k(   33) = (   0.0440984  -0.0082759   0.0000000), wk =   0.0277778
        k(   34) = (   0.0440984   0.0086556   0.0000000), wk =   0.0277778
        k(   35) = (   0.0440984   0.0255871   0.0000000), wk =   0.0277778
        k(   36) = (   0.0440984   0.0425186   0.0000000), wk =   0.0277778
        k(   37) = (   0.0440984   0.0594501   0.0000000), wk =   0.0277778
        k(   38) = (   0.0440984  -0.1267966   0.0000000), wk =   0.0277778
        k(   39) = (   0.0440984  -0.1098651   0.0000000), wk =   0.0277778
        k(   40) = (   0.0440984  -0.0929336   0.0000000), wk =   0.0277778
        k(   41) = (   0.0440984  -0.0760020   0.0000000), wk =   0.0277778
        k(   42) = (   0.0440984  -0.0590705   0.0000000), wk =   0.0277778
        k(   43) = (   0.0440984  -0.0421390   0.0000000), wk =   0.0277778
        k(   44) = (   0.0587979  -0.0336100   0.0000000), wk =   0.0277778
        k(   45) = (   0.0587979  -0.0166784   0.0000000), wk =   0.0277778
        k(   46) = (   0.0587979   0.0002531   0.0000000), wk =   0.0277778
        k(   47) = (   0.0587979   0.0171846   0.0000000), wk =   0.0277778
        k(   48) = (   0.0587979   0.0341161   0.0000000), wk =   0.0277778
        k(   49) = (   0.0587979   0.0510477   0.0000000), wk =   0.0277778
        k(   50) = (   0.0587979  -0.1351991   0.0000000), wk =   0.0277778
        k(   51) = (   0.0587979  -0.1182676   0.0000000), wk =   0.0277778
        k(   52) = (   0.0587979  -0.1013361   0.0000000), wk =   0.0277778
        k(   53) = (   0.0587979  -0.0844045   0.0000000), wk =   0.0277778
        k(   54) = (   0.0587979  -0.0674730   0.0000000), wk =   0.0277778
        k(   55) = (   0.0587979  -0.0505415   0.0000000), wk =   0.0277778
        k(   56) = (   0.0734974  -0.0420125   0.0000000), wk =   0.0277778
        k(   57) = (   0.0734974  -0.0250809   0.0000000), wk =   0.0277778
        k(   58) = (   0.0734974  -0.0081494   0.0000000), wk =   0.0277778
        k(   59) = (   0.0734974   0.0087821   0.0000000), wk =   0.0277778
        k(   60) = (   0.0734974   0.0257136   0.0000000), wk =   0.0277778
        k(   61) = (   0.0734974   0.0426452   0.0000000), wk =   0.0277778
        k(   62) = (   0.0734974  -0.1436016   0.0000000), wk =   0.0277778
        k(   63) = (   0.0734974  -0.1266701   0.0000000), wk =   0.0277778
        k(   64) = (   0.0734974  -0.1097385   0.0000000), wk =   0.0277778
        k(   65) = (   0.0734974  -0.0928070   0.0000000), wk =   0.0277778
        k(   66) = (   0.0734974  -0.0758755   0.0000000), wk =   0.0277778
        k(   67) = (   0.0734974  -0.0589440   0.0000000), wk =   0.0277778
        k(   68) = (  -0.0881969   0.0504149   0.0000000), wk =   0.0138889
        k(   69) = (  -0.0881969   0.0673465   0.0000000), wk =   0.0277778
        k(   70) = (  -0.0881969   0.0842780   0.0000000), wk =   0.0277778
        k(   71) = (  -0.0881969   0.1012095   0.0000000), wk =   0.0277778
        k(   72) = (  -0.0881969   0.1181410   0.0000000), wk =   0.0277778
        k(   73) = (  -0.0881969   0.1350726   0.0000000), wk =   0.0277778
        k(   74) = (  -0.0881969  -0.0511742   0.0000000), wk =   0.0138889

     Dense  grid:  1013715 G-vectors     FFT dimensions: (  81,  81, 360)

     Smooth grid:   256459 G-vectors     FFT dimensions: (  54,  54, 225)

     Estimated max dynamical RAM per process >     408.96 MB

     Estimated total dynamical RAM >      14.78 GB

     Initial potential from superposition of free atoms

     starting charge  233.97259, renormalised to  234.00000

     negative rho (up, down):  1.756E-04 0.000E+00


     %%%%%%%%%%%%%%%%%%%%%%%%%%%%%%%%%%%%%%%%%%%%%%%%%%%%%%%%%%%%%%%%%%%%%%%%
     %                                                                      %
     % You are using vdW-DF, which was implemented by the Thonhauser group. %
     % Please cite the following two papers that made this development      %
     % possible and the two reviews that describe the various versions:     %
     %                                                                      %
     %   T. Thonhauser et al., PRL 115, 136402 (2015).                      %
     %   T. Thonhauser et al., PRB 76, 125112 (2007).                       %
     %   K. Berland et al., Rep. Prog. Phys. 78, 066501 (2015).             %
     %   D.C. Langreth et al., J. Phys.: Condens. Matter 21, 084203 (2009). %
     %                                                                      %
     %                                                                      %
     % If you are calculating the stress with vdW-DF, please also cite:     %
     %                                                                      %
     %   R. Sabatini et al., J. Phys.: Condens. Matter 24, 424209 (2012).   %
     %                                                                      %
     %%%%%%%%%%%%%%%%%%%%%%%%%%%%%%%%%%%%%%%%%%%%%%%%%%%%%%%%%%%%%%%%%%%%%%%%



     Adding external electric field

     Computed dipole along edir(3) : 
        Dipole                0.0017 Ry au,          0.0043 Debye
        Dipole field          0.0000 Ry au, 

        Potential amp.       -0.0004 Ry
        Total length         45.3886 bohr

     Starting wfcs are  156 randomized atomic wfcs

     total cpu time spent up to now is      239.8 secs

     Self-consistent Calculation

     iteration #  1     ecut=    55.12 Ry     beta= 0.10
     Davidson diagonalization with overlap
     ethr =  1.00E-02,  avg # of iterations =  3.1

     Threshold (ethr) on eigenvalues was too large:
     Diagonalizing with lowered threshold

     Davidson diagonalization with overlap
     ethr =  8.85E-04,  avg # of iterations =  2.0

     negative rho (up, down):  1.514E-04 0.000E+00

     Adding external electric field

     Computed dipole along edir(3) : 
        Dipole               -0.2166 Ry au,         -0.5504 Debye
        Dipole field         -0.0006 Ry au, 

        Potential amp.        0.0533 Ry
        Total length         45.3886 bohr


     total cpu time spent up to now is     1425.4 secs

     total energy              =   -4989.52837712 Ry
     estimated scf accuracy    <       2.04391559 Ry

     iteration #  2     ecut=    55.12 Ry     beta= 0.10
     Davidson diagonalization with overlap
     ethr =  8.73E-04,  avg # of iterations =  2.4

     negative rho (up, down):  1.592E-04 0.000E+00

     Adding external electric field

     Computed dipole along edir(3) : 
        Dipole                0.3735 Ry au,          0.9493 Debye
        Dipole field          0.0010 Ry au, 

        Potential amp.       -0.0919 Ry
        Total length         45.3886 bohr


     total cpu time spent up to now is     1992.6 secs

     total energy              =   -4989.50618041 Ry
     estimated scf accuracy    <       2.17388458 Ry

     iteration #  3     ecut=    55.12 Ry     beta= 0.10
     Davidson diagonalization with overlap
     ethr =  8.73E-04,  avg # of iterations =  2.0

     negative rho (up, down):  1.727E-04 0.000E+00

     Adding external electric field

     Computed dipole along edir(3) : 
        Dipole               -0.0388 Ry au,         -0.0985 Debye
        Dipole field         -0.0001 Ry au, 

        Potential amp.        0.0095 Ry
        Total length         45.3886 bohr


     total cpu time spent up to now is     2524.9 secs

     total energy              =   -4989.49485642 Ry
     estimated scf accuracy    <       7.12542842 Ry

     iteration #  4     ecut=    55.12 Ry     beta= 0.10
     Davidson diagonalization with overlap
     ethr =  8.73E-04,  avg # of iterations =  1.1

     negative rho (up, down):  1.805E-04 0.000E+00

     Adding external electric field

     Computed dipole along edir(3) : 
        Dipole               -0.0382 Ry au,         -0.0970 Debye
        Dipole field         -0.0001 Ry au, 

        Potential amp.        0.0094 Ry
        Total length         45.3886 bohr


     total cpu time spent up to now is     3016.9 secs

     total energy              =   -4989.52876449 Ry
     estimated scf accuracy    <       0.25033493 Ry

     iteration #  5     ecut=    55.12 Ry     beta= 0.10
     Davidson diagonalization with overlap
     c_bands:  1 eigenvalues not converged
     c_bands:  1 eigenvalues not converged
     c_bands:  1 eigenvalues not converged
     ethr =  1.07E-04,  avg # of iterations = 12.3

     negative rho (up, down):  1.797E-04 0.000E+00

     Adding external electric field

     Computed dipole along edir(3) : 
        Dipole               -0.0093 Ry au,         -0.0237 Debye
        Dipole field         -0.0000 Ry au, 

        Potential amp.        0.0023 Ry
        Total length         45.3886 bohr


     total cpu time spent up to now is     3792.0 secs

     total energy              =   -4989.55559897 Ry
     estimated scf accuracy    <       0.05078594 Ry

     iteration #  6     ecut=    55.12 Ry     beta= 0.10
     Davidson diagonalization with overlap
     c_bands:  3 eigenvalues not converged
     c_bands:  2 eigenvalues not converged
     c_bands:  1 eigenvalues not converged
     ethr =  2.17E-05,  avg # of iterations =  5.3

     negative rho (up, down):  2.002E-04 0.000E+00

     Adding external electric field

     Computed dipole along edir(3) : 
        Dipole               -0.0264 Ry au,         -0.0671 Debye
        Dipole field         -0.0001 Ry au, 

        Potential amp.        0.0065 Ry
        Total length         45.3886 bohr


     total cpu time spent up to now is     4400.6 secs

     total energy              =   -4989.55675411 Ry
     estimated scf accuracy    <       0.03593619 Ry

     iteration #  7     ecut=    55.12 Ry     beta= 0.10
     Davidson diagonalization with overlap
     ethr =  1.54E-05,  avg # of iterations =  2.2

     negative rho (up, down):  2.179E-04 0.000E+00

     Adding external electric field

     Computed dipole along edir(3) : 
        Dipole               -0.0144 Ry au,         -0.0367 Debye
        Dipole field         -0.0000 Ry au, 

        Potential amp.        0.0035 Ry
        Total length         45.3886 bohr


     total cpu time spent up to now is     4922.0 secs

     total energy              =   -4989.55851994 Ry
     estimated scf accuracy    <       0.00627369 Ry

     iteration #  8     ecut=    55.12 Ry     beta= 0.10
     Davidson diagonalization with overlap
     c_bands:  1 eigenvalues not converged
     c_bands:  1 eigenvalues not converged
     ethr =  2.68E-06,  avg # of iterations = 11.2

     negative rho (up, down):  2.248E-04 0.000E+00

     Adding external electric field

     Computed dipole along edir(3) : 
        Dipole               -0.0223 Ry au,         -0.0567 Debye
        Dipole field         -0.0001 Ry au, 

        Potential amp.        0.0055 Ry
        Total length         45.3886 bohr


     total cpu time spent up to now is     5576.9 secs

     total energy              =   -4989.55936016 Ry
     estimated scf accuracy    <       0.00211014 Ry

     iteration #  9     ecut=    55.12 Ry     beta= 0.10
     Davidson diagonalization with overlap
     ethr =  9.02E-07,  avg # of iterations =  2.1

     negative rho (up, down):  2.337E-04 0.000E+00

     Adding external electric field

     Computed dipole along edir(3) : 
        Dipole               -0.0193 Ry au,         -0.0490 Debye
        Dipole field         -0.0001 Ry au, 

        Potential amp.        0.0047 Ry
        Total length         45.3886 bohr


     total cpu time spent up to now is     6098.6 secs

     total energy              =   -4989.55944073 Ry
     estimated scf accuracy    <       0.00139017 Ry

     iteration # 10     ecut=    55.12 Ry     beta= 0.10
     Davidson diagonalization with overlap
     ethr =  5.94E-07,  avg # of iterations =  2.0

     negative rho (up, down):  2.378E-04 0.000E+00

     Adding external electric field

     Computed dipole along edir(3) : 
        Dipole               -0.0199 Ry au,         -0.0505 Debye
        Dipole field         -0.0001 Ry au, 

        Potential amp.        0.0049 Ry
        Total length         45.3886 bohr


     total cpu time spent up to now is     6627.2 secs

     total energy              =   -4989.55954126 Ry
     estimated scf accuracy    <       0.00026908 Ry

     iteration # 11     ecut=    55.12 Ry     beta= 0.10
     Davidson diagonalization with overlap
     ethr =  1.15E-07,  avg # of iterations =  2.6

     negative rho (up, down):  2.408E-04 0.000E+00

     Adding external electric field

     Computed dipole along edir(3) : 
        Dipole               -0.0179 Ry au,         -0.0455 Debye
        Dipole field         -0.0000 Ry au, 

        Potential amp.        0.0044 Ry
        Total length         45.3886 bohr


     total cpu time spent up to now is     7217.3 secs

     total energy              =   -4989.55957011 Ry
     estimated scf accuracy    <       0.00015095 Ry

     iteration # 12     ecut=    55.12 Ry     beta= 0.10
     Davidson diagonalization with overlap
     ethr =  6.45E-08,  avg # of iterations =  2.1

     negative rho (up, down):  2.434E-04 0.000E+00

     Adding external electric field

     Computed dipole along edir(3) : 
        Dipole               -0.0187 Ry au,         -0.0476 Debye
        Dipole field         -0.0001 Ry au, 

        Potential amp.        0.0046 Ry
        Total length         45.3886 bohr


     total cpu time spent up to now is     7758.3 secs

     total energy              =   -4989.55958921 Ry
     estimated scf accuracy    <       0.00001699 Ry

     iteration # 13     ecut=    55.12 Ry     beta= 0.10
     Davidson diagonalization with overlap
     ethr =  7.26E-09,  avg # of iterations =  4.7

     negative rho (up, down):  3.009E-04 0.000E+00

     Adding external electric field

     Computed dipole along edir(3) : 
        Dipole               -0.0219 Ry au,         -0.0558 Debye
        Dipole field         -0.0001 Ry au, 

        Potential amp.        0.0054 Ry
        Total length         45.3886 bohr


     total cpu time spent up to now is     8409.5 secs

     End of self-consistent calculation

          k = 0.0000 0.0000 0.0000 ( 32103 PWs)   bands (ev):

   -67.0457 -66.9959 -66.9432 -66.8930 -66.7093 -66.6583 -33.5394 -33.5340
   -33.4685 -33.4476 -33.4415 -33.3656 -33.3510 -33.3428 -33.2846 -33.2809
   -33.1972 -33.1584 -33.0624 -32.7622 -32.7548 -32.6831 -32.6826 -32.5541
   -18.7637 -18.7608 -18.7596 -18.7578 -18.7323 -18.7164 -18.7123 -18.7033
   -18.7004 -18.6701 -18.6693 -18.6657 -18.6495 -18.6463 -18.6452 -18.6432
   -18.6344 -18.6251 -18.6231 -18.6091 -18.6067 -18.5973 -18.5959 -18.5684
   -18.5657 -18.5651 -18.5339 -18.5225 -18.4004 -18.3998 -18.3877 -18.3826
   -18.3823 -18.3794 -18.3777 -18.3721 -18.3549 -18.3383 -18.3378 -18.3285
   -18.3036 -18.2990  -7.0469  -6.0677  -6.0559  -6.0028  -5.9710  -5.8840
    -5.8796  -5.8452  -5.7811  -5.7784  -5.7683  -5.6994  -5.6932  -5.6474
    -5.5369  -5.5304  -5.4994  -5.4925  -5.4624  -5.4365  -5.4155  -5.4036
    -5.3551  -5.3511  -5.2879  -5.2820  -5.2224  -5.2000  -5.1548  -5.1299
    -5.0333  -4.8278  -3.2985  -2.7378  -1.9696  -1.7349  -1.1276  -1.0583
    -0.6519  -0.5311  -0.2592  -0.2310  -0.1445   0.5300   0.6691   0.8982
     1.0342   1.0881   1.5732   1.6197   1.6647   2.0213   2.1328   2.2395
     2.4918   2.6009   2.6977   3.0224   3.3225   3.4385   3.9947   4.0081
     4.0465   4.2883   4.6578   4.6993   4.8382   4.9995   5.0341   5.0404
     5.3170   5.5303   5.6302   5.8718

          k = 0.0000 0.0169 0.0000 ( 32113 PWs)   bands (ev):

   -67.0449 -66.9967 -66.9424 -66.8939 -66.7085 -66.6592 -33.5379 -33.5215
   -33.4559 -33.4492 -33.4400 -33.3642 -33.3526 -33.3301 -33.2832 -33.2824
   -33.1987 -33.1567 -33.0641 -32.7689 -32.7607 -32.6972 -32.6840 -32.5683
   -18.7636 -18.7608 -18.7595 -18.7578 -18.7320 -18.7167 -18.7122 -18.7034
   -18.6999 -18.6707 -18.6687 -18.6652 -18.6495 -18.6463 -18.6451 -18.6432
   -18.6351 -18.6248 -18.6241 -18.6093 -18.6066 -18.5974 -18.5954 -18.5678
   -18.5663 -18.5645 -18.5345 -18.5235 -18.4000 -18.3994 -18.3875 -18.3825
   -18.3824 -18.3795 -18.3780 -18.3723 -18.3547 -18.3387 -18.3373 -18.3282
   -18.3041 -18.2999  -6.9931  -6.0579  -6.0419  -5.9948  -5.9599  -5.8755
    -5.8591  -5.8403  -5.7821  -5.7641  -5.7580  -5.6946  -5.6851  -5.6369
    -5.5359  -5.5324  -5.5078  -5.4880  -5.4574  -5.4329  -5.4135  -5.4004
    -5.3553  -5.3491  -5.2924  -5.2830  -5.2272  -5.2053  -5.1618  -5.1353
    -5.0425  -4.8025  -3.2753  -2.8273  -1.9891  -1.8603  -1.2276  -0.9144
    -0.6019  -0.5667  -0.2964  -0.1262  -0.0408   0.5375   0.6581   0.8860
     1.0084   1.1387   1.4824   1.5367   1.6202   1.9623   2.1514   2.1842
     2.3595   2.5626   2.6714   3.0270   3.3224   3.5179   3.7304   4.0428
     4.0915   4.3694   4.4658   4.7029   4.9912   4.9989   5.0190   5.1998
     5.2671   5.5905   5.7116   5.9792

          k = 0.0000 0.0339 0.0000 ( 32083 PWs)   bands (ev):

   -67.0424 -66.9992 -66.9399 -66.8964 -66.7059 -66.6617 -33.5334 -33.4844
   -33.4539 -33.4355 -33.4184 -33.3601 -33.3572 -33.2931 -33.2863 -33.2790
   -33.2031 -33.1520 -33.0689 -32.8097 -32.7572 -32.7381 -32.6880 -32.6097
   -18.7635 -18.7609 -18.7594 -18.7579 -18.7311 -18.7174 -18.7117 -18.7039
   -18.6985 -18.6723 -18.6668 -18.6637 -18.6492 -18.6465 -18.6450 -18.6433
   -18.6367 -18.6268 -18.6238 -18.6100 -18.6061 -18.5979 -18.5940 -18.5679
   -18.5659 -18.5631 -18.5361 -18.5263 -18.3986 -18.3982 -18.3870 -18.3831
   -18.3819 -18.3799 -18.3790 -18.3729 -18.3542 -18.3399 -18.3358 -18.3271
   -18.3055 -18.3023  -6.8346  -6.0298  -6.0028  -5.9717  -5.9311  -5.8598
    -5.8269  -5.7979  -5.7828  -5.7314  -5.7206  -5.6835  -5.6602  -5.6107
    -5.5514  -5.5273  -5.5191  -5.4756  -5.4429  -5.4256  -5.4069  -5.3917
    -5.3560  -5.3447  -5.3048  -5.2862  -5.2413  -5.2204  -5.1826  -5.1509
    -5.0700  -4.7190  -3.2056  -3.0778  -2.2103  -1.9979  -1.3170  -0.7297
    -0.6376  -0.4403  -0.2207  -0.0598   0.1567   0.5643   0.6131   0.8846
     0.9821   1.1529   1.2093   1.4403   1.5097   1.8545   2.0644   2.1340
     2.2340   2.4144   2.6493   3.0756   3.1723   3.4233   3.6490   4.0900
     4.1583   4.2451   4.4572   4.5743   4.9074   5.0069   5.1388   5.1559
     5.5110   5.7630   5.8825   5.9571

          k = 0.0000 0.0508 0.0000 ( 32078 PWs)   bands (ev):

   -67.0385 -67.0032 -66.9359 -66.9004 -66.7019 -66.6658 -33.5263 -33.4616
   -33.4285 -33.4248 -33.3653 -33.3579 -33.3536 -33.2938 -33.2723 -33.2332
   -33.2096 -33.1444 -33.0767 -32.8743 -32.8037 -32.7504 -32.6943 -32.6751
   -18.7632 -18.7611 -18.7593 -18.7580 -18.7297 -18.7185 -18.7110 -18.7046
   -18.6962 -18.6748 -18.6637 -18.6614 -18.6489 -18.6467 -18.6448 -18.6435
   -18.6393 -18.6311 -18.6224 -18.6112 -18.6054 -18.5987 -18.5918 -18.5704
   -18.5629 -18.5607 -18.5387 -18.5306 -18.3966 -18.3965 -18.3862 -18.3841
   -18.3811 -18.3805 -18.3805 -18.3738 -18.3533 -18.3416 -18.3334 -18.3253
   -18.3077 -18.3062  -6.5821  -5.9880  -5.9460  -5.9353  -5.8939  -5.8364
    -5.8094  -5.7836  -5.7195  -5.6939  -5.6692  -5.6569  -5.6227  -5.5945
    -5.5673  -5.5359  -5.4983  -5.4586  -5.4210  -5.4189  -5.3957  -5.3808
    -5.3563  -5.3453  -5.3188  -5.2921  -5.2633  -5.2418  -5.2165  -5.1745
    -5.1160  -4.5591  -3.4652  -3.0919  -2.5748  -2.0716  -1.3774  -0.7893
    -0.5950  -0.1728  -0.0418   0.0671   0.0784   0.6105   0.6190   0.8466
     0.8640   1.0456   1.2512   1.3644   1.3988   1.7280   1.9452   2.0039
     2.1242   2.4664   2.6230   2.7827   3.2008   3.3481   3.6946   4.0220
     4.1492   4.2156   4.3413   4.4209   4.7589   4.9768   5.0307   5.1654
     5.5924   5.7626   6.0141   6.3097

          k = 0.0000 0.0677 0.0000 ( 32078 PWs)   bands (ev):

   -67.0333 -67.0084 -66.9307 -66.9056 -66.6966 -66.6711 -33.5170 -33.4712
   -33.4192 -33.3741 -33.3468 -33.3450 -33.3028 -33.2798 -33.2636 -33.2201
   -33.1530 -33.1346 -33.0867 -32.9576 -32.8876 -32.7597 -32.7421 -32.7026
   -18.7628 -18.7614 -18.7591 -18.7582 -18.7280 -18.7201 -18.7101 -18.7056
   -18.6932 -18.6781 -18.6595 -18.6582 -18.6485 -18.6469 -18.6446 -18.6437
   -18.6426 -18.6366 -18.6206 -18.6127 -18.6044 -18.5997 -18.5888 -18.5737
   -18.5588 -18.5576 -18.5421 -18.5360 -18.3944 -18.3940 -18.3855 -18.3853
   -18.3827 -18.3812 -18.3801 -18.3749 -18.3520 -18.3438 -18.3301 -18.3230
   -18.3109 -18.3105  -6.2628  -5.9392  -5.8887  -5.8825  -5.8574  -5.8058
    -5.7978  -5.7819  -5.6742  -5.6699  -5.6394  -5.6162  -5.5982  -5.5790
    -5.5312  -5.5146  -5.4722  -5.4409  -5.4154  -5.3992  -5.3829  -5.3693
    -5.3620  -5.3530  -5.3229  -5.3024  -5.2898  -5.2617  -5.2601  -5.1986
    -5.1794  -4.3093  -3.9547  -2.9418  -2.9152  -2.2001  -1.4015  -0.9732
    -0.5386  -0.2269   0.0779   0.1509   0.2974   0.5548   0.6874   0.7606
     0.8593   1.1622   1.2653   1.2970   1.4199   1.6172   1.7754   1.9778
     2.0044   2.4753   2.5184   2.7087   3.2492   3.3455   3.5776   3.8595
     4.0527   4.0812   4.2878   4.4056   4.5665   4.8204   4.9146   5.1286
     5.3672   6.0104   6.1095   6.3338

          k = 0.0000 0.0847 0.0000 ( 32050 PWs)   bands (ev):

   -67.0273 -67.0144 -66.9247 -66.9117 -66.6905 -66.6773 -33.5060 -33.4823
   -33.4084 -33.3851 -33.3349 -33.3131 -33.2548 -33.2532 -33.2308 -33.1870
   -33.1231 -33.0983 -33.0602 -33.0533 -32.9841 -32.8564 -32.7327 -32.7122
   -18.7625 -18.7617 -18.7588 -18.7584 -18.7260 -18.7219 -18.7090 -18.7066
   -18.6896 -18.6818 -18.6545 -18.6544 -18.6481 -18.6473 -18.6464 -18.6444
   -18.6438 -18.6425 -18.6186 -18.6145 -18.6033 -18.6008 -18.5853 -18.5774
   -18.5539 -18.5537 -18.5459 -18.5419 -18.3920 -18.3911 -18.3874 -18.3852
   -18.3842 -18.3821 -18.3789 -18.3762 -18.3503 -18.3461 -18.3260 -18.3201
   -18.3161 -18.3136  -5.9719  -5.8947  -5.8394  -5.8375  -5.8034  -5.8034
    -5.7699  -5.7672  -5.7102  -5.6761  -5.6132  -5.5947  -5.5393  -5.5304
    -5.4965  -5.4489  -5.4473  -5.4256  -5.4168  -5.3923  -5.3831  -5.3732
    -5.3568  -5.3419  -5.3297  -5.3241  -5.3147  -5.2982  -5.2713  -5.2554
    -5.1726  -4.4765  -3.9806  -3.2498  -2.7695  -2.3868  -1.3660  -1.1270
    -0.5538  -0.4698   0.1769   0.2100   0.5041   0.5404   0.8153   0.8505
     0.9650   1.1482   1.1705   1.2179   1.5677   1.6871   1.7359   1.8524
     1.9556   2.3344   2.4448   2.8545   3.1623   3.1794   3.5043   3.7381
     3.8983   3.9622   4.3276   4.4344   4.4580   4.5759   4.8572   5.0902
     5.2957   5.8030   6.2676   6.6780

          k = 0.0000-0.1016 0.0000 ( 32034 PWs)   bands (ev):

   -67.0209 -67.0209 -66.9182 -66.9182 -66.6839 -66.6839 -33.4942 -33.4942
   -33.3968 -33.3968 -33.3240 -33.3240 -33.2420 -33.2420 -33.1547 -33.1547
   -33.1107 -33.1107 -33.0862 -33.0862 -32.9590 -32.9590 -32.7225 -32.7225
   -18.7621 -18.7621 -18.7586 -18.7586 -18.7239 -18.7239 -18.7078 -18.7078
   -18.6857 -18.6857 -18.6505 -18.6505 -18.6487 -18.6487 -18.6477 -18.6477
   -18.6441 -18.6441 -18.6165 -18.6165 -18.6020 -18.6020 -18.5814 -18.5814
   -18.5499 -18.5499 -18.5480 -18.5480 -18.3895 -18.3895 -18.3881 -18.3881
   -18.3832 -18.3832 -18.3775 -18.3775 -18.3483 -18.3483 -18.3212 -18.3212
   -18.3169 -18.3169  -5.8796  -5.8796  -5.8246  -5.8246  -5.7843  -5.7843
    -5.7538  -5.7538  -5.7056  -5.7056  -5.5724  -5.5724  -5.5210  -5.5210
    -5.4420  -5.4419  -5.4247  -5.4247  -5.3948  -5.3948  -5.3831  -5.3831
    -5.3605  -5.3605  -5.3258  -5.3258  -5.3130  -5.3130  -5.2979  -5.2979
    -4.9329  -4.9329  -3.6113  -3.6112  -2.5848  -2.5848  -1.2622  -1.2622
    -0.5695  -0.5695   0.1980   0.1980   0.5764   0.5764   0.9164   0.9164
     1.0324   1.0324   1.1928   1.1928   1.6126   1.6126   1.8230   1.8231
     2.1163   2.1163   2.6282   2.6282   3.0810   3.0810   3.6251   3.6251
     3.9029   3.9030   4.3486   4.3486   4.4735   4.4735   4.9369   4.9369
     5.5006   5.5006   6.5073   6.5074

          k = 0.0147-0.0084 0.0000 ( 32113 PWs)   bands (ev):

   -67.0449 -66.9967 -66.9424 -66.8939 -66.7085 -66.6592 -33.5379 -33.5215
   -33.4559 -33.4492 -33.4400 -33.3642 -33.3526 -33.3301 -33.2832 -33.2824
   -33.1987 -33.1567 -33.0641 -32.7689 -32.7607 -32.6972 -32.6840 -32.5683
   -18.7636 -18.7608 -18.7595 -18.7578 -18.7320 -18.7167 -18.7122 -18.7034
   -18.6999 -18.6707 -18.6687 -18.6652 -18.6495 -18.6463 -18.6451 -18.6432
   -18.6351 -18.6248 -18.6241 -18.6093 -18.6066 -18.5974 -18.5954 -18.5678
   -18.5663 -18.5645 -18.5345 -18.5235 -18.4000 -18.3994 -18.3875 -18.3825
   -18.3824 -18.3795 -18.3780 -18.3723 -18.3547 -18.3387 -18.3373 -18.3282
   -18.3041 -18.2999  -6.9931  -6.0579  -6.0419  -5.9948  -5.9599  -5.8755
    -5.8591  -5.8403  -5.7821  -5.7641  -5.7580  -5.6946  -5.6851  -5.6369
    -5.5359  -5.5324  -5.5078  -5.4880  -5.4574  -5.4329  -5.4135  -5.4004
    -5.3553  -5.3491  -5.2924  -5.2830  -5.2272  -5.2053  -5.1618  -5.1353
    -5.0425  -4.8025  -3.2753  -2.8273  -1.9891  -1.8603  -1.2276  -0.9144
    -0.6019  -0.5667  -0.2964  -0.1262  -0.0408   0.5375   0.6581   0.8860
     1.0084   1.1387   1.4824   1.5367   1.6202   1.9623   2.1514   2.1842
     2.3595   2.5626   2.6714   3.0270   3.3224   3.5179   3.7304   4.0428
     4.0915   4.3694   4.4658   4.7029   4.9912   4.9989   5.0190   5.1998
     5.2671   5.5905   5.7116   5.9792

          k = 0.0147 0.0085 0.0000 ( 32090 PWs)   bands (ev):

   -67.0457 -66.9959 -66.9432 -66.8930 -66.7093 -66.6583 -33.5396 -33.5341
   -33.4686 -33.4475 -33.4416 -33.3660 -33.3510 -33.3428 -33.2849 -33.2806
   -33.1971 -33.1581 -33.0627 -32.7622 -32.7548 -32.6831 -32.6827 -32.5541
   -18.7637 -18.7608 -18.7596 -18.7577 -18.7323 -18.7164 -18.7123 -18.7032
   -18.7004 -18.6701 -18.6693 -18.6658 -18.6496 -18.6463 -18.6452 -18.6432
   -18.6345 -18.6251 -18.6231 -18.6091 -18.6067 -18.5972 -18.5959 -18.5684
   -18.5657 -18.5651 -18.5339 -18.5225 -18.4004 -18.3998 -18.3877 -18.3826
   -18.3823 -18.3794 -18.3777 -18.3721 -18.3549 -18.3383 -18.3378 -18.3285
   -18.3036 -18.2990  -6.9921  -6.0561  -6.0506  -5.9980  -5.9590  -5.8766
    -5.8644  -5.8363  -5.7761  -5.7722  -5.7591  -5.6904  -5.6854  -5.6364
    -5.5379  -5.5279  -5.4986  -5.4838  -5.4606  -5.4354  -5.4139  -5.3971
    -5.3524  -5.3497  -5.2853  -5.2812  -5.2203  -5.1997  -5.1560  -5.1298
    -5.0328  -4.8054  -3.2785  -2.7113  -1.9735  -1.7102  -1.4910  -0.9497
    -0.8618  -0.6301  -0.2963  -0.1497  -0.0419   0.5109   0.6052   0.8080
     0.9655   1.1392   1.2595   1.5697   1.5994   1.9647   2.1691   2.3708
     2.4002   2.5620   2.7759   3.2296   3.3046   3.3586   3.7838   3.9875
     4.2425   4.4892   4.6361   4.8441   4.8548   4.9710   5.0611   5.0840
     5.3334   5.5747   5.6672   5.8897

          k = 0.0147 0.0255 0.0000 ( 32070 PWs)   bands (ev):

   -67.0449 -66.9967 -66.9424 -66.8939 -66.7085 -66.6591 -33.5383 -33.5216
   -33.4561 -33.4490 -33.4401 -33.3649 -33.3526 -33.3301 -33.2837 -33.2818
   -33.1986 -33.1562 -33.0647 -32.7689 -32.7606 -32.6971 -32.6841 -32.5683
   -18.7637 -18.7608 -18.7595 -18.7578 -18.7320 -18.7167 -18.7122 -18.7034
   -18.7000 -18.6707 -18.6687 -18.6652 -18.6495 -18.6463 -18.6451 -18.6432
   -18.6350 -18.6248 -18.6241 -18.6093 -18.6066 -18.5974 -18.5955 -18.5678
   -18.5663 -18.5646 -18.5345 -18.5235 -18.4000 -18.3994 -18.3876 -18.3825
   -18.3824 -18.3795 -18.3780 -18.3723 -18.3547 -18.3387 -18.3373 -18.3282
   -18.3041 -18.2999  -6.8850  -6.0358  -6.0322  -5.9860  -5.9381  -5.8654
    -5.8309  -5.8237  -5.7729  -5.7509  -5.7407  -5.6782  -5.6693  -5.6154
    -5.5343  -5.5312  -5.5062  -5.4717  -5.4538  -5.4313  -5.4100  -5.3884
    -5.3502  -5.3464  -5.2875  -5.2812  -5.2235  -5.2047  -5.1638  -5.1353
    -5.0415  -4.7526  -3.2396  -2.7949  -2.0144  -1.8289  -1.6848  -0.9806
    -0.9419  -0.5294  -0.3275  -0.1333   0.0600   0.4885   0.5046   0.7583
     0.8894   1.0214   1.1309   1.5185   1.5502   1.9093   2.0794   2.2012
     2.4132   2.5367   2.8562   3.2914   3.3240   3.4633   3.5337   3.9875
     4.4084   4.5899   4.6425   4.7051   4.8664   4.9701   5.0981   5.3079
     5.3212   5.6896   5.7795   6.0170

          k = 0.0147 0.0424 0.0000 ( 32046 PWs)   bands (ev):

   -67.0424 -66.9992 -66.9399 -66.8964 -66.7059 -66.6617 -33.5340 -33.4847
   -33.4536 -33.4357 -33.4187 -33.3612 -33.3572 -33.2930 -33.2856 -33.2797
   -33.2029 -33.1512 -33.0697 -32.8097 -32.7570 -32.7380 -32.6881 -32.6098
   -18.7635 -18.7609 -18.7594 -18.7579 -18.7311 -18.7174 -18.7117 -18.7039
   -18.6985 -18.6723 -18.6668 -18.6638 -18.6493 -18.6464 -18.6450 -18.6433
   -18.6366 -18.6268 -18.6239 -18.6100 -18.6061 -18.5979 -18.5940 -18.5679
   -18.5659 -18.5631 -18.5361 -18.5262 -18.3987 -18.3983 -18.3870 -18.3830
   -18.3819 -18.3798 -18.3790 -18.3729 -18.3542 -18.3398 -18.3358 -18.3271
   -18.3055 -18.3023  -6.6788  -6.0006  -5.9909  -5.9600  -5.9049  -5.8459
    -5.8062  -5.7715  -5.7711  -5.7086  -5.7005  -5.6623  -5.6388  -5.5873
    -5.5442  -5.5234  -5.5217  -5.4551  -5.4376  -5.4246  -5.4008  -5.3776
    -5.3488  -5.3412  -5.2984  -5.2831  -5.2371  -5.2190  -5.1847  -5.1510
    -5.0694  -4.6279  -3.1664  -3.1093  -2.2568  -1.9513  -1.8044  -0.9924
    -0.8520  -0.3262  -0.3133  -0.0615   0.0390   0.3028   0.5356   0.7210
     0.7639   0.9438   1.1087   1.4454   1.4824   1.8059   2.0180   2.0482
     2.2715   2.5574   2.9190   3.0031   3.4500   3.4575   3.6427   4.0146
     4.3744   4.5120   4.5966   4.6536   4.7500   4.9579   5.0474   5.3120
     5.5758   5.8736   5.9268   6.0312

          k = 0.0147 0.0593 0.0000 ( 32075 PWs)   bands (ev):

   -67.0385 -67.0032 -66.9359 -66.9004 -66.7019 -66.6658 -33.5270 -33.4612
   -33.4287 -33.4251 -33.3653 -33.3581 -33.3549 -33.2927 -33.2731 -33.2330
   -33.2094 -33.1435 -33.0776 -32.8743 -32.8037 -32.7502 -32.6945 -32.6752
   -18.7633 -18.7611 -18.7593 -18.7580 -18.7298 -18.7186 -18.7110 -18.7046
   -18.6962 -18.6748 -18.6637 -18.6614 -18.6490 -18.6466 -18.6448 -18.6434
   -18.6392 -18.6312 -18.6224 -18.6112 -18.6054 -18.5987 -18.5918 -18.5704
   -18.5629 -18.5608 -18.5387 -18.5306 -18.3966 -18.3966 -18.3863 -18.3841
   -18.3812 -18.3806 -18.3804 -18.3738 -18.3533 -18.3416 -18.3334 -18.3254
   -18.3077 -18.3062  -6.3914  -5.9558  -5.9348  -5.9225  -5.8698  -5.8200
    -5.7906  -5.7717  -5.6984  -5.6704  -5.6460  -5.6372  -5.5995  -5.5875
    -5.5601  -5.5190  -5.5010  -5.4385  -5.4190  -5.4139  -5.3877  -5.3698
    -5.3467  -5.3414  -5.3123  -5.2879  -5.2592  -5.2377  -5.2180  -5.1742
    -5.1169  -4.4168  -3.6009  -3.0742  -2.5907  -2.0278  -1.8357  -0.9900
    -0.8271  -0.3330  -0.1194  -0.0599   0.0800   0.2836   0.5367   0.6734
     0.7620   0.9911   1.1154   1.3911   1.4260   1.6874   1.8611   2.0518
     2.1638   2.5689   2.6941   2.9775   3.4098   3.6211   3.7591   3.9954
     4.0894   4.4460   4.4883   4.5450   4.5847   4.8968   4.9567   5.3258
     5.5375   5.8274   6.2385   6.2985

          k = 0.0147 0.0763 0.0000 ( 32056 PWs)   bands (ev):

   -67.0333 -67.0084 -66.9307 -66.9056 -66.6966 -66.6711 -33.5177 -33.4707
   -33.4195 -33.3740 -33.3471 -33.3464 -33.3016 -33.2800 -33.2643 -33.2197
   -33.1529 -33.1335 -33.0877 -32.9575 -32.8874 -32.7597 -32.7419 -32.7028
   -18.7629 -18.7614 -18.7591 -18.7582 -18.7280 -18.7201 -18.7101 -18.7056
   -18.6932 -18.6781 -18.6596 -18.6583 -18.6486 -18.6469 -18.6446 -18.6436
   -18.6426 -18.6365 -18.6206 -18.6127 -18.6044 -18.5996 -18.5888 -18.5737
   -18.5588 -18.5576 -18.5420 -18.5359 -18.3944 -18.3941 -18.3855 -18.3854
   -18.3826 -18.3812 -18.3801 -18.3749 -18.3520 -18.3437 -18.3301 -18.3230
   -18.3109 -18.3105  -6.0728  -5.9083  -5.8763  -5.8741  -5.8409  -5.7895
    -5.7887  -5.7668  -5.6654  -5.6555  -5.6146  -5.6010  -5.5864  -5.5582
    -5.5231  -5.5018  -5.4742  -5.4257  -5.4176  -5.3894  -5.3759  -5.3656
    -5.3562  -5.3430  -5.3190  -5.2991  -5.2879  -5.2609  -5.2452  -5.1863
    -5.1831  -4.1616  -4.1288  -2.9735  -2.9538  -2.1527  -1.7681  -0.9645
    -0.8927  -0.5350   0.0328   0.1593   0.3144   0.3209   0.4864   0.6938
     0.9288   1.0092   1.1560   1.3449   1.4318   1.7069   1.7612   1.9259
     2.0694   2.5262   2.5377   3.0361   3.3246   3.6416   3.8073   3.8149
     3.8906   4.0854   4.3017   4.4214   4.5319   4.7971   4.9976   5.1934
     5.3815   6.0828   6.1131   6.5524

          k = 0.0147-0.1100 0.0000 ( 32052 PWs)   bands (ev):

   -67.0273 -67.0144 -66.9247 -66.9117 -66.6905 -66.6772 -33.5067 -33.4818
   -33.4086 -33.3850 -33.3364 -33.3118 -33.2550 -33.2539 -33.2303 -33.1872
   -33.1220 -33.0994 -33.0601 -33.0532 -32.9839 -32.8565 -32.7325 -32.7124
   -18.7625 -18.7617 -18.7589 -18.7584 -18.7260 -18.7219 -18.7090 -18.7066
   -18.6897 -18.6818 -18.6545 -18.6545 -18.6482 -18.6472 -18.6463 -18.6444
   -18.6438 -18.6426 -18.6186 -18.6145 -18.6033 -18.6008 -18.5853 -18.5774
   -18.5539 -18.5538 -18.5458 -18.5419 -18.3920 -18.3912 -18.3873 -18.3852
   -18.3843 -18.3821 -18.3789 -18.3762 -18.3503 -18.3460 -18.3260 -18.3201
   -18.3161 -18.3136  -5.8845  -5.8715  -5.8302  -5.8276  -5.8011  -5.7903
    -5.7587  -5.7580  -5.7121  -5.6719  -5.5771  -5.5693  -5.5278  -5.5261
    -5.4890  -5.4460  -5.4456  -5.4183  -5.4181  -5.3848  -5.3843  -5.3654
    -5.3562  -5.3411  -5.3282  -5.3229  -5.3168  -5.2929  -5.2650  -5.2623
    -5.0611  -4.6974  -3.8094  -3.3557  -2.8406  -2.3369  -1.6370  -0.9935
    -0.8583  -0.5323   0.1199   0.2754   0.4287   0.4403   0.6576   0.8044
     0.9504   1.0788   1.2090   1.2762   1.5731   1.7194   1.7728   1.8737
     1.9524   2.4091   2.4491   2.9999   3.1473   3.2986   3.5402   3.8137
     3.8274   3.9339   4.1582   4.3004   4.5012   4.7769   4.7800   5.2400
     5.4691   5.8019   6.3602   6.6723

          k = 0.0147-0.0931 0.0000 ( 32067 PWs)   bands (ev):

   -67.0209 -67.0209 -66.9182 -66.9182 -66.6839 -66.6839 -33.4948 -33.4936
   -33.3969 -33.3966 -33.3254 -33.3228 -33.2426 -33.2414 -33.1549 -33.1546
   -33.1118 -33.1097 -33.0865 -33.0860 -32.9591 -32.9589 -32.7227 -32.7223
   -18.7622 -18.7620 -18.7586 -18.7586 -18.7239 -18.7239 -18.7079 -18.7078
   -18.6858 -18.6857 -18.6505 -18.6504 -18.6487 -18.6487 -18.6477 -18.6476
   -18.6441 -18.6441 -18.6165 -18.6165 -18.6021 -18.6020 -18.5814 -18.5814
   -18.5499 -18.5498 -18.5480 -18.5480 -18.3896 -18.3896 -18.3881 -18.3881
   -18.3832 -18.3831 -18.3776 -18.3775 -18.3483 -18.3483 -18.3212 -18.3212
   -18.3169 -18.3169  -5.8869  -5.8671  -5.8240  -5.8208  -5.7875  -5.7780
    -5.7641  -5.7496  -5.7067  -5.7045  -5.6006  -5.5650  -5.5189  -5.5117
    -5.4435  -5.4427  -5.4271  -5.4192  -5.3997  -5.3943  -5.3835  -5.3813
    -5.3654  -5.3591  -5.3302  -5.3247  -5.3156  -5.3111  -5.2998  -5.2992
    -5.0876  -4.7029  -3.7647  -3.5164  -2.6329  -2.5596  -1.4998  -1.0332
    -0.5980  -0.3878   0.1464   0.3168   0.4712   0.5341   0.8402   0.9222
     0.9953   1.1229   1.1439   1.2247   1.5951   1.6651   1.7968   1.9212
     2.0886   2.2090   2.6064   2.6143   2.8893   3.1029   3.2707   3.7828
     3.8227   4.0230   4.1751   4.2995   4.3747   4.5983   4.7718   5.3808
     5.5183   5.7488   6.5343   6.6103

          k = 0.0147-0.0761 0.0000 ( 32068 PWs)   bands (ev):

   -67.0273 -67.0144 -66.9247 -66.9117 -66.6905 -66.6773 -33.5054 -33.4828
   -33.4083 -33.3851 -33.3338 -33.3142 -33.2545 -33.2526 -33.2312 -33.1867
   -33.1240 -33.0973 -33.0602 -33.0535 -32.9843 -32.8564 -32.7329 -32.7120
   -18.7624 -18.7618 -18.7589 -18.7584 -18.7260 -18.7219 -18.7090 -18.7067
   -18.6896 -18.6818 -18.6545 -18.6544 -18.6480 -18.6473 -18.6465 -18.6444
   -18.6439 -18.6426 -18.6186 -18.6145 -18.6032 -18.6008 -18.5852 -18.5775
   -18.5539 -18.5537 -18.5459 -18.5420 -18.3920 -18.3911 -18.3874 -18.3852
   -18.3841 -18.3822 -18.3788 -18.3762 -18.3503 -18.3461 -18.3260 -18.3201
   -18.3161 -18.3136  -6.0697  -5.9042  -5.8447  -5.8439  -5.8116  -5.8046
    -5.7841  -5.7743  -5.7108  -5.6815  -5.6455  -5.6068  -5.5479  -5.5296
    -5.4975  -5.4530  -5.4487  -5.4341  -5.4093  -5.3994  -5.3932  -5.3754
    -5.3607  -5.3428  -5.3315  -5.3287  -5.3165  -5.3022  -5.2804  -5.2507
    -5.2089  -4.2371  -4.1338  -3.2485  -2.7845  -2.3874  -1.3221  -1.0008
    -0.2201  -0.2103   0.0906   0.3344   0.4834   0.5668   0.7616   0.9044
     0.9095   1.1530   1.1904   1.3301   1.5309   1.6965   1.7802   1.8115
     2.0515   2.2950   2.3945   2.6161   2.9796   3.0578   3.1643   3.7886
     3.8390   4.1160   4.1278   4.3408   4.4253   4.6705   4.7668   5.2755
     5.8225   5.8329   6.2853   6.4653

          k = 0.0147-0.0592 0.0000 ( 32104 PWs)   bands (ev):

   -67.0333 -67.0084 -66.9307 -66.9056 -66.6966 -66.6711 -33.5164 -33.4715
   -33.4191 -33.3741 -33.3466 -33.3440 -33.3037 -33.2795 -33.2630 -33.2203
   -33.1531 -33.1354 -33.0859 -32.9577 -32.8877 -32.7596 -32.7422 -32.7025
   -18.7628 -18.7614 -18.7591 -18.7582 -18.7280 -18.7201 -18.7101 -18.7056
   -18.6932 -18.6781 -18.6595 -18.6582 -18.6485 -18.6470 -18.6446 -18.6437
   -18.6426 -18.6366 -18.6206 -18.6127 -18.6044 -18.5997 -18.5888 -18.5737
   -18.5587 -18.5576 -18.5421 -18.5360 -18.3944 -18.3940 -18.3855 -18.3852
   -18.3827 -18.3812 -18.3801 -18.3750 -18.3520 -18.3438 -18.3301 -18.3230
   -18.3109 -18.3105  -6.3924  -5.9558  -5.8968  -5.8896  -5.8674  -5.8166
    -5.8071  -5.7921  -5.6842  -5.6803  -5.6556  -5.6254  -5.6046  -5.5924
    -5.5371  -5.5221  -5.4703  -5.4546  -5.4097  -5.4071  -5.3896  -5.3722
    -5.3683  -5.3619  -5.3238  -5.3040  -5.2948  -5.2660  -5.2614  -5.2009
    -5.1771  -4.4266  -3.7812  -2.9793  -2.9421  -2.2016  -1.0509  -0.9428
    -0.1764  -0.1291   0.1489   0.2919   0.3043   0.6621   0.7313   0.8243
     0.8580   1.0834   1.2976   1.4110   1.5057   1.6469   1.7813   1.9049
     1.9691   2.3218   2.4268   2.5340   2.9992   3.1553   3.4854   3.8704
     3.8891   4.0860   4.2133   4.3721   4.5268   4.8091   5.0118   5.2512
     5.8028   6.0253   6.1065   6.1659

          k = 0.0147-0.0423 0.0000 ( 32049 PWs)   bands (ev):

   -67.0385 -67.0032 -66.9359 -66.9004 -66.7019 -66.6658 -33.5259 -33.4618
   -33.4283 -33.4246 -33.3652 -33.3577 -33.3528 -33.2944 -33.2718 -33.2333
   -33.2097 -33.1450 -33.0761 -32.8743 -32.8038 -32.7505 -32.6942 -32.6750
   -18.7631 -18.7612 -18.7593 -18.7580 -18.7297 -18.7185 -18.7110 -18.7046
   -18.6962 -18.6748 -18.6637 -18.6613 -18.6489 -18.6467 -18.6448 -18.6435
   -18.6393 -18.6311 -18.6224 -18.6111 -18.6053 -18.5987 -18.5917 -18.5704
   -18.5629 -18.5607 -18.5387 -18.5305 -18.3966 -18.3965 -18.3862 -18.3841
   -18.3811 -18.3805 -18.3805 -18.3738 -18.3532 -18.3416 -18.3334 -18.3253
   -18.3077 -18.3061  -6.6821  -6.0041  -5.9526  -5.9424  -5.9072  -5.8450
    -5.8221  -5.7898  -5.7359  -5.7069  -5.6817  -5.6680  -5.6352  -5.5989
    -5.5719  -5.5431  -5.4963  -5.4716  -5.4254  -5.4162  -5.4013  -5.3880
    -5.3619  -5.3475  -5.3222  -5.2935  -5.2667  -5.2430  -5.2153  -5.1743
    -5.1156  -4.6282  -3.3911  -3.1278  -2.5699  -2.0910  -0.9033  -0.7416
    -0.5132  -0.2675   0.0290   0.0771   0.3314   0.5981   0.8631   0.9375
     0.9487   1.1390   1.2865   1.3770   1.4198   1.7787   1.9335   1.9780
     2.0400   2.1881   2.5040   2.8796   2.9382   3.2876   3.6796   3.9627
     3.9858   4.2089   4.2442   4.4113   4.7107   4.9714   5.1369   5.3827
     5.6792   5.7951   5.9248   6.2561

          k = 0.0147-0.0253 0.0000 ( 32091 PWs)   bands (ev):

   -67.0424 -66.9992 -66.9399 -66.8964 -66.7059 -66.6617 -33.5332 -33.4843
   -33.4540 -33.4355 -33.4183 -33.3597 -33.3572 -33.2931 -33.2866 -33.2787
   -33.2032 -33.1523 -33.0687 -32.8097 -32.7572 -32.7381 -32.6879 -32.6097
   -18.7634 -18.7610 -18.7594 -18.7579 -18.7311 -18.7174 -18.7117 -18.7039
   -18.6985 -18.6723 -18.6668 -18.6637 -18.6492 -18.6465 -18.6450 -18.6433
   -18.6367 -18.6268 -18.6238 -18.6100 -18.6061 -18.5979 -18.5941 -18.5679
   -18.5659 -18.5630 -18.5362 -18.5262 -18.3986 -18.3982 -18.3870 -18.3831
   -18.3819 -18.3799 -18.3790 -18.3729 -18.3542 -18.3399 -18.3358 -18.3271
   -18.3055 -18.3023  -6.8877  -6.0399  -6.0072  -5.9759  -5.9405  -5.8646
    -5.8349  -5.8108  -5.7868  -5.7396  -5.7274  -5.6909  -5.6678  -5.6183
    -5.5538  -5.5284  -5.5180  -5.4835  -5.4449  -5.4252  -5.4095  -5.3971
    -5.3587  -5.3456  -5.3073  -5.2869  -5.2431  -5.2207  -5.1816  -5.1509
    -5.0702  -4.7472  -3.2259  -3.0709  -2.1850  -2.0215  -0.9197  -0.8715
    -0.4873  -0.4553  -0.2274  -0.0621   0.1577   0.5686   0.7524   0.9447
     0.9862   1.2208   1.4215   1.5194   1.6443   1.7521   1.8857   2.0987
     2.1996   2.4342   2.5980   2.9034   3.2355   3.4232   3.6974   4.0428
     4.1269   4.1750   4.3231   4.5574   4.8651   5.0485   5.1336   5.3624
     5.4369   5.7120   5.8846   5.9184

          k = 0.0294-0.0168 0.0000 ( 32083 PWs)   bands (ev):

   -67.0424 -66.9992 -66.9399 -66.8964 -66.7059 -66.6617 -33.5334 -33.4844
   -33.4539 -33.4355 -33.4184 -33.3601 -33.3572 -33.2931 -33.2863 -33.2790
   -33.2031 -33.1520 -33.0689 -32.8097 -32.7572 -32.7381 -32.6880 -32.6097
   -18.7635 -18.7609 -18.7594 -18.7579 -18.7311 -18.7174 -18.7117 -18.7039
   -18.6985 -18.6723 -18.6668 -18.6637 -18.6492 -18.6465 -18.6450 -18.6433
   -18.6367 -18.6268 -18.6238 -18.6100 -18.6061 -18.5979 -18.5940 -18.5679
   -18.5659 -18.5631 -18.5361 -18.5263 -18.3986 -18.3982 -18.3870 -18.3831
   -18.3819 -18.3799 -18.3790 -18.3729 -18.3542 -18.3399 -18.3358 -18.3271
   -18.3055 -18.3023  -6.8346  -6.0298  -6.0028  -5.9717  -5.9311  -5.8598
    -5.8269  -5.7979  -5.7828  -5.7314  -5.7206  -5.6835  -5.6602  -5.6107
    -5.5514  -5.5273  -5.5191  -5.4756  -5.4429  -5.4256  -5.4069  -5.3917
    -5.3560  -5.3447  -5.3048  -5.2862  -5.2413  -5.2204  -5.1826  -5.1509
    -5.0700  -4.7190  -3.2056  -3.0778  -2.2103  -1.9979  -1.3170  -0.7297
    -0.6376  -0.4403  -0.2207  -0.0598   0.1567   0.5643   0.6131   0.8846
     0.9821   1.1529   1.2093   1.4403   1.5097   1.8545   2.0644   2.1340
     2.2340   2.4144   2.6493   3.0756   3.1723   3.4233   3.6490   4.0900
     4.1583   4.2451   4.4572   4.5743   4.9074   5.0069   5.1388   5.1559
     5.5110   5.7630   5.8825   5.9570

          k = 0.0294 0.0001 0.0000 ( 32070 PWs)   bands (ev):

   -67.0449 -66.9967 -66.9424 -66.8939 -66.7085 -66.6591 -33.5383 -33.5216
   -33.4561 -33.4490 -33.4401 -33.3649 -33.3526 -33.3301 -33.2837 -33.2818
   -33.1986 -33.1562 -33.0647 -32.7689 -32.7606 -32.6971 -32.6841 -32.5683
   -18.7637 -18.7608 -18.7595 -18.7578 -18.7320 -18.7167 -18.7122 -18.7034
   -18.7000 -18.6707 -18.6687 -18.6652 -18.6495 -18.6463 -18.6451 -18.6432
   -18.6350 -18.6248 -18.6241 -18.6093 -18.6066 -18.5974 -18.5955 -18.5678
   -18.5663 -18.5646 -18.5345 -18.5235 -18.4000 -18.3994 -18.3876 -18.3825
   -18.3824 -18.3795 -18.3780 -18.3723 -18.3547 -18.3387 -18.3373 -18.3282
   -18.3041 -18.2999  -6.8850  -6.0358  -6.0322  -5.9860  -5.9381  -5.8654
    -5.8309  -5.8237  -5.7729  -5.7509  -5.7407  -5.6782  -5.6693  -5.6154
    -5.5343  -5.5312  -5.5062  -5.4717  -5.4538  -5.4313  -5.4100  -5.3884
    -5.3502  -5.3464  -5.2875  -5.2812  -5.2235  -5.2047  -5.1638  -5.1353
    -5.0415  -4.7526  -3.2396  -2.7949  -2.0144  -1.8289  -1.6848  -0.9806
    -0.9419  -0.5294  -0.3275  -0.1333   0.0600   0.4885   0.5046   0.7583
     0.8894   1.0214   1.1309   1.5185   1.5502   1.9093   2.0794   2.2012
     2.4132   2.5367   2.8562   3.2914   3.3240   3.4633   3.5337   3.9875
     4.4084   4.5899   4.6425   4.7051   4.8664   4.9701   5.0981   5.3079
     5.3212   5.6896   5.7794   6.0166

          k = 0.0294 0.0171 0.0000 ( 32074 PWs)   bands (ev):

   -67.0457 -66.9959 -66.9432 -66.8930 -66.7093 -66.6583 -33.5403 -33.5344
   -33.4689 -33.4473 -33.4418 -33.3671 -33.3510 -33.3428 -33.2856 -33.2798
   -33.1969 -33.1573 -33.0635 -32.7620 -32.7548 -32.6830 -32.6828 -32.5542
   -18.7638 -18.7607 -18.7596 -18.7578 -18.7324 -18.7164 -18.7123 -18.7033
   -18.7004 -18.6701 -18.6694 -18.6658 -18.6496 -18.6462 -18.6452 -18.6432
   -18.6345 -18.6251 -18.6231 -18.6091 -18.6068 -18.5973 -18.5959 -18.5684
   -18.5657 -18.5651 -18.5339 -18.5225 -18.4004 -18.3998 -18.3878 -18.3826
   -18.3823 -18.3793 -18.3777 -18.3721 -18.3549 -18.3383 -18.3378 -18.3285
   -18.3036 -18.2990  -6.8312  -6.0364  -6.0233  -5.9854  -5.9266  -5.8610
    -5.8291  -5.8126  -5.7631  -5.7528  -5.7333  -5.6655  -5.6621  -5.5998
    -5.5405  -5.5211  -5.4961  -5.4605  -5.4556  -5.4320  -5.4097  -5.3799
    -5.3455  -5.3448  -5.2782  -5.2777  -5.2153  -5.1984  -5.1588  -5.1296
    -5.0311  -4.7298  -3.2396  -2.6305  -1.9820  -1.9710  -1.6411  -1.3275
    -1.1831  -0.5403  -0.3870  -0.1704  -0.0331   0.4128   0.4505   0.6480
     0.7438   0.9025   1.0560   1.4099   1.5707   1.9064   2.0571   2.0799
     2.4752   2.6089   3.0950   3.1929   3.3151   3.5417   3.6871   3.9326
     4.5057   4.6567   4.8004   4.8780   4.9050   5.1021   5.1473   5.2285
     5.4700   5.7137   5.7686   5.9138

          k = 0.0294 0.0340 0.0000 ( 32069 PWs)   bands (ev):

   -67.0449 -66.9967 -66.9424 -66.8939 -66.7085 -66.6591 -33.5391 -33.5220
   -33.4564 -33.4486 -33.4404 -33.3664 -33.3526 -33.3300 -33.2846 -33.2809
   -33.1984 -33.1553 -33.0656 -32.7689 -32.7605 -32.6971 -32.6843 -32.5684
   -18.7638 -18.7607 -18.7595 -18.7578 -18.7321 -18.7167 -18.7122 -18.7034
   -18.7000 -18.6707 -18.6687 -18.6654 -18.6496 -18.6462 -18.6451 -18.6432
   -18.6350 -18.6248 -18.6241 -18.6093 -18.6066 -18.5974 -18.5955 -18.5678
   -18.5663 -18.5647 -18.5344 -18.5235 -18.4000 -18.3994 -18.3877 -18.3825
   -18.3824 -18.3795 -18.3781 -18.3724 -18.3547 -18.3387 -18.3373 -18.3282
   -18.3041 -18.2999  -6.6769  -6.0151  -5.9956  -5.9708  -5.9007  -5.8463
    -5.7992  -5.7966  -5.7577  -5.7262  -5.7096  -5.6480  -5.6400  -5.5700
    -5.5370  -5.5231  -5.5030  -5.4485  -5.4445  -5.4269  -5.4040  -5.3691
    -5.3420  -5.3396  -5.2791  -5.2755  -5.2185  -5.2023  -5.1666  -5.1352
    -5.0398  -4.6377  -3.2251  -2.7454  -2.1477  -2.0496  -1.8133  -1.3291
    -1.2315  -0.4643  -0.4391  -0.1595  -0.0708   0.1603   0.4377   0.5474
     0.6001   0.8516   0.9985   1.3215   1.4996   1.8534   1.8895   2.1295
     2.4221   2.6161   3.0930   3.2211   3.3140   3.5380   3.9025   3.9258
     4.4533   4.7680   4.7822   4.8435   4.8741   4.9286   5.2878   5.4493
     5.6624   5.8813   5.9063   6.0040

          k = 0.0294 0.0509 0.0000 ( 32077 PWs)   bands (ev):

   -67.0424 -66.9992 -66.9399 -66.8964 -66.7059 -66.6617 -33.5349 -33.4850
   -33.4533 -33.4360 -33.4191 -33.3628 -33.3571 -33.2928 -33.2845 -33.2806
   -33.2027 -33.1502 -33.0709 -32.8097 -32.7569 -32.7380 -32.6884 -32.6099
   -18.7636 -18.7609 -18.7595 -18.7579 -18.7312 -18.7174 -18.7118 -18.7039
   -18.6985 -18.6723 -18.6669 -18.6639 -18.6494 -18.6464 -18.6451 -18.6433
   -18.6366 -18.6269 -18.6239 -18.6100 -18.6062 -18.5979 -18.5941 -18.5679
   -18.5660 -18.5632 -18.5360 -18.5263 -18.3987 -18.3983 -18.3872 -18.3830
   -18.3820 -18.3798 -18.3790 -18.3729 -18.3542 -18.3398 -18.3358 -18.3271
   -18.3055 -18.3024  -6.4357  -5.9725  -5.9569  -5.9437  -5.8690  -5.8244
    -5.7809  -5.7565  -5.7475  -5.6757  -5.6754  -5.6305  -5.6080  -5.5588
    -5.5328  -5.5237  -5.5110  -5.4338  -5.4275  -5.4194  -5.3919  -5.3611
    -5.3388  -5.3336  -5.2895  -5.2756  -5.2329  -5.2154  -5.1868  -5.1510
    -5.0686  -4.4625  -3.2214  -3.1857  -2.2906  -2.1851  -1.8955  -1.4193
    -0.9688  -0.5174  -0.3134  -0.2064  -0.0837  -0.0097   0.4070   0.5128
     0.5487   0.8378   0.9816   1.3200   1.4096   1.7871   1.7949   2.1715
     2.3288   2.6032   2.8381   3.2647   3.5030   3.5542   3.9304   4.0361
     4.3537   4.4819   4.6745   4.7215   4.8319   4.8787   5.3223   5.6874
     5.8372   5.8959   6.1207   6.1474

          k = 0.0294 0.0679 0.0000 ( 32072 PWs)   bands (ev):

   -67.0384 -67.0032 -66.9359 -66.9004 -66.7019 -66.6658 -33.5278 -33.4608
   -33.4289 -33.4254 -33.3654 -33.3583 -33.3565 -33.2917 -33.2740 -33.2329
   -33.2091 -33.1425 -33.0788 -32.8742 -32.8036 -32.7500 -32.6948 -32.6753
   -18.7634 -18.7611 -18.7593 -18.7580 -18.7298 -18.7185 -18.7111 -18.7046
   -18.6963 -18.6748 -18.6638 -18.6615 -18.6491 -18.6466 -18.6449 -18.6435
   -18.6392 -18.6312 -18.6224 -18.6112 -18.6054 -18.5987 -18.5918 -18.5704
   -18.5629 -18.5609 -18.5386 -18.5306 -18.3967 -18.3966 -18.3864 -18.3841
   -18.3812 -18.3806 -18.3804 -18.3738 -18.3533 -18.3416 -18.3334 -18.3254
   -18.3077 -18.3062  -6.1425  -5.9182  -5.9130  -5.9050  -5.8397  -5.7957
    -5.7735  -5.7570  -5.6807  -5.6419  -5.6171  -5.6167  -5.5813  -5.5709
    -5.5499  -5.5012  -5.4958  -5.4208  -5.4129  -5.4062  -5.3774  -5.3603
    -5.3359  -5.3355  -5.3013  -5.2796  -5.2568  -5.2255  -5.2189  -5.1709
    -5.1183  -4.2166  -3.7660  -3.2174  -2.6299  -2.0992  -1.9459  -1.4279
    -0.8721  -0.6320  -0.2090  -0.1385   0.0182   0.0786   0.3382   0.5038
     0.7223   0.8355   1.0071   1.3663   1.3753   1.7378   1.7812   2.0989
     2.2498   2.5992   2.6646   3.2568   3.4432   3.7368   3.8430   4.0809
     4.0812   4.2044   4.4901   4.5453   4.6984   4.8592   5.3032   5.5444
     5.9582   5.9716   6.2468   6.3593

          k = 0.0294-0.1184 0.0000 ( 32028 PWs)   bands (ev):

   -67.0333 -67.0084 -66.9307 -66.9056 -66.6966 -66.6711 -33.5184 -33.4702
   -33.4196 -33.3739 -33.3479 -33.3473 -33.3005 -33.2803 -33.2650 -33.2192
   -33.1528 -33.1325 -33.0888 -32.9574 -32.8873 -32.7598 -32.7417 -32.7030
   -18.7630 -18.7613 -18.7591 -18.7582 -18.7280 -18.7201 -18.7101 -18.7056
   -18.6932 -18.6780 -18.6596 -18.6583 -18.6487 -18.6468 -18.6446 -18.6436
   -18.6425 -18.6366 -18.6206 -18.6127 -18.6044 -18.5996 -18.5888 -18.5737
   -18.5588 -18.5577 -18.5419 -18.5360 -18.3944 -18.3941 -18.3855 -18.3855
   -18.3827 -18.3812 -18.3802 -18.3749 -18.3520 -18.3437 -18.3301 -18.3230
   -18.3109 -18.3105  -5.8908  -5.8682  -5.8667  -5.8590  -5.8194  -5.7821
    -5.7634  -5.7552  -5.6622  -5.6430  -5.5876  -5.5855  -5.5585  -5.5350
    -5.5139  -5.4859  -5.4710  -5.4166  -5.4139  -5.3808  -5.3745  -5.3630
    -5.3496  -5.3358  -5.3124  -5.2941  -5.2898  -5.2588  -5.2296  -5.1878
    -5.1141  -4.3530  -3.9643  -3.1295  -3.0423  -2.0775  -1.9913  -1.2729
    -0.9953  -0.5226  -0.0481  -0.0066   0.1426   0.2986   0.3720   0.5721
     0.8211   0.9885   1.0455   1.3868   1.4772   1.7154   1.8056   1.9496
     2.1701   2.5306   2.5872   3.1898   3.2799   3.6844   3.7423   3.7565
     3.9819   4.0330   4.1398   4.3485   4.4635   5.0239   5.2049   5.2880
     5.9013   6.1750   6.2407   6.5531

          k = 0.0294-0.1015 0.0000 ( 32048 PWs)   bands (ev):

   -67.0273 -67.0144 -66.9247 -66.9117 -66.6905 -66.6772 -33.5074 -33.4813
   -33.4087 -33.3848 -33.3377 -33.3108 -33.2552 -33.2544 -33.2298 -33.1875
   -33.1211 -33.1004 -33.0600 -33.0531 -32.9838 -32.8566 -32.7324 -32.7126
   -18.7626 -18.7616 -18.7589 -18.7584 -18.7260 -18.7219 -18.7091 -18.7066
   -18.6897 -18.6818 -18.6546 -18.6545 -18.6482 -18.6472 -18.6463 -18.6444
   -18.6438 -18.6426 -18.6186 -18.6145 -18.6033 -18.6008 -18.5853 -18.5774
   -18.5540 -18.5538 -18.5457 -18.5419 -18.3920 -18.3912 -18.3873 -18.3852
   -18.3844 -18.3820 -18.3789 -18.3762 -18.3503 -18.3460 -18.3260 -18.3201
   -18.3160 -18.3136  -5.8402  -5.8369  -5.8154  -5.8154  -5.7974  -5.7779
    -5.7526  -5.7487  -5.7171  -5.6744  -5.5630  -5.5353  -5.5199  -5.5089
    -5.4776  -5.4425  -5.4390  -5.4188  -5.4150  -5.3950  -5.3775  -5.3585
    -5.3562  -5.3417  -5.3298  -5.3274  -5.3190  -5.2877  -5.2704  -5.2639
    -4.8641  -4.8398  -3.7769  -3.4774  -2.8800  -2.3141  -1.9124  -0.9647
    -0.9159  -0.3629   0.0878   0.0916   0.3369   0.3917   0.6432   0.6685
     0.8601   1.0343   1.2792   1.3089   1.6822   1.6961   1.7210   2.0169
     2.0951   2.4068   2.4789   2.9665   3.0013   3.3252   3.3358   3.5822
     3.9228   3.9816   4.0013   4.2585   4.3379   4.8443   5.1495   5.3306
     5.7121   6.3104   6.4658   6.5754

          k = 0.0294-0.0845 0.0000 ( 32046 PWs)   bands (ev):

   -67.0209 -67.0208 -66.9182 -66.9182 -66.6839 -66.6838 -33.4953 -33.4932
   -33.3969 -33.3965 -33.3264 -33.3219 -33.2429 -33.2409 -33.1551 -33.1544
   -33.1126 -33.1089 -33.0866 -33.0859 -32.9592 -32.9589 -32.7228 -32.7222
   -18.7622 -18.7620 -18.7586 -18.7586 -18.7239 -18.7239 -18.7079 -18.7078
   -18.6858 -18.6857 -18.6506 -18.6504 -18.6487 -18.6486 -18.6478 -18.6475
   -18.6441 -18.6441 -18.6165 -18.6165 -18.6021 -18.6020 -18.5814 -18.5813
   -18.5500 -18.5498 -18.5480 -18.5480 -18.3896 -18.3896 -18.3881 -18.3881
   -18.3833 -18.3830 -18.3776 -18.3775 -18.3483 -18.3482 -18.3212 -18.3212
   -18.3169 -18.3169  -5.8895  -5.8520  -5.8180  -5.8166  -5.7892  -5.7775
    -5.7672  -5.7505  -5.7076  -5.7039  -5.6487  -5.5617  -5.5146  -5.4900
    -5.4486  -5.4463  -5.4298  -5.4139  -5.4027  -5.3946  -5.3828  -5.3785
    -5.3699  -5.3618  -5.3411  -5.3228  -5.3171  -5.3144  -5.3027  -5.3006
    -5.1611  -4.4407  -3.8820  -3.6003  -2.5803  -2.5609  -1.7679  -0.8180
    -0.4321  -0.2043   0.1993   0.2194   0.4405   0.5068   0.6296   0.8858
     1.0400   1.0888   1.1120   1.3449   1.5816   1.6851   1.8475   2.0652
     2.2287   2.2853   2.4748   2.5759   2.6949   2.9554   2.9886   3.4871
     3.9232   4.0778   4.1081   4.2225   4.2939   4.6446   4.8692   5.6415
     5.7009   6.3339   6.5813   6.6045

          k = 0.0294-0.0676 0.0000 ( 32064 PWs)   bands (ev):

   -67.0273 -67.0144 -66.9247 -66.9117 -66.6905 -66.6773 -33.5051 -33.4831
   -33.4081 -33.3851 -33.3331 -33.3149 -33.2544 -33.2522 -33.2314 -33.1866
   -33.1246 -33.0968 -33.0603 -33.0536 -32.9844 -32.8563 -32.7330 -32.7119
   -18.7624 -18.7618 -18.7588 -18.7584 -18.7259 -18.7219 -18.7090 -18.7067
   -18.6896 -18.6818 -18.6544 -18.6544 -18.6480 -18.6474 -18.6465 -18.6443
   -18.6439 -18.6426 -18.6186 -18.6145 -18.6032 -18.6008 -18.5852 -18.5774
   -18.5538 -18.5537 -18.5459 -18.5420 -18.3919 -18.3911 -18.3874 -18.3852
   -18.3841 -18.3822 -18.3788 -18.3763 -18.3503 -18.3461 -18.3260 -18.3201
   -18.3161 -18.3136  -6.1307  -5.9056  -5.8467  -5.8467  -5.8154  -5.8053
    -5.7947  -5.7782  -5.7118  -5.6849  -5.6613  -5.6121  -5.5515  -5.5290
    -5.4938  -5.4557  -5.4539  -5.4365  -5.4064  -5.4036  -5.3969  -5.3777
    -5.3648  -5.3432  -5.3341  -5.3321  -5.3196  -5.3042  -5.2846  -5.2484
    -5.2179  -4.2181  -4.0483  -3.3359  -2.8160  -2.3312  -1.4668  -0.6544
    -0.1747   0.0921   0.1729   0.3945   0.4765   0.5753   0.6469   0.7559
     0.7699   1.3127   1.3183   1.4217   1.4654   1.5664   1.8339   1.9393
     2.0789   2.2838   2.3365   2.4368   2.7602   2.9638   3.0266   3.5528
     3.8829   4.0361   4.2184   4.3418   4.3929   4.6548   4.7233   5.6542
     5.9248   6.1634   6.3427   6.4800

          k = 0.0294-0.0507 0.0000 ( 32101 PWs)   bands (ev):

   -67.0333 -67.0084 -66.9307 -66.9056 -66.6966 -66.6711 -33.5162 -33.4717
   -33.4190 -33.3741 -33.3465 -33.3436 -33.3040 -33.2795 -33.2627 -33.2204
   -33.1531 -33.1357 -33.0856 -32.9577 -32.8877 -32.7596 -32.7423 -32.7024
   -18.7627 -18.7615 -18.7591 -18.7582 -18.7280 -18.7201 -18.7101 -18.7056
   -18.6932 -18.6781 -18.6595 -18.6582 -18.6484 -18.6470 -18.6446 -18.6437
   -18.6427 -18.6366 -18.6206 -18.6127 -18.6044 -18.5997 -18.5888 -18.5737
   -18.5587 -18.5576 -18.5421 -18.5360 -18.3944 -18.3940 -18.3855 -18.3852
   -18.3827 -18.3813 -18.3801 -18.3750 -18.3520 -18.3438 -18.3301 -18.3230
   -18.3109 -18.3105  -6.4376  -5.9607  -5.8996  -5.8924  -5.8706  -5.8203
    -5.8121  -5.7949  -5.6885  -5.6840  -5.6611  -5.6283  -5.6068  -5.5968
    -5.5393  -5.5245  -5.4704  -5.4593  -5.4102  -5.4060  -5.3925  -5.3730
    -5.3716  -5.3657  -5.3237  -5.3044  -5.2976  -5.2673  -5.2612  -5.2013
    -5.1763  -4.4664  -3.7084  -2.9994  -2.9692  -2.1939  -1.0789  -0.5957
    -0.3815  -0.0210   0.2892   0.3439   0.4837   0.5725   0.7246   0.7842
     0.8086   1.2383   1.3044   1.3743   1.5428   1.7319   1.8001   1.8412
     1.9120   2.1631   2.3465   2.5523   2.9018   3.1163   3.4234   3.7656
     3.8713   4.0698   4.2305   4.3722   4.5237   4.7913   4.9969   5.4503
     5.9268   6.0783   6.1284   6.1886

          k = 0.0294-0.0337 0.0000 ( 32049 PWs)   bands (ev):

   -67.0385 -67.0032 -66.9359 -66.9004 -66.7019 -66.6658 -33.5259 -33.4618
   -33.4283 -33.4246 -33.3652 -33.3577 -33.3528 -33.2944 -33.2718 -33.2333
   -33.2097 -33.1450 -33.0761 -32.8743 -32.8038 -32.7505 -32.6942 -32.6750
   -18.7631 -18.7612 -18.7593 -18.7580 -18.7297 -18.7185 -18.7110 -18.7046
   -18.6962 -18.6748 -18.6637 -18.6613 -18.6489 -18.6467 -18.6448 -18.6435
   -18.6393 -18.6311 -18.6224 -18.6111 -18.6053 -18.5987 -18.5917 -18.5704
   -18.5629 -18.5607 -18.5387 -18.5305 -18.3966 -18.3965 -18.3862 -18.3841
   -18.3811 -18.3805 -18.3805 -18.3738 -18.3532 -18.3416 -18.3334 -18.3253
   -18.3077 -18.3061  -6.6821  -6.0041  -5.9526  -5.9424  -5.9072  -5.8450
    -5.8221  -5.7898  -5.7359  -5.7069  -5.6817  -5.6680  -5.6352  -5.5989
    -5.5719  -5.5431  -5.4963  -5.4716  -5.4254  -5.4162  -5.4013  -5.3880
    -5.3619  -5.3475  -5.3222  -5.2935  -5.2667  -5.2430  -5.2153  -5.1743
    -5.1156  -4.6282  -3.3911  -3.1278  -2.5699  -2.0910  -0.9033  -0.7416
    -0.5132  -0.2675   0.0290   0.0771   0.3314   0.5981   0.8631   0.9375
     0.9487   1.1390   1.2865   1.3770   1.4198   1.7787   1.9335   1.9780
     2.0400   2.1881   2.5040   2.8796   2.9382   3.2876   3.6796   3.9627
     3.9858   4.2089   4.2442   4.4113   4.7107   4.9714   5.1369   5.3827
     5.6792   5.7951   5.9248   6.2561

          k = 0.0441-0.0252 0.0000 ( 32078 PWs)   bands (ev):

   -67.0385 -67.0032 -66.9359 -66.9004 -66.7019 -66.6658 -33.5263 -33.4616
   -33.4285 -33.4248 -33.3653 -33.3579 -33.3536 -33.2938 -33.2723 -33.2332
   -33.2096 -33.1444 -33.0767 -32.8743 -32.8037 -32.7504 -32.6943 -32.6751
   -18.7632 -18.7611 -18.7593 -18.7580 -18.7297 -18.7185 -18.7110 -18.7046
   -18.6962 -18.6748 -18.6637 -18.6614 -18.6489 -18.6467 -18.6448 -18.6435
   -18.6393 -18.6311 -18.6224 -18.6112 -18.6054 -18.5987 -18.5918 -18.5704
   -18.5629 -18.5607 -18.5387 -18.5306 -18.3966 -18.3965 -18.3862 -18.3841
   -18.3811 -18.3805 -18.3805 -18.3738 -18.3533 -18.3416 -18.3334 -18.3253
   -18.3077 -18.3062  -6.5821  -5.9880  -5.9460  -5.9353  -5.8939  -5.8364
    -5.8094  -5.7836  -5.7195  -5.6939  -5.6692  -5.6569  -5.6227  -5.5945
    -5.5673  -5.5359  -5.4983  -5.4586  -5.4210  -5.4189  -5.3957  -5.3808
    -5.3563  -5.3453  -5.3188  -5.2921  -5.2633  -5.2418  -5.2165  -5.1745
    -5.1160  -4.5591  -3.4652  -3.0919  -2.5748  -2.0716  -1.3774  -0.7893
    -0.5950  -0.1728  -0.0418   0.0671   0.0784   0.6105   0.6190   0.8466
     0.8640   1.0456   1.2512   1.3644   1.3988   1.7280   1.9452   2.0039
     2.1242   2.4664   2.6230   2.7827   3.2008   3.3481   3.6946   4.0220
     4.1492   4.2156   4.3413   4.4209   4.7589   4.9768   5.0307   5.1654
     5.5924   5.7625   6.0141   6.3097

          k = 0.0441-0.0083 0.0000 ( 32046 PWs)   bands (ev):

   -67.0424 -66.9992 -66.9399 -66.8964 -66.7059 -66.6617 -33.5340 -33.4847
   -33.4536 -33.4357 -33.4187 -33.3612 -33.3572 -33.2930 -33.2856 -33.2797
   -33.2029 -33.1512 -33.0697 -32.8097 -32.7570 -32.7380 -32.6881 -32.6098
   -18.7635 -18.7609 -18.7594 -18.7579 -18.7311 -18.7174 -18.7117 -18.7039
   -18.6985 -18.6723 -18.6668 -18.6638 -18.6493 -18.6464 -18.6450 -18.6433
   -18.6366 -18.6268 -18.6239 -18.6100 -18.6061 -18.5979 -18.5940 -18.5679
   -18.5659 -18.5631 -18.5361 -18.5262 -18.3987 -18.3983 -18.3870 -18.3830
   -18.3819 -18.3798 -18.3790 -18.3729 -18.3542 -18.3398 -18.3358 -18.3271
   -18.3055 -18.3023  -6.6788  -6.0006  -5.9909  -5.9600  -5.9049  -5.8459
    -5.8062  -5.7715  -5.7711  -5.7086  -5.7005  -5.6623  -5.6388  -5.5873
    -5.5442  -5.5234  -5.5217  -5.4551  -5.4376  -5.4246  -5.4008  -5.3776
    -5.3488  -5.3412  -5.2984  -5.2831  -5.2371  -5.2190  -5.1847  -5.1510
    -5.0694  -4.6279  -3.1664  -3.1093  -2.2568  -1.9513  -1.8044  -0.9924
    -0.8520  -0.3262  -0.3133  -0.0615   0.0390   0.3028   0.5356   0.7210
     0.7639   0.9438   1.1087   1.4454   1.4824   1.8059   2.0180   2.0482
     2.2715   2.5574   2.9190   3.0031   3.4500   3.4575   3.6427   4.0146
     4.3744   4.5120   4.5966   4.6536   4.7500   4.9579   5.0474   5.3120
     5.5758   5.8736   5.9268   6.0312

          k = 0.0441 0.0087 0.0000 ( 32069 PWs)   bands (ev):

   -67.0449 -66.9967 -66.9424 -66.8939 -66.7085 -66.6591 -33.5391 -33.5220
   -33.4564 -33.4486 -33.4404 -33.3664 -33.3526 -33.3300 -33.2846 -33.2809
   -33.1984 -33.1553 -33.0656 -32.7689 -32.7605 -32.6971 -32.6843 -32.5684
   -18.7638 -18.7607 -18.7595 -18.7578 -18.7321 -18.7167 -18.7122 -18.7034
   -18.7000 -18.6707 -18.6687 -18.6654 -18.6496 -18.6462 -18.6451 -18.6432
   -18.6350 -18.6248 -18.6241 -18.6093 -18.6066 -18.5974 -18.5955 -18.5678
   -18.5663 -18.5647 -18.5344 -18.5235 -18.4000 -18.3994 -18.3877 -18.3825
   -18.3824 -18.3795 -18.3781 -18.3724 -18.3547 -18.3387 -18.3373 -18.3282
   -18.3041 -18.2999  -6.6769  -6.0151  -5.9956  -5.9708  -5.9007  -5.8463
    -5.7992  -5.7966  -5.7577  -5.7262  -5.7096  -5.6480  -5.6400  -5.5700
    -5.5370  -5.5231  -5.5030  -5.4485  -5.4445  -5.4269  -5.4040  -5.3691
    -5.3420  -5.3396  -5.2791  -5.2755  -5.2185  -5.2023  -5.1666  -5.1352
    -5.0398  -4.6377  -3.2251  -2.7454  -2.1477  -2.0496  -1.8133  -1.3291
    -1.2315  -0.4643  -0.4391  -0.1595  -0.0708   0.1603   0.4377   0.5474
     0.6001   0.8516   0.9985   1.3215   1.4996   1.8534   1.8895   2.1295
     2.4221   2.6160   3.0930   3.2211   3.3140   3.5380   3.9025   3.9258
     4.4533   4.7680   4.7822   4.8435   4.8741   4.9286   5.2878   5.4493
     5.6624   5.8813   5.9063   6.0040

          k = 0.0441 0.0256 0.0000 ( 32042 PWs)   bands (ev):

   -67.0457 -66.9959 -66.9432 -66.8930 -66.7093 -66.6583 -33.5411 -33.5348
   -33.4693 -33.4469 -33.4420 -33.3687 -33.3510 -33.3426 -33.2866 -33.2788
   -33.1967 -33.1563 -33.0646 -32.7619 -32.7548 -32.6830 -32.6830 -32.5543
   -18.7639 -18.7607 -18.7596 -18.7578 -18.7323 -18.7164 -18.7123 -18.7033
   -18.7004 -18.6701 -18.6694 -18.6659 -18.6497 -18.6462 -18.6452 -18.6432
   -18.6344 -18.6251 -18.6231 -18.6091 -18.6068 -18.5973 -18.5960 -18.5685
   -18.5657 -18.5652 -18.5339 -18.5225 -18.4005 -18.3998 -18.3879 -18.3826
   -18.3823 -18.3793 -18.3778 -18.3722 -18.3549 -18.3383 -18.3378 -18.3286
   -18.3036 -18.2990  -6.5782  -6.0145  -5.9767  -5.9675  -5.8831  -5.8376
    -5.8000  -5.7825  -5.7466  -5.7264  -5.6965  -5.6309  -5.6255  -5.5425
    -5.5415  -5.5127  -5.4919  -5.4491  -5.4317  -5.4255  -5.4026  -5.3588
    -5.3363  -5.3344  -5.2688  -5.2686  -5.2107  -5.1942  -5.1615  -5.1294
    -5.0287  -4.5804  -3.3055  -2.4940  -2.3450  -1.9908  -1.7572  -1.5952
    -1.5391  -0.5340  -0.4887  -0.2382  -0.2116   0.0405   0.3510   0.3828
     0.4068   0.8372   0.9147   1.1377   1.4000   1.6684   1.8911   2.2293
     2.5028   2.6935   3.0104   3.2568   3.4114   3.6238   3.8610   4.1408
     4.3636   4.8134   4.9011   4.9423   4.9683   5.1340   5.4066   5.4469
     5.8844   5.9602   5.9847   6.0630

          k = 0.0441 0.0425 0.0000 ( 32085 PWs)   bands (ev):

   -67.0449 -66.9967 -66.9423 -66.8939 -66.7085 -66.6591 -33.5400 -33.5224
   -33.4568 -33.4483 -33.4406 -33.3681 -33.3525 -33.3299 -33.2855 -33.2799
   -33.1981 -33.1542 -33.0668 -32.7689 -32.7603 -32.6971 -32.6845 -32.5686
   -18.7639 -18.7607 -18.7596 -18.7578 -18.7321 -18.7167 -18.7122 -18.7034
   -18.7000 -18.6707 -18.6688 -18.6655 -18.6497 -18.6462 -18.6452 -18.6432
   -18.6350 -18.6248 -18.6241 -18.6093 -18.6067 -18.5974 -18.5955 -18.5679
   -18.5663 -18.5648 -18.5344 -18.5235 -18.4001 -18.3995 -18.3878 -18.3825
   -18.3825 -18.3795 -18.3781 -18.3724 -18.3548 -18.3387 -18.3373 -18.3282
   -18.3041 -18.2999  -6.3947  -5.9876  -5.9556  -5.9431  -5.8576  -5.8204
    -5.7748  -5.7683  -5.7414  -5.7015  -5.6721  -5.6105  -5.6036  -5.5372
    -5.5238  -5.5097  -5.4968  -5.4414  -5.4189  -5.4182  -5.3928  -5.3514
    -5.3308  -5.3256  -5.2693  -5.2639  -5.2152  -5.1971  -5.1685  -5.1350
    -5.0376  -4.4453  -3.4240  -2.7246  -2.3691  -2.0792  -1.8391  -1.7803
    -1.3217  -0.5714  -0.5379  -0.3052  -0.2054  -0.1969   0.2440   0.2448
     0.3902   0.8074   0.8711   1.0750   1.2937   1.5443   1.9068   2.2899
     2.4943   2.6919   2.8680   3.4144   3.4839   3.6197   3.8715   4.2629
     4.2719   4.7322   4.8197   4.8805   4.9734   5.0593   5.6174   5.6765
     5.9805   6.0355   6.1471   6.1815

          k = 0.0441 0.0595 0.0000 ( 32066 PWs)   bands (ev):

   -67.0424 -66.9992 -66.9398 -66.8964 -66.7059 -66.6617 -33.5357 -33.4854
   -33.4529 -33.4361 -33.4194 -33.3644 -33.3570 -33.2927 -33.2836 -33.2814
   -33.2024 -33.1492 -33.0720 -32.8097 -32.7567 -32.7379 -32.6886 -32.6100
   -18.7637 -18.7608 -18.7595 -18.7579 -18.7312 -18.7174 -18.7118 -18.7039
   -18.6985 -18.6723 -18.6669 -18.6640 -18.6495 -18.6463 -18.6450 -18.6433
   -18.6365 -18.6269 -18.6239 -18.6100 -18.6062 -18.5979 -18.5941 -18.5679
   -18.5660 -18.5633 -18.5360 -18.5263 -18.3988 -18.3984 -18.3873 -18.3830
   -18.3821 -18.3798 -18.3790 -18.3729 -18.3542 -18.3398 -18.3359 -18.3271
   -18.3055 -18.3024  -6.1613  -5.9362  -5.9298  -5.9046  -5.8301  -5.7935
    -5.7594  -5.7416  -5.7259  -5.6550  -5.6415  -5.5952  -5.5772  -5.5463
    -5.5224  -5.5207  -5.4873  -5.4257  -5.4105  -5.4074  -5.3758  -5.3507
    -5.3258  -5.3177  -5.2763  -5.2627  -5.2298  -5.2072  -5.1878  -5.1500
    -5.0678  -4.2555  -3.5117  -3.2992  -2.3089  -2.3067  -1.8236  -1.8058
    -0.9659  -0.8251  -0.5071  -0.3600  -0.2455  -0.0972   0.1804   0.2107
     0.4988   0.7626   0.8782   1.1572   1.2467   1.5448   1.9150   2.2525
     2.4599   2.6447   2.7641   3.4429   3.5528   3.6582   3.8529   4.0790
     4.2796   4.5360   4.5755   4.7781   4.8671   5.0766   5.7895   5.9237
     5.9655   5.9694   6.1648   6.4880

          k = 0.0441-0.1268 0.0000 ( 32025 PWs)   bands (ev):

   -67.0384 -67.0032 -66.9359 -66.9004 -66.7019 -66.6658 -33.5285 -33.4604
   -33.4290 -33.4257 -33.3653 -33.3584 -33.3580 -33.2908 -33.2746 -33.2327
   -33.2088 -33.1416 -33.0798 -32.8742 -32.8035 -32.7499 -32.6950 -32.6754
   -18.7634 -18.7610 -18.7593 -18.7580 -18.7298 -18.7185 -18.7111 -18.7046
   -18.6963 -18.6748 -18.6638 -18.6616 -18.6491 -18.6465 -18.6449 -18.6434
   -18.6391 -18.6312 -18.6224 -18.6111 -18.6055 -18.5987 -18.5919 -18.5704
   -18.5630 -18.5609 -18.5385 -18.5306 -18.3967 -18.3966 -18.3865 -18.3840
   -18.3813 -18.3806 -18.3804 -18.3738 -18.3533 -18.3415 -18.3334 -18.3254
   -18.3077 -18.3062  -5.9626  -5.8953  -5.8735  -5.8605  -5.8058  -5.7620
    -5.7457  -5.7453  -5.6639  -5.6186  -5.6033  -5.5877  -5.5769  -5.5462
    -5.5320  -5.4938  -5.4784  -5.4109  -5.4008  -5.3992  -5.3644  -5.3557
    -5.3306  -5.3254  -5.2829  -5.2680  -5.2566  -5.2195  -5.1973  -5.1272
    -5.1197  -4.1181  -3.9151  -3.4167  -2.6848  -2.3068  -1.8230  -1.6148
    -1.1138  -0.5942  -0.4683  -0.2586  -0.1593   0.0852   0.2132   0.2485
     0.7240   0.7389   0.9278   1.2958   1.2978   1.6087   1.9201   2.1361
     2.4058   2.6161   2.6732   3.3260   3.4375   3.7118   3.8160   3.8245
     4.1757   4.2197   4.3596   4.6216   4.8546   4.9815   5.5550   5.8454
     6.0485   6.0928   6.3152   6.3606

          k = 0.0441-0.1099 0.0000 ( 32017 PWs)   bands (ev):

   -67.0333 -67.0084 -66.9307 -66.9056 -66.6966 -66.6711 -33.5190 -33.4698
   -33.4197 -33.3738 -33.3491 -33.3475 -33.2998 -33.2805 -33.2655 -33.2188
   -33.1528 -33.1318 -33.0897 -32.9573 -32.8872 -32.7599 -32.7416 -32.7032
   -18.7630 -18.7613 -18.7591 -18.7582 -18.7280 -18.7201 -18.7102 -18.7056
   -18.6932 -18.6780 -18.6596 -18.6584 -18.6487 -18.6468 -18.6447 -18.6436
   -18.6424 -18.6366 -18.6206 -18.6127 -18.6045 -18.5997 -18.5889 -18.5736
   -18.5588 -18.5577 -18.5418 -18.5360 -18.3944 -18.3941 -18.3855 -18.3855
   -18.3827 -18.3811 -18.3802 -18.3749 -18.3520 -18.3437 -18.3301 -18.3230
   -18.3109 -18.3104  -5.8616  -5.8540  -5.8225  -5.8153  -5.7875  -5.7769
    -5.7530  -5.7275  -5.6620  -5.6379  -5.5790  -5.5626  -5.5266  -5.5158
    -5.5018  -5.4732  -5.4600  -5.4158  -5.4043  -5.3810  -5.3751  -5.3625
    -5.3420  -5.3336  -5.3083  -5.2933  -5.2886  -5.2570  -5.2252  -5.1921
    -4.8983  -4.4893  -4.0727  -3.1239  -3.0861  -2.3275  -2.0212  -1.2154
    -1.1365  -0.4028  -0.3193  -0.0852   0.0444   0.2797   0.3314   0.3994
     0.7454   0.9643   1.0540   1.3859   1.4697   1.6624   1.8396   2.1028
     2.3207   2.5374   2.6150   3.1329   3.1387   3.4624   3.5963   3.8289
     3.9529   4.0645   4.1944   4.2195   4.5932   5.1796   5.2509   5.4680
     6.0319   6.2111   6.4528   6.6412

          k = 0.0441-0.0929 0.0000 ( 31997 PWs)   bands (ev):

   -67.0273 -67.0144 -66.9247 -66.9117 -66.6905 -66.6772 -33.5077 -33.4810
   -33.4087 -33.3847 -33.3385 -33.3102 -33.2553 -33.2547 -33.2294 -33.1876
   -33.1206 -33.1009 -33.0599 -33.0530 -32.9837 -32.8567 -32.7323 -32.7127
   -18.7626 -18.7615 -18.7589 -18.7584 -18.7260 -18.7219 -18.7090 -18.7066
   -18.6897 -18.6818 -18.6546 -18.6545 -18.6483 -18.6471 -18.6462 -18.6444
   -18.6438 -18.6425 -18.6186 -18.6145 -18.6033 -18.6008 -18.5853 -18.5774
   -18.5540 -18.5538 -18.5457 -18.5419 -18.3920 -18.3912 -18.3873 -18.3852
   -18.3844 -18.3819 -18.3789 -18.3762 -18.3503 -18.3460 -18.3260 -18.3201
   -18.3160 -18.3136  -5.8285  -5.8163  -5.7997  -5.7962  -5.7882  -5.7759
    -5.7492  -5.7429  -5.7214  -5.6859  -5.5602  -5.5229  -5.5111  -5.4886
    -5.4682  -5.4386  -5.4381  -5.4177  -5.4123  -5.4057  -5.3726  -5.3637
    -5.3478  -5.3440  -5.3357  -5.3323  -5.3194  -5.2840  -5.2771  -5.2644
    -4.9523  -4.5674  -3.9760  -3.5522  -2.6894  -2.3188  -2.2542  -0.9554
    -0.7266  -0.2586  -0.1413   0.0983   0.2795   0.4023   0.4645   0.7113
     0.8537   0.9357   1.3233   1.3875   1.5802   1.6535   1.8979   2.1304
     2.2342   2.4206   2.5174   2.7457   2.9067   3.2090   3.2822   3.3307
     3.9312   4.0093   4.0645   4.1346   4.4798   4.8733   5.0261   5.5030
     6.1807   6.3292   6.4391   6.6910

          k = 0.0441-0.0760 0.0000 ( 32061 PWs)   bands (ev):

   -67.0209 -67.0208 -66.9182 -66.9182 -66.6839 -66.6838 -33.4955 -33.4930
   -33.3970 -33.3964 -33.3268 -33.3216 -33.2431 -33.2407 -33.1551 -33.1544
   -33.1129 -33.1087 -33.0867 -33.0858 -32.9592 -32.9589 -32.7229 -32.7221
   -18.7622 -18.7619 -18.7586 -18.7586 -18.7239 -18.7239 -18.7079 -18.7078
   -18.6858 -18.6857 -18.6507 -18.6504 -18.6487 -18.6487 -18.6478 -18.6475
   -18.6441 -18.6441 -18.6165 -18.6165 -18.6021 -18.6020 -18.5814 -18.5813
   -18.5500 -18.5498 -18.5480 -18.5480 -18.3896 -18.3895 -18.3881 -18.3881
   -18.3833 -18.3830 -18.3776 -18.3775 -18.3484 -18.3482 -18.3212 -18.3212
   -18.3170 -18.3169  -5.8899  -5.8436  -5.8152  -5.8136  -5.7908  -5.7841
    -5.7576  -5.7523  -5.7089  -5.7038  -5.6764  -5.5600  -5.5127  -5.4677
    -5.4629  -5.4480  -5.4314  -5.4177  -5.3957  -5.3946  -5.3824  -5.3769
    -5.3711  -5.3639  -5.3501  -5.3207  -5.3182  -5.3171  -5.3047  -5.3002
    -5.1801  -4.2859  -3.9247  -3.7151  -2.5948  -2.4597  -1.9250  -0.7275
    -0.2547  -0.1179   0.0313   0.3106   0.3480   0.4983   0.6459   0.7780
     1.0495   1.0704   1.1061   1.5159   1.5296   1.5770   2.0199   2.1425
     2.2458   2.3133   2.4360   2.5625   2.5757   2.8337   2.9106   3.3089
     3.9605   4.0703   4.1003   4.1948   4.4045   4.6536   4.7337   5.7416
     6.1117   6.4285   6.5143   6.5503

          k = 0.0441-0.0591 0.0000 ( 32064 PWs)   bands (ev):

   -67.0273 -67.0144 -66.9247 -66.9117 -66.6905 -66.6773 -33.5051 -33.4831
   -33.4081 -33.3851 -33.3331 -33.3149 -33.2544 -33.2522 -33.2314 -33.1866
   -33.1246 -33.0968 -33.0603 -33.0536 -32.9844 -32.8563 -32.7330 -32.7119
   -18.7624 -18.7618 -18.7588 -18.7584 -18.7259 -18.7219 -18.7090 -18.7067
   -18.6896 -18.6818 -18.6544 -18.6544 -18.6480 -18.6474 -18.6465 -18.6443
   -18.6439 -18.6426 -18.6186 -18.6145 -18.6032 -18.6008 -18.5852 -18.5774
   -18.5538 -18.5537 -18.5459 -18.5420 -18.3919 -18.3911 -18.3874 -18.3852
   -18.3841 -18.3822 -18.3788 -18.3763 -18.3503 -18.3461 -18.3260 -18.3201
[...]
    -5.5033  -5.5030  -5.4860  -5.4193  -5.4008  -5.3890  -5.3484  -5.3403
    -5.3086  -5.2930  -5.2423  -5.2364  -5.2207  -5.1892  -5.1580  -5.0667
    -4.8638  -4.7100  -3.4421  -3.3504  -2.9598  -2.3344  -1.5245  -1.4930
    -1.3483  -1.1997  -0.8234  -0.4621  -0.3297  -0.2947  -0.0968   0.0119
     0.4810   0.6792   0.7772   0.9864   1.1013   1.3058   2.1052   2.2116
     2.6091   2.7547   2.7806   3.4147   3.6616   3.7323   3.8192   3.8435
     4.3683   4.4148   4.5912   4.7866   5.0544   5.2386   5.6106   5.9762
     5.9797   6.4724   6.5210   6.8541

          k = 0.0735-0.1097 0.0000 ( 31991 PWs)   bands (ev):

   -67.0384 -67.0032 -66.9359 -66.9004 -66.7019 -66.6658 -33.5290 -33.4601
   -33.4291 -33.4259 -33.3653 -33.3588 -33.3585 -33.2903 -33.2749 -33.2326
   -33.2086 -33.1411 -33.0804 -32.8741 -32.8035 -32.7498 -32.6951 -32.6754
   -18.7634 -18.7609 -18.7593 -18.7580 -18.7298 -18.7185 -18.7111 -18.7046
   -18.6963 -18.6748 -18.6638 -18.6616 -18.6492 -18.6464 -18.6449 -18.6434
   -18.6390 -18.6312 -18.6224 -18.6111 -18.6055 -18.5987 -18.5919 -18.5704
   -18.5630 -18.5609 -18.5385 -18.5306 -18.3967 -18.3966 -18.3865 -18.3840
   -18.3813 -18.3806 -18.3803 -18.3738 -18.3533 -18.3415 -18.3334 -18.3254
   -18.3076 -18.3062  -5.9334  -5.8874  -5.8366  -5.8254  -5.7856  -5.7563
    -5.7411  -5.6933  -5.6338  -5.6082  -5.5969  -5.5739  -5.5696  -5.5320
    -5.5071  -5.4828  -5.4759  -5.4074  -5.3990  -5.3875  -5.3551  -5.3541
    -5.3279  -5.3198  -5.2712  -5.2582  -5.2577  -5.2210  -5.1886  -5.1207
    -4.8927  -4.4144  -4.0039  -3.2129  -2.7248  -2.7209  -1.6897  -1.3967
    -1.3331  -0.8766  -0.4335  -0.2839  -0.2359  -0.0167   0.0805   0.1730
     0.7004   0.7371   0.8832   1.2415   1.2500   1.5263   2.0100   2.1654
     2.5518   2.6222   2.6852   3.2592   3.4146   3.5454   3.7425   3.8957
     4.1970   4.2552   4.2596   4.6618   5.0120   5.1485   5.5477   5.8129
     5.9067   5.9454   6.5974   6.8602

          k = 0.0735-0.0928 0.0000 ( 32017 PWs)   bands (ev):

   -67.0333 -67.0084 -66.9307 -66.9056 -66.6966 -66.6711 -33.5190 -33.4698
   -33.4197 -33.3738 -33.3491 -33.3475 -33.2998 -33.2805 -33.2655 -33.2188
   -33.1528 -33.1318 -33.0897 -32.9573 -32.8872 -32.7599 -32.7416 -32.7032
   -18.7630 -18.7613 -18.7591 -18.7582 -18.7280 -18.7201 -18.7102 -18.7056
   -18.6932 -18.6780 -18.6596 -18.6584 -18.6487 -18.6468 -18.6447 -18.6436
   -18.6424 -18.6366 -18.6206 -18.6127 -18.6045 -18.5997 -18.5889 -18.5736
   -18.5588 -18.5577 -18.5418 -18.5360 -18.3944 -18.3941 -18.3855 -18.3855
   -18.3827 -18.3811 -18.3802 -18.3749 -18.3520 -18.3437 -18.3301 -18.3230
   -18.3109 -18.3104  -5.8616  -5.8540  -5.8225  -5.8153  -5.7875  -5.7769
    -5.7529  -5.7275  -5.6620  -5.6379  -5.5790  -5.5626  -5.5266  -5.5158
    -5.5018  -5.4732  -5.4600  -5.4158  -5.4043  -5.3810  -5.3751  -5.3625
    -5.3420  -5.3336  -5.3083  -5.2933  -5.2886  -5.2570  -5.2252  -5.1921
    -4.8983  -4.4893  -4.0727  -3.1239  -3.0861  -2.3275  -2.0212  -1.2154
    -1.1365  -0.4028  -0.3193  -0.0852   0.0444   0.2797   0.3314   0.3994
     0.7454   0.9643   1.0540   1.3859   1.4697   1.6624   1.8396   2.1028
     2.3207   2.5374   2.6150   3.1329   3.1387   3.4624   3.5963   3.8289
     3.9529   4.0645   4.1944   4.2195   4.5932   5.1796   5.2509   5.4680
     6.0319   6.2111   6.4529   6.6412

          k = 0.0735-0.0759 0.0000 ( 32048 PWs)   bands (ev):

   -67.0273 -67.0144 -66.9247 -66.9117 -66.6905 -66.6772 -33.5074 -33.4813
   -33.4087 -33.3848 -33.3377 -33.3108 -33.2552 -33.2544 -33.2298 -33.1875
   -33.1211 -33.1004 -33.0600 -33.0531 -32.9838 -32.8566 -32.7324 -32.7126
   -18.7626 -18.7616 -18.7589 -18.7584 -18.7260 -18.7219 -18.7091 -18.7066
   -18.6897 -18.6818 -18.6546 -18.6545 -18.6482 -18.6472 -18.6463 -18.6444
   -18.6438 -18.6426 -18.6186 -18.6145 -18.6033 -18.6008 -18.5853 -18.5774
   -18.5540 -18.5538 -18.5457 -18.5419 -18.3920 -18.3912 -18.3873 -18.3852
   -18.3844 -18.3820 -18.3789 -18.3762 -18.3503 -18.3460 -18.3260 -18.3201
   -18.3160 -18.3136  -5.8402  -5.8369  -5.8154  -5.8154  -5.7974  -5.7779
    -5.7526  -5.7487  -5.7171  -5.6744  -5.5630  -5.5353  -5.5199  -5.5089
    -5.4776  -5.4425  -5.4390  -5.4188  -5.4150  -5.3950  -5.3775  -5.3585
    -5.3562  -5.3417  -5.3298  -5.3274  -5.3190  -5.2877  -5.2704  -5.2639
    -4.8641  -4.8398  -3.7769  -3.4774  -2.8800  -2.3141  -1.9124  -0.9647
    -0.9159  -0.3629   0.0878   0.0916   0.3369   0.3917   0.6432   0.6685
     0.8601   1.0343   1.2792   1.3089   1.6822   1.6961   1.7210   2.0169
     2.0951   2.4068   2.4789   2.9665   3.0013   3.3252   3.3358   3.5822
     3.9228   3.9816   4.0013   4.2585   4.3379   4.8443   5.1495   5.3306
     5.7121   6.3104   6.4658   6.5753

          k = 0.0735-0.0589 0.0000 ( 32067 PWs)   bands (ev):

   -67.0209 -67.0209 -66.9182 -66.9182 -66.6839 -66.6839 -33.4948 -33.4936
   -33.3969 -33.3966 -33.3254 -33.3228 -33.2426 -33.2414 -33.1549 -33.1546
   -33.1118 -33.1097 -33.0865 -33.0860 -32.9591 -32.9589 -32.7227 -32.7223
   -18.7622 -18.7620 -18.7586 -18.7586 -18.7239 -18.7239 -18.7079 -18.7078
   -18.6858 -18.6857 -18.6505 -18.6504 -18.6487 -18.6487 -18.6477 -18.6476
   -18.6441 -18.6441 -18.6165 -18.6165 -18.6021 -18.6020 -18.5814 -18.5814
   -18.5499 -18.5498 -18.5480 -18.5480 -18.3896 -18.3896 -18.3881 -18.3881
   -18.3832 -18.3831 -18.3776 -18.3775 -18.3483 -18.3483 -18.3212 -18.3212
   -18.3169 -18.3169  -5.8869  -5.8671  -5.8240  -5.8208  -5.7875  -5.7780
    -5.7641  -5.7496  -5.7067  -5.7045  -5.6006  -5.5650  -5.5189  -5.5117
    -5.4435  -5.4427  -5.4271  -5.4192  -5.3997  -5.3943  -5.3835  -5.3813
    -5.3654  -5.3591  -5.3302  -5.3247  -5.3156  -5.3111  -5.2998  -5.2992
    -5.0876  -4.7029  -3.7647  -3.5164  -2.6329  -2.5596  -1.4998  -1.0332
    -0.5980  -0.3878   0.1465   0.3168   0.4712   0.5341   0.8402   0.9222
     0.9953   1.1229   1.1439   1.2247   1.5951   1.6651   1.7968   1.9212
     2.0886   2.2090   2.6064   2.6143   2.8893   3.1029   3.2707   3.7828
     3.8227   4.0230   4.1751   4.2995   4.3747   4.5983   4.7718   5.3808
     5.5183   5.7488   6.5343   6.6103

          k =-0.0882 0.0504 0.0000 ( 32034 PWs)   bands (ev):

   -67.0209 -67.0209 -66.9182 -66.9182 -66.6839 -66.6839 -33.4942 -33.4942
   -33.3968 -33.3968 -33.3240 -33.3240 -33.2420 -33.2420 -33.1547 -33.1547
   -33.1107 -33.1107 -33.0862 -33.0862 -32.9590 -32.9590 -32.7225 -32.7225
   -18.7621 -18.7621 -18.7586 -18.7586 -18.7239 -18.7239 -18.7078 -18.7078
   -18.6857 -18.6857 -18.6505 -18.6505 -18.6487 -18.6487 -18.6477 -18.6477
   -18.6441 -18.6441 -18.6165 -18.6165 -18.6020 -18.6020 -18.5814 -18.5814
   -18.5499 -18.5499 -18.5480 -18.5480 -18.3895 -18.3895 -18.3881 -18.3881
   -18.3832 -18.3832 -18.3775 -18.3775 -18.3483 -18.3483 -18.3212 -18.3212
   -18.3169 -18.3169  -5.8796  -5.8796  -5.8246  -5.8246  -5.7843  -5.7843
    -5.7538  -5.7538  -5.7056  -5.7056  -5.5724  -5.5724  -5.5211  -5.5210
    -5.4420  -5.4419  -5.4247  -5.4247  -5.3948  -5.3948  -5.3831  -5.3831
    -5.3605  -5.3605  -5.3258  -5.3258  -5.3130  -5.3130  -5.2979  -5.2978
    -4.9329  -4.9329  -3.6113  -3.6112  -2.5848  -2.5848  -1.2622  -1.2622
    -0.5695  -0.5695   0.1980   0.1980   0.5764   0.5764   0.9164   0.9164
     1.0324   1.0324   1.1928   1.1928   1.6126   1.6126   1.8230   1.8231
     2.1163   2.1163   2.6282   2.6282   3.0810   3.0810   3.6251   3.6251
     3.9029   3.9030   4.3486   4.3486   4.4735   4.4735   4.9369   4.9369
     5.5005   5.5006   6.5073   6.5074

          k =-0.0882 0.0673 0.0000 ( 32052 PWs)   bands (ev):

   -67.0273 -67.0144 -66.9247 -66.9117 -66.6905 -66.6772 -33.5067 -33.4818
   -33.4086 -33.3850 -33.3364 -33.3118 -33.2550 -33.2539 -33.2303 -33.1872
   -33.1220 -33.0994 -33.0601 -33.0532 -32.9839 -32.8565 -32.7325 -32.7124
   -18.7625 -18.7617 -18.7589 -18.7584 -18.7260 -18.7219 -18.7090 -18.7066
   -18.6897 -18.6818 -18.6545 -18.6545 -18.6482 -18.6472 -18.6463 -18.6444
   -18.6438 -18.6426 -18.6186 -18.6145 -18.6033 -18.6008 -18.5853 -18.5774
   -18.5539 -18.5538 -18.5458 -18.5419 -18.3920 -18.3912 -18.3873 -18.3852
   -18.3843 -18.3821 -18.3789 -18.3762 -18.3503 -18.3460 -18.3260 -18.3201
   -18.3161 -18.3136  -5.8845  -5.8715  -5.8302  -5.8276  -5.8011  -5.7903
    -5.7587  -5.7580  -5.7121  -5.6719  -5.5771  -5.5693  -5.5278  -5.5261
    -5.4890  -5.4460  -5.4456  -5.4183  -5.4181  -5.3848  -5.3843  -5.3654
    -5.3562  -5.3411  -5.3282  -5.3229  -5.3168  -5.2929  -5.2650  -5.2623
    -5.0611  -4.6974  -3.8094  -3.3557  -2.8406  -2.3369  -1.6370  -0.9935
    -0.8583  -0.5323   0.1199   0.2754   0.4287   0.4403   0.6576   0.8044
     0.9504   1.0788   1.2090   1.2762   1.5731   1.7194   1.7728   1.8737
     1.9524   2.4091   2.4491   2.9999   3.1473   3.2986   3.5402   3.8137
     3.8274   3.9339   4.1582   4.3004   4.5012   4.7769   4.7800   5.2400
     5.4691   5.8019   6.3602   6.6724

          k =-0.0882 0.0843 0.0000 ( 32028 PWs)   bands (ev):

   -67.0333 -67.0084 -66.9307 -66.9056 -66.6966 -66.6711 -33.5184 -33.4702
   -33.4196 -33.3739 -33.3479 -33.3473 -33.3005 -33.2803 -33.2650 -33.2192
   -33.1528 -33.1325 -33.0888 -32.9574 -32.8873 -32.7598 -32.7417 -32.7030
   -18.7630 -18.7613 -18.7591 -18.7582 -18.7280 -18.7201 -18.7101 -18.7056
   -18.6932 -18.6780 -18.6596 -18.6583 -18.6487 -18.6468 -18.6446 -18.6436
   -18.6425 -18.6366 -18.6206 -18.6127 -18.6044 -18.5996 -18.5888 -18.5737
   -18.5588 -18.5577 -18.5419 -18.5360 -18.3944 -18.3941 -18.3855 -18.3855
   -18.3827 -18.3812 -18.3802 -18.3749 -18.3520 -18.3437 -18.3301 -18.3230
   -18.3109 -18.3105  -5.8908  -5.8682  -5.8667  -5.8590  -5.8194  -5.7821
    -5.7634  -5.7552  -5.6622  -5.6430  -5.5876  -5.5855  -5.5585  -5.5350
    -5.5139  -5.4859  -5.4710  -5.4166  -5.4139  -5.3808  -5.3745  -5.3630
    -5.3496  -5.3358  -5.3124  -5.2941  -5.2898  -5.2588  -5.2296  -5.1878
    -5.1141  -4.3530  -3.9643  -3.1295  -3.0423  -2.0775  -1.9913  -1.2729
    -0.9953  -0.5226  -0.0481  -0.0066   0.1426   0.2986   0.3720   0.5721
     0.8211   0.9885   1.0455   1.3868   1.4772   1.7154   1.8056   1.9496
     2.1701   2.5306   2.5872   3.1898   3.2799   3.6844   3.7423   3.7565
     3.9819   4.0330   4.1398   4.3485   4.4635   5.0239   5.2049   5.2880
     5.9013   6.1750   6.2407   6.5531

          k =-0.0882 0.1012 0.0000 ( 32025 PWs)   bands (ev):

   -67.0384 -67.0032 -66.9359 -66.9004 -66.7019 -66.6658 -33.5285 -33.4604
   -33.4290 -33.4257 -33.3653 -33.3584 -33.3580 -33.2908 -33.2746 -33.2327
   -33.2088 -33.1416 -33.0798 -32.8742 -32.8035 -32.7499 -32.6950 -32.6754
   -18.7634 -18.7610 -18.7593 -18.7580 -18.7298 -18.7185 -18.7111 -18.7046
   -18.6963 -18.6748 -18.6638 -18.6616 -18.6491 -18.6465 -18.6449 -18.6434
   -18.6391 -18.6312 -18.6224 -18.6111 -18.6055 -18.5987 -18.5919 -18.5704
   -18.5630 -18.5609 -18.5385 -18.5306 -18.3967 -18.3966 -18.3865 -18.3840
   -18.3813 -18.3806 -18.3804 -18.3738 -18.3533 -18.3415 -18.3334 -18.3254
   -18.3077 -18.3062  -5.9626  -5.8953  -5.8735  -5.8605  -5.8058  -5.7620
    -5.7457  -5.7453  -5.6639  -5.6186  -5.6033  -5.5877  -5.5769  -5.5462
    -5.5320  -5.4938  -5.4784  -5.4109  -5.4008  -5.3992  -5.3644  -5.3557
    -5.3306  -5.3254  -5.2829  -5.2680  -5.2566  -5.2195  -5.1973  -5.1272
    -5.1197  -4.1181  -3.9151  -3.4167  -2.6848  -2.3068  -1.8230  -1.6148
    -1.1138  -0.5942  -0.4683  -0.2586  -0.1593   0.0852   0.2132   0.2485
     0.7240   0.7389   0.9278   1.2958   1.2978   1.6087   1.9201   2.1361
     2.4058   2.6161   2.6732   3.3260   3.4375   3.7118   3.8160   3.8245
     4.1757   4.2197   4.3596   4.6216   4.8546   4.9815   5.5550   5.8454
     6.0485   6.0928   6.3152   6.3606

          k =-0.0882 0.1181 0.0000 ( 32026 PWs)   bands (ev):

   -67.0424 -66.9992 -66.9398 -66.8964 -66.7059 -66.6617 -33.5363 -33.4857
   -33.4526 -33.4362 -33.4197 -33.3657 -33.3569 -33.2926 -33.2830 -33.2819
   -33.2021 -33.1485 -33.0728 -32.8097 -32.7566 -32.7379 -32.6887 -32.6101
   -18.7637 -18.7608 -18.7595 -18.7579 -18.7312 -18.7174 -18.7118 -18.7039
   -18.6986 -18.6723 -18.6670 -18.6640 -18.6495 -18.6462 -18.6450 -18.6433
   -18.6365 -18.6269 -18.6239 -18.6100 -18.6062 -18.5979 -18.5941 -18.5678
   -18.5661 -18.5633 -18.5360 -18.5263 -18.3988 -18.3984 -18.3873 -18.3830
   -18.3821 -18.3797 -18.3790 -18.3729 -18.3542 -18.3398 -18.3358 -18.3271
   -18.3055 -18.3024  -6.0251  -5.9182  -5.8669  -5.8621  -5.7994  -5.7466
    -5.7465  -5.7305  -5.6695  -5.6299  -5.6189  -5.5667  -5.5565  -5.5431
    -5.5128  -5.5098  -5.4793  -5.4210  -5.4024  -5.3939  -5.3508  -5.3481
    -5.3135  -5.2979  -5.2488  -5.2443  -5.2244  -5.1885  -5.1676  -5.1178
    -5.0670  -4.3433  -3.5836  -3.4014  -2.6301  -2.3258  -1.7674  -1.6526
    -1.1401  -0.8869  -0.8790  -0.4234  -0.3719  -0.0961  -0.0957   0.0491
     0.4834   0.7064   0.8049   1.0308   1.1373   1.3687   2.0416   2.2402
     2.5781   2.7027   2.7704   3.4498   3.6137   3.7677   3.7838   3.9006
     4.3537   4.4513   4.5847   4.7941   4.9796   5.1875   5.7102   5.9506
     5.9913   6.3019   6.5676   6.8501

          k =-0.0882 0.1351 0.0000 ( 32051 PWs)   bands (ev):

   -67.0449 -66.9967 -66.9423 -66.8939 -66.7085 -66.6591 -33.5412 -33.5229
   -33.4574 -33.4478 -33.4408 -33.3705 -33.3523 -33.3297 -33.2866 -33.2787
   -33.1976 -33.1529 -33.0685 -32.7689 -32.7601 -32.6970 -32.6848 -32.5687
   -18.7639 -18.7606 -18.7596 -18.7578 -18.7321 -18.7167 -18.7123 -18.7035
   -18.7000 -18.6707 -18.6689 -18.6656 -18.6498 -18.6461 -18.6452 -18.6432
   -18.6349 -18.6249 -18.6241 -18.6093 -18.6068 -18.5975 -18.5955 -18.5680
   -18.5662 -18.5648 -18.5344 -18.5235 -18.4002 -18.3995 -18.3878 -18.3827
   -18.3824 -18.3794 -18.3781 -18.3724 -18.3548 -18.3386 -18.3373 -18.3283
   -18.3041 -18.2999  -6.0625  -5.9324  -5.8645  -5.8605  -5.7978  -5.7758
    -5.7367  -5.7179  -5.6882  -5.6260  -5.5813  -5.5668  -5.5415  -5.5188
    -5.5124  -5.4981  -5.4841  -5.4326  -5.3983  -5.3966  -5.3437  -5.3419
    -5.3038  -5.2625  -5.2359  -5.2160  -5.1921  -5.1692  -5.1384  -5.0659
    -5.0339  -4.6285  -3.5972  -2.9166  -2.8383  -2.0749  -1.7574  -1.6445
    -1.3939  -1.2149  -0.8172  -0.5496  -0.5148  -0.3725  -0.2122  -0.0687
     0.3245   0.5823   0.7046   0.8440   1.0366   1.1308   2.0594   2.3303
     2.6225   2.8173   2.8603   3.5460   3.6887   3.7147   3.9038   4.0556
     4.4407   4.5807   4.7290   4.9216   4.9859   5.2422   5.4889   6.1689
     6.3131   6.3362   6.7752   7.0596

          k =-0.0882-0.0512 0.0000 ( 32070 PWs)   bands (ev):

   -67.0457 -66.9959 -66.9432 -66.8931 -66.7093 -66.6582 -33.5429 -33.5356
   -33.4701 -33.4463 -33.4423 -33.3722 -33.3507 -33.3424 -33.2881 -33.2771
   -33.1961 -33.1544 -33.0670 -32.7615 -32.7548 -32.6835 -32.6830 -32.5546
   -18.7640 -18.7606 -18.7596 -18.7578 -18.7324 -18.7164 -18.7125 -18.7033
   -18.7005 -18.6701 -18.6696 -18.6661 -18.6499 -18.6461 -18.6452 -18.6432
   -18.6343 -18.6252 -18.6231 -18.6091 -18.6069 -18.5973 -18.5960 -18.5687
   -18.5657 -18.5654 -18.5338 -18.5226 -18.4007 -18.3999 -18.3880 -18.3828
   -18.3822 -18.3793 -18.3778 -18.3722 -18.3550 -18.3382 -18.3378 -18.3287
   -18.3037 -18.2990  -6.0749  -5.9371  -5.8655  -5.8575  -5.7979  -5.7878
    -5.7333  -5.7130  -5.6990  -5.6291  -5.5698  -5.5462  -5.5326  -5.5218
    -5.5068  -5.5012  -5.4780  -5.4366  -5.3993  -5.3971  -5.3423  -5.3390
    -5.3001  -5.2496  -5.2313  -5.2080  -5.1789  -5.1626  -5.1290  -5.0226
    -4.9386  -4.8476  -3.5677  -3.0455  -2.3979  -2.0361  -1.9671  -1.7045
    -1.3696  -1.3619  -0.6796  -0.6207  -0.5817  -0.4901  -0.2522  -0.1108
     0.2694   0.4505   0.6660   0.8225   1.0034   1.0355   2.0486   2.3716
     2.6375   2.8301   2.9198   3.5842   3.6556   3.7268   3.9920   4.1302
     4.4776   4.6284   4.6523   4.9447   5.1639   5.2850   5.3164   6.2461
     6.3797   6.4548   6.6905   7.0709

     the Fermi energy is     1.5805 ev

!    total energy              =   -4989.55959528 Ry
     estimated scf accuracy    <       0.00000586 Ry
     smearing contrib. (-TS)   =      -0.04625367 Ry
     internal energy E=F+TS    =   -4989.51334161 Ry

     The total energy is F=E-TS. E is the sum of the following terms:
     one-electron contribution =  -31882.05635268 Ry
     hartree contribution      =   16112.34999368 Ry
     xc contribution           =    -704.60370483 Ry
     ewald contribution        =   11484.79672092 Ry
     electric field correction =       0.00000130 Ry

     convergence has been achieved in  13 iterations

     negative rho (up, down):  3.009E-04 0.000E+00

     Forces acting on atoms (cartesian axes, Ry/au):

     atom    1 type  1   force =     0.00489757    0.00284313   -0.01356170
     atom    2 type  1   force =     0.00489484    0.00284465   -0.01355516
     atom    3 type  2   force =     0.00234749    0.00136513    0.02034376
     atom    4 type  2   force =     0.00234320    0.00135860    0.02033887
     atom    5 type  1   force =     0.00232975    0.00135326   -0.00575846
     atom    6 type  1   force =     0.00230073    0.00133510   -0.00575225
     atom    7 type  2   force =    -0.00995567   -0.00572574    0.00114922
     atom    8 type  2   force =    -0.00989838   -0.00580015    0.00115314
     atom    9 type  1   force =     0.00038063    0.00022169   -0.00162779
     atom   10 type  1   force =     0.00038170    0.00022027   -0.00162904
     atom   11 type  2   force =    -0.00002084   -0.00000135   -0.00055395
     atom   12 type  2   force =    -0.00000101   -0.00001459   -0.00054663

     Total force =     0.040337     Total SCF correction =     0.009012
     SCF correction compared to forces is large: reduce conv_thr to get better values

     Writing output data file ./Zn2Ta2/Zn2Ta2_beef.save/

     init_run     :    189.92s CPU    227.29s WALL (       1 calls)
     electrons    :   6746.41s CPU   8171.52s WALL (       1 calls)
     forces       :    134.15s CPU    198.89s WALL (       1 calls)

     Called by init_run:
     wfcinit      :    176.42s CPU    211.48s WALL (       1 calls)
     potinit      :      7.88s CPU      9.69s WALL (       1 calls)
     hinit0       :      2.01s CPU      2.13s WALL (       1 calls)

     Called by electrons:
     c_bands      :   6023.43s CPU   7223.56s WALL (      14 calls)
     sum_band     :    669.17s CPU    872.58s WALL (      14 calls)
     v_of_rho     :     26.94s CPU     43.34s WALL (      14 calls)
     newd         :     34.89s CPU     39.57s WALL (      14 calls)
     mix_rho      :      0.61s CPU      1.26s WALL (      14 calls)
     vdW_kernel   :      5.97s CPU      6.73s WALL (       1 calls)

     Called by c_bands:
     init_us_2    :     13.36s CPU     13.46s WALL (    2220 calls)
     cegterg      :   5982.66s CPU   7158.60s WALL (    1036 calls)

     Called by *egterg:
     cdiaghg      :    386.16s CPU    424.40s WALL (    5035 calls)
     h_psi        :   2592.35s CPU   3391.83s WALL (    5183 calls)
     s_psi        :    813.91s CPU    814.33s WALL (    5183 calls)
     g_psi        :      1.68s CPU      1.72s WALL (    4073 calls)

     Called by h_psi:
     h_psi:calbec :    936.40s CPU   1056.94s WALL (    5183 calls)
     vloc_psi     :    825.27s CPU   1503.63s WALL (    5183 calls)
     add_vuspsi   :    824.46s CPU    824.85s WALL (    5183 calls)

     General routines
     calbec       :   1477.82s CPU   1710.16s WALL (    6515 calls)
     fft          :     15.43s CPU     35.82s WALL (     942 calls)
     ffts         :      0.07s CPU      0.32s WALL (      28 calls)
     fftw         :    928.46s CPU   1741.47s WALL (  791804 calls)
     interpolate  :      0.28s CPU      0.68s WALL (      14 calls)

     Parallel routines
     fft_scatt_xy :     91.60s CPU    105.86s WALL (  792774 calls)
     fft_scatt_yz :    351.23s CPU   1109.47s WALL (  792774 calls)

     PWSCF        :      1h58m CPU      2h32m WALL


   This run was terminated on:   7:31:10  10Jul2022            

=------------------------------------------------------------------------------=
   JOB DONE.
=------------------------------------------------------------------------------=
