
     Program PWSCF v.6.6 starts on 11Jul2022 at  2:49:52 

     This program is part of the open-source Quantum ESPRESSO suite
     for quantum simulation of materials; please cite
         "P. Giannozzi et al., J. Phys.:Condens. Matter 21 395502 (2009);
         "P. Giannozzi et al., J. Phys.:Condens. Matter 29 465901 (2017);
          URL http://www.quantum-espresso.org", 
     in publications or presentations arising from this work. More details at
     http://www.quantum-espresso.org/quote

     Parallel version (MPI), running on    37 processors

     MPI processes distributed on     3 nodes
     R & G space division:  proc/nbgrp/npool/nimage =      37
     Fft bands division:     nmany     =       1
     Reading input from Zr2Nb2.in
Warning: card &CELL ignored
Warning: card / ignored

     Current dimensions of program PWSCF are:
     Max number of different atomic species (ntypx) = 10
     Max number of k-points (npk) =  40000
     Max angular momentum in pseudopotentials (lmaxx) =  3
     Presently stress not available with electric field and gates

     Message from routine cell_base_init:
     DEPRECATED: use true lattice parameter, not A to a.u. conversion factor
     file Zr.pbe-spn-rrkjus_psl.1.0.0.UPF: wavefunction(s)  4S renormalized
     file Nb.pbe-spn-rrkjus_psl.1.0.0.UPF: wavefunction(s)  4S 4P renormalized

     **************************************************************************
     Initializing libbeef V0.1.2 with the BEEF-vdW functional.
     Citation: Wellendorff et al., PRB 85, 235149 (2012).
     **************************************************************************


     IMPORTANT: XC functional enforced from input :
     Exchange-correlation= BEEF-VDW
                           (   1   4  43  14   2   0   0)
     Any further DFT definition will be discarded
     Please, verify this is what you really want


     Subspace diagonalization in iterative solution of the eigenvalue problem:
     a serial algorithm will be used

     Found symmetry operation: I + ( -0.5000  0.0000  0.0000)
     This is a supercell, fractional translations are disabled

     Parallelization info
     --------------------
     sticks:   dense  smooth     PW     G-vecs:    dense   smooth      PW
     Min         139      56     16                32855     8310    1270
     Max         140      57     17                32882     8322    1277
     Sum        5173    2075    595              1216253   307761   47161



     bravais-lattice index     =            0
     lattice parameter (alat)  =       1.8897  a.u.
     unit-cell volume          =    5565.3177 (a.u.)^3
     number of atoms/cell      =           12
     number of atomic types    =            2
     number of electrons       =       150.00
     number of Kohn-Sham states=           90
     kinetic-energy cutoff     =      55.1240  Ry
     charge density cutoff     =     551.2396  Ry
     convergence threshold     =      1.0E-05
     mixing beta               =       0.1000
     number of iterations used =           10  plain     mixing
     Exchange-correlation= BEEF-VDW
                           (   1   4  43  14   2   0   0)

     celldm(1)=   1.889726  celldm(2)=   0.000000  celldm(3)=   0.000000
     celldm(4)=   0.000000  celldm(5)=   0.000000  celldm(6)=   0.000000

     crystal axes: (cart. coord. in units of alat)
               a(1) = (   5.771306   0.000000   0.000000 )  
               a(2) = (  -2.885653   5.719724   0.000000 )  
               a(3) = (   0.000000   0.000000  24.982982 )  

     reciprocal axes: (cart. coord. in units 2 pi/alat)
               b(1) = (  0.173271  0.087417 -0.000000 )  
               b(2) = (  0.000000  0.174834  0.000000 )  
               b(3) = (  0.000000 -0.000000  0.040027 )  


     PseudoPot. # 1 for Zr read from file:
     ../pseudo/Zr.pbe-spn-rrkjus_psl.1.0.0.UPF
     MD5 check sum: 3d17ee99aa1707c2ccb6b09ed65e51a1
     Pseudo is Ultrasoft + core correction, Zval = 12.0
     Generated using "atomic" code by A. Dal Corso v.6.2.2
     Using radial grid of 1225 points,  6 beta functions with: 
                l(1) =   0
                l(2) =   0
                l(3) =   1
                l(4) =   1
                l(5) =   2
                l(6) =   2
     Q(r) pseudized with 0 coefficients 


     PseudoPot. # 2 for Nb read from file:
     ../pseudo/Nb.pbe-spn-rrkjus_psl.1.0.0.UPF
     MD5 check sum: 6ee677a9f002bd3e3657f443f129faad
     Pseudo is Ultrasoft + core correction, Zval = 13.0
     Generated using "atomic" code by A. Dal Corso v.6.2.2
     Using radial grid of 1227 points,  6 beta functions with: 
                l(1) =   0
                l(2) =   0
                l(3) =   1
                l(4) =   1
                l(5) =   2
                l(6) =   2
     Q(r) pseudized with 0 coefficients 


     atomic species   valence    mass     pseudopotential
        Zr            12.00    91.22400     Zr( 1.00)
        Nb            13.00    92.90637     Nb( 1.00)

     No symmetry found



   Cartesian axes

     site n.     atom                  positions (alat units)
         1           Zr  tau(   1) = (   0.0000000   0.0000000  10.0000000  )
         2           Zr  tau(   2) = (   2.8856530   0.0000000  10.0000000  )
         3           Nb  tau(   3) = (   1.4428265   2.8598620  10.0000000  )
         4           Nb  tau(   4) = (  -1.4428265   2.8598620  10.0000000  )
         5           Zr  tau(   5) = (   2.8856530   1.4558383  12.4914911  )
         6           Zr  tau(   6) = (   0.0000000   1.4558383  12.4914911  )
         7           Nb  tau(   7) = (  -1.4428265   4.3157002  12.4914911  )
         8           Nb  tau(   8) = (   1.4428265   4.3157002  12.4914911  )
         9           Zr  tau(   9) = (   0.0000186   3.0011908  15.0561672  )
        10           Zr  tau(  10) = (   2.8856713   3.0012177  15.0561710  )
        11           Nb  tau(  11) = (   4.3283902   0.0155793  14.7693476  )
        12           Nb  tau(  12) = (   1.4427138   0.0155792  14.7693456  )

     number of k points=    74  Fermi-Dirac smearing, width (Ry)=  0.0100
                       cart. coord. in units 2pi/alat
        k(    1) = (   0.0000000   0.0000000   0.0000000), wk =   0.0138889
        k(    2) = (   0.0000000   0.0145695   0.0000000), wk =   0.0277778
        k(    3) = (   0.0000000   0.0291389   0.0000000), wk =   0.0277778
        k(    4) = (   0.0000000   0.0437084   0.0000000), wk =   0.0277778
        k(    5) = (   0.0000000   0.0582779   0.0000000), wk =   0.0277778
        k(    6) = (   0.0000000   0.0728473   0.0000000), wk =   0.0277778
        k(    7) = (   0.0000000  -0.0874168   0.0000000), wk =   0.0138889
        k(    8) = (   0.0144393   0.0072847   0.0000000), wk =   0.0277778
        k(    9) = (   0.0144393   0.0218542   0.0000000), wk =   0.0277778
        k(   10) = (   0.0144393   0.0364237   0.0000000), wk =   0.0277778
        k(   11) = (   0.0144393   0.0509931   0.0000000), wk =   0.0277778
        k(   12) = (   0.0144393   0.0655626   0.0000000), wk =   0.0277778
        k(   13) = (   0.0144393   0.0801321   0.0000000), wk =   0.0277778
        k(   14) = (   0.0144393  -0.0801321   0.0000000), wk =   0.0277778
        k(   15) = (   0.0144393  -0.0655626   0.0000000), wk =   0.0277778
        k(   16) = (   0.0144393  -0.0509931   0.0000000), wk =   0.0277778
        k(   17) = (   0.0144393  -0.0364237   0.0000000), wk =   0.0277778
        k(   18) = (   0.0144393  -0.0218542   0.0000000), wk =   0.0277778
        k(   19) = (   0.0144393  -0.0072847   0.0000000), wk =   0.0277778
        k(   20) = (   0.0288785   0.0145695   0.0000000), wk =   0.0277778
        k(   21) = (   0.0288785   0.0291389   0.0000000), wk =   0.0277778
        k(   22) = (   0.0288785   0.0437084   0.0000000), wk =   0.0277778
        k(   23) = (   0.0288785   0.0582779   0.0000000), wk =   0.0277778
        k(   24) = (   0.0288785   0.0728473   0.0000000), wk =   0.0277778
        k(   25) = (   0.0288785   0.0874168   0.0000000), wk =   0.0277778
        k(   26) = (   0.0288785  -0.0728473   0.0000000), wk =   0.0277778
        k(   27) = (   0.0288785  -0.0582779   0.0000000), wk =   0.0277778
        k(   28) = (   0.0288785  -0.0437084   0.0000000), wk =   0.0277778
        k(   29) = (   0.0288785  -0.0291389   0.0000000), wk =   0.0277778
        k(   30) = (   0.0288785  -0.0145695   0.0000000), wk =   0.0277778
        k(   31) = (   0.0288785  -0.0000000   0.0000000), wk =   0.0277778
        k(   32) = (   0.0433178   0.0218542   0.0000000), wk =   0.0277778
        k(   33) = (   0.0433178   0.0364237   0.0000000), wk =   0.0277778
        k(   34) = (   0.0433178   0.0509931   0.0000000), wk =   0.0277778
        k(   35) = (   0.0433178   0.0655626   0.0000000), wk =   0.0277778
        k(   36) = (   0.0433178   0.0801321   0.0000000), wk =   0.0277778
        k(   37) = (   0.0433178   0.0947015   0.0000000), wk =   0.0277778
        k(   38) = (   0.0433178  -0.0655626   0.0000000), wk =   0.0277778
        k(   39) = (   0.0433178  -0.0509931   0.0000000), wk =   0.0277778
        k(   40) = (   0.0433178  -0.0364237   0.0000000), wk =   0.0277778
        k(   41) = (   0.0433178  -0.0218542   0.0000000), wk =   0.0277778
        k(   42) = (   0.0433178  -0.0072847   0.0000000), wk =   0.0277778
        k(   43) = (   0.0433178   0.0072847   0.0000000), wk =   0.0277778
        k(   44) = (   0.0577570   0.0291389   0.0000000), wk =   0.0277778
        k(   45) = (   0.0577570   0.0437084   0.0000000), wk =   0.0277778
        k(   46) = (   0.0577570   0.0582779   0.0000000), wk =   0.0277778
        k(   47) = (   0.0577570   0.0728473   0.0000000), wk =   0.0277778
        k(   48) = (   0.0577570   0.0874168   0.0000000), wk =   0.0277778
        k(   49) = (   0.0577570   0.1019863   0.0000000), wk =   0.0277778
        k(   50) = (   0.0577570  -0.0582779   0.0000000), wk =   0.0277778
        k(   51) = (   0.0577570  -0.0437084   0.0000000), wk =   0.0277778
        k(   52) = (   0.0577570  -0.0291389   0.0000000), wk =   0.0277778
        k(   53) = (   0.0577570  -0.0145695   0.0000000), wk =   0.0277778
        k(   54) = (   0.0577570   0.0000000   0.0000000), wk =   0.0277778
        k(   55) = (   0.0577570   0.0145695   0.0000000), wk =   0.0277778
        k(   56) = (   0.0721963   0.0364237   0.0000000), wk =   0.0277778
        k(   57) = (   0.0721963   0.0509931   0.0000000), wk =   0.0277778
        k(   58) = (   0.0721963   0.0655626   0.0000000), wk =   0.0277778
        k(   59) = (   0.0721963   0.0801321   0.0000000), wk =   0.0277778
        k(   60) = (   0.0721963   0.0947015   0.0000000), wk =   0.0277778
        k(   61) = (   0.0721963   0.1092710   0.0000000), wk =   0.0277778
        k(   62) = (   0.0721963  -0.0509931   0.0000000), wk =   0.0277778
        k(   63) = (   0.0721963  -0.0364237   0.0000000), wk =   0.0277778
        k(   64) = (   0.0721963  -0.0218542   0.0000000), wk =   0.0277778
        k(   65) = (   0.0721963  -0.0072847   0.0000000), wk =   0.0277778
        k(   66) = (   0.0721963   0.0072847   0.0000000), wk =   0.0277778
        k(   67) = (   0.0721963   0.0218542   0.0000000), wk =   0.0277778
        k(   68) = (  -0.0866355  -0.0437084   0.0000000), wk =   0.0138889
        k(   69) = (  -0.0866355  -0.0291389   0.0000000), wk =   0.0277778
        k(   70) = (  -0.0866355  -0.0145695   0.0000000), wk =   0.0277778
        k(   71) = (  -0.0866355   0.0000000   0.0000000), wk =   0.0277778
        k(   72) = (  -0.0866355   0.0145695   0.0000000), wk =   0.0277778
        k(   73) = (  -0.0866355   0.0291389   0.0000000), wk =   0.0277778
        k(   74) = (  -0.0866355  -0.1311252   0.0000000), wk =   0.0138889

     Dense  grid:  1216253 G-vectors     FFT dimensions: (  81,  96, 360)

     Smooth grid:   307761 G-vectors     FFT dimensions: (  54,  60, 225)

     Estimated max dynamical RAM per process >     237.66 MB

     Estimated total dynamical RAM >       8.59 GB

     Initial potential from superposition of free atoms

     starting charge  149.97924, renormalised to  150.00000

     negative rho (up, down):  9.672E-04 0.000E+00


     %%%%%%%%%%%%%%%%%%%%%%%%%%%%%%%%%%%%%%%%%%%%%%%%%%%%%%%%%%%%%%%%%%%%%%%%
     %                                                                      %
     % You are using vdW-DF, which was implemented by the Thonhauser group. %
     % Please cite the following two papers that made this development      %
     % possible and the two reviews that describe the various versions:     %
     %                                                                      %
     %   T. Thonhauser et al., PRL 115, 136402 (2015).                      %
     %   T. Thonhauser et al., PRB 76, 125112 (2007).                       %
     %   K. Berland et al., Rep. Prog. Phys. 78, 066501 (2015).             %
     %   D.C. Langreth et al., J. Phys.: Condens. Matter 21, 084203 (2009). %
     %                                                                      %
     %                                                                      %
     % If you are calculating the stress with vdW-DF, please also cite:     %
     %                                                                      %
     %   R. Sabatini et al., J. Phys.: Condens. Matter 24, 424209 (2012).   %
     %                                                                      %
     %%%%%%%%%%%%%%%%%%%%%%%%%%%%%%%%%%%%%%%%%%%%%%%%%%%%%%%%%%%%%%%%%%%%%%%%



     Adding external electric field

     Computed dipole along edir(3) : 
        Dipole                0.0005 Ry au,          0.0014 Debye
        Dipole field          0.0000 Ry au, 

        Potential amp.       -0.0001 Ry
        Total length         46.0307 bohr

     Starting wfcs are  156 randomized atomic wfcs

     total cpu time spent up to now is       90.6 secs

     Self-consistent Calculation

     iteration #  1     ecut=    55.12 Ry     beta= 0.10
     Davidson diagonalization with overlap
     ethr =  1.00E-02,  avg # of iterations =  2.0

     negative rho (up, down):  9.316E-04 0.000E+00

     Adding external electric field

     Computed dipole along edir(3) : 
        Dipole               -0.4832 Ry au,         -1.2282 Debye
        Dipole field         -0.0011 Ry au, 

        Potential amp.        0.1004 Ry
        Total length         46.0307 bohr


     total cpu time spent up to now is      218.5 secs

     total energy              =   -1310.87259817 Ry
     estimated scf accuracy    <       8.47925315 Ry

     iteration #  2     ecut=    55.12 Ry     beta= 0.10
     Davidson diagonalization with overlap
     ethr =  5.65E-03,  avg # of iterations =  2.5

     negative rho (up, down):  9.256E-04 0.000E+00

     Adding external electric field

     Computed dipole along edir(3) : 
        Dipole                1.0486 Ry au,          2.6652 Debye
        Dipole field          0.0024 Ry au, 

        Potential amp.       -0.2180 Ry
        Total length         46.0307 bohr


     total cpu time spent up to now is      344.0 secs

     total energy              =   -1310.88209843 Ry
     estimated scf accuracy    <      16.88682508 Ry

     iteration #  3     ecut=    55.12 Ry     beta= 0.10
     Davidson diagonalization with overlap
     ethr =  5.65E-03,  avg # of iterations =  2.4

     negative rho (up, down):  9.024E-04 0.000E+00

     Adding external electric field

     Computed dipole along edir(3) : 
        Dipole                0.0600 Ry au,          0.1524 Debye
        Dipole field          0.0001 Ry au, 

        Potential amp.       -0.0125 Ry
        Total length         46.0307 bohr


     total cpu time spent up to now is      463.9 secs

     total energy              =   -1311.19149404 Ry
     estimated scf accuracy    <      42.08676592 Ry

     iteration #  4     ecut=    55.12 Ry     beta= 0.10
     Davidson diagonalization with overlap
     ethr =  5.65E-03,  avg # of iterations =  1.0

     negative rho (up, down):  9.062E-04 0.000E+00

     Adding external electric field

     Computed dipole along edir(3) : 
        Dipole               -0.0214 Ry au,         -0.0545 Debye
        Dipole field         -0.0000 Ry au, 

        Potential amp.        0.0045 Ry
        Total length         46.0307 bohr


     total cpu time spent up to now is      571.6 secs

     total energy              =   -1311.59494309 Ry
     estimated scf accuracy    <       0.55637238 Ry

     iteration #  5     ecut=    55.12 Ry     beta= 0.10
     Davidson diagonalization with overlap
     ethr =  3.71E-04,  avg # of iterations =  4.6

     negative rho (up, down):  8.908E-04 0.000E+00

     Adding external electric field

     Computed dipole along edir(3) : 
        Dipole                0.1662 Ry au,          0.4224 Debye
        Dipole field          0.0004 Ry au, 

        Potential amp.       -0.0345 Ry
        Total length         46.0307 bohr


     total cpu time spent up to now is      708.0 secs

     total energy              =   -1311.61143209 Ry
     estimated scf accuracy    <       0.51024838 Ry

     iteration #  6     ecut=    55.12 Ry     beta= 0.10
     Davidson diagonalization with overlap
     ethr =  3.40E-04,  avg # of iterations =  2.6

     negative rho (up, down):  8.966E-04 0.000E+00

     Adding external electric field

     Computed dipole along edir(3) : 
        Dipole                0.0463 Ry au,          0.1176 Debye
        Dipole field          0.0001 Ry au, 

        Potential amp.       -0.0096 Ry
        Total length         46.0307 bohr


     total cpu time spent up to now is      830.3 secs

     total energy              =   -1311.63217456 Ry
     estimated scf accuracy    <       0.64371532 Ry

     iteration #  7     ecut=    55.12 Ry     beta= 0.10
     Davidson diagonalization with overlap
     ethr =  3.40E-04,  avg # of iterations =  1.1

     negative rho (up, down):  8.909E-04 0.000E+00

     Adding external electric field

     Computed dipole along edir(3) : 
        Dipole                0.0695 Ry au,          0.1766 Debye
        Dipole field          0.0002 Ry au, 

        Potential amp.       -0.0144 Ry
        Total length         46.0307 bohr


     total cpu time spent up to now is      940.0 secs

     total energy              =   -1311.64039315 Ry
     estimated scf accuracy    <       0.04137595 Ry

     iteration #  8     ecut=    55.12 Ry     beta= 0.10
     Davidson diagonalization with overlap
     c_bands:  1 eigenvalues not converged
     c_bands:  1 eigenvalues not converged
     c_bands:  1 eigenvalues not converged
     c_bands:  1 eigenvalues not converged
     c_bands:  1 eigenvalues not converged
     c_bands:  1 eigenvalues not converged
     c_bands:  1 eigenvalues not converged
     ethr =  2.76E-05,  avg # of iterations = 11.1

     negative rho (up, down):  8.983E-04 0.000E+00

     Adding external electric field

     Computed dipole along edir(3) : 
        Dipole                0.0930 Ry au,          0.2365 Debye
        Dipole field          0.0002 Ry au, 

        Potential amp.       -0.0193 Ry
        Total length         46.0307 bohr


     total cpu time spent up to now is     1132.0 secs

     total energy              =   -1311.64192003 Ry
     estimated scf accuracy    <       0.02667394 Ry

     iteration #  9     ecut=    55.12 Ry     beta= 0.10
     Davidson diagonalization with overlap
     c_bands:  2 eigenvalues not converged
     c_bands:  2 eigenvalues not converged
     ethr =  1.78E-05,  avg # of iterations =  4.8

     negative rho (up, down):  9.057E-04 0.000E+00

     Adding external electric field

     Computed dipole along edir(3) : 
        Dipole                0.0768 Ry au,          0.1951 Debye
        Dipole field          0.0002 Ry au, 

        Potential amp.       -0.0160 Ry
        Total length         46.0307 bohr


     total cpu time spent up to now is     1273.5 secs

     total energy              =   -1311.64502697 Ry
     estimated scf accuracy    <       0.02874237 Ry

     iteration # 10     ecut=    55.12 Ry     beta= 0.10
     Davidson diagonalization with overlap
     ethr =  1.78E-05,  avg # of iterations =  1.1

     negative rho (up, down):  9.090E-04 0.000E+00

     Adding external electric field

     Computed dipole along edir(3) : 
        Dipole                0.0669 Ry au,          0.1701 Debye
        Dipole field          0.0002 Ry au, 

        Potential amp.       -0.0139 Ry
        Total length         46.0307 bohr


     total cpu time spent up to now is     1382.3 secs

     total energy              =   -1311.64658769 Ry
     estimated scf accuracy    <       0.00454960 Ry

     iteration # 11     ecut=    55.12 Ry     beta= 0.10
     Davidson diagonalization with overlap
     c_bands:  1 eigenvalues not converged
     c_bands:  2 eigenvalues not converged
     c_bands:  2 eigenvalues not converged
     c_bands:  1 eigenvalues not converged
     c_bands:  1 eigenvalues not converged
     ethr =  3.03E-06,  avg # of iterations =  7.9

     negative rho (up, down):  9.207E-04 0.000E+00

     Adding external electric field

     Computed dipole along edir(3) : 
        Dipole                0.0686 Ry au,          0.1743 Debye
        Dipole field          0.0002 Ry au, 

        Potential amp.       -0.0143 Ry
        Total length         46.0307 bohr


     total cpu time spent up to now is     1521.3 secs

     total energy              =   -1311.64673935 Ry
     estimated scf accuracy    <       0.00507404 Ry

     iteration # 12     ecut=    55.12 Ry     beta= 0.10
     Davidson diagonalization with overlap
     ethr =  3.03E-06,  avg # of iterations =  2.2

     negative rho (up, down):  9.249E-04 0.000E+00

     Adding external electric field

     Computed dipole along edir(3) : 
        Dipole                0.0791 Ry au,          0.2011 Debye
        Dipole field          0.0002 Ry au, 

        Potential amp.       -0.0164 Ry
        Total length         46.0307 bohr


     total cpu time spent up to now is     1640.9 secs

     total energy              =   -1311.64686823 Ry
     estimated scf accuracy    <       0.00711697 Ry

     iteration # 13     ecut=    55.12 Ry     beta= 0.10
     Davidson diagonalization with overlap
     ethr =  3.03E-06,  avg # of iterations =  1.0

     negative rho (up, down):  9.252E-04 0.000E+00

     Adding external electric field

     Computed dipole along edir(3) : 
        Dipole                0.0728 Ry au,          0.1852 Debye
        Dipole field          0.0002 Ry au, 

        Potential amp.       -0.0151 Ry
        Total length         46.0307 bohr


     total cpu time spent up to now is     1745.7 secs

     total energy              =   -1311.64700595 Ry
     estimated scf accuracy    <       0.00027402 Ry

     iteration # 14     ecut=    55.12 Ry     beta= 0.10
     Davidson diagonalization with overlap
     c_bands:  1 eigenvalues not converged
     ethr =  1.83E-07,  avg # of iterations =  6.9

     negative rho (up, down):  9.249E-04 0.000E+00

     Adding external electric field

     Computed dipole along edir(3) : 
        Dipole                0.0749 Ry au,          0.1903 Debye
        Dipole field          0.0002 Ry au, 

        Potential amp.       -0.0156 Ry
        Total length         46.0307 bohr


     total cpu time spent up to now is     1922.8 secs

     total energy              =   -1311.64705306 Ry
     estimated scf accuracy    <       0.00031482 Ry

     iteration # 15     ecut=    55.12 Ry     beta= 0.10
     Davidson diagonalization with overlap
     ethr =  1.83E-07,  avg # of iterations =  1.0

     negative rho (up, down):  9.244E-04 0.000E+00

     Adding external electric field

     Computed dipole along edir(3) : 
        Dipole                0.0738 Ry au,          0.1876 Debye
        Dipole field          0.0002 Ry au, 

        Potential amp.       -0.0153 Ry
        Total length         46.0307 bohr


     total cpu time spent up to now is     2030.0 secs

     total energy              =   -1311.64705933 Ry
     estimated scf accuracy    <       0.00007460 Ry

     iteration # 16     ecut=    55.12 Ry     beta= 0.10
     Davidson diagonalization with overlap
     ethr =  4.97E-08,  avg # of iterations =  3.7

     negative rho (up, down):  9.245E-04 0.000E+00

     Adding external electric field

     Computed dipole along edir(3) : 
        Dipole                0.0748 Ry au,          0.1900 Debye
        Dipole field          0.0002 Ry au, 

        Potential amp.       -0.0155 Ry
        Total length         46.0307 bohr


     total cpu time spent up to now is     2160.5 secs

     total energy              =   -1311.64706410 Ry
     estimated scf accuracy    <       0.00002973 Ry

     iteration # 17     ecut=    55.12 Ry     beta= 0.10
     Davidson diagonalization with overlap
     ethr =  1.98E-08,  avg # of iterations =  5.1

     negative rho (up, down):  9.246E-04 0.000E+00

     Adding external electric field

     Computed dipole along edir(3) : 
        Dipole                0.0744 Ry au,          0.1891 Debye
        Dipole field          0.0002 Ry au, 

        Potential amp.       -0.0155 Ry
        Total length         46.0307 bohr


     total cpu time spent up to now is     2314.5 secs

     total energy              =   -1311.64706910 Ry
     estimated scf accuracy    <       0.00001033 Ry

     iteration # 18     ecut=    55.12 Ry     beta= 0.10
     Davidson diagonalization with overlap
     ethr =  6.89E-09,  avg # of iterations =  2.4

     negative rho (up, down):  9.419E-04 0.000E+00

     Adding external electric field

     Computed dipole along edir(3) : 
        Dipole                0.0794 Ry au,          0.2019 Debye
        Dipole field          0.0002 Ry au, 

        Potential amp.       -0.0165 Ry
        Total length         46.0307 bohr


     total cpu time spent up to now is     2443.5 secs

     End of self-consistent calculation

          k = 0.0000 0.0000 0.0000 ( 38479 PWs)   bands (ev):

   -53.3502 -53.2595 -53.2431 -53.1504 -53.1204 -53.0297 -47.4185 -47.3387
   -47.2723 -47.1915 -46.9909 -46.8423 -29.6956 -29.6918 -29.6422 -29.5773
   -29.5224 -29.3878 -29.3511 -29.2953 -29.2627 -29.2450 -29.1553 -29.1287
   -29.0194 -28.8854 -28.8180 -28.8146 -28.7348 -28.7278 -25.8966 -25.8532
   -25.6502 -25.5686 -25.4992 -25.4681 -25.3333 -25.3231 -25.2506 -25.2051
   -25.1191 -24.9160 -24.8147 -24.7841 -24.7240 -24.6890 -24.6744 -24.3879
    -3.4112  -2.1974  -1.5674  -1.4852  -1.3079  -1.2695  -1.1130  -1.1106
    -1.0795  -0.6445  -0.5991  -0.5831  -0.5395  -0.4847  -0.4320   0.2715
     0.4390   0.6168   0.8330   1.1470   1.2374   1.2522   1.2860   1.6270
     1.7053   1.8764   2.0046   2.2755   2.4016   2.4568   2.6007   2.7167
     2.8731   2.9536   3.1353   3.1943   3.2624   3.3356   3.4696   3.4913
     3.6806   3.7194

          k = 0.0000 0.0146 0.0000 ( 38471 PWs)   bands (ev):

   -53.3502 -53.2595 -53.2431 -53.1504 -53.1203 -53.0297 -47.4186 -47.3387
   -47.2723 -47.1915 -46.9909 -46.8423 -29.6951 -29.6911 -29.6420 -29.5771
   -29.5223 -29.3881 -29.3498 -29.2954 -29.2618 -29.2444 -29.1548 -29.1280
   -29.0195 -28.8853 -28.8180 -28.8146 -28.7348 -28.7278 -25.8975 -25.8539
   -25.6517 -25.5691 -25.4996 -25.4676 -25.3355 -25.3229 -25.2523 -25.2058
   -25.1198 -24.9168 -24.8151 -24.7843 -24.7240 -24.6891 -24.6744 -24.3879
    -3.3659  -2.1535  -1.5212  -1.4598  -1.3011  -1.2387  -1.0816  -1.0743
    -1.0742  -0.6239  -0.5696  -0.5546  -0.4905  -0.4384  -0.4139   0.2658
     0.4438   0.6358   0.8439   1.0712   1.1835   1.2315   1.3613   1.5920
     1.6653   1.8655   2.0133   2.2072   2.3019   2.4002   2.6181   2.6627
     2.8327   2.9192   3.0949   3.1202   3.1512   3.3597   3.4038   3.5667
     3.6838   3.7015

          k = 0.0000 0.0291 0.0000 ( 38445 PWs)   bands (ev):

   -53.3501 -53.2595 -53.2430 -53.1503 -53.1202 -53.0297 -47.4187 -47.3388
   -47.2723 -47.1915 -46.9909 -46.8423 -29.6938 -29.6893 -29.6412 -29.5765
   -29.5219 -29.3886 -29.3461 -29.2956 -29.2593 -29.2429 -29.1534 -29.1261
   -29.0197 -28.8852 -28.8179 -28.8145 -28.7349 -28.7278 -25.9000 -25.8560
   -25.6555 -25.5705 -25.5009 -25.4662 -25.3413 -25.3225 -25.2571 -25.2079
   -25.1215 -24.9194 -24.8160 -24.7851 -24.7242 -24.6893 -24.6746 -24.3881
    -3.2325  -2.0264  -1.3920  -1.3876  -1.2885  -1.1505  -1.0832  -0.9691
    -0.9614  -0.5641  -0.4816  -0.4674  -0.3613  -0.3475  -0.3081   0.2486
     0.4559   0.6868   0.8647   0.9274   1.0705   1.2041   1.3899   1.5140
     1.5761   1.8348   2.0068   2.0536   2.1104   2.2277   2.5313   2.5743
     2.7240   2.7937   2.8274   2.8837   3.1958   3.2906   3.4151   3.4291
     3.5399   3.7676

          k = 0.0000 0.0437 0.0000 ( 38416 PWs)   bands (ev):

   -53.3501 -53.2594 -53.2430 -53.1503 -53.1202 -53.0297 -47.4188 -47.3389
   -47.2723 -47.1915 -46.9910 -46.8423 -29.6919 -29.6868 -29.6402 -29.5756
   -29.5213 -29.3895 -29.3411 -29.2960 -29.2560 -29.2408 -29.1514 -29.1235
   -29.0200 -28.8851 -28.8178 -28.8144 -28.7349 -28.7278 -25.9033 -25.8588
   -25.6607 -25.5724 -25.5026 -25.4644 -25.3493 -25.3219 -25.2636 -25.2108
   -25.1238 -24.9231 -24.8169 -24.7862 -24.7245 -24.6896 -24.6749 -24.3882
    -3.0191  -1.8320  -1.3554  -1.2809  -1.1498  -1.0672  -1.0178  -0.8067
    -0.7868  -0.4715  -0.3421  -0.3252  -0.2792  -0.1226  -0.1222   0.2328
     0.4719   0.6966   0.7730   0.9010   0.9433   1.1327   1.2873   1.4188
     1.5375   1.7788   1.7845   1.9073   1.9618   2.0334   2.2929   2.4207
     2.4884   2.5591   2.5910   2.7336   3.0725   3.2122   3.2369   3.2597
     3.4827   3.5338

          k = 0.0000 0.0583 0.0000 ( 38376 PWs)   bands (ev):

   -53.3501 -53.2594 -53.2429 -53.1502 -53.1202 -53.0297 -47.4189 -47.3390
   -47.2724 -47.1915 -46.9911 -46.8423 -29.6900 -29.6844 -29.6392 -29.5747
   -29.5207 -29.3904 -29.3360 -29.2963 -29.2526 -29.2387 -29.1495 -29.1209
   -29.0204 -28.8850 -28.8176 -28.8142 -28.7350 -28.7279 -25.9067 -25.8616
   -25.6658 -25.5744 -25.5043 -25.4627 -25.3572 -25.3213 -25.2701 -25.2137
   -25.1261 -24.9270 -24.8176 -24.7873 -24.7247 -24.6898 -24.6751 -24.3883
    -2.7405  -1.6349  -1.4457  -1.1611  -1.0385  -0.8738  -0.8639  -0.6113
    -0.5778  -0.3612  -0.1768  -0.1751  -0.1514   0.0063   0.1517   0.3158
     0.4979   0.5068   0.7173   0.8106   0.9862   1.0046   1.1807   1.3574
     1.4715   1.5189   1.6120   1.7332   1.7801   1.9139   1.9492   2.1244
     2.2085   2.3484   2.4302   2.6826   2.7806   2.8210   3.1936   3.3282
     3.3531   3.3571

          k = 0.0000 0.0728 0.0000 ( 38438 PWs)   bands (ev):

   -53.3502 -53.2594 -53.2430 -53.1502 -53.1203 -53.0297 -47.4190 -47.3391
   -47.2724 -47.1916 -46.9911 -46.8423 -29.6886 -29.6826 -29.6385 -29.5741
   -29.5203 -29.3911 -29.3323 -29.2965 -29.2502 -29.2372 -29.1480 -29.1190
   -29.0207 -28.8849 -28.8175 -28.8141 -28.7350 -28.7279 -25.9091 -25.8637
   -25.6695 -25.5758 -25.5055 -25.4615 -25.3630 -25.3209 -25.2749 -25.2158
   -25.1278 -24.9301 -24.8180 -24.7882 -24.7249 -24.6899 -24.6753 -24.3884
    -2.4202  -1.7684  -1.3037  -1.0607  -1.0380  -0.7267  -0.5768  -0.4310
    -0.3945  -0.2736  -0.0712  -0.0576  -0.0315   0.0660   0.2831   0.3669
     0.5404   0.5872   0.6333   0.7632   0.8553   1.0087   1.1569   1.2816
     1.2999   1.3893   1.4567   1.6060   1.6131   1.7054   1.7910   1.8313
     1.9623   2.0879   2.2004   2.5278   2.5569   2.9086   3.2231   3.2782
     3.3318   3.3834

          k = 0.0000-0.0874 0.0000 ( 38490 PWs)   bands (ev):

   -53.3502 -53.2595 -53.2430 -53.1503 -53.1203 -53.0298 -47.4190 -47.3392
   -47.2724 -47.1916 -46.9912 -46.8423 -29.6881 -29.6819 -29.6382 -29.5738
   -29.5202 -29.3913 -29.3309 -29.2966 -29.2493 -29.2367 -29.1475 -29.1183
   -29.0208 -28.8849 -28.8175 -28.8140 -28.7350 -28.7279 -25.9101 -25.8645
   -25.6709 -25.5763 -25.5060 -25.4611 -25.3652 -25.3208 -25.2766 -25.2166
   -25.1285 -24.9313 -24.8181 -24.7885 -24.7250 -24.6900 -24.6754 -24.3885
    -2.1462  -2.0085  -1.1498  -1.0970  -1.0199  -0.6670  -0.3789  -0.3500
    -0.3236  -0.2832  -0.0705  -0.0149   0.0322   0.1315   0.1690   0.4376
     0.5262   0.6693   0.6948   0.7295   0.8474   1.0165   1.1429   1.1991
     1.2075   1.3403   1.4995   1.5092   1.5313   1.6012   1.7526   1.7546
     1.8423   1.9094   2.0412   2.4832   2.5320   3.0029   3.2362   3.2420
     3.3641   3.4053

          k = 0.0144 0.0073 0.0000 ( 38466 PWs)   bands (ev):

   -53.3486 -53.2611 -53.2415 -53.1520 -53.1188 -53.0313 -47.4161 -47.3362
   -47.2749 -47.1941 -46.9884 -46.8449 -29.6896 -29.6824 -29.6290 -29.5790
   -29.5095 -29.3863 -29.3489 -29.2970 -29.2605 -29.2462 -29.1567 -29.1267
   -29.0211 -28.8997 -28.8328 -28.8133 -28.7420 -28.7362 -25.8783 -25.8348
   -25.6482 -25.5502 -25.5022 -25.4655 -25.3319 -25.3254 -25.2489 -25.2080
   -25.1220 -24.9140 -24.8128 -24.7866 -24.7458 -24.6963 -24.6913 -24.4099
    -3.3537  -2.1403  -1.5138  -1.4503  -1.2549  -1.2336  -1.1048  -1.0742
    -1.0381  -0.5888  -0.5778  -0.5386  -0.5178  -0.4313  -0.4005   0.2894
     0.4636   0.6284   0.8755   1.1513   1.2246   1.2638   1.3495   1.6596
     1.6898   1.8735   1.9768   2.2487   2.3811   2.4133   2.5967   2.5999
     2.8012   2.8957   3.0383   3.1674   3.2183   3.2769   3.4108   3.4819
     3.6442   3.6678

          k = 0.0144 0.0219 0.0000 ( 38478 PWs)   bands (ev):

   -53.3487 -53.2611 -53.2415 -53.1519 -53.1188 -53.0313 -47.4162 -47.3363
   -47.2749 -47.1941 -46.9884 -46.8449 -29.6884 -29.6814 -29.6284 -29.5786
   -29.5093 -29.3868 -29.3463 -29.2971 -29.2588 -29.2453 -29.1558 -29.1254
   -29.0213 -28.8997 -28.8328 -28.8132 -28.7420 -28.7362 -25.8800 -25.8362
   -25.6508 -25.5511 -25.5030 -25.4645 -25.3359 -25.3251 -25.2523 -25.2093
   -25.1231 -24.9157 -24.8135 -24.7871 -24.7459 -24.6964 -24.6914 -24.4099
    -3.2642  -2.0540  -1.4235  -1.4016  -1.2443  -1.1732  -1.0611  -1.0396
    -0.9722  -0.5381  -0.5305  -0.4791  -0.4302  -0.3654  -0.3355   0.2779
     0.4725   0.6640   0.8940   1.0224   1.1741   1.2085   1.4155   1.5830
     1.6211   1.8563   1.9912   2.1021   2.2278   2.2939   2.5123   2.6044
     2.7313   2.7876   2.9171   2.9654   3.2090   3.2923   3.3824   3.4790
     3.6314   3.6767

          k = 0.0144 0.0364 0.0000 ( 38432 PWs)   bands (ev):

   -53.3486 -53.2610 -53.2414 -53.1519 -53.1187 -53.0313 -47.4163 -47.3364
   -47.2749 -47.1941 -46.9885 -46.8449 -29.6862 -29.6797 -29.6275 -29.5779
   -29.5087 -29.3875 -29.3419 -29.2974 -29.2559 -29.2435 -29.1542 -29.1231
   -29.0216 -28.8996 -28.8327 -28.8131 -28.7420 -28.7363 -25.8830 -25.8387
   -25.6554 -25.5528 -25.5045 -25.4629 -25.3429 -25.3246 -25.2580 -25.2118
   -25.1251 -24.9188 -24.8144 -24.7880 -24.7461 -24.6966 -24.6916 -24.4100
    -3.0904  -1.8905  -1.3111  -1.2930  -1.2106  -1.0614  -1.0310  -0.9503
    -0.8071  -0.4620  -0.4150  -0.3629  -0.2983  -0.2604  -0.1608   0.2574
     0.4870   0.7200   0.8416   0.9354   1.0333   1.1604   1.3553   1.4828
     1.5715   1.8167   1.8556   1.9813   2.0639   2.0689   2.3550   2.4966
     2.5629   2.5983   2.7285   2.7305   3.1893   3.2036   3.2662   3.4272
     3.4630   3.5439

          k = 0.0144 0.0510 0.0000 ( 38412 PWs)   bands (ev):

   -53.3486 -53.2610 -53.2414 -53.1518 -53.1187 -53.0312 -47.4164 -47.3365
   -47.2749 -47.1941 -46.9886 -46.8449 -29.6837 -29.6778 -29.6265 -29.5770
   -29.5082 -29.3884 -29.3368 -29.2977 -29.2525 -29.2415 -29.1522 -29.1204
   -29.0220 -28.8996 -28.8326 -28.8129 -28.7421 -28.7363 -25.8864 -25.8416
   -25.6606 -25.5548 -25.5061 -25.4611 -25.3509 -25.3240 -25.2646 -25.2145
   -25.1273 -24.9227 -24.8153 -24.7891 -24.7463 -24.6968 -24.6919 -24.4101
    -2.8431  -1.6767  -1.3541  -1.1945  -1.0052  -0.9752  -0.9152  -0.7892
    -0.5989  -0.3584  -0.2561  -0.2059  -0.2006  -0.0451   0.0528   0.2677
     0.5093   0.6205   0.7856   0.8589   0.9775   1.0626   1.2229   1.3934
     1.5295   1.5834   1.7089   1.8187   1.8298   1.9844   2.0677   2.2738
     2.2935   2.4019   2.5076   2.7090   2.7741   3.0596   3.1774   3.3115
     3.3967   3.4465

          k = 0.0144 0.0656 0.0000 ( 38417 PWs)   bands (ev):

   -53.3486 -53.2610 -53.2414 -53.1518 -53.1187 -53.0313 -47.4165 -47.3366
   -47.2749 -47.1941 -46.9886 -46.8449 -29.6815 -29.6762 -29.6256 -29.5762
   -29.5077 -29.3892 -29.3323 -29.2980 -29.2496 -29.2398 -29.1506 -29.1181
   -29.0224 -28.8995 -28.8325 -28.8128 -28.7421 -28.7363 -25.8893 -25.8441
   -25.6651 -25.5565 -25.5075 -25.4597 -25.3579 -25.3236 -25.2702 -25.2170
   -25.1293 -24.9263 -24.8158 -24.7901 -24.7465 -24.6970 -24.6920 -24.4102
    -2.5406  -1.6127  -1.3569  -1.0782  -0.9780  -0.7634  -0.6827  -0.6127
    -0.3890  -0.2511  -0.0991  -0.0951  -0.0356   0.0432   0.2889   0.4020
     0.4301   0.5859   0.6682   0.7960   0.9192   1.0042   1.1515   1.3329
     1.3362   1.4324   1.4768   1.6619   1.6944   1.7442   1.8250   2.0009
     2.0567   2.1961   2.3156   2.5288   2.6911   2.8013   3.1807   3.2717
     3.3806   3.3871

          k = 0.0144 0.0801 0.0000 ( 38478 PWs)   bands (ev):

   -53.3486 -53.2611 -53.2414 -53.1519 -53.1188 -53.0313 -47.4166 -47.3367
   -47.2749 -47.1941 -46.9887 -46.8449 -29.6803 -29.6752 -29.6251 -29.5758
   -29.5074 -29.3897 -29.3297 -29.2981 -29.2479 -29.2388 -29.1496 -29.1168
   -29.0226 -28.8994 -28.8324 -28.8127 -28.7421 -28.7364 -25.8910 -25.8455
   -25.6676 -25.5574 -25.5083 -25.4589 -25.3619 -25.3233 -25.2735 -25.2184
   -25.1304 -24.9285 -24.8160 -24.7906 -24.7466 -24.6971 -24.6921 -24.4103
    -2.2151  -1.8612  -1.1575  -1.0114  -1.0011  -0.6555  -0.4863  -0.3971
    -0.2564  -0.2107  -0.0404  -0.0061   0.0431   0.1313   0.2120   0.4335
     0.5575   0.6535   0.7044   0.7310   0.8370   1.0096   1.1301   1.1731
     1.2221   1.3401   1.4472   1.4833   1.5207   1.5605   1.7663   1.8233
     1.8846   1.9421   2.1578   2.4672   2.5483   2.9396   3.1771   3.1852
     3.3934   3.4292

          k = 0.0144-0.0801 0.0000 ( 38478 PWs)   bands (ev):

   -53.3486 -53.2611 -53.2414 -53.1519 -53.1188 -53.0313 -47.4166 -47.3367
   -47.2749 -47.1941 -46.9887 -46.8449 -29.6803 -29.6752 -29.6251 -29.5758
   -29.5074 -29.3897 -29.3297 -29.2981 -29.2479 -29.2388 -29.1496 -29.1168
   -29.0226 -28.8994 -28.8324 -28.8127 -28.7421 -28.7364 -25.8910 -25.8455
   -25.6676 -25.5574 -25.5083 -25.4589 -25.3619 -25.3233 -25.2735 -25.2184
   -25.1304 -24.9285 -24.8160 -24.7906 -24.7466 -24.6971 -24.6921 -24.4103
    -2.2151  -1.8612  -1.1575  -1.0114  -1.0011  -0.6555  -0.4863  -0.3971
    -0.2563  -0.2107  -0.0404  -0.0061   0.0431   0.1313   0.2120   0.4335
     0.5575   0.6535   0.7044   0.7310   0.8370   1.0096   1.1301   1.1731
     1.2221   1.3401   1.4472   1.4833   1.5207   1.5605   1.7663   1.8233
     1.8846   1.9421   2.1578   2.4672   2.5483   2.9396   3.1771   3.1852
     3.3934   3.4292

          k = 0.0144-0.0656 0.0000 ( 38417 PWs)   bands (ev):

   -53.3486 -53.2610 -53.2414 -53.1518 -53.1187 -53.0313 -47.4165 -47.3366
   -47.2749 -47.1941 -46.9886 -46.8449 -29.6815 -29.6762 -29.6256 -29.5762
   -29.5077 -29.3892 -29.3323 -29.2980 -29.2496 -29.2398 -29.1506 -29.1181
   -29.0224 -28.8995 -28.8325 -28.8128 -28.7421 -28.7363 -25.8893 -25.8441
   -25.6651 -25.5565 -25.5075 -25.4597 -25.3579 -25.3236 -25.2702 -25.2170
   -25.1293 -24.9263 -24.8158 -24.7901 -24.7465 -24.6970 -24.6920 -24.4102
    -2.5406  -1.6127  -1.3569  -1.0782  -0.9780  -0.7634  -0.6827  -0.6128
    -0.3890  -0.2510  -0.0991  -0.0952  -0.0355   0.0431   0.2889   0.4019
     0.4301   0.5858   0.6682   0.7960   0.9192   1.0042   1.1515   1.3329
     1.3362   1.4324   1.4768   1.6620   1.6944   1.7442   1.8250   2.0009
     2.0567   2.1961   2.3156   2.5288   2.6911   2.8013   3.1807   3.2717
     3.3805   3.3872

          k = 0.0144-0.0510 0.0000 ( 38412 PWs)   bands (ev):

   -53.3486 -53.2610 -53.2414 -53.1518 -53.1187 -53.0312 -47.4164 -47.3365
   -47.2749 -47.1941 -46.9886 -46.8449 -29.6837 -29.6778 -29.6265 -29.5770
   -29.5082 -29.3884 -29.3368 -29.2977 -29.2525 -29.2415 -29.1522 -29.1204
   -29.0220 -28.8996 -28.8326 -28.8129 -28.7421 -28.7363 -25.8864 -25.8416
   -25.6606 -25.5548 -25.5061 -25.4611 -25.3509 -25.3240 -25.2646 -25.2145
   -25.1273 -24.9227 -24.8153 -24.7891 -24.7463 -24.6968 -24.6919 -24.4101
    -2.8431  -1.6767  -1.3541  -1.1945  -1.0052  -0.9752  -0.9152  -0.7892
    -0.5989  -0.3584  -0.2562  -0.2059  -0.2005  -0.0452   0.0528   0.2677
     0.5093   0.6205   0.7855   0.8589   0.9775   1.0626   1.2228   1.3934
     1.5295   1.5833   1.7089   1.8188   1.8297   1.9844   2.0677   2.2737
     2.2935   2.4018   2.5077   2.7090   2.7742   3.0596   3.1774   3.3114
     3.3968   3.4463

          k = 0.0144-0.0364 0.0000 ( 38432 PWs)   bands (ev):

   -53.3486 -53.2610 -53.2414 -53.1519 -53.1187 -53.0313 -47.4163 -47.3364
   -47.2749 -47.1941 -46.9885 -46.8449 -29.6862 -29.6797 -29.6275 -29.5779
   -29.5087 -29.3875 -29.3419 -29.2974 -29.2559 -29.2435 -29.1542 -29.1231
   -29.0216 -28.8996 -28.8327 -28.8131 -28.7420 -28.7363 -25.8830 -25.8387
   -25.6554 -25.5528 -25.5045 -25.4629 -25.3429 -25.3246 -25.2580 -25.2118
   -25.1251 -24.9188 -24.8144 -24.7880 -24.7461 -24.6966 -24.6917 -24.4100
    -3.0904  -1.8905  -1.3111  -1.2930  -1.2106  -1.0614  -1.0310  -0.9503
    -0.8071  -0.4620  -0.4150  -0.3629  -0.2983  -0.2604  -0.1608   0.2574
     0.4870   0.7200   0.8416   0.9354   1.0333   1.1604   1.3553   1.4827
     1.5715   1.8167   1.8555   1.9813   2.0639   2.0689   2.3550   2.4966
     2.5629   2.5982   2.7285   2.7306   3.1894   3.2036   3.2662   3.4272
     3.4630   3.5440

          k = 0.0144-0.0219 0.0000 ( 38478 PWs)   bands (ev):

   -53.3487 -53.2611 -53.2415 -53.1519 -53.1188 -53.0313 -47.4162 -47.3363
   -47.2749 -47.1941 -46.9884 -46.8449 -29.6884 -29.6814 -29.6284 -29.5786
   -29.5093 -29.3868 -29.3463 -29.2971 -29.2588 -29.2453 -29.1558 -29.1254
   -29.0213 -28.8997 -28.8328 -28.8132 -28.7420 -28.7362 -25.8800 -25.8362
   -25.6508 -25.5511 -25.5030 -25.4645 -25.3359 -25.3251 -25.2523 -25.2093
   -25.1231 -24.9157 -24.8135 -24.7871 -24.7459 -24.6964 -24.6914 -24.4099
    -3.2642  -2.0540  -1.4235  -1.4016  -1.2443  -1.1732  -1.0611  -1.0396
    -0.9722  -0.5381  -0.5305  -0.4791  -0.4302  -0.3654  -0.3354   0.2779
     0.4725   0.6640   0.8940   1.0224   1.1741   1.2085   1.4155   1.5830
     1.6211   1.8563   1.9912   2.1021   2.2278   2.2939   2.5123   2.6044
     2.7313   2.7875   2.9172   2.9655   3.2089   3.2923   3.3824   3.4790
     3.6313   3.6768

          k = 0.0144-0.0073 0.0000 ( 38466 PWs)   bands (ev):

   -53.3486 -53.2611 -53.2415 -53.1520 -53.1188 -53.0313 -47.4161 -47.3362
   -47.2749 -47.1941 -46.9884 -46.8449 -29.6896 -29.6824 -29.6290 -29.5790
   -29.5095 -29.3863 -29.3489 -29.2970 -29.2605 -29.2462 -29.1567 -29.1267
   -29.0211 -28.8997 -28.8328 -28.8133 -28.7420 -28.7362 -25.8783 -25.8348
   -25.6482 -25.5502 -25.5022 -25.4655 -25.3319 -25.3254 -25.2489 -25.2080
   -25.1220 -24.9140 -24.8128 -24.7866 -24.7458 -24.6963 -24.6913 -24.4099
    -3.3537  -2.1403  -1.5138  -1.4503  -1.2549  -1.2336  -1.1048  -1.0742
    -1.0381  -0.5888  -0.5778  -0.5386  -0.5178  -0.4313  -0.4005   0.2894
     0.4636   0.6284   0.8755   1.1513   1.2246   1.2638   1.3495   1.6596
     1.6897   1.8735   1.9768   2.2487   2.3811   2.4133   2.5967   2.5999
     2.8012   2.8956   3.0383   3.1672   3.2183   3.2769   3.4108   3.4819
     3.6441   3.6677

          k = 0.0289 0.0146 0.0000 ( 38481 PWs)   bands (ev):

   -53.3442 -53.2656 -53.2370 -53.1566 -53.1143 -53.0359 -47.4090 -47.3290
   -47.2823 -47.2016 -46.9811 -46.8524 -29.6834 -29.6433 -29.5912 -29.5826
   -29.4716 -29.3820 -29.3423 -29.3018 -29.2543 -29.2501 -29.1610 -29.1209
   -29.0262 -28.9418 -28.8759 -28.8095 -28.7833 -28.7402 -25.8245 -25.7806
   -25.6420 -25.5111 -25.4958 -25.4579 -25.3322 -25.3275 -25.2441 -25.2163
   -25.1302 -24.9083 -24.8118 -24.8048 -24.7941 -24.7600 -24.6979 -24.4739
    -3.1854  -1.9743  -1.3588  -1.3513  -1.1362  -1.1064  -1.0844  -0.9653
    -0.9169  -0.5321  -0.4603  -0.4145  -0.3886  -0.3012  -0.2906   0.3410
     0.5333   0.6566   1.0008   1.1451   1.1840   1.3425   1.4707   1.6402
     1.7319   1.8923   1.8940   2.1427   2.2677   2.2809   2.3365   2.5869
     2.6704   2.7245   2.8216   2.9776   3.1261   3.1967   3.3076   3.3940
     3.4829   3.5720

          k = 0.0289 0.0291 0.0000 ( 38472 PWs)   bands (ev):

   -53.3442 -53.2657 -53.2369 -53.1566 -53.1142 -53.0359 -47.4090 -47.3291
   -47.2823 -47.2016 -46.9811 -46.8524 -29.6817 -29.6421 -29.5907 -29.5820
   -29.4712 -29.3825 -29.3390 -29.3019 -29.2520 -29.2490 -29.1599 -29.1191
   -29.0265 -28.9418 -28.8759 -28.8094 -28.7833 -28.7402 -25.8267 -25.7825
   -25.6455 -25.5120 -25.4971 -25.4566 -25.3328 -25.3319 -25.2484 -25.2179
   -25.1315 -24.9106 -24.8120 -24.8054 -24.7946 -24.7600 -24.6980 -24.4739
    -3.0552  -1.8494  -1.2861  -1.2319  -1.1008  -1.0704  -1.0219  -0.9079
    -0.8058  -0.4463  -0.3545  -0.3331  -0.3181  -0.2529  -0.1475   0.3250
     0.5437   0.7021   0.9782   1.0294   1.1511   1.2152   1.4228   1.5880
     1.6294   1.8608   1.8773   1.9525   2.0811   2.1562   2.2294   2.5156
     2.5289   2.5694   2.6876   2.7939   3.1366   3.2488   3.2494   3.3662
     3.4598   3.5645

          k = 0.0289 0.0437 0.0000 ( 38426 PWs)   bands (ev):

   -53.3441 -53.2656 -53.2368 -53.1566 -53.1142 -53.0359 -47.4091 -47.3292
   -47.2823 -47.2016 -46.9812 -46.8524 -29.6795 -29.6403 -29.5899 -29.5811
   -29.4707 -29.3833 -29.3344 -29.3022 -29.2490 -29.2475 -29.1584 -29.1166
   -29.0270 -28.9418 -28.8759 -28.8093 -28.7834 -28.7403 -25.8298 -25.7851
   -25.6502 -25.5133 -25.4989 -25.4550 -25.3400 -25.3314 -25.2543 -25.2201
   -25.1333 -24.9140 -24.8122 -24.8062 -24.7954 -24.7601 -24.6982 -24.4739
    -2.8464  -1.6565  -1.1834  -1.1734  -0.9989  -0.9690  -0.8969  -0.8761
    -0.5992  -0.3062  -0.2451  -0.2029  -0.1771  -0.1446   0.0491   0.3084
     0.5596   0.7323   0.8290   0.9954   1.0622   1.0845   1.2738   1.4673
     1.6130   1.6173   1.7482   1.8581   1.8666   2.0282   2.0852   2.2812
     2.3057   2.4290   2.5889   2.6109   2.8243   3.1344   3.2208   3.2844
     3.4435   3.4942

          k = 0.0289 0.0583 0.0000 ( 38437 PWs)   bands (ev):

   -53.3441 -53.2656 -53.2368 -53.1566 -53.1142 -53.0359 -47.4093 -47.3293
   -47.2823 -47.2016 -46.9813 -46.8524 -29.6772 -29.6385 -29.5892 -29.5802
   -29.4701 -29.3841 -29.3297 -29.3024 -29.2459 -29.2459 -29.1568 -29.1142
   -29.0275 -28.9419 -28.8759 -28.8091 -28.7835 -28.7403 -25.8329 -25.7877
   -25.6548 -25.5146 -25.5006 -25.4534 -25.3472 -25.3310 -25.2602 -25.2222
   -25.1350 -24.9176 -24.8123 -24.8068 -24.7962 -24.7601 -24.6983 -24.4739
    -2.5722  -1.4569  -1.2706  -1.0608  -0.8395  -0.8371  -0.7494  -0.7240
    -0.3767  -0.1386  -0.1372  -0.0774  -0.0285   0.0525   0.2178   0.3707
     0.5553   0.6074   0.8002   0.8526   0.9791   1.0115   1.1464   1.3436
     1.3754   1.4812   1.5362   1.6860   1.7313   1.8024   1.8720   2.1189
     2.1344   2.2606   2.3520   2.5007   2.6430   2.8796   3.1304   3.3110
     3.3532   3.4667

          k = 0.0289 0.0728 0.0000 ( 38441 PWs)   bands (ev):

   -53.3441 -53.2656 -53.2368 -53.1566 -53.1143 -53.0359 -47.4093 -47.3294
   -47.2823 -47.2016 -46.9813 -46.8524 -29.6755 -29.6372 -29.5887 -29.5796
   -29.4697 -29.3847 -29.3263 -29.3026 -29.2448 -29.2437 -29.1557 -29.1124
   -29.0279 -28.9419 -28.8759 -28.8090 -28.7835 -28.7404 -25.8351 -25.7896
   -25.6582 -25.5155 -25.5020 -25.4523 -25.3524 -25.3307 -25.2646 -25.2238
   -25.1363 -24.9204 -24.8123 -24.8072 -24.7968 -24.7602 -24.6984 -24.4739
    -2.2546  -1.5978  -1.1199  -0.9524  -0.8339  -0.7142  -0.6184  -0.4163
    -0.2025  -0.0578  -0.0017   0.0391   0.0979   0.1313   0.3296   0.4093
     0.5529   0.6541   0.7283   0.7648   0.8677   0.9930   1.0877   1.1388
     1.2466   1.3472   1.3748   1.4352   1.5451   1.6302   1.7753   1.8393
     2.0019   2.0629   2.2556   2.4895   2.5679   2.7678   3.0995   3.1472
     3.4388   3.4424

          k = 0.0289 0.0874 0.0000 ( 38453 PWs)   bands (ev):

   -53.3441 -53.2656 -53.2368 -53.1565 -53.1144 -53.0358 -47.4094 -47.3295
   -47.2823 -47.2016 -46.9814 -46.8524 -29.6749 -29.6368 -29.5885 -29.5793
   -29.4696 -29.3850 -29.3250 -29.3027 -29.2444 -29.2429 -29.1552 -29.1117
   -29.0281 -28.9419 -28.8759 -28.8090 -28.7836 -28.7404 -25.8359 -25.7903
   -25.6594 -25.5158 -25.5024 -25.4519 -25.3544 -25.3306 -25.2661 -25.2244
   -25.1368 -24.9214 -24.8123 -24.8073 -24.7971 -24.7602 -24.6985 -24.4739
    -1.9779  -1.8452  -0.9533  -0.9066  -0.8991  -0.6623  -0.5608  -0.1571
    -0.1497  -0.1127   0.0350   0.0797   0.1389   0.1813   0.2335   0.4921
     0.5637   0.6853   0.7023   0.8000   0.8970   0.9812   1.0359   1.0818
     1.1652   1.2578   1.2988   1.3397   1.3712   1.5840   1.7419   1.7791
     1.9371   1.9874   2.2243   2.3930   2.5653   2.8949   3.0151   3.0555
     3.4360   3.4777

          k = 0.0289-0.0728 0.0000 ( 38441 PWs)   bands (ev):

   -53.3441 -53.2656 -53.2368 -53.1566 -53.1143 -53.0359 -47.4093 -47.3294
   -47.2823 -47.2016 -46.9813 -46.8524 -29.6755 -29.6372 -29.5887 -29.5796
   -29.4697 -29.3847 -29.3263 -29.3026 -29.2448 -29.2437 -29.1557 -29.1124
   -29.0279 -28.9419 -28.8759 -28.8090 -28.7835 -28.7404 -25.8351 -25.7896
   -25.6582 -25.5155 -25.5020 -25.4523 -25.3524 -25.3307 -25.2646 -25.2238
   -25.1363 -24.9204 -24.8123 -24.8072 -24.7968 -24.7602 -24.6984 -24.4739
    -2.2546  -1.5978  -1.1199  -0.9524  -0.8339  -0.7142  -0.6184  -0.4163
    -0.2025  -0.0578  -0.0017   0.0391   0.0979   0.1312   0.3295   0.4093
     0.5529   0.6541   0.7283   0.7648   0.8677   0.9930   1.0878   1.1387
     1.2466   1.3471   1.3748   1.4353   1.5451   1.6302   1.7753   1.8393
     2.0019   2.0629   2.2556   2.4895   2.5679   2.7678   3.0996   3.1472
     3.4389   3.4425

          k = 0.0289-0.0583 0.0000 ( 38437 PWs)   bands (ev):

   -53.3441 -53.2656 -53.2368 -53.1566 -53.1142 -53.0359 -47.4093 -47.3293
   -47.2823 -47.2016 -46.9813 -46.8524 -29.6772 -29.6385 -29.5892 -29.5802
   -29.4701 -29.3841 -29.3297 -29.3024 -29.2459 -29.2459 -29.1568 -29.1142
   -29.0275 -28.9419 -28.8759 -28.8091 -28.7835 -28.7403 -25.8329 -25.7877
   -25.6548 -25.5146 -25.5006 -25.4534 -25.3472 -25.3310 -25.2602 -25.2222
   -25.1350 -24.9176 -24.8123 -24.8068 -24.7962 -24.7601 -24.6983 -24.4739
    -2.5722  -1.4569  -1.2706  -1.0608  -0.8395  -0.8371  -0.7494  -0.7240
    -0.3767  -0.1386  -0.1372  -0.0774  -0.0285   0.0525   0.2178   0.3707
     0.5553   0.6074   0.8002   0.8526   0.9791   1.0115   1.1464   1.3435
     1.3754   1.4812   1.5361   1.6861   1.7313   1.8024   1.8721   2.1189
     2.1343   2.2606   2.3520   2.5007   2.6429   2.8796   3.1304   3.3111
     3.3533   3.4667

          k = 0.0289-0.0437 0.0000 ( 38426 PWs)   bands (ev):

   -53.3441 -53.2656 -53.2368 -53.1566 -53.1142 -53.0359 -47.4091 -47.3292
   -47.2823 -47.2016 -46.9812 -46.8524 -29.6795 -29.6403 -29.5899 -29.5811
   -29.4707 -29.3833 -29.3344 -29.3022 -29.2490 -29.2475 -29.1584 -29.1166
   -29.0270 -28.9418 -28.8759 -28.8093 -28.7834 -28.7403 -25.8298 -25.7851
   -25.6502 -25.5133 -25.4989 -25.4550 -25.3400 -25.3314 -25.2543 -25.2201
   -25.1333 -24.9140 -24.8122 -24.8062 -24.7954 -24.7601 -24.6982 -24.4739
    -2.8464  -1.6565  -1.1834  -1.1734  -0.9989  -0.9690  -0.8969  -0.8761
    -0.5992  -0.3062  -0.2451  -0.2029  -0.1771  -0.1446   0.0491   0.3084
     0.5596   0.7323   0.8290   0.9954   1.0622   1.0845   1.2738   1.4673
     1.6130   1.6172   1.7482   1.8582   1.8666   2.0281   2.0852   2.2812
     2.3056   2.4290   2.5889   2.6109   2.8244   3.1344   3.2208   3.2844
     3.4434   3.4942

          k = 0.0289-0.0291 0.0000 ( 38472 PWs)   bands (ev):

   -53.3442 -53.2657 -53.2369 -53.1566 -53.1142 -53.0359 -47.4090 -47.3291
   -47.2823 -47.2016 -46.9811 -46.8524 -29.6817 -29.6421 -29.5907 -29.5820
   -29.4712 -29.3825 -29.3390 -29.3019 -29.2520 -29.2490 -29.1599 -29.1191
   -29.0265 -28.9418 -28.8759 -28.8094 -28.7833 -28.7402 -25.8267 -25.7825
   -25.6455 -25.5120 -25.4971 -25.4566 -25.3328 -25.3319 -25.2484 -25.2179
   -25.1315 -24.9106 -24.8120 -24.8054 -24.7946 -24.7600 -24.6980 -24.4739
    -3.0552  -1.8494  -1.2861  -1.2319  -1.1008  -1.0704  -1.0219  -0.9080
    -0.8058  -0.4463  -0.3545  -0.3331  -0.3181  -0.2529  -0.1474   0.3250
     0.5437   0.7021   0.9781   1.0294   1.1511   1.2151   1.4228   1.5880
     1.6294   1.8608   1.8773   1.9525   2.0811   2.1562   2.2294   2.5156
     2.5289   2.5694   2.6876   2.7939   3.1365   3.2488   3.2495   3.3662
     3.4598   3.5645

          k = 0.0289-0.0146 0.0000 ( 38481 PWs)   bands (ev):

   -53.3442 -53.2656 -53.2370 -53.1566 -53.1143 -53.0359 -47.4090 -47.3290
   -47.2823 -47.2016 -46.9811 -46.8524 -29.6834 -29.6433 -29.5912 -29.5826
   -29.4716 -29.3820 -29.3423 -29.3018 -29.2543 -29.2501 -29.1610 -29.1209
   -29.0262 -28.9418 -28.8759 -28.8095 -28.7833 -28.7402 -25.8245 -25.7806
   -25.6420 -25.5111 -25.4958 -25.4579 -25.3322 -25.3275 -25.2441 -25.2163
   -25.1302 -24.9083 -24.8118 -24.8048 -24.7941 -24.7600 -24.6979 -24.4739
    -3.1854  -1.9743  -1.3588  -1.3513  -1.1362  -1.1064  -1.0844  -0.9653
    -0.9169  -0.5321  -0.4604  -0.4145  -0.3886  -0.3012  -0.2906   0.3410
     0.5333   0.6566   1.0008   1.1451   1.1840   1.3426   1.4707   1.6402
     1.7319   1.8923   1.8940   2.1427   2.2677   2.2810   2.3365   2.5869
     2.6704   2.7245   2.8216   2.9777   3.1260   3.1967   3.3075   3.3939
     3.4828   3.5720

          k = 0.0289-0.0000 0.0000 ( 38497 PWs)   bands (ev):

   -53.3442 -53.2657 -53.2370 -53.1566 -53.1143 -53.0359 -47.4089 -47.3290
   -47.2823 -47.2016 -46.9811 -46.8524 -29.6840 -29.6438 -29.5914 -29.5829
   -29.4718 -29.3817 -29.3436 -29.3017 -29.2551 -29.2505 -29.1614 -29.1215
   -29.0261 -28.9418 -28.8759 -28.8095 -28.7833 -28.7401 -25.8237 -25.7799
   -25.6407 -25.5107 -25.4954 -25.4583 -25.3323 -25.3255 -25.2425 -25.2157
   -25.1298 -24.9075 -24.8117 -24.8045 -24.7939 -24.7600 -24.6979 -24.4739
    -3.2296  -2.0172  -1.4033  -1.3732  -1.1635  -1.1124  -1.0661  -1.0572
    -0.9180  -0.5592  -0.4983  -0.4449  -0.4074  -0.3428  -0.3178   0.3462
     0.5294   0.6401   0.9924   1.1933   1.2248   1.3878   1.4321   1.6793
     1.8070   1.8818   1.8824   2.2483   2.2897   2.3383   2.4169   2.5591
     2.7223   2.8110   2.8947   3.0652   3.0895   3.1956   3.2938   3.3102
     3.4694   3.5523

          k = 0.0433 0.0219 0.0000 ( 38474 PWs)   bands (ev):

   -53.3370 -53.2729 -53.2296 -53.1640 -53.1071 -53.0432 -47.3975 -47.3176
   -47.2942 -47.2135 -46.9695 -46.8644 -29.6735 -29.5929 -29.5808 -29.5265
   -29.4110 -29.3749 -29.3322 -29.3092 -29.2567 -29.2444 -29.1681 -29.1117
   -29.0344 -29.0083 -28.9440 -28.8495 -28.8026 -28.7465 -25.7379 -25.6934
   -25.6319 -25.5249 -25.4459 -25.4088 -25.3428 -25.3201 -25.2360 -25.2291
   -25.1429 -24.9104 -24.8983 -24.8612 -24.8058 -24.7967 -24.7083 -24.5745
    -2.9186  -1.7165  -1.2257  -1.1217  -1.0949  -0.9519  -0.8977  -0.7956
    -0.7256  -0.4372  -0.3441  -0.2433  -0.1547  -0.0793  -0.0761   0.4202
     0.6317   0.6821   1.1113   1.1163   1.1970   1.4034   1.4947   1.6441
     1.7335   1.7691   1.9172   1.9650   2.0001   2.1421   2.2561   2.3479
     2.4699   2.5386   2.6446   2.7047   2.9814   3.0988   3.1974   3.2531
     3.3461   3.3675

          k = 0.0433 0.0364 0.0000 ( 38469 PWs)   bands (ev):

   -53.3370 -53.2729 -53.2296 -53.1640 -53.1071 -53.0432 -47.3976 -47.3176
   -47.2941 -47.2135 -46.9695 -46.8644 -29.6717 -29.5927 -29.5794 -29.5257
   -29.4106 -29.3756 -29.3285 -29.3094 -29.2558 -29.2420 -29.1672 -29.1096
   -29.0349 -29.0084 -28.9442 -28.8496 -28.8025 -28.7465 -25.7403 -25.6955
   -25.6356 -25.5255 -25.4445 -25.4103 -25.3426 -25.3257 -25.2407 -25.2303
   -25.1439 -24.9103 -24.9007 -24.8611 -24.8061 -24.7975 -24.7084 -24.5743
    -2.7543  -1.5611  -1.1795  -1.0497  -0.9804  -0.9061  -0.8431  -0.6940
    -0.5929  -0.3287  -0.2183  -0.1293  -0.0922  -0.0197   0.0923   0.4054
     0.6327   0.7257   0.9537   1.0797   1.1584   1.2594   1.3066   1.5453
     1.6606   1.7183   1.7372   1.8352   1.8606   2.0434   2.0925   2.2161
     2.2803   2.4466   2.5293   2.5514   2.8860   2.9941   3.2113   3.2368
     3.3520   3.4181

          k = 0.0433 0.0510 0.0000 ( 38464 PWs)   bands (ev):

   -53.3370 -53.2729 -53.2295 -53.1640 -53.1071 -53.0432 -47.3977 -47.3177
   -47.2941 -47.2135 -46.9696 -46.8644 -29.6696 -29.5924 -29.5777 -29.5246
   -29.4100 -29.3763 -29.3243 -29.3095 -29.2549 -29.2393 -29.1661 -29.1073
   -29.0357 -29.0086 -28.9443 -28.8498 -28.8023 -28.7466 -25.7431 -25.6979
   -25.6398 -25.5263 -25.4431 -25.4119 -25.3423 -25.3323 -25.2460 -25.2317
   -25.1450 -24.9104 -24.9036 -24.8609 -24.8066 -24.7982 -24.7084 -24.5741
    -2.5189  -1.3524  -1.1038  -1.0329  -0.9612  -0.7253  -0.7067  -0.6371
    -0.3674  -0.1690  -0.0436  -0.0097   0.0302   0.0639   0.2469   0.4135
     0.6538   0.7037   0.8430   1.0112   1.0313   1.0974   1.1514   1.4062
     1.4095   1.4857   1.6517   1.6785   1.7321   1.8727   1.9076   2.1168
     2.2195   2.2905   2.4129   2.4733   2.4767   2.9561   3.0437   3.2448
     3.3544   3.5283

          k = 0.0433 0.0656 0.0000 ( 38416 PWs)   bands (ev):

   -53.3369 -53.2729 -53.2295 -53.1640 -53.1071 -53.0431 -47.3978 -47.3178
   -47.2941 -47.2135 -46.9697 -46.8644 -29.6678 -29.5921 -29.5762 -29.5237
   -29.4096 -29.3770 -29.3205 -29.3097 -29.2540 -29.2369 -29.1651 -29.1052
   -29.0363 -29.0088 -28.9444 -28.8499 -28.8022 -28.7467 -25.7455 -25.7000
   -25.6435 -25.5270 -25.4419 -25.4134 -25.3420 -25.3379 -25.2507 -25.2329
   -25.1459 -24.9109 -24.9058 -24.8607 -24.8069 -24.7988 -24.7085 -24.5739
    -2.2274  -1.2938  -1.0399  -1.0155  -0.8597  -0.6148  -0.5670  -0.4314
    -0.1662  -0.0028   0.0749   0.1260   0.1756   0.1787   0.3666   0.4540
     0.4993   0.7558   0.8039   0.8586   0.9727   0.9752   1.0287   1.1937
     1.2078   1.3253   1.4230   1.4643   1.5939   1.7233   1.7939   1.8718
     2.1424   2.2006   2.2695   2.4021   2.5534   2.6479   3.0472   3.1746
     3.2991   3.4780

          k = 0.0433 0.0801 0.0000 ( 38433 PWs)   bands (ev):

   -53.3369 -53.2728 -53.2295 -53.1640 -53.1072 -53.0431 -47.3979 -47.3179
   -47.2941 -47.2135 -46.9697 -46.8644 -29.6668 -29.5920 -29.5753 -29.5232
   -29.4093 -29.3774 -29.3184 -29.3097 -29.2536 -29.2355 -29.1645 -29.1041
   -29.0366 -29.0089 -28.9445 -28.8500 -28.8021 -28.7467 -25.7469 -25.7012
   -25.6456 -25.5273 -25.4412 -25.4142 -25.3419 -25.3412 -25.2533 -25.2336
   -25.1465 -24.9116 -24.9067 -24.8607 -24.8072 -24.7990 -24.7085 -24.5738
    -1.9072  -1.5560  -0.9519  -0.8201  -0.7887  -0.6510  -0.4663  -0.1324
    -0.0718   0.1120   0.1247   0.1868   0.2179   0.2470   0.3596   0.4823
     0.5994   0.6356   0.7830   0.8152   0.9014   0.9819   1.0088   1.0311
     1.1266   1.1985   1.2111   1.2987   1.4122   1.6302   1.6472   1.8553
     2.0466   2.1312   2.2287   2.3822   2.5324   2.7289   2.9291   2.9694
     3.3844   3.4430

          k = 0.0433 0.0947 0.0000 ( 38433 PWs)   bands (ev):

   -53.3369 -53.2728 -53.2295 -53.1640 -53.1072 -53.0431 -47.3979 -47.3179
   -47.2941 -47.2135 -46.9697 -46.8644 -29.6668 -29.5920 -29.5753 -29.5232
   -29.4093 -29.3774 -29.3184 -29.3097 -29.2536 -29.2355 -29.1645 -29.1041
   -29.0366 -29.0089 -28.9445 -28.8500 -28.8021 -28.7467 -25.7469 -25.7012
   -25.6456 -25.5273 -25.4412 -25.4142 -25.3419 -25.3412 -25.2533 -25.2336
   -25.1465 -24.9116 -24.9067 -24.8607 -24.8072 -24.7990 -24.7085 -24.5738
    -1.9072  -1.5560  -0.9519  -0.8201  -0.7887  -0.6510  -0.4663  -0.1323
    -0.0718   0.1120   0.1247   0.1868   0.2179   0.2470   0.3596   0.4823
     0.5994   0.6356   0.7830   0.8153   0.9014   0.9818   1.0088   1.0311
     1.1266   1.1985   1.2112   1.2987   1.4122   1.6302   1.6472   1.8553
     2.0466   2.1312   2.2287   2.3822   2.5324   2.7289   2.9292   2.9694
     3.3844   3.4430

          k = 0.0433-0.0656 0.0000 ( 38416 PWs)   bands (ev):

   -53.3369 -53.2729 -53.2295 -53.1640 -53.1071 -53.0431 -47.3978 -47.3178
   -47.2941 -47.2135 -46.9697 -46.8644 -29.6678 -29.5921 -29.5762 -29.5237
   -29.4096 -29.3770 -29.3205 -29.3097 -29.2540 -29.2369 -29.1651 -29.1052
   -29.0363 -29.0088 -28.9444 -28.8499 -28.8022 -28.7467 -25.7455 -25.7000
   -25.6435 -25.5270 -25.4419 -25.4134 -25.3420 -25.3379 -25.2507 -25.2329
   -25.1459 -24.9109 -24.9058 -24.8607 -24.8069 -24.7988 -24.7085 -24.5739
    -2.2274  -1.2939  -1.0399  -1.0155  -0.8596  -0.6148  -0.5671  -0.4314
    -0.1662  -0.0028   0.0749   0.1259   0.1756   0.1787   0.3666   0.4541
     0.4993   0.7558   0.8039   0.8586   0.9727   0.9753   1.0287   1.1936
     1.2078   1.3253   1.4230   1.4643   1.5938   1.7234   1.7939   1.8718
     2.1424   2.2005   2.2695   2.4021   2.5534   2.6479   3.0472   3.1747
     3.2991   3.4779

          k = 0.0433-0.0510 0.0000 ( 38464 PWs)   bands (ev):

   -53.3370 -53.2729 -53.2295 -53.1640 -53.1071 -53.0432 -47.3977 -47.3177
   -47.2941 -47.2135 -46.9696 -46.8644 -29.6696 -29.5924 -29.5777 -29.5246
   -29.4100 -29.3763 -29.3243 -29.3095 -29.2549 -29.2393 -29.1661 -29.1073
   -29.0357 -29.0086 -28.9443 -28.8498 -28.8023 -28.7466 -25.7431 -25.6979
   -25.6398 -25.5263 -25.4431 -25.4119 -25.3423 -25.3323 -25.2460 -25.2317
   -25.1450 -24.9104 -24.9036 -24.8609 -24.8066 -24.7982 -24.7084 -24.5741
    -2.5189  -1.3524  -1.1039  -1.0329  -0.9612  -0.7253  -0.7067  -0.6371
    -0.3674  -0.1690  -0.0436  -0.0097   0.0302   0.0639   0.2470   0.4135
     0.6538   0.7037   0.8430   1.0111   1.0313   1.0974   1.1513   1.4062
     1.4096   1.4857   1.6516   1.6785   1.7322   1.8727   1.9076   2.1167
     2.2195   2.2906   2.4129   2.4733   2.4767   2.9561   3.0437   3.2448
     3.3544   3.5287

          k = 0.0433-0.0364 0.0000 ( 38469 PWs)   bands (ev):

   -53.3370 -53.2729 -53.2296 -53.1640 -53.1071 -53.0432 -47.3976 -47.3176
   -47.2941 -47.2135 -46.9695 -46.8644 -29.6717 -29.5927 -29.5794 -29.5257
   -29.4106 -29.3756 -29.3285 -29.3094 -29.2558 -29.2420 -29.1672 -29.1096
   -29.0349 -29.0084 -28.9442 -28.8496 -28.8025 -28.7465 -25.7403 -25.6955
   -25.6356 -25.5255 -25.4445 -25.4103 -25.3426 -25.3257 -25.2407 -25.2303
   -25.1439 -24.9103 -24.9007 -24.8611 -24.8061 -24.7975 -24.7084 -24.5743
    -2.7543  -1.5611  -1.1795  -1.0497  -0.9804  -0.9061  -0.8431  -0.6940
    -0.5929  -0.3287  -0.2184  -0.1293  -0.0922  -0.0197   0.0924   0.4054
     0.6327   0.7257   0.9536   1.0797   1.1584   1.2593   1.3066   1.5453
     1.6606   1.7183   1.7372   1.8352   1.8606   2.0433   2.0925   2.2161
     2.2803   2.4466   2.5293   2.5514   2.8860   2.9941   3.2113   3.2367
     3.3520   3.4180

          k = 0.0433-0.0219 0.0000 ( 38474 PWs)   bands (ev):

   -53.3370 -53.2729 -53.2296 -53.1640 -53.1071 -53.0432 -47.3975 -47.3176
   -47.2942 -47.2135 -46.9695 -46.8644 -29.6735 -29.5929 -29.5808 -29.5265
   -29.4110 -29.3749 -29.3322 -29.3092 -29.2567 -29.2444 -29.1681 -29.1117
   -29.0344 -29.0083 -28.9440 -28.8495 -28.8026 -28.7465 -25.7379 -25.6934
   -25.6319 -25.5249 -25.4459 -25.4088 -25.3428 -25.3201 -25.2360 -25.2291
   -25.1429 -24.9104 -24.8983 -24.8612 -24.8058 -24.7967 -24.7083 -24.5745
    -2.9186  -1.7165  -1.2257  -1.1217  -1.0948  -0.9519  -0.8977  -0.7956
    -0.7256  -0.4372  -0.3441  -0.2433  -0.1547  -0.0792  -0.0761   0.4202
     0.6317   0.6821   1.1112   1.1163   1.1970   1.4034   1.4947   1.6441
     1.7335   1.7690   1.9172   1.9650   2.0001   2.1421   2.2561   2.3479
     2.4700   2.5386   2.6446   2.7048   2.9813   3.0989   3.1975   3.2531
     3.3462   3.3675

          k = 0.0433-0.0073 0.0000 ( 38495 PWs)   bands (ev):

   -53.3371 -53.2729 -53.2297 -53.1640 -53.1072 -53.0432 -47.3975 -47.3175
   -47.2942 -47.2135 -46.9695 -46.8644 -29.6746 -29.5930 -29.5817 -29.5271
   -29.4113 -29.3746 -29.3343 -29.3092 -29.2572 -29.2458 -29.1687 -29.1128
   -29.0340 -29.0082 -28.9440 -28.8494 -28.8027 -28.7465 -25.7364 -25.6922
   -25.6297 -25.5245 -25.4466 -25.4080 -25.3430 -25.3168 -25.2333 -25.2284
   -25.1424 -24.9105 -24.8969 -24.8612 -24.8056 -24.7962 -24.7083 -24.5746
    -3.0028  -1.7976  -1.2443  -1.2030  -1.0889  -1.0058  -0.9450  -0.9022
    -0.7352  -0.4849  -0.4109  -0.3014  -0.1876  -0.1829  -0.1053   0.4284
     0.6310   0.6560   1.1375   1.1873   1.2294   1.4936   1.5788   1.6513
     1.7377   1.8473   1.9630   2.0759   2.1622   2.1737   2.3611   2.4291
     2.5245   2.6771   2.7512   2.8506   2.9325   3.0493   3.1165   3.1395
     3.2414   3.4182

          k = 0.0433 0.0073 0.0000 ( 38495 PWs)   bands (ev):

   -53.3371 -53.2729 -53.2297 -53.1640 -53.1072 -53.0432 -47.3975 -47.3175
   -47.2942 -47.2135 -46.9695 -46.8644 -29.6746 -29.5930 -29.5817 -29.5271
   -29.4113 -29.3746 -29.3343 -29.3092 -29.2572 -29.2458 -29.1687 -29.1128
   -29.0340 -29.0082 -28.9440 -28.8494 -28.8027 -28.7465 -25.7364 -25.6922
   -25.6297 -25.5245 -25.4466 -25.4080 -25.3430 -25.3168 -25.2333 -25.2284
   -25.1424 -24.9105 -24.8969 -24.8612 -24.8056 -24.7962 -24.7083 -24.5746
    -3.0028  -1.7976  -1.2443  -1.2031  -1.0889  -1.0058  -0.9450  -0.9022
    -0.7352  -0.4849  -0.4108  -0.3015  -0.1876  -0.1829  -0.1053   0.4284
     0.6310   0.6560   1.1375   1.1873   1.2294   1.4936   1.5788   1.6513
     1.7377   1.8474   1.9629   2.0759   2.1622   2.1737   2.3611   2.4292
     2.5244   2.6772   2.7511   2.8505   2.9325   3.0493   3.1165   3.1395
     3.2413   3.4182

          k = 0.0578 0.0291 0.0000 ( 38497 PWs)   bands (ev):

   -53.3277 -53.2824 -53.2201 -53.1737 -53.0979 -53.0526 -47.3826 -47.3095
   -47.3025 -47.2289 -46.9543 -46.8800 -29.6610 -29.6038 -29.4991 -29.4441
   -29.3657 -29.3328 -29.3194 -29.3174 -29.2657 -29.2320 -29.1778 -29.0999
   -29.0941 -29.0452 -29.0319 -28.9340 -28.7945 -28.7547 -25.6231 -25.6181
   -25.5782 -25.5421 -25.4304 -25.3587 -25.3095 -25.2922 -25.2445 -25.2247
   -25.1588 -25.0377 -24.9897 -24.8864 -24.8206 -24.7845 -24.7218 -24.7031
    -2.5749  -1.4002  -1.2646  -0.9760  -0.8387  -0.7520  -0.6854  -0.5875
    -0.4923  -0.3346  -0.1925  -0.0201   0.0911   0.1796   0.2394   0.5169
     0.6756   0.7228   1.0450   1.0456   1.2545   1.3098   1.4435   1.5852
     1.6244   1.6717   1.8115   1.8560   1.8814   2.0417   2.0911   2.1960
     2.2683   2.3390   2.4299   2.5704   2.7417   2.8721   3.0814   3.0847
     3.1652   3.3501

          k = 0.0578 0.0437 0.0000 ( 38438 PWs)   bands (ev):

   -53.3276 -53.2823 -53.2200 -53.1737 -53.0978 -53.0525 -47.3827 -47.3095
   -47.3026 -47.2289 -46.9544 -46.8800 -29.6592 -29.6038 -29.4977 -29.4432
   -29.3663 -29.3324 -29.3174 -29.3160 -29.2656 -29.2298 -29.1774 -29.0979
   -29.0945 -29.0461 -29.0322 -28.9342 -28.7944 -28.7548 -25.6254 -25.6215
   -25.5802 -25.5422 -25.4292 -25.3587 -25.3147 -25.2933 -25.2449 -25.2290
   -25.1590 -25.0371 -24.9892 -24.8889 -24.8205 -24.7852 -24.7217 -24.7026
    -2.3877  -1.2948  -1.2318  -0.9122  -0.7689  -0.6642  -0.6270  -0.4449
    -0.3751  -0.2241  -0.0649   0.1085   0.1480   0.2746   0.3128   0.5337
     0.7085   0.7091   0.8957   1.0514   1.0949   1.1876   1.2590   1.4109
     1.4973   1.5565   1.6998   1.7291   1.7734   1.8984   1.9863   2.0306
     2.2353   2.2459   2.3345   2.5252   2.5402   2.8035   2.8724   3.1996
     3.3716   3.3772

          k = 0.0578 0.0583 0.0000 ( 38470 PWs)   bands (ev):

   -53.3276 -53.2824 -53.2200 -53.1737 -53.0979 -53.0526 -47.3828 -47.3095
   -47.3027 -47.2289 -46.9544 -46.8800 -29.6575 -29.6039 -29.4962 -29.4423
   -29.3670 -29.3321 -29.3173 -29.3126 -29.2654 -29.2276 -29.1769 -29.0960
   -29.0948 -29.0470 -29.0326 -28.9345 -28.7942 -28.7549 -25.6277 -25.6248
   -25.5821 -25.5423 -25.4281 -25.3589 -25.3199 -25.2944 -25.2454 -25.2333
   -25.1591 -25.0366 -24.9887 -24.8915 -24.8205 -24.7858 -24.7216 -24.7023
    -2.1387  -1.2948  -1.0473  -0.8910  -0.8221  -0.4967  -0.4686  -0.3828
    -0.1773  -0.0761   0.0933   0.2129   0.2306   0.3088   0.3754   0.5479
     0.7084   0.7668   0.7826   0.9329   1.0471   1.0840   1.1169   1.1956
     1.3129   1.3252   1.5134   1.5238   1.6629   1.7853   1.9397   1.9466
     2.1346   2.2092   2.3245   2.3457   2.4953   2.6181   2.9093   3.1622
     3.2161   3.4900

          k = 0.0578 0.0728 0.0000 ( 38477 PWs)   bands (ev):

   -53.3276 -53.2824 -53.2200 -53.1737 -53.0978 -53.0526 -47.3828 -47.3094
   -47.3028 -47.2289 -46.9545 -46.8800 -29.6563 -29.6039 -29.4952 -29.4416
   -29.3675 -29.3318 -29.3173 -29.3100 -29.2653 -29.2260 -29.1765 -29.0954
   -29.0941 -29.0477 -29.0328 -28.9347 -28.7941 -28.7550 -25.6294 -25.6273
   -25.5835 -25.5424 -25.4273 -25.3589 -25.3236 -25.2952 -25.2457 -25.2363
   -25.1593 -25.0363 -24.9884 -24.8935 -24.8204 -24.7861 -24.7215 -24.7020
    -1.8439  -1.2821  -1.2072  -0.7413  -0.7338  -0.4159  -0.3793  -0.1973
    -0.0543   0.0416   0.2373   0.2693   0.2709   0.3229   0.4722   0.5568
     0.5873   0.7481   0.7911   0.8567   0.9163   0.9962   1.1041   1.1060
     1.1652   1.1879   1.3279   1.3788   1.5188   1.6741   1.6896   2.0026
     2.0383   2.1753   2.3349   2.3748   2.4312   2.5932   2.9492   2.9606
     3.1342   3.4078

          k = 0.0578 0.0874 0.0000 ( 38511 PWs)   bands (ev):

   -53.3277 -53.2824 -53.2200 -53.1738 -53.0979 -53.0526 -47.3829 -47.3094
   -47.3028 -47.2289 -46.9545 -46.8800 -29.6558 -29.6039 -29.4948 -29.4414
   -29.3676 -29.3317 -29.3173 -29.3091 -29.2653 -29.2255 -29.1764 -29.0955
   -29.0936 -29.0479 -29.0329 -28.9347 -28.7941 -28.7550 -25.6300 -25.6282
   -25.5841 -25.5424 -25.4270 -25.3590 -25.3250 -25.2955 -25.2459 -25.2375
   -25.1593 -25.0362 -24.9883 -24.8942 -24.8204 -24.7862 -24.7215 -24.7019
    -1.5745  -1.4619  -1.2752  -0.6946  -0.5676  -0.4903  -0.3250  -0.0429
    -0.0340   0.0849   0.2293   0.2605   0.3311   0.3506   0.4425   0.5261
     0.6440   0.7638   0.7900   0.8505   0.8736   0.9315   0.9725   1.0512
     1.1333   1.1872   1.3019   1.3404   1.4681   1.5593   1.6301   2.0340
     2.0485   2.1461   2.2089   2.3485   2.5398   2.7744   2.7953   2.7994
     3.2439   3.2922

          k = 0.0578 0.1020 0.0000 ( 38477 PWs)   bands (ev):

   -53.3276 -53.2824 -53.2200 -53.1737 -53.0978 -53.0526 -47.3828 -47.3094
   -47.3028 -47.2289 -46.9545 -46.8800 -29.6563 -29.6039 -29.4952 -29.4416
   -29.3675 -29.3318 -29.3173 -29.3100 -29.2653 -29.2260 -29.1765 -29.0954
   -29.0941 -29.0477 -29.0328 -28.9347 -28.7941 -28.7550 -25.6294 -25.6273
   -25.5835 -25.5424 -25.4273 -25.3589 -25.3236 -25.2952 -25.2457 -25.2363
   -25.1593 -25.0363 -24.9884 -24.8935 -24.8204 -24.7861 -24.7215 -24.7020
    -1.8439  -1.2821  -1.2072  -0.7413  -0.7338  -0.4159  -0.3793  -0.1972
    -0.0543   0.0416   0.2373   0.2693   0.2709   0.3229   0.4723   0.5568
     0.5873   0.7481   0.7911   0.8567   0.9164   0.9962   1.1041   1.1059
     1.1652   1.1878   1.3280   1.3787   1.5187   1.6741   1.6896   2.0026
     2.0383   2.1753   2.3348   2.3748   2.4311   2.5932   2.9493   2.9607
     3.1342   3.4078

          k = 0.0578-0.0583 0.0000 ( 38470 PWs)   bands (ev):

   -53.3276 -53.2824 -53.2200 -53.1737 -53.0979 -53.0526 -47.3828 -47.3095
   -47.3027 -47.2289 -46.9544 -46.8800 -29.6575 -29.6039 -29.4962 -29.4423
   -29.3670 -29.3321 -29.3173 -29.3126 -29.2654 -29.2276 -29.1769 -29.0960
   -29.0948 -29.0470 -29.0326 -28.9345 -28.7942 -28.7549 -25.6277 -25.6248
   -25.5821 -25.5423 -25.4281 -25.3589 -25.3199 -25.2944 -25.2454 -25.2333
   -25.1591 -25.0366 -24.9887 -24.8915 -24.8205 -24.7858 -24.7216 -24.7023
    -2.1387  -1.2948  -1.0473  -0.8910  -0.8221  -0.4967  -0.4686  -0.3828
    -0.1773  -0.0761   0.0933   0.2129   0.2306   0.3088   0.3755   0.5479
     0.7084   0.7667   0.7826   0.9329   1.0471   1.0840   1.1169   1.1956
     1.3128   1.3252   1.5135   1.5237   1.6628   1.7854   1.9397   1.9466
     2.1345   2.2091   2.3245   2.3456   2.4952   2.6181   2.9094   3.1622
     3.2162   3.4899

          k = 0.0578-0.0437 0.0000 ( 38438 PWs)   bands (ev):

   -53.3276 -53.2823 -53.2200 -53.1737 -53.0978 -53.0525 -47.3827 -47.3095
   -47.3026 -47.2289 -46.9544 -46.8800 -29.6592 -29.6038 -29.4977 -29.4432
   -29.3663 -29.3324 -29.3174 -29.3160 -29.2656 -29.2298 -29.1774 -29.0979
   -29.0945 -29.0461 -29.0322 -28.9342 -28.7944 -28.7548 -25.6254 -25.6215
   -25.5802 -25.5422 -25.4292 -25.3587 -25.3147 -25.2933 -25.2449 -25.2290
   -25.1590 -25.0371 -24.9892 -24.8889 -24.8205 -24.7852 -24.7217 -24.7026
    -2.3877  -1.2948  -1.2318  -0.9122  -0.7689  -0.6641  -0.6270  -0.4449
    -0.3751  -0.2241  -0.0649   0.1085   0.1480   0.2747   0.3129   0.5337
     0.7085   0.7091   0.8957   1.0514   1.0949   1.1876   1.2590   1.4110
     1.4973   1.5565   1.6998   1.7290   1.7735   1.8984   1.9863   2.0305
     2.2353   2.2458   2.3346   2.5252   2.5402   2.8035   2.8725   3.1997
     3.3716   3.3774

          k = 0.0578-0.0291 0.0000 ( 38497 PWs)   bands (ev):

   -53.3277 -53.2824 -53.2201 -53.1737 -53.0979 -53.0526 -47.3826 -47.3095
   -47.3025 -47.2289 -46.9543 -46.8800 -29.6610 -29.6038 -29.4991 -29.4441
   -29.3657 -29.3328 -29.3194 -29.3174 -29.2657 -29.2320 -29.1778 -29.0999
   -29.0941 -29.0452 -29.0319 -28.9340 -28.7945 -28.7547 -25.6231 -25.6181
   -25.5782 -25.5421 -25.4304 -25.3587 -25.3095 -25.2922 -25.2445 -25.2247
   -25.1588 -25.0377 -24.9897 -24.8864 -24.8206 -24.7845 -24.7218 -24.7031
    -2.5749  -1.4002  -1.2646  -0.9760  -0.8387  -0.7520  -0.6854  -0.5875
    -0.4923  -0.3346  -0.1926  -0.0201   0.0911   0.1796   0.2394   0.5169
     0.6756   0.7229   1.0449   1.0455   1.2544   1.3098   1.4435   1.5853
     1.6244   1.6718   1.8116   1.8560   1.8814   2.0417   2.0911   2.1960
     2.2683   2.3390   2.4299   2.5705   2.7417   2.8721   3.0815   3.0847
     3.1653   3.3502

          k = 0.0578-0.0146 0.0000 ( 38493 PWs)   bands (ev):

   -53.3277 -53.2824 -53.2201 -53.1737 -53.0979 -53.0526 -47.3825 -47.3095
   -47.3025 -47.2289 -46.9543 -46.8800 -29.6622 -29.6037 -29.5001 -29.4448
   -29.3653 -29.3331 -29.3219 -29.3175 -29.2659 -29.2336 -29.1782 -29.1013
   -29.0939 -29.0445 -29.0317 -28.9339 -28.7946 -28.7547 -25.6214 -25.6156
   -25.5767 -25.5420 -25.4313 -25.3586 -25.3057 -25.2914 -25.2443 -25.2216
   -25.1587 -25.0381 -24.9902 -24.8846 -24.8207 -24.7839 -24.7218 -24.7035
    -2.6907  -1.5069  -1.1951  -1.0134  -0.9386  -0.8662  -0.7552  -0.6714
    -0.5138  -0.3872  -0.2768  -0.1048   0.0410   0.0531   0.2098   0.5226
     0.6523   0.7438   1.0582   1.1682   1.3802   1.4360   1.5240   1.5721
     1.5775   1.7851   1.9221   1.9911   2.0336   2.1378   2.2265   2.3409
     2.3703   2.4609   2.5129   2.5791   2.7803   2.8714   2.9777   3.1061
     3.1354   3.2084

          k = 0.0578 0.0000 0.0000 ( 38505 PWs)   bands (ev):

   -53.3278 -53.2824 -53.2202 -53.1737 -53.0979 -53.0526 -47.3825 -47.3095
   -47.3024 -47.2290 -46.9542 -46.8800 -29.6626 -29.6037 -29.5005 -29.4450
   -29.3651 -29.3332 -29.3228 -29.3175 -29.2659 -29.2341 -29.1783 -29.1019
   -29.0938 -29.0443 -29.0316 -28.9338 -28.7947 -28.7547 -25.6208 -25.6146
   -25.5762 -25.5420 -25.4316 -25.3586 -25.3043 -25.2911 -25.2442 -25.2204
   -25.1586 -25.0383 -24.9903 -24.8839 -24.8207 -24.7837 -24.7219 -24.7036
    -2.7298  -1.5433  -1.1154  -1.0637  -0.9729  -0.9197  -0.8188  -0.6725
    -0.5181  -0.3983  -0.3075  -0.1339  -0.0150   0.0398   0.1983   0.5255
     0.6439   0.7512   1.0678   1.2220   1.4365   1.4954   1.5197   1.5446
     1.5557   1.7874   2.0334   2.0749   2.1259   2.1705   2.1868   2.3863
     2.4206   2.4922   2.5520   2.7506   2.7669   2.8615   2.8830   2.9013
     3.1375   3.2001

          k = 0.0578 0.0146 0.0000 ( 38493 PWs)   bands (ev):

   -53.3277 -53.2824 -53.2201 -53.1737 -53.0979 -53.0526 -47.3825 -47.3095
   -47.3025 -47.2289 -46.9543 -46.8800 -29.6622 -29.6037 -29.5001 -29.4448
   -29.3653 -29.3331 -29.3219 -29.3175 -29.2659 -29.2336 -29.1782 -29.1013
   -29.0939 -29.0445 -29.0317 -28.9339 -28.7946 -28.7547 -25.6214 -25.6156
   -25.5767 -25.5420 -25.4313 -25.3586 -25.3057 -25.2914 -25.2443 -25.2216
   -25.1587 -25.0381 -24.9902 -24.8846 -24.8207 -24.7839 -24.7218 -24.7035
    -2.6907  -1.5069  -1.1951  -1.0135  -0.9386  -0.8662  -0.7552  -0.6714
    -0.5138  -0.3872  -0.2767  -0.1048   0.0410   0.0531   0.2098   0.5226
     0.6524   0.7438   1.0582   1.1682   1.3803   1.4360   1.5240   1.5720
     1.5776   1.7851   1.9220   1.9911   2.0336   2.1379   2.2264   2.3410
     2.3704   2.4609   2.5129   2.5791   2.7803   2.8714   2.9777   3.1061
     3.1352   3.2084

          k = 0.0722 0.0364 0.0000 ( 38489 PWs)   bands (ev):

   -53.3168 -53.2934 -53.2089 -53.1850 -53.0870 -53.0635 -47.3651 -47.3273
   -47.2849 -47.2468 -46.9365 -46.8981 -29.6466 -29.6170 -29.4031 -29.3549
   -29.3486 -29.3290 -29.3054 -29.2775 -29.2365 -29.2182 -29.1930 -29.1898
   -29.1331 -29.0863 -29.0579 -29.0315 -28.7849 -28.7644 -25.6012 -25.5621
   -25.4868 -25.4409 -25.4127 -25.3752 -25.2963 -25.2628 -25.2110 -25.1833
   -25.1766 -25.1541 -25.1361 -24.8718 -24.8498 -24.8374 -24.7695 -24.7372
    -2.1873  -1.4763  -1.0855  -0.8476  -0.5678  -0.5654  -0.5254  -0.3910
    -0.2871  -0.2726  -0.0175   0.2422   0.2837   0.4080   0.4559   0.6197
     0.6495   0.7759   0.8755   1.0243   1.0939   1.2725   1.3328   1.4782
     1.5149   1.5621   1.7056   1.8041   1.8233   1.8991   1.9408   2.0978
     2.1195   2.1670   2.2554   2.4870   2.5246   2.7145   2.8186   3.1759
     3.3274   3.3503

          k = 0.0722 0.0510 0.0000 ( 38465 PWs)   bands (ev):

   -53.3168 -53.2933 -53.2089 -53.1849 -53.0870 -53.0635 -47.3652 -47.3272
   -47.2850 -47.2468 -46.9366 -46.8980 -29.6452 -29.6174 -29.4018 -29.3555
   -29.3475 -29.3292 -29.3026 -29.2782 -29.2361 -29.2166 -29.1936 -29.1900
   -29.1336 -29.0844 -29.0592 -29.0318 -28.7848 -28.7644 -25.6038 -25.5613
   -25.4887 -25.4427 -25.4118 -25.3755 -25.3003 -25.2616 -25.2142 -25.1824
   -25.1755 -25.1556 -25.1352 -24.8738 -24.8491 -24.8367 -24.7700 -24.7369
    -1.9950  -1.5651  -0.9392  -0.8265  -0.6555  -0.4434  -0.4361  -0.2639
    -0.2508  -0.1908   0.0992   0.2429   0.3384   0.4600   0.4701   0.6357
     0.7283   0.7502   0.7837   0.9460   1.1181   1.1710   1.2279   1.3399
     1.4035   1.4381   1.5816   1.6764   1.7264   1.8934   1.9268   2.0548
     2.1036   2.1454   2.2273   2.2724   2.5399   2.6152   2.8443   3.2202
     3.2626   3.4866

          k = 0.0722 0.0656 0.0000 ( 38462 PWs)   bands (ev):

   -53.3167 -53.2933 -53.2089 -53.1850 -53.0870 -53.0635 -47.3653 -47.3272
   -47.2851 -47.2468 -46.9366 -46.8980 -29.6440 -29.6179 -29.4007 -29.3559
   -29.3465 -29.3294 -29.3002 -29.2788 -29.2358 -29.2152 -29.1942 -29.1901
   -29.1341 -29.0828 -29.0603 -29.0321 -28.7847 -28.7645 -25.6061 -25.5606
   -25.4902 -25.4441 -25.4110 -25.3758 -25.3036 -25.2606 -25.2169 -25.1817
   -25.1746 -25.1567 -25.1346 -24.8755 -24.8486 -24.8361 -24.7705 -24.7367
    -1.7514  -1.6188  -0.9046  -0.7900  -0.7218  -0.3310  -0.3248  -0.2394
    -0.1484  -0.0926   0.1605   0.1821   0.3829   0.4798   0.5827   0.6221
     0.6791   0.7292   0.8053   0.8550   0.9973   1.1449   1.2530   1.2581
     1.3154   1.3230   1.4582   1.5685   1.6308   1.8145   1.8500   1.9728
     2.1124   2.1584   2.1911   2.3593   2.3670   2.7478   2.8875   2.9755
     3.1813   3.4708

          k = 0.0722 0.0801 0.0000 ( 38463 PWs)   bands (ev):

   -53.3167 -53.2934 -53.2088 -53.1850 -53.0869 -53.0635 -47.3653 -47.3272
   -47.2851 -47.2467 -46.9366 -46.8980 -29.6433 -29.6181 -29.4000 -29.3562
   -29.3459 -29.3296 -29.2988 -29.2792 -29.2356 -29.2144 -29.1945 -29.1902
   -29.1344 -29.0819 -29.0609 -29.0322 -28.7846 -28.7646 -25.6074 -25.5602
   -25.4911 -25.4450 -25.4105 -25.3760 -25.3055 -25.2600 -25.2185 -25.1814
   -25.1742 -25.1574 -25.1343 -24.8764 -24.8484 -24.8358 -24.7708 -24.7366
    -1.6435  -1.4742  -1.1636  -0.7608  -0.5502  -0.3648  -0.2537  -0.1372
    -0.1087  -0.0029   0.1131   0.1274   0.4675   0.4879   0.5437   0.6244
     0.6555   0.7395   0.8390   0.8766   0.9100   1.0582   1.0987   1.2087
     1.3147   1.4020   1.4327   1.5272   1.5896   1.7119   1.7735   1.9176
     2.0253   2.1482   2.2009   2.4399   2.4642   2.7334   2.8619   2.9831
     3.0861   3.2696

          k = 0.0722 0.0947 0.0000 ( 38463 PWs)   bands (ev):

   -53.3167 -53.2934 -53.2088 -53.1850 -53.0869 -53.0635 -47.3653 -47.3272
   -47.2851 -47.2467 -46.9366 -46.8980 -29.6433 -29.6181 -29.4000 -29.3562
   -29.3459 -29.3296 -29.2988 -29.2792 -29.2356 -29.2144 -29.1945 -29.1902
   -29.1344 -29.0819 -29.0609 -29.0322 -28.7846 -28.7646 -25.6074 -25.5602
   -25.4911 -25.4450 -25.4105 -25.3760 -25.3055 -25.2600 -25.2185 -25.1814
   -25.1742 -25.1574 -25.1343 -24.8764 -24.8484 -24.8358 -24.7708 -24.7366
    -1.6435  -1.4742  -1.1636  -0.7608  -0.5502  -0.3649  -0.2537  -0.1372
    -0.1088  -0.0029   0.1131   0.1274   0.4675   0.4879   0.5438   0.6244
     0.6555   0.7395   0.8391   0.8766   0.9100   1.0582   1.0987   1.2087
     1.3147   1.4020   1.4327   1.5272   1.5895   1.7119   1.7735   1.9176
     2.0253   2.1482   2.2009   2.4398   2.4642   2.7335   2.8619   2.9831
     3.0862   3.2695

          k = 0.0722 0.1093 0.0000 ( 38462 PWs)   bands (ev):

   -53.3167 -53.2933 -53.2089 -53.1850 -53.0870 -53.0635 -47.3653 -47.3272
   -47.2851 -47.2468 -46.9366 -46.8980 -29.6440 -29.6179 -29.4007 -29.3559
   -29.3465 -29.3294 -29.3002 -29.2788 -29.2358 -29.2152 -29.1942 -29.1901
   -29.1341 -29.0828 -29.0603 -29.0321 -28.7847 -28.7645 -25.6061 -25.5606
   -25.4902 -25.4441 -25.4110 -25.3758 -25.3036 -25.2606 -25.2169 -25.1817
   -25.1746 -25.1567 -25.1346 -24.8755 -24.8486 -24.8361 -24.7705 -24.7367
    -1.7514  -1.6188  -0.9045  -0.7900  -0.7218  -0.3310  -0.3248  -0.2394
    -0.1485  -0.0925   0.1605   0.1821   0.3829   0.4798   0.5828   0.6222
     0.6791   0.7293   0.8053   0.8550   0.9973   1.1449   1.2530   1.2581
     1.3153   1.3229   1.4583   1.5684   1.6307   1.8145   1.8500   1.9728
     2.1124   2.1584   2.1911   2.3593   2.3670   2.7478   2.8874   2.9755
     3.1813   3.4711

          k = 0.0722-0.0510 0.0000 ( 38465 PWs)   bands (ev):

   -53.3168 -53.2933 -53.2089 -53.1849 -53.0870 -53.0635 -47.3652 -47.3272
   -47.2850 -47.2468 -46.9366 -46.8980 -29.6452 -29.6174 -29.4018 -29.3555
   -29.3475 -29.3292 -29.3026 -29.2782 -29.2361 -29.2166 -29.1936 -29.1900
   -29.1336 -29.0844 -29.0592 -29.0318 -28.7848 -28.7644 -25.6038 -25.5613
   -25.4887 -25.4427 -25.4118 -25.3755 -25.3003 -25.2616 -25.2142 -25.1824
   -25.1755 -25.1556 -25.1352 -24.8738 -24.8491 -24.8367 -24.7700 -24.7369
    -1.9950  -1.5651  -0.9392  -0.8265  -0.6555  -0.4433  -0.4361  -0.2639
    -0.2508  -0.1908   0.0992   0.2430   0.3384   0.4601   0.4701   0.6357
     0.7283   0.7502   0.7837   0.9460   1.1180   1.1710   1.2279   1.3398
     1.4035   1.4381   1.5817   1.6764   1.7263   1.8934   1.9269   2.0547
     2.1036   2.1454   2.2273   2.2724   2.5400   2.6152   2.8442   3.2202
     3.2626   3.4867

          k = 0.0722-0.0364 0.0000 ( 38489 PWs)   bands (ev):

   -53.3168 -53.2934 -53.2089 -53.1850 -53.0870 -53.0635 -47.3651 -47.3273
   -47.2849 -47.2468 -46.9365 -46.8981 -29.6466 -29.6170 -29.4031 -29.3549
   -29.3486 -29.3290 -29.3054 -29.2775 -29.2365 -29.2182 -29.1930 -29.1898
   -29.1331 -29.0863 -29.0579 -29.0315 -28.7849 -28.7644 -25.6012 -25.5621
   -25.4868 -25.4409 -25.4127 -25.3752 -25.2963 -25.2628 -25.2110 -25.1833
   -25.1766 -25.1541 -25.1361 -24.8718 -24.8498 -24.8374 -24.7695 -24.7372
    -2.1873  -1.4763  -1.0855  -0.8476  -0.5677  -0.5654  -0.5254  -0.3910
    -0.2871  -0.2726  -0.0175   0.2423   0.2837   0.4081   0.4559   0.6197
     0.6495   0.7759   0.8755   1.0243   1.0939   1.2725   1.3328   1.4782
     1.5149   1.5622   1.7057   1.8040   1.8232   1.8992   1.9408   2.0978
     2.1194   2.1670   2.2554   2.4869   2.5246   2.7145   2.8185   3.1759
     3.3274   3.3503

          k = 0.0722-0.0219 0.0000 ( 38525 PWs)   bands (ev):

   -53.3169 -53.2934 -53.2090 -53.1849 -53.0870 -53.0636 -47.3651 -47.3273
   -47.2849 -47.2469 -46.9365 -46.8981 -29.6478 -29.6165 -29.4041 -29.3545
   -29.3495 -29.3289 -29.3077 -29.2769 -29.2369 -29.2195 -29.1925 -29.1896
   -29.1327 -29.0879 -29.0569 -29.0312 -28.7851 -28.7643 -25.5989 -25.5628
   -25.4851 -25.4393 -25.4135 -25.3749 -25.2927 -25.2639 -25.2081 -25.1842
   -25.1776 -25.1528 -25.1370 -24.8700 -24.8505 -24.8380 -24.7690 -24.7374
    -2.3194  -1.3483  -1.1904  -0.8555  -0.7294  -0.6533  -0.5223  -0.4666
    -0.3049  -0.3011  -0.1127   0.1380   0.2911   0.3056   0.4261   0.6077
     0.6297   0.8177   0.9886   1.0170   1.2006   1.3273   1.4460   1.4539
     1.5655   1.7189   1.7909   1.8198   1.9116   1.9450   2.0237   2.1210
     2.2260   2.2452   2.3887   2.4970   2.6599   2.7810   2.8353   2.9301
     3.1878   3.2705

          k = 0.0722-0.0073 0.0000 ( 38522 PWs)   bands (ev):

   -53.3169 -53.2933 -53.2091 -53.1849 -53.0870 -53.0636 -47.3650 -47.3273
   -47.2848 -47.2469 -46.9365 -46.8981 -29.6485 -29.6163 -29.4047 -29.3542
   -29.3500 -29.3288 -29.3090 -29.2765 -29.2372 -29.2203 -29.1923 -29.1896
   -29.1324 -29.0888 -29.0563 -29.0311 -28.7851 -28.7642 -25.5976 -25.5632
   -25.4841 -25.4384 -25.4140 -25.3748 -25.2906 -25.2646 -25.2063 -25.1847
   -25.1782 -25.1520 -25.1376 -24.8688 -24.8510 -24.8384 -24.7688 -24.7375
    -2.3866  -1.2443  -1.1821  -0.9869  -0.7742  -0.6969  -0.6142  -0.4528
    -0.2998  -0.2983  -0.1661   0.0778   0.2067   0.2857   0.3992   0.6097
     0.6444   0.8593   0.9781   1.1324   1.2435   1.3582   1.3924   1.4505
     1.6442   1.7447   1.8164   1.8404   1.9921   2.0023   2.0746   2.1821
     2.2701   2.3320   2.5329   2.6259   2.6331   2.7541   2.8161   2.8774
     3.0456   3.0518

          k = 0.0722 0.0073 0.0000 ( 38522 PWs)   bands (ev):

   -53.3169 -53.2933 -53.2091 -53.1849 -53.0870 -53.0636 -47.3650 -47.3273
   -47.2848 -47.2469 -46.9365 -46.8981 -29.6485 -29.6163 -29.4047 -29.3542
   -29.3500 -29.3288 -29.3090 -29.2765 -29.2372 -29.2203 -29.1923 -29.1896
   -29.1324 -29.0888 -29.0563 -29.0311 -28.7851 -28.7642 -25.5976 -25.5632
   -25.4841 -25.4384 -25.4140 -25.3748 -25.2906 -25.2646 -25.2063 -25.1847
   -25.1782 -25.1520 -25.1376 -24.8688 -24.8510 -24.8384 -24.7688 -24.7375
    -2.3866  -1.2443  -1.1821  -0.9869  -0.7742  -0.6969  -0.6142  -0.4528
    -0.2998  -0.2983  -0.1661   0.0778   0.2066   0.2857   0.3992   0.6097
     0.6444   0.8592   0.9781   1.1324   1.2435   1.3583   1.3924   1.4505
     1.6442   1.7446   1.8165   1.8404   1.9921   2.0023   2.0746   2.1822
     2.2701   2.3320   2.5330   2.6259   2.6331   2.7541   2.8161   2.8774
     3.0456   3.0517

          k = 0.0722 0.0219 0.0000 ( 38525 PWs)   bands (ev):

   -53.3169 -53.2934 -53.2090 -53.1849 -53.0870 -53.0636 -47.3651 -47.3273
   -47.2849 -47.2469 -46.9365 -46.8981 -29.6478 -29.6165 -29.4041 -29.3545
   -29.3495 -29.3289 -29.3077 -29.2769 -29.2369 -29.2195 -29.1925 -29.1896
   -29.1327 -29.0879 -29.0569 -29.0312 -28.7851 -28.7643 -25.5989 -25.5628
   -25.4851 -25.4393 -25.4135 -25.3749 -25.2927 -25.2639 -25.2081 -25.1842
   -25.1776 -25.1528 -25.1370 -24.8700 -24.8505 -24.8380 -24.7690 -24.7374
    -2.3194  -1.3483  -1.1904  -0.8555  -0.7294  -0.6533  -0.5223  -0.4666
    -0.3049  -0.3011  -0.1126   0.1380   0.2911   0.3056   0.4261   0.6077
     0.6298   0.8176   0.9887   1.0170   1.2006   1.3273   1.4460   1.4539
     1.5654   1.7189   1.7909   1.8198   1.9116   1.9450   2.0237   2.1210
     2.2260   2.2452   2.3887   2.4970   2.6599   2.7810   2.8352   2.9300
     3.1877   3.2704

          k =-0.0866-0.0437 0.0000 ( 38488 PWs)   bands (ev):

   -53.3051 -53.3051 -53.1970 -53.1970 -53.0753 -53.0753 -47.3463 -47.3463
   -47.2659 -47.2659 -46.9174 -46.9173 -29.6316 -29.6316 -29.3435 -29.3435
   -29.3001 -29.3001 -29.2895 -29.2895 -29.2403 -29.2403 -29.2033 -29.2033
   -29.1348 -29.1348 -29.0720 -29.0719 -28.7747 -28.7746 -25.5821 -25.5821
   -25.3940 -25.3940 -25.3376 -25.3376 -25.2908 -25.2908 -25.2792 -25.2792
   -25.1938 -25.1938 -25.0041 -25.0041 -24.8547 -24.8547 -24.7535 -24.7535
    -1.8018  -1.8018  -0.8709  -0.8709  -0.4748  -0.4748  -0.3820  -0.3819
    -0.2164  -0.2164   0.1608   0.1608   0.4675   0.4675   0.5970   0.5970
     0.6972   0.6973   0.8903   0.8903   1.1568   1.1568   1.3916   1.3916
     1.5059   1.5060   1.6347   1.6347   1.7995   1.7996   2.0195   2.0195
     2.1335   2.1335   2.2277   2.2277   2.4996   2.4996   3.1104   3.1104
     3.4206   3.4206

          k =-0.0866-0.0291 0.0000 ( 38478 PWs)   bands (ev):

   -53.3051 -53.3050 -53.1970 -53.1969 -53.0753 -53.0753 -47.3463 -47.3462
   -47.2660 -47.2659 -46.9174 -46.9173 -29.6325 -29.6307 -29.3439 -29.3430
   -29.3003 -29.2993 -29.2912 -29.2883 -29.2409 -29.2396 -29.2043 -29.2024
   -29.1352 -29.1344 -29.0734 -29.0705 -28.7748 -28.7745 -25.5838 -25.5804
   -25.3946 -25.3934 -25.3389 -25.3361 -25.2920 -25.2896 -25.2817 -25.2768
   -25.1959 -25.1918 -25.0050 -25.0031 -24.8561 -24.8534 -24.7539 -24.7531
    -1.9269  -1.6291  -0.9274  -0.7960  -0.6473  -0.4251  -0.3568  -0.3292
    -0.2602  -0.1747   0.0688   0.2214   0.4090   0.4942   0.5198   0.6873
     0.6941   0.7348   0.8111   0.9606   1.0273   1.3323   1.3509   1.4045
     1.4632   1.4949   1.6297   1.6481   1.7809   1.8359   2.0026   2.0413
     2.0872   2.1019   2.2469   2.3969   2.4109   2.5726   2.9538   3.2014
     3.2519   3.4248

          k =-0.0866-0.0146 0.0000 ( 38501 PWs)   bands (ev):

   -53.3051 -53.3051 -53.1970 -53.1969 -53.0753 -53.0753 -47.3463 -47.3462
   -47.2660 -47.2658 -46.9174 -46.9173 -29.6331 -29.6300 -29.3442 -29.3427
   -29.3003 -29.2980 -29.2932 -29.2877 -29.2413 -29.2390 -29.2050 -29.2019
   -29.1354 -29.1341 -29.0745 -29.0694 -28.7748 -28.7745 -25.5850 -25.5792
   -25.3950 -25.3930 -25.3396 -25.3347 -25.2929 -25.2888 -25.2837 -25.2753
   -25.1976 -25.1904 -25.0057 -25.0023 -24.8571 -24.8525 -24.7542 -24.7528
    -2.0022  -1.4150  -0.9591  -0.9110  -0.6647  -0.4291  -0.4009  -0.2700
    -0.2354  -0.1268  -0.0025   0.2039   0.3253   0.4515   0.5577   0.6585
     0.6804   0.8191   0.8650   0.9663   1.0186   1.2325   1.3142   1.4611
     1.4800   1.5644   1.6210   1.6587   1.7947   1.8199   1.9202   1.9907
     2.0684   2.2549   2.3196   2.3344   2.5770   2.6688   2.7440   3.1361
     3.1556   3.3593

          k =-0.0866 0.0000 0.0000 ( 38517 PWs)   bands (ev):

   -53.3052 -53.3051 -53.1971 -53.1969 -53.0753 -53.0753 -47.3464 -47.3461
   -47.2660 -47.2658 -46.9174 -46.9173 -29.6334 -29.6298 -29.3444 -29.3426
   -29.3003 -29.2969 -29.2945 -29.2875 -29.2415 -29.2387 -29.2054 -29.2017
   -29.1355 -29.1340 -29.0750 -29.0690 -28.7749 -28.7744 -25.5854 -25.5788
   -25.3951 -25.3928 -25.3398 -25.3342 -25.2932 -25.2886 -25.2843 -25.2747
   -25.1982 -25.1899 -25.0059 -25.0021 -24.8575 -24.8522 -24.7543 -24.7527
    -2.0274  -1.2012  -1.1322  -0.9690  -0.5933  -0.4644  -0.4296  -0.2561
    -0.2015  -0.0944  -0.0304   0.1764   0.2877   0.4063   0.6126   0.6500
     0.6504   0.8669   0.9169   0.9331   1.0765   1.1637   1.2339   1.4694
     1.5450   1.5942   1.6261   1.6603   1.8023   1.8055   1.8864   1.9510
     2.0787   2.2788   2.3468   2.4234   2.5800   2.6057   2.8967   2.9447
     3.1007   3.3578

          k =-0.0866 0.0146 0.0000 ( 38501 PWs)   bands (ev):

   -53.3051 -53.3051 -53.1970 -53.1969 -53.0753 -53.0753 -47.3463 -47.3462
   -47.2660 -47.2658 -46.9174 -46.9173 -29.6331 -29.6300 -29.3442 -29.3427
   -29.3003 -29.2980 -29.2932 -29.2877 -29.2413 -29.2390 -29.2050 -29.2019
   -29.1354 -29.1341 -29.0745 -29.0694 -28.7748 -28.7745 -25.5850 -25.5792
   -25.3950 -25.3930 -25.3396 -25.3347 -25.2929 -25.2888 -25.2837 -25.2753
   -25.1976 -25.1904 -25.0057 -25.0023 -24.8571 -24.8525 -24.7542 -24.7528
    -2.0022  -1.4150  -0.9591  -0.9110  -0.6647  -0.4291  -0.4009  -0.2700
    -0.2354  -0.1268  -0.0026   0.2039   0.3254   0.4515   0.5577   0.6585
     0.6804   0.8191   0.8650   0.9663   1.0186   1.2324   1.3142   1.4611
     1.4800   1.5644   1.6210   1.6586   1.7947   1.8199   1.9202   1.9907
     2.0683   2.2548   2.3196   2.3345   2.5770   2.6688   2.7441   3.1361
     3.1556   3.3593

          k =-0.0866 0.0291 0.0000 ( 38478 PWs)   bands (ev):

   -53.3051 -53.3050 -53.1970 -53.1969 -53.0753 -53.0753 -47.3463 -47.3462
   -47.2660 -47.2659 -46.9174 -46.9173 -29.6325 -29.6307 -29.3439 -29.3430
   -29.3003 -29.2993 -29.2912 -29.2883 -29.2409 -29.2396 -29.2043 -29.2024
   -29.1352 -29.1344 -29.0734 -29.0705 -28.7748 -28.7745 -25.5838 -25.5804
   -25.3946 -25.3934 -25.3389 -25.3361 -25.2920 -25.2896 -25.2817 -25.2768
   -25.1959 -25.1918 -25.0050 -25.0031 -24.8561 -24.8534 -24.7539 -24.7531
    -1.9269  -1.6291  -0.9274  -0.7960  -0.6473  -0.4251  -0.3568  -0.3292
    -0.2602  -0.1747   0.0688   0.2214   0.4090   0.4942   0.5199   0.6872
     0.6941   0.7348   0.8111   0.9606   1.0272   1.3323   1.3508   1.4046
     1.4632   1.4949   1.6297   1.6481   1.7809   1.8358   2.0027   2.0412
     2.0872   2.1019   2.2469   2.3969   2.4110   2.5727   2.9538   3.2014
     3.2519   3.4248

          k =-0.0866-0.1311 0.0000 ( 38488 PWs)   bands (ev):

   -53.3051 -53.3051 -53.1970 -53.1970 -53.0753 -53.0753 -47.3463 -47.3463
   -47.2659 -47.2659 -46.9174 -46.9173 -29.6316 -29.6316 -29.3435 -29.3435
   -29.3001 -29.3001 -29.2895 -29.2895 -29.2403 -29.2403 -29.2033 -29.2033
   -29.1348 -29.1348 -29.0720 -29.0719 -28.7747 -28.7746 -25.5821 -25.5821
   -25.3940 -25.3940 -25.3376 -25.3376 -25.2908 -25.2908 -25.2792 -25.2792
   -25.1938 -25.1938 -25.0041 -25.0041 -24.8547 -24.8547 -24.7535 -24.7535
    -1.8018  -1.8018  -0.8709  -0.8709  -0.4748  -0.4748  -0.3820  -0.3819
    -0.2164  -0.2164   0.1608   0.1608   0.4675   0.4675   0.5971   0.5971
     0.6972   0.6972   0.8903   0.8904   1.1568   1.1568   1.3916   1.3916
     1.5060   1.5060   1.6347   1.6347   1.7995   1.7995   2.0195   2.0195
     2.1335   2.1335   2.2276   2.2276   2.4997   2.4997   3.1104   3.1104
     3.4206   3.4206

     the Fermi energy is     1.7019 ev

!    total energy              =   -1311.64706946 Ry
     estimated scf accuracy    <       0.00000416 Ry
     smearing contrib. (-TS)   =      -0.09002379 Ry
     internal energy E=F+TS    =   -1311.55704567 Ry

     The total energy is F=E-TS. E is the sum of the following terms:
     one-electron contribution =   -9881.84245658 Ry
     hartree contribution      =    4933.36125259 Ry
     xc contribution           =    -226.73129815 Ry
     ewald contribution        =    3863.65544223 Ry
     electric field correction =       0.00001424 Ry

     convergence has been achieved in  18 iterations

     negative rho (up, down):  9.419E-04 0.000E+00

     Forces acting on atoms (cartesian axes, Ry/au):

     atom    1 type  1   force =    -0.00000172   -0.01321066   -0.01511975
     atom    2 type  1   force =    -0.00000084   -0.01321159   -0.01511918
     atom    3 type  2   force =     0.00000231    0.00913320    0.03095239
     atom    4 type  2   force =     0.00000202    0.00913192    0.03095560
     atom    5 type  1   force =    -0.00000355    0.01159905   -0.00089534
     atom    6 type  1   force =    -0.00000179    0.01160002   -0.00089759
     atom    7 type  2   force =     0.00000124   -0.00916845   -0.01522018
     atom    8 type  2   force =     0.00000562   -0.00916914   -0.01522702
     atom    9 type  1   force =    -0.00000406    0.00061378   -0.00036896
     atom   10 type  1   force =    -0.00000347    0.00060902   -0.00036959
     atom   11 type  2   force =     0.00000235    0.00103864    0.00065444
     atom   12 type  2   force =     0.00000189    0.00103422    0.00065518

     Total force =     0.061610     Total SCF correction =     0.003434

     Writing output data file ./Zr2Nb2/Zr2Nb2_beef.save/

     init_run     :     74.47s CPU     86.80s WALL (       1 calls)
     electrons    :   1962.47s CPU   2353.26s WALL (       1 calls)
     forces       :     25.38s CPU     27.79s WALL (       1 calls)

     Called by init_run:
     wfcinit      :     63.38s CPU     75.08s WALL (       1 calls)
     potinit      :      7.68s CPU      8.09s WALL (       1 calls)
     hinit0       :      2.26s CPU      2.36s WALL (       1 calls)

     Called by electrons:
     c_bands      :   1719.11s CPU   2049.76s WALL (      18 calls)
     sum_band     :    217.93s CPU    270.16s WALL (      18 calls)
     v_of_rho     :     20.22s CPU     26.35s WALL (      19 calls)
     newd         :     11.50s CPU     12.91s WALL (      19 calls)
     mix_rho      :      0.47s CPU      0.88s WALL (      18 calls)
     vdW_kernel   :      5.71s CPU      5.77s WALL (       1 calls)

     Called by c_bands:
     init_us_2    :      6.08s CPU      6.40s WALL (    2812 calls)
     cegterg      :   1694.75s CPU   2018.08s WALL (    1332 calls)

     Called by *egterg:
     cdiaghg      :    156.94s CPU    183.80s WALL (    6032 calls)
     h_psi        :    908.62s CPU   1135.29s WALL (    6106 calls)
     s_psi        :    193.08s CPU    193.21s WALL (    6106 calls)
     g_psi        :      1.07s CPU      1.12s WALL (    4700 calls)

     Called by h_psi:
     h_psi:calbec :    203.62s CPU    229.03s WALL (    6106 calls)
     vloc_psi     :    507.37s CPU    708.10s WALL (    6106 calls)
     add_vuspsi   :    195.37s CPU    195.59s WALL (    6106 calls)

     General routines
     calbec       :    310.19s CPU    346.10s WALL (    7734 calls)
     fft          :      9.04s CPU     15.59s WALL (    1256 calls)
     ffts         :      0.07s CPU      0.15s WALL (      37 calls)
     fftw         :    588.75s CPU    825.92s WALL (  678524 calls)
     interpolate  :      0.16s CPU      0.29s WALL (      19 calls)

     Parallel routines
     fft_scatt_xy :     35.39s CPU     49.43s WALL (  679817 calls)
     fft_scatt_yz :    174.89s CPU    326.88s WALL (  679817 calls)

     PWSCF        :  34m38.34s CPU  43m15.87s WALL


   This run was terminated on:   3:33: 8  11Jul2022            

=------------------------------------------------------------------------------=
   JOB DONE.
=------------------------------------------------------------------------------=
