
     Program PWSCF v.6.6 starts on 25Jun2022 at 22:41: 2 

     This program is part of the open-source Quantum ESPRESSO suite
     for quantum simulation of materials; please cite
         "P. Giannozzi et al., J. Phys.:Condens. Matter 21 395502 (2009);
         "P. Giannozzi et al., J. Phys.:Condens. Matter 29 465901 (2017);
          URL http://www.quantum-espresso.org", 
     in publications or presentations arising from this work. More details at
     http://www.quantum-espresso.org/quote

     Parallel version (MPI), running on    37 processors

     MPI processes distributed on     1 nodes
     R & G space division:  proc/nbgrp/npool/nimage =      37
     Fft bands division:     nmany     =       1
     Reading input from Zr2Pt2.in
Warning: card &CELL ignored
Warning: card / ignored

     Current dimensions of program PWSCF are:
     Max number of different atomic species (ntypx) = 10
     Max number of k-points (npk) =  40000
     Max angular momentum in pseudopotentials (lmaxx) =  3
     Presently stress not available with electric field and gates

     Message from routine cell_base_init:
     DEPRECATED: use true lattice parameter, not A to a.u. conversion factor
     file Zr.pbe-spn-rrkjus_psl.1.0.0.UPF: wavefunction(s)  4S renormalized
     file Pt.pbe-n-rrkjus_psl.1.0.0.UPF: wavefunction(s)  6S renormalized

     **************************************************************************
     Initializing libbeef V0.1.2 with the BEEF-vdW functional.
     Citation: Wellendorff et al., PRB 85, 235149 (2012).
     **************************************************************************


     IMPORTANT: XC functional enforced from input :
     Exchange-correlation= BEEF-VDW
                           (   1   4  43  14   2   0   0)
     Any further DFT definition will be discarded
     Please, verify this is what you really want


     Subspace diagonalization in iterative solution of the eigenvalue problem:
     a serial algorithm will be used

     Found symmetry operation: I + (  0.5000 -0.5000  0.0000)
     This is a supercell, fractional translations are disabled

     Parallelization info
     --------------------
     sticks:   dense  smooth     PW     G-vecs:    dense   smooth      PW
     Min         136      54     15                31760     8028    1191
     Max         137      55     16                31781     8037    1204
     Sum        5059    2021    567              1175579   297205   44291



     bravais-lattice index     =            0
     lattice parameter (alat)  =       1.8897  a.u.
     unit-cell volume          =    5379.0426 (a.u.)^3
     number of atoms/cell      =           12
     number of atomic types    =            2
     number of electrons       =       132.00
     number of Kohn-Sham states=           79
     kinetic-energy cutoff     =      55.1240  Ry
     charge density cutoff     =     551.2396  Ry
     convergence threshold     =      1.0E-05
     mixing beta               =       0.1000
     number of iterations used =           10  plain     mixing
     Exchange-correlation= BEEF-VDW
                           (   1   4  43  14   2   0   0)

     celldm(1)=   1.889726  celldm(2)=   0.000000  celldm(3)=   0.000000
     celldm(4)=   0.000000  celldm(5)=   0.000000  celldm(6)=   0.000000

     crystal axes: (cart. coord. in units of alat)
               a(1) = (   5.824629   0.000000   0.000000 )  
               a(2) = (   1.800871   5.539239   0.000000 )  
               a(3) = (   0.000000   0.000000  24.705298 )  

     reciprocal axes: (cart. coord. in units 2 pi/alat)
               b(1) = (  0.171685 -0.055817  0.000000 )  
               b(2) = (  0.000000  0.180530  0.000000 )  
               b(3) = (  0.000000  0.000000  0.040477 )  


     PseudoPot. # 1 for Zr read from file:
     ../pseudo/Zr.pbe-spn-rrkjus_psl.1.0.0.UPF
     MD5 check sum: 3d17ee99aa1707c2ccb6b09ed65e51a1
     Pseudo is Ultrasoft + core correction, Zval = 12.0
     Generated using "atomic" code by A. Dal Corso v.6.2.2
     Using radial grid of 1225 points,  6 beta functions with: 
                l(1) =   0
                l(2) =   0
                l(3) =   1
                l(4) =   1
                l(5) =   2
                l(6) =   2
     Q(r) pseudized with 0 coefficients 


     PseudoPot. # 2 for Pt read from file:
     ../pseudo/Pt.pbe-n-rrkjus_psl.1.0.0.UPF
     MD5 check sum: 6bc887cfe28d63a5fc1f72d35a7d3ef7
     Pseudo is Ultrasoft + core correction, Zval = 10.0
     Generated using "atomic" code by A. Dal Corso v.6.3
     Using radial grid of 1277 points,  6 beta functions with: 
                l(1) =   0
                l(2) =   0
                l(3) =   1
                l(4) =   1
                l(5) =   2
                l(6) =   2
     Q(r) pseudized with 0 coefficients 


     atomic species   valence    mass     pseudopotential
        Zr            12.00    91.22400     Zr( 1.00)
        Pt            10.00   195.08400     Pt( 1.00)

     No symmetry found



   Cartesian axes

     site n.     atom                  positions (alat units)
         1           Zr  tau(   1) = (   0.0000000   0.0000000  10.0000000  )
         2           Zr  tau(   2) = (   3.8127497   2.7696195  10.0000000  )
         3           Pt  tau(   3) = (   2.9123145   0.0000000  10.0000000  )
         4           Pt  tau(   4) = (   0.9004353   2.7696195  10.0000000  )
         5           Zr  tau(   5) = (   5.8246290   4.2310686  12.3526492  )
         6           Zr  tau(   6) = (   2.0118792   1.4614491  12.3526492  )
         7           Pt  tau(   7) = (   2.9123145   4.2310686  12.3526492  )
         8           Pt  tau(   8) = (   4.9241937   1.4614491  12.3526492  )
         9           Zr  tau(   9) = (   3.9494037   2.8688806  14.6999077  )
        10           Zr  tau(  10) = (   0.1366271   0.0992557  14.6999068  )
        11           Pt  tau(  11) = (   1.0393546   2.8705103  14.5027408  )
        12           Pt  tau(  12) = (   3.0512118   0.1009202  14.5027354  )

     number of k points=    74  Fermi-Dirac smearing, width (Ry)=  0.0100
                       cart. coord. in units 2pi/alat
        k(    1) = (   0.0000000   0.0000000   0.0000000), wk =   0.0138889
        k(    2) = (   0.0000000   0.0150442   0.0000000), wk =   0.0277778
        k(    3) = (   0.0000000   0.0300884   0.0000000), wk =   0.0277778
        k(    4) = (   0.0000000   0.0451326   0.0000000), wk =   0.0277778
        k(    5) = (   0.0000000   0.0601767   0.0000000), wk =   0.0277778
        k(    6) = (   0.0000000   0.0752209   0.0000000), wk =   0.0277778
        k(    7) = (   0.0000000  -0.0902651   0.0000000), wk =   0.0138889
        k(    8) = (   0.0143071  -0.0046514   0.0000000), wk =   0.0277778
        k(    9) = (   0.0143071   0.0103928   0.0000000), wk =   0.0277778
        k(   10) = (   0.0143071   0.0254370   0.0000000), wk =   0.0277778
        k(   11) = (   0.0143071   0.0404812   0.0000000), wk =   0.0277778
        k(   12) = (   0.0143071   0.0555253   0.0000000), wk =   0.0277778
        k(   13) = (   0.0143071   0.0705695   0.0000000), wk =   0.0277778
        k(   14) = (   0.0143071  -0.0949165   0.0000000), wk =   0.0277778
        k(   15) = (   0.0143071  -0.0798723   0.0000000), wk =   0.0277778
        k(   16) = (   0.0143071  -0.0648281   0.0000000), wk =   0.0277778
        k(   17) = (   0.0143071  -0.0497839   0.0000000), wk =   0.0277778
        k(   18) = (   0.0143071  -0.0347398   0.0000000), wk =   0.0277778
        k(   19) = (   0.0143071  -0.0196956   0.0000000), wk =   0.0277778
        k(   20) = (   0.0286141  -0.0093028   0.0000000), wk =   0.0277778
        k(   21) = (   0.0286141   0.0057414   0.0000000), wk =   0.0277778
        k(   22) = (   0.0286141   0.0207856   0.0000000), wk =   0.0277778
        k(   23) = (   0.0286141   0.0358298   0.0000000), wk =   0.0277778
        k(   24) = (   0.0286141   0.0508740   0.0000000), wk =   0.0277778
        k(   25) = (   0.0286141   0.0659181   0.0000000), wk =   0.0277778
        k(   26) = (   0.0286141  -0.0995679   0.0000000), wk =   0.0277778
        k(   27) = (   0.0286141  -0.0845237   0.0000000), wk =   0.0277778
        k(   28) = (   0.0286141  -0.0694795   0.0000000), wk =   0.0277778
        k(   29) = (   0.0286141  -0.0544353   0.0000000), wk =   0.0277778
        k(   30) = (   0.0286141  -0.0393912   0.0000000), wk =   0.0277778
        k(   31) = (   0.0286141  -0.0243470   0.0000000), wk =   0.0277778
        k(   32) = (   0.0429212  -0.0139542   0.0000000), wk =   0.0277778
        k(   33) = (   0.0429212   0.0010900   0.0000000), wk =   0.0277778
        k(   34) = (   0.0429212   0.0161342   0.0000000), wk =   0.0277778
        k(   35) = (   0.0429212   0.0311784   0.0000000), wk =   0.0277778
        k(   36) = (   0.0429212   0.0462226   0.0000000), wk =   0.0277778
        k(   37) = (   0.0429212   0.0612667   0.0000000), wk =   0.0277778
        k(   38) = (   0.0429212  -0.1042193   0.0000000), wk =   0.0277778
        k(   39) = (   0.0429212  -0.0891751   0.0000000), wk =   0.0277778
        k(   40) = (   0.0429212  -0.0741309   0.0000000), wk =   0.0277778
        k(   41) = (   0.0429212  -0.0590867   0.0000000), wk =   0.0277778
        k(   42) = (   0.0429212  -0.0440425   0.0000000), wk =   0.0277778
        k(   43) = (   0.0429212  -0.0289984   0.0000000), wk =   0.0277778
        k(   44) = (   0.0572283  -0.0186056   0.0000000), wk =   0.0277778
        k(   45) = (   0.0572283  -0.0035614   0.0000000), wk =   0.0277778
        k(   46) = (   0.0572283   0.0114828   0.0000000), wk =   0.0277778
        k(   47) = (   0.0572283   0.0265270   0.0000000), wk =   0.0277778
        k(   48) = (   0.0572283   0.0415712   0.0000000), wk =   0.0277778
        k(   49) = (   0.0572283   0.0566154   0.0000000), wk =   0.0277778
        k(   50) = (   0.0572283  -0.1088707   0.0000000), wk =   0.0277778
        k(   51) = (   0.0572283  -0.0938265   0.0000000), wk =   0.0277778
        k(   52) = (   0.0572283  -0.0787823   0.0000000), wk =   0.0277778
        k(   53) = (   0.0572283  -0.0637381   0.0000000), wk =   0.0277778
        k(   54) = (   0.0572283  -0.0486939   0.0000000), wk =   0.0277778
        k(   55) = (   0.0572283  -0.0336498   0.0000000), wk =   0.0277778
        k(   56) = (   0.0715353  -0.0232570   0.0000000), wk =   0.0277778
        k(   57) = (   0.0715353  -0.0082128   0.0000000), wk =   0.0277778
        k(   58) = (   0.0715353   0.0068314   0.0000000), wk =   0.0277778
        k(   59) = (   0.0715353   0.0218756   0.0000000), wk =   0.0277778
        k(   60) = (   0.0715353   0.0369198   0.0000000), wk =   0.0277778
        k(   61) = (   0.0715353   0.0519640   0.0000000), wk =   0.0277778
        k(   62) = (   0.0715353  -0.1135221   0.0000000), wk =   0.0277778
        k(   63) = (   0.0715353  -0.0984779   0.0000000), wk =   0.0277778
        k(   64) = (   0.0715353  -0.0834337   0.0000000), wk =   0.0277778
        k(   65) = (   0.0715353  -0.0683895   0.0000000), wk =   0.0277778
        k(   66) = (   0.0715353  -0.0533453   0.0000000), wk =   0.0277778
        k(   67) = (   0.0715353  -0.0383011   0.0000000), wk =   0.0277778
        k(   68) = (  -0.0858424   0.0279084   0.0000000), wk =   0.0138889
        k(   69) = (  -0.0858424   0.0429525   0.0000000), wk =   0.0277778
        k(   70) = (  -0.0858424   0.0579967   0.0000000), wk =   0.0277778
        k(   71) = (  -0.0858424   0.0730409   0.0000000), wk =   0.0277778
        k(   72) = (  -0.0858424   0.0880851   0.0000000), wk =   0.0277778
        k(   73) = (  -0.0858424   0.1031293   0.0000000), wk =   0.0277778
        k(   74) = (  -0.0858424  -0.0623568   0.0000000), wk =   0.0138889

     Dense  grid:  1175579 G-vectors     FFT dimensions: (  90,  90, 360)

     Smooth grid:   297205 G-vectors     FFT dimensions: (  54,  54, 225)

     Estimated max dynamical RAM per process >     217.57 MB

     Estimated total dynamical RAM >       7.86 GB

     Initial potential from superposition of free atoms

     starting charge  131.98608, renormalised to  132.00000

     negative rho (up, down):  7.462E-04 0.000E+00


     %%%%%%%%%%%%%%%%%%%%%%%%%%%%%%%%%%%%%%%%%%%%%%%%%%%%%%%%%%%%%%%%%%%%%%%%
     %                                                                      %
     % You are using vdW-DF, which was implemented by the Thonhauser group. %
     % Please cite the following two papers that made this development      %
     % possible and the two reviews that describe the various versions:     %
     %                                                                      %
     %   T. Thonhauser et al., PRL 115, 136402 (2015).                      %
     %   T. Thonhauser et al., PRB 76, 125112 (2007).                       %
     %   K. Berland et al., Rep. Prog. Phys. 78, 066501 (2015).             %
     %   D.C. Langreth et al., J. Phys.: Condens. Matter 21, 084203 (2009). %
     %                                                                      %
     %                                                                      %
     % If you are calculating the stress with vdW-DF, please also cite:     %
     %                                                                      %
     %   R. Sabatini et al., J. Phys.: Condens. Matter 24, 424209 (2012).   %
     %                                                                      %
     %%%%%%%%%%%%%%%%%%%%%%%%%%%%%%%%%%%%%%%%%%%%%%%%%%%%%%%%%%%%%%%%%%%%%%%%



     Adding external electric field

     Computed dipole along edir(3) : 
        Dipole                0.0007 Ry au,          0.0017 Debye
        Dipole field          0.0000 Ry au, 

        Potential amp.       -0.0001 Ry
        Total length         45.5191 bohr

     Starting wfcs are  132 randomized atomic wfcs

     total cpu time spent up to now is       98.0 secs

     Self-consistent Calculation

     iteration #  1     ecut=    55.12 Ry     beta= 0.10
     Davidson diagonalization with overlap
     ethr =  1.00E-02,  avg # of iterations =  2.0

     negative rho (up, down):  6.161E-04 0.000E+00

     Adding external electric field

     Computed dipole along edir(3) : 
        Dipole                0.1030 Ry au,          0.2617 Debye
        Dipole field          0.0002 Ry au, 

        Potential amp.       -0.0219 Ry
        Total length         45.5191 bohr


     total cpu time spent up to now is      234.5 secs

     total energy              =    -997.53276328 Ry
     estimated scf accuracy    <       1.58270996 Ry

     iteration #  2     ecut=    55.12 Ry     beta= 0.10
     Davidson diagonalization with overlap
     ethr =  1.20E-03,  avg # of iterations =  2.5

     negative rho (up, down):  6.029E-04 0.000E+00

     Adding external electric field

     Computed dipole along edir(3) : 
        Dipole               -0.1458 Ry au,         -0.3707 Debye
        Dipole field         -0.0003 Ry au, 

        Potential amp.        0.0310 Ry
        Total length         45.5191 bohr


     total cpu time spent up to now is      375.6 secs

     total energy              =    -997.66819587 Ry
     estimated scf accuracy    <       0.51475698 Ry

     iteration #  3     ecut=    55.12 Ry     beta= 0.10
     Davidson diagonalization with overlap
     ethr =  3.90E-04,  avg # of iterations =  6.8

     negative rho (up, down):  6.056E-04 0.000E+00

     Adding external electric field

     Computed dipole along edir(3) : 
        Dipole                0.1206 Ry au,          0.3066 Debye
        Dipole field          0.0003 Ry au, 

        Potential amp.       -0.0257 Ry
        Total length         45.5191 bohr


     total cpu time spent up to now is      529.6 secs

     total energy              =    -997.67586134 Ry
     estimated scf accuracy    <       1.19022419 Ry

     iteration #  4     ecut=    55.12 Ry     beta= 0.10
     Davidson diagonalization with overlap
     ethr =  3.90E-04,  avg # of iterations =  2.1

     negative rho (up, down):  6.152E-04 0.000E+00

     Adding external electric field

     Computed dipole along edir(3) : 
        Dipole                0.1140 Ry au,          0.2897 Debye
        Dipole field          0.0003 Ry au, 

        Potential amp.       -0.0242 Ry
        Total length         45.5191 bohr


     total cpu time spent up to now is      657.4 secs

     total energy              =    -997.65430575 Ry
     estimated scf accuracy    <       0.29793072 Ry

     iteration #  5     ecut=    55.12 Ry     beta= 0.10
     Davidson diagonalization with overlap
     ethr =  2.26E-04,  avg # of iterations =  2.4

     negative rho (up, down):  6.719E-04 0.000E+00

     Adding external electric field

     Computed dipole along edir(3) : 
        Dipole                0.1146 Ry au,          0.2913 Debye
        Dipole field          0.0003 Ry au, 

        Potential amp.       -0.0244 Ry
        Total length         45.5191 bohr


     total cpu time spent up to now is      798.9 secs

     total energy              =    -997.64821442 Ry
     estimated scf accuracy    <       0.10394167 Ry

     iteration #  6     ecut=    55.12 Ry     beta= 0.10
     Davidson diagonalization with overlap
     ethr =  7.87E-05,  avg # of iterations =  7.6

     negative rho (up, down):  6.381E-04 0.000E+00

     Adding external electric field

     Computed dipole along edir(3) : 
        Dipole                0.0989 Ry au,          0.2514 Debye
        Dipole field          0.0002 Ry au, 

        Potential amp.       -0.0210 Ry
        Total length         45.5191 bohr


     total cpu time spent up to now is     1002.3 secs

     total energy              =    -997.66665024 Ry
     estimated scf accuracy    <       0.11368671 Ry

     iteration #  7     ecut=    55.12 Ry     beta= 0.10
     Davidson diagonalization with overlap
     ethr =  7.87E-05,  avg # of iterations =  1.9

     negative rho (up, down):  6.931E-04 0.000E+00

     Adding external electric field

     Computed dipole along edir(3) : 
        Dipole                0.0904 Ry au,          0.2297 Debye
        Dipole field          0.0002 Ry au, 

        Potential amp.       -0.0192 Ry
        Total length         45.5191 bohr


     total cpu time spent up to now is     1127.8 secs

     total energy              =    -997.66084014 Ry
     estimated scf accuracy    <       0.04374785 Ry

     iteration #  8     ecut=    55.12 Ry     beta= 0.10
     Davidson diagonalization with overlap
     ethr =  3.31E-05,  avg # of iterations =  6.9

     negative rho (up, down):  6.931E-04 0.000E+00

     Adding external electric field

     Computed dipole along edir(3) : 
        Dipole                0.1068 Ry au,          0.2714 Debye
        Dipole field          0.0002 Ry au, 

        Potential amp.       -0.0227 Ry
        Total length         45.5191 bohr


     total cpu time spent up to now is     1309.7 secs

     total energy              =    -997.66696556 Ry
     estimated scf accuracy    <       0.02378919 Ry

     iteration #  9     ecut=    55.12 Ry     beta= 0.10
     Davidson diagonalization with overlap
     c_bands:  2 eigenvalues not converged
     c_bands:  1 eigenvalues not converged
     ethr =  1.80E-05,  avg # of iterations =  7.7

     negative rho (up, down):  6.700E-04 0.000E+00

     Adding external electric field

     Computed dipole along edir(3) : 
        Dipole                0.0938 Ry au,          0.2385 Debye
        Dipole field          0.0002 Ry au, 

        Potential amp.       -0.0200 Ry
        Total length         45.5191 bohr


     total cpu time spent up to now is     1492.2 secs

     total energy              =    -997.67075615 Ry
     estimated scf accuracy    <       0.01515230 Ry

     iteration # 10     ecut=    55.12 Ry     beta= 0.10
     Davidson diagonalization with overlap
     ethr =  1.15E-05,  avg # of iterations =  2.0

     negative rho (up, down):  6.813E-04 0.000E+00

     Adding external electric field

     Computed dipole along edir(3) : 
        Dipole                0.0912 Ry au,          0.2318 Debye
        Dipole field          0.0002 Ry au, 

        Potential amp.       -0.0194 Ry
        Total length         45.5191 bohr


     total cpu time spent up to now is     1622.4 secs

     total energy              =    -997.66997282 Ry
     estimated scf accuracy    <       0.00664161 Ry

     iteration # 11     ecut=    55.12 Ry     beta= 0.10
     Davidson diagonalization with overlap
     c_bands:  2 eigenvalues not converged
     c_bands:  2 eigenvalues not converged
     c_bands:  1 eigenvalues not converged
     c_bands:  2 eigenvalues not converged
     c_bands:  1 eigenvalues not converged
     c_bands:  1 eigenvalues not converged
     c_bands:  1 eigenvalues not converged
     c_bands:  1 eigenvalues not converged
     c_bands:  1 eigenvalues not converged
     c_bands:  1 eigenvalues not converged
     ethr =  5.03E-06,  avg # of iterations =  8.6

     negative rho (up, down):  6.809E-04 0.000E+00

     Adding external electric field

     Computed dipole along edir(3) : 
        Dipole                0.0893 Ry au,          0.2270 Debye
        Dipole field          0.0002 Ry au, 

        Potential amp.       -0.0190 Ry
        Total length         45.5191 bohr


     total cpu time spent up to now is     1777.0 secs

     total energy              =    -997.67068494 Ry
     estimated scf accuracy    <       0.00068018 Ry

     iteration # 12     ecut=    55.12 Ry     beta= 0.10
     Davidson diagonalization with overlap
     c_bands:  1 eigenvalues not converged
     c_bands:  2 eigenvalues not converged
     c_bands:  1 eigenvalues not converged
     c_bands:  1 eigenvalues not converged
     c_bands:  1 eigenvalues not converged
     c_bands:  1 eigenvalues not converged
     c_bands:  1 eigenvalues not converged
     ethr =  5.15E-07,  avg # of iterations = 11.0

     negative rho (up, down):  6.744E-04 0.000E+00

     Adding external electric field

     Computed dipole along edir(3) : 
        Dipole                0.0899 Ry au,          0.2284 Debye
        Dipole field          0.0002 Ry au, 

        Potential amp.       -0.0191 Ry
        Total length         45.5191 bohr


     total cpu time spent up to now is     2015.2 secs

     total energy              =    -997.67077526 Ry
     estimated scf accuracy    <       0.00109352 Ry

     iteration # 13     ecut=    55.12 Ry     beta= 0.10
     Davidson diagonalization with overlap
     c_bands:  1 eigenvalues not converged
     c_bands:  1 eigenvalues not converged
     ethr =  5.15E-07,  avg # of iterations =  4.0

     negative rho (up, down):  6.693E-04 0.000E+00

     Adding external electric field

     Computed dipole along edir(3) : 
        Dipole                0.0865 Ry au,          0.2200 Debye
        Dipole field          0.0002 Ry au, 

        Potential amp.       -0.0184 Ry
        Total length         45.5191 bohr


     total cpu time spent up to now is     2154.2 secs

     total energy              =    -997.67089100 Ry
     estimated scf accuracy    <       0.00007463 Ry

     iteration # 14     ecut=    55.12 Ry     beta= 0.10
     Davidson diagonalization with overlap
     c_bands:  1 eigenvalues not converged
     c_bands:  2 eigenvalues not converged
     c_bands:  1 eigenvalues not converged
     c_bands:  1 eigenvalues not converged
     c_bands:  1 eigenvalues not converged
     ethr =  5.65E-08,  avg # of iterations =  8.6

     negative rho (up, down):  6.642E-04 0.000E+00

     Adding external electric field

     Computed dipole along edir(3) : 
        Dipole                0.0866 Ry au,          0.2202 Debye
        Dipole field          0.0002 Ry au, 

        Potential amp.       -0.0184 Ry
        Total length         45.5191 bohr


     total cpu time spent up to now is     2343.3 secs

     total energy              =    -997.67091701 Ry
     estimated scf accuracy    <       0.00010428 Ry

     iteration # 15     ecut=    55.12 Ry     beta= 0.10
     Davidson diagonalization with overlap
     ethr =  5.65E-08,  avg # of iterations =  1.8

     negative rho (up, down):  6.606E-04 0.000E+00

     Adding external electric field

     Computed dipole along edir(3) : 
        Dipole                0.0865 Ry au,          0.2200 Debye
        Dipole field          0.0002 Ry au, 

        Potential amp.       -0.0184 Ry
        Total length         45.5191 bohr


     total cpu time spent up to now is     2463.5 secs

     total energy              =    -997.67089556 Ry
     estimated scf accuracy    <       0.00015003 Ry

     iteration # 16     ecut=    55.12 Ry     beta= 0.10
     Davidson diagonalization with overlap
     ethr =  5.65E-08,  avg # of iterations =  2.0

     negative rho (up, down):  6.577E-04 0.000E+00

     Adding external electric field

     Computed dipole along edir(3) : 
        Dipole                0.0875 Ry au,          0.2224 Debye
        Dipole field          0.0002 Ry au, 

        Potential amp.       -0.0186 Ry
        Total length         45.5191 bohr


     total cpu time spent up to now is     2594.9 secs

     total energy              =    -997.67090052 Ry
     estimated scf accuracy    <       0.00002013 Ry

     iteration # 17     ecut=    55.12 Ry     beta= 0.10
     Davidson diagonalization with overlap
     ethr =  1.52E-08,  avg # of iterations =  7.1

     negative rho (up, down):  6.521E-04 0.000E+00

     Adding external electric field

     Computed dipole along edir(3) : 
        Dipole                0.0824 Ry au,          0.2094 Debye
        Dipole field          0.0002 Ry au, 

        Potential amp.       -0.0175 Ry
        Total length         45.5191 bohr


     total cpu time spent up to now is     2764.4 secs

     End of self-consistent calculation

          k = 0.0000 0.0000 0.0000 ( 37073 PWs)   bands (ev):

   -48.5007 -48.4809 -48.4503 -48.4304 -48.1390 -48.1198 -26.5386 -26.5204
   -26.4765 -26.4682 -26.4523 -26.4290 -26.4202 -26.4179 -26.3792 -26.3619
   -26.2849 -26.2159 -26.1664 -26.0798 -26.0370 -26.0318 -26.0129 -25.9999
    -5.6521  -4.1028  -3.8607  -3.8521  -3.6845  -3.5520  -3.3960  -3.3720
    -3.3478  -3.3352  -2.7874  -2.7588  -2.7359  -2.5546  -2.4224  -2.3222
    -2.2576  -2.1333  -2.1117  -1.9683  -1.9547  -1.8612  -1.8591  -1.5724
    -1.4302  -1.2883  -1.2731  -1.2614  -0.9315  -0.5646  -0.5556  -0.2989
    -0.1416  -0.0015   0.1283   0.3600   0.6109   1.3047   1.7738   1.8599
     1.9690   2.1536   2.2013   2.2833   2.4097   2.5134   2.5264   2.6511
     2.7585   2.7945   2.9583   3.0594   3.2218   3.2596   3.4317

          k = 0.0000 0.0150 0.0000 ( 37080 PWs)   bands (ev):

   -48.5004 -48.4812 -48.4499 -48.4307 -48.1386 -48.1201 -26.5384 -26.5208
   -26.4768 -26.4643 -26.4534 -26.4284 -26.4199 -26.4140 -26.3799 -26.3629
   -26.2806 -26.2206 -26.1711 -26.0790 -26.0378 -26.0315 -26.0179 -26.0006
    -5.6061  -4.0596  -3.8463  -3.8100  -3.6617  -3.5216  -3.3765  -3.3485
    -3.3275  -3.3134  -2.7569  -2.7543  -2.6979  -2.5445  -2.4073  -2.3082
    -2.2642  -2.1335  -2.0913  -1.9733  -1.9418  -1.8663  -1.8320  -1.5719
    -1.4486  -1.3679  -1.2655  -1.2114  -0.9441  -0.5997  -0.5656  -0.3534
    -0.1633  -0.1446  -0.0250   0.2289   0.8061   1.4547   1.7297   1.8113
     1.9721   2.1108   2.1669   2.2390   2.3909   2.4813   2.5473   2.5921
     2.6332   2.7398   2.9429   2.9550   3.2049   3.2683   3.5709

          k = 0.0000 0.0301 0.0000 ( 37105 PWs)   bands (ev):

   -48.4993 -48.4821 -48.4489 -48.4317 -48.1376 -48.1210 -26.5376 -26.5220
   -26.4774 -26.4567 -26.4525 -26.4266 -26.4192 -26.4024 -26.3816 -26.3658
   -26.2678 -26.2342 -26.1847 -26.0768 -26.0402 -26.0328 -26.0302 -26.0027
    -5.4712  -3.9365  -3.8194  -3.6877  -3.5997  -3.4323  -3.3147  -3.2860
    -3.2625  -3.2483  -2.7650  -2.6679  -2.5706  -2.5151  -2.3633  -2.2828
    -2.2688  -2.1199  -2.0463  -1.9794  -1.9147  -1.8785  -1.7553  -1.5856
    -1.4968  -1.4562  -1.2687  -1.1808  -0.9726  -0.7914  -0.5934  -0.5458
    -0.4110  -0.2940  -0.1474   0.0455   1.0881   1.5774   1.6400   1.7016
     1.9464   1.9701   2.1162   2.1799   2.2812   2.3754   2.3773   2.5187
     2.5521   2.6047   2.8596   2.8598   3.1684   3.2990   3.4471

          k = 0.0000 0.0451 0.0000 ( 37129 PWs)   bands (ev):

   -48.4977 -48.4837 -48.4472 -48.4332 -48.1360 -48.1225 -26.5363 -26.5237
   -26.4779 -26.4609 -26.4343 -26.4241 -26.4181 -26.3842 -26.3837 -26.3698
   -26.2555 -26.2473 -26.2060 -26.0734 -26.0552 -26.0438 -26.0290 -26.0060
    -5.2569  -3.8227  -3.7553  -3.5156  -3.4975  -3.2903  -3.2070  -3.1961
    -3.1534  -3.1445  -2.7827  -2.5313  -2.4668  -2.4217  -2.3098  -2.2747
    -2.2195  -2.0891  -1.9941  -1.9916  -1.8784  -1.8747  -1.6452  -1.6448
    -1.5491  -1.5204  -1.2897  -1.1806  -1.1612  -1.0027  -0.8905  -0.6308
    -0.6233  -0.4810  -0.1353  -0.0863   1.2814   1.3005   1.4120   1.7167
     1.7344   1.9110   2.0590   2.0996   2.1348   2.1379   2.3743   2.3862
     2.5172   2.5854   2.7146   2.7983   3.1212   3.1474   3.3441

          k = 0.0000 0.0602 0.0000 ( 37146 PWs)   bands (ev):

   -48.4956 -48.4856 -48.4451 -48.4352 -48.1340 -48.1244 -26.5346 -26.5258
   -26.4776 -26.4657 -26.4216 -26.4193 -26.4077 -26.3854 -26.3759 -26.3584
   -26.2829 -26.2334 -26.2204 -26.0849 -26.0687 -26.0484 -26.0265 -26.0101
    -4.9798  -3.9027  -3.5605  -3.4306  -3.2658  -3.1083  -3.0787  -3.0780
    -3.0181  -3.0113  -2.8047  -2.4218  -2.3675  -2.3646  -2.3110  -2.2086
    -2.1267  -2.0542  -2.0173  -1.9467  -1.8353  -1.8197  -1.7277  -1.5740
    -1.5718  -1.5547  -1.4701  -1.3557  -1.2392  -1.1839  -1.0435  -0.9640
    -0.6631  -0.5070  -0.2105  -0.1005   0.9508   1.0992   1.3646   1.5215
     1.5250   1.8314   1.8696   1.9848   2.1168   2.1574   2.2827   2.4010
     2.4623   2.5775   2.6100   2.7321   2.8250   3.0304   3.0512

          k = 0.0000 0.0752 0.0000 ( 37172 PWs)   bands (ev):

   -48.4931 -48.4880 -48.4426 -48.4375 -48.1316 -48.1267 -26.5326 -26.5281
   -26.4763 -26.4701 -26.4196 -26.4183 -26.3856 -26.3810 -26.3784 -26.3294
   -26.3142 -26.2647 -26.1886 -26.1184 -26.0639 -26.0535 -26.0231 -26.0146
    -4.6659  -4.0835  -3.4141  -3.3672  -3.0535  -2.9777  -2.9766  -2.8921
    -2.8796  -2.8545  -2.8345  -2.4034  -2.3735  -2.3390  -2.2625  -2.1313
    -2.1279  -2.0385  -2.0353  -1.9240  -1.8405  -1.7914  -1.7097  -1.7087
    -1.6237  -1.5383  -1.4541  -1.4372  -1.3691  -1.2445  -1.2209  -1.1060
    -0.6694  -0.5246  -0.3031  -0.0913   0.6859   0.9804   1.0244   1.3097
     1.6378   1.7330   1.7400   1.8648   2.1060   2.1272   2.2440   2.3859
     2.4502   2.5392   2.5404   2.6323   2.7254   2.8766   2.9141

          k = 0.0000-0.0903 0.0000 ( 37150 PWs)   bands (ev):

   -48.4905 -48.4905 -48.4401 -48.4400 -48.1291 -48.1291 -26.5305 -26.5304
   -26.4738 -26.4738 -26.4185 -26.4184 -26.3839 -26.3839 -26.3470 -26.3470
   -26.2974 -26.2974 -26.1538 -26.1538 -26.0588 -26.0587 -26.0191 -26.0190
    -4.3518  -4.3518  -3.3527  -3.3526  -2.9475  -2.9475  -2.8985  -2.8985
    -2.8166  -2.8165  -2.5898  -2.5897  -2.3468  -2.3468  -2.2418  -2.2417
    -2.0556  -2.0556  -1.9401  -1.9401  -1.8540  -1.8540  -1.6887  -1.6887
    -1.6199  -1.6199  -1.4821  -1.4821  -1.3060  -1.3060  -1.1958  -1.1958
    -0.6193  -0.6193  -0.2079  -0.2079   0.7168   0.7168   1.1083   1.1083
     1.6825   1.6825   1.7592   1.7592   2.0938   2.0938   2.2906   2.2906
     2.4867   2.4867   2.5454   2.5455   2.8389   2.8489   2.8718

          k = 0.0143-0.0047 0.0000 ( 37080 PWs)   bands (ev):

   -48.5004 -48.4812 -48.4499 -48.4307 -48.1386 -48.1201 -26.5384 -26.5208
   -26.4768 -26.4643 -26.4534 -26.4284 -26.4199 -26.4140 -26.3799 -26.3629
   -26.2806 -26.2206 -26.1711 -26.0790 -26.0378 -26.0315 -26.0179 -26.0006
    -5.6061  -4.0596  -3.8463  -3.8100  -3.6617  -3.5216  -3.3765  -3.3485
    -3.3275  -3.3134  -2.7569  -2.7543  -2.6979  -2.5445  -2.4073  -2.3082
    -2.2642  -2.1335  -2.0913  -1.9733  -1.9418  -1.8663  -1.8320  -1.5719
    -1.4486  -1.3679  -1.2655  -1.2114  -0.9441  -0.5997  -0.5656  -0.3534
    -0.1633  -0.1446  -0.0250   0.2289   0.8061   1.4547   1.7297   1.8113
     1.9721   2.1108   2.1669   2.2390   2.3909   2.4813   2.5473   2.5921
     2.6333   2.7400   2.9429   2.9552   3.2050   3.2682   3.5715

          k = 0.0143 0.0104 0.0000 ( 37137 PWs)   bands (ev):

   -48.5006 -48.4809 -48.4502 -48.4304 -48.1390 -48.1197 -26.5392 -26.5197
   -26.4792 -26.4691 -26.4547 -26.4277 -26.4188 -26.4165 -26.3827 -26.3632
   -26.2852 -26.2161 -26.1666 -26.0784 -26.0382 -26.0320 -26.0134 -26.0008
    -5.5868  -4.0471  -3.8359  -3.8076  -3.6378  -3.5207  -3.3628  -3.3463
    -3.3124  -3.2959  -2.7554  -2.7373  -2.7060  -2.5112  -2.3874  -2.3155
    -2.2468  -2.1247  -2.0992  -1.9787  -1.9139  -1.8535  -1.8324  -1.5486
    -1.4364  -1.2944  -1.2910  -1.2612  -0.9277  -0.5927  -0.5533  -0.3192
    -0.1357   0.0010   0.1269   0.3574   0.5177   1.2023   1.5916   1.7285
     1.9174   2.0269   2.1520   2.1976   2.2948   2.4102   2.4946   2.6005
     2.6045   2.6795   2.8628   3.0110   3.2224   3.3741   3.5290

          k = 0.0143 0.0254 0.0000 ( 37134 PWs)   bands (ev):

   -48.5002 -48.4812 -48.4497 -48.4307 -48.1387 -48.1199 -26.5396 -26.5194
   -26.4813 -26.4659 -26.4572 -26.4265 -26.4158 -26.4134 -26.3861 -26.3654
   -26.2811 -26.2209 -26.1714 -26.0764 -26.0401 -26.0319 -26.0187 -26.0023
    -5.4778  -3.9539  -3.8065  -3.7258  -3.5734  -3.4596  -3.3077  -3.2969
    -3.2582  -3.2361  -2.7485  -2.6946  -2.6116  -2.4600  -2.3381  -2.2958
    -2.2420  -2.1127  -2.0681  -1.9913  -1.8673  -1.8655  -1.7691  -1.5360
    -1.4550  -1.3788  -1.2847  -1.2220  -0.9381  -0.6351  -0.5807  -0.3955
    -0.1873  -0.1290  -0.0515   0.2149   0.6797   1.2580   1.3725   1.5747
     1.8354   1.9209   2.0806   2.0901   2.1402   2.3121   2.3937   2.4156
     2.5798   2.5844   2.7739   2.9631   3.2017   3.4017   3.5611

          k = 0.0143 0.0405 0.0000 ( 37158 PWs)   bands (ev):

   -48.4991 -48.4822 -48.4486 -48.4317 -48.1377 -48.1208 -26.5395 -26.5200
   -26.4826 -26.4605 -26.4549 -26.4255 -26.4113 -26.4048 -26.3893 -26.3688
   -26.2685 -26.2345 -26.1850 -26.0734 -26.0433 -26.0342 -26.0300 -26.0050
    -5.2868  -3.7986  -3.7958  -3.5754  -3.4850  -3.3424  -3.2087  -3.2056
    -3.1691  -3.1361  -2.7690  -2.5820  -2.4826  -2.3972  -2.2634  -2.2496
    -2.2480  -2.0835  -2.0145  -2.0120  -1.8790  -1.8113  -1.6651  -1.5721
    -1.4844  -1.4558  -1.2880  -1.1939  -0.9732  -0.8169  -0.6810  -0.6046
    -0.4325  -0.3244  -0.1114   0.0003   0.9446   1.0826   1.3350   1.4022
     1.6581   1.8458   1.8773   2.0326   2.0894   2.0998   2.2153   2.3934
     2.5062   2.5098   2.6076   2.9108   3.1673   3.2949   3.3533

          k = 0.0143 0.0555 0.0000 ( 37175 PWs)   bands (ev):

   -48.4974 -48.4837 -48.4469 -48.4333 -48.1361 -48.1222 -26.5389 -26.5213
   -26.4825 -26.4638 -26.4368 -26.4250 -26.4101 -26.3911 -26.3870 -26.3722
   -26.2556 -26.2481 -26.2061 -26.0699 -26.0563 -26.0475 -26.0285 -26.0086
    -5.0282  -3.8479  -3.6167  -3.3918  -3.3732  -3.1800  -3.0890  -3.0833
    -3.0527  -3.0038  -2.7842  -2.4398  -2.4097  -2.3293  -2.2627  -2.2485
    -2.1292  -2.0452  -2.0308  -1.9560  -1.8558  -1.7611  -1.6408  -1.5537
    -1.5201  -1.4765  -1.3097  -1.2190  -1.1989  -1.0231  -0.9620  -0.7116
    -0.6923  -0.4366  -0.1877  -0.0822   0.7644   1.1197   1.1894   1.2704
     1.4189   1.7232   1.8034   1.9693   2.0047   2.0552   2.1354   2.3438
     2.3925   2.4884   2.4972   2.8645   2.9630   2.9867   3.1317

          k = 0.0143 0.0706 0.0000 ( 37170 PWs)   bands (ev):

   -48.4953 -48.4858 -48.4448 -48.4353 -48.1341 -48.1241 -26.5378 -26.5232
   -26.4807 -26.4668 -26.4253 -26.4157 -26.4066 -26.3907 -26.3777 -26.3604
   -26.2826 -26.2330 -26.2210 -26.0860 -26.0649 -26.0524 -26.0254 -26.0127
    -4.7236  -3.9926  -3.4600  -3.3133  -3.1459  -3.0000  -2.9900  -2.9497
    -2.9189  -2.8813  -2.7821  -2.4110  -2.3389  -2.2870  -2.2861  -2.1973
    -2.0809  -2.0451  -2.0229  -1.8982  -1.7973  -1.7933  -1.6423  -1.5894
    -1.5780  -1.4600  -1.3712  -1.3653  -1.3041  -1.2385  -1.0876  -1.0466
    -0.7085  -0.5139  -0.2483  -0.1215   0.5747   0.9137   1.0931   1.1491
     1.3965   1.6106   1.7878   1.9316   1.9858   2.0272   2.1331   2.2867
     2.3131   2.4543   2.5028   2.7732   2.8005   2.8578   2.9658

          k = 0.0143-0.0949 0.0000 ( 37186 PWs)   bands (ev):

   -48.4929 -48.4882 -48.4424 -48.4377 -48.1318 -48.1264 -26.5361 -26.5255
   -26.4774 -26.4692 -26.4261 -26.4137 -26.3882 -26.3808 -26.3794 -26.3314
   -26.3134 -26.2638 -26.1888 -26.1190 -26.0603 -26.0576 -26.0214 -26.0169
    -4.4045  -4.2311  -3.3737  -3.2739  -2.9600  -2.9462  -2.8991  -2.8659
    -2.8469  -2.7441  -2.7184  -2.4855  -2.3690  -2.3042  -2.2468  -2.1613
    -2.1110  -1.9944  -1.9885  -1.9269  -1.8700  -1.8057  -1.6896  -1.6881
    -1.5875  -1.5739  -1.4473  -1.4442  -1.3172  -1.2819  -1.2106  -1.1804
    -0.6471  -0.6143  -0.2999  -0.1616   0.6863   0.6986   0.9029   1.1510
     1.5467   1.6035   1.7898   1.8840   2.0022   2.0393   2.2234   2.2266
     2.3361   2.4834   2.5154   2.7188   2.7557   2.8946   2.9102

          k = 0.0143-0.0799 0.0000 ( 37179 PWs)   bands (ev):

   -48.4907 -48.4903 -48.4403 -48.4398 -48.1294 -48.1289 -26.5338 -26.5281
   -26.4728 -26.4708 -26.4269 -26.4164 -26.3839 -26.3800 -26.3484 -26.3458
   -26.2989 -26.2961 -26.1540 -26.1536 -26.0628 -26.0553 -26.0209 -26.0169
    -4.5319  -4.1140  -3.3660  -3.3034  -2.9852  -2.9530  -2.9395  -2.8952
    -2.7887  -2.7837  -2.6829  -2.4625  -2.4261  -2.3406  -2.2593  -2.1558
    -2.0735  -2.0243  -1.9658  -1.9491  -1.8641  -1.8102  -1.7701  -1.7357
    -1.6398  -1.6373  -1.5100  -1.5042  -1.4199  -1.2825  -1.2148  -1.1248
    -0.6496  -0.5758  -0.3648  -0.1049   0.7404   0.7730   0.9998   1.2623
     1.6615   1.7332   1.8036   1.8648   2.0520   2.1713   2.2402   2.3899
     2.4208   2.5128   2.5763   2.6521   2.7810   2.8461   2.9625

          k = 0.0143-0.0648 0.0000 ( 37148 PWs)   bands (ev):

   -48.4933 -48.4878 -48.4429 -48.4373 -48.1315 -48.1269 -26.5311 -26.5306
   -26.4718 -26.4673 -26.4273 -26.4200 -26.3796 -26.3795 -26.3767 -26.3279
   -26.3150 -26.2655 -26.1883 -26.1178 -26.0678 -26.0503 -26.0243 -26.0124
    -4.8487  -3.9012  -3.4273  -3.4161  -3.1274  -3.0642  -3.0602  -2.9903
    -2.9568  -2.9187  -2.7349  -2.4635  -2.4078  -2.3194  -2.2126  -2.1867
    -2.1041  -2.0569  -1.9797  -1.9539  -1.8723  -1.8191  -1.8024  -1.7531
    -1.6767  -1.5980  -1.5106  -1.4403  -1.4109  -1.2284  -1.1866  -1.0541
    -0.6328  -0.5950  -0.2151  -0.1394   0.8575   1.0476   1.3968   1.3996
     1.7442   1.7838   1.8799   1.9726   2.1549   2.3035   2.3459   2.4826
     2.5128   2.5219   2.6159   2.6897   2.8297   2.9257   3.0669

          k = 0.0143-0.0498 0.0000 ( 37143 PWs)   bands (ev):

   -48.4958 -48.4855 -48.4453 -48.4350 -48.1339 -48.1246 -26.5331 -26.5282
   -26.4724 -26.4617 -26.4270 -26.4236 -26.4071 -26.3786 -26.3732 -26.3571
   -26.2832 -26.2338 -26.2200 -26.0840 -26.0722 -26.0457 -26.0270 -26.0081
    -5.1397  -3.7978  -3.6278  -3.4956  -3.3510  -3.1988  -3.1854  -3.1648
    -3.1102  -3.0714  -2.7070  -2.5205  -2.4217  -2.3661  -2.3459  -2.2923
    -2.1507  -2.0817  -1.9828  -1.9589  -1.9096  -1.8578  -1.7175  -1.6538
    -1.6207  -1.5602  -1.5005  -1.3482  -1.1998  -1.1971  -1.0065  -0.9167
    -0.5996  -0.5728  -0.1717  -0.1059   1.1492   1.4269   1.5794   1.6105
     1.8599   1.8808   2.0204   2.1410   2.2264   2.2911   2.3867   2.4108
     2.5457   2.5868   2.7560   2.8492   2.8990   3.0403   3.2405

          k = 0.0143-0.0347 0.0000 ( 37140 PWs)   bands (ev):

   -48.4978 -48.4836 -48.4474 -48.4331 -48.1360 -48.1227 -26.5353 -26.5253
   -26.4732 -26.4570 -26.4326 -26.4264 -26.4253 -26.3824 -26.3780 -26.3681
   -26.2555 -26.2469 -26.2061 -26.0759 -26.0546 -26.0418 -26.0290 -26.0045
    -5.3748  -3.8331  -3.7905  -3.5781  -3.5699  -3.3471  -3.2997  -3.2576
    -3.2165  -3.1993  -2.6909  -2.5838  -2.5482  -2.5364  -2.3567  -2.3293
    -2.2149  -2.1128  -2.0004  -1.9896  -1.9234  -1.8636  -1.7413  -1.6380
    -1.5675  -1.5199  -1.2803  -1.1964  -1.1387  -0.9858  -0.8572  -0.5874
    -0.5714  -0.5073  -0.1745  -0.0375   1.3925   1.5518   1.7045   1.7982
     1.9843   2.0789   2.1346   2.2146   2.2980   2.3415   2.3492   2.5056
     2.5289   2.6226   2.7489   2.9454   3.0241   3.2854   3.4370

          k = 0.0143-0.0197 0.0000 ( 37101 PWs)   bands (ev):

   -48.4994 -48.4821 -48.4490 -48.4316 -48.1376 -48.1211 -26.5370 -26.5228
   -26.4747 -26.4545 -26.4514 -26.4281 -26.4232 -26.4016 -26.3783 -26.3646
   -26.2675 -26.2341 -26.1846 -26.0782 -26.0390 -26.0320 -26.0305 -26.0019
    -5.5340  -3.9858  -3.8244  -3.7293  -3.6394  -3.4625  -3.3557  -3.3154
    -3.2910  -3.2872  -2.6982  -2.6951  -2.6815  -2.5572  -2.3958  -2.2927
    -2.2731  -2.1311  -2.0539  -1.9838  -1.9376  -1.8582  -1.8125  -1.5941
    -1.4958  -1.4534  -1.2635  -1.1809  -0.9704  -0.7890  -0.5586  -0.5254
    -0.4073  -0.2774  -0.1601   0.0579   1.1461   1.7700   1.7810   1.8143
     1.9850   2.0587   2.1495   2.2663   2.3324   2.4753   2.5047   2.5760
     2.6034   2.7375   2.7386   3.0315   3.0371   3.3287   3.4459

          k = 0.0286-0.0093 0.0000 ( 37105 PWs)   bands (ev):

   -48.4993 -48.4821 -48.4489 -48.4317 -48.1376 -48.1210 -26.5376 -26.5220
   -26.4774 -26.4567 -26.4525 -26.4266 -26.4192 -26.4024 -26.3816 -26.3658
   -26.2678 -26.2342 -26.1847 -26.0768 -26.0402 -26.0328 -26.0302 -26.0027
    -5.4712  -3.9365  -3.8194  -3.6877  -3.5997  -3.4323  -3.3147  -3.2860
    -3.2625  -3.2483  -2.7650  -2.6679  -2.5706  -2.5151  -2.3633  -2.2828
    -2.2688  -2.1199  -2.0463  -1.9794  -1.9147  -1.8785  -1.7553  -1.5856
    -1.4968  -1.4562  -1.2687  -1.1808  -0.9726  -0.7914  -0.5934  -0.5458
    -0.4110  -0.2940  -0.1474   0.0455   1.0881   1.5774   1.6400   1.7016
     1.9464   1.9701   2.1162   2.1799   2.2812   2.3754   2.3773   2.5187
     2.5521   2.6047   2.8598   2.8600   3.1684   3.2989   3.4471

          k = 0.0286 0.0057 0.0000 ( 37134 PWs)   bands (ev):

   -48.5002 -48.4812 -48.4497 -48.4307 -48.1387 -48.1199 -26.5396 -26.5194
   -26.4813 -26.4659 -26.4572 -26.4265 -26.4158 -26.4134 -26.3861 -26.3654
   -26.2811 -26.2209 -26.1714 -26.0764 -26.0401 -26.0319 -26.0187 -26.0023
    -5.4778  -3.9539  -3.8065  -3.7258  -3.5734  -3.4596  -3.3077  -3.2969
    -3.2582  -3.2361  -2.7485  -2.6946  -2.6116  -2.4600  -2.3381  -2.2958
    -2.2420  -2.1127  -2.0681  -1.9913  -1.8673  -1.8655  -1.7691  -1.5360
    -1.4550  -1.3788  -1.2847  -1.2220  -0.9381  -0.6351  -0.5807  -0.3955
    -0.1873  -0.1290  -0.0515   0.2149   0.6797   1.2580   1.3725   1.5747
     1.8354   1.9209   2.0806   2.0901   2.1402   2.3121   2.3938   2.4156
     2.5797   2.5845   2.7739   2.9632   3.2015   3.4016   3.5597

          k = 0.0286 0.0208 0.0000 ( 37201 PWs)   bands (ev):

   -48.5004 -48.4809 -48.4499 -48.4305 -48.1391 -48.1195 -26.5412 -26.5179
   -26.4844 -26.4715 -26.4585 -26.4269 -26.4213 -26.4090 -26.3907 -26.3666
   -26.2861 -26.2166 -26.1671 -26.0750 -26.0414 -26.0323 -26.0147 -26.0031
    -5.3950  -3.8912  -3.7648  -3.6892  -3.5036  -3.4265  -3.2681  -3.2642
    -3.2067  -3.1845  -2.6809  -2.6625  -2.6229  -2.3865  -2.2952  -2.2882
    -2.2106  -2.0934  -2.0587  -2.0081  -1.8445  -1.8034  -1.7611  -1.4898
    -1.4422  -1.3347  -1.3066  -1.2805  -0.9133  -0.6905  -0.5340  -0.3649
    -0.1184   0.0108   0.1204   0.2648   0.3493   0.9348   1.1098   1.4185
     1.6595   1.7968   1.7997   2.0230   2.1082   2.1437   2.2518   2.4270
     2.4833   2.4993   2.8015   2.9647   3.1030   3.5160   3.5437

          k = 0.0286 0.0358 0.0000 ( 37194 PWs)   bands (ev):

   -48.4999 -48.4813 -48.4494 -48.4308 -48.1387 -48.1196 -26.5425 -26.5174
   -26.4860 -26.4688 -26.4601 -26.4281 -26.4187 -26.4063 -26.3943 -26.3689
   -26.2822 -26.2215 -26.1719 -26.0728 -26.0441 -26.0319 -26.0202 -26.0051
    -5.2295  -3.7661  -3.7306  -3.5890  -3.4065  -3.3345  -3.1931  -3.1777
    -3.1193  -3.0949  -2.6872  -2.5771  -2.5215  -2.3053  -2.2739  -2.2115
    -2.1912  -2.0623  -2.0311  -2.0133  -1.8628  -1.7369  -1.6847  -1.4968
    -1.4438  -1.3848  -1.3278  -1.2506  -0.9198  -0.7455  -0.5701  -0.4642
    -0.2654  -0.1048  -0.0948   0.1813   0.4995   0.8114   0.9374   1.2423
     1.4350   1.5722   1.6908   1.9509   1.9683   2.0580   2.0699   2.3435
     2.3987   2.4363   2.6999   2.9319   3.0457   3.4084   3.4142

          k = 0.0286 0.0509 0.0000 ( 37219 PWs)   bands (ev):

   -48.4988 -48.4823 -48.4483 -48.4318 -48.1378 -48.1205 -26.5432 -26.5180
   -26.4858 -26.4617 -26.4579 -26.4303 -26.4079 -26.4056 -26.3958 -26.3713
   -26.2696 -26.2349 -26.1853 -26.0700 -26.0477 -26.0355 -26.0296 -26.0081
    -4.9933  -3.7483  -3.6075  -3.4409  -3.3020  -3.1918  -3.0784  -3.0632
    -3.0035  -2.9756  -2.6980  -2.4574  -2.4401  -2.2608  -2.2362  -2.1814
    -2.1200  -2.0633  -1.9998  -1.9520  -1.8697  -1.6965  -1.5789  -1.5529
    -1.4514  -1.4268  -1.3248  -1.2380  -0.9608  -0.9054  -0.7784  -0.6877
    -0.5178  -0.3095  -0.1059  -0.0988   0.5318   0.7838   0.9361   1.1072
     1.1714   1.4655   1.6267   1.8288   1.9204   1.9457   2.0285   2.2488
     2.3529   2.3639   2.5138   2.8887   2.8954   3.1561   3.1584

          k = 0.0286 0.0659 0.0000 ( 37194 PWs)   bands (ev):

   -48.4971 -48.4838 -48.4466 -48.4334 -48.1363 -48.1219 -26.5430 -26.5195
   -26.4837 -26.4629 -26.4395 -26.4330 -26.4069 -26.3950 -26.3898 -26.3727
   -26.2557 -26.2489 -26.2061 -26.0671 -26.0573 -26.0521 -26.0273 -26.0115
    -4.7046  -3.8518  -3.4543  -3.2688  -3.2070  -3.0145  -2.9602  -2.9376
    -2.8746  -2.8569  -2.6894  -2.4234  -2.3524  -2.2934  -2.1927  -2.1693
    -2.0900  -2.0445  -1.9549  -1.8961  -1.8207  -1.7376  -1.5860  -1.4999
    -1.4760  -1.3962  -1.3531  -1.2862  -1.2587  -1.0718  -1.0311  -0.7899
    -0.7729  -0.5063  -0.2121  -0.2104   0.4427   0.7629   0.8821   0.9926
     1.1009   1.4690   1.6224   1.7762   1.9352   1.9586   1.9990   2.1608
     2.2547   2.3778   2.4114   2.6924   2.8571   2.9786   3.0098

          k = 0.0286-0.0996 0.0000 ( 37204 PWs)   bands (ev):

   -48.4950 -48.4859 -48.4445 -48.4354 -48.1343 -48.1238 -26.5419 -26.5216
   -26.4799 -26.4639 -26.4353 -26.4164 -26.4079 -26.3922 -26.3755 -26.3627
   -26.2823 -26.2326 -26.2215 -26.0868 -26.0622 -26.0568 -26.0237 -26.0152
    -4.3897  -4.0527  -3.3512  -3.1422  -3.1160  -2.9010  -2.8318  -2.8015
    -2.7875  -2.7668  -2.6621  -2.4600  -2.3669  -2.3078  -2.1933  -2.1082
    -2.0596  -2.0083  -1.9822  -1.8775  -1.8204  -1.7948  -1.6639  -1.6531
    -1.5366  -1.4627  -1.4124  -1.3562  -1.3099  -1.2321  -1.1728  -1.1330
    -0.7095  -0.6200  -0.4285  -0.1508   0.5920   0.6200   0.6421   1.0231
     1.3143   1.5326   1.6827   1.8398   1.9039   2.0163   2.0855   2.1000
     2.1986   2.4479   2.4485   2.6608   2.8080   2.9320   2.9984

          k = 0.0286-0.0845 0.0000 ( 37176 PWs)   bands (ev):

   -48.4927 -48.4883 -48.4422 -48.4378 -48.1320 -48.1262 -26.5398 -26.5242
   -26.4746 -26.4647 -26.4367 -26.4154 -26.3879 -26.3828 -26.3747 -26.3332
   -26.3127 -26.2630 -26.1889 -26.1194 -26.0616 -26.0579 -26.0196 -26.0188
    -4.3310  -4.0866  -3.3241  -3.1361  -3.0622  -2.9096  -2.8405  -2.7990
    -2.6824  -2.6713  -2.5664  -2.5366  -2.4536  -2.2401  -2.2393  -2.2079
    -2.0526  -1.9465  -1.9315  -1.9233  -1.8925  -1.8701  -1.7554  -1.7251
    -1.6484  -1.6364  -1.5478  -1.5096  -1.3869  -1.2518  -1.2212  -1.1608
    -0.6745  -0.6417  -0.4290  -0.1373   0.4544   0.7072   0.9353   1.0757
     1.5139   1.6447   1.7940   1.9227   1.9856   2.0447   2.1250   2.2482
     2.3039   2.5261   2.5885   2.7681   2.7782   2.8983   2.9907

          k = 0.0286-0.0695 0.0000 ( 37170 PWs)   bands (ev):

   -48.4909 -48.4902 -48.4404 -48.4397 -48.1295 -48.1288 -26.5367 -26.5270
   -26.4687 -26.4656 -26.4368 -26.4195 -26.3827 -26.3745 -26.3495 -26.3450
   -26.3000 -26.2952 -26.1540 -26.1534 -26.0662 -26.0532 -26.0220 -26.0152
    -4.6428  -3.8486  -3.3628  -3.2229  -3.1244  -2.9997  -2.9681  -2.8936
    -2.8112  -2.7133  -2.5911  -2.4897  -2.4504  -2.3371  -2.2035  -2.0977
    -2.0555  -2.0230  -1.9908  -1.9663  -1.8996  -1.8867  -1.8390  -1.8008
    -1.7408  -1.6052  -1.5929  -1.5235  -1.4744  -1.3436  -1.1959  -1.0902
    -0.7012  -0.6181  -0.2181  -0.1806   0.4922   1.0110   1.1842   1.3208
     1.6560   1.7745   1.8646   2.0068   2.0360   2.2193   2.3518   2.3669
     2.4713   2.5831   2.6330   2.7592   2.9110   2.9197   3.0411

          k = 0.0286-0.0544 0.0000 ( 37160 PWs)   bands (ev):

   -48.4935 -48.4878 -48.4430 -48.4372 -48.1314 -48.1270 -26.5331 -26.5299
   -26.4671 -26.4631 -26.4351 -26.4231 -26.3777 -26.3764 -26.3746 -26.3271
   -26.3155 -26.2660 -26.1882 -26.1174 -26.0704 -26.0487 -26.0248 -26.0110
    -4.9423  -3.7319  -3.4377  -3.4215  -3.2161  -3.1536  -3.1151  -3.0207
    -3.0102  -2.9411  -2.5528  -2.5474  -2.4262  -2.3244  -2.2622  -2.2393
    -2.0841  -2.0635  -2.0092  -1.9253  -1.8973  -1.8453  -1.8178  -1.7842
    -1.7572  -1.5970  -1.5769  -1.4415  -1.4121  -1.2139  -1.2097  -1.0265
    -0.6670  -0.5877  -0.2063  -0.1062   0.7808   1.3289   1.4202   1.7196
     1.7406   1.8161   1.9082   2.1594   2.1911   2.3335   2.4207   2.4285
     2.4931   2.6018   2.7476   2.7754   2.9427   3.0233   3.1987

          k = 0.0286-0.0394 0.0000 ( 37127 PWs)   bands (ev):

   -48.4958 -48.4855 -48.4454 -48.4350 -48.1338 -48.1247 -26.5327 -26.5291
   -26.4697 -26.4590 -26.4312 -26.4254 -26.4067 -26.3756 -26.3720 -26.3567
   -26.2833 -26.2339 -26.2198 -26.0836 -26.0737 -26.0447 -26.0271 -26.0073
    -5.1940  -3.7389  -3.6512  -3.5177  -3.3791  -3.2721  -3.2131  -3.1946
    -3.1368  -3.0899  -2.5606  -2.5454  -2.5140  -2.4464  -2.3773  -2.3098
    -2.1418  -2.0949  -2.0095  -1.9442  -1.9075  -1.8449  -1.7154  -1.7085
    -1.6449  -1.5532  -1.5033  -1.3456  -1.2158  -1.1880  -0.9937  -0.9002
    -0.5969  -0.5701  -0.1998  -0.0698   1.1777   1.5596   1.6617   1.7614
     1.7689   2.0408   2.1091   2.2930   2.3137   2.3356   2.3642   2.4281
     2.4324   2.5744   2.7081   2.9533   3.0313   3.2129   3.2767

          k = 0.0286-0.0243 0.0000 ( 37140 PWs)   bands (ev):

   -48.4978 -48.4836 -48.4474 -48.4331 -48.1360 -48.1227 -26.5353 -26.5253
   -26.4732 -26.4570 -26.4326 -26.4264 -26.4253 -26.3824 -26.3780 -26.3681
   -26.2555 -26.2469 -26.2061 -26.0759 -26.0546 -26.0418 -26.0290 -26.0045
    -5.3748  -3.8331  -3.7905  -3.5781  -3.5699  -3.3471  -3.2997  -3.2576
    -3.2165  -3.1993  -2.6909  -2.5838  -2.5482  -2.5364  -2.3567  -2.3293
    -2.2149  -2.1128  -2.0004  -1.9896  -1.9234  -1.8636  -1.7413  -1.6380
    -1.5675  -1.5199  -1.2803  -1.1964  -1.1387  -0.9858  -0.8572  -0.5874
    -0.5714  -0.5073  -0.1745  -0.0375   1.3925   1.5518   1.7045   1.7982
     1.9843   2.0789   2.1346   2.2146   2.2979   2.3415   2.3492   2.5055
     2.5289   2.6226   2.7489   2.9456   3.0241   3.2860   3.4412

          k = 0.0429-0.0140 0.0000 ( 37129 PWs)   bands (ev):

   -48.4977 -48.4837 -48.4472 -48.4332 -48.1360 -48.1225 -26.5363 -26.5237
   -26.4779 -26.4609 -26.4343 -26.4241 -26.4181 -26.3842 -26.3837 -26.3698
   -26.2555 -26.2473 -26.2060 -26.0734 -26.0552 -26.0438 -26.0290 -26.0060
    -5.2569  -3.8227  -3.7553  -3.5156  -3.4975  -3.2903  -3.2070  -3.1961
    -3.1534  -3.1445  -2.7827  -2.5313  -2.4668  -2.4217  -2.3098  -2.2747
    -2.2195  -2.0891  -1.9942  -1.9916  -1.8784  -1.8747  -1.6452  -1.6448
    -1.5491  -1.5204  -1.2897  -1.1806  -1.1612  -1.0027  -0.8905  -0.6308
    -0.6233  -0.4810  -0.1353  -0.0863   1.2814   1.3005   1.4120   1.7167
     1.7344   1.9110   2.0590   2.0996   2.1348   2.1379   2.3743   2.3862
     2.5172   2.5854   2.7146   2.7981   3.1212   3.1469   3.2716

          k = 0.0429 0.0011 0.0000 ( 37158 PWs)   bands (ev):

   -48.4991 -48.4822 -48.4486 -48.4317 -48.1377 -48.1208 -26.5395 -26.5200
   -26.4826 -26.4605 -26.4549 -26.4255 -26.4113 -26.4048 -26.3893 -26.3688
   -26.2685 -26.2345 -26.1850 -26.0734 -26.0433 -26.0342 -26.0300 -26.0050
    -5.2868  -3.7986  -3.7958  -3.5754  -3.4850  -3.3424  -3.2087  -3.2056
    -3.1691  -3.1361  -2.7690  -2.5820  -2.4826  -2.3972  -2.2634  -2.2496
    -2.2480  -2.0835  -2.0145  -2.0120  -1.8790  -1.8113  -1.6651  -1.5721
    -1.4844  -1.4558  -1.2880  -1.1939  -0.9732  -0.8169  -0.6810  -0.6046
    -0.4325  -0.3244  -0.1114   0.0003   0.9446   1.0826   1.3350   1.4022
     1.6581   1.8458   1.8773   2.0326   2.0894   2.0998   2.2153   2.3934
     2.5063   2.5099   2.6077   2.9107   3.1674   3.2954   3.3547

          k = 0.0429 0.0161 0.0000 ( 37194 PWs)   bands (ev):

   -48.4999 -48.4813 -48.4494 -48.4308 -48.1387 -48.1196 -26.5425 -26.5174
   -26.4860 -26.4688 -26.4601 -26.4281 -26.4187 -26.4063 -26.3943 -26.3689
   -26.2822 -26.2215 -26.1719 -26.0728 -26.0441 -26.0319 -26.0202 -26.0051
    -5.2295  -3.7661  -3.7306  -3.5890  -3.4065  -3.3345  -3.1931  -3.1777
    -3.1193  -3.0949  -2.6872  -2.5771  -2.5215  -2.3053  -2.2739  -2.2115
    -2.1912  -2.0623  -2.0311  -2.0133  -1.8628  -1.7369  -1.6847  -1.4968
    -1.4438  -1.3848  -1.3278  -1.2506  -0.9198  -0.7455  -0.5701  -0.4642
    -0.2654  -0.1048  -0.0948   0.1813   0.4995   0.8114   0.9374   1.2423
     1.4350   1.5722   1.6908   1.9509   1.9683   2.0580   2.0699   2.3435
     2.3987   2.4364   2.7000   2.9317   3.0457   3.4083   3.4148

          k = 0.0429 0.0312 0.0000 ( 37213 PWs)   bands (ev):

   -48.5000 -48.4810 -48.4496 -48.4305 -48.1391 -48.1191 -26.5451 -26.5161
   -26.4876 -26.4748 -26.4597 -26.4321 -26.4246 -26.4039 -26.3976 -26.3695
   -26.2873 -26.2173 -26.1677 -26.0716 -26.0460 -26.0319 -26.0164 -26.0063
    -5.0905  -3.6788  -3.6612  -3.5454  -3.2959  -3.2685  -3.1335  -3.1073
    -3.0311  -3.0197  -2.6070  -2.5175  -2.5121  -2.2586  -2.2099  -2.1555
    -2.1337  -2.0536  -2.0257  -1.9843  -1.8639  -1.6663  -1.6651  -1.4332
    -1.4184  -1.4056  -1.3367  -1.2936  -0.8827  -0.8111  -0.5521  -0.3857
    -0.1124  -0.0875   0.0290   0.1032   0.3297   0.5248   0.5869   1.0835
     1.1680   1.2425   1.5397   1.7537   1.8931   1.9011   2.0138   2.2466
     2.2530   2.4247   2.7405   2.8953   2.9118   3.2699   3.3682

          k = 0.0429 0.0462 0.0000 ( 37210 PWs)   bands (ev):

   -48.4995 -48.4814 -48.4490 -48.4309 -48.1388 -48.1193 -26.5471 -26.5159
   -26.4873 -26.4722 -26.4592 -26.4369 -26.4220 -26.4041 -26.3990 -26.3701
   -26.2834 -26.2221 -26.1725 -26.0700 -26.0489 -26.0309 -26.0219 -26.0084
    -4.8805  -3.6340  -3.5682  -3.4505  -3.1758  -3.1550  -3.0283  -3.0024
    -2.9176  -2.9138  -2.5944  -2.4476  -2.4196  -2.2400  -2.1532  -2.0905
    -2.0822  -2.0667  -1.9649  -1.9346  -1.8789  -1.6344  -1.5964  -1.4791
    -1.4079  -1.3859  -1.3724  -1.2609  -0.8872  -0.8542  -0.6177  -0.5775
    -0.3923  -0.1674  -0.1190   0.0876   0.3101   0.3545   0.5921   0.8792
     0.9572   1.1135   1.4355   1.6253   1.7382   1.8463   1.9422   2.1497
     2.1890   2.3641   2.5762   2.7840   2.8806   3.0538   3.2249

          k = 0.0429 0.0613 0.0000 ( 37225 PWs)   bands (ev):

   -48.4984 -48.4823 -48.4479 -48.4319 -48.1379 -48.1201 -26.5479 -26.5169
   -26.4851 -26.4612 -26.4586 -26.4414 -26.4109 -26.4066 -26.3983 -26.3702
   -26.2706 -26.2353 -26.1857 -26.0678 -26.0524 -26.0367 -26.0285 -26.0110
    -4.6151  -3.6878  -3.4579  -3.3287  -3.0639  -3.0080  -2.8957  -2.8893
    -2.8084  -2.7786  -2.5850  -2.4239  -2.3348  -2.2656  -2.1612  -2.0730
    -2.0259  -2.0252  -1.9433  -1.8759  -1.8284  -1.6800  -1.5347  -1.5081
    -1.4507  -1.3650  -1.3256  -1.2498  -1.0701  -0.9402  -0.8597  -0.7822
    -0.6252  -0.3838  -0.3604  -0.1747   0.3186   0.5471   0.5831   0.6753
     0.8795   1.2424   1.4025   1.5998   1.7085   1.8371   1.8857   2.1347
     2.1417   2.2757   2.4049   2.6181   2.8289   2.9060   3.0559

          k = 0.0429-0.1042 0.0000 ( 37191 PWs)   bands (ev):

   -48.4968 -48.4839 -48.4463 -48.4335 -48.1364 -48.1216 -26.5473 -26.5187
   -26.4811 -26.4586 -26.4448 -26.4417 -26.4105 -26.3960 -26.3918 -26.3699
   -26.2558 -26.2497 -26.2061 -26.0652 -26.0583 -26.0563 -26.0257 -26.0140
    -4.3161  -3.8411  -3.3654  -3.2282  -2.9780  -2.8373  -2.8214  -2.7358
    -2.7305  -2.6562  -2.5738  -2.4483  -2.3362  -2.3229  -2.1659  -2.0698
    -1.9937  -1.9811  -1.9224  -1.8719  -1.7773  -1.7597  -1.6194  -1.5023
    -1.4973  -1.4141  -1.4054  -1.2695  -1.2311  -1.1866  -1.0392  -0.9312
    -0.8107  -0.6304  -0.5729  -0.1545   0.3090   0.4845   0.5194   0.8302
     1.0076   1.4523   1.4543   1.6072   1.8214   1.8997   1.9045   2.0930
     2.1957   2.2103   2.3986   2.5794   2.7693   2.8901   3.0158

          k = 0.0429-0.0892 0.0000 ( 37191 PWs)   bands (ev):

   -48.4948 -48.4860 -48.4443 -48.4355 -48.1344 -48.1236 -26.5454 -26.5210
   -26.4759 -26.4588 -26.4465 -26.4177 -26.4128 -26.3922 -26.3710 -26.3647
   -26.2821 -26.2324 -26.2218 -26.0873 -26.0609 -26.0603 -26.0222 -26.0169
    -4.0847  -4.0154  -3.3240  -3.1893  -2.9452  -2.8045  -2.7193  -2.6657
    -2.6359  -2.5990  -2.5582  -2.4979  -2.4239  -2.3223  -2.1282  -2.0671
    -2.0274  -1.9502  -1.9475  -1.9097  -1.8608  -1.8576  -1.7247  -1.6511
    -1.6026  -1.5580  -1.5360  -1.3758  -1.3424  -1.2440  -1.1861  -1.1633
    -0.7909  -0.6445  -0.5200  -0.1657   0.1325   0.5875   0.8070   0.8692
     1.2826   1.5477   1.5805   1.8299   1.8707   1.9863   2.0863   2.1470
     2.1536   2.3495   2.5590   2.7175   2.7897   2.9323   3.0406

          k = 0.0429-0.0741 0.0000 ( 37197 PWs)   bands (ev):

   -48.4925 -48.4884 -48.4420 -48.4379 -48.1321 -48.1260 -26.5421 -26.5238
   -26.4703 -26.4600 -26.4457 -26.4192 -26.3873 -26.3840 -26.3707 -26.3344
   -26.3124 -26.2626 -26.1890 -26.1196 -26.0641 -26.0568 -26.0198 -26.0184
    -4.3807  -3.7702  -3.3429  -3.2160  -2.9861  -2.8954  -2.8174  -2.7506
    -2.6672  -2.5480  -2.4943  -2.4869  -2.3791  -2.3497  -2.2498  -2.1714
    -2.0163  -1.9997  -1.9471  -1.9188  -1.8942  -1.8690  -1.8389  -1.7791
    -1.7618  -1.6466  -1.6087  -1.5576  -1.4460  -1.2868  -1.2027  -1.1542
    -0.8026  -0.6190  -0.2328  -0.2058   0.0933   0.8416   0.9789   1.1415
     1.4930   1.6475   1.7648   1.8793   2.0605   2.1131   2.2092   2.2129
     2.3735   2.5090   2.7694   2.7987   2.9142   2.9474   3.0849

          k = 0.0429-0.0591 0.0000 ( 37175 PWs)   bands (ev):

   -48.4909 -48.4901 -48.4405 -48.4396 -48.1296 -48.1287 -26.5379 -26.5268
   -26.4658 -26.4628 -26.4419 -26.4218 -26.3821 -26.3720 -26.3499 -26.3447
   -26.3004 -26.2949 -26.1540 -26.1533 -26.0676 -26.0526 -26.0224 -26.0145
    -4.6802  -3.6797  -3.3771  -3.2449  -3.1654  -3.0335  -2.9624  -2.8917
    -2.8257  -2.7053  -2.5560  -2.4716  -2.4327  -2.2763  -2.1764  -2.1175
    -2.0759  -2.0746  -2.0332  -2.0272  -1.9046  -1.8775  -1.8452  -1.8280
    -1.7642  -1.5966  -1.5927  -1.5282  -1.5246  -1.3592  -1.2117  -1.0783
    -0.7525  -0.5948  -0.2219  -0.1118   0.3621   1.0989   1.1987   1.4734
     1.6307   1.7750   1.8782   1.9890   2.1080   2.2082   2.3360   2.4854
     2.4960   2.6062   2.6466   2.8285   2.9718   2.9884   3.2023

          k = 0.0429-0.0440 0.0000 ( 37160 PWs)   bands (ev):

   -48.4935 -48.4878 -48.4430 -48.4372 -48.1314 -48.1270 -26.5331 -26.5299
   -26.4671 -26.4631 -26.4351 -26.4231 -26.3777 -26.3764 -26.3746 -26.3271
   -26.3155 -26.2660 -26.1882 -26.1174 -26.0704 -26.0487 -26.0248 -26.0110
    -4.9423  -3.7319  -3.4377  -3.4215  -3.2161  -3.1536  -3.1151  -3.0207
    -3.0102  -2.9411  -2.5528  -2.5474  -2.4262  -2.3244  -2.2622  -2.2393
    -2.0841  -2.0635  -2.0092  -1.9253  -1.8973  -1.8453  -1.8178  -1.7842
    -1.7572  -1.5970  -1.5769  -1.4415  -1.4121  -1.2139  -1.2097  -1.0265
    -0.6670  -0.5877  -0.2063  -0.1062   0.7808   1.3289   1.4202   1.7196
     1.7406   1.8161   1.9082   2.1594   2.1911   2.3335   2.4207   2.4285
     2.4931   2.6015   2.7476   2.7753   2.9426   3.0231   3.1986

          k = 0.0429-0.0290 0.0000 ( 37143 PWs)   bands (ev):

   -48.4958 -48.4855 -48.4453 -48.4350 -48.1339 -48.1246 -26.5331 -26.5282
   -26.4724 -26.4617 -26.4270 -26.4236 -26.4071 -26.3786 -26.3732 -26.3571
   -26.2832 -26.2338 -26.2200 -26.0840 -26.0722 -26.0457 -26.0270 -26.0081
    -5.1397  -3.7978  -3.6278  -3.4956  -3.3510  -3.1988  -3.1854  -3.1648
    -3.1102  -3.0714  -2.7070  -2.5205  -2.4217  -2.3661  -2.3459  -2.2923
    -2.1507  -2.0817  -1.9828  -1.9589  -1.9096  -1.8578  -1.7175  -1.6538
    -1.6207  -1.5602  -1.5005  -1.3482  -1.1998  -1.1971  -1.0065  -0.9167
    -0.5996  -0.5728  -0.1717  -0.1059   1.1492   1.4269   1.5794   1.6105
     1.8599   1.8808   2.0204   2.1410   2.2264   2.2911   2.3867   2.4108
     2.5457   2.5869   2.7561   2.8492   2.8990   3.0403   3.2406

          k = 0.0572-0.0186 0.0000 ( 37146 PWs)   bands (ev):

   -48.4956 -48.4856 -48.4451 -48.4352 -48.1340 -48.1244 -26.5346 -26.5258
   -26.4776 -26.4657 -26.4216 -26.4193 -26.4077 -26.3854 -26.3759 -26.3584
   -26.2829 -26.2334 -26.2204 -26.0849 -26.0687 -26.0484 -26.0265 -26.0101
    -4.9798  -3.9027  -3.5605  -3.4306  -3.2658  -3.1083  -3.0787  -3.0780
    -3.0181  -3.0113  -2.8047  -2.4218  -2.3675  -2.3646  -2.3110  -2.2086
    -2.1267  -2.0542  -2.0173  -1.9467  -1.8353  -1.8197  -1.7277  -1.5740
    -1.5718  -1.5547  -1.4701  -1.3557  -1.2392  -1.1839  -1.0435  -0.9640
    -0.6631  -0.5070  -0.2105  -0.1005   0.9508   1.0992   1.3646   1.5215
     1.5250   1.8314   1.8695   1.9848   2.1168   2.1574   2.2827   2.4010
     2.4623   2.5774   2.6099   2.7320   2.8250   3.0300   3.0513

          k = 0.0572-0.0036 0.0000 ( 37175 PWs)   bands (ev):

   -48.4974 -48.4837 -48.4469 -48.4333 -48.1361 -48.1222 -26.5389 -26.5213
   -26.4825 -26.4638 -26.4368 -26.4250 -26.4101 -26.3911 -26.3870 -26.3722
   -26.2556 -26.2481 -26.2061 -26.0699 -26.0563 -26.0475 -26.0285 -26.0086
    -5.0282  -3.8479  -3.6167  -3.3918  -3.3732  -3.1800  -3.0890  -3.0833
    -3.0527  -3.0038  -2.7842  -2.4398  -2.4097  -2.3293  -2.2627  -2.2485
    -2.1292  -2.0452  -2.0308  -1.9560  -1.8558  -1.7611  -1.6408  -1.5537
    -1.5201  -1.4765  -1.3097  -1.2190  -1.1989  -1.0231  -0.9620  -0.7116
    -0.6923  -0.4366  -0.1877  -0.0822   0.7644   1.1197   1.1894   1.2704
     1.4189   1.7232   1.8034   1.9693   2.0047   2.0552   2.1354   2.3438
     2.3925   2.4884   2.4972   2.8646   2.9634   2.9867   3.1317

          k = 0.0572 0.0115 0.0000 ( 37219 PWs)   bands (ev):

   -48.4988 -48.4823 -48.4483 -48.4318 -48.1378 -48.1205 -26.5432 -26.5180
   -26.4858 -26.4616 -26.4579 -26.4303 -26.4079 -26.4056 -26.3958 -26.3713
   -26.2696 -26.2349 -26.1853 -26.0700 -26.0477 -26.0355 -26.0296 -26.0081
    -4.9933  -3.7483  -3.6075  -3.4409  -3.3020  -3.1918  -3.0784  -3.0632
    -3.0035  -2.9756  -2.6980  -2.4574  -2.4401  -2.2608  -2.2362  -2.1814
    -2.1200  -2.0633  -1.9998  -1.9520  -1.8697  -1.6965  -1.5789  -1.5529
    -1.4514  -1.4268  -1.3248  -1.2380  -0.9608  -0.9054  -0.7784  -0.6877
    -0.5178  -0.3095  -0.1059  -0.0988   0.5318   0.7838   0.9361   1.1072
     1.1714   1.4655   1.6267   1.8288   1.9204   1.9457   2.0285   2.2488
     2.3529   2.3639   2.5138   2.8887   2.8955   3.1557   3.1583

          k = 0.0572 0.0265 0.0000 ( 37210 PWs)   bands (ev):

   -48.4995 -48.4814 -48.4490 -48.4309 -48.1388 -48.1193 -26.5471 -26.5159
   -26.4873 -26.4722 -26.4592 -26.4369 -26.4220 -26.4041 -26.3990 -26.3701
   -26.2834 -26.2221 -26.1725 -26.0700 -26.0489 -26.0309 -26.0219 -26.0084
    -4.8805  -3.6340  -3.5682  -3.4505  -3.1758  -3.1550  -3.0283  -3.0024
    -2.9176  -2.9138  -2.5944  -2.4476  -2.4196  -2.2400  -2.1532  -2.0905
    -2.0822  -2.0667  -1.9649  -1.9346  -1.8789  -1.6344  -1.5964  -1.4791
    -1.4079  -1.3859  -1.3724  -1.2609  -0.8872  -0.8542  -0.6177  -0.5775
    -0.3923  -0.1674  -0.1190   0.0876   0.3101   0.3545   0.5921   0.8792
     0.9572   1.1135   1.4355   1.6253   1.7382   1.8463   1.9422   2.1497
     2.1890   2.3641   2.5764   2.7843   2.8807   3.0538   3.2277

          k = 0.0572 0.0416 0.0000 ( 37227 PWs)   bands (ev):

   -48.4997 -48.4811 -48.4492 -48.4306 -48.1392 -48.1187 -26.5501 -26.5151
   -26.4870 -26.4781 -26.4569 -26.4437 -26.4279 -26.4052 -26.4006 -26.3688
   -26.2885 -26.2180 -26.1683 -26.0696 -26.0508 -26.0305 -26.0182 -26.0095
    -4.7001  -3.5507  -3.5467  -3.3810  -3.0811  -3.0365  -2.9374  -2.9112
    -2.8365  -2.7993  -2.5345  -2.4259  -2.3338  -2.1968  -2.1108  -2.0920
    -2.0585  -1.9502  -1.9449  -1.9015  -1.8543  -1.5999  -1.5779  -1.4936
    -1.4234  -1.3647  -1.3415  -1.2297  -0.9215  -0.8409  -0.6144  -0.4744
    -0.3723  -0.3242   0.0327   0.0941   0.1946   0.2465   0.2607   0.5780
     0.7443   0.8844   1.2885   1.4086   1.5965   1.7677   1.8395   1.9630
     2.1624   2.3288   2.5708   2.6443   2.8553   2.8637   3.0964

          k = 0.0572 0.0566 0.0000 ( 37245 PWs)   bands (ev):

   -48.4992 -48.4814 -48.4487 -48.4309 -48.1389 -48.1189 -26.5517 -26.5154
   -26.4849 -26.4750 -26.4548 -26.4494 -26.4249 -26.4083 -26.4006 -26.3677
   -26.2844 -26.2227 -26.1730 -26.0686 -26.0532 -26.0293 -26.0235 -26.0112
    -4.4665  -3.5431  -3.5306  -3.2795  -2.9756  -2.9074  -2.8274  -2.8096
    -2.7467  -2.6696  -2.5135  -2.4137  -2.2575  -2.1999  -2.1531  -2.0347
    -2.0314  -1.9564  -1.8764  -1.8258  -1.7979  -1.6256  -1.5302  -1.5256
    -1.4636  -1.3383  -1.2793  -1.1945  -0.9588  -0.8535  -0.8526  -0.6557
    -0.5435  -0.4768  -0.1375  -0.0793   0.2206   0.2608   0.3012   0.3358
     0.6574   0.9864   1.2170   1.3817   1.4835   1.7266   1.7701   1.8661
     2.1425   2.2627   2.4279   2.5263   2.6969   2.9102   2.9784

          k = 0.0572-0.1089 0.0000 ( 37231 PWs)   bands (ev):

   -48.4982 -48.4824 -48.4477 -48.4319 -48.1380 -48.1199 -26.5517 -26.5166
   -26.4813 -26.4633 -26.4534 -26.4533 -26.4132 -26.4119 -26.3991 -26.3671
   -26.2714 -26.2356 -26.1859 -26.0668 -26.0560 -26.0377 -26.0271 -26.0132
    -4.1984  -3.6363  -3.5181  -3.1940  -2.8432  -2.8104  -2.7268  -2.7190
    -2.6733  -2.5337  -2.5100  -2.4354  -2.2760  -2.2663  -2.2009  -2.0111
    -1.9627  -1.9237  -1.8950  -1.8210  -1.7194  -1.6801  -1.5815  -1.4788
    -1.4565  -1.3899  -1.2854  -1.2044  -1.2007  -0.9593  -0.9131  -0.8799
    -0.7156  -0.6846  -0.5823  -0.1525   0.0393   0.3234   0.4013   0.5941
     0.6836   1.2394   1.2999   1.4249   1.6026   1.6997   1.7770   1.8760
     2.1201   2.2335   2.3527   2.4878   2.6225   2.8380   2.8539

          k = 0.0572-0.0938 0.0000 ( 37196 PWs)   bands (ev):

   -48.4967 -48.4840 -48.4462 -48.4335 -48.1364 -48.1214 -26.5500 -26.5185
   -26.4768 -26.4546 -26.4540 -26.4426 -26.4157 -26.3962 -26.3930 -26.3672
   -26.2559 -26.2501 -26.2062 -26.0641 -26.0594 -26.0588 -26.0246 -26.0153
    -3.9254  -3.8300  -3.5210  -3.1583  -2.7806  -2.6977  -2.6795  -2.6416
    -2.6078  -2.5499  -2.4844  -2.4671  -2.3462  -2.3061  -2.1981  -2.0323
    -2.0027  -1.8902  -1.8896  -1.8560  -1.7639  -1.7405  -1.6688  -1.5758
    -1.5586  -1.4421  -1.4391  -1.2992  -1.2482  -1.1856  -1.0545  -1.0420
    -0.8977  -0.6651  -0.6614  -0.1753  -0.1071   0.4237   0.6351   0.6868
     0.9819   1.3557   1.4380   1.6986   1.7149   1.8534   1.8812   2.0114
     2.1101   2.1908   2.4740   2.6336   2.6646   2.8651   2.8652

          k = 0.0572-0.0788 0.0000 ( 37213 PWs)   bands (ev):

   -48.4947 -48.4860 -48.4442 -48.4356 -48.1344 -48.1235 -26.5467 -26.5209
   -26.4729 -26.4559 -26.4521 -26.4183 -26.4157 -26.3921 -26.3684 -26.3661
   -26.2821 -26.2323 -26.2220 -26.0874 -26.0616 -26.0605 -26.0216 -26.0176
    -4.0944  -3.7435  -3.4854  -3.1815  -2.8401  -2.7344  -2.6818  -2.6016
    -2.5895  -2.5732  -2.5260  -2.4550  -2.4397  -2.3017  -2.0951  -2.0680
    -2.0665  -2.0032  -1.9151  -1.8813  -1.8678  -1.8562  -1.7871  -1.7306
    -1.6332  -1.5723  -1.5249  -1.4351  -1.3947  -1.2342  -1.1879  -1.1687
    -0.8743  -0.6371  -0.3808  -0.2030  -0.1429   0.6217   0.8031   0.8971
     1.2751   1.5244   1.5441   1.7835   1.9743   2.0188   2.1270   2.1296
     2.1408   2.2826   2.6964   2.7759   2.9014   2.9210   2.9374

          k = 0.0572-0.0637 0.0000 ( 37197 PWs)   bands (ev):

   -48.4925 -48.4884 -48.4420 -48.4379 -48.1321 -48.1260 -26.5421 -26.5238
   -26.4703 -26.4600 -26.4457 -26.4192 -26.3873 -26.3840 -26.3707 -26.3344
   -26.3124 -26.2626 -26.1890 -26.1196 -26.0641 -26.0568 -26.0198 -26.0184
    -4.3807  -3.7702  -3.3429  -3.2160  -2.9861  -2.8954  -2.8174  -2.7506
    -2.6672  -2.5480  -2.4943  -2.4869  -2.3791  -2.3497  -2.2498  -2.1714
    -2.0163  -1.9997  -1.9471  -1.9188  -1.8942  -1.8690  -1.8389  -1.7791
    -1.7618  -1.6466  -1.6087  -1.5576  -1.4460  -1.2868  -1.2027  -1.1542
    -0.8026  -0.6190  -0.2328  -0.2058   0.0933   0.8416   0.9789   1.1415
     1.4930   1.6475   1.7648   1.8793   2.0605   2.1131   2.2092   2.2129
     2.3735   2.5090   2.7694   2.7989   2.9137   2.9476   3.0914

          k = 0.0572-0.0487 0.0000 ( 37170 PWs)   bands (ev):

   -48.4909 -48.4902 -48.4404 -48.4397 -48.1295 -48.1288 -26.5367 -26.5270
   -26.4687 -26.4656 -26.4368 -26.4195 -26.3827 -26.3745 -26.3495 -26.3450
   -26.3000 -26.2952 -26.1540 -26.1534 -26.0662 -26.0532 -26.0220 -26.0152
    -4.6428  -3.8486  -3.3628  -3.2229  -3.1244  -2.9997  -2.9681  -2.8936
    -2.8112  -2.7133  -2.5911  -2.4897  -2.4504  -2.3371  -2.2035  -2.0977
    -2.0555  -2.0230  -1.9908  -1.9663  -1.8996  -1.8867  -1.8390  -1.8008
    -1.7408  -1.6052  -1.5929  -1.5235  -1.4744  -1.3436  -1.1959  -1.0902
    -0.7012  -0.6181  -0.2181  -0.1806   0.4922   1.0110   1.1842   1.3208
     1.6560   1.7745   1.8646   2.0068   2.0360   2.2193   2.3518   2.3669
     2.4713   2.5831   2.6330   2.7592   2.9110   2.9197   3.0411

          k = 0.0572-0.0336 0.0000 ( 37148 PWs)   bands (ev):

   -48.4933 -48.4878 -48.4429 -48.4373 -48.1315 -48.1269 -26.5311 -26.5306
   -26.4718 -26.4673 -26.4273 -26.4200 -26.3796 -26.3795 -26.3767 -26.3279
   -26.3150 -26.2655 -26.1883 -26.1178 -26.0678 -26.0503 -26.0243 -26.0124
    -4.8487  -3.9012  -3.4273  -3.4161  -3.1274  -3.0642  -3.0602  -2.9903
    -2.9568  -2.9187  -2.7349  -2.4635  -2.4078  -2.3194  -2.2126  -2.1867
    -2.1041  -2.0568  -1.9797  -1.9539  -1.8723  -1.8191  -1.8024  -1.7531
    -1.6767  -1.5980  -1.5106  -1.4403  -1.4109  -1.2284  -1.1866  -1.0541
    -0.6328  -0.5950  -0.2151  -0.1394   0.8575   1.0476   1.3968   1.3996
     1.7442   1.7837   1.8799   1.9726   2.1549   2.3035   2.3459   2.4826
     2.5128   2.5219   2.6159   2.6897   2.8297   2.9257   3.0666

          k = 0.0715-0.0233 0.0000 ( 37172 PWs)   bands (ev):

   -48.4931 -48.4880 -48.4426 -48.4375 -48.1316 -48.1267 -26.5326 -26.5281
   -26.4763 -26.4701 -26.4196 -26.4183 -26.3856 -26.3810 -26.3783 -26.3294
   -26.3142 -26.2647 -26.1886 -26.1184 -26.0639 -26.0535 -26.0231 -26.0146
    -4.6659  -4.0835  -3.4141  -3.3672  -3.0535  -2.9777  -2.9766  -2.8921
    -2.8796  -2.8545  -2.8345  -2.4034  -2.3735  -2.3390  -2.2625  -2.1313
    -2.1279  -2.0385  -2.0353  -1.9240  -1.8405  -1.7914  -1.7097  -1.7087
    -1.6237  -1.5383  -1.4541  -1.4372  -1.3691  -1.2445  -1.2209  -1.1060
    -0.6694  -0.5246  -0.3031  -0.0913   0.6859   0.9804   1.0244   1.3097
     1.6378   1.7330   1.7400   1.8648   2.1060   2.1272   2.2440   2.3859
     2.4502   2.5392   2.5405   2.6324   2.7254   2.8766   2.9144

          k = 0.0715-0.0082 0.0000 ( 37170 PWs)   bands (ev):

   -48.4953 -48.4858 -48.4448 -48.4353 -48.1341 -48.1241 -26.5378 -26.5232
   -26.4807 -26.4668 -26.4253 -26.4157 -26.4066 -26.3907 -26.3777 -26.3604
   -26.2826 -26.2330 -26.2210 -26.0860 -26.0649 -26.0524 -26.0254 -26.0127
    -4.7236  -3.9926  -3.4600  -3.3133  -3.1459  -3.0000  -2.9900  -2.9497
    -2.9189  -2.8813  -2.7821  -2.4110  -2.3389  -2.2870  -2.2860  -2.1973
    -2.0809  -2.0451  -2.0229  -1.8982  -1.7973  -1.7933  -1.6423  -1.5894
    -1.5780  -1.4600  -1.3712  -1.3653  -1.3041  -1.2385  -1.0876  -1.0466
    -0.7085  -0.5139  -0.2483  -0.1215   0.5747   0.9137   1.0931   1.1491
     1.3965   1.6106   1.7878   1.9316   1.9858   2.0272   2.1331   2.2867
     2.3131   2.4543   2.5028   2.7732   2.8005   2.8578   2.9656

          k = 0.0715 0.0068 0.0000 ( 37194 PWs)   bands (ev):

   -48.4971 -48.4838 -48.4466 -48.4334 -48.1363 -48.1219 -26.5430 -26.5195
   -26.4837 -26.4629 -26.4395 -26.4330 -26.4069 -26.3950 -26.3898 -26.3727
   -26.2557 -26.2489 -26.2061 -26.0671 -26.0573 -26.0521 -26.0273 -26.0115
    -4.7046  -3.8518  -3.4543  -3.2688  -3.2070  -3.0145  -2.9602  -2.9376
    -2.8746  -2.8569  -2.6894  -2.4234  -2.3524  -2.2934  -2.1927  -2.1693
    -2.0900  -2.0445  -1.9549  -1.8961  -1.8207  -1.7376  -1.5860  -1.4999
    -1.4760  -1.3962  -1.3531  -1.2862  -1.2587  -1.0718  -1.0311  -0.7899
    -0.7729  -0.5063  -0.2121  -0.2104   0.4427   0.7629   0.8821   0.9926
     1.1009   1.4690   1.6224   1.7762   1.9352   1.9586   1.9990   2.1608
     2.2547   2.3779   2.4114   2.6924   2.8572   2.9790   3.0098

          k = 0.0715 0.0219 0.0000 ( 37225 PWs)   bands (ev):

   -48.4984 -48.4823 -48.4479 -48.4319 -48.1379 -48.1201 -26.5479 -26.5169
   -26.4851 -26.4612 -26.4586 -26.4414 -26.4109 -26.4066 -26.3983 -26.3702
   -26.2706 -26.2353 -26.1857 -26.0678 -26.0524 -26.0367 -26.0285 -26.0110
    -4.6151  -3.6878  -3.4579  -3.3287  -3.0639  -3.0080  -2.8957  -2.8893
    -2.8084  -2.7786  -2.5850  -2.4239  -2.3348  -2.2656  -2.1612  -2.0730
    -2.0259  -2.0252  -1.9433  -1.8759  -1.8284  -1.6800  -1.5347  -1.5081
    -1.4507  -1.3650  -1.3256  -1.2498  -1.0701  -0.9402  -0.8597  -0.7822
    -0.6252  -0.3838  -0.3604  -0.1747   0.3186   0.5471   0.5831   0.6753
     0.8795   1.2424   1.4025   1.5998   1.7085   1.8371   1.8857   2.1347
     2.1417   2.2757   2.4049   2.6181   2.8289   2.9059   3.0560

          k = 0.0715 0.0369 0.0000 ( 37245 PWs)   bands (ev):

   -48.4992 -48.4814 -48.4487 -48.4309 -48.1389 -48.1189 -26.5517 -26.5154
   -26.4849 -26.4750 -26.4548 -26.4494 -26.4249 -26.4083 -26.4006 -26.3677
   -26.2844 -26.2227 -26.1730 -26.0686 -26.0532 -26.0293 -26.0235 -26.0112
    -4.4665  -3.5431  -3.5306  -3.2795  -2.9756  -2.9074  -2.8274  -2.8096
    -2.7467  -2.6696  -2.5135  -2.4137  -2.2575  -2.1999  -2.1531  -2.0347
    -2.0314  -1.9564  -1.8764  -1.8258  -1.7979  -1.6256  -1.5302  -1.5256
    -1.4636  -1.3383  -1.2793  -1.1945  -0.9588  -0.8535  -0.8526  -0.6557
    -0.5435  -0.4768  -0.1375  -0.0793   0.2206   0.2608   0.3012   0.3358
     0.6574   0.9864   1.2170   1.3817   1.4835   1.7266   1.7701   1.8661
     2.1425   2.2627   2.4279   2.5263   2.6968   2.9105   2.9784

          k = 0.0715 0.0520 0.0000 ( 37259 PWs)   bands (ev):

   -48.4994 -48.4811 -48.4489 -48.4306 -48.1393 -48.1185 -26.5541 -26.5150
   -26.4834 -26.4805 -26.4558 -26.4516 -26.4303 -26.4110 -26.4017 -26.3660
   -26.2894 -26.2185 -26.1688 -26.0688 -26.0544 -26.0290 -26.0195 -26.0118
    -4.2736  -3.6099  -3.4655  -3.2093  -2.9137  -2.7784  -2.7623  -2.7296
    -2.6723  -2.5591  -2.4835  -2.4187  -2.2179  -2.1402  -2.1085  -2.1015
    -2.0049  -1.9238  -1.7846  -1.7841  -1.7250  -1.5788  -1.5589  -1.5285
    -1.4442  -1.3181  -1.2235  -1.1330  -1.0481  -0.8262  -0.8110  -0.7257
    -0.6790  -0.3688  -0.0054  -0.0054   0.0191   0.0990   0.1761   0.2329
     0.3906   0.8924   1.1034   1.1593   1.3831   1.6461   1.6857   1.7013
     2.1222   2.2267   2.3679   2.4572   2.5433   2.7465   2.7921

          k = 0.0715-0.1135 0.0000 ( 37214 PWs)   bands (ev):

   -48.4991 -48.4814 -48.4485 -48.4310 -48.1389 -48.1188 -26.5546 -26.5155
   -26.4808 -26.4767 -26.4595 -26.4499 -26.4265 -26.4137 -26.4013 -26.3653
   -26.2850 -26.2230 -26.1733 -26.0681 -26.0558 -26.0281 -26.0244 -26.0128
    -4.0565  -3.6839  -3.4875  -3.1536  -2.8266  -2.7467  -2.6831  -2.6578
    -2.5960  -2.4819  -2.4500  -2.4461  -2.2562  -2.2368  -2.1166  -2.0593
    -1.9345  -1.8954  -1.8062  -1.7858  -1.6407  -1.5830  -1.5662  -1.5129
    -1.3744  -1.3526  -1.1768  -1.1505  -1.0967  -1.0714  -0.8556  -0.8288
    -0.6994  -0.5387  -0.2572  -0.1532  -0.1349   0.1919   0.2599   0.3079
     0.4605   1.0615   1.0886   1.2536   1.3379   1.6081   1.6269   1.6935
     2.1154   2.2089   2.3181   2.4091   2.4776   2.6804   2.7587

          k = 0.0715-0.0985 0.0000 ( 37188 PWs)   bands (ev):

   -48.4981 -48.4824 -48.4476 -48.4320 -48.1380 -48.1198 -26.5532 -26.5167
   -26.4783 -26.4640 -26.4593 -26.4504 -26.4155 -26.4137 -26.3994 -26.3657
   -26.2717 -26.2357 -26.1860 -26.0665 -26.0573 -26.0381 -26.0266 -26.0140
    -3.8849  -3.7048  -3.6160  -3.1335  -2.7371  -2.7054  -2.6685  -2.6530
    -2.5752  -2.5046  -2.4848  -2.3510  -2.3088  -2.2879  -2.2127  -2.0544
    -1.8996  -1.8799  -1.8765  -1.8204  -1.6363  -1.6084  -1.5879  -1.5390
    -1.4749  -1.3674  -1.3115  -1.2698  -1.1741  -1.0003  -0.9232  -0.9155
    -0.8241  -0.6887  -0.6813  -0.2021  -0.1641   0.2761   0.4554   0.5334
     0.6394   1.1795   1.3548   1.4186   1.5905   1.6331   1.6872   1.7468
     2.1199   2.2300   2.3538   2.4813   2.5263   2.7210   2.8305

          k = 0.0715-0.0834 0.0000 ( 37196 PWs)   bands (ev):

   -48.4967 -48.4840 -48.4462 -48.4335 -48.1364 -48.1214 -26.5500 -26.5185
   -26.4768 -26.4546 -26.4540 -26.4426 -26.4157 -26.3962 -26.3930 -26.3672
   -26.2559 -26.2501 -26.2062 -26.0641 -26.0594 -26.0588 -26.0246 -26.0153
    -3.9254  -3.8300  -3.5210  -3.1583  -2.7806  -2.6977  -2.6795  -2.6416
    -2.6078  -2.5499  -2.4844  -2.4671  -2.3462  -2.3061  -2.1981  -2.0323
    -2.0027  -1.8902  -1.8896  -1.8560  -1.7639  -1.7405  -1.6688  -1.5758
    -1.5586  -1.4421  -1.4391  -1.2992  -1.2482  -1.1856  -1.0545  -1.0420
    -0.8977  -0.6651  -0.6614  -0.1753  -0.1071   0.4237   0.6351   0.6868
     0.9819   1.3557   1.4380   1.6986   1.7149   1.8534   1.8812   2.0114
     2.1101   2.1908   2.4740   2.6336   2.6646   2.8651   2.8653

          k = 0.0715-0.0684 0.0000 ( 37191 PWs)   bands (ev):

   -48.4948 -48.4860 -48.4443 -48.4355 -48.1344 -48.1236 -26.5454 -26.5210
   -26.4759 -26.4588 -26.4465 -26.4177 -26.4128 -26.3922 -26.3710 -26.3647
   -26.2821 -26.2324 -26.2218 -26.0873 -26.0609 -26.0603 -26.0222 -26.0169
    -4.0847  -4.0154  -3.3240  -3.1893  -2.9452  -2.8045  -2.7193  -2.6657
    -2.6359  -2.5990  -2.5582  -2.4979  -2.4239  -2.3223  -2.1282  -2.0671
    -2.0274  -1.9502  -1.9475  -1.9097  -1.8608  -1.8576  -1.7247  -1.6511
    -1.6026  -1.5580  -1.5360  -1.3758  -1.3424  -1.2440  -1.1861  -1.1633
    -0.7909  -0.6445  -0.5200  -0.1657   0.1325   0.5875   0.8070   0.8692
     1.2826   1.5477   1.5805   1.8299   1.8707   1.9863   2.0863   2.1470
     2.1536   2.3495   2.5590   2.7175   2.7897   2.9321   3.0408

          k = 0.0715-0.0533 0.0000 ( 37176 PWs)   bands (ev):

   -48.4927 -48.4883 -48.4422 -48.4378 -48.1320 -48.1262 -26.5398 -26.5242
   -26.4746 -26.4647 -26.4367 -26.4154 -26.3879 -26.3828 -26.3747 -26.3332
   -26.3127 -26.2630 -26.1889 -26.1194 -26.0616 -26.0579 -26.0196 -26.0188
    -4.3310  -4.0866  -3.3241  -3.1361  -3.0622  -2.9096  -2.8405  -2.7990
    -2.6824  -2.6713  -2.5664  -2.5366  -2.4536  -2.2401  -2.2393  -2.2079
    -2.0526  -1.9465  -1.9315  -1.9233  -1.8925  -1.8701  -1.7554  -1.7251
    -1.6484  -1.6364  -1.5478  -1.5096  -1.3869  -1.2518  -1.2212  -1.1608
    -0.6745  -0.6417  -0.4290  -0.1373   0.4544   0.7072   0.9353   1.0757
     1.5139   1.6447   1.7940   1.9227   1.9856   2.0447   2.1250   2.2482
     2.3039   2.5261   2.5885   2.7681   2.7782   2.8981   2.9905

          k = 0.0715-0.0383 0.0000 ( 37179 PWs)   bands (ev):

   -48.4907 -48.4903 -48.4403 -48.4398 -48.1294 -48.1289 -26.5338 -26.5281
   -26.4728 -26.4708 -26.4269 -26.4164 -26.3839 -26.3800 -26.3484 -26.3458
   -26.2989 -26.2961 -26.1540 -26.1536 -26.0628 -26.0553 -26.0209 -26.0169
    -4.5319  -4.1140  -3.3660  -3.3034  -2.9852  -2.9530  -2.9395  -2.8952
    -2.7887  -2.7837  -2.6829  -2.4625  -2.4261  -2.3406  -2.2593  -2.1558
    -2.0735  -2.0243  -1.9658  -1.9491  -1.8641  -1.8102  -1.7701  -1.7357
    -1.6398  -1.6373  -1.5100  -1.5042  -1.4199  -1.2825  -1.2148  -1.1248
    -0.6496  -0.5758  -0.3648  -0.1049   0.7404   0.7730   0.9998   1.2623
     1.6615   1.7332   1.8036   1.8648   2.0520   2.1713   2.2402   2.3899
     2.4208   2.5128   2.5763   2.6521   2.7812   2.8462   2.9628

          k =-0.0858 0.0279 0.0000 ( 37150 PWs)   bands (ev):

   -48.4905 -48.4905 -48.4401 -48.4400 -48.1291 -48.1291 -26.5305 -26.5304
   -26.4738 -26.4738 -26.4185 -26.4184 -26.3839 -26.3839 -26.3470 -26.3470
   -26.2974 -26.2974 -26.1538 -26.1538 -26.0588 -26.0587 -26.0191 -26.0190
    -4.3518  -4.3518  -3.3527  -3.3526  -2.9475  -2.9475  -2.8985  -2.8985
    -2.8166  -2.8165  -2.5898  -2.5898  -2.3468  -2.3468  -2.2418  -2.2417
    -2.0556  -2.0556  -1.9401  -1.9401  -1.8540  -1.8540  -1.6887  -1.6886
    -1.6199  -1.6199  -1.4821  -1.4821  -1.3060  -1.3060  -1.1958  -1.1958
    -0.6193  -0.6193  -0.2079  -0.2079   0.7168   0.7168   1.1083   1.1083
     1.6825   1.6825   1.7592   1.7592   2.0938   2.0938   2.2906   2.2906
     2.4867   2.4867   2.5454   2.5454   2.8389   2.8390   2.8719

          k =-0.0858 0.0430 0.0000 ( 37186 PWs)   bands (ev):

   -48.4929 -48.4882 -48.4424 -48.4377 -48.1318 -48.1264 -26.5361 -26.5255
   -26.4774 -26.4692 -26.4261 -26.4137 -26.3882 -26.3808 -26.3794 -26.3314
   -26.3134 -26.2638 -26.1888 -26.1190 -26.0603 -26.0576 -26.0214 -26.0169
    -4.4045  -4.2311  -3.3737  -3.2739  -2.9600  -2.9462  -2.8991  -2.8659
    -2.8469  -2.7441  -2.7184  -2.4855  -2.3690  -2.3042  -2.2468  -2.1613
    -2.1110  -1.9944  -1.9885  -1.9269  -1.8700  -1.8057  -1.6896  -1.6881
    -1.5875  -1.5739  -1.4473  -1.4442  -1.3172  -1.2819  -1.2106  -1.1804
    -0.6471  -0.6143  -0.2999  -0.1616   0.6863   0.6986   0.9029   1.1510
     1.5467   1.6035   1.7898   1.8840   2.0022   2.0393   2.2234   2.2266
     2.3361   2.4834   2.5155   2.7189   2.7557   2.8946   2.9151

          k =-0.0858 0.0580 0.0000 ( 37204 PWs)   bands (ev):

   -48.4950 -48.4859 -48.4445 -48.4354 -48.1343 -48.1238 -26.5419 -26.5216
   -26.4799 -26.4639 -26.4353 -26.4165 -26.4079 -26.3922 -26.3755 -26.3627
   -26.2823 -26.2326 -26.2215 -26.0868 -26.0622 -26.0568 -26.0237 -26.0152
    -4.3897  -4.0527  -3.3512  -3.1422  -3.1160  -2.9010  -2.8318  -2.8015
    -2.7875  -2.7668  -2.6621  -2.4600  -2.3669  -2.3078  -2.1933  -2.1082
    -2.0596  -2.0083  -1.9822  -1.8775  -1.8204  -1.7948  -1.6639  -1.6531
    -1.5366  -1.4627  -1.4124  -1.3562  -1.3099  -1.2321  -1.1728  -1.1330
    -0.7095  -0.6200  -0.4285  -0.1508   0.5920   0.6200   0.6421   1.0231
     1.3143   1.5326   1.6827   1.8398   1.9039   2.0163   2.0855   2.1000
     2.1986   2.4480   2.4485   2.6608   2.8083   2.9321   2.9985

          k =-0.0858 0.0730 0.0000 ( 37191 PWs)   bands (ev):

   -48.4968 -48.4839 -48.4463 -48.4335 -48.1364 -48.1216 -26.5473 -26.5187
   -26.4811 -26.4586 -26.4448 -26.4417 -26.4105 -26.3960 -26.3918 -26.3699
   -26.2558 -26.2497 -26.2061 -26.0652 -26.0583 -26.0563 -26.0257 -26.0140
    -4.3161  -3.8411  -3.3654  -3.2282  -2.9780  -2.8373  -2.8214  -2.7358
    -2.7305  -2.6562  -2.5738  -2.4483  -2.3362  -2.3229  -2.1659  -2.0698
    -1.9937  -1.9811  -1.9224  -1.8719  -1.7773  -1.7597  -1.6194  -1.5023
    -1.4973  -1.4141  -1.4054  -1.2695  -1.2311  -1.1866  -1.0392  -0.9312
    -0.8107  -0.6304  -0.5729  -0.1545   0.3090   0.4845   0.5194   0.8302
     1.0076   1.4523   1.4543   1.6072   1.8214   1.8997   1.9045   2.0930
     2.1957   2.2103   2.3986   2.5794   2.7693   2.8902   3.0159

          k =-0.0858 0.0881 0.0000 ( 37231 PWs)   bands (ev):

   -48.4982 -48.4824 -48.4477 -48.4319 -48.1380 -48.1199 -26.5517 -26.5166
   -26.4813 -26.4633 -26.4534 -26.4533 -26.4132 -26.4119 -26.3991 -26.3671
   -26.2714 -26.2356 -26.1859 -26.0668 -26.0560 -26.0377 -26.0271 -26.0132
    -4.1984  -3.6363  -3.5181  -3.1940  -2.8432  -2.8104  -2.7268  -2.7190
    -2.6733  -2.5337  -2.5100  -2.4354  -2.2760  -2.2663  -2.2009  -2.0111
    -1.9627  -1.9237  -1.8950  -1.8210  -1.7194  -1.6801  -1.5815  -1.4788
    -1.4565  -1.3899  -1.2854  -1.2044  -1.2007  -0.9593  -0.9131  -0.8799
    -0.7156  -0.6846  -0.5823  -0.1525   0.0393   0.3234   0.4013   0.5941
     0.6836   1.2394   1.2999   1.4249   1.6026   1.6997   1.7770   1.8760
     2.1201   2.2335   2.3527   2.4878   2.6225   2.8382   2.8539

          k =-0.0858 0.1031 0.0000 ( 37214 PWs)   bands (ev):

   -48.4991 -48.4814 -48.4485 -48.4310 -48.1389 -48.1188 -26.5546 -26.5155
   -26.4808 -26.4767 -26.4595 -26.4499 -26.4265 -26.4137 -26.4013 -26.3653
   -26.2850 -26.2230 -26.1733 -26.0681 -26.0558 -26.0281 -26.0244 -26.0128
    -4.0565  -3.6839  -3.4875  -3.1536  -2.8266  -2.7467  -2.6831  -2.6578
    -2.5960  -2.4819  -2.4500  -2.4461  -2.2562  -2.2368  -2.1166  -2.0593
    -1.9345  -1.8954  -1.8062  -1.7858  -1.6407  -1.5830  -1.5662  -1.5129
    -1.3744  -1.3526  -1.1768  -1.1505  -1.0967  -1.0714  -0.8556  -0.8288
    -0.6994  -0.5387  -0.2572  -0.1532  -0.1349   0.1919   0.2599   0.3079
     0.4605   1.0615   1.0886   1.2536   1.3379   1.6081   1.6269   1.6935
     2.1154   2.2089   2.3181   2.4091   2.4777   2.6804   2.7586

          k =-0.0858-0.0624 0.0000 ( 37222 PWs)   bands (ev):

   -48.4993 -48.4811 -48.4488 -48.4306 -48.1393 -48.1184 -26.5556 -26.5151
   -26.4813 -26.4804 -26.4618 -26.4486 -26.4311 -26.4144 -26.4020 -26.3647
   -26.2897 -26.2187 -26.1690 -26.0687 -26.0557 -26.0284 -26.0199 -26.0127
    -3.9521  -3.7948  -3.4334  -3.1388  -2.7969  -2.7832  -2.6691  -2.5905
    -2.5294  -2.4925  -2.4720  -2.4045  -2.2818  -2.2543  -2.0550  -2.0240
    -1.9592  -1.8863  -1.7714  -1.7710  -1.6088  -1.5892  -1.5219  -1.5119
    -1.3294  -1.2884  -1.2079  -1.1549  -1.0815  -1.0015  -0.9153  -0.8039
    -0.7128  -0.3731  -0.2236  -0.1000  -0.0414   0.0824   0.1810   0.2608
     0.2726   0.9390   1.0332   1.0698   1.3051   1.5490   1.5724   1.6647
     2.0944   2.1863   2.2820   2.3983   2.4213   2.6168   2.6912

     the Fermi energy is     1.6649 ev

!    total energy              =    -997.67090305 Ry
     estimated scf accuracy    <       0.00000234 Ry
     smearing contrib. (-TS)   =      -0.06292099 Ry
     internal energy E=F+TS    =    -997.60798206 Ry

     The total energy is F=E-TS. E is the sum of the following terms:
     one-electron contribution =   -7861.78503365 Ry
     hartree contribution      =    3963.60690803 Ry
     xc contribution           =    -259.78054317 Ry
     ewald contribution        =    3160.35067086 Ry
     electric field correction =       0.00001586 Ry

     convergence has been achieved in  17 iterations

     negative rho (up, down):  6.521E-04 0.000E+00

     Forces acting on atoms (cartesian axes, Ry/au):

     atom    1 type  1   force =     0.00321831    0.00233915   -0.00791264
     atom    2 type  1   force =     0.00321865    0.00233622   -0.00791132
     atom    3 type  2   force =     0.00171437    0.00124439    0.03139125
     atom    4 type  2   force =     0.00171557    0.00124129    0.03138634
     atom    5 type  1   force =    -0.00510039   -0.00370363   -0.02773281
     atom    6 type  1   force =    -0.00510729   -0.00370717   -0.02773591
     atom    7 type  2   force =     0.00026920    0.00018319    0.00307951
     atom    8 type  2   force =     0.00025352    0.00018889    0.00307898
     atom    9 type  1   force =     0.00018172    0.00013278    0.00158229
     atom   10 type  1   force =     0.00018153    0.00013294    0.00157941
     atom   11 type  2   force =    -0.00027084   -0.00019081   -0.00039541
     atom   12 type  2   force =    -0.00027434   -0.00019723   -0.00040969

     Total force =     0.061474     Total SCF correction =     0.008143
     SCF correction compared to forces is large: reduce conv_thr to get better values

     Writing output data file ./Zr2Pt2/Zr2Pt2_beef.save/

     init_run     :     94.23s CPU     94.72s WALL (       1 calls)
     electrons    :   2653.46s CPU   2666.69s WALL (       1 calls)
     forces       :     42.88s CPU     43.15s WALL (       1 calls)

     Called by init_run:
     wfcinit      :     81.88s CPU     82.19s WALL (       1 calls)
     potinit      :      8.29s CPU      8.37s WALL (       1 calls)
     hinit0       :      2.34s CPU      2.35s WALL (       1 calls)

     Called by electrons:
     c_bands      :   2345.64s CPU   2353.12s WALL (      17 calls)
     sum_band     :    273.11s CPU    276.01s WALL (      17 calls)
     v_of_rho     :     25.10s CPU     26.27s WALL (      18 calls)
     newd         :     16.27s CPU     17.96s WALL (      18 calls)
     mix_rho      :      0.67s CPU      0.68s WALL (      17 calls)
     vdW_kernel   :      5.69s CPU      5.70s WALL (       1 calls)

     Called by c_bands:
     init_us_2    :     10.94s CPU     10.98s WALL (    2664 calls)
     cegterg      :   2316.40s CPU   2322.58s WALL (    1258 calls)

     Called by *egterg:
     cdiaghg      :    123.82s CPU    123.87s WALL (    7567 calls)
     h_psi        :   1252.20s CPU   1257.93s WALL (    7641 calls)
     s_psi        :    378.05s CPU    378.13s WALL (    7641 calls)
     g_psi        :      1.21s CPU      1.22s WALL (    6309 calls)

     Called by h_psi:
     h_psi:calbec :    397.17s CPU    397.85s WALL (    7641 calls)
     vloc_psi     :    440.82s CPU    445.78s WALL (    7641 calls)
     add_vuspsi   :    409.82s CPU    409.90s WALL (    7641 calls)

     General routines
     calbec       :    585.57s CPU    586.63s WALL (    9195 calls)
     fft          :     14.15s CPU     14.57s WALL (    1193 calls)
     ffts         :      0.20s CPU      0.20s WALL (      35 calls)
     fftw         :    506.13s CPU    511.82s WALL (  606376 calls)
     interpolate  :      0.56s CPU      0.57s WALL (      18 calls)

     Parallel routines
     fft_scatt_xy :     40.28s CPU     40.76s WALL (  607604 calls)
     fft_scatt_yz :    100.90s CPU    102.00s WALL (  607604 calls)

     PWSCF        :  48m44.60s CPU  49m19.49s WALL


   This run was terminated on:  23:30:22  25Jun2022            

=------------------------------------------------------------------------------=
   JOB DONE.
=------------------------------------------------------------------------------=
